 Entering Gaussian System
 *********************************************
 Gaussian 98:
 frequency output generated by the xtb code
 *********************************************
                         Standard orientation:
 --------------------------------------------------------------------
  Center     Atomic     Atomic              Coordinates (Angstroms)
  Number     Number      Type              X           Y           Z
 --------------------------------------------------------------------
    1          8             0        1.763000   -1.243585   -1.801199
    2          6             0        1.316396   -2.452683   -1.256501
    3          1             0        1.867433   -3.250362   -1.768549
    4          1             0        1.546790   -2.528071   -0.190643
    5          6             0       -0.172749   -2.740608   -1.538076
    6          1             0       -0.357708   -3.786770   -1.286146
    7          1             0       -0.335212   -2.603071   -2.609474
    8          7             0       -1.183023   -1.915394   -0.822318
    9          6             0       -1.020405   -2.002338    0.637888
   10          1             0       -1.087423   -3.038955    0.961457
   11          1             0       -1.816881   -1.420170    1.101294
   12          1             0       -0.059446   -1.597713    0.943145
   13          6             0       -2.526855   -2.419314   -1.161448
   14          1             0       -2.635133   -3.456068   -0.849308
   15          1             0       -2.694967   -2.352942   -2.234292
   16          1             0       -3.264287   -1.807175   -0.642041
   17          6             0       -1.118436   -0.500111   -1.227743
   18          1             0       -1.199079   -0.415443   -2.308433
   19          1             0       -0.183446   -0.051091   -0.908883
   20          1             0       -1.942687    0.030662   -0.749347
   21          1             0        1.774387   -0.555236   -1.112986
   22          6             0        4.258731   -1.587994    0.612110
   23          8             0        3.313118   -2.010342    1.275108
   24          7             0        5.339107   -2.360945    0.352876
   25          1             0        5.411552   -3.241121    0.832233
   26          1             0        6.167208   -1.985237   -0.072130
   27          7             0        4.277714   -0.334075    0.108708
   28          1             0        4.975536   -0.059314   -0.558378
   29          1             0        3.411268    0.192026    0.126542
   30          6             0       -0.578120    3.180712   -1.283495
   31          8             0       -1.210958    2.845233   -0.278667
   32          7             0        0.649194    2.704039   -1.539396
   33          1             0        1.060321    2.021837   -0.901818
   34          1             0        1.159247    2.971657   -2.360410
   35          7             0       -1.114375    4.023188   -2.199547
   36          1             0       -0.563596    4.406259   -2.946303
   37          1             0       -1.980833    4.479676   -1.975332
   38          6             0        1.113452    0.710767    1.399664
   39          8             0        1.524259    0.674519    0.218141
   40          7             0        1.552393   -0.181711    2.297563
   41          1             0        2.271514   -0.860969    2.012742
   42          1             0        1.318543   -0.099195    3.269893
   43          7             0        0.196434    1.608813    1.780683
   44          1             0       -0.168750    1.602435    2.715450
   45          1             0       -0.293775    2.156610    1.068935
   46          6             0       -4.121675    0.869252    1.073273
   47          8             0       -3.470880   -0.094168    0.676083
   48          7             0       -3.771646    2.141680    0.806514
   49          1             0       -2.875927    2.344072    0.374937
   50          1             0       -4.265565    2.906691    1.229088
   51          7             0       -5.245766    0.701584    1.816982
   52          1             0       -5.855674    1.469248    2.031818
   53          1             0       -5.607564   -0.228624    1.929803
 --------------------------------------------------------------------
     1 basis functions        1 primitive gaussians
     1 alpha electrons        1 beta electrons

 Harmonic frequencies (cm**-1), IR intensities (km*mol⁻¹),
 Raman scattering activities (A**4/amu), Raman depolarization ratios,
 reduced masses (AMU), force constants (mDyne/A) and normal coordinates:
                      1                      2                      3
                        a                      a                      a 
 Frequencies --    13.2145                27.0856                30.9260
 Red. masses --    12.3558                12.2719                11.9087
 Frc consts  --     0.0000                 0.0000                 0.0000
 IR Inten    --     0.7965                 1.0745                 0.1868
 Raman Activ --     0.0000                 0.0000                 0.0000
 Depolar     --     0.0000                 0.0000                 0.0000
 Atom AN      X      Y      Z        X      Y      Z        X      Y      Z
   1   8    -0.02  -0.15   0.11    -0.00   0.23  -0.06    -0.05   0.01  -0.00
   2   6    -0.04  -0.08   0.19     0.03   0.17  -0.08    -0.07   0.03   0.02
   3   1    -0.01  -0.04   0.08     0.01   0.06  -0.03    -0.02   0.00   0.02
   4   1    -0.02   0.00   0.06     0.02   0.04  -0.02    -0.03   0.02   0.01
   5   6    -0.04  -0.08   0.18     0.03   0.16  -0.05    -0.07   0.04  -0.03
   6   1    -0.02  -0.02   0.07     0.02   0.04  -0.02    -0.03   0.01  -0.01
   7   1    -0.00  -0.05   0.05    -0.00   0.06  -0.01    -0.01   0.01  -0.01
   8   7    -0.05  -0.03   0.10     0.04   0.13   0.02    -0.10   0.06  -0.08
   9   6    -0.11   0.05   0.11     0.07   0.06   0.01    -0.19  -0.00  -0.06
  10   1    -0.04   0.02   0.05     0.03   0.01  -0.01    -0.07  -0.00  -0.03
  11   1    -0.04   0.03   0.01     0.02   0.01   0.01    -0.06   0.00  -0.03
  12   1    -0.03   0.01   0.04     0.02   0.02   0.00    -0.06  -0.02   0.00
  13   6    -0.04  -0.01   0.06     0.04   0.13   0.01    -0.08   0.11  -0.18
  14   1    -0.02   0.00   0.03     0.02   0.03  -0.01    -0.04   0.03  -0.07
  15   1     0.00  -0.02   0.01     0.01   0.05   0.01    -0.00   0.05  -0.05
  16   1    -0.02   0.01  -0.00     0.01   0.03   0.02    -0.03   0.03  -0.06
  17   6     0.00  -0.04   0.03     0.03   0.14   0.08    -0.01   0.06  -0.02
  18   1     0.02  -0.03   0.01     0.01   0.06   0.03     0.01   0.03  -0.01
  19   1    -0.00  -0.01   0.02     0.01   0.04   0.03    -0.00   0.00   0.01
  20   1    -0.00  -0.00  -0.01     0.01   0.03   0.03    -0.01   0.02  -0.01
  21   1    -0.00  -0.02   0.01     0.01   0.05  -0.01     0.00   0.00  -0.00
  22   6     0.14   0.05  -0.13    -0.01  -0.13  -0.01     0.15   0.10   0.06
  23   8     0.25   0.05  -0.04    -0.03  -0.08   0.00     0.16  -0.01  -0.04
  24   7     0.16   0.09  -0.23    -0.08  -0.22  -0.07     0.29   0.25   0.17
  25   1     0.06   0.03  -0.06    -0.04  -0.06  -0.02     0.09   0.06   0.04
  26   1     0.03   0.03  -0.09    -0.02  -0.07  -0.02     0.08   0.09   0.07
  27   7     0.07   0.05  -0.17     0.07  -0.13   0.01     0.07   0.13   0.09
  28   1    -0.00   0.01  -0.07     0.02  -0.04  -0.00     0.03   0.06   0.05
  29   1     0.01   0.00  -0.03     0.03  -0.02   0.01     0.01   0.01   0.01
  30   6     0.00   0.02   0.13    -0.09  -0.19   0.00    -0.02  -0.14  -0.04
  31   8     0.03  -0.01   0.16    -0.01  -0.15   0.09     0.06  -0.05   0.05
  32   7    -0.02   0.01   0.08    -0.03  -0.05   0.03    -0.01  -0.12  -0.05
  33   1    -0.00  -0.01   0.01     0.01   0.01   0.02     0.01  -0.01  -0.00
  34   1    -0.01   0.01   0.02    -0.03  -0.04  -0.01    -0.02  -0.06  -0.04
  35   7    -0.02   0.07   0.20    -0.26  -0.43  -0.11    -0.13  -0.33  -0.14
  36   1    -0.01   0.02   0.05    -0.09  -0.11  -0.04    -0.05  -0.10  -0.05
  37   1    -0.00   0.02   0.06    -0.08  -0.13  -0.03    -0.03  -0.08  -0.03
  38   6     0.08  -0.06   0.01     0.14   0.06   0.09    -0.02  -0.13  -0.00
  39   8     0.03  -0.04  -0.01     0.13   0.07   0.09     0.04  -0.04   0.02
  40   7     0.13  -0.08  -0.02     0.17   0.08   0.09    -0.12  -0.27  -0.08
  41   1     0.04  -0.01  -0.01     0.03   0.01   0.02    -0.01  -0.05  -0.02
  42   1     0.05  -0.02  -0.00     0.05   0.02   0.03    -0.03  -0.08  -0.02
  43   7     0.09  -0.09   0.07     0.17   0.08   0.12     0.00  -0.13   0.04
  44   1     0.04  -0.02   0.02     0.05   0.02   0.03    -0.01  -0.06   0.00
  45   1     0.02  -0.02   0.03     0.03   0.01   0.03     0.01  -0.02   0.02
  46   6    -0.14   0.07  -0.19    -0.09   0.01  -0.05     0.02   0.10   0.05
  47   8    -0.14   0.07  -0.15    -0.03   0.01   0.05    -0.09   0.11  -0.11
  48   7    -0.10   0.07  -0.15    -0.11   0.01  -0.10     0.10   0.11   0.19
  49   1    -0.01   0.01  -0.01    -0.01  -0.00   0.00     0.02   0.02   0.04
  50   1    -0.03   0.02  -0.05    -0.04   0.00  -0.04     0.05   0.03   0.08
  51   7    -0.25   0.09  -0.34    -0.16   0.02  -0.16     0.06   0.11   0.13
  52   1    -0.07   0.03  -0.11    -0.05   0.00  -0.06     0.03   0.04   0.06
  53   1    -0.08   0.02  -0.11    -0.04   0.00  -0.04    -0.00   0.03   0.01
                      4                      5                      6
                        a                      a                      a 
 Frequencies --    33.3392                38.5854                43.5080
 Red. masses --    12.7088                12.3931                12.3778
 Frc consts  --     0.0000                 0.0000                 0.0000
 IR Inten    --     1.6227                 2.0623                 1.5665
 Raman Activ --     0.0000                 0.0000                 0.0000
 Depolar     --     0.0000                 0.0000                 0.0000
 Atom AN      X      Y      Z        X      Y      Z        X      Y      Z
   1   8     0.12  -0.15   0.11    -0.18   0.10  -0.29     0.02   0.03  -0.01
   2   6     0.04  -0.12   0.07    -0.04   0.08  -0.16     0.01   0.10   0.16
   3   1     0.01  -0.04   0.02    -0.01   0.03  -0.05     0.02   0.01   0.10
   4   1    -0.00  -0.04   0.02     0.02   0.04  -0.05    -0.02   0.08   0.05
   5   6     0.05  -0.08  -0.01    -0.05  -0.01  -0.02     0.03   0.04   0.10
   6   1     0.00  -0.02   0.00     0.01  -0.00   0.01     0.01   0.02   0.05
   7   1     0.03  -0.03  -0.00    -0.04  -0.01  -0.00     0.03  -0.01   0.02
   8   7     0.04  -0.03  -0.08    -0.03  -0.04   0.05    -0.04   0.07  -0.03
   9   6    -0.00   0.04  -0.06     0.07  -0.04   0.04    -0.18   0.11  -0.01
  10   1    -0.00   0.02  -0.00     0.03  -0.01   0.01    -0.06   0.03   0.00
  11   1    -0.01   0.02  -0.03     0.03  -0.01   0.03    -0.07   0.03  -0.03
  12   1    -0.00   0.02  -0.02     0.02  -0.01  -0.01    -0.06   0.04   0.02
  13   6     0.04  -0.03  -0.09    -0.03  -0.07   0.13     0.00   0.06  -0.15
  14   1     0.01  -0.00  -0.01     0.00  -0.02   0.04    -0.01   0.02  -0.04
  15   1     0.02  -0.03  -0.03    -0.03  -0.02   0.04     0.03   0.01  -0.05
  16   1     0.01   0.00  -0.04    -0.00  -0.03   0.05    -0.02   0.02  -0.07
  17   6     0.07  -0.05  -0.14    -0.08  -0.04   0.05     0.01   0.06  -0.06
  18   1     0.03  -0.03  -0.04    -0.04  -0.01   0.01     0.04   0.01  -0.02
  19   1     0.02  -0.01  -0.03    -0.02  -0.00   0.00    -0.01   0.02   0.01
  20   1     0.01  -0.01  -0.06    -0.02  -0.02   0.02    -0.01   0.02  -0.05
  21   1     0.01  -0.03   0.03    -0.02   0.03  -0.07     0.00   0.04  -0.03
  22   6    -0.07  -0.04   0.01     0.09  -0.08   0.12     0.09  -0.12   0.07
  23   8    -0.09  -0.02   0.01    -0.01  -0.15  -0.04     0.17   0.01   0.28
  24   7    -0.10  -0.07   0.02     0.26   0.04   0.48     0.06  -0.20   0.11
  25   1    -0.03  -0.02   0.00     0.07   0.02   0.15     0.02  -0.03   0.08
  26   1    -0.02  -0.03   0.00     0.08   0.02   0.16     0.01  -0.08  -0.01
  27   7    -0.03  -0.04   0.02     0.03  -0.14   0.00     0.07  -0.23  -0.17
  28   1    -0.01  -0.02   0.00     0.05  -0.02   0.05    -0.00  -0.10  -0.08
  29   1    -0.00  -0.00  -0.00    -0.00  -0.05  -0.04     0.03  -0.05  -0.04
  30   6    -0.12   0.05   0.05    -0.04   0.08   0.04    -0.05   0.03  -0.04
  31   8     0.04   0.31   0.25     0.02   0.09   0.08    -0.12  -0.17  -0.16
  32   7    -0.25  -0.16  -0.15    -0.10   0.01  -0.09     0.01   0.15  -0.00
  33   1    -0.05  -0.02  -0.03    -0.02  -0.00  -0.03     0.00   0.03  -0.01
  34   1    -0.10  -0.08  -0.07    -0.04   0.01  -0.03     0.02   0.09   0.03
  35   7    -0.21  -0.01   0.04    -0.06   0.18   0.13    -0.02   0.13   0.03
  36   1    -0.08  -0.05  -0.03    -0.03   0.04   0.02     0.00   0.07   0.03
  37   1    -0.03   0.04   0.05    -0.01   0.06   0.06    -0.02   0.00  -0.00
  38   6     0.04   0.10   0.01     0.08   0.01  -0.12     0.07   0.05  -0.09
  39   8    -0.08   0.01  -0.03     0.05  -0.01  -0.15     0.09   0.05  -0.10
  40   7    -0.02   0.06  -0.00     0.02  -0.06  -0.16     0.15   0.14  -0.05
  41   1    -0.02   0.00  -0.01    -0.01  -0.03  -0.04     0.04   0.04   0.00
  42   1     0.03   0.04   0.01     0.02  -0.01  -0.04     0.03   0.04  -0.02
  43   7     0.23   0.27   0.08     0.20   0.10  -0.06    -0.03  -0.03  -0.14
  44   1     0.08   0.09   0.03     0.06   0.02  -0.01    -0.00  -0.00  -0.04
  45   1     0.05   0.08   0.03     0.04   0.03  -0.01    -0.02  -0.02  -0.04
  46   6     0.07   0.00  -0.03    -0.04  -0.02  -0.01    -0.09  -0.07   0.04
  47   8     0.03   0.07  -0.26     0.01  -0.04   0.13    -0.23  -0.06  -0.23
  48   7     0.15   0.05   0.29    -0.02  -0.03  -0.04    -0.02  -0.06   0.25
  49   1     0.04   0.03   0.08     0.01  -0.01   0.01    -0.03  -0.02   0.03
  50   1     0.04  -0.01   0.11    -0.02  -0.00  -0.04     0.02  -0.02   0.11
  51   7     0.04  -0.12  -0.10    -0.14   0.02  -0.14    -0.00  -0.13   0.17
  52   1     0.02  -0.04   0.02    -0.04   0.01  -0.06     0.02  -0.03   0.10
  53   1    -0.00  -0.03  -0.09    -0.04   0.01  -0.03    -0.02  -0.03   0.01
                      7                      8                      9
                        a                      a                      a 
 Frequencies --    50.6446                56.3798                58.9806
 Red. masses --    12.6332                12.8839                12.3287
 Frc consts  --     0.0000                 0.0000                 0.0000
 IR Inten    --     0.0634                 0.4715                 3.9047
 Raman Activ --     0.0000                 0.0000                 0.0000
 Depolar     --     0.0000                 0.0000                 0.0000
 Atom AN      X      Y      Z        X      Y      Z        X      Y      Z
   1   8     0.19  -0.19   0.13    -0.03   0.15  -0.09    -0.13  -0.01  -0.11
   2   6     0.01  -0.14   0.04     0.04   0.11  -0.07    -0.07  -0.04  -0.12
   3   1    -0.01  -0.05   0.01     0.01   0.04  -0.03    -0.02  -0.00  -0.04
   4   1    -0.01  -0.06   0.01     0.02   0.03  -0.02    -0.01  -0.02  -0.04
   5   6    -0.00   0.01  -0.03     0.03   0.06  -0.02    -0.07  -0.05  -0.09
   6   1    -0.03   0.00  -0.03     0.02   0.02  -0.00    -0.02  -0.01  -0.01
   7   1     0.02   0.02  -0.01    -0.00   0.01  -0.01    -0.03  -0.03  -0.03
   8   7     0.04   0.07  -0.05     0.03   0.04  -0.00    -0.07  -0.02  -0.11
   9   6     0.03   0.06  -0.04     0.07   0.06  -0.01    -0.01   0.09  -0.11
  10   1    -0.00   0.02  -0.01     0.02   0.02   0.00     0.01   0.03  -0.01
  11   1     0.01   0.03  -0.01     0.03   0.02   0.00    -0.00   0.03  -0.03
  12   1     0.01   0.01  -0.01     0.02   0.02  -0.01    -0.00   0.04  -0.05
  13   6     0.01   0.14  -0.05     0.03   0.01   0.04    -0.06  -0.07  -0.03
  14   1    -0.02   0.04  -0.01     0.02   0.00   0.01    -0.01  -0.02   0.01
  15   1     0.01   0.04  -0.01     0.00  -0.00   0.01    -0.03  -0.04  -0.01
  16   1     0.01   0.06  -0.02     0.01  -0.00   0.02    -0.02  -0.02  -0.01
  17   6     0.11   0.06  -0.05    -0.01   0.04  -0.01    -0.10  -0.04  -0.19
  18   1     0.01   0.02  -0.01    -0.01   0.01  -0.00    -0.02  -0.03  -0.06
  19   1     0.05  -0.00  -0.03    -0.00   0.02  -0.01    -0.04   0.00  -0.05
  20   1     0.05   0.03  -0.00    -0.00   0.01  -0.00    -0.04  -0.01  -0.07
  21   1     0.03  -0.05   0.03     0.00   0.03  -0.02    -0.04  -0.01  -0.02
  22   6     0.05  -0.07   0.04     0.04  -0.01   0.03    -0.03   0.07   0.02
  23   8     0.01  -0.08  -0.03     0.10   0.03   0.14     0.00   0.06   0.05
  24   7     0.06  -0.08   0.09     0.01  -0.02  -0.04     0.06   0.16   0.13
  25   1     0.01  -0.03   0.02     0.02   0.00   0.00     0.04   0.06   0.06
  26   1     0.02  -0.02   0.03    -0.00  -0.01  -0.03     0.01   0.05   0.02
  27   7     0.10  -0.06   0.07    -0.01  -0.03  -0.02    -0.15   0.02  -0.12
  28   1     0.04  -0.01   0.03    -0.02  -0.01  -0.02    -0.05   0.01  -0.04
  29   1     0.03  -0.01   0.01    -0.00  -0.01   0.01    -0.05  -0.01  -0.04
  30   6    -0.17   0.02   0.05    -0.04  -0.06  -0.04     0.06  -0.09   0.08
  31   8    -0.17  -0.03   0.07    -0.02   0.10   0.02     0.04  -0.12   0.07
  32   7    -0.21   0.00  -0.02    -0.26  -0.51  -0.27     0.07  -0.10   0.12
  33   1    -0.04   0.01  -0.01    -0.06  -0.10  -0.04     0.00  -0.04   0.03
  34   1    -0.06   0.03   0.00    -0.04  -0.11  -0.05     0.02  -0.03   0.03
  35   7    -0.21   0.08   0.13     0.12   0.16   0.07     0.10  -0.07   0.09
  36   1    -0.07   0.03   0.03     0.03  -0.02  -0.01     0.03  -0.02   0.03
  37   1    -0.06   0.02   0.05     0.07   0.09   0.04     0.03  -0.02   0.02
  38   6     0.01  -0.03  -0.06    -0.04  -0.09   0.06     0.06   0.04   0.13
  39   8     0.04   0.01  -0.06    -0.00  -0.08   0.08    -0.17  -0.19   0.07
  40   7     0.05  -0.03  -0.07     0.19   0.11   0.15     0.29   0.24   0.22
  41   1     0.01  -0.01  -0.02     0.05   0.03   0.05     0.04   0.03   0.05
  42   1     0.00  -0.02  -0.02     0.01   0.01   0.03     0.11   0.09   0.06
  43   7    -0.04  -0.10  -0.05    -0.32  -0.33  -0.04     0.15   0.11   0.15
  44   1    -0.01  -0.04  -0.01    -0.07  -0.07  -0.01     0.09   0.09   0.06
  45   1    -0.02  -0.03  -0.01    -0.07  -0.08  -0.01     0.01   0.00   0.04
  46   6     0.03   0.08  -0.02     0.01   0.06   0.01    -0.00  -0.00  -0.06
  47   8     0.17   0.16   0.06     0.05   0.09   0.02    -0.10  -0.02  -0.18
  48   7    -0.32   0.11  -0.41     0.03   0.07   0.09    -0.07  -0.01  -0.23
  49   1    -0.08   0.05  -0.09     0.01   0.03   0.03    -0.02  -0.01  -0.06
  50   1    -0.08   0.02  -0.08    -0.01   0.02   0.01     0.02  -0.00  -0.01
  51   7     0.21   0.01   0.24    -0.04   0.03  -0.08     0.17   0.04   0.21
  52   1     0.02  -0.02   0.03    -0.01   0.00  -0.02     0.05   0.01   0.06
  53   1     0.11  -0.01   0.12    -0.01   0.01  -0.03     0.04   0.01   0.07
                     10                     11                     12
                        a                      a                      a 
 Frequencies --    60.2491                63.9495                74.1679
 Red. masses --    12.1767                12.3454                12.1665
 Frc consts  --     0.0000                 0.0000                 0.0000
 IR Inten    --     3.0279                 2.7627                11.3273
 Raman Activ --     0.0000                 0.0000                 0.0000
 Depolar     --     0.0000                 0.0000                 0.0000
 Atom AN      X      Y      Z        X      Y      Z        X      Y      Z
   1   8     0.11  -0.26   0.13     0.04   0.02   0.11     0.12  -0.16  -0.03
   2   6    -0.10  -0.23  -0.06    -0.03   0.03   0.07    -0.03  -0.09  -0.05
   3   1    -0.06  -0.07  -0.05    -0.01   0.00   0.03    -0.02  -0.04  -0.01
   4   1    -0.03  -0.12  -0.02    -0.03   0.01   0.03    -0.02  -0.03  -0.01
   5   6    -0.14   0.03  -0.12    -0.02   0.08  -0.04    -0.04   0.04  -0.11
   6   1    -0.09   0.01  -0.06    -0.02   0.02  -0.04    -0.04   0.01  -0.07
   7   1    -0.03   0.05  -0.03     0.01   0.05  -0.01    -0.00   0.05  -0.03
   8   7    -0.04   0.11  -0.05    -0.06   0.02  -0.02     0.00   0.04  -0.04
   9   6     0.07   0.11  -0.06    -0.16  -0.16  -0.01    -0.05  -0.18  -0.04
  10   1     0.03   0.03  -0.01    -0.05  -0.06  -0.04    -0.04  -0.06  -0.05
  11   1     0.03   0.03  -0.00    -0.06  -0.07   0.00    -0.01  -0.06   0.01
  12   1     0.03   0.03  -0.04    -0.06  -0.05   0.03    -0.01  -0.08   0.01
  13   6    -0.09   0.19   0.06    -0.04   0.09  -0.18    -0.03   0.19  -0.15
  14   1    -0.04   0.06   0.03    -0.03   0.02  -0.09    -0.04   0.04  -0.09
  15   1    -0.05   0.05   0.02     0.01   0.07  -0.05     0.00   0.11  -0.04
  16   1    -0.00   0.07   0.03    -0.02   0.01  -0.04     0.00   0.05  -0.02
  17   6     0.02   0.10  -0.06     0.01   0.06   0.16     0.12   0.08   0.16
  18   1    -0.04   0.03  -0.01     0.02   0.06   0.05     0.05   0.07   0.05
  19   1     0.03   0.01  -0.06     0.00  -0.00   0.07     0.04  -0.01   0.07
  20   1     0.04   0.05   0.01     0.00   0.01   0.05     0.04   0.02   0.06
  21   1     0.02  -0.08   0.05     0.01   0.01   0.03    -0.00  -0.03  -0.02
  22   6     0.00   0.05   0.00     0.01   0.05  -0.00     0.01   0.03   0.01
  23   8    -0.12  -0.00  -0.21     0.00   0.06  -0.02     0.17   0.14   0.31
  24   7     0.04   0.08   0.11    -0.04   0.01  -0.09     0.05   0.07   0.08
  25   1    -0.01   0.00   0.00    -0.02  -0.01  -0.04     0.06   0.06   0.09
  26   1     0.03   0.03   0.06    -0.01  -0.00  -0.02    -0.01   0.01  -0.04
  27   7     0.10   0.12   0.15     0.08   0.10   0.10    -0.21  -0.13  -0.40
  28   1     0.05   0.05   0.07     0.02   0.02   0.02    -0.10  -0.07  -0.16
  29   1     0.02   0.03   0.01     0.02   0.03   0.02    -0.06  -0.04  -0.08
  30   6     0.01  -0.06  -0.04     0.04  -0.08  -0.06     0.01   0.02   0.00
  31   8    -0.08  -0.22  -0.15     0.06  -0.17  -0.09    -0.00   0.12   0.03
  32   7     0.05  -0.01   0.01    -0.10  -0.32  -0.30     0.02   0.02   0.06
  33   1     0.01  -0.02  -0.01    -0.01  -0.06  -0.07    -0.01  -0.00   0.02
  34   1     0.03   0.03   0.03     0.00  -0.02  -0.04    -0.00  -0.02   0.00
  35   7     0.08   0.03   0.02     0.14   0.22   0.16     0.01  -0.06  -0.09
  36   1     0.04   0.03   0.03     0.03   0.04   0.03     0.01  -0.02  -0.02
  37   1     0.01  -0.01  -0.01     0.05   0.07   0.07     0.01  -0.00  -0.03
  38   6     0.07   0.02  -0.02     0.08   0.08   0.03    -0.06  -0.01   0.03
  39   8     0.02  -0.06  -0.05     0.09   0.06   0.03    -0.15  -0.11   0.00
  40   7     0.24   0.19   0.05    -0.10  -0.04  -0.01    -0.08   0.01   0.05
  41   1     0.04   0.03   0.00    -0.02  -0.01  -0.00    -0.01   0.01   0.02
  42   1     0.05   0.05   0.01    -0.00   0.01   0.00     0.00   0.03   0.02
  43   7     0.00  -0.02  -0.08     0.26   0.26   0.06     0.01   0.07   0.02
  44   1     0.01   0.01  -0.02     0.05   0.05   0.01     0.01   0.04   0.01
  45   1    -0.02  -0.03  -0.03     0.06   0.05   0.01     0.00   0.02   0.01
  46   6    -0.06  -0.04   0.08    -0.06  -0.10   0.03     0.05  -0.02   0.06
  47   8     0.02  -0.00   0.13    -0.15  -0.20   0.12     0.21  -0.01   0.28
  48   7     0.00  -0.02   0.30    -0.01  -0.15  -0.16    -0.01  -0.02   0.01
  49   1    -0.01  -0.00   0.07     0.00  -0.06  -0.04     0.00   0.00   0.02
  50   1    -0.04  -0.01   0.04     0.02  -0.02  -0.05    -0.04  -0.00  -0.05
  51   7    -0.22  -0.13  -0.18    -0.03   0.06   0.11    -0.07  -0.05  -0.14
  52   1    -0.06  -0.04  -0.04     0.00   0.03   0.01    -0.04  -0.02  -0.06
  53   1    -0.05  -0.04  -0.07    -0.02   0.02   0.06     0.01  -0.02  -0.01
                     13                     14                     15
                        a                      a                      a 
 Frequencies --    84.6746                89.9707                99.4384
 Red. masses --    11.7721                12.4888                12.7531
 Frc consts  --     0.0000                 0.0000                 0.0000
 IR Inten    --     4.6421                 8.6058                 7.3963
 Raman Activ --     0.0000                 0.0000                 0.0000
 Depolar     --     0.0000                 0.0000                 0.0000
 Atom AN      X      Y      Z        X      Y      Z        X      Y      Z
   1   8    -0.06  -0.04  -0.08     0.01  -0.06  -0.35     0.20   0.03   0.27
   2   6    -0.02  -0.00   0.04     0.10   0.02  -0.05     0.10  -0.04   0.01
   3   1     0.00  -0.01   0.03     0.03  -0.01   0.02     0.03   0.01  -0.03
   4   1    -0.01   0.03   0.01     0.05   0.07  -0.01     0.02  -0.07   0.00
   5   6    -0.00  -0.06   0.04     0.09  -0.08   0.12     0.10   0.05  -0.09
   6   1     0.01  -0.02   0.01     0.04  -0.02   0.08     0.02   0.00  -0.08
   7   1    -0.00  -0.01   0.01    -0.00  -0.06   0.03     0.04   0.06  -0.02
   8   7    -0.03  -0.10   0.05     0.12  -0.03   0.11     0.10  -0.05  -0.00
   9   6    -0.19  -0.31   0.05     0.01  -0.11   0.11     0.13  -0.11  -0.01
  10   1    -0.09  -0.10  -0.03    -0.06  -0.03   0.02     0.07  -0.04  -0.02
  11   1    -0.05  -0.09   0.01     0.03   0.00   0.02     0.03  -0.06   0.01
  12   1    -0.05  -0.13   0.06     0.02  -0.09   0.05     0.03  -0.01  -0.00
  13   6    -0.02   0.04  -0.19     0.10   0.09  -0.01     0.10  -0.09   0.02
  14   1    -0.03  -0.00  -0.11     0.00   0.02  -0.04     0.04  -0.03   0.01
  15   1     0.03   0.07  -0.06     0.05   0.06  -0.00     0.03  -0.03   0.01
  16   1    -0.01  -0.00  -0.04     0.03   0.03   0.00     0.02  -0.03   0.00
  17   6     0.11  -0.04   0.26     0.25  -0.02   0.17    -0.01  -0.01   0.08
  18   1     0.09   0.03   0.07     0.14   0.01   0.05    -0.03   0.01   0.03
  19   1     0.02  -0.04   0.14     0.05  -0.02   0.11    -0.00   0.00   0.01
  20   1     0.01  -0.02   0.05     0.05   0.00   0.00     0.00  -0.02   0.05
  21   1     0.01  -0.00  -0.03     0.01   0.01  -0.12     0.00  -0.01   0.09
  22   6    -0.02  -0.01  -0.03    -0.14   0.03  -0.01    -0.04  -0.02  -0.14
  23   8    -0.15  -0.06  -0.23    -0.14  -0.07  -0.05    -0.17   0.05  -0.29
  24   7     0.00   0.00   0.06    -0.08   0.13  -0.01     0.07   0.00   0.26
  25   1    -0.03  -0.02  -0.01    -0.01   0.03  -0.02    -0.00   0.02   0.10
  26   1     0.02   0.00   0.05    -0.03   0.05  -0.00     0.03  -0.02   0.08
  27   7     0.07   0.05   0.11    -0.24   0.05   0.03    -0.03  -0.13  -0.40
  28   1     0.05   0.03   0.07    -0.06   0.04   0.02     0.02  -0.04  -0.08
  29   1     0.02   0.01   0.01    -0.08  -0.00   0.01     0.00  -0.02  -0.11
  30   6    -0.01   0.11   0.01    -0.04  -0.11  -0.01    -0.02  -0.04  -0.01
  31   8     0.03   0.31   0.09    -0.08  -0.38  -0.12     0.00  -0.15  -0.03
  32   7    -0.01   0.10   0.06    -0.01  -0.02  -0.03    -0.02   0.01  -0.06
  33   1    -0.01   0.02   0.01     0.00  -0.01  -0.02     0.00   0.01  -0.01
  34   1    -0.03  -0.03  -0.02     0.02   0.06   0.02     0.00   0.03  -0.00
  35   7    -0.04  -0.04  -0.12    -0.01   0.07   0.16    -0.06   0.03   0.08
  36   1    -0.01  -0.03  -0.04    -0.01   0.05   0.05    -0.03   0.02   0.02
  37   1     0.00   0.02  -0.03    -0.03  -0.02   0.04    -0.03  -0.01   0.03
  38   6     0.07   0.04  -0.01    -0.00  -0.03  -0.00    -0.06   0.02   0.06
  39   8     0.04   0.02  -0.03    -0.03  -0.09  -0.01    -0.05   0.12   0.08
  40   7     0.37   0.28   0.07    -0.03  -0.03   0.01    -0.02   0.00   0.02
  41   1     0.06   0.05   0.01    -0.02  -0.02   0.00    -0.01   0.01  -0.01
  42   1     0.07   0.05   0.01     0.00   0.01   0.00    -0.01  -0.02   0.01
  43   7    -0.14  -0.16  -0.07     0.08   0.06  -0.00    -0.13  -0.06   0.10
  44   1     0.01  -0.00  -0.00     0.01   0.01  -0.01    -0.04  -0.03   0.02
  45   1    -0.02  -0.02  -0.01    -0.00  -0.02  -0.01    -0.03  -0.01   0.03
  46   6    -0.00  -0.02  -0.03     0.00   0.13  -0.03    -0.05   0.08  -0.01
  47   8    -0.07  -0.07  -0.05     0.05   0.24  -0.18    -0.25   0.00  -0.07
  48   7     0.04  -0.04  -0.06    -0.05   0.18   0.13     0.13   0.05   0.04
  49   1     0.01  -0.01  -0.01    -0.02   0.06   0.02     0.03  -0.01  -0.01
  50   1     0.02  -0.01  -0.01    -0.02   0.03   0.06     0.07   0.03   0.02
  51   7     0.03   0.04   0.03     0.03  -0.02  -0.02    -0.05   0.26   0.06
  52   1     0.02   0.02   0.01    -0.01  -0.02   0.01     0.02   0.10   0.01
  53   1    -0.01   0.02   0.01     0.02  -0.01  -0.04    -0.06   0.09   0.00
                     16                     17                     18
                        a                      a                      a 
 Frequencies --   100.8213               108.3266               109.4328
 Red. masses --    12.2310                13.2354                12.1051
 Frc consts  --     0.0000                 0.0000                 0.0000
 IR Inten    --    10.6546                 7.4617                22.3097
 Raman Activ --     0.0000                 0.0000                 0.0000
 Depolar     --     0.0000                 0.0000                 0.0000
 Atom AN      X      Y      Z        X      Y      Z        X      Y      Z
   1   8    -0.12   0.05   0.01    -0.23   0.17   0.16     0.02  -0.01   0.05
   2   6    -0.04   0.06   0.12    -0.07   0.06   0.07    -0.01   0.04   0.15
   3   1    -0.01   0.01   0.05     0.01   0.04   0.02     0.00  -0.00   0.07
   4   1    -0.00   0.05   0.03    -0.03   0.01   0.02    -0.02   0.04   0.05
   5   6    -0.04   0.01   0.19    -0.02  -0.10  -0.01     0.00   0.03   0.12
   6   1    -0.01   0.01   0.10     0.01  -0.03   0.00    -0.00   0.02   0.06
   7   1    -0.02  -0.04   0.05     0.01  -0.04  -0.01     0.01  -0.02   0.03
   8   7    -0.01   0.13   0.09    -0.12  -0.15  -0.09    -0.02   0.11  -0.00
   9   6    -0.07   0.20   0.10    -0.19  -0.14  -0.07    -0.08   0.21   0.01
  10   1    -0.06   0.07   0.05    -0.06  -0.04  -0.02    -0.04   0.07   0.02
  11   1    -0.01   0.09   0.01    -0.06  -0.03  -0.03    -0.03   0.07  -0.02
  12   1    -0.01   0.03   0.03    -0.06  -0.04  -0.01    -0.02   0.06   0.01
  13   6    -0.03   0.18   0.05    -0.07  -0.17  -0.17    -0.00   0.09  -0.04
  14   1    -0.02   0.05   0.02    -0.02  -0.05  -0.05    -0.00   0.03  -0.01
  15   1     0.00   0.05   0.01    -0.00  -0.05  -0.05     0.01   0.02  -0.01
  16   1    -0.00   0.06   0.01    -0.03  -0.05  -0.06    -0.01   0.02  -0.02
  17   6     0.10   0.09  -0.01    -0.11  -0.14  -0.08     0.02   0.07  -0.11
  18   1     0.07   0.00  -0.01    -0.03  -0.04  -0.02     0.04  -0.00  -0.04
  19   1     0.02   0.02   0.02    -0.03  -0.04  -0.02    -0.00   0.03  -0.01
  20   1     0.02   0.05  -0.05    -0.03  -0.04  -0.02    -0.01   0.03  -0.06
  21   1     0.00   0.01  -0.00    -0.03   0.02   0.06    -0.01   0.02  -0.01
  22   6    -0.05   0.00  -0.14     0.03   0.01  -0.02    -0.12  -0.03   0.01
  23   8    -0.19   0.05  -0.34    -0.02   0.09  -0.05    -0.07  -0.21   0.01
  24   7     0.04   0.02   0.18     0.00  -0.06   0.05    -0.01   0.14   0.01
  25   1    -0.02   0.01   0.06    -0.02  -0.01   0.03     0.03   0.03  -0.01
  26   1     0.03  -0.01   0.07     0.01  -0.03   0.03    -0.02   0.07  -0.01
  27   7     0.01  -0.06  -0.29     0.12  -0.01  -0.07    -0.32  -0.03   0.04
  28   1     0.04  -0.01  -0.03     0.04  -0.01  -0.01    -0.09   0.03   0.02
  29   1     0.01   0.00  -0.08     0.04   0.01  -0.02    -0.10  -0.03   0.02
  30   6     0.07  -0.03   0.01    -0.04  -0.07   0.01    -0.01   0.02  -0.04
  31   8     0.03   0.12   0.02    -0.08  -0.26  -0.07     0.14  -0.13   0.00
  32   7     0.02  -0.18   0.03    -0.01   0.02   0.01    -0.00   0.13  -0.20
  33   1     0.00  -0.03   0.03     0.00   0.01  -0.00     0.02   0.04  -0.06
  34   1     0.02  -0.06   0.01     0.01   0.05   0.03    -0.02   0.07  -0.05
  35   7     0.19  -0.04  -0.06    -0.05   0.03   0.11    -0.21   0.04   0.09
  36   1     0.07  -0.04  -0.02    -0.02   0.04   0.04    -0.09   0.04   0.01
  37   1     0.06   0.02  -0.03    -0.03  -0.02   0.03    -0.06  -0.02   0.06
  38   6    -0.02   0.02   0.05     0.03   0.09   0.05     0.01  -0.04   0.00
  39   8     0.10   0.09   0.10     0.11   0.16   0.09    -0.08   0.06  -0.03
  40   7    -0.13  -0.08   0.02     0.04   0.10   0.06     0.17  -0.00  -0.04
  41   1    -0.03  -0.01  -0.01     0.01   0.03   0.01     0.02  -0.02  -0.03
  42   1    -0.04  -0.04   0.00    -0.01   0.01   0.01     0.03  -0.03  -0.01
  43   7    -0.03   0.01   0.04    -0.02   0.05   0.05    -0.07  -0.15   0.08
  44   1    -0.03  -0.02   0.00    -0.04  -0.02   0.00     0.00  -0.05   0.03
  45   1     0.00   0.02   0.01    -0.02  -0.01   0.00    -0.01  -0.03   0.03
  46   6     0.03  -0.14  -0.05     0.19   0.09   0.01     0.16  -0.10  -0.01
  47   8     0.14  -0.06  -0.11     0.42   0.19   0.14     0.12  -0.23   0.16
  48   7    -0.12  -0.11  -0.06     0.07   0.13   0.05     0.32  -0.17  -0.12
  49   1    -0.04  -0.00  -0.01     0.02   0.06   0.02     0.10  -0.07  -0.02
  50   1    -0.05  -0.04  -0.00    -0.03   0.02  -0.02     0.09  -0.02  -0.07
  51   7     0.10  -0.32   0.00     0.09  -0.06  -0.20     0.08   0.09  -0.13
  52   1     0.00  -0.11   0.02    -0.01  -0.04  -0.06     0.04   0.05  -0.06
  53   1     0.06  -0.10  -0.01     0.07  -0.03  -0.05    -0.00   0.04  -0.00
                     19                     20                     21
                        a                      a                      a 
 Frequencies --   120.1992               136.7522               145.1848
 Red. masses --    11.7451                12.1735                13.5323
 Frc consts  --     0.0000                 0.0000                 0.0000
 IR Inten    --     2.7578                21.7771                13.9647
 Raman Activ --     0.0000                 0.0000                 0.0000
 Depolar     --     0.0000                 0.0000                 0.0000
 Atom AN      X      Y      Z        X      Y      Z        X      Y      Z
   1   8     0.16   0.00  -0.09     0.08   0.09   0.27    -0.10  -0.09  -0.07
   2   6     0.15   0.11   0.19    -0.00   0.04   0.08    -0.01  -0.12  -0.08
   3   1     0.07   0.00   0.13     0.01   0.02   0.01    -0.00  -0.03  -0.04
   4   1     0.01   0.11   0.06    -0.02  -0.03   0.02     0.01  -0.04  -0.03
   5   6     0.20  -0.04   0.10     0.01   0.10  -0.08    -0.01  -0.14  -0.02
   6   1     0.07  -0.00   0.07    -0.00   0.02  -0.08    -0.01  -0.03   0.02
   7   1     0.08  -0.06   0.02     0.03   0.09  -0.02    -0.01  -0.07  -0.01
   8   7     0.06  -0.03  -0.11    -0.04  -0.03   0.01     0.04  -0.05  -0.08
   9   6    -0.12   0.13  -0.07     0.01  -0.10  -0.00     0.04   0.03  -0.07
  10   1    -0.04   0.05   0.01     0.05  -0.04  -0.02    -0.01   0.01  -0.00
  11   1    -0.05   0.05  -0.06    -0.02  -0.07   0.01     0.02   0.03  -0.03
  12   1    -0.05   0.05  -0.00    -0.01   0.01   0.00     0.02  -0.00  -0.03
  13   6     0.13  -0.14  -0.22    -0.01  -0.12   0.02     0.00   0.02  -0.05
  14   1     0.05  -0.04  -0.06     0.01  -0.03   0.02    -0.01   0.01  -0.01
  15   1     0.06  -0.06  -0.07     0.00  -0.05   0.00    -0.00   0.00  -0.01
  16   1     0.01  -0.05  -0.09    -0.01  -0.04  -0.01     0.01   0.02  -0.01
  17   6    -0.00  -0.06  -0.21    -0.15  -0.00   0.08     0.11  -0.07  -0.13
  18   1     0.02  -0.04  -0.06    -0.11   0.02   0.03     0.04  -0.03  -0.04
  19   1    -0.01   0.00  -0.05    -0.03   0.00  -0.03     0.04  -0.03  -0.04
  20   1    -0.01  -0.02  -0.08    -0.02  -0.01   0.08     0.04  -0.00  -0.05
  21   1     0.02   0.04  -0.06    -0.01   0.02   0.08     0.04  -0.04  -0.00
  22   6    -0.04  -0.02  -0.05    -0.10  -0.05   0.00    -0.12   0.11   0.05
  23   8    -0.10  -0.07  -0.17     0.00  -0.29   0.04    -0.09   0.16   0.17
  24   7     0.01   0.02   0.02     0.06   0.20  -0.04    -0.17   0.07   0.04
  25   1    -0.01  -0.00  -0.01     0.08   0.05  -0.02    -0.04   0.03   0.04
  26   1     0.01   0.01   0.02    -0.02   0.10  -0.03    -0.05   0.00  -0.01
  27   7    -0.02   0.00  -0.00    -0.39  -0.06   0.01    -0.17   0.04  -0.09
  28   1     0.01   0.01   0.02    -0.12   0.02   0.01    -0.04   0.01  -0.01
  29   1    -0.01  -0.01  -0.01    -0.12  -0.04   0.02    -0.03   0.03   0.01
  30   6     0.03  -0.02   0.03     0.08   0.03  -0.06     0.03  -0.05   0.13
  31   8    -0.02   0.07   0.03     0.09   0.09  -0.05     0.04   0.01   0.18
  32   7     0.02  -0.09   0.10     0.06  -0.01  -0.10    -0.00  -0.12   0.11
  33   1    -0.01  -0.03   0.03     0.03   0.01  -0.02     0.03  -0.00   0.05
  34   1     0.01  -0.05   0.02     0.01  -0.01  -0.03     0.00  -0.01   0.04
  35   7     0.12  -0.06  -0.05     0.10   0.01  -0.10     0.01  -0.10   0.12
  36   1     0.05  -0.03  -0.00     0.03  -0.01  -0.03    -0.01  -0.05   0.01
  37   1     0.04   0.01  -0.03     0.04   0.02  -0.03     0.00  -0.03   0.03
  38   6    -0.02  -0.03  -0.04     0.14   0.02  -0.02     0.16   0.07  -0.09
  39   8    -0.13  -0.14  -0.08     0.18   0.15  -0.02     0.54   0.28   0.01
  40   7     0.04   0.02  -0.03     0.17  -0.03  -0.09    -0.02   0.01  -0.08
  41   1    -0.01  -0.01  -0.02     0.03  -0.03  -0.03     0.01   0.01   0.01
  42   1     0.03   0.02  -0.00     0.02  -0.04  -0.03    -0.10  -0.04  -0.04
  43   7     0.06   0.04  -0.03     0.09  -0.05   0.00    -0.03  -0.08  -0.21
  44   1     0.04   0.03  -0.00     0.02  -0.02  -0.00    -0.07  -0.08  -0.08
  45   1     0.00   0.00  -0.01     0.03  -0.00   0.00     0.01  -0.01  -0.06
  46   6    -0.12   0.06   0.18    -0.08   0.02   0.01    -0.05   0.00   0.04
  47   8    -0.02   0.06   0.42     0.03   0.15  -0.09    -0.11  -0.06   0.09
  48   7    -0.18   0.05   0.06    -0.28   0.09   0.06     0.01  -0.03  -0.01
  49   1    -0.04   0.01   0.04    -0.08   0.05   0.02     0.01  -0.02   0.01
  50   1    -0.07   0.02  -0.03    -0.09   0.00   0.04     0.02   0.00  -0.00
  51   7    -0.23   0.11   0.06    -0.02  -0.21   0.05    -0.07   0.12   0.05
  52   1    -0.07   0.03  -0.02    -0.04  -0.09   0.04    -0.00   0.05  -0.00
  53   1    -0.05   0.03   0.05     0.03  -0.07  -0.00    -0.04   0.04   0.02
                     22                     23                     24
                        a                      a                      a 
 Frequencies --   155.7398               177.1647               187.2754
 Red. masses --    11.6835                13.1244                13.0501
 Frc consts  --     0.0000                 0.0000                 0.0000
 IR Inten    --     0.4679                 6.3904                 3.4936
 Raman Activ --     0.0000                 0.0000                 0.0000
 Depolar     --     0.0000                 0.0000                 0.0000
 Atom AN      X      Y      Z        X      Y      Z        X      Y      Z
   1   8     0.24  -0.02  -0.03    -0.04   0.04   0.03    -0.09   0.04   0.08
   2   6    -0.01   0.14   0.14     0.00   0.00  -0.02     0.01  -0.05  -0.07
   3   1    -0.00  -0.00   0.10     0.00   0.01  -0.02    -0.00   0.01  -0.07
   4   1    -0.05   0.09   0.05     0.00  -0.01  -0.01     0.03  -0.06  -0.03
   5   6     0.00   0.23  -0.02     0.00  -0.02   0.00    -0.01  -0.08   0.02
   6   1    -0.01   0.05  -0.07     0.00  -0.00   0.01     0.00  -0.02   0.03
   7   1     0.03   0.13  -0.00    -0.00  -0.01   0.00    -0.02  -0.05   0.00
   8   7    -0.08   0.06   0.07     0.01  -0.01  -0.00     0.04  -0.01   0.01
   9   6    -0.05  -0.03   0.05     0.00  -0.01  -0.00     0.03  -0.02   0.00
  10   1     0.06  -0.02  -0.01    -0.01  -0.00   0.00    -0.05  -0.00   0.00
  11   1    -0.05  -0.07   0.03     0.01   0.01  -0.00     0.04   0.04   0.00
  12   1    -0.04   0.05   0.03     0.01  -0.02  -0.00     0.03  -0.06  -0.00
  13   6    -0.03  -0.08   0.06     0.00  -0.01  -0.01     0.01   0.08  -0.01
  14   1     0.01  -0.02   0.04     0.00  -0.00  -0.01    -0.01   0.02  -0.04
  15   1    -0.00  -0.05   0.01    -0.00   0.01  -0.00    -0.01   0.06   0.00
  16   1    -0.03  -0.03  -0.00     0.00  -0.01   0.00     0.01   0.02   0.02
  17   6    -0.21   0.08   0.14     0.01  -0.01  -0.00     0.10  -0.02  -0.01
  18   1    -0.16   0.04   0.05     0.03  -0.01  -0.00     0.09  -0.01  -0.01
  19   1    -0.03   0.01  -0.04    -0.01   0.01   0.03     0.01   0.01   0.05
  20   1    -0.02   0.01   0.12    -0.01  -0.01  -0.02     0.00  -0.01  -0.05
  21   1     0.01   0.04  -0.05    -0.02   0.00   0.02    -0.05   0.00   0.03
  22   6    -0.07   0.07   0.01    -0.03   0.09   0.03     0.08  -0.11   0.01
  23   8    -0.11   0.14   0.02    -0.07   0.24   0.06     0.13  -0.21   0.01
  24   7    -0.13   0.00   0.07    -0.15  -0.08   0.08     0.14  -0.02  -0.09
  25   1    -0.06  -0.00   0.02    -0.08  -0.01   0.04     0.07  -0.01  -0.04
  26   1    -0.03  -0.03   0.00    -0.02  -0.07   0.02     0.03   0.03  -0.01
  27   7     0.01   0.07  -0.00     0.12   0.07  -0.03    -0.00  -0.08   0.09
  28   1     0.00  -0.01  -0.01     0.03  -0.02  -0.02    -0.01   0.00   0.03
  29   1     0.00   0.02  -0.03     0.04   0.03  -0.02    -0.00  -0.03   0.02
  30   6     0.03  -0.12   0.16     0.21   0.00  -0.02     0.11  -0.12   0.10
  31   8    -0.02  -0.09   0.17     0.52  -0.05   0.14     0.10  -0.09   0.13
  32   7     0.02  -0.16   0.21     0.21   0.14  -0.34     0.08  -0.17   0.07
  33   1    -0.00  -0.06   0.05     0.09   0.03  -0.12     0.02  -0.05   0.03
  34   1     0.00  -0.05   0.05    -0.02   0.02  -0.14     0.01  -0.05   0.01
  35   7     0.06  -0.14   0.16    -0.16  -0.06   0.14     0.12  -0.13   0.12
  36   1     0.02  -0.05   0.04    -0.11   0.02   0.00     0.03  -0.04   0.02
  37   1     0.02  -0.03   0.04    -0.03  -0.04   0.13     0.04  -0.02   0.04
  38   6    -0.03  -0.02  -0.21    -0.04  -0.07  -0.05    -0.20   0.25  -0.11
  39   8    -0.07  -0.11  -0.27    -0.13  -0.10  -0.09    -0.31   0.37  -0.16
  40   7     0.02   0.06  -0.19     0.02   0.00  -0.02    -0.04   0.21  -0.26
  41   1     0.00   0.01  -0.05     0.01   0.00  -0.00    -0.01   0.06  -0.09
  42   1     0.01   0.03  -0.05     0.01   0.02  -0.01     0.00   0.02  -0.06
  43   7    -0.01  -0.02  -0.24    -0.06  -0.12  -0.03    -0.24   0.15   0.04
  44   1     0.02   0.01  -0.05     0.01  -0.01   0.00    -0.04   0.02   0.02
  45   1    -0.02  -0.01  -0.06     0.00  -0.01  -0.01    -0.08   0.05   0.02
  46   6     0.11  -0.00  -0.07    -0.09  -0.00   0.05    -0.02   0.00   0.01
  47   8     0.10  -0.01  -0.11     0.00   0.08   0.03    -0.02   0.01   0.00
  48   7     0.13  -0.01  -0.04    -0.24   0.04   0.01    -0.03   0.00   0.01
  49   1     0.04   0.00  -0.01    -0.04   0.02   0.05    -0.00  -0.00   0.01
  50   1     0.04  -0.01  -0.00    -0.05  -0.00   0.04    -0.00   0.00   0.01
  51   7     0.12  -0.02  -0.08    -0.07  -0.15   0.06    -0.02  -0.00   0.02
  52   1     0.04  -0.01  -0.01    -0.05  -0.06   0.02    -0.01  -0.00  -0.00
  53   1     0.03  -0.01  -0.03     0.01  -0.05   0.01    -0.01  -0.00  -0.00
                     25                     26                     27
                        a                      a                      a 
 Frequencies --   202.5225               225.9656               254.7438
 Red. masses --    12.4609                11.7650                 6.0462
 Frc consts  --     0.0000                 0.0000                 0.0000
 IR Inten    --    10.8052                95.4872                23.9193
 Raman Activ --     0.0000                 0.0000                 0.0000
 Depolar     --     0.0000                 0.0000                 0.0000
 Atom AN      X      Y      Z        X      Y      Z        X      Y      Z
   1   8     0.26  -0.35  -0.47     0.06  -0.04  -0.05     0.37  -0.03   0.02
   2   6    -0.03  -0.02   0.05     0.01  -0.02  -0.06     0.09  -0.03  -0.24
   3   1    -0.02  -0.09   0.13    -0.01  -0.01  -0.03    -0.05   0.00  -0.16
   4   1    -0.05   0.12   0.03     0.01  -0.02  -0.02     0.08  -0.10  -0.08
   5   6    -0.04   0.07  -0.04    -0.01  -0.02   0.00    -0.02   0.10   0.03
   6   1    -0.02   0.01  -0.05     0.00  -0.00   0.01     0.03   0.03   0.03
   7   1     0.01   0.05  -0.01    -0.02  -0.02   0.00    -0.06   0.01   0.01
   8   7    -0.09  -0.01  -0.01    -0.00  -0.01   0.01    -0.11   0.01   0.07
   9   6    -0.06   0.01  -0.01    -0.02   0.00   0.01    -0.21   0.11   0.08
  10   1     0.08  -0.01  -0.01    -0.05   0.01   0.01    -0.37   0.07   0.08
  11   1    -0.07  -0.07  -0.00     0.02   0.04  -0.00     0.09   0.27  -0.02
  12   1    -0.06   0.09   0.00     0.01  -0.04   0.00     0.05  -0.23   0.01
  13   6    -0.05  -0.12   0.02    -0.01  -0.02   0.02    -0.03  -0.17   0.03
  14   1    -0.01  -0.02   0.07     0.01  -0.01  -0.02     0.09  -0.11  -0.17
  15   1    -0.00  -0.10   0.00    -0.02   0.02   0.01    -0.08   0.13   0.03
  16   1    -0.03  -0.01  -0.04     0.00  -0.02   0.03    -0.03  -0.20   0.16
  17   6    -0.14  -0.00   0.01    -0.01  -0.02  -0.01    -0.19   0.00   0.01
  18   1    -0.13   0.01   0.01     0.05  -0.01  -0.01     0.13  -0.02  -0.01
  19   1    -0.01  -0.02  -0.06    -0.03   0.02   0.05    -0.13   0.06   0.16
  20   1     0.00   0.01   0.07    -0.03  -0.01  -0.05    -0.16  -0.04  -0.14
  21   1     0.07  -0.01  -0.20    -0.04   0.01  -0.03    -0.02  -0.00   0.00
  22   6     0.05  -0.04  -0.01    -0.05   0.11   0.05     0.00  -0.01  -0.01
  23   8     0.04  -0.03  -0.04    -0.06   0.22   0.13     0.01  -0.02  -0.01
  24   7     0.07  -0.03  -0.02    -0.19  -0.06   0.13     0.02   0.01  -0.02
  25   1     0.02  -0.01  -0.01    -0.11  -0.02   0.03     0.02   0.01   0.00
  26   1     0.02  -0.00   0.01    -0.05  -0.10  -0.04     0.01   0.02   0.01
  27   7     0.05  -0.03   0.00     0.05   0.08  -0.01     0.00  -0.00   0.01
  28   1     0.02   0.01   0.02     0.03   0.00   0.01    -0.02  -0.02  -0.03
  29   1     0.02  -0.00   0.03     0.03   0.05  -0.01    -0.01  -0.01  -0.01
  30   6     0.06   0.01  -0.02    -0.04   0.00  -0.04     0.00   0.01   0.01
  31   8     0.13  -0.01   0.01    -0.12   0.01  -0.09     0.01   0.01   0.01
  32   7     0.04   0.01  -0.11    -0.05  -0.05   0.04    -0.00   0.00  -0.00
  33   1     0.03   0.04   0.00    -0.03  -0.01   0.03     0.01   0.01   0.00
  34   1     0.03   0.05  -0.00     0.01  -0.01   0.02     0.01   0.02   0.01
  35   7    -0.03  -0.01   0.01     0.11   0.02  -0.14    -0.02  -0.00   0.02
  36   1    -0.03  -0.00  -0.01     0.09   0.02   0.01    -0.01  -0.01  -0.00
  37   1    -0.01  -0.02   0.01     0.05   0.05  -0.06    -0.01  -0.01   0.00
  38   6    -0.04   0.15   0.13     0.07  -0.04   0.00     0.02   0.01   0.01
  39   8     0.07   0.33   0.19    -0.17   0.27  -0.10     0.11   0.00   0.04
  40   7    -0.08   0.07   0.09     0.29  -0.22  -0.32    -0.05   0.03   0.06
  41   1    -0.01   0.03   0.02     0.07  -0.05  -0.15    -0.01   0.01   0.03
  42   1    -0.04  -0.01   0.02     0.09  -0.14  -0.07    -0.03   0.01   0.01
  43   7    -0.15   0.03   0.21     0.11  -0.17   0.42    -0.01   0.02  -0.07
  44   1    -0.07  -0.05   0.04     0.07  -0.11   0.13    -0.01   0.01  -0.02
  45   1    -0.03   0.02   0.06     0.00  -0.01   0.17     0.01   0.00  -0.03
  46   6    -0.01   0.00   0.01    -0.00   0.01  -0.00     0.01   0.00  -0.00
  47   8     0.02   0.02   0.00     0.00   0.01   0.00     0.02   0.00   0.00
  48   7    -0.05   0.01   0.00    -0.00   0.01   0.02     0.01  -0.00  -0.01
  49   1    -0.01   0.01   0.01    -0.01   0.01  -0.01     0.00   0.00  -0.00
  50   1    -0.01   0.00   0.00    -0.01   0.00  -0.01    -0.00   0.00  -0.01
  51   7    -0.00  -0.05   0.00    -0.00  -0.00   0.00     0.01  -0.02  -0.02
  52   1    -0.01  -0.02   0.01    -0.00  -0.00  -0.00     0.01  -0.01   0.02
  53   1     0.01  -0.02   0.00     0.00  -0.00  -0.00     0.02  -0.01   0.01
                     28                     29                     30
                        a                      a                      a 
 Frequencies --   287.8075               290.2867               301.9822
 Red. masses --     3.0875                 4.2687                 5.3449
 Frc consts  --     0.0000                 0.0000                 0.0000
 IR Inten    --   112.4497                31.6194                22.3537
 Raman Activ --     0.0000                 0.0000                 0.0000
 Depolar     --     0.0000                 0.0000                 0.0000
 Atom AN      X      Y      Z        X      Y      Z        X      Y      Z
   1   8    -0.04  -0.05  -0.01     0.12   0.09   0.02     0.21   0.10  -0.01
   2   6    -0.07   0.05   0.16     0.10  -0.05  -0.29    -0.00   0.18   0.07
   3   1     0.01  -0.01   0.12    -0.04   0.02  -0.22     0.02   0.03   0.08
   4   1    -0.07   0.08   0.06     0.11  -0.12  -0.11    -0.04   0.09   0.03
   5   6    -0.01   0.02  -0.06    -0.00  -0.01   0.10     0.00   0.01  -0.04
   6   1    -0.01   0.00  -0.05     0.03   0.00   0.08     0.04  -0.00  -0.01
   7   1     0.03   0.03  -0.02    -0.06  -0.05   0.03     0.00  -0.01  -0.01
   8   7    -0.01  -0.00  -0.05    -0.03   0.01   0.09    -0.07  -0.10  -0.03
   9   6     0.13  -0.05  -0.06    -0.26   0.07   0.12    -0.02  -0.15  -0.04
  10   1     0.03  -0.02  -0.03    -0.09   0.03   0.05    -0.10  -0.04  -0.02
  11   1     0.06  -0.01   0.01    -0.10   0.02  -0.01     0.05   0.02   0.00
  12   1     0.05  -0.03  -0.03    -0.08   0.02   0.06     0.03  -0.14  -0.01
  13   6    -0.03   0.01   0.06     0.02  -0.03  -0.08    -0.22   0.12   0.20
  14   1     0.05  -0.05  -0.14    -0.08   0.07   0.22    -0.10   0.04   0.06
  15   1    -0.09   0.16   0.04     0.14  -0.27  -0.06    -0.13   0.05   0.07
  16   1     0.01  -0.10   0.16    -0.02   0.15  -0.25     0.00   0.08   0.11
  17   6    -0.01  -0.00  -0.05     0.04  -0.01   0.05     0.12  -0.15  -0.18
  18   1     0.10  -0.01  -0.02    -0.18  -0.00   0.03    -0.02  -0.08  -0.05
  19   1    -0.05   0.03   0.07     0.10  -0.06  -0.16     0.08  -0.09  -0.11
  20   1    -0.06  -0.02  -0.09     0.12   0.05   0.15     0.09   0.03  -0.03
  21   1    -0.02   0.02  -0.03     0.05  -0.03   0.06     0.09   0.03  -0.01
  22   6     0.00  -0.00  -0.00    -0.00   0.00   0.01     0.00  -0.01  -0.01
  23   8    -0.00  -0.00  -0.01     0.00   0.00   0.02     0.00  -0.01  -0.00
  24   7     0.00  -0.00  -0.01    -0.00   0.00   0.01     0.02   0.02   0.03
  25   1     0.00   0.00   0.00    -0.00  -0.00  -0.00    -0.00  -0.02  -0.03
  26   1     0.00   0.01   0.01    -0.01  -0.01  -0.02    -0.02  -0.02  -0.07
  27   7     0.00   0.00   0.01    -0.01  -0.01  -0.02    -0.02  -0.02  -0.02
  28   1    -0.00  -0.00  -0.00     0.00   0.01   0.01     0.02   0.02   0.03
  29   1    -0.00  -0.00  -0.00     0.01   0.01   0.01     0.01   0.02   0.03
  30   6    -0.01   0.01  -0.01     0.00  -0.00  -0.01     0.00  -0.02   0.00
  31   8    -0.01   0.00  -0.01     0.00  -0.01  -0.01     0.01  -0.03  -0.00
  32   7    -0.01  -0.01   0.00     0.01   0.02   0.00     0.03   0.06   0.04
  33   1     0.00   0.01   0.01    -0.01  -0.02  -0.01    -0.04  -0.07  -0.05
  34   1     0.01   0.02   0.02    -0.03  -0.05  -0.03    -0.14  -0.25  -0.17
  35   7     0.01   0.01  -0.01    -0.01  -0.01  -0.02    -0.10  -0.11  -0.12
  36   1    -0.00  -0.01  -0.01     0.03   0.05   0.05     0.18   0.35   0.31
  37   1    -0.01  -0.01  -0.01     0.02   0.03   0.03     0.14   0.19   0.19
  38   6     0.01   0.00   0.00    -0.01  -0.00  -0.00    -0.00   0.01   0.01
  39   8     0.01  -0.00   0.00    -0.02   0.00  -0.00     0.03   0.01   0.02
  40   7    -0.01  -0.00   0.01     0.01   0.01  -0.00    -0.02   0.02   0.03
  41   1     0.00   0.00   0.01    -0.00  -0.00  -0.00    -0.00   0.01   0.01
  42   1    -0.01  -0.00   0.00    -0.01  -0.00  -0.00    -0.02   0.01   0.00
  43   7    -0.00  -0.00  -0.01    -0.00   0.00   0.01    -0.00   0.01  -0.00
  44   1    -0.00   0.00  -0.00     0.00   0.00   0.00    -0.01  -0.01  -0.00
  45   1     0.01   0.00  -0.00     0.00   0.00   0.00     0.00  -0.00  -0.00
  46   6     0.00  -0.01  -0.03     0.00  -0.02  -0.01    -0.02  -0.01  -0.01
  47   8     0.03   0.00  -0.00     0.02  -0.02   0.02    -0.02  -0.01  -0.02
  48   7    -0.03   0.00  -0.04     0.00  -0.02  -0.03     0.01  -0.01   0.02
  49   1     0.04  -0.01   0.07     0.02  -0.01   0.03    -0.01  -0.01  -0.02
  50   1     0.12  -0.03   0.19     0.06  -0.02   0.09    -0.02   0.00  -0.04
  51   7     0.11   0.02   0.28     0.06   0.00   0.16    -0.01   0.02   0.00
  52   1    -0.28  -0.04  -0.60    -0.16  -0.03  -0.35     0.02   0.01   0.03
  53   1    -0.16   0.02  -0.36    -0.09   0.01  -0.21    -0.00   0.01   0.02
                     31                     32                     33
                        a                      a                      a 
 Frequencies --   302.6047               315.4900               322.2437
 Red. masses --     5.6676                 2.9070                 2.8418
 Frc consts  --     0.0000                 0.0000                 0.0000
 IR Inten    --    29.3031               142.9857                 4.9086
 Raman Activ --     0.0000                 0.0000                 0.0000
 Depolar     --     0.0000                 0.0000                 0.0000
 Atom AN      X      Y      Z        X      Y      Z        X      Y      Z
   1   8     0.23   0.14   0.02    -0.05  -0.01  -0.01     0.06   0.01   0.03
   2   6     0.01   0.17   0.01     0.00  -0.03  -0.00    -0.10   0.05  -0.01
   3   1     0.01   0.04   0.03    -0.01  -0.01  -0.01    -0.01   0.01   0.02
   4   1    -0.02   0.06   0.01     0.01  -0.01  -0.00    -0.07   0.02   0.01
   5   6    -0.00  -0.01  -0.02     0.00  -0.01   0.02    -0.07   0.11  -0.19
   6   1     0.05  -0.01   0.01    -0.00  -0.00   0.01    -0.03   0.01  -0.14
   7   1    -0.01  -0.03  -0.01     0.00  -0.01   0.00    -0.00   0.12  -0.05
   8   7    -0.08  -0.10  -0.02     0.01   0.01   0.00    -0.02  -0.01  -0.01
   9   6    -0.07  -0.17  -0.02     0.02   0.03   0.00    -0.08   0.01  -0.00
  10   1    -0.12  -0.05  -0.02     0.00   0.01   0.01     0.04  -0.00   0.00
  11   1     0.04   0.02   0.00     0.01   0.01   0.00    -0.07  -0.04  -0.03
  12   1     0.02  -0.15  -0.00     0.01   0.01  -0.01    -0.06   0.07   0.03
  13   6    -0.22   0.14   0.19     0.03  -0.02  -0.05    -0.01  -0.14   0.14
  14   1    -0.13   0.07   0.12     0.03  -0.02  -0.07    -0.05   0.05   0.33
  15   1    -0.10  -0.01   0.06     0.00   0.05  -0.01     0.07  -0.34   0.01
  16   1     0.00   0.12   0.05     0.00  -0.04   0.02    -0.02   0.12  -0.17
  17   6     0.14  -0.16  -0.18    -0.04   0.02   0.02     0.19  -0.01   0.01
  18   1    -0.04  -0.09  -0.05    -0.05   0.01   0.01     0.48  -0.01  -0.03
  19   1     0.10  -0.09  -0.15    -0.00   0.00  -0.02    -0.09   0.04   0.36
  20   1     0.11   0.03  -0.02     0.00  -0.00   0.04    -0.13  -0.03  -0.30
  21   1     0.05   0.04  -0.00     0.02  -0.01   0.01    -0.05   0.02  -0.01
  22   6    -0.00   0.00  -0.00     0.01  -0.03  -0.05    -0.00  -0.01  -0.01
  23   8    -0.00   0.00  -0.00     0.03  -0.02  -0.01     0.00  -0.01  -0.01
  24   7    -0.00   0.01   0.02     0.11   0.14   0.30     0.02   0.03   0.04
  25   1    -0.01  -0.01  -0.01    -0.09  -0.17  -0.31    -0.01  -0.02  -0.04
  26   1    -0.01  -0.01  -0.03    -0.23  -0.29  -0.70    -0.03  -0.03  -0.09
  27   7    -0.00   0.00  -0.01    -0.03  -0.05  -0.04     0.01   0.00   0.01
  28   1    -0.00  -0.00  -0.01     0.13   0.13   0.19    -0.00  -0.00  -0.00
  29   1     0.00   0.00   0.00     0.03   0.04   0.06    -0.00  -0.01  -0.01
  30   6     0.01   0.02  -0.01     0.01   0.00  -0.00    -0.01  -0.00   0.01
  31   8     0.01   0.04   0.00     0.01   0.00   0.00    -0.02  -0.00   0.00
  32   7    -0.02  -0.05  -0.05     0.01  -0.00  -0.01    -0.00  -0.00   0.01
  33   1     0.03   0.07   0.05     0.00   0.00   0.00     0.00  -0.00  -0.00
  34   1     0.14   0.24   0.16     0.01   0.02   0.01    -0.00  -0.00   0.00
  35   7     0.09   0.11   0.11    -0.00   0.01   0.02     0.00  -0.01   0.00
  36   1    -0.18  -0.33  -0.30    -0.03  -0.03  -0.03     0.01   0.00   0.01
  37   1    -0.14  -0.19  -0.18    -0.02  -0.02  -0.01     0.00   0.00   0.00
  38   6    -0.02  -0.02  -0.01    -0.02   0.00   0.01     0.02   0.01   0.00
  39   8    -0.04  -0.02  -0.01    -0.00  -0.02   0.02     0.02  -0.01   0.00
  40   7     0.04   0.00  -0.01    -0.03   0.02   0.03    -0.02  -0.01  -0.00
  41   1     0.00  -0.00  -0.01     0.00   0.01   0.01     0.00   0.00  -0.00
  42   1     0.01  -0.00  -0.00    -0.00   0.01   0.01     0.01   0.00   0.00
  43   7     0.02   0.00   0.02    -0.02   0.03  -0.03    -0.01  -0.00  -0.05
  44   1     0.01   0.00   0.01    -0.01   0.01  -0.01    -0.00   0.02  -0.01
  45   1    -0.00  -0.00   0.00    -0.00   0.00  -0.02     0.00  -0.00  -0.02
  46   6    -0.01  -0.01   0.01     0.00   0.00  -0.00     0.01  -0.00   0.02
  47   8    -0.02  -0.01   0.00     0.00   0.00  -0.00     0.02   0.00   0.04
  48   7    -0.01  -0.01  -0.01    -0.00   0.00  -0.00    -0.01   0.00  -0.01
  49   1     0.01  -0.01   0.01     0.00   0.00   0.00     0.00  -0.00   0.01
  50   1     0.02  -0.00   0.03     0.01  -0.00   0.01     0.01  -0.00   0.01
  51   7    -0.02   0.00  -0.00     0.00  -0.00  -0.00    -0.01   0.01  -0.01
  52   1     0.01   0.01   0.02    -0.00  -0.00  -0.00    -0.00   0.00  -0.01
  53   1    -0.01   0.00   0.01     0.00  -0.00  -0.00    -0.00   0.00   0.01
                     34                     35                     36
                        a                      a                      a 
 Frequencies --   343.7941               374.1809               390.2322
 Red. masses --     3.6197                 6.3203                 3.8746
 Frc consts  --     0.0000                 0.0000                 0.0000
 IR Inten    --     3.4906                 4.5531                72.4822
 Raman Activ --     0.0000                 0.0000                 0.0000
 Depolar     --     0.0000                 0.0000                 0.0000
 Atom AN      X      Y      Z        X      Y      Z        X      Y      Z
   1   8    -0.26  -0.08  -0.04    -0.09   0.03   0.00    -0.05   0.02   0.02
   2   6    -0.06  -0.04   0.19    -0.12   0.01  -0.04    -0.03  -0.00  -0.02
   3   1     0.03  -0.03   0.14    -0.00  -0.00   0.03     0.00   0.01  -0.00
   4   1    -0.06   0.06   0.07    -0.10   0.01   0.00    -0.02  -0.00  -0.00
   5   6     0.04   0.07  -0.15    -0.05   0.09  -0.24    -0.01   0.01  -0.05
   6   1    -0.05   0.01  -0.16    -0.03  -0.00  -0.21    -0.01  -0.00  -0.04
   7   1     0.09   0.14  -0.04    -0.01   0.17  -0.05    -0.00   0.04  -0.01
   8   7     0.09   0.03  -0.05     0.05  -0.08   0.05     0.03  -0.01   0.02
   9   6     0.07   0.02  -0.05    -0.25   0.23   0.11    -0.06   0.02   0.04
  10   1    -0.42   0.05   0.03    -0.02   0.08   0.10    -0.01   0.01   0.02
  11   1     0.25   0.34  -0.04    -0.15   0.04  -0.07    -0.04  -0.00  -0.01
  12   1     0.19  -0.39  -0.03    -0.13   0.16   0.08    -0.03   0.02   0.03
  13   6     0.13  -0.09   0.00     0.10  -0.21   0.09     0.05  -0.03   0.02
  14   1     0.01   0.03   0.17     0.15  -0.13  -0.15     0.03  -0.02  -0.02
  15   1     0.09  -0.21  -0.02    -0.06   0.12   0.05     0.00   0.02   0.01
  16   1     0.02   0.06  -0.13     0.01  -0.21   0.18     0.01  -0.03   0.03
  17   6    -0.00   0.07   0.08     0.39  -0.11   0.04     0.09  -0.02  -0.01
  18   1    -0.13   0.06   0.04     0.00  -0.01   0.02    -0.01  -0.01   0.00
  19   1     0.04  -0.00  -0.07     0.20  -0.14  -0.09     0.04  -0.02  -0.04
  20   1     0.06   0.02   0.13     0.22   0.06   0.09     0.05   0.01   0.02
  21   1     0.01  -0.01  -0.02     0.12  -0.03   0.04    -0.04   0.01  -0.00
  22   6     0.01   0.00   0.01     0.00   0.00   0.02    -0.02  -0.02  -0.02
  23   8     0.01   0.01   0.00     0.00   0.01   0.02    -0.01  -0.02  -0.02
  24   7    -0.00  -0.01  -0.01    -0.01  -0.01  -0.03     0.01   0.03   0.04
  25   1    -0.00   0.00   0.01     0.00   0.01   0.01    -0.00  -0.01  -0.02
  26   1     0.01   0.00   0.02     0.02   0.02   0.04    -0.02  -0.01  -0.04
  27   7    -0.01  -0.01  -0.01    -0.03  -0.03  -0.04     0.05   0.05   0.06
  28   1     0.02   0.02   0.03     0.04   0.04   0.06    -0.10  -0.09  -0.15
  29   1     0.00   0.01   0.01     0.02   0.03   0.03    -0.02  -0.03  -0.03
  30   6     0.00   0.00  -0.00    -0.01  -0.02  -0.02     0.08   0.11   0.08
  31   8     0.01   0.00  -0.00    -0.00  -0.01  -0.01     0.06   0.06   0.04
  32   7     0.00   0.00  -0.00     0.02   0.04   0.02    -0.10  -0.19  -0.11
  33   1    -0.00   0.00   0.00    -0.02  -0.02  -0.01     0.04   0.07   0.05
  34   1     0.00   0.00  -0.00    -0.05  -0.09  -0.06     0.28   0.50   0.34
  35   7    -0.00   0.00   0.00     0.03   0.04   0.04    -0.12  -0.18  -0.15
  36   1    -0.00  -0.00  -0.00    -0.03  -0.07  -0.06     0.10   0.23   0.19
  37   1    -0.00  -0.00  -0.00    -0.02  -0.02  -0.02     0.07   0.08   0.10
  38   6    -0.02  -0.01  -0.01    -0.02   0.00  -0.00    -0.02  -0.03  -0.03
  39   8    -0.01   0.01  -0.01    -0.03  -0.01  -0.01    -0.03  -0.04  -0.03
  40   7     0.01   0.01  -0.00     0.01  -0.00  -0.02     0.00   0.01   0.00
  41   1     0.00   0.01   0.00    -0.01  -0.01  -0.01     0.01   0.01   0.00
  42   1    -0.02  -0.01  -0.00     0.00  -0.01  -0.01     0.09   0.08   0.02
  43   7     0.01   0.01   0.03    -0.01  -0.00   0.02     0.05   0.05   0.01
  44   1     0.01  -0.00   0.01     0.02   0.02   0.01    -0.14  -0.15  -0.06
  45   1     0.00   0.00   0.01     0.00   0.01   0.01    -0.04  -0.05  -0.01
  46   6    -0.01  -0.01  -0.00    -0.01  -0.00  -0.01    -0.03   0.00  -0.04
  47   8    -0.02  -0.01  -0.01    -0.00  -0.00  -0.00    -0.01   0.01  -0.02
  48   7     0.01  -0.02   0.00    -0.00  -0.00   0.01     0.05  -0.02   0.07
  49   1    -0.00  -0.01  -0.01    -0.01   0.00  -0.00    -0.02   0.01  -0.04
  50   1    -0.00  -0.00  -0.01    -0.02   0.00  -0.02    -0.13   0.02  -0.19
  51   7    -0.00   0.00   0.01    -0.00   0.01   0.00     0.02  -0.00   0.05
  52   1    -0.00   0.00  -0.01     0.01   0.01   0.01    -0.02  -0.01  -0.03
  53   1    -0.00   0.00  -0.00    -0.01   0.00   0.01    -0.00  -0.00  -0.02
                     37                     38                     39
                        a                      a                      a 
 Frequencies --   410.6578               412.8857               417.8156
 Red. masses --     2.9083                 2.6484                 3.6866
 Frc consts  --     0.0000                 0.0000                 0.0000
 IR Inten    --    72.0748               137.7706               330.6244
 Raman Activ --     0.0000                 0.0000                 0.0000
 Depolar     --     0.0000                 0.0000                 0.0000
 Atom AN      X      Y      Z        X      Y      Z        X      Y      Z
   1   8    -0.02   0.00  -0.01     0.00  -0.01   0.01    -0.07  -0.02   0.00
   2   6    -0.02  -0.00  -0.00     0.03  -0.01   0.00     0.04  -0.05  -0.00
   3   1     0.00   0.00   0.01    -0.00  -0.00  -0.01    -0.00  -0.01  -0.03
   4   1    -0.02   0.01   0.00     0.02  -0.01  -0.00     0.03  -0.03  -0.01
   5   6    -0.00  -0.00  -0.03     0.01   0.02   0.02     0.03   0.08   0.02
   6   1    -0.00  -0.00  -0.02    -0.00   0.01   0.01    -0.02   0.02  -0.04
   7   1    -0.00   0.01  -0.01     0.01  -0.00   0.00     0.02   0.07   0.01
   8   7     0.03  -0.01   0.01    -0.00   0.03  -0.00     0.05   0.09   0.06
   9   6    -0.01   0.01   0.02    -0.00  -0.04  -0.01    -0.08  -0.11   0.06
  10   1    -0.03   0.01   0.01     0.00  -0.02  -0.02    -0.03  -0.05  -0.04
  11   1     0.00   0.02  -0.01    -0.00  -0.03   0.01    -0.05  -0.07   0.02
  12   1    -0.00  -0.02   0.02    -0.00  -0.02   0.01    -0.04  -0.04   0.07
  13   6     0.03   0.01  -0.01    -0.00   0.02   0.01     0.08   0.02   0.06
  14   1     0.01  -0.00  -0.01    -0.01   0.01   0.02     0.04   0.00   0.01
  15   1     0.01   0.01  -0.00    -0.00  -0.01   0.00     0.01   0.01   0.02
  16   1     0.01  -0.00   0.00     0.00   0.02  -0.00     0.01  -0.01   0.02
  17   6     0.02  -0.01  -0.02    -0.05   0.02  -0.04    -0.04   0.04  -0.13
  18   1    -0.04  -0.01  -0.00     0.03  -0.01  -0.01     0.00  -0.05  -0.04
  19   1     0.02  -0.01  -0.04    -0.03   0.03   0.02    -0.02   0.05  -0.06
  20   1     0.03   0.00   0.02    -0.04  -0.01  -0.04    -0.03   0.02  -0.08
  21   1    -0.04   0.01  -0.01     0.03  -0.01   0.01     0.03  -0.02   0.01
  22   6    -0.06  -0.04  -0.04     0.02   0.01   0.02     0.04   0.03   0.03
  23   8    -0.04  -0.06  -0.03     0.01   0.03   0.02     0.03   0.05   0.03
  24   7     0.01   0.07   0.10    -0.02  -0.04  -0.05    -0.02  -0.07  -0.09
  25   1    -0.01  -0.03  -0.06     0.00   0.02   0.03     0.01   0.03   0.06
  26   1    -0.05  -0.02  -0.10     0.02   0.01   0.05     0.04   0.02   0.10
  27   7     0.12   0.11   0.14    -0.08  -0.05  -0.06    -0.13  -0.09  -0.10
  28   1    -0.26  -0.24  -0.39     0.14   0.13   0.22     0.24   0.21   0.36
  29   1    -0.02  -0.05  -0.03     0.00   0.02  -0.00     0.00   0.03  -0.00
  30   6    -0.03  -0.03  -0.01    -0.01  -0.03  -0.00     0.01   0.03   0.02
  31   8    -0.02  -0.02   0.01    -0.01  -0.01   0.01     0.00   0.02   0.01
  32   7     0.01   0.06   0.02     0.04   0.07   0.02    -0.03  -0.04  -0.02
  33   1    -0.00  -0.00  -0.01    -0.00  -0.01  -0.02     0.01   0.01   0.01
  34   1    -0.10  -0.15  -0.11    -0.08  -0.13  -0.10     0.05   0.10   0.07
  35   7     0.06   0.04   0.02     0.03   0.04   0.06    -0.00  -0.04  -0.06
  36   1     0.00  -0.05  -0.04    -0.06  -0.15  -0.11     0.05   0.09   0.07
  37   1    -0.01  -0.02  -0.05     0.01   0.02  -0.01    -0.00  -0.01  -0.01
  38   6     0.08   0.06  -0.01    -0.00  -0.01  -0.03    -0.03  -0.03  -0.02
  39   8     0.03   0.06  -0.02     0.00  -0.02  -0.02    -0.02  -0.03  -0.01
  40   7    -0.14  -0.10  -0.00    -0.04  -0.02   0.01    -0.00  -0.01   0.00
  41   1     0.04   0.05   0.01     0.02   0.03   0.00     0.01   0.01  -0.01
  42   1     0.46   0.38   0.09     0.27   0.23   0.05     0.17   0.13   0.03
  43   7    -0.01  -0.04   0.04     0.07   0.06   0.05     0.06   0.07   0.02
  44   1    -0.15  -0.19  -0.05    -0.29  -0.33  -0.11    -0.22  -0.23  -0.08
  45   1    -0.01  -0.02   0.01    -0.03  -0.04  -0.00    -0.02  -0.04  -0.02
  46   6     0.02  -0.01   0.03    -0.06   0.01  -0.07     0.05  -0.02   0.06
  47   8     0.01  -0.02   0.02    -0.02   0.02  -0.04     0.02  -0.03   0.04
  48   7    -0.05   0.01  -0.06     0.12  -0.05   0.15    -0.11   0.04  -0.12
  49   1     0.01  -0.01   0.02    -0.02   0.03  -0.04     0.01  -0.02   0.02
  50   1     0.14  -0.02   0.21    -0.33   0.04  -0.49     0.29  -0.04   0.44
  51   7    -0.02   0.01  -0.05     0.05  -0.00   0.14    -0.04   0.01  -0.12
  52   1     0.02   0.01   0.03    -0.06  -0.02  -0.10     0.06   0.02   0.09
  53   1     0.00   0.01   0.03    -0.02  -0.00  -0.06     0.01   0.01   0.05
                     40                     41                     42
                        a                      a                      a 
 Frequencies --   428.7474               452.2972               460.4293
 Red. masses --     7.7235                 4.1388                 7.8770
 Frc consts  --     0.0000                 0.0000                 0.0000
 IR Inten    --    47.2940               360.0681                 2.1889
 Raman Activ --     0.0000                 0.0000                 0.0000
 Depolar     --     0.0000                 0.0000                 0.0000
 Atom AN      X      Y      Z        X      Y      Z        X      Y      Z
   1   8    -0.19  -0.08  -0.05    -0.00   0.00  -0.00     0.01   0.00  -0.03
   2   6     0.10  -0.14  -0.00     0.04  -0.02  -0.00    -0.06   0.03  -0.00
   3   1     0.01  -0.03  -0.04     0.02   0.00   0.00    -0.03   0.00  -0.00
   4   1     0.06  -0.05  -0.01     0.00   0.00   0.00    -0.02   0.00  -0.00
   5   6     0.09   0.15   0.01     0.04  -0.01  -0.04    -0.05   0.15  -0.07
   6   1    -0.04   0.04  -0.08     0.00  -0.01  -0.04    -0.03  -0.00  -0.22
   7   1     0.05   0.14   0.01     0.02   0.03  -0.01    -0.00   0.24   0.00
   8   7     0.18   0.20   0.10     0.03  -0.04   0.01    -0.01  -0.18   0.32
   9   6    -0.24  -0.29   0.13    -0.02   0.02   0.02     0.20   0.06   0.34
  10   1    -0.08  -0.13  -0.11    -0.01   0.01   0.02     0.06   0.04   0.16
  11   1    -0.13  -0.16   0.03    -0.01   0.01  -0.01     0.08   0.06   0.09
  12   1    -0.11  -0.10   0.19    -0.02   0.01   0.02     0.08   0.03   0.02
  13   6     0.21   0.08   0.18    -0.01   0.06   0.00     0.01   0.18  -0.29
  14   1     0.10   0.02   0.04    -0.03   0.02  -0.00    -0.14   0.05  -0.14
  15   1     0.02   0.03   0.06    -0.00   0.03   0.00     0.18   0.11  -0.11
  16   1     0.06  -0.01   0.08     0.02   0.04   0.00    -0.02   0.10  -0.18
  17   6    -0.09   0.10  -0.34    -0.04  -0.05  -0.01    -0.11  -0.33  -0.13
  18   1    -0.04  -0.11  -0.11    -0.02  -0.02  -0.00     0.00  -0.22  -0.05
  19   1    -0.05   0.12  -0.15    -0.02   0.01  -0.01    -0.06  -0.02  -0.07
  20   1    -0.05   0.03  -0.15    -0.02  -0.03   0.00    -0.06  -0.06  -0.13
  21   1    -0.04  -0.03   0.00    -0.05   0.01  -0.01    -0.00   0.01  -0.01
  22   6    -0.01  -0.01  -0.01     0.05   0.03  -0.03    -0.02  -0.01   0.01
  23   8    -0.01  -0.02  -0.02     0.08   0.02  -0.02    -0.03   0.00   0.01
  24   7     0.01   0.02   0.04    -0.03  -0.10  -0.00     0.00   0.03  -0.02
  25   1    -0.01  -0.01  -0.02    -0.06   0.00   0.06     0.03   0.01  -0.00
  26   1    -0.02  -0.02  -0.04     0.04  -0.07   0.06    -0.01   0.03  -0.01
  27   7     0.05   0.04   0.04    -0.13   0.03  -0.01     0.03  -0.02  -0.01
  28   1    -0.10  -0.08  -0.15     0.08   0.14   0.17     0.02  -0.02   0.01
  29   1    -0.00  -0.01   0.01    -0.06  -0.04  -0.04     0.02   0.01  -0.01
  30   6    -0.00  -0.02  -0.01     0.02   0.00  -0.02    -0.01  -0.00   0.00
  31   8    -0.01  -0.01  -0.01     0.00   0.02  -0.03     0.00  -0.01   0.01
  32   7     0.02   0.02   0.01     0.00  -0.06   0.02    -0.00   0.02  -0.00
  33   1     0.00   0.00   0.00    -0.02  -0.02   0.01     0.00  -0.00  -0.01
  34   1    -0.03  -0.06  -0.04     0.07   0.08   0.08    -0.01   0.00  -0.01
  35   7     0.00   0.02   0.03    -0.04  -0.01  -0.00     0.01   0.00  -0.00
  36   1    -0.02  -0.03  -0.02    -0.01   0.08   0.05     0.00  -0.02  -0.01
  37   1    -0.01  -0.00   0.00    -0.03  -0.04   0.02     0.01   0.02   0.00
  38   6     0.00   0.00   0.00     0.12   0.11   0.06     0.00  -0.01  -0.01
  39   8     0.02   0.02   0.01     0.03   0.09   0.03     0.01  -0.00  -0.01
  40   7     0.01   0.03   0.02    -0.16  -0.18  -0.02    -0.00   0.02   0.01
  41   1    -0.01  -0.00   0.02     0.01   0.01  -0.03    -0.00   0.00   0.02
  42   1    -0.13  -0.09  -0.02     0.42   0.28   0.08    -0.05  -0.02  -0.01
  43   7    -0.02  -0.03   0.01    -0.17  -0.18  -0.11     0.01  -0.01   0.02
  44   1     0.12   0.11   0.05     0.39   0.42   0.14    -0.00  -0.02   0.00
  45   1     0.01   0.02   0.02     0.00   0.02  -0.01    -0.00  -0.00   0.01
  46   6    -0.01   0.00  -0.01    -0.01   0.03   0.00     0.01  -0.02   0.00
  47   8     0.00   0.01  -0.01    -0.02   0.03   0.01     0.03  -0.01  -0.01
  48   7     0.02  -0.01   0.04     0.06   0.00   0.01    -0.03  -0.01   0.02
  49   1     0.00   0.01   0.01     0.01  -0.02  -0.01    -0.01   0.01   0.01
  50   1    -0.09   0.01  -0.12    -0.03   0.02  -0.09    -0.03  -0.01  -0.01
  51   7     0.01   0.00   0.03     0.00  -0.03   0.02    -0.00   0.03   0.01
  52   1    -0.00   0.00  -0.01    -0.05  -0.04  -0.04     0.02   0.03   0.01
  53   1    -0.02   0.00  -0.02     0.05  -0.03   0.02    -0.04   0.02  -0.01
                     43                     44                     45
                        a                      a                      a 
 Frequencies --   463.9221               464.0242               467.8601
 Red. masses --     6.9034                 7.3781                 3.8293
 Frc consts  --     0.0000                 0.0000                 0.0000
 IR Inten    --    62.8294                60.3215                25.9153
 Raman Activ --     0.0000                 0.0000                 0.0000
 Depolar     --     0.0000                 0.0000                 0.0000
 Atom AN      X      Y      Z        X      Y      Z        X      Y      Z
   1   8    -0.06   0.00  -0.02     0.04  -0.00   0.01    -0.01   0.00  -0.00
   2   6     0.17  -0.07   0.01    -0.10   0.04  -0.01     0.02  -0.01   0.00
   3   1     0.08  -0.00   0.01    -0.05   0.00  -0.01     0.01  -0.00  -0.00
   4   1     0.04  -0.01   0.01    -0.01  -0.00  -0.01     0.01  -0.00   0.00
   5   6     0.17  -0.06  -0.13    -0.10   0.05   0.07     0.02  -0.00  -0.01
   6   1     0.02  -0.03  -0.13    -0.02   0.02   0.05     0.00  -0.00  -0.01
   7   1     0.08   0.08  -0.03    -0.05  -0.02   0.02     0.01   0.00  -0.00
   8   7     0.08  -0.14  -0.03    -0.06   0.06   0.05     0.00  -0.01  -0.01
   9   6    -0.10   0.12   0.01     0.08  -0.05   0.02    -0.01   0.01  -0.01
  10   1    -0.01   0.05   0.06     0.02  -0.02  -0.02    -0.00   0.00   0.00
  11   1    -0.07   0.04  -0.07     0.05  -0.02   0.05    -0.01   0.00  -0.01
  12   1    -0.05   0.08   0.02     0.04  -0.04  -0.02    -0.01   0.01   0.00
  13   6    -0.07   0.17   0.07     0.03  -0.09  -0.07    -0.01   0.01   0.01
  14   1    -0.10   0.06   0.02     0.04  -0.03  -0.03    -0.01   0.00   0.00
  15   1    -0.05   0.07   0.03     0.04  -0.03  -0.03    -0.01   0.00   0.01
  16   1     0.04   0.11   0.04    -0.03  -0.06  -0.04     0.00   0.01   0.01
  17   6    -0.12  -0.10   0.09     0.07   0.03  -0.05    -0.01  -0.00   0.01
  18   1    -0.02   0.00   0.03     0.02  -0.02  -0.02    -0.00   0.01   0.00
  19   1    -0.06   0.02   0.05     0.04  -0.02  -0.03    -0.00  -0.00   0.01
  20   1    -0.07  -0.08   0.02     0.04   0.05  -0.02    -0.00  -0.00   0.01
  21   1    -0.04   0.00  -0.01     0.02   0.00   0.00     0.00  -0.00   0.00
  22   6     0.10   0.06  -0.08     0.17   0.10  -0.13     0.07   0.03  -0.05
  23   8     0.14  -0.01  -0.07     0.25  -0.00  -0.12     0.09   0.01  -0.05
  24   7    -0.00  -0.14   0.09    -0.01  -0.25   0.15     0.00  -0.09   0.05
  25   1    -0.15  -0.06   0.00    -0.28  -0.11  -0.00    -0.10  -0.05  -0.01
  26   1     0.06  -0.14   0.05     0.12  -0.24   0.14     0.05  -0.09   0.05
  27   7    -0.13   0.12   0.04    -0.26   0.19   0.06    -0.11   0.07   0.02
  28   1    -0.14   0.06  -0.08    -0.20   0.14  -0.08    -0.07   0.07  -0.01
  29   1    -0.08  -0.04   0.07    -0.14  -0.06   0.12    -0.06  -0.03   0.04
  30   6     0.03   0.02  -0.04     0.04   0.01  -0.02    -0.13  -0.04   0.09
  31   8     0.00   0.04  -0.05    -0.00   0.04  -0.04    -0.00  -0.18   0.14
  32   7     0.03  -0.05   0.06     0.03  -0.04   0.02    -0.07   0.21  -0.08
  33   1    -0.01  -0.01   0.04     0.01   0.01   0.03     0.01  -0.01  -0.11
  34   1     0.01  -0.09  -0.01    -0.00  -0.06  -0.02    -0.03   0.18   0.01
  35   7    -0.05   0.03   0.03    -0.02   0.02   0.03     0.08  -0.09  -0.10
  36   1    -0.06   0.04  -0.01    -0.03   0.08   0.03     0.09  -0.40  -0.18
  37   1    -0.05  -0.06   0.03    -0.07  -0.11  -0.01     0.37   0.57   0.13
  38   6    -0.05  -0.02   0.03    -0.04   0.00   0.06     0.01   0.01  -0.01
  39   8    -0.01  -0.03   0.05    -0.02  -0.01   0.07     0.01   0.01  -0.02
  40   7     0.09   0.01  -0.02     0.07  -0.04  -0.03    -0.04   0.02   0.04
  41   1     0.01  -0.00  -0.03     0.02   0.00  -0.05    -0.00   0.01   0.03
  42   1    -0.08  -0.12  -0.02     0.01  -0.08  -0.00    -0.03   0.01   0.00
  43   7     0.03   0.11  -0.03    -0.01   0.10  -0.07    -0.01  -0.02  -0.01
  44   1    -0.17  -0.10  -0.08    -0.09   0.01  -0.05     0.04   0.03   0.01
  45   1     0.01  -0.00  -0.04     0.01  -0.01  -0.06    -0.00  -0.00   0.00
  46   6    -0.06   0.13   0.01     0.04  -0.09  -0.01     0.02  -0.02  -0.01
  47   8    -0.15   0.06   0.06     0.11  -0.04  -0.04     0.02  -0.02  -0.01
  48   7     0.18   0.05  -0.07    -0.13  -0.04   0.04    -0.03   0.00   0.02
  49   1     0.04  -0.07  -0.07    -0.03   0.05   0.05    -0.02   0.01  -0.02
  50   1     0.15   0.06   0.01    -0.10  -0.04  -0.00     0.03  -0.02   0.08
  51   7    -0.02  -0.16  -0.02     0.01   0.11   0.02     0.00   0.04  -0.03
  52   1    -0.19  -0.17  -0.09     0.15   0.12   0.08    -0.01   0.01  -0.04
  53   1     0.26  -0.13   0.16    -0.20   0.09  -0.14     0.03   0.01   0.08
                     46                     47                     48
                        a                      a                      a 
 Frequencies --   471.2946               478.4010               484.3351
 Red. masses --     4.3702                 6.4296                 7.4664
 Frc consts  --     0.0000                 0.0000                 0.0000
 IR Inten    --    16.7731                22.1285                18.8033
 Raman Activ --     0.0000                 0.0000                 0.0000
 Depolar     --     0.0000                 0.0000                 0.0000
 Atom AN      X      Y      Z        X      Y      Z        X      Y      Z
   1   8    -0.06   0.00  -0.02    -0.00   0.00   0.01     0.04   0.00   0.01
   2   6     0.18  -0.07   0.01     0.02  -0.00  -0.00    -0.12   0.05  -0.01
   3   1     0.09  -0.00   0.01     0.01   0.00  -0.00    -0.06   0.00  -0.00
   4   1     0.04  -0.01   0.01     0.00  -0.00  -0.00    -0.03   0.01  -0.00
   5   6     0.18  -0.09  -0.12     0.01  -0.01  -0.01    -0.12   0.05   0.06
   6   1     0.03  -0.03  -0.10     0.00  -0.00  -0.01    -0.02   0.02   0.06
   7   1     0.08   0.04  -0.03     0.01   0.01  -0.00    -0.06  -0.03   0.02
   8   7     0.08  -0.13  -0.08     0.00  -0.01  -0.00    -0.04   0.07   0.05
   9   6    -0.13   0.12  -0.04    -0.01   0.01  -0.00     0.09  -0.08   0.03
  10   1    -0.03   0.05   0.05     0.00   0.01   0.01     0.02  -0.03  -0.03
  11   1    -0.07   0.04  -0.08    -0.01   0.00  -0.01     0.04  -0.03   0.05
  12   1    -0.06   0.08   0.01    -0.01   0.01  -0.00     0.04  -0.05  -0.01
  13   6    -0.08   0.15   0.10    -0.01   0.01   0.01     0.06  -0.09  -0.07
  14   1    -0.09   0.05   0.04    -0.01   0.00   0.00     0.06  -0.03  -0.03
  15   1    -0.07   0.05   0.04    -0.01   0.01   0.00     0.05  -0.03  -0.03
  16   1     0.05   0.10   0.06     0.00   0.01   0.00    -0.02  -0.06  -0.04
  17   6    -0.12  -0.06   0.12    -0.00  -0.01   0.01     0.08   0.03  -0.08
  18   1    -0.03   0.04   0.04    -0.00   0.00   0.00     0.03  -0.03  -0.03
  19   1    -0.06   0.02   0.06    -0.00   0.00   0.00     0.04  -0.01  -0.04
  20   1    -0.06  -0.08   0.05    -0.00  -0.01   0.01     0.03   0.04  -0.04
  21   1    -0.06   0.01  -0.01    -0.01   0.00   0.00     0.06  -0.01   0.01
  22   6    -0.00  -0.00  -0.00     0.04   0.01  -0.03     0.01   0.01   0.02
  23   8    -0.01   0.00  -0.01     0.04   0.01  -0.03     0.02  -0.01   0.03
  24   7     0.00  -0.01  -0.01     0.01  -0.05   0.02     0.02   0.04   0.02
  25   1     0.02   0.02   0.03    -0.03  -0.02   0.01    -0.14  -0.13  -0.23
  26   1    -0.01  -0.01  -0.03     0.02  -0.04   0.01     0.07   0.02   0.14
  27   7     0.00   0.00   0.01    -0.05   0.03   0.01    -0.02  -0.02  -0.06
  28   1     0.01   0.01   0.02    -0.02   0.04   0.01    -0.01  -0.01  -0.01
  29   1    -0.01  -0.01  -0.02    -0.03  -0.02   0.01     0.02   0.03   0.04
  30   6    -0.04  -0.01   0.04    -0.11  -0.02   0.21    -0.06   0.00   0.04
  31   8    -0.01  -0.03   0.06    -0.05  -0.08   0.26     0.01  -0.05   0.07
  32   7    -0.04   0.05  -0.06    -0.15   0.15  -0.27    -0.07   0.05  -0.03
  33   1     0.02   0.02  -0.03     0.11   0.10  -0.12     0.00   0.01  -0.02
  34   1    -0.03   0.04  -0.02    -0.18   0.11  -0.13    -0.03   0.03  -0.01
  35   7     0.07  -0.02  -0.03     0.31  -0.07  -0.06     0.07  -0.01  -0.04
  36   1     0.07  -0.00   0.03     0.28   0.10   0.19     0.08  -0.01   0.03
[...]
  44   1     0.01   0.00  -0.04    -0.00   0.00   0.00     0.00   0.00  -0.01
  45   1     0.19  -0.22   0.28    -0.01   0.01  -0.02     0.04  -0.05   0.07
  46   6    -0.00  -0.00   0.00     0.00  -0.00  -0.00     0.00   0.01  -0.00
  47   8    -0.00   0.00   0.00    -0.00   0.00   0.00     0.00  -0.00  -0.00
  48   7    -0.03  -0.01   0.01     0.00   0.00  -0.00     0.20   0.08  -0.09
  49   1     0.10   0.02  -0.05    -0.02  -0.00   0.01    -0.83  -0.18   0.41
  50   1    -0.01   0.01   0.01     0.00  -0.00  -0.00     0.10  -0.13  -0.08
  51   7     0.00   0.00  -0.00    -0.00   0.00   0.00    -0.00  -0.00   0.00
  52   1     0.00  -0.00   0.00    -0.00   0.00  -0.00    -0.01   0.01   0.00
  53   1     0.00   0.00   0.00    -0.00  -0.00  -0.00    -0.01  -0.01   0.00
                    142                    143                    144
                        a                      a                      a 
 Frequencies --  3369.9425              3495.0373              3496.5616
 Red. masses --     1.7635                 1.4493                 1.4532
 Frc consts  --     0.0000                 0.0000                 0.0000
 IR Inten    --   602.1959                21.4401                17.8903
 Raman Activ --     0.0000                 0.0000                 0.0000
 Depolar     --     0.0000                 0.0000                 0.0000
 Atom AN      X      Y      Z        X      Y      Z        X      Y      Z
   1   8     0.00   0.10   0.10     0.00  -0.00  -0.00     0.00  -0.00  -0.00
   2   6     0.00   0.01   0.00    -0.00  -0.00   0.00    -0.00   0.00  -0.00
   3   1     0.00  -0.01  -0.00    -0.00  -0.00  -0.00     0.00  -0.00  -0.00
   4   1     0.00  -0.00  -0.01    -0.00  -0.00  -0.00    -0.00  -0.00   0.00
   5   6    -0.00  -0.00   0.00     0.00  -0.00   0.00    -0.00   0.00  -0.00
   6   1    -0.00  -0.00   0.00     0.00   0.00  -0.00    -0.00  -0.00   0.00
   7   1    -0.00   0.00  -0.00     0.00   0.00  -0.00     0.00   0.00   0.00
   8   7     0.00   0.00  -0.00     0.00   0.00   0.00     0.00  -0.00  -0.00
   9   6     0.00   0.00   0.00     0.00  -0.00   0.00    -0.00   0.00  -0.00
  10   1     0.00   0.00  -0.00     0.00   0.00   0.00     0.00  -0.00   0.00
  11   1    -0.00   0.00   0.00     0.00   0.00   0.00     0.00  -0.00  -0.00
  12   1    -0.00  -0.00  -0.00    -0.00  -0.00  -0.00    -0.00   0.00  -0.00
  13   6    -0.00   0.00   0.00     0.00  -0.00  -0.00    -0.00   0.00   0.00
  14   1     0.00   0.00  -0.00    -0.00  -0.00   0.00    -0.00  -0.00   0.00
  15   1     0.00  -0.00   0.00    -0.00   0.00  -0.00     0.00   0.00   0.00
  16   1     0.00  -0.00  -0.00    -0.00   0.00   0.00     0.00  -0.00  -0.00
  17   6     0.01   0.00   0.00     0.00  -0.00  -0.00    -0.00   0.00   0.00
  18   1     0.00   0.00   0.00    -0.00   0.00  -0.00    -0.00   0.00   0.00
  19   1    -0.03  -0.01  -0.01    -0.00  -0.00  -0.00    -0.00   0.00  -0.00
  20   1    -0.00   0.00   0.00    -0.00   0.00   0.00     0.00   0.00  -0.00
  21   1    -0.01  -0.41  -0.40    -0.00   0.00   0.00    -0.00   0.00   0.00
  22   6    -0.00   0.01  -0.00    -0.00   0.00  -0.00    -0.00   0.00  -0.00
  23   8    -0.00   0.00   0.00     0.00   0.00  -0.00     0.00  -0.00   0.00
  24   7     0.00  -0.00  -0.00    -0.16   0.09  -0.00     0.00  -0.00  -0.00
  25   1     0.00  -0.01   0.01     0.03  -0.60   0.32    -0.00   0.00  -0.00
  26   1     0.01   0.00  -0.00     0.57   0.28  -0.31    -0.00  -0.00   0.00
  27   7    -0.14   0.11  -0.02     0.01  -0.00  -0.00     0.00  -0.00   0.00
  28   1    -0.12  -0.04   0.10    -0.02  -0.01   0.02     0.00   0.00  -0.00
  29   1     0.63  -0.39  -0.02    -0.02   0.01   0.00    -0.00   0.00  -0.00
  30   6    -0.00   0.00  -0.00    -0.00   0.00  -0.00     0.00   0.00  -0.00
  31   8     0.00  -0.00   0.00     0.00  -0.00   0.00    -0.00  -0.00   0.00
  32   7     0.02  -0.02   0.02     0.00  -0.00   0.00    -0.00  -0.01   0.01
  33   1    -0.05   0.09  -0.08    -0.00   0.00  -0.00    -0.01   0.01  -0.01
  34   1    -0.01  -0.01   0.02    -0.00  -0.00   0.00     0.02   0.01  -0.03
  35   7     0.00   0.00  -0.00    -0.00   0.00  -0.00    -0.05   0.15  -0.10
  36   1    -0.00  -0.00  -0.00    -0.00  -0.00   0.00    -0.40  -0.26   0.54
  37   1    -0.00   0.00   0.00     0.00  -0.00  -0.00     0.58  -0.29  -0.16
  38   6    -0.01  -0.00   0.02    -0.00   0.00   0.00    -0.00   0.00  -0.00
  39   8     0.01   0.00  -0.01     0.00  -0.00  -0.00     0.00  -0.00   0.00
  40   7    -0.02   0.02  -0.00     0.00  -0.00   0.00     0.00  -0.00   0.00
  41   1     0.06  -0.06  -0.03    -0.01   0.00   0.00    -0.00   0.00   0.00
  42   1    -0.00   0.00   0.01     0.00  -0.00  -0.00     0.00  -0.00  -0.00
  43   7     0.01  -0.01   0.01     0.00  -0.00  -0.00     0.00  -0.00   0.00
  44   1    -0.00  -0.00   0.01    -0.00  -0.00   0.00    -0.00  -0.00   0.01
  45   1    -0.04   0.04  -0.06    -0.00   0.00  -0.00    -0.00   0.00  -0.01
  46   6    -0.00  -0.00  -0.00    -0.00   0.00   0.00     0.00  -0.00  -0.00
  47   8     0.00   0.00   0.00     0.00  -0.00  -0.00    -0.00   0.00   0.00
  48   7    -0.00  -0.00   0.00     0.00   0.00  -0.00    -0.00  -0.00   0.00
  49   1     0.01   0.00  -0.01    -0.00  -0.00   0.00     0.01   0.00  -0.01
  50   1    -0.00   0.00   0.00     0.00  -0.00  -0.00    -0.01   0.01   0.01
  51   7    -0.00  -0.00   0.00     0.00  -0.00  -0.00    -0.01  -0.00   0.00
  52   1     0.00  -0.00  -0.00    -0.00   0.00   0.00     0.01  -0.02  -0.00
  53   1     0.00   0.00  -0.00    -0.00  -0.00   0.00     0.01   0.02  -0.00
                    145                    146                    147
                        a                      a                      a 
 Frequencies --  3498.1920              3531.7863              3532.0350
 Red. masses --     1.4535                 1.9273                 1.9117
 Frc consts  --     0.0000                 0.0000                 0.0000
 IR Inten    --    16.4233                15.1184                 4.6257
 Raman Activ --     0.0000                 0.0000                 0.0000
 Depolar     --     0.0000                 0.0000                 0.0000
 Atom AN      X      Y      Z        X      Y      Z        X      Y      Z
   1   8    -0.00   0.00   0.00    -0.00  -0.00  -0.00     0.00   0.00   0.00
   2   6     0.00  -0.00   0.00     0.00   0.00  -0.00     0.00   0.00   0.00
   3   1    -0.00   0.00   0.00    -0.00   0.00   0.00    -0.00  -0.00  -0.00
   4   1     0.00  -0.00  -0.00     0.00  -0.00   0.00    -0.00   0.00  -0.00
   5   6     0.00  -0.00  -0.00     0.00  -0.00  -0.00     0.00   0.00  -0.00
   6   1    -0.00   0.00  -0.00    -0.00   0.00   0.00    -0.00  -0.00   0.00
   7   1    -0.00   0.00   0.00     0.00   0.00   0.00    -0.00   0.00  -0.00
   8   7     0.00  -0.00  -0.00    -0.00  -0.00  -0.00     0.00   0.00   0.00
   9   6    -0.00   0.00   0.00    -0.00  -0.00  -0.00    -0.00   0.00   0.00
  10   1    -0.00   0.00   0.00    -0.00   0.00   0.00    -0.00  -0.00   0.00
  11   1     0.00  -0.00  -0.00     0.00  -0.00   0.00    -0.00   0.00   0.00
  12   1     0.00   0.00   0.00    -0.00  -0.00   0.00     0.00   0.00  -0.00
  13   6    -0.00   0.00   0.00     0.00  -0.00   0.00     0.00   0.00   0.00
  14   1    -0.00   0.00   0.00    -0.00  -0.00   0.00    -0.00  -0.00  -0.00
  15   1    -0.00   0.00   0.00    -0.00  -0.00  -0.00    -0.00   0.00  -0.00
  16   1     0.00  -0.00  -0.00    -0.00  -0.00  -0.00    -0.00  -0.00  -0.00
  17   6    -0.00   0.00   0.00    -0.00   0.00   0.00    -0.00   0.00   0.00
  18   1    -0.00   0.00   0.00    -0.00   0.00   0.00    -0.00   0.00  -0.00
  19   1    -0.00   0.00  -0.00     0.00   0.00   0.00     0.00  -0.00  -0.00
  20   1     0.00  -0.00  -0.00     0.00  -0.00  -0.00     0.00  -0.00  -0.00
  21   1     0.00  -0.00  -0.00     0.00   0.00   0.00    -0.00  -0.00  -0.00
  22   6     0.00  -0.00  -0.00    -0.00  -0.00   0.00     0.00   0.00  -0.00
  23   8    -0.00   0.00   0.00     0.00   0.00  -0.00    -0.00  -0.00   0.00
  24   7     0.00  -0.00   0.00     0.00   0.00  -0.00    -0.00  -0.00   0.00
  25   1    -0.00   0.00  -0.00     0.00  -0.00   0.00    -0.00   0.00  -0.00
  26   1    -0.00  -0.00   0.00    -0.00  -0.00   0.00     0.00   0.00  -0.00
  27   7    -0.00   0.00  -0.00    -0.01  -0.00   0.01     0.01   0.00  -0.01
  28   1    -0.00  -0.00   0.00     0.02   0.01  -0.02    -0.02  -0.01   0.02
  29   1     0.00  -0.00  -0.00     0.00  -0.00   0.00    -0.01   0.00  -0.00
  30   6     0.00   0.00  -0.00     0.00  -0.00   0.00    -0.00  -0.00   0.00
  31   8    -0.00  -0.00   0.00     0.00   0.00  -0.00     0.00   0.00  -0.00
  32   7    -0.00  -0.00   0.00     0.00   0.00  -0.00    -0.00  -0.00   0.00
  33   1    -0.00   0.00  -0.00    -0.00   0.00  -0.00    -0.00   0.00  -0.00
  34   1     0.00   0.00  -0.00    -0.01  -0.00   0.01     0.01   0.00  -0.01
  35   7    -0.00   0.00  -0.00     0.00   0.00  -0.00     0.00   0.00  -0.00
  36   1    -0.01  -0.01   0.02    -0.00  -0.00   0.01    -0.01  -0.00   0.01
  37   1     0.02  -0.01  -0.00     0.00  -0.00  -0.00    -0.00   0.00   0.00
  38   6     0.00  -0.00  -0.00    -0.00   0.00  -0.00     0.00  -0.01   0.00
  39   8    -0.00   0.00   0.00     0.00  -0.00   0.00    -0.00   0.00  -0.00
  40   7    -0.00   0.00   0.00    -0.03   0.01   0.09     0.04  -0.02  -0.15
  41   1     0.00  -0.00  -0.00     0.02  -0.02   0.00    -0.03   0.03  -0.00
  42   1     0.00  -0.00  -0.00     0.09  -0.03  -0.36    -0.13   0.05   0.56
  43   7     0.00  -0.00  -0.00     0.03   0.00  -0.10    -0.05  -0.01   0.14
  44   1    -0.00   0.00   0.00    -0.14  -0.00   0.36     0.20   0.00  -0.52
  45   1    -0.00   0.00  -0.00     0.02  -0.02   0.01    -0.03   0.03  -0.03
  46   6     0.00  -0.00   0.00    -0.01   0.00   0.00    -0.00   0.00   0.00
  47   8    -0.00   0.00   0.00     0.00  -0.00  -0.00     0.00  -0.00  -0.00
  48   7    -0.01   0.00   0.01    -0.13   0.15   0.10    -0.09   0.10   0.07
  49   1     0.02   0.00  -0.01     0.11   0.04  -0.05     0.08   0.03  -0.03
  50   1     0.02  -0.03  -0.02     0.39  -0.60  -0.33     0.26  -0.40  -0.22
  51   7     0.17   0.01  -0.06    -0.00  -0.02   0.00    -0.00  -0.02   0.00
  52   1    -0.43   0.57   0.16    -0.01   0.01   0.00    -0.01   0.01   0.00
  53   1    -0.22  -0.61   0.07     0.03   0.07  -0.01     0.02   0.05  -0.01
                    148                    149                    150
                        a                      a                      a 
 Frequencies --  3534.8987              3537.5473              3541.2057
 Red. masses --     1.9550                 1.8825                 1.9137
 Frc consts  --     0.0000                 0.0000                 0.0000
 IR Inten    --    21.5287                29.3853                18.9282
 Raman Activ --     0.0000                 0.0000                 0.0000
 Depolar     --     0.0000                 0.0000                 0.0000
 Atom AN      X      Y      Z        X      Y      Z        X      Y      Z
   1   8    -0.00  -0.00  -0.00    -0.00  -0.00  -0.00     0.00   0.00   0.00
   2   6     0.00  -0.00  -0.00     0.00   0.00   0.00    -0.00  -0.00   0.00
   3   1     0.00  -0.00   0.00    -0.00  -0.00  -0.00     0.00   0.00  -0.00
   4   1    -0.00  -0.00   0.00    -0.00   0.00  -0.00     0.00  -0.00  -0.00
   5   6    -0.00   0.00   0.00    -0.00   0.00  -0.00    -0.00  -0.00   0.00
   6   1    -0.00  -0.00   0.00    -0.00  -0.00   0.00     0.00   0.00  -0.00
   7   1     0.00  -0.00   0.00    -0.00   0.00   0.00     0.00  -0.00  -0.00
   8   7    -0.00  -0.00  -0.00     0.00   0.00   0.00    -0.00  -0.00  -0.00
   9   6    -0.00   0.00  -0.00     0.00   0.00   0.00     0.00   0.00   0.00
  10   1    -0.00  -0.00   0.00    -0.00  -0.00   0.00     0.00  -0.00  -0.00
  11   1     0.00   0.00  -0.00    -0.00   0.00   0.00    -0.00   0.00  -0.00
  12   1    -0.00   0.00   0.00     0.00  -0.00  -0.00    -0.00  -0.00  -0.00
  13   6     0.00   0.00  -0.00     0.00  -0.00  -0.00     0.00  -0.00  -0.00
  14   1    -0.00  -0.00   0.00    -0.00  -0.00   0.00     0.00  -0.00  -0.00
  15   1     0.00   0.00   0.00     0.00   0.00   0.00     0.00   0.00   0.00
  16   1     0.00  -0.00  -0.00    -0.00   0.00   0.00    -0.00   0.00   0.00
  17   6    -0.00  -0.00  -0.00    -0.00  -0.00  -0.00     0.00   0.00   0.00
  18   1    -0.00  -0.00  -0.00    -0.00  -0.00   0.00    -0.00  -0.00   0.00
  19   1     0.00   0.00   0.00     0.00   0.00   0.00    -0.00  -0.00  -0.00
  20   1     0.00  -0.00  -0.00     0.00  -0.00  -0.00     0.00   0.00  -0.00
  21   1     0.00   0.01   0.01     0.00   0.00   0.00    -0.00  -0.00  -0.00
  22   6     0.01  -0.00  -0.00     0.00   0.00  -0.00    -0.00   0.00   0.00
  23   8    -0.00   0.00   0.00    -0.00  -0.00   0.00    -0.00   0.00  -0.00
  24   7    -0.01  -0.03   0.02    -0.00  -0.00   0.00     0.00   0.00  -0.00
  25   1    -0.01   0.08  -0.04    -0.00   0.00  -0.00     0.00  -0.00   0.00
  26   1     0.04   0.02  -0.02     0.01   0.00  -0.00    -0.00  -0.00   0.00
  27   7     0.21   0.05  -0.16    -0.00  -0.00   0.00    -0.01  -0.00   0.01
  28   1    -0.66  -0.26   0.62     0.00   0.00  -0.00     0.03   0.01  -0.03
  29   1    -0.13   0.09  -0.01    -0.00   0.00   0.00     0.01  -0.01   0.00
  30   6     0.00  -0.00   0.00     0.00   0.00  -0.00     0.00  -0.01   0.01
  31   8    -0.00   0.00  -0.00    -0.00  -0.00   0.00     0.00   0.00  -0.00
  32   7    -0.01  -0.00   0.01     0.00   0.00  -0.00    -0.12  -0.08   0.22
  33   1     0.00  -0.00   0.00     0.00  -0.00   0.00    -0.05   0.06  -0.05
  34   1     0.02   0.01  -0.03    -0.00  -0.00   0.01     0.48   0.25  -0.78
  35   7     0.00  -0.00  -0.00    -0.00  -0.00   0.00     0.03  -0.01  -0.02
  36   1    -0.00  -0.00   0.00     0.01   0.00  -0.01    -0.03  -0.02   0.04
  37   1    -0.00   0.00   0.00     0.00  -0.00  -0.00    -0.10   0.05   0.02
  38   6     0.00   0.00  -0.00     0.00  -0.00  -0.01    -0.00   0.00   0.00
  39   8    -0.00  -0.00   0.00    -0.00   0.00   0.00     0.00   0.00  -0.00
  40   7    -0.00  -0.00   0.01     0.05  -0.02  -0.17    -0.00   0.00   0.00
  41   1    -0.00   0.00   0.00    -0.03   0.03  -0.00     0.00  -0.00  -0.00
  42   1     0.01  -0.00  -0.03    -0.16   0.05   0.66     0.00  -0.00  -0.01
  43   7     0.00   0.00  -0.01     0.06   0.01  -0.18     0.00  -0.00  -0.01
  44   1    -0.01   0.00   0.03    -0.25  -0.00   0.64    -0.01  -0.00   0.02
  45   1     0.00  -0.00   0.00     0.03  -0.03   0.03     0.00   0.00  -0.00
  46   6     0.00   0.00   0.00    -0.00  -0.00   0.00    -0.00   0.00   0.00
  47   8    -0.00  -0.00  -0.00     0.00   0.00  -0.00     0.00  -0.00  -0.00
  48   7    -0.00   0.00   0.00     0.00  -0.00  -0.00    -0.00   0.00   0.00
  49   1     0.00   0.00  -0.00    -0.01  -0.00   0.00     0.00   0.00  -0.00
  50   1     0.00  -0.01  -0.00    -0.01   0.02   0.01     0.00  -0.00  -0.00
  51   7    -0.00  -0.00   0.00     0.00   0.00  -0.00    -0.00  -0.00   0.00
  52   1     0.00  -0.00  -0.00     0.00  -0.00  -0.00    -0.00   0.00   0.00
  53   1     0.00   0.00  -0.00    -0.00  -0.00   0.00     0.00   0.00  -0.00
                    151                    152                    153
                        a                      a                      a 
 Frequencies --  3560.6461              3560.6942              3562.8430
 Red. masses --     2.1761                 2.1793                 2.1766
 Frc consts  --     0.0000                 0.0000                 0.0000
 IR Inten    --    10.2757                22.8079                10.0190
 Raman Activ --     0.0000                 0.0000                 0.0000
 Depolar     --     0.0000                 0.0000                 0.0000
 Atom AN      X      Y      Z        X      Y      Z        X      Y      Z
   1   8     0.00   0.00   0.00     0.00   0.00   0.00    -0.00  -0.00  -0.00
   2   6    -0.00  -0.00  -0.00    -0.00  -0.00  -0.00     0.00   0.00  -0.00
   3   1    -0.00   0.00   0.00    -0.00   0.00   0.00    -0.00   0.00   0.00
   4   1     0.00  -0.00   0.00     0.00  -0.00   0.00     0.00  -0.00   0.00
   5   6     0.00  -0.00  -0.00    -0.00  -0.00  -0.00     0.00  -0.00  -0.00
   6   1     0.00   0.00   0.00     0.00   0.00  -0.00    -0.00   0.00   0.00
   7   1    -0.00   0.00  -0.00    -0.00   0.00  -0.00    -0.00   0.00   0.00
   8   7    -0.00   0.00   0.00     0.00  -0.00  -0.00     0.00  -0.00  -0.00
   9   6    -0.00  -0.00   0.00    -0.00   0.00   0.00    -0.00   0.00   0.00
  10   1     0.00   0.00  -0.00     0.00   0.00  -0.00    -0.00  -0.00   0.00
  11   1    -0.00  -0.00   0.00    -0.00   0.00  -0.00     0.00  -0.00  -0.00
  12   1     0.00  -0.00   0.00     0.00  -0.00   0.00    -0.00   0.00   0.00
  13   6    -0.00  -0.00   0.00    -0.00   0.00   0.00    -0.00   0.00   0.00
  14   1    -0.00   0.00  -0.00     0.00  -0.00  -0.00    -0.00   0.00   0.00
  15   1    -0.00  -0.00  -0.00    -0.00   0.00  -0.00    -0.00   0.00   0.00
  16   1    -0.00  -0.00   0.00     0.00   0.00  -0.00     0.00  -0.00  -0.00
  17   6    -0.00  -0.00  -0.00     0.00   0.00   0.00    -0.00   0.00   0.00
  18   1     0.00   0.00  -0.00    -0.00  -0.00  -0.00    -0.00   0.00   0.00
  19   1     0.00   0.00  -0.00    -0.00  -0.00  -0.00     0.00   0.00   0.00
  20   1    -0.00  -0.00   0.00     0.00   0.00  -0.00     0.00  -0.00  -0.00
  21   1    -0.00  -0.00  -0.00    -0.00  -0.00  -0.00     0.00   0.00   0.00
  22   6    -0.00  -0.00   0.00    -0.00  -0.01   0.01     0.00   0.00  -0.00
  23   8     0.00   0.00  -0.00     0.00   0.00  -0.00    -0.00  -0.00   0.00
  24   7    -0.06  -0.10   0.07    -0.11  -0.19   0.14     0.00   0.00  -0.00
  25   1    -0.03   0.28  -0.15    -0.05   0.53  -0.28     0.00  -0.00   0.00
  26   1     0.26   0.11  -0.13     0.48   0.21  -0.25    -0.00  -0.00   0.00
  27   7    -0.01  -0.00   0.01    -0.02  -0.00   0.01     0.00   0.00  -0.00
  28   1     0.03   0.01  -0.03     0.06   0.03  -0.06    -0.00  -0.00   0.00
  29   1     0.01  -0.00   0.00     0.01  -0.01   0.00     0.00   0.00  -0.00
  30   6     0.01  -0.00  -0.01    -0.00   0.00   0.00    -0.00  -0.00   0.00
  31   8    -0.00  -0.00   0.00     0.00   0.00  -0.00     0.00   0.00  -0.00
  32   7     0.01   0.01  -0.02    -0.01  -0.01   0.01    -0.00  -0.00   0.00
  33   1     0.01  -0.01   0.01    -0.00   0.00  -0.00    -0.00   0.00  -0.00
  34   1    -0.06  -0.03   0.09     0.03   0.02  -0.05     0.00   0.00  -0.00
  35   7     0.22  -0.02  -0.15    -0.12   0.01   0.08    -0.01   0.00   0.01
  36   1    -0.30  -0.22   0.43     0.16   0.12  -0.23     0.01   0.01  -0.02
  37   1    -0.53   0.28   0.13     0.28  -0.15  -0.07     0.02  -0.01  -0.00
  38   6     0.00  -0.00  -0.00    -0.00  -0.00   0.00     0.00   0.00   0.00
  39   8    -0.00  -0.00   0.00     0.00   0.00  -0.00    -0.00  -0.00  -0.00
  40   7    -0.00   0.00   0.00    -0.00   0.00   0.00     0.00  -0.00  -0.00
  41   1     0.00  -0.00  -0.00     0.00  -0.00  -0.00     0.00  -0.00  -0.00
  42   1     0.00  -0.00  -0.00     0.00  -0.00  -0.01    -0.00   0.00   0.00
  43   7    -0.00   0.00  -0.00     0.00  -0.00   0.00     0.00  -0.00   0.00
  44   1    -0.00   0.00   0.01     0.00  -0.00  -0.01     0.00   0.00  -0.00
  45   1     0.00  -0.00   0.00    -0.00   0.00  -0.00    -0.00   0.00  -0.00
  46   6    -0.00   0.00  -0.00     0.00  -0.00   0.00    -0.00   0.01   0.00
  47   8     0.00  -0.00  -0.00    -0.00   0.00   0.00     0.00  -0.00   0.00
  48   7     0.00  -0.00  -0.00    -0.00   0.00   0.00    -0.01   0.01   0.01
  49   1    -0.01  -0.00   0.00     0.00   0.00  -0.00     0.01   0.00  -0.01
  50   1    -0.00   0.00   0.00     0.00  -0.00  -0.00     0.04  -0.06  -0.03
  51   7    -0.00   0.01   0.00     0.00  -0.00  -0.00    -0.03   0.30   0.01
  52   1     0.01  -0.02  -0.00    -0.00   0.00   0.00     0.39  -0.48  -0.14
  53   1    -0.01  -0.02   0.00     0.00   0.01  -0.00    -0.26  -0.65   0.09
