 Entering Gaussian System
 *********************************************
 Gaussian 98:
 frequency output generated by the xtb code
 *********************************************
                         Standard orientation:
 --------------------------------------------------------------------
  Center     Atomic     Atomic              Coordinates (Angstroms)
  Number     Number      Type              X           Y           Z
 --------------------------------------------------------------------
    1          8             0       -3.469317   -1.593022   -2.005118
    2          6             0       -2.963148   -0.318783   -1.657930
    3          1             0       -2.894847    0.312712   -2.553801
    4          1             0       -3.623996    0.179636   -0.941078
    5          6             0       -1.600032   -0.427805   -0.969278
    6          1             0       -1.748107   -0.853155    0.026216
    7          1             0       -1.198594    0.583959   -0.893139
    8          7             0       -0.581874   -1.254480   -1.674175
    9          6             0       -0.825981   -2.683024   -1.418920
   10          1             0       -0.715569   -2.886243   -0.354899
   11          1             0       -0.111764   -3.286881   -1.975412
   12          1             0       -1.837811   -2.937664   -1.725371
   13          6             0        0.745971   -0.888615   -1.150981
   14          1             0        0.758703   -0.976361   -0.065910
   15          1             0        0.955725    0.147191   -1.420114
   16          1             0        1.505667   -1.539499   -1.577050
   17          6             0       -0.600221   -0.983747   -3.119379
   18          1             0       -0.480575    0.088752   -3.269397
   19          1             0       -1.536348   -1.327568   -3.551652
   20          1             0        0.223703   -1.506339   -3.601237
   21          1             0       -4.427327   -1.553110   -2.072236
   22          6             0        3.762324    0.967481    0.849119
   23          8             0        2.989478    1.882969    0.557965
   24          7             0        3.332820   -0.170831    1.416223
   25          1             0        2.342652   -0.257523    1.656764
   26          1             0        3.975039   -0.877772    1.722747
   27          7             0        5.083975    1.051265    0.560656
   28          1             0        5.744027    0.373132    0.894706
   29          1             0        5.438945    1.923897    0.212083
   30          6             0        0.580939    3.059879   -2.159119
   31          8             0        0.085571    1.938158   -2.102973
   32          7             0        0.005301    4.048847   -2.896691
   33          1             0       -0.750038    3.802775   -3.511321
   34          1             0        0.481718    4.914865   -3.072406
   35          7             0        1.705216    3.398438   -1.501929
   36          1             0        2.031721    4.347656   -1.500528
   37          1             0        2.125202    2.763668   -0.832240
   38          6             0       -2.000401   -2.729755    2.229627
   39          8             0       -2.564817   -1.723989    1.806617
   40          7             0       -2.696435   -3.819698    2.623679
   41          1             0       -3.699581   -3.780626    2.599483
   42          1             0       -2.254751   -4.639997    2.995724
   43          7             0       -0.647131   -2.831359    2.240590
   44          1             0       -0.212363   -3.557660    2.783238
   45          1             0       -0.133279   -1.947095    2.163590
   46          6             0       -0.049319    0.732522    2.056975
   47          8             0        0.567710   -0.332969    1.867392
   48          7             0        0.564225    1.917937    1.935527
   49          1             0        1.493467    1.955716    1.511160
   50          1             0        0.050334    2.773973    2.036088
   51          7             0       -1.344920    0.724971    2.413552
   52          1             0       -1.854238    1.582576    2.522937
   53          1             0       -1.871518   -0.144955    2.344667
 --------------------------------------------------------------------
     1 basis functions        1 primitive gaussians
     1 alpha electrons        1 beta electrons

 Harmonic frequencies (cm**-1), IR intensities (km*mol⁻¹),
 Raman scattering activities (A**4/amu), Raman depolarization ratios,
 reduced masses (AMU), force constants (mDyne/A) and normal coordinates:
                      1                      2                      3
                        a                      a                      a 
 Frequencies --    14.3388                18.3479                25.6385
 Red. masses --    12.4251                12.2840                12.2136
 Frc consts  --     0.0000                 0.0000                 0.0000
 IR Inten    --     0.2601                 1.6305                 0.4677
 Raman Activ --     0.0000                 0.0000                 0.0000
 Depolar     --     0.0000                 0.0000                 0.0000
 Atom AN      X      Y      Z        X      Y      Z        X      Y      Z
   1   8     0.18  -0.30   0.09     0.08  -0.04   0.28    -0.12  -0.09   0.33
   2   6     0.06  -0.20   0.01     0.04  -0.01   0.18    -0.07  -0.06   0.19
   3   1    -0.00  -0.07  -0.00    -0.01  -0.01   0.05    -0.05  -0.03   0.05
   4   1     0.01  -0.07   0.00     0.02  -0.00   0.06     0.00  -0.01   0.07
   5   6     0.08  -0.05  -0.01     0.08   0.06   0.10     0.01  -0.04   0.04
   6   1     0.04  -0.01   0.00     0.04   0.02   0.03     0.03  -0.01   0.02
   7   1    -0.00  -0.00  -0.02     0.01   0.02   0.02     0.00  -0.01  -0.00
   8   7     0.15   0.01   0.01     0.09   0.10   0.07    -0.06  -0.03  -0.06
   9   6     0.26  -0.01   0.04     0.15   0.08   0.10    -0.02  -0.04  -0.05
  10   1     0.08   0.01   0.01     0.06   0.03   0.03     0.02  -0.01  -0.02
  11   1     0.09   0.01   0.02     0.04   0.03   0.02    -0.02  -0.01  -0.03
  12   1     0.08  -0.03   0.01     0.04   0.01   0.04    -0.01  -0.01   0.01
  13   6     0.12   0.12  -0.01     0.09   0.15   0.00    -0.01  -0.03  -0.17
  14   1     0.04   0.04  -0.00     0.04   0.05   0.00     0.02  -0.01  -0.05
  15   1     0.01   0.04  -0.01     0.01   0.04  -0.01    -0.01  -0.01  -0.05
  16   1     0.05   0.05  -0.00     0.03   0.05  -0.00    -0.01  -0.01  -0.07
  17   6     0.11  -0.02   0.00     0.00   0.07   0.07    -0.19  -0.02  -0.05
  18   1     0.01  -0.01  -0.01    -0.01   0.02   0.01    -0.06  -0.00  -0.02
  19   1     0.04  -0.03   0.00    -0.00   0.01   0.03    -0.06  -0.00   0.01
  20   1     0.04   0.01   0.00    -0.00   0.03   0.01    -0.07  -0.00  -0.04
  21   1     0.04  -0.10   0.03     0.02  -0.02   0.09    -0.03  -0.03   0.13
  22   6     0.01  -0.14  -0.08    -0.11  -0.01  -0.04     0.11   0.06   0.16
  23   8     0.03  -0.18  -0.17    -0.18  -0.05  -0.06     0.14   0.02   0.01
  24   7    -0.00  -0.09   0.04    -0.05   0.02   0.05     0.05   0.03   0.07
  25   1    -0.00  -0.01   0.01    -0.01  -0.00   0.02     0.00   0.00  -0.02
  26   1    -0.00  -0.02   0.03    -0.01   0.01   0.01     0.01   0.02   0.07
  27   7     0.01  -0.21  -0.12    -0.14   0.02  -0.12     0.17   0.14   0.48
  28   1     0.00  -0.05  -0.02    -0.03   0.02  -0.03     0.04   0.04   0.15
  29   1     0.01  -0.07  -0.05    -0.05   0.00  -0.05     0.05   0.04   0.13
  30   6    -0.13   0.09   0.10     0.08   0.04  -0.19    -0.01  -0.03  -0.01
  31   8    -0.12   0.08   0.03    -0.01   0.09  -0.13    -0.05  -0.02  -0.02
  32   7    -0.23   0.17   0.27     0.20   0.02  -0.32     0.00   0.00   0.03
  33   1    -0.07   0.06   0.08     0.05   0.01  -0.08    -0.01   0.01   0.01
  34   1    -0.07   0.05   0.08     0.07  -0.01  -0.10     0.01  -0.00   0.01
  35   7    -0.09   0.04   0.05     0.10  -0.01  -0.20     0.02  -0.08  -0.03
  36   1    -0.03   0.01   0.03     0.04  -0.01  -0.07     0.02  -0.02  -0.01
  37   1    -0.01  -0.01  -0.02     0.00   0.00  -0.03     0.01  -0.03  -0.01
  38   6    -0.13   0.12  -0.03    -0.06  -0.06  -0.08    -0.02   0.02  -0.08
  39   8    -0.12   0.18   0.04    -0.09   0.00   0.11    -0.08   0.07   0.10
  40   7    -0.17   0.14  -0.03    -0.05  -0.11  -0.19     0.03  -0.00  -0.07
  41   1    -0.04   0.05  -0.00    -0.01  -0.03  -0.03     0.01   0.00   0.02
  42   1    -0.05   0.03  -0.03    -0.01  -0.05  -0.10     0.02  -0.01  -0.06
  43   7    -0.14   0.06  -0.09    -0.06  -0.09  -0.22    -0.02   0.01  -0.32
  44   1    -0.04   0.01  -0.03    -0.01  -0.04  -0.09     0.01  -0.01  -0.11
  45   1    -0.03   0.01  -0.02    -0.02  -0.02  -0.03    -0.01   0.00  -0.07
  46   6     0.02   0.05  -0.04    -0.04  -0.06   0.14     0.02   0.02  -0.14
  47   8    -0.02   0.02   0.00    -0.06  -0.06   0.06    -0.00   0.02  -0.19
  48   7     0.07   0.02  -0.07    -0.06  -0.06   0.14     0.04   0.02  -0.16
  49   1     0.02  -0.01  -0.03    -0.03  -0.01   0.02     0.01   0.00  -0.04
  50   1     0.03   0.01  -0.03    -0.01  -0.02   0.06     0.02   0.01  -0.03
  51   7     0.02   0.11  -0.04    -0.02  -0.08   0.26     0.04   0.05  -0.10
  52   1     0.01   0.04  -0.02    -0.00  -0.02   0.09     0.02   0.02  -0.01
  53   1    -0.01   0.04  -0.00    -0.01  -0.02   0.06     0.01   0.01  -0.01
                      4                      5                      6
                        a                      a                      a 
 Frequencies --    29.2811                39.3598                40.6789
 Red. masses --    12.3436                12.2139                12.0366
 Frc consts  --     0.0000                 0.0000                 0.0000
 IR Inten    --     0.8873                 0.4710                 0.2619
 Raman Activ --     0.0000                 0.0000                 0.0000
 Depolar     --     0.0000                 0.0000                 0.0000
 Atom AN      X      Y      Z        X      Y      Z        X      Y      Z
   1   8    -0.01   0.03   0.09     0.09   0.20   0.19     0.00   0.31   0.02
   2   6     0.07   0.02  -0.00     0.17   0.12   0.20     0.13   0.21   0.03
   3   1     0.03  -0.01  -0.01     0.04   0.05   0.06     0.07   0.06   0.01
   4   1     0.03   0.03  -0.01     0.07   0.03   0.08     0.05   0.08   0.00
   5   6     0.08  -0.02  -0.02     0.22   0.01   0.08     0.09   0.06   0.08
   6   1     0.02   0.01  -0.00     0.08  -0.01   0.02     0.00   0.02   0.02
   7   1     0.04  -0.01  -0.02     0.08  -0.00   0.03     0.06   0.01   0.03
   8   7     0.03  -0.12   0.00     0.13  -0.00  -0.04     0.03  -0.05   0.12
   9   6    -0.05  -0.08   0.06     0.07  -0.00  -0.08    -0.11  -0.02   0.14
  10   1    -0.01  -0.01   0.02     0.04  -0.01  -0.03    -0.03  -0.00   0.04
  11   1    -0.03  -0.04   0.02     0.00  -0.00  -0.04    -0.05  -0.03   0.04
  12   1    -0.02  -0.01   0.03     0.01   0.02  -0.00    -0.04   0.02   0.05
  13   6     0.05  -0.16  -0.02     0.18  -0.08  -0.13     0.05  -0.15   0.11
  14   1     0.01  -0.02  -0.01     0.07  -0.03  -0.04     0.01  -0.03   0.03
  15   1     0.03  -0.05  -0.02     0.06  -0.03  -0.04     0.04  -0.05   0.02
  16   1     0.00  -0.07   0.01     0.03  -0.03  -0.06    -0.00  -0.07   0.04
  17   6     0.03  -0.17  -0.01     0.01   0.06  -0.03     0.07  -0.08   0.10
  18   1     0.02  -0.05  -0.02     0.01   0.02   0.00     0.04  -0.03   0.02
  19   1     0.00  -0.04   0.00    -0.01   0.03   0.01     0.01  -0.01   0.03
  20   1    -0.00  -0.07   0.00    -0.02   0.01  -0.03     0.01  -0.05   0.04
  21   1    -0.00   0.02   0.03     0.02   0.06   0.09     0.00   0.11  -0.01
  22   6     0.02   0.09  -0.05    -0.08  -0.02  -0.05    -0.01  -0.01   0.00
  23   8     0.05   0.20   0.18    -0.05   0.05   0.04    -0.03  -0.09  -0.18
  24   7    -0.00   0.00  -0.26    -0.13  -0.03  -0.11     0.03   0.11   0.27
  25   1     0.00   0.00  -0.05    -0.04  -0.00  -0.03     0.01   0.03   0.06
  26   1    -0.00  -0.02  -0.11    -0.04  -0.02  -0.05     0.01   0.04   0.09
  27   7     0.00   0.09  -0.12    -0.09  -0.07  -0.09    -0.02  -0.06  -0.06
  28   1    -0.00  -0.00  -0.08    -0.03  -0.03  -0.04     0.00   0.01   0.03
  29   1     0.01   0.04   0.00    -0.02  -0.02  -0.01    -0.01  -0.03  -0.06
  30   6    -0.02  -0.08   0.04     0.06   0.03   0.04    -0.06  -0.08   0.01
  31   8     0.20  -0.19  -0.11     0.20  -0.02  -0.02     0.07  -0.15  -0.01
  32   7    -0.07  -0.16  -0.03    -0.01  -0.00   0.04    -0.28  -0.08   0.17
  33   1     0.03  -0.08  -0.05     0.02  -0.02  -0.01    -0.08  -0.04   0.06
  34   1    -0.06  -0.02   0.03    -0.02   0.01   0.02    -0.10  -0.01   0.03
  35   7    -0.24   0.12   0.30    -0.02   0.15   0.12    -0.01  -0.02  -0.12
  36   1    -0.10   0.04   0.09    -0.03   0.05   0.04    -0.04   0.01  -0.02
  37   1    -0.05   0.04   0.07     0.01   0.04   0.03     0.02  -0.00  -0.05
  38   6    -0.09   0.09  -0.10    -0.03  -0.06   0.12     0.03  -0.03  -0.11
  39   8    -0.09   0.16   0.01    -0.08  -0.13   0.04     0.02   0.02   0.04
  40   7    -0.10   0.08  -0.16     0.00  -0.00   0.36     0.06  -0.14  -0.36
  41   1    -0.03   0.03  -0.02     0.00  -0.02   0.09     0.01  -0.03  -0.08
  42   1    -0.03   0.01  -0.07     0.01  -0.00   0.08     0.02  -0.04  -0.10
  43   7    -0.09   0.04  -0.21    -0.03  -0.05   0.04     0.04   0.01  -0.09
  44   1    -0.02  -0.00  -0.07     0.00   0.01   0.03     0.01  -0.02  -0.05
  45   1    -0.02   0.01  -0.04    -0.02  -0.01  -0.02     0.00   0.01   0.01
  46   6     0.06   0.02   0.10    -0.14  -0.03  -0.16    -0.02   0.04  -0.03
  47   8     0.02   0.02  -0.06    -0.14  -0.03  -0.18     0.01   0.05   0.10
  48   7     0.11   0.02   0.27    -0.18  -0.03  -0.21    -0.07   0.05  -0.24
  49   1     0.03   0.01   0.07    -0.04  -0.00  -0.04    -0.02   0.00  -0.06
  50   1     0.04   0.01   0.11    -0.05  -0.01  -0.05    -0.02   0.01  -0.09
  51   7     0.07   0.03   0.12    -0.15  -0.06  -0.17    -0.01   0.05   0.02
  52   1     0.03   0.01   0.07    -0.04  -0.02  -0.04    -0.01   0.01  -0.03
  53   1     0.01   0.02   0.01    -0.04  -0.02  -0.03     0.00   0.01   0.03
                      7                      8                      9
                        a                      a                      a 
 Frequencies --    42.6706                47.8131                53.9914
 Red. masses --    12.8496                12.6781                12.5978
 Frc consts  --     0.0000                 0.0000                 0.0000
 IR Inten    --     6.1114                 0.3140                 0.1031
 Raman Activ --     0.0000                 0.0000                 0.0000
 Depolar     --     0.0000                 0.0000                 0.0000
 Atom AN      X      Y      Z        X      Y      Z        X      Y      Z
   1   8    -0.06  -0.17   0.11     0.06   0.03  -0.09     0.03   0.07  -0.22
   2   6    -0.08  -0.13   0.06     0.05  -0.00   0.03     0.02   0.04  -0.08
   3   1    -0.04  -0.04   0.02     0.02   0.02   0.02     0.02   0.03  -0.01
   4   1    -0.02  -0.04   0.02     0.01  -0.02   0.02     0.00  -0.00  -0.02
   5   6    -0.07  -0.08   0.04     0.05  -0.06   0.03     0.00  -0.02  -0.05
   6   1    -0.01  -0.03   0.01     0.01  -0.03   0.00    -0.01  -0.01  -0.02
   7   1    -0.03  -0.02   0.01     0.02  -0.02   0.03     0.01  -0.01  -0.00
   8   7    -0.04  -0.04   0.03     0.04  -0.05  -0.00    -0.01  -0.03  -0.06
   9   6    -0.02  -0.05  -0.04     0.01  -0.05  -0.07    -0.02  -0.03  -0.06
  10   1    -0.01  -0.03  -0.01    -0.00  -0.03  -0.02    -0.00  -0.01  -0.02
  11   1     0.00  -0.00  -0.01     0.00  -0.01  -0.03    -0.01  -0.01  -0.02
  12   1    -0.00  -0.02  -0.02     0.00  -0.01  -0.03    -0.01  -0.00  -0.02
  13   6    -0.06  -0.04   0.07     0.04  -0.09   0.02     0.00  -0.04  -0.07
  14   1    -0.02  -0.02   0.02     0.01  -0.04   0.01    -0.00  -0.00  -0.02
  15   1    -0.02  -0.01   0.04     0.02  -0.02   0.02     0.00  -0.01  -0.03
  16   1    -0.01  -0.00   0.02     0.01  -0.02  -0.00    -0.00  -0.02  -0.01
  17   6    -0.02   0.03   0.04     0.05   0.03   0.01    -0.01  -0.03  -0.06
  18   1    -0.01   0.01   0.03     0.02   0.01   0.02    -0.00  -0.01  -0.02
  19   1    -0.00   0.01   0.00     0.01   0.02  -0.00    -0.00  -0.01  -0.02
  20   1    -0.00   0.02   0.01     0.01   0.01  -0.00    -0.00  -0.01  -0.02
  21   1    -0.02  -0.05   0.04     0.01   0.01  -0.02     0.01   0.03  -0.08
  22   6    -0.04   0.01  -0.04    -0.01   0.15  -0.08    -0.05   0.00   0.07
  23   8     0.04   0.16   0.20    -0.04   0.17  -0.02    -0.08  -0.03   0.04
  24   7    -0.11   0.01  -0.09     0.00   0.05  -0.29     0.01   0.12   0.34
  25   1    -0.03   0.03  -0.00     0.01   0.01  -0.06    -0.00   0.02   0.06
  26   1    -0.05  -0.04  -0.08     0.01   0.03  -0.06     0.00   0.01   0.05
  27   7    -0.08  -0.16  -0.28     0.01   0.28   0.04    -0.09  -0.07  -0.13
  28   1    -0.03  -0.07  -0.10     0.01   0.06  -0.02    -0.01   0.01   0.00
  29   1    -0.00  -0.04  -0.05    -0.01   0.09   0.03    -0.03  -0.02  -0.05
  30   6     0.14  -0.03   0.14     0.05  -0.05   0.05    -0.01  -0.05  -0.01
  31   8     0.07   0.01   0.31     0.01  -0.02   0.24    -0.02  -0.05  -0.06
  32   7     0.16  -0.06   0.10    -0.15  -0.02   0.25    -0.06   0.02   0.12
  33   1     0.02  -0.01   0.05    -0.09   0.00   0.13    -0.03   0.02   0.04
  34   1     0.06  -0.03  -0.00    -0.03  -0.02   0.01    -0.01   0.00   0.03
  35   7     0.25  -0.07  -0.01     0.35  -0.13  -0.40     0.08  -0.13  -0.11
  36   1     0.07  -0.02  -0.02     0.07  -0.03  -0.10     0.01  -0.03  -0.00
  37   1     0.05  -0.00   0.03     0.09  -0.01  -0.08     0.01  -0.04  -0.02
  38   6     0.07   0.00  -0.08    -0.14   0.02   0.02     0.04   0.02   0.02
  39   8    -0.01  -0.00   0.04    -0.12   0.04  -0.00    -0.05   0.02   0.16
  40   7     0.18  -0.11  -0.21    -0.19   0.06   0.04     0.14   0.11   0.40
  41   1     0.05  -0.04  -0.03    -0.05   0.03   0.01     0.04   0.02   0.16
  42   1     0.07  -0.02  -0.06    -0.06   0.01   0.01     0.07   0.01   0.02
  43   7     0.09   0.10  -0.15    -0.15  -0.02   0.03     0.06  -0.04  -0.47
  44   1     0.04   0.02  -0.06    -0.05  -0.01   0.01     0.05  -0.01  -0.14
  45   1     0.00   0.04  -0.02    -0.03  -0.01   0.00     0.01  -0.00  -0.12
  46   6    -0.09   0.16  -0.04     0.02  -0.08   0.04    -0.00   0.03   0.06
  47   8    -0.07   0.18   0.04     0.02  -0.08  -0.02    -0.04   0.04  -0.10
  48   7    -0.09   0.17  -0.01    -0.00  -0.07   0.03     0.06   0.02   0.30
  49   1    -0.01   0.04   0.03    -0.01  -0.01  -0.01     0.01   0.01   0.06
  50   1    -0.03   0.05  -0.03    -0.00  -0.02   0.03     0.02   0.01   0.10
  51   7    -0.14   0.16  -0.21     0.05  -0.09   0.14    -0.01   0.02   0.01
  52   1    -0.04   0.04  -0.06     0.01  -0.02   0.04     0.01   0.00   0.06
  53   1    -0.02   0.03  -0.03     0.00  -0.02   0.02    -0.01   0.01  -0.00
                     10                     11                     12
                        a                      a                      a 
 Frequencies --    57.3181                58.3368                68.7755
 Red. masses --    12.9726                12.2156                12.4334
 Frc consts  --     0.0000                 0.0000                 0.0000
 IR Inten    --     2.3234                 8.2550                 3.0972
 Raman Activ --     0.0000                 0.0000                 0.0000
 Depolar     --     0.0000                 0.0000                 0.0000
 Atom AN      X      Y      Z        X      Y      Z        X      Y      Z
   1   8     0.12   0.10  -0.27     0.06   0.05  -0.16    -0.03  -0.12  -0.10
   2   6     0.05   0.06  -0.04     0.01  -0.01   0.12    -0.09  -0.06  -0.14
   3   1     0.04   0.05   0.01     0.00   0.05   0.07    -0.02  -0.04  -0.05
   4   1    -0.01  -0.01  -0.01    -0.00  -0.05   0.06    -0.05  -0.01  -0.06
   5   6    -0.00   0.00   0.06     0.00  -0.10   0.12    -0.13   0.03  -0.05
   6   1    -0.02  -0.01   0.01    -0.00  -0.07   0.02    -0.05   0.03  -0.01
   7   1     0.00  -0.00   0.04    -0.00  -0.03   0.08    -0.04   0.01  -0.03
   8   7     0.03   0.02   0.09     0.02   0.01   0.02    -0.08  -0.01   0.08
   9   6     0.04   0.02   0.06     0.03  -0.03  -0.20    -0.05   0.01   0.19
  10   1     0.00   0.00   0.02     0.00  -0.05  -0.06    -0.03   0.03   0.06
  11   1     0.02   0.01   0.02     0.01   0.02  -0.08    -0.00  -0.01   0.08
  12   1     0.01   0.00   0.01     0.01   0.00  -0.07    -0.01  -0.01   0.05
  13   6     0.01   0.03   0.12     0.01  -0.05   0.08    -0.10   0.07   0.09
  14   1    -0.01   0.00   0.04     0.00  -0.06   0.02    -0.03   0.03   0.03
  15   1     0.00   0.01   0.04     0.00  -0.00   0.07    -0.04   0.02   0.01
  16   1     0.01   0.01   0.04     0.01   0.00  -0.00    -0.02   0.02   0.04
  17   6     0.08   0.04   0.09     0.03   0.23   0.06    -0.01  -0.13   0.05
  18   1     0.02   0.01   0.03     0.00   0.07   0.06     0.00  -0.04  -0.01
  19   1     0.03   0.01   0.01     0.01   0.08  -0.00     0.00  -0.05   0.01
  20   1     0.03   0.01   0.03     0.01   0.09  -0.01     0.01  -0.05   0.04
  21   1     0.03   0.03  -0.13     0.02   0.01  -0.06    -0.01  -0.04  -0.05
  22   6    -0.04  -0.12  -0.05     0.09   0.06  -0.01     0.07   0.08  -0.02
  23   8    -0.01  -0.11  -0.07     0.09   0.04  -0.07     0.11   0.13   0.02
  24   7    -0.15  -0.30  -0.45     0.13   0.15   0.19     0.08   0.11   0.02
  25   1    -0.03  -0.04  -0.08     0.03   0.03   0.04     0.02   0.02   0.00
  26   1    -0.04  -0.04  -0.04     0.04   0.03   0.03     0.02   0.02  -0.02
  27   7     0.02  -0.01   0.31     0.08   0.00  -0.13     0.06   0.03  -0.12
  28   1    -0.01  -0.04   0.03     0.03   0.02   0.00     0.02   0.01  -0.03
  29   1     0.02  -0.00   0.10     0.02  -0.00  -0.05     0.02   0.01  -0.03
  30   6    -0.07  -0.02  -0.01    -0.09  -0.03   0.06     0.12   0.10   0.04
  31   8    -0.14   0.01   0.07    -0.16   0.00   0.38     0.22   0.07  -0.01
  32   7     0.00  -0.06  -0.12     0.05  -0.25  -0.33     0.10   0.08   0.04
  33   1    -0.00  -0.02  -0.03     0.00  -0.10  -0.06     0.04   0.01  -0.01
  34   1     0.01  -0.02  -0.04     0.01  -0.07  -0.12     0.01   0.03   0.02
  35   7    -0.10  -0.02   0.02    -0.17   0.12   0.10     0.06   0.18   0.12
  36   1    -0.00  -0.01  -0.02    -0.01   0.02  -0.06     0.00   0.05   0.04
  37   1    -0.03  -0.01   0.00    -0.03   0.05   0.04     0.03   0.05   0.02
  38   6     0.07   0.00   0.03    -0.12   0.01   0.01    -0.06  -0.04   0.01
  39   8     0.00   0.05   0.25    -0.14   0.03   0.09    -0.09  -0.00   0.14
  40   7     0.16  -0.03   0.06    -0.12   0.01   0.02    -0.05   0.00   0.16
  41   1     0.04  -0.01   0.06    -0.03   0.01   0.03    -0.01   0.01   0.07
  42   1     0.06  -0.02  -0.04    -0.03  -0.00  -0.01    -0.01  -0.02  -0.01
  43   7     0.09  -0.01  -0.26    -0.12  -0.02  -0.09    -0.06  -0.12  -0.25
  44   1     0.05  -0.01  -0.10    -0.03  -0.02  -0.04    -0.01  -0.04  -0.08
  45   1     0.01   0.01  -0.04    -0.03  -0.01  -0.02    -0.01  -0.03  -0.05
  46   6    -0.05   0.08   0.03     0.07  -0.05  -0.04    -0.01  -0.09  -0.05
  47   8    -0.06   0.08   0.09     0.09  -0.07   0.06     0.04  -0.10   0.06
  48   7    -0.05   0.08  -0.10     0.09  -0.06  -0.07    -0.15  -0.08  -0.47
  49   1    -0.01   0.01  -0.03     0.02  -0.02  -0.02    -0.03  -0.02  -0.10
  50   1    -0.01   0.02  -0.04     0.02  -0.02  -0.05    -0.04  -0.02  -0.10
  51   7    -0.03   0.11   0.09     0.05  -0.01  -0.13     0.06  -0.12   0.23
  52   1    -0.01   0.03   0.01     0.02   0.00  -0.05     0.00  -0.03   0.00
  53   1    -0.01   0.03   0.05     0.01  -0.00  -0.02     0.01  -0.03   0.07
                     13                     14                     15
                        a                      a                      a 
 Frequencies --    72.7089                81.5844                86.6478
 Red. masses --    12.2329                12.5105                13.6674
 Frc consts  --     0.0000                 0.0000                 0.0000
 IR Inten    --     0.5463                 3.6019                 0.6890
 Raman Activ --     0.0000                 0.0000                 0.0000
 Depolar     --     0.0000                 0.0000                 0.0000
 Atom AN      X      Y      Z        X      Y      Z        X      Y      Z
   1   8     0.02   0.06   0.02     0.19   0.12  -0.26    -0.06   0.06   0.24
   2   6     0.01   0.07  -0.05     0.06   0.06   0.09     0.07   0.08  -0.09
   3   1     0.02   0.00  -0.03     0.01   0.08   0.07     0.03  -0.04  -0.07
   4   1    -0.00   0.04  -0.04     0.00  -0.04   0.05     0.04   0.09  -0.06
   5   6    -0.02   0.10   0.03     0.06  -0.00   0.08     0.05   0.11  -0.06
   6   1    -0.02   0.04   0.01     0.02  -0.01   0.02     0.00   0.05  -0.01
   7   1    -0.00   0.03  -0.01     0.02  -0.00   0.03     0.02   0.03  -0.04
   8   7    -0.01   0.02   0.14     0.01  -0.02   0.02     0.05   0.01   0.03
   9   6    -0.01   0.05   0.31     0.09  -0.00   0.19    -0.01   0.04   0.15
  10   1     0.00   0.05   0.10     0.07   0.03   0.05    -0.00   0.04   0.05
  11   1    -0.00  -0.00   0.11     0.01  -0.01   0.04    -0.01  -0.01   0.06
  12   1    -0.00   0.01   0.10     0.02  -0.02   0.10    -0.01   0.02   0.05
  13   6    -0.01   0.09   0.09     0.07   0.08  -0.19     0.04   0.02   0.03
  14   1     0.00   0.05   0.03     0.06   0.05  -0.05     0.01   0.02   0.01
  15   1    -0.01   0.02   0.00    -0.01   0.02  -0.09     0.01   0.00   0.00
  16   1    -0.00   0.02   0.03     0.01   0.02  -0.07     0.01  -0.00   0.02
  17   6    -0.00  -0.16   0.10    -0.19  -0.15  -0.00     0.09  -0.12   0.01
  18   1    -0.00  -0.05  -0.01    -0.07  -0.05  -0.03     0.02  -0.04  -0.02
  19   1     0.00  -0.06   0.04    -0.07  -0.06   0.05     0.03  -0.05   0.00
  20   1     0.00  -0.06   0.05    -0.07  -0.05  -0.02     0.03  -0.04   0.02
  21   1     0.00   0.02  -0.01     0.05   0.03  -0.11    -0.02   0.03   0.10
  22   6     0.05   0.04  -0.04     0.07   0.05   0.06    -0.01  -0.01   0.02
  23   8     0.00   0.00  -0.02     0.16   0.19   0.27     0.01   0.03   0.08
  24   7     0.12  -0.02  -0.11     0.01   0.06   0.03    -0.02  -0.02  -0.02
  25   1     0.04  -0.01  -0.01     0.00   0.02  -0.01    -0.00  -0.00   0.00
  26   1     0.05   0.01  -0.01    -0.01  -0.03  -0.07    -0.01  -0.01  -0.02
  27   7     0.06   0.15  -0.02     0.04  -0.10  -0.14    -0.01  -0.03  -0.02
  28   1     0.03   0.04  -0.03     0.00  -0.04  -0.04    -0.01  -0.01  -0.01
  29   1    -0.00   0.04  -0.01     0.03  -0.02   0.01     0.00  -0.00   0.01
  30   6    -0.01   0.05  -0.02    -0.10  -0.06   0.01    -0.11  -0.04   0.08
  31   8    -0.06   0.08  -0.02    -0.34   0.03  -0.03    -0.30   0.05   0.32
  32   7     0.02   0.09   0.01     0.11   0.06   0.02     0.03  -0.10  -0.09
  33   1     0.00   0.03   0.00     0.01   0.06   0.00    -0.02  -0.02   0.01
  34   1     0.02   0.02   0.00     0.07  -0.00   0.02     0.03  -0.05  -0.06
  35   7     0.02  -0.00  -0.04    -0.04  -0.28   0.03    -0.04  -0.10  -0.01
  36   1     0.01  -0.00  -0.01     0.03  -0.09   0.01     0.03  -0.04  -0.05
  37   1    -0.00  -0.00  -0.01    -0.04  -0.08   0.02    -0.03  -0.01   0.02
  38   6    -0.09  -0.10   0.01    -0.04   0.00   0.03     0.07   0.03  -0.19
  39   8    -0.17  -0.13   0.06    -0.06   0.00   0.06     0.18  -0.02  -0.49
  40   7    -0.03  -0.13   0.05    -0.01  -0.08  -0.13    -0.03   0.25   0.19
  41   1    -0.01  -0.05   0.02    -0.00  -0.02  -0.03    -0.01   0.07  -0.01
  42   1     0.01  -0.04  -0.01    -0.00  -0.01  -0.00    -0.03   0.05   0.03
  43   7    -0.09  -0.06  -0.08    -0.04   0.07   0.14     0.08  -0.09  -0.20
  44   1    -0.01  -0.02  -0.03    -0.01   0.02   0.03    -0.01   0.00   0.00
  45   1    -0.03  -0.01  -0.01    -0.01   0.02   0.02     0.03  -0.03  -0.06
  46   6     0.04  -0.06  -0.09    -0.02  -0.00  -0.06    -0.02  -0.03  -0.00
  47   8     0.07  -0.08   0.07    -0.03   0.02  -0.21     0.01  -0.02   0.03
  48   7     0.14  -0.07   0.23    -0.07   0.01  -0.12    -0.07  -0.02  -0.09
  49   1     0.04  -0.02   0.06    -0.00   0.01   0.00    -0.01  -0.00  -0.01
  50   1     0.01  -0.02  -0.02    -0.00   0.00   0.03    -0.02  -0.01  -0.02
  51   7    -0.09  -0.02  -0.62     0.03  -0.05   0.12    -0.01  -0.06   0.07
  52   1    -0.01  -0.00  -0.13     0.01  -0.01   0.04    -0.01  -0.02  -0.02
  53   1    -0.02  -0.01  -0.11     0.01  -0.01   0.02    -0.00  -0.01  -0.02
                     16                     17                     18
                        a                      a                      a 
 Frequencies --    98.2540               103.8064               112.9428
 Red. masses --    12.5104                11.9020                12.3989
 Frc consts  --     0.0000                 0.0000                 0.0000
 IR Inten    --     0.7850                10.1116                23.1840
 Raman Activ --     0.0000                 0.0000                 0.0000
 Depolar     --     0.0000                 0.0000                 0.0000
 Atom AN      X      Y      Z        X      Y      Z        X      Y      Z
   1   8     0.07  -0.00  -0.15     0.14  -0.02  -0.22     0.03  -0.03  -0.02
   2   6     0.00  -0.02   0.02    -0.08  -0.07   0.31    -0.04  -0.01   0.00
   3   1    -0.01   0.02   0.02    -0.05   0.08   0.16    -0.02   0.00   0.00
   4   1    -0.01  -0.04   0.02    -0.05  -0.13   0.15    -0.02  -0.01  -0.00
   5   6     0.02  -0.03  -0.01    -0.05  -0.12   0.26    -0.04   0.05   0.01
   6   1     0.01   0.00   0.00    -0.01  -0.07   0.06    -0.01   0.02   0.01
   7   1     0.02  -0.01  -0.02    -0.02  -0.03   0.11    -0.02   0.02   0.00
   8   7    -0.05  -0.12  -0.01    -0.07  -0.02   0.14    -0.01   0.08   0.03
   9   6    -0.02  -0.08   0.19     0.04  -0.04   0.08     0.03   0.07   0.05
  10   1     0.02   0.01   0.06     0.05  -0.03   0.02     0.01   0.03   0.02
  11   1    -0.02  -0.04   0.06     0.00   0.01  -0.01     0.02   0.02   0.02
  12   1    -0.01  -0.03   0.09     0.01  -0.02   0.05     0.01   0.01   0.01
  13   6     0.01  -0.05  -0.18    -0.04   0.02   0.04    -0.02   0.10   0.03
  14   1     0.03   0.00  -0.05     0.01  -0.00   0.01    -0.01   0.03   0.01
  15   1    -0.01  -0.02  -0.07    -0.03   0.01   0.01    -0.01   0.03   0.01
  16   1    -0.01  -0.02  -0.07    -0.02   0.02  -0.01    -0.00   0.03   0.01
  17   6    -0.19  -0.27  -0.03    -0.23   0.07   0.15    -0.00   0.06   0.03
  18   1    -0.05  -0.08  -0.05    -0.07   0.02   0.06    -0.00   0.02   0.00
  19   1    -0.07  -0.08   0.03    -0.08   0.03   0.07     0.00   0.01   0.01
  20   1    -0.07  -0.10  -0.02    -0.08   0.03   0.01     0.00   0.02   0.01
  21   1     0.02  -0.01  -0.05     0.04  -0.02  -0.11     0.01  -0.01  -0.03
  22   6    -0.08  -0.05  -0.03    -0.01  -0.01  -0.01     0.01   0.04   0.08
  23   8    -0.12  -0.13  -0.23    -0.05  -0.05  -0.01     0.29   0.29   0.14
  24   7    -0.08   0.00   0.07     0.04  -0.04  -0.03    -0.27   0.11   0.01
  25   1    -0.03  -0.01  -0.01     0.02  -0.01   0.01    -0.08   0.05  -0.02
  26   1    -0.02   0.02   0.05     0.02   0.01   0.01    -0.11  -0.03  -0.05
  27   7    -0.06  -0.01   0.10    -0.01   0.07   0.01     0.05  -0.34   0.09
  28   1    -0.02   0.01   0.06     0.01   0.02  -0.02    -0.04  -0.13   0.05
  29   1    -0.02  -0.01   0.00    -0.02   0.02  -0.02     0.09  -0.10   0.07
  30   6     0.07   0.16   0.09     0.06  -0.01  -0.05    -0.04   0.02  -0.11
  31   8     0.13   0.18   0.40     0.18  -0.07  -0.21     0.11  -0.04  -0.04
  32   7     0.02  -0.02  -0.11    -0.02   0.03   0.07    -0.26  -0.07  -0.07
  33   1    -0.01  -0.05   0.00     0.02   0.00  -0.01    -0.07  -0.06  -0.00
  34   1    -0.01  -0.01  -0.08    -0.01   0.02   0.04    -0.10  -0.01  -0.05
  35   7     0.09   0.35  -0.01     0.01   0.02   0.02     0.00   0.16  -0.25
  36   1     0.02   0.09  -0.06    -0.02   0.01   0.04    -0.03   0.05  -0.07
  37   1     0.04   0.11   0.00     0.01  -0.00  -0.01     0.02   0.07  -0.06
  38   6     0.04   0.02  -0.00     0.04   0.03  -0.17     0.03  -0.11   0.01
  39   8     0.05   0.02  -0.02     0.12  -0.02  -0.44     0.18  -0.04   0.01
  40   7     0.04  -0.01  -0.08    -0.04   0.19   0.07    -0.11  -0.02   0.02
  41   1     0.01   0.00  -0.02    -0.01   0.05  -0.03    -0.03   0.02  -0.02
  42   1     0.01   0.01   0.01    -0.03   0.04   0.02    -0.06  -0.03  -0.02
  43   7     0.04   0.04   0.07     0.04  -0.03  -0.13     0.02  -0.28   0.01
  44   1     0.01   0.01   0.02    -0.01   0.01   0.01    -0.02  -0.08   0.01
  45   1     0.01   0.01   0.00     0.02  -0.01  -0.03     0.02  -0.09   0.01
  46   6     0.00   0.01  -0.03    -0.00   0.01   0.02     0.03   0.00  -0.00
  47   8    -0.08  -0.00  -0.24     0.03   0.01   0.14    -0.11  -0.07  -0.04
  48   7     0.09  -0.01   0.14    -0.02   0.02  -0.01     0.16  -0.06   0.07
  49   1     0.00  -0.01  -0.02    -0.00   0.00   0.00     0.05  -0.02   0.02
  50   1     0.03   0.00   0.05    -0.01   0.00  -0.03     0.07  -0.00   0.04
  51   7     0.03   0.03   0.06    -0.03   0.03  -0.06     0.01   0.12  -0.06
  52   1     0.02   0.01   0.06    -0.01   0.01  -0.05     0.02   0.04   0.01
  53   1     0.00   0.01   0.00    -0.01   0.01  -0.03    -0.00   0.03   0.00
                     19                     20                     21
                        a                      a                      a 
 Frequencies --   125.4200               140.6163               151.5772
 Red. masses --    11.8309                12.5860                13.2394
 Frc consts  --     0.0000                 0.0000                 0.0000
 IR Inten    --    13.2060                 4.5152                34.0495
 Raman Activ --     0.0000                 0.0000                 0.0000
 Depolar     --     0.0000                 0.0000                 0.0000
 Atom AN      X      Y      Z        X      Y      Z        X      Y      Z
   1   8     0.07  -0.05  -0.03     0.03  -0.01  -0.01     0.02   0.04  -0.02
   2   6    -0.09   0.02  -0.05    -0.01   0.01  -0.00     0.02   0.02   0.01
   3   1    -0.05   0.00  -0.02    -0.01   0.01   0.00    -0.01   0.02   0.01
   4   1    -0.04  -0.01  -0.01    -0.01  -0.01   0.00     0.02  -0.01   0.02
   5   6    -0.06   0.19  -0.06     0.01   0.04  -0.03     0.07   0.00  -0.08
   6   1    -0.00   0.07  -0.01     0.01   0.02  -0.00     0.04   0.01  -0.02
   7   1    -0.04   0.07  -0.04    -0.00   0.01  -0.02     0.03  -0.00  -0.04
   8   7    -0.01   0.25  -0.04    -0.00   0.04  -0.04     0.00  -0.03  -0.15
   9   6     0.12   0.24   0.10     0.03   0.04   0.01     0.04  -0.02  -0.05
  10   1     0.05   0.10   0.04     0.02   0.02   0.00     0.04   0.01  -0.02
  11   1     0.05   0.07   0.04     0.01   0.01   0.00    -0.00  -0.01  -0.03
  12   1     0.04   0.03   0.04     0.01   0.00   0.01     0.00  -0.01   0.02
  13   6    -0.01   0.34  -0.11     0.01   0.06  -0.07     0.04   0.01  -0.24
  14   1     0.02   0.10  -0.03     0.00   0.02  -0.02     0.04   0.00  -0.07
  15   1    -0.03   0.10  -0.04    -0.00   0.02  -0.03    -0.01   0.01  -0.08
  16   1     0.00   0.11  -0.04     0.00   0.02  -0.02     0.01   0.01  -0.09
  17   6    -0.10   0.11  -0.06    -0.04   0.00  -0.04    -0.15  -0.12  -0.15
  18   1    -0.04   0.03  -0.04    -0.02   0.00  -0.02    -0.05  -0.04  -0.07
  19   1    -0.03   0.01   0.01    -0.01  -0.01  -0.00    -0.06  -0.04  -0.01
  20   1    -0.03   0.03  -0.01    -0.01   0.00  -0.02    -0.06  -0.05  -0.06
  21   1     0.01  -0.05   0.02     0.01   0.01  -0.07     0.00   0.00   0.03
  22   6     0.02  -0.04   0.00    -0.12   0.08  -0.08    -0.11  -0.02   0.10
  23   8    -0.04  -0.10   0.01    -0.17   0.03  -0.23    -0.10   0.05   0.23
  24   7     0.08  -0.07   0.01    -0.12   0.14  -0.01    -0.10  -0.07  -0.00
  25   1     0.02  -0.03  -0.00    -0.04   0.03  -0.01    -0.02  -0.01   0.06
  26   1     0.03  -0.01  -0.00    -0.03   0.05   0.03    -0.02  -0.01  -0.00
  27   7     0.01   0.04   0.00    -0.13   0.16  -0.02    -0.13  -0.03   0.02
  28   1     0.01   0.02  -0.01    -0.02   0.06   0.01    -0.04  -0.03  -0.03
  29   1    -0.01   0.01  -0.00    -0.05   0.04  -0.03    -0.04  -0.00   0.02
  30   6     0.05  -0.22   0.07     0.06  -0.13   0.13    -0.02   0.03  -0.02
  31   8     0.22  -0.32   0.15    -0.02  -0.12   0.04     0.01   0.03   0.03
  32   7    -0.15  -0.38   0.05     0.19  -0.07   0.12    -0.07  -0.01  -0.04
  33   1    -0.04  -0.15   0.03     0.06   0.00   0.01    -0.02  -0.01   0.00
  34   1    -0.09  -0.08  -0.00     0.07  -0.02   0.06    -0.03   0.00  -0.02
  35   7     0.02  -0.06   0.02     0.00  -0.22   0.25     0.02   0.07  -0.09
  36   1    -0.02  -0.01  -0.01     0.02  -0.07   0.07    -0.01   0.02  -0.02
  37   1     0.03   0.00   0.01    -0.00  -0.07   0.05    -0.00   0.03  -0.00
  38   6    -0.01   0.03   0.00     0.06  -0.06   0.06     0.05   0.10   0.04
  39   8    -0.11  -0.02  -0.01     0.33   0.12   0.20     0.05   0.16   0.15
  40   7     0.08  -0.02   0.01    -0.22   0.08  -0.06     0.02   0.09  -0.06
  41   1     0.02  -0.03   0.00    -0.06   0.09  -0.03     0.01   0.05   0.03
  42   1     0.04   0.01   0.00    -0.12  -0.04  -0.07    -0.00   0.03   0.01
  43   7    -0.01   0.15   0.03     0.05  -0.38   0.02     0.04   0.07  -0.03
  44   1     0.01   0.04   0.00    -0.02  -0.13   0.00     0.01  -0.01  -0.04
  45   1    -0.01   0.04  -0.01     0.04  -0.12   0.03     0.02   0.02   0.03
  46   6    -0.02  -0.03  -0.02     0.02   0.03  -0.05     0.09  -0.09   0.12
  47   8     0.03   0.01  -0.09    -0.07  -0.03   0.00     0.24  -0.12   0.59
  48   7    -0.06  -0.01   0.01     0.10   0.00  -0.05    -0.01  -0.08  -0.11
  49   1    -0.02   0.00   0.00     0.01  -0.01  -0.04     0.02  -0.02   0.00
  50   1    -0.02  -0.00   0.02     0.02   0.00  -0.05    -0.04  -0.03  -0.12
  51   7    -0.01  -0.09   0.01     0.02   0.16  -0.11     0.03  -0.08  -0.15
  52   1    -0.01  -0.03   0.02     0.02   0.05  -0.03    -0.01  -0.02  -0.14
  53   1    -0.00  -0.03  -0.01     0.00   0.04   0.01     0.01  -0.03  -0.01
                     22                     23                     24
                        a                      a                      a 
 Frequencies --   159.7165               175.9937               189.8857
 Red. masses --    13.1185                12.8525                13.2708
 Frc consts  --     0.0000                 0.0000                 0.0000
 IR Inten    --     1.1815                 9.1327                 1.8371
 Raman Activ --     0.0000                 0.0000                 0.0000
 Depolar     --     0.0000                 0.0000                 0.0000
 Atom AN      X      Y      Z        X      Y      Z        X      Y      Z
   1   8    -0.01   0.04  -0.01     0.01   0.00  -0.00    -0.05   0.02  -0.01
   2   6     0.02   0.02  -0.01     0.00   0.01  -0.01     0.01   0.01  -0.03
   3   1    -0.00   0.01  -0.00     0.00  -0.00  -0.00     0.02  -0.01  -0.01
   4   1     0.02   0.01   0.01    -0.00   0.00  -0.00     0.00   0.02  -0.02
   5   6     0.05  -0.00  -0.07    -0.00   0.01   0.01    -0.02  -0.03   0.01
   6   1     0.02  -0.00  -0.02    -0.01   0.00   0.00    -0.02  -0.02  -0.00
   7   1     0.02  -0.00  -0.02    -0.00   0.00   0.00    -0.00  -0.01   0.02
   8   7     0.01  -0.02  -0.12     0.00   0.01   0.02     0.01  -0.00   0.01
   9   6     0.04  -0.02  -0.05     0.00   0.01   0.03     0.04  -0.01  -0.00
  10   1     0.04   0.00  -0.01    -0.01   0.01   0.01     0.01  -0.01  -0.00
  11   1     0.00  -0.01  -0.02     0.01   0.00   0.02     0.01   0.00  -0.01
  12   1     0.01  -0.01   0.01     0.00   0.00  -0.00     0.01  -0.00   0.00
  13   6     0.03   0.03  -0.19     0.00   0.01   0.02    -0.00   0.03   0.01
  14   1     0.02   0.03  -0.05     0.01  -0.03   0.00     0.00   0.02   0.00
  15   1    -0.00   0.01  -0.07    -0.01   0.01   0.02    -0.00   0.01  -0.00
  16   1     0.01   0.01  -0.05     0.00   0.02  -0.02     0.00   0.01   0.01
  17   6    -0.11  -0.09  -0.13     0.01   0.01   0.02     0.01  -0.00   0.01
  18   1    -0.04  -0.03  -0.06     0.01   0.00   0.01    -0.01  -0.00   0.00
  19   1    -0.04  -0.04  -0.01     0.00   0.01   0.01     0.01  -0.01   0.00
  20   1    -0.04  -0.03  -0.05    -0.00  -0.00   0.01     0.01   0.01   0.00
  21   1    -0.01   0.00   0.06    -0.00  -0.02   0.06    -0.02   0.00   0.05
  22   6     0.16   0.02  -0.09    -0.15   0.09  -0.09    -0.14  -0.07   0.12
  23   8     0.19  -0.01  -0.20     0.02   0.20  -0.35    -0.23  -0.08   0.28
  24   7     0.13   0.05  -0.06    -0.39   0.24  -0.03    -0.03  -0.14   0.05
  25   1     0.04   0.04   0.01    -0.12   0.08  -0.03    -0.01  -0.05   0.02
  26   1     0.03   0.04   0.06    -0.13   0.05   0.03     0.01  -0.04  -0.03
  27   7     0.20  -0.02  -0.00    -0.10  -0.15   0.13    -0.20   0.08  -0.01
  28   1     0.04  -0.01   0.01    -0.07  -0.06   0.09    -0.02   0.02  -0.06
  29   1     0.06  -0.02  -0.03     0.03  -0.07   0.02    -0.09   0.04   0.01
  30   6     0.01  -0.01   0.02     0.03  -0.06   0.05    -0.01   0.01  -0.01
  31   8     0.00  -0.01   0.04    -0.03  -0.05  -0.04     0.02   0.01   0.01
  32   7     0.02  -0.02   0.00     0.12   0.01   0.08    -0.04  -0.01  -0.02
  33   1     0.00  -0.01   0.01     0.04   0.03   0.00    -0.01  -0.01  -0.00
  34   1     0.00  -0.00   0.00     0.05   0.00   0.05    -0.02  -0.00  -0.01
  35   7    -0.00  -0.00   0.03    -0.02  -0.12   0.15     0.01   0.03  -0.04
  36   1     0.01  -0.01  -0.01     0.02  -0.04   0.03    -0.02   0.02   0.00
  37   1     0.02  -0.00  -0.01     0.01  -0.05   0.01    -0.01   0.02   0.01
  38   6    -0.11  -0.18  -0.02    -0.06   0.01  -0.05    -0.11  -0.15  -0.02
  39   8    -0.11  -0.25  -0.10    -0.24  -0.13  -0.18    -0.11  -0.21  -0.09
  40   7    -0.08  -0.17   0.14     0.15  -0.08   0.07    -0.09  -0.15   0.09
  41   1    -0.02  -0.07  -0.01     0.04  -0.09   0.01    -0.02  -0.06  -0.00
  42   1    -0.01  -0.06  -0.00     0.09   0.01   0.04    -0.01  -0.05   0.00
  43   7    -0.09  -0.18  -0.01    -0.05   0.23  -0.02    -0.10  -0.14  -0.00
  44   1    -0.03  -0.02   0.03     0.01   0.08   0.00    -0.03  -0.02   0.03
  45   1    -0.04  -0.04   0.02    -0.03   0.07  -0.01    -0.03  -0.04  -0.00
  46   6    -0.07   0.18   0.19     0.15  -0.04   0.04     0.27   0.20  -0.09
  47   8    -0.06   0.21   0.37     0.17  -0.07   0.11     0.25   0.19  -0.11
  48   7    -0.09   0.21   0.11     0.17  -0.06  -0.02     0.21   0.22  -0.20
  49   1    -0.03   0.04   0.03     0.03  -0.01  -0.04     0.06   0.05  -0.05
  50   1    -0.03   0.06  -0.02     0.04  -0.02  -0.02     0.06   0.05  -0.02
  51   7    -0.11   0.21   0.15     0.16  -0.07   0.03     0.31   0.18   0.05
  52   1    -0.04   0.05   0.01     0.04  -0.02   0.00     0.07   0.04   0.01
  53   1    -0.02   0.05   0.05     0.04  -0.02  -0.00     0.09   0.05   0.03
                     25                     26                     27
                        a                      a                      a 
 Frequencies --   194.4392               209.5800               223.7966
 Red. masses --     9.0450                 3.8263                 9.8857
 Frc consts  --     0.0000                 0.0000                 0.0000
 IR Inten    --     6.4123               261.1838                81.4868
 Raman Activ --     0.0000                 0.0000                 0.0000
 Depolar     --     0.0000                 0.0000                 0.0000
 Atom AN      X      Y      Z        X      Y      Z        X      Y      Z
   1   8    -0.43   0.21   0.08    -0.08   0.08  -0.12     0.03  -0.03   0.07
   2   6     0.05   0.06  -0.13     0.01   0.02  -0.04    -0.00  -0.00   0.01
   3   1     0.12  -0.03  -0.07     0.03   0.00  -0.01    -0.00  -0.01  -0.00
   4   1     0.04   0.13  -0.09     0.01   0.02  -0.02    -0.01  -0.00   0.00
   5   6    -0.12  -0.32   0.11    -0.02  -0.05   0.03    -0.01   0.01   0.01
   6   1    -0.11  -0.19  -0.02    -0.02  -0.04  -0.00    -0.00   0.00   0.00
   7   1    -0.03  -0.10   0.17    -0.00  -0.02   0.04    -0.00   0.00   0.00
   8   7     0.06  -0.07   0.04     0.02  -0.01   0.03    -0.01   0.00   0.02
   9   6     0.37  -0.13  -0.04     0.09  -0.02  -0.00    -0.02   0.00   0.01
  10   1     0.23  -0.07  -0.03    -0.02  -0.01   0.00     0.01  -0.00   0.00
  11   1     0.06   0.01  -0.11     0.06   0.01   0.03    -0.02  -0.00  -0.01
  12   1     0.08  -0.06   0.09     0.04  -0.03  -0.05    -0.01   0.01   0.02
  13   6    -0.01   0.25  -0.00     0.00   0.07   0.02    -0.00  -0.01   0.01
  14   1     0.01   0.08  -0.00     0.00   0.01   0.00     0.00   0.01   0.00
  15   1    -0.07   0.08  -0.01    -0.02   0.03   0.01     0.01  -0.00  -0.00
  16   1     0.04   0.12   0.00     0.01   0.04  -0.00    -0.00  -0.01   0.01
  17   6    -0.02  -0.07   0.04    -0.01  -0.02   0.02     0.01   0.01   0.02
  18   1    -0.09  -0.01   0.01    -0.00  -0.01   0.00    -0.00   0.00   0.01
  19   1     0.02  -0.10   0.01    -0.01  -0.00   0.02     0.01  -0.00  -0.00
  20   1     0.04   0.05   0.01    -0.01  -0.01   0.00     0.01   0.01   0.01
  21   1    -0.09   0.18  -0.14    -0.05  -0.08   0.40     0.02   0.04  -0.18
  22   6     0.00   0.01  -0.01     0.01   0.01  -0.00    -0.01  -0.02  -0.03
  23   8     0.02   0.01  -0.04    -0.01   0.00   0.02     0.03  -0.01  -0.10
  24   7    -0.02   0.02  -0.01     0.03   0.00   0.01    -0.07   0.02  -0.02
  25   1    -0.00   0.01  -0.00     0.01  -0.01   0.00    -0.02   0.03  -0.01
  26   1    -0.01   0.01   0.00     0.01   0.00   0.00    -0.03   0.00   0.00
  27   7     0.01  -0.02   0.01    -0.01   0.06  -0.00     0.03  -0.14   0.04
  28   1    -0.00  -0.01   0.01     0.01  -0.00  -0.05    -0.02  -0.02   0.09
  29   1     0.01  -0.01   0.00    -0.01   0.01  -0.03     0.04  -0.04   0.05
  30   6     0.03  -0.01   0.00     0.00  -0.01  -0.00     0.01   0.00  -0.00
  31   8     0.06  -0.02  -0.01     0.00  -0.01  -0.02     0.01   0.00   0.00
  32   7     0.00  -0.02   0.01     0.01  -0.00   0.01    -0.01   0.00   0.00
  33   1     0.00  -0.01   0.00     0.01  -0.00  -0.00     0.00  -0.01  -0.00
  34   1    -0.01  -0.00   0.01     0.01  -0.00   0.00    -0.00  -0.00  -0.01
  35   7     0.02   0.02   0.01    -0.00  -0.02   0.01    -0.00   0.02   0.00
  36   1    -0.00   0.01   0.00    -0.00  -0.00   0.01     0.01   0.00  -0.01
  37   1     0.01   0.01   0.00    -0.00  -0.01   0.00     0.01   0.00  -0.01
  38   6     0.01   0.03  -0.01     0.02   0.01   0.05    -0.02  -0.02   0.05
  39   8     0.01   0.04   0.01     0.02  -0.03  -0.05     0.07   0.02   0.05
  40   7    -0.00   0.05   0.00     0.02  -0.12  -0.23    -0.15  -0.01  -0.14
  41   1     0.00  -0.00  -0.05     0.00   0.15   0.36    -0.04   0.14   0.19
  42   1    -0.00  -0.02  -0.07    -0.02   0.25   0.59    -0.09   0.13   0.31
  43   7     0.01   0.03   0.01    -0.00  -0.01  -0.05    -0.03  -0.12  -0.04
  44   1    -0.00   0.01   0.01     0.03  -0.04  -0.09     0.00  -0.07  -0.07
  45   1     0.00   0.01   0.01     0.01  -0.01  -0.05     0.02  -0.05  -0.03
  46   6    -0.02  -0.02  -0.00    -0.03  -0.01   0.00     0.06   0.07  -0.02
  47   8    -0.00  -0.01  -0.03    -0.16  -0.08   0.02     0.36   0.26  -0.09
  48   7    -0.02  -0.02   0.02     0.10  -0.09  -0.03    -0.28   0.28   0.14
  49   1    -0.01  -0.00   0.00     0.03  -0.05  -0.02    -0.07   0.14   0.05
  50   1    -0.00  -0.01   0.01     0.05  -0.01  -0.00    -0.15   0.03   0.03
  51   7    -0.01  -0.04  -0.00    -0.03   0.15   0.05     0.06  -0.37  -0.07
  52   1    -0.01  -0.01   0.00     0.01   0.06  -0.02    -0.05  -0.14  -0.00
  53   1    -0.00  -0.01  -0.01    -0.03   0.06   0.00     0.07  -0.13  -0.06
                     28                     29                     30
                        a                      a                      a 
 Frequencies --   235.9119               259.4056               261.0551
 Red. masses --     4.7601                 2.5229                 2.5098
 Frc consts  --     0.0000                 0.0000                 0.0000
 IR Inten    --   106.2061                36.1420                67.8258
 Raman Activ --     0.0000                 0.0000                 0.0000
 Depolar     --     0.0000                 0.0000                 0.0000
 Atom AN      X      Y      Z        X      Y      Z        X      Y      Z
   1   8     0.10  -0.10   0.29     0.04  -0.06  -0.07     0.07  -0.07  -0.08
   2   6     0.02  -0.01  -0.01     0.04  -0.03  -0.11     0.07  -0.03  -0.14
   3   1     0.00  -0.03  -0.03     0.03  -0.04  -0.05     0.05  -0.05  -0.06
   4   1    -0.01   0.01  -0.02    -0.00   0.01  -0.06    -0.00   0.02  -0.09
   5   6     0.00   0.04  -0.03    -0.01   0.01   0.02    -0.01   0.02   0.04
   6   1    -0.00   0.01  -0.01    -0.02  -0.00   0.00    -0.02  -0.01   0.00
   7   1     0.00   0.01  -0.01    -0.00   0.00   0.01    -0.00   0.00   0.02
   8   7    -0.02   0.03  -0.04    -0.00   0.03   0.04    -0.01   0.03   0.05
   9   6    -0.08   0.04  -0.01    -0.07   0.03   0.03    -0.08   0.03   0.04
  10   1     0.11  -0.01  -0.02     0.24  -0.04  -0.03     0.32  -0.06  -0.04
  11   1    -0.12  -0.01  -0.11    -0.20  -0.01  -0.20    -0.26  -0.01  -0.27
  12   1    -0.07   0.05   0.14    -0.11   0.08   0.25    -0.14   0.11   0.33
  13   6    -0.00  -0.03  -0.05     0.04  -0.07  -0.02     0.04  -0.08  -0.02
  14   1    -0.01   0.02  -0.01     0.01   0.05   0.00    -0.00   0.06   0.00
  15   1     0.03  -0.02  -0.04     0.06  -0.04  -0.06     0.07  -0.05  -0.08
  16   1    -0.01  -0.04   0.01    -0.02  -0.08   0.04    -0.02  -0.10   0.05
  17   6     0.01   0.04  -0.04    -0.04   0.10   0.05    -0.07   0.12   0.06
  18   1    -0.04   0.02  -0.01    -0.09   0.04   0.03    -0.12   0.05   0.04
  19   1     0.03  -0.03  -0.03     0.02  -0.03   0.00     0.02  -0.05   0.01
  20   1     0.04   0.05   0.00     0.03   0.10   0.01     0.04   0.13   0.01
  21   1     0.08   0.16  -0.69    -0.01  -0.07   0.17    -0.00  -0.09   0.23
  22   6     0.00   0.00   0.01     0.01   0.01  -0.01    -0.01  -0.00   0.00
  23   8    -0.01   0.00   0.04     0.04   0.05   0.00    -0.03  -0.03  -0.01
  24   7     0.02  -0.01   0.01    -0.01  -0.02  -0.02     0.00   0.02   0.01
  25   1     0.01  -0.01   0.01     0.01   0.05   0.08    -0.01  -0.04  -0.06
  26   1     0.01   0.00   0.00     0.02   0.13   0.26    -0.02  -0.10  -0.20
  27   7    -0.02   0.06  -0.01    -0.02   0.06   0.21     0.01  -0.05  -0.16
  28   1     0.00   0.00  -0.05    -0.04  -0.29  -0.51     0.03   0.21   0.39
  29   1    -0.02   0.01  -0.02     0.01  -0.15  -0.33    -0.00   0.11   0.25
  30   6    -0.00  -0.00   0.01    -0.01   0.00   0.01     0.01  -0.00  -0.01
  31   8    -0.00  -0.00   0.01    -0.01   0.00   0.00     0.01  -0.00  -0.00
  32   7     0.00  -0.01  -0.00     0.00  -0.00  -0.01    -0.00   0.01   0.01
  33   1    -0.00  -0.00   0.00     0.00  -0.00  -0.01     0.01  -0.00  -0.01
  34   1    -0.00   0.00   0.00     0.00  -0.00  -0.01     0.01  -0.01  -0.01
  35   7     0.00  -0.00  -0.00     0.01   0.00  -0.02    -0.01   0.00   0.01
  36   1    -0.00   0.00   0.00    -0.03   0.01   0.03     0.01  -0.00  -0.01
  37   1    -0.00   0.00   0.01    -0.01   0.01   0.02     0.01  -0.01  -0.01
  38   6    -0.02  -0.01  -0.00     0.01   0.00   0.00     0.00   0.00  -0.00
  39   8    -0.07  -0.07  -0.08     0.01   0.01   0.02     0.00   0.01   0.01
  40   7     0.07  -0.11  -0.06    -0.02   0.02   0.00    -0.00   0.01   0.00
  41   1     0.02   0.02   0.15    -0.00   0.01  -0.01    -0.00   0.00   0.00
  42   1     0.03   0.11   0.28    -0.01  -0.01  -0.03     0.00  -0.00  -0.01
  43   7    -0.02   0.06  -0.01     0.00  -0.01   0.01     0.00  -0.01   0.00
  44   1     0.01   0.01  -0.02    -0.00  -0.01   0.00    -0.00   0.00   0.01
  45   1    -0.01   0.02  -0.02     0.00  -0.01  -0.00    -0.00  -0.00   0.01
  46   6    -0.01  -0.01   0.02     0.00  -0.01  -0.02    -0.00   0.00   0.02
  47   8    -0.14  -0.09   0.07     0.03   0.01  -0.05    -0.01  -0.01   0.05
  48   7     0.13  -0.10  -0.06    -0.03   0.01   0.01     0.01  -0.00  -0.00
  49   1     0.04  -0.06  -0.02    -0.00   0.01   0.01    -0.00  -0.01  -0.01
  50   1     0.07  -0.01  -0.01    -0.01  -0.00   0.02    -0.00  -0.00  -0.02
  51   7    -0.01   0.17   0.06     0.01  -0.06  -0.01    -0.01   0.02  -0.01
  52   1     0.02   0.06  -0.02    -0.01  -0.02   0.01     0.00   0.01  -0.00
  53   1    -0.03   0.06   0.01     0.01  -0.02  -0.01    -0.00   0.01   0.01
                     31                     32                     33
                        a                      a                      a 
 Frequencies --   278.4523               306.1484               316.5267
 Red. masses --     8.8397                 2.6174                 7.9127
 Frc consts  --     0.0000                 0.0000                 0.0000
 IR Inten    --     8.5768               128.8344                 4.7896
 Raman Activ --     0.0000                 0.0000                 0.0000
 Depolar     --     0.0000                 0.0000                 0.0000
 Atom AN      X      Y      Z        X      Y      Z        X      Y      Z
   1   8     0.43  -0.05   0.21     0.00  -0.01  -0.01     0.30   0.11   0.09
   2   6     0.22   0.14  -0.31     0.01  -0.01  -0.02    -0.04   0.17   0.17
   3   1     0.17  -0.08  -0.17     0.01  -0.01  -0.01    -0.06   0.08   0.07
   4   1     0.00   0.16  -0.23     0.00   0.00  -0.01    -0.01  -0.01   0.09
   5   6    -0.07  -0.00   0.14     0.00  -0.01   0.01     0.01   0.07  -0.05
   6   1    -0.12  -0.06   0.00    -0.00  -0.00   0.00     0.03   0.02  -0.01
   7   1     0.02  -0.03   0.13     0.00  -0.00   0.00     0.04   0.01  -0.03
   8   7    -0.16  -0.04   0.07    -0.01  -0.01   0.01    -0.12  -0.05  -0.10
   9   6     0.01  -0.09  -0.10    -0.02  -0.01   0.01     0.09  -0.12  -0.24
  10   1    -0.16  -0.03  -0.01     0.00  -0.00   0.00     0.13  -0.09  -0.09
  11   1     0.14   0.03   0.09    -0.01  -0.01  -0.00    -0.00   0.03  -0.17
  12   1     0.07  -0.10  -0.19    -0.01   0.00   0.01     0.01  -0.05   0.00
  13   6    -0.12  -0.05  -0.04     0.00  -0.01  -0.01    -0.32   0.17   0.27
  14   1     0.00  -0.07  -0.01     0.01  -0.01  -0.00    -0.25   0.26   0.10
  15   1    -0.06   0.00   0.03    -0.01   0.00   0.00    -0.03  -0.01  -0.09
  16   1    -0.03   0.02  -0.07     0.00   0.01  -0.02    -0.04  -0.05   0.32
  17   6    -0.34   0.09   0.09    -0.00   0.02   0.02     0.04  -0.27  -0.13
  18   1    -0.18   0.04   0.05     0.01   0.00   0.01    -0.05  -0.08  -0.10
  19   1    -0.07  -0.05   0.03    -0.01   0.02   0.00     0.05  -0.16  -0.05
  20   1    -0.06   0.11  -0.00    -0.01  -0.00   0.00     0.07  -0.05   0.03
  21   1     0.11  -0.06   0.03    -0.00  -0.00   0.01     0.07  -0.06   0.09
  22   6     0.00  -0.00  -0.00    -0.01   0.00   0.01    -0.01  -0.00  -0.01
  23   8     0.00  -0.00   0.00    -0.01   0.00   0.02    -0.00   0.00  -0.01
  24   7     0.01  -0.00   0.00    -0.00  -0.01   0.00    -0.00   0.01   0.01
  25   1     0.00  -0.00  -0.00     0.00  -0.00   0.00    -0.00  -0.01  -0.01
  26   1     0.00   0.00   0.00     0.00  -0.00  -0.00    -0.00  -0.01  -0.02
  27   7     0.00   0.00   0.00    -0.01   0.01  -0.00    -0.00   0.00   0.02
  28   1     0.00  -0.01  -0.01    -0.00  -0.00  -0.01    -0.00  -0.01  -0.02
  29   1     0.00  -0.00  -0.01    -0.00   0.00   0.00     0.00  -0.01  -0.01
  30   6     0.01  -0.00  -0.01     0.00   0.03   0.00     0.00  -0.00   0.01
  31   8     0.01  -0.00  -0.01     0.00   0.02  -0.03    -0.00   0.00   0.01
  32   7    -0.01   0.01   0.01     0.20  -0.17  -0.22     0.01  -0.02  -0.01
  33   1     0.01  -0.00  -0.01    -0.28   0.17   0.29    -0.01   0.00   0.02
  34   1     0.01  -0.01  -0.01    -0.42   0.33   0.54    -0.02   0.01   0.02
  35   7     0.00   0.01  -0.00    -0.04   0.03   0.05     0.00   0.00   0.01
  36   1    -0.01   0.00   0.00     0.19  -0.06  -0.22     0.01  -0.00  -0.01
  37   1     0.00   0.00  -0.00     0.06  -0.02  -0.06     0.01   0.00  -0.00
  38   6     0.01   0.00  -0.00     0.00  -0.00  -0.00    -0.00   0.01  -0.00
  39   8     0.01   0.01   0.00     0.00  -0.00  -0.00    -0.01   0.00  -0.00
  40   7    -0.01   0.01   0.00    -0.00   0.00  -0.00     0.01   0.00   0.01
  41   1    -0.00   0.00  -0.02    -0.00   0.00   0.00     0.00  -0.00   0.00
  42   1    -0.00  -0.01  -0.03    -0.00   0.00   0.00     0.01  -0.00  -0.00
  43   7     0.00   0.00   0.00     0.00  -0.00   0.00    -0.00   0.01   0.01
  44   1     0.00   0.00   0.00     0.00  -0.00  -0.00    -0.00  -0.00  -0.00
  45   1     0.00   0.00  -0.00     0.00  -0.00  -0.00     0.00  -0.00  -0.00
  46   6    -0.00  -0.00   0.00    -0.00   0.00  -0.00     0.00   0.00  -0.01
  47   8     0.00   0.00   0.00    -0.00   0.00  -0.00     0.00  -0.00  -0.04
  48   7    -0.01   0.00   0.00    -0.00   0.01   0.01     0.01  -0.01  -0.02
  49   1    -0.00   0.00   0.00    -0.01   0.00  -0.01     0.00  -0.01  -0.01
  50   1    -0.00   0.00   0.01    -0.01  -0.00  -0.01     0.01  -0.00   0.01
  51   7    -0.00   0.00  -0.00    -0.00  -0.00  -0.00     0.01  -0.03  -0.02
  52   1    -0.00   0.00  -0.00     0.00  -0.00   0.01    -0.00  -0.01   0.02
  53   1    -0.00   0.00  -0.00     0.00  -0.00   0.00     0.01  -0.01  -0.01
                     34                     35                     36
                        a                      a                      a 
 Frequencies --   339.2446               368.0823               376.1645
 Red. masses --     2.3044                 5.8522                 3.6979
 Frc consts  --     0.0000                 0.0000                 0.0000
 IR Inten    --     2.2438                 0.2516                 1.7158
 Raman Activ --     0.0000                 0.0000                 0.0000
 Depolar     --     0.0000                 0.0000                 0.0000
 Atom AN      X      Y      Z        X      Y      Z        X      Y      Z
   1   8    -0.17   0.01  -0.07     0.06  -0.01  -0.02    -0.03   0.08  -0.02
   2   6    -0.02  -0.06   0.03     0.11  -0.07   0.12    -0.12   0.07   0.04
   3   1    -0.02  -0.00   0.02     0.07  -0.02   0.04    -0.11   0.05   0.03
   4   1     0.01  -0.02   0.03     0.02  -0.02   0.02    -0.01  -0.03   0.07
   5   6     0.04  -0.01  -0.02     0.03  -0.14   0.19     0.05   0.18  -0.22
   6   1     0.02   0.02   0.00     0.01  -0.11   0.02     0.07   0.16  -0.01
   7   1     0.01   0.00  -0.04    -0.01  -0.04   0.13     0.03   0.06  -0.19
   8   7     0.05  -0.00   0.00    -0.01   0.02  -0.02    -0.01  -0.07  -0.02
   9   6     0.04   0.02   0.08    -0.40   0.09  -0.04     0.20  -0.10   0.06
  10   1    -0.20   0.07   0.06    -0.19   0.01  -0.01     0.12  -0.02   0.01
  11   1     0.15  -0.00   0.20    -0.14  -0.04   0.03     0.06   0.01  -0.02
  12   1     0.08  -0.05  -0.16    -0.12   0.12  -0.06     0.06  -0.08   0.07
  13   6     0.12  -0.10  -0.07    -0.02   0.25  -0.15    -0.05  -0.18   0.14
  14   1    -0.06   0.32   0.01     0.08  -0.03  -0.05     0.04  -0.36   0.01
  15   1     0.21  -0.15  -0.33    -0.14   0.12   0.03    -0.10   0.04   0.31
  16   1    -0.04  -0.30   0.26     0.04   0.20  -0.16     0.02   0.14  -0.18
  17   6    -0.07   0.13   0.03     0.24  -0.16  -0.06    -0.08   0.01  -0.00
  18   1    -0.33   0.08   0.05    -0.19  -0.02  -0.05    -0.35   0.04   0.03
  19   1     0.09  -0.22  -0.03     0.21  -0.31  -0.12     0.09  -0.28  -0.03
  20   1     0.16   0.31   0.02     0.27   0.16   0.11     0.17   0.29   0.01
  21   1    -0.04   0.04  -0.03     0.01  -0.00   0.06    -0.01   0.00  -0.01
  22   6    -0.01   0.01  -0.00     0.00  -0.00  -0.00     0.01   0.00   0.02
  23   8    -0.00   0.01  -0.01    -0.00  -0.00  -0.00     0.00  -0.00   0.02
  24   7    -0.01   0.00  -0.01     0.00   0.00   0.00    -0.00  -0.02  -0.02
  25   1     0.00  -0.00   0.01    -0.00   0.00  -0.00    -0.00   0.01   0.00
  26   1     0.00   0.00   0.00    -0.00  -0.00  -0.00     0.01   0.04   0.08
  27   7    -0.01  -0.01   0.00     0.00   0.00   0.00    -0.00  -0.00  -0.03
  28   1    -0.00   0.00   0.01     0.00  -0.00  -0.00     0.00   0.01   0.01
  29   1     0.00  -0.00   0.00    -0.00   0.00  -0.00    -0.00   0.01   0.01
  30   6    -0.00  -0.00   0.01     0.01  -0.01  -0.00     0.01  -0.00  -0.02
  31   8     0.00   0.00   0.02     0.01  -0.01  -0.01     0.01  -0.01  -0.02
  32   7     0.01  -0.01  -0.01    -0.01  -0.01   0.01    -0.01   0.01   0.01
  33   1    -0.01   0.01   0.01     0.00  -0.01  -0.00     0.01   0.00  -0.01
  34   1    -0.01   0.01   0.02    -0.00  -0.00  -0.00    -0.00   0.00   0.00
  35   7     0.01   0.01  -0.00     0.01   0.01   0.01    -0.02   0.00   0.02
  36   1     0.00   0.00  -0.00     0.00   0.00  -0.00     0.04  -0.02  -0.05
  37   1    -0.00   0.00   0.00     0.01   0.00  -0.00     0.01  -0.00  -0.01
  38   6    -0.00   0.00  -0.00     0.01  -0.00   0.00    -0.01   0.00  -0.00
  39   8    -0.01  -0.00  -0.01     0.01  -0.00  -0.00    -0.00   0.00   0.00
  40   7     0.01  -0.00   0.00    -0.01   0.01  -0.00     0.01  -0.01   0.00
  41   1     0.00  -0.01  -0.00    -0.00   0.01  -0.01     0.00  -0.00   0.01
  42   1     0.01   0.00   0.00    -0.01  -0.01  -0.02     0.01   0.01   0.01
  43   7    -0.01   0.01   0.01     0.00   0.01  -0.00     0.00  -0.01  -0.00
  44   1     0.00  -0.00  -0.01     0.01  -0.00  -0.01    -0.01   0.01   0.02
  45   1     0.01  -0.00  -0.01     0.00   0.00  -0.01    -0.00   0.00   0.01
  46   6     0.00   0.00   0.01     0.00  -0.00   0.00    -0.00  -0.00  -0.02
  47   8     0.01  -0.01   0.02     0.00   0.00   0.01    -0.01  -0.00  -0.02
  48   7     0.01  -0.01  -0.01    -0.01   0.00  -0.00    -0.00   0.01   0.03
  49   1    -0.00  -0.01  -0.01    -0.00   0.00   0.01    -0.01   0.01  -0.01
  50   1    -0.00  -0.00  -0.03     0.00   0.00   0.01    -0.02  -0.00  -0.05
  51   7     0.00  -0.01  -0.01    -0.00   0.01  -0.00     0.01   0.01   0.01
  52   1     0.00  -0.01   0.02     0.00   0.00  -0.01     0.01   0.00   0.02
  53   1     0.00  -0.01   0.01    -0.00   0.00  -0.00    -0.00   0.01   0.01
                     37                     38                     39
                        a                      a                      a 
 Frequencies --   380.0492               392.8182               414.3913
 Red. masses --     2.2644                 3.0412                 3.1468
 Frc consts  --     0.0000                 0.0000                 0.0000
 IR Inten    --    23.8044                78.3994               455.9209
 Raman Activ --     0.0000                 0.0000                 0.0000
 Depolar     --     0.0000                 0.0000                 0.0000
 Atom AN      X      Y      Z        X      Y      Z        X      Y      Z
   1   8    -0.01   0.01  -0.01    -0.02  -0.00  -0.01    -0.02  -0.01  -0.01
   2   6    -0.02   0.01   0.01     0.01  -0.01  -0.00     0.03  -0.02  -0.01
   3   1    -0.02   0.01   0.01    -0.00  -0.00  -0.00     0.01  -0.01  -0.00
   4   1    -0.00  -0.01   0.01     0.01  -0.00   0.00     0.01  -0.00  -0.00
   5   6     0.01   0.02  -0.03     0.02   0.01  -0.02     0.02  -0.00   0.00
   6   1     0.01   0.01  -0.01     0.01   0.02   0.00     0.01   0.00   0.00
   7   1     0.01   0.00  -0.02     0.00   0.00  -0.02     0.00   0.00  -0.01
   8   7     0.00  -0.01  -0.01     0.01  -0.01  -0.00     0.03   0.01   0.01
   9   6     0.03  -0.01   0.03     0.01  -0.01   0.01    -0.02   0.01  -0.02
  10   1     0.01   0.01   0.01     0.00   0.00   0.00    -0.02  -0.00  -0.01
  11   1     0.01  -0.00   0.01     0.00  -0.00   0.00    -0.01  -0.00  -0.00
  12   1     0.01  -0.01   0.01     0.00  -0.00   0.01    -0.01   0.01  -0.02
  13   6    -0.00  -0.03   0.01     0.01  -0.01   0.01     0.02   0.02   0.01
  14   1    -0.00  -0.03   0.00     0.00  -0.04  -0.00    -0.01   0.03   0.01
  15   1    -0.00  -0.00   0.03    -0.01   0.01   0.04     0.01   0.00  -0.01
  16   1     0.00   0.00  -0.01     0.01   0.02  -0.03     0.01  -0.01   0.02
  17   6    -0.01   0.02  -0.00    -0.02   0.01  -0.00    -0.03  -0.01   0.01
  18   1    -0.04   0.01   0.01    -0.03   0.01   0.00    -0.00  -0.00  -0.00
  19   1     0.01  -0.03  -0.01     0.00  -0.01   0.00    -0.02   0.01   0.02
  20   1     0.02   0.04  -0.00     0.00   0.02  -0.01    -0.02  -0.01  -0.01
  21   1    -0.00  -0.00   0.01    -0.00   0.01  -0.01    -0.00   0.01  -0.01
  22   6    -0.01  -0.04  -0.10    -0.00  -0.06  -0.12    -0.01  -0.02  -0.02
  23   8    -0.02  -0.04  -0.07    -0.01  -0.04  -0.06    -0.00  -0.01  -0.00
  24   7     0.01   0.07   0.11     0.03   0.12   0.20     0.01   0.03   0.08
  25   1    -0.01  -0.03  -0.05    -0.01  -0.05  -0.06    -0.00  -0.02  -0.01
  26   1    -0.04  -0.17  -0.33    -0.06  -0.31  -0.61    -0.02  -0.11  -0.21
  27   7     0.02   0.05   0.12     0.03   0.08   0.19    -0.01   0.06   0.06
  28   1    -0.00  -0.04  -0.08    -0.01  -0.11  -0.20    -0.01  -0.08  -0.16
  29   1     0.00  -0.02  -0.06     0.01  -0.04  -0.09     0.01   0.01   0.02
  30   6    -0.02   0.01   0.03    -0.02   0.01   0.02     0.09  -0.02  -0.10
  31   8    -0.01   0.01   0.01    -0.02   0.00   0.01     0.06  -0.00  -0.04
  32   7     0.03  -0.02  -0.04     0.03  -0.01  -0.03    -0.14   0.10   0.13
  33   1    -0.01   0.01   0.01    -0.01   0.01   0.01     0.06  -0.05  -0.05
  34   1    -0.03   0.03   0.05    -0.01   0.01   0.03     0.08  -0.08  -0.16
  35   7     0.04  -0.00  -0.05     0.04  -0.01  -0.04    -0.17   0.01   0.20
  36   1    -0.10   0.04   0.12    -0.10   0.04   0.12     0.49  -0.19  -0.62
  37   1    -0.03   0.01   0.03    -0.02   0.01   0.02     0.06  -0.00  -0.02
  38   6    -0.00  -0.00   0.02     0.00  -0.00  -0.01    -0.00   0.00   0.01
  39   8    -0.00   0.00   0.03     0.00  -0.01  -0.01    -0.00   0.00   0.01
  40   7     0.00  -0.01  -0.00    -0.01   0.01  -0.00     0.00  -0.00  -0.00
  41   1    -0.00  -0.00   0.00    -0.00   0.01  -0.00     0.00  -0.00   0.01
  42   1     0.00  -0.01  -0.03    -0.01   0.01   0.02     0.00  -0.01  -0.01
  43   7     0.00  -0.02  -0.02     0.01   0.00  -0.01     0.00  -0.01  -0.01
  44   1    -0.01   0.01   0.03     0.00   0.01   0.01    -0.01   0.02   0.03
  45   1    -0.00   0.00   0.02    -0.00   0.01   0.01    -0.00   0.00   0.01
  46   6     0.00   0.01   0.02     0.01   0.01   0.07    -0.00  -0.00  -0.02
  47   8     0.04   0.03   0.02    -0.00  -0.00   0.06    -0.00  -0.01  -0.01
  48   7    -0.05  -0.02  -0.11    -0.03   0.03  -0.01    -0.00   0.00   0.04
  49   1     0.05   0.02   0.11    -0.01  -0.01  -0.00    -0.00   0.01   0.01
  50   1     0.17   0.03   0.56    -0.07  -0.00  -0.20    -0.02  -0.00  -0.06
  51   7    -0.02   0.00   0.09    -0.02   0.00  -0.13     0.01   0.01   0.06
  52   1    -0.11   0.02  -0.56     0.08  -0.01   0.46    -0.02   0.01  -0.16
  53   1     0.00   0.00  -0.12    -0.01  -0.00   0.08    -0.00   0.01  -0.01
                     40                     41                     42
                        a                      a                      a 
 Frequencies --   419.4309               445.9800               456.0669
 Red. masses --     8.5923                 4.0550                 6.8755
 Frc consts  --     0.0000                 0.0000                 0.0000
 IR Inten    --    10.0208               271.4982                 4.1967
 Raman Activ --     0.0000                 0.0000                 0.0000
 Depolar     --     0.0000                 0.0000                 0.0000
 Atom AN      X      Y      Z        X      Y      Z        X      Y      Z
   1   8    -0.19  -0.09  -0.09    -0.00  -0.00  -0.00     0.03  -0.00   0.01
   2   6     0.14  -0.16  -0.05     0.05  -0.02   0.00    -0.22   0.10   0.00
   3   1     0.05  -0.06  -0.02     0.01  -0.00   0.00    -0.05   0.02  -0.01
   4   1     0.04  -0.02  -0.03     0.02  -0.00   0.01    -0.10   0.01  -0.02
   5   6     0.17   0.13   0.01     0.05  -0.03  -0.04    -0.24   0.12   0.15
   6   1     0.08   0.11   0.04     0.02   0.01  -0.00    -0.10  -0.02   0.01
   7   1     0.00   0.06  -0.09     0.02  -0.01  -0.01    -0.07   0.03   0.11
   8   7     0.22   0.13   0.17    -0.00  -0.06  -0.05    -0.08   0.20   0.13
   9   6    -0.11   0.12  -0.32    -0.02  -0.04   0.06     0.15   0.13  -0.16
  10   1    -0.09  -0.10  -0.11    -0.00   0.02   0.02     0.06  -0.04  -0.06
  11   1    -0.06   0.05  -0.14    -0.01  -0.03   0.03     0.08   0.12  -0.09
  12   1    -0.04   0.14  -0.16    -0.01  -0.01   0.03     0.06  -0.00  -0.07
  13   6     0.20   0.10   0.26    -0.05   0.02   0.01     0.15  -0.21  -0.14
  14   1     0.03   0.00   0.07    -0.03   0.01   0.00     0.12  -0.08  -0.04
  15   1     0.05   0.04   0.10    -0.03   0.01   0.01     0.13  -0.08  -0.04
  16   1     0.07   0.05   0.07     0.01   0.02   0.02    -0.06  -0.14  -0.11
  17   6    -0.32  -0.23   0.12    -0.01   0.07  -0.02     0.14  -0.22   0.06
  18   1    -0.15  -0.08  -0.09     0.00   0.02   0.03     0.03  -0.08  -0.09
  19   1    -0.14  -0.15   0.19    -0.01   0.04  -0.01     0.08  -0.13  -0.00
  20   1    -0.14  -0.09  -0.02    -0.01   0.03  -0.03     0.08  -0.09   0.12
  21   1    -0.04   0.08  -0.07    -0.00   0.01   0.00     0.01  -0.06  -0.01
  22   6    -0.00   0.00   0.00     0.01  -0.03   0.02    -0.00  -0.00  -0.00
  23   8    -0.00   0.00  -0.00     0.04  -0.02  -0.00     0.00  -0.00  -0.00
  24   7    -0.00  -0.01  -0.01    -0.06  -0.03  -0.01     0.00  -0.01   0.00
  25   1     0.00   0.00   0.00    -0.03   0.01  -0.02     0.00  -0.00   0.00
  26   1     0.00   0.01   0.03    -0.02   0.05   0.14     0.00   0.00   0.00
  27   7    -0.00  -0.01  -0.01    -0.00   0.04  -0.05    -0.00   0.00   0.00
  28   1     0.00   0.01   0.02     0.04   0.07   0.03     0.00   0.01   0.01
  29   1    -0.00  -0.00  -0.00    -0.05   0.03  -0.01    -0.01  -0.00  -0.01
  30   6    -0.01  -0.01   0.01     0.03   0.02  -0.00    -0.07  -0.06   0.00
  31   8    -0.01  -0.00   0.00     0.02   0.03  -0.01    -0.00  -0.08   0.08
  32   7     0.02  -0.01  -0.01    -0.04   0.01   0.01     0.03   0.07   0.05
  33   1     0.00   0.01   0.00    -0.03  -0.03   0.04     0.23   0.03  -0.27
  34   1    -0.01   0.01   0.02     0.01  -0.03  -0.09     0.01   0.07   0.24
  35   7     0.01   0.01  -0.02    -0.02  -0.01   0.07    -0.04   0.05  -0.10
  36   1    -0.03   0.01   0.03     0.13  -0.05  -0.13     0.02   0.00  -0.13
  37   1    -0.00   0.01   0.00    -0.01  -0.01   0.01    -0.02   0.07   0.03
  38   6    -0.01   0.00  -0.01     0.03  -0.03  -0.01     0.03  -0.03   0.01
  39   8    -0.00   0.01  -0.01     0.01  -0.05   0.00     0.00  -0.05   0.02
  40   7     0.01  -0.01   0.01    -0.06   0.02   0.00    -0.06   0.02  -0.00
  41   1     0.00  -0.01   0.00    -0.01   0.03  -0.05    -0.01   0.05  -0.02
  42   1     0.01   0.01   0.01    -0.06   0.00   0.04    -0.06  -0.01   0.00
  43   7    -0.01  -0.00   0.01     0.03   0.06   0.01     0.04   0.05  -0.01
  44   1    -0.00  -0.01  -0.01     0.04  -0.02  -0.07     0.04   0.03  -0.01
  45   1     0.00  -0.01  -0.01    -0.00   0.02  -0.01    -0.01   0.03  -0.02
  46   6     0.00   0.00   0.01     0.03   0.01   0.16     0.00  -0.00   0.03
  47   8    -0.00   0.00  -0.01     0.02   0.01   0.09     0.01   0.00   0.03
  48   7     0.00  -0.01  -0.03    -0.06  -0.03  -0.27    -0.02  -0.01  -0.05
  49   1     0.00  -0.00   0.00     0.02   0.02   0.02     0.00   0.00   0.00
  50   1     0.03   0.00   0.07     0.19   0.03   0.60     0.04   0.01   0.12
  51   7    -0.00  -0.01  -0.02    -0.05  -0.01  -0.25    -0.02   0.01  -0.05
  52   1     0.00  -0.00   0.03     0.08  -0.02   0.49     0.02   0.00   0.10
  53   1     0.00  -0.00   0.01    -0.01  -0.01   0.03    -0.01   0.00   0.01
                     43                     44                     45
                        a                      a                      a 
 Frequencies --   459.0453               465.7676               468.9600
 Red. masses --     3.6922                 8.1937                 6.5173
 Frc consts  --     0.0000                 0.0000                 0.0000
 IR Inten    --    12.0128                61.2801                26.9648
 Raman Activ --     0.0000                 0.0000                 0.0000
 Depolar     --     0.0000                 0.0000                 0.0000
 Atom AN      X      Y      Z        X      Y      Z        X      Y      Z
   1   8    -0.01  -0.00  -0.00     0.00   0.01  -0.00    -0.00   0.01  -0.00
   2   6     0.14  -0.06   0.00    -0.05   0.03  -0.01    -0.05   0.02  -0.02
   3   1     0.04  -0.01   0.01    -0.02   0.00  -0.01    -0.03   0.01  -0.01
   4   1     0.06  -0.01   0.01    -0.02   0.00  -0.00    -0.01  -0.00   0.00
   5   6     0.13  -0.11  -0.07    -0.02   0.08  -0.01     0.00   0.10  -0.05
   6   1     0.05  -0.03  -0.02     0.00   0.08   0.02     0.01   0.11   0.02
   7   1     0.03  -0.03  -0.02     0.01   0.02  -0.06     0.02   0.03  -0.11
   8   7     0.05  -0.08  -0.13    -0.04  -0.08   0.12    -0.03  -0.12   0.14
   9   6    -0.08  -0.01   0.12    -0.01  -0.12  -0.06    -0.03  -0.17  -0.07
  10   1    -0.03   0.06   0.05    -0.01  -0.08  -0.03    -0.01  -0.10  -0.03
  11   1    -0.04  -0.07   0.08     0.00  -0.00  -0.05    -0.01  -0.02  -0.06
  12   1    -0.03   0.01   0.06     0.00  -0.03  -0.04    -0.01  -0.03  -0.04
  13   6    -0.10   0.09   0.12     0.02   0.07  -0.12     0.03   0.10  -0.12
  14   1    -0.10   0.02   0.03     0.07   0.07  -0.03     0.08   0.09  -0.03
  15   1    -0.06   0.04   0.06    -0.03   0.01  -0.09    -0.05   0.02  -0.10
  16   1     0.03   0.07   0.08    -0.00   0.02  -0.05     0.01   0.04  -0.05
  17   6    -0.09   0.12  -0.10     0.07   0.00   0.14     0.06   0.01   0.18
  18   1    -0.02   0.04   0.03     0.04   0.00   0.06     0.03   0.01   0.09
  19   1    -0.05   0.07  -0.01     0.03   0.02   0.01     0.02   0.03   0.02
  20   1    -0.05   0.05  -0.09     0.03   0.00   0.05     0.02   0.01   0.05
  21   1    -0.00   0.04   0.01     0.00  -0.01  -0.01    -0.00  -0.01  -0.01
  22   6    -0.01   0.02  -0.01    -0.03   0.06  -0.03     0.07  -0.12   0.07
  23   8    -0.02   0.01  -0.00    -0.09   0.02  -0.01     0.21  -0.04   0.03
  24   7     0.03  -0.00  -0.01     0.10   0.02  -0.02    -0.23  -0.05   0.00
  25   1     0.01  -0.01  -0.00     0.03  -0.03  -0.00    -0.07   0.08   0.02
  26   1     0.02   0.02   0.02     0.06   0.04   0.01    -0.13  -0.09  -0.03
  27   7    -0.00  -0.03   0.01    -0.01  -0.08   0.03     0.02   0.17  -0.03
  28   1    -0.01  -0.01   0.02    -0.06  -0.08   0.02     0.17   0.26   0.10
  29   1     0.02  -0.02   0.00     0.08  -0.03   0.07    -0.21  -0.02  -0.39
  30   6    -0.08  -0.03   0.02     0.01   0.04   0.01     0.05   0.12   0.02
  31   8    -0.00  -0.06   0.12     0.01   0.04   0.00     0.02   0.15  -0.01
  32   7    -0.03   0.04   0.05    -0.05  -0.02  -0.02    -0.17  -0.06  -0.07
  33   1     0.44  -0.05  -0.52     0.05  -0.06  -0.07     0.10  -0.17  -0.14
  34   1    -0.08   0.14   0.41    -0.05   0.02   0.02    -0.16   0.06   0.02
  35   7     0.01  -0.00  -0.15     0.03  -0.05   0.02     0.10  -0.14   0.07
  36   1     0.01  -0.00  -0.08     0.04  -0.02   0.01     0.09  -0.06   0.08
  37   1    -0.05   0.06   0.05    -0.02  -0.02   0.02    -0.06  -0.08   0.03
  38   6    -0.01   0.01  -0.00    -0.14   0.18  -0.08     0.01  -0.01   0.00
  39   8     0.00   0.01  -0.01    -0.02   0.27  -0.09    -0.00  -0.02   0.01
  40   7     0.01  -0.00   0.00     0.28  -0.06  -0.02    -0.02   0.00  -0.00
  41   1     0.00  -0.01  -0.01     0.07  -0.18   0.21    -0.00   0.02   0.00
  42   1     0.01   0.01   0.01     0.27   0.07  -0.06    -0.01  -0.01  -0.01
  43   7    -0.01  -0.01   0.00    -0.16  -0.31   0.08     0.01   0.02  -0.00
  44   1    -0.01  -0.02  -0.02    -0.19  -0.02   0.22     0.01   0.01   0.00
  45   1     0.00  -0.01   0.01     0.05  -0.15  -0.01    -0.00   0.01  -0.02
  46   6    -0.00   0.00  -0.01     0.05  -0.09   0.01    -0.03   0.04  -0.00
  47   8    -0.00   0.00  -0.01     0.06  -0.08  -0.00    -0.04   0.04   0.01
  48   7     0.00   0.00   0.00    -0.17   0.02  -0.02     0.08   0.00   0.02
  49   1     0.00  -0.00   0.00    -0.04   0.08   0.04     0.02  -0.03  -0.00
  50   1    -0.00  -0.00  -0.02    -0.07  -0.03   0.15     0.02   0.01  -0.10
  51   7     0.00  -0.00   0.00     0.04   0.12  -0.07    -0.02  -0.09   0.03
  52   1     0.00  -0.00   0.01     0.09   0.06   0.10    -0.05  -0.04  -0.04
  53   1    -0.00   0.00  -0.01    -0.04   0.07   0.03     0.03  -0.05  -0.02
                     46                     47                     48
                        a                      a                      a 
 Frequencies --   472.4000               480.3723               481.1773
 Red. masses --     7.0576                 4.8602                 2.5545
 Frc consts  --     0.0000                 0.0000                 0.0000
 IR Inten    --    21.6834                23.8565               129.4428
 Raman Activ --     0.0000                 0.0000                 0.0000
 Depolar     --     0.0000                 0.0000                 0.0000
 Atom AN      X      Y      Z        X      Y      Z        X      Y      Z
   1   8    -0.01   0.01  -0.00     0.00  -0.00  -0.00     0.00  -0.00  -0.00
   2   6    -0.04   0.02  -0.02    -0.01   0.00   0.00    -0.01   0.01  -0.00
   3   1    -0.04   0.01  -0.01     0.01  -0.00   0.00    -0.00  -0.00  -0.00
   4   1    -0.01  -0.00   0.00    -0.01   0.00  -0.00    -0.01   0.00  -0.00
   5   6     0.03   0.11  -0.07    -0.03  -0.01   0.03    -0.02   0.01   0.01
   6   1     0.03   0.13   0.02    -0.01  -0.03  -0.00    -0.00   0.01   0.01
   7   1     0.03   0.03  -0.14    -0.01  -0.00   0.04    -0.00   0.00   0.00
   8   7    -0.02  -0.15   0.15    -0.00   0.04  -0.01    -0.01   0.00   0.01
   9   6    -0.04  -0.21  -0.07     0.02   0.05  -0.00     0.02  -0.00  -0.01
  10   1    -0.01  -0.12  -0.03     0.01   0.02   0.00     0.01  -0.00  -0.00
  11   1    -0.01  -0.03  -0.06     0.01   0.02   0.00     0.00   0.01  -0.01
  12   1    -0.01  -0.03  -0.04     0.01   0.01   0.00     0.00  -0.01   0.00
  13   6     0.02   0.13  -0.12     0.01  -0.05   0.01     0.00  -0.02  -0.02
  14   1     0.08   0.10  -0.03    -0.01  -0.03   0.00     0.01  -0.01  -0.00
  15   1    -0.06   0.03  -0.11     0.02  -0.01   0.01     0.00  -0.00  -0.00
  16   1     0.01   0.05  -0.05    -0.01  -0.02  -0.00    -0.01  -0.01  -0.02
  17   6     0.05   0.03   0.20     0.00  -0.03  -0.03     0.01  -0.01   0.01
  18   1     0.03   0.01   0.11    -0.00  -0.01  -0.03     0.00  -0.00  -0.00
  19   1     0.02   0.05   0.02     0.00  -0.02  -0.00     0.01  -0.01  -0.00
  20   1     0.01   0.02   0.04     0.00  -0.01   0.00     0.01  -0.01   0.01
  21   1    -0.00  -0.00  -0.01    -0.00  -0.00   0.01    -0.00  -0.00   0.00
  22   6    -0.05   0.11  -0.07     0.10  -0.15  -0.01    -0.03   0.06  -0.01
  23   8    -0.18   0.03  -0.03     0.14  -0.15  -0.03    -0.06   0.04   0.01
  24   7     0.18   0.06  -0.00    -0.23   0.04   0.13     0.09  -0.00  -0.04
  25   1     0.06  -0.06  -0.00    -0.10   0.08  -0.09     0.04  -0.02   0.03
  26   1     0.10   0.07   0.01    -0.16  -0.04   0.12     0.05   0.00  -0.07
  27   7    -0.01  -0.13   0.02     0.06   0.20  -0.16    -0.01  -0.07   0.06
  28   1    -0.14  -0.22  -0.09     0.05  -0.09  -0.38    -0.02   0.01   0.11
  29   1     0.18   0.03   0.35    -0.02   0.29   0.52     0.02  -0.10  -0.16
  30   6     0.03   0.07   0.02     0.02   0.06   0.01     0.02   0.03   0.00
  31   8     0.01   0.09  -0.00     0.01   0.08  -0.00     0.01   0.03  -0.01
  32   7    -0.09  -0.05  -0.04    -0.07  -0.03  -0.05    -0.04  -0.01  -0.01
  33   1     0.05  -0.10  -0.07     0.04  -0.08  -0.06    -0.00  -0.03   0.00
  34   1    -0.09   0.03   0.01    -0.08   0.03   0.02    -0.03   0.00  -0.02
  35   7     0.07  -0.09   0.04     0.06  -0.06   0.02     0.02  -0.03   0.03
  36   1     0.03  -0.03   0.08     0.00  -0.01   0.10     0.04  -0.02  -0.00
[...]
  44   1    -0.01   0.01  -0.01    -0.01   0.03  -0.02    -0.00   0.00  -0.00
  45   1    -0.06  -0.10   0.01    -0.15  -0.25   0.03    -0.00   0.00  -0.00
  46   6    -0.02   0.01   0.01     0.01   0.00   0.00    -0.00   0.00  -0.00
  47   8     0.00  -0.01   0.00    -0.00   0.00   0.00     0.00  -0.00  -0.00
  48   7    -0.14  -0.02   0.06    -0.07  -0.02   0.03     0.02   0.00  -0.01
  49   1     0.56   0.03  -0.24     0.27   0.01  -0.12    -0.08  -0.00   0.04
  50   1    -0.04   0.06   0.01    -0.02   0.03   0.01     0.01  -0.01  -0.00
  51   7    -0.06  -0.09  -0.01     0.13   0.16   0.01    -0.00  -0.00   0.00
  52   1     0.03  -0.05  -0.01    -0.05   0.10   0.02     0.00  -0.00  -0.00
  53   1     0.23   0.38   0.02    -0.43  -0.70  -0.04     0.00   0.00   0.00
                    142                    143                    144
                        a                      a                      a 
 Frequencies --  3497.2812              3498.2438              3500.1511
 Red. masses --     1.4561                 1.4503                 1.4504
 Frc consts  --     0.0000                 0.0000                 0.0000
 IR Inten    --    13.1363                17.7258                22.3501
 Raman Activ --     0.0000                 0.0000                 0.0000
 Depolar     --     0.0000                 0.0000                 0.0000
 Atom AN      X      Y      Z        X      Y      Z        X      Y      Z
   1   8    -0.00  -0.00   0.00     0.00  -0.00   0.00     0.00   0.00  -0.00
   2   6    -0.00   0.00  -0.00     0.00  -0.00   0.00     0.00  -0.00   0.00
   3   1    -0.00  -0.00   0.00    -0.00   0.00  -0.00    -0.00   0.00  -0.00
   4   1     0.00  -0.00  -0.00    -0.00   0.00   0.00    -0.00   0.00   0.00
   5   6     0.00   0.00  -0.00     0.00  -0.00  -0.00     0.00   0.00  -0.00
   6   1     0.00   0.00   0.00     0.00  -0.00   0.00    -0.00  -0.00   0.00
   7   1    -0.00  -0.00   0.00     0.00  -0.00   0.00    -0.00   0.00  -0.00
   8   7     0.00  -0.00   0.00    -0.00   0.00   0.00    -0.00  -0.00  -0.00
   9   6     0.00   0.00  -0.00    -0.00  -0.00  -0.00    -0.00   0.00  -0.00
  10   1     0.00  -0.00   0.00     0.00   0.00  -0.00    -0.00  -0.00   0.00
  11   1     0.00   0.00  -0.00    -0.00   0.00   0.00     0.00  -0.00  -0.00
  12   1    -0.00   0.00  -0.00     0.00  -0.00   0.00     0.00   0.00   0.00
  13   6     0.00   0.00  -0.00    -0.00   0.00  -0.00    -0.00   0.00  -0.00
  14   1     0.00   0.00  -0.00     0.00   0.00  -0.00    -0.00  -0.00   0.00
  15   1    -0.00  -0.00   0.00     0.00  -0.00   0.00    -0.00  -0.00   0.00
  16   1    -0.00   0.00   0.00     0.00   0.00   0.00     0.00  -0.00  -0.00
  17   6     0.00   0.00  -0.00     0.00   0.00   0.00    -0.00   0.00   0.00
  18   1    -0.00  -0.00  -0.00    -0.00  -0.00   0.00    -0.00  -0.00  -0.00
  19   1     0.00   0.00   0.00    -0.00  -0.00  -0.00     0.00   0.00   0.00
  20   1    -0.00   0.00   0.00    -0.00   0.00   0.00    -0.00   0.00  -0.00
  21   1     0.00   0.00  -0.00    -0.00   0.00  -0.00    -0.00   0.00  -0.00
  22   6    -0.00  -0.00   0.00     0.00  -0.00   0.00    -0.00  -0.00   0.00
  23   8    -0.00  -0.00  -0.00    -0.00   0.00  -0.00     0.00   0.00  -0.00
  24   7     0.00  -0.00   0.00    -0.01   0.00  -0.00     0.00   0.00  -0.00
  25   1     0.00  -0.00   0.00     0.01   0.00  -0.00    -0.00  -0.00   0.00
  26   1    -0.00   0.00  -0.00     0.02  -0.03   0.01     0.00  -0.00   0.00
  27   7    -0.01  -0.00   0.00     0.18   0.02  -0.00     0.00  -0.00   0.00
  28   1     0.01  -0.01   0.01    -0.46   0.50  -0.24    -0.00   0.00  -0.00
  29   1     0.01   0.02  -0.01    -0.22  -0.58   0.24    -0.00  -0.00   0.00
  30   6    -0.00  -0.00   0.00    -0.00  -0.00   0.00    -0.00  -0.00   0.00
  31   8     0.00   0.00  -0.00     0.00   0.00  -0.00     0.00   0.00  -0.00
  32   7     0.04  -0.13   0.13     0.00  -0.00   0.00     0.00  -0.00   0.00
  33   1    -0.49  -0.17  -0.38    -0.01  -0.01  -0.01    -0.00  -0.00  -0.00
  34   1     0.36   0.64  -0.11     0.01   0.02  -0.00     0.00   0.00  -0.00
  35   7    -0.00   0.01  -0.00    -0.00  -0.00  -0.00    -0.00   0.00  -0.00
  36   1    -0.01  -0.03  -0.00     0.00   0.01  -0.00    -0.00  -0.00   0.00
  37   1     0.01  -0.01   0.01     0.01  -0.01   0.01     0.00  -0.00   0.00
  38   6    -0.00  -0.00   0.00     0.00   0.00  -0.00    -0.00  -0.00   0.00
  39   8     0.00   0.00  -0.00    -0.00  -0.00   0.00    -0.00   0.00  -0.00
  40   7     0.00   0.00  -0.00     0.00   0.00  -0.00    -0.09  -0.14   0.06
  41   1    -0.00   0.00  -0.00    -0.00   0.00  -0.00     0.66  -0.04   0.02
  42   1     0.00  -0.00   0.00     0.00  -0.00   0.00    -0.33   0.58  -0.26
  43   7     0.00  -0.00   0.00    -0.00   0.00  -0.00    -0.01   0.03  -0.02
  44   1    -0.00   0.00  -0.00     0.00  -0.00   0.00     0.05  -0.08   0.06
  45   1    -0.00  -0.00   0.00     0.00   0.00  -0.00    -0.01  -0.01   0.00
  46   6    -0.00  -0.00   0.00     0.00   0.00  -0.00    -0.00  -0.00   0.00
  47   8    -0.00   0.00  -0.00    -0.00   0.00   0.00     0.00   0.00  -0.00
  48   7     0.00  -0.00  -0.00    -0.00  -0.00   0.00    -0.00   0.00  -0.00
  49   1     0.00  -0.00   0.00     0.01   0.00  -0.00    -0.00   0.00   0.00
  50   1    -0.00   0.00   0.00    -0.00   0.01   0.00     0.00  -0.00  -0.00
  51   7     0.00   0.00  -0.00    -0.00   0.00   0.00     0.00   0.00  -0.00
  52   1    -0.00   0.00   0.00     0.00  -0.00  -0.00    -0.00   0.01   0.00
  53   1    -0.00  -0.00  -0.00     0.00   0.00   0.00    -0.01  -0.01  -0.00
                    145                    146                    147
                        a                      a                      a 
 Frequencies --  3511.2103              3532.7142              3533.9747
 Red. masses --     1.8795                 1.9056                 1.9485
 Frc consts  --     0.0000                 0.0000                 0.0000
 IR Inten    --    11.4022                 3.1240                18.9159
 Raman Activ --     0.0000                 0.0000                 0.0000
 Depolar     --     0.0000                 0.0000                 0.0000
 Atom AN      X      Y      Z        X      Y      Z        X      Y      Z
   1   8     0.00  -0.00   0.00    -0.00  -0.00   0.00    -0.00  -0.00  -0.00
   2   6     0.00  -0.00  -0.00     0.00   0.00  -0.00     0.00   0.00  -0.00
   3   1     0.00  -0.00   0.00    -0.00  -0.00   0.00     0.00  -0.00   0.00
   4   1    -0.00   0.00   0.00    -0.00   0.00  -0.00     0.00  -0.00  -0.00
   5   6    -0.00  -0.00   0.00    -0.00  -0.00   0.00     0.00   0.00   0.00
   6   1    -0.00   0.00  -0.00     0.00   0.00  -0.00    -0.00  -0.00  -0.00
   7   1     0.00   0.00   0.00     0.00   0.00   0.00     0.00  -0.00  -0.00
   8   7    -0.00   0.00  -0.00     0.00   0.00   0.00     0.00  -0.00   0.00
   9   6     0.00   0.00  -0.00    -0.00   0.00   0.00    -0.00   0.00  -0.00
  10   1     0.00  -0.00   0.00     0.00   0.00  -0.00    -0.00  -0.00   0.00
  11   1    -0.00   0.00   0.00    -0.00  -0.00  -0.00     0.00  -0.00  -0.00
  12   1    -0.00  -0.00  -0.00     0.00  -0.00  -0.00    -0.00  -0.00  -0.00
  13   6     0.00  -0.00  -0.00    -0.00  -0.00   0.00    -0.00  -0.00   0.00
  14   1     0.00  -0.00   0.00    -0.00  -0.00  -0.00    -0.00  -0.00  -0.00
  15   1     0.00   0.00   0.00     0.00   0.00  -0.00     0.00   0.00  -0.00
  16   1    -0.00   0.00   0.00     0.00  -0.00  -0.00    -0.00  -0.00  -0.00
  17   6     0.00   0.00  -0.00     0.00  -0.00  -0.00     0.00   0.00  -0.00
  18   1     0.00   0.00  -0.00     0.00   0.00   0.00     0.00  -0.00   0.00
  19   1     0.00  -0.00  -0.00    -0.00  -0.00  -0.00     0.00  -0.00   0.00
  20   1    -0.00   0.00   0.00    -0.00   0.00  -0.00    -0.00   0.00   0.00
  21   1    -0.00   0.00  -0.00     0.00  -0.00  -0.00     0.00  -0.00   0.00
  22   6    -0.00  -0.00   0.00    -0.00   0.00  -0.00     0.00  -0.00   0.00
  23   8     0.00  -0.00  -0.00     0.00  -0.00  -0.00    -0.00   0.00  -0.00
  24   7    -0.00   0.00  -0.00    -0.01   0.01  -0.00     0.00  -0.00   0.00
  25   1    -0.00  -0.00   0.00     0.00   0.00  -0.00    -0.01  -0.00   0.00
  26   1     0.01  -0.01   0.00     0.02  -0.03   0.01    -0.01   0.01  -0.00
  27   7     0.00  -0.00   0.00     0.00  -0.00   0.00    -0.00   0.00  -0.00
  28   1    -0.00   0.00  -0.00    -0.00   0.00  -0.00     0.01  -0.01   0.01
  29   1    -0.00  -0.00   0.00     0.00   0.00  -0.00    -0.00  -0.00  -0.00
  30   6     0.00  -0.00   0.00     0.00  -0.00   0.00     0.00  -0.01   0.00
  31   8    -0.00   0.00  -0.00    -0.00   0.00  -0.00    -0.00   0.00  -0.00
  32   7    -0.00   0.00  -0.00     0.00   0.00   0.00     0.02   0.01   0.01
  33   1     0.00   0.00   0.00    -0.01  -0.00  -0.01    -0.07  -0.02  -0.06
  34   1    -0.00  -0.00   0.00    -0.00  -0.00   0.00    -0.01  -0.03   0.01
  35   7    -0.00  -0.00  -0.00    -0.01  -0.03   0.00    -0.06  -0.26   0.03
  36   1     0.00   0.00   0.00     0.03   0.10  -0.00     0.31   0.89  -0.00
  37   1     0.00  -0.00   0.00    -0.01   0.01  -0.01    -0.07   0.08  -0.11
  38   6    -0.00  -0.01   0.01     0.00  -0.00   0.00    -0.00   0.00  -0.00
  39   8    -0.00   0.00  -0.00    -0.00   0.00  -0.00     0.00  -0.00   0.00
  40   7    -0.02  -0.01   0.00    -0.00   0.00  -0.00     0.00  -0.00   0.00
  41   1     0.11  -0.01   0.00    -0.00   0.00  -0.00     0.00  -0.00   0.00
  42   1    -0.03   0.05  -0.02     0.00  -0.01   0.00    -0.00   0.00  -0.00
  43   7     0.10  -0.20   0.13    -0.00   0.00  -0.00     0.00   0.00  -0.00
  44   1    -0.41   0.69  -0.51     0.00  -0.01   0.00     0.00  -0.00   0.00
  45   1     0.05   0.05   0.01    -0.00  -0.00   0.00    -0.00  -0.00   0.00
  46   6     0.00  -0.00  -0.00    -0.01  -0.00   0.00     0.00   0.00  -0.00
  47   8    -0.00   0.00  -0.00     0.00   0.00  -0.00     0.00  -0.00   0.00
  48   7    -0.00   0.00  -0.00    -0.11   0.17   0.03     0.01  -0.02  -0.00
  49   1    -0.00  -0.00   0.00     0.06   0.02  -0.03    -0.01  -0.00   0.01
  50   1     0.00  -0.00  -0.00     0.39  -0.65  -0.08    -0.04   0.06   0.01
  51   7    -0.00  -0.00  -0.00     0.07  -0.14  -0.02    -0.01   0.02   0.00
  52   1    -0.00   0.00   0.00    -0.29   0.50   0.07     0.04  -0.07  -0.01
  53   1     0.00   0.00   0.00     0.04   0.05   0.00    -0.01  -0.01  -0.00
                    148                    149                    150
                        a                      a                      a 
 Frequencies --  3537.5247              3538.4421              3561.9973
 Red. masses --     1.9047                 1.8989                 2.1714
 Frc consts  --     0.0000                 0.0000                 0.0000
 IR Inten    --    13.0703                29.8447                 7.4740
 Raman Activ --     0.0000                 0.0000                 0.0000
 Depolar     --     0.0000                 0.0000                 0.0000
 Atom AN      X      Y      Z        X      Y      Z        X      Y      Z
   1   8    -0.00   0.00   0.00     0.00  -0.00  -0.00     0.00   0.00   0.00
   2   6    -0.00  -0.00  -0.00    -0.00  -0.00   0.00    -0.00  -0.00  -0.00
   3   1     0.00  -0.00   0.00     0.00   0.00  -0.00    -0.00   0.00  -0.00
   4   1    -0.00   0.00   0.00     0.00  -0.00   0.00    -0.00   0.00   0.00
   5   6     0.00  -0.00   0.00     0.00  -0.00  -0.00     0.00   0.00  -0.00
   6   1    -0.00  -0.00  -0.00    -0.00  -0.00   0.00     0.00   0.00   0.00
   7   1     0.00   0.00  -0.00     0.00   0.00   0.00    -0.00  -0.00   0.00
   8   7    -0.00  -0.00  -0.00    -0.00  -0.00  -0.00    -0.00  -0.00   0.00
   9   6     0.00   0.00   0.00    -0.00  -0.00  -0.00     0.00  -0.00  -0.00
  10   1    -0.00  -0.00  -0.00    -0.00  -0.00   0.00     0.00   0.00   0.00
  11   1    -0.00  -0.00  -0.00     0.00  -0.00  -0.00    -0.00   0.00   0.00
  12   1    -0.00  -0.00   0.00     0.00   0.00   0.00    -0.00   0.00  -0.00
  13   6     0.00  -0.00   0.00    -0.00  -0.00   0.00     0.00   0.00  -0.00
  14   1     0.00   0.00  -0.00     0.00  -0.00  -0.00     0.00   0.00   0.00
  15   1     0.00  -0.00   0.00     0.00   0.00  -0.00     0.00  -0.00   0.00
  16   1    -0.00   0.00  -0.00     0.00  -0.00   0.00     0.00   0.00   0.00
  17   6     0.00  -0.00   0.00    -0.00   0.00  -0.00     0.00   0.00   0.00
  18   1     0.00   0.00   0.00    -0.00  -0.00   0.00    -0.00  -0.00  -0.00
  19   1    -0.00  -0.00  -0.00     0.00   0.00   0.00     0.00   0.00  -0.00
  20   1    -0.00   0.00   0.00     0.00  -0.00  -0.00     0.00   0.00  -0.00
  21   1     0.00  -0.00   0.00    -0.00   0.00  -0.00    -0.00   0.00  -0.00
  22   6    -0.01   0.00  -0.00    -0.00   0.00  -0.00    -0.00  -0.00   0.00
  23   8     0.00  -0.00   0.00     0.00  -0.00  -0.00     0.00  -0.00   0.00
  24   7    -0.18   0.18  -0.07    -0.01   0.01  -0.00     0.00  -0.00   0.00
  25   1     0.08   0.02  -0.03     0.01   0.00  -0.00     0.00  -0.00  -0.00
  26   1     0.61  -0.67   0.29     0.03  -0.03   0.01    -0.00   0.00  -0.00
  27   7    -0.00  -0.03   0.01     0.00  -0.00   0.00     0.00  -0.01   0.01
  28   1    -0.02   0.02  -0.01    -0.01   0.01  -0.00    -0.02   0.02  -0.01
  29   1     0.03   0.08  -0.03     0.00   0.01  -0.00     0.01   0.03  -0.01
  30   6     0.00   0.00   0.00     0.00  -0.00   0.00     0.01   0.01   0.00
  31   8    -0.00  -0.00   0.00     0.00   0.00  -0.00    -0.00  -0.00  -0.00
  32   7    -0.00  -0.00  -0.00    -0.00  -0.00  -0.00     0.22   0.18   0.09
  33   1     0.00   0.00   0.00     0.00   0.00   0.00    -0.54  -0.16  -0.44
  34   1     0.00   0.00  -0.00     0.00   0.00  -0.00    -0.29  -0.54   0.12
  35   7    -0.00  -0.00   0.00     0.00   0.00  -0.00     0.00   0.02  -0.00
  36   1     0.00   0.01  -0.00    -0.01  -0.02   0.00    -0.03  -0.09  -0.00
  37   1    -0.00   0.00  -0.00     0.00  -0.00   0.00     0.01  -0.01   0.01
  38   6    -0.00  -0.00  -0.00    -0.00   0.00  -0.00    -0.00  -0.00   0.00
  39   8     0.00   0.00   0.00     0.00  -0.00   0.00     0.00   0.00  -0.00
  40   7     0.00   0.00  -0.00     0.00  -0.00   0.00    -0.00   0.00  -0.00
  41   1    -0.00   0.00  -0.00    -0.00   0.00   0.00     0.00  -0.00   0.00
  42   1     0.00  -0.00   0.00    -0.00   0.01  -0.00     0.00  -0.00   0.00
  43   7    -0.00   0.00  -0.00     0.00   0.00  -0.00     0.00   0.00  -0.00
  44   1     0.00  -0.01   0.00     0.00   0.00   0.00    -0.00   0.00  -0.00
  45   1    -0.00  -0.00   0.00    -0.00  -0.01   0.00    -0.00  -0.00   0.00
  46   6     0.00   0.00   0.00    -0.01   0.01   0.00     0.00   0.00   0.00
  47   8     0.00  -0.00   0.00     0.00  -0.00  -0.00    -0.00  -0.00  -0.00
  48   7     0.01  -0.01  -0.00    -0.09   0.13   0.02    -0.00   0.00   0.00
  49   1    -0.00  -0.00   0.00     0.04   0.01  -0.02     0.00   0.00  -0.00
  50   1    -0.03   0.05   0.01     0.30  -0.50  -0.06     0.00  -0.00   0.00
  51   7     0.00  -0.00  -0.00    -0.09   0.19   0.03     0.00  -0.00  -0.00
  52   1    -0.01   0.01   0.00     0.39  -0.65  -0.09    -0.00   0.00   0.00
  53   1    -0.00  -0.00  -0.00    -0.05  -0.06  -0.00    -0.00  -0.00   0.00
                    151                    152                    153
                        a                      a                      a 
 Frequencies --  3563.6519              3568.0265              3585.7496
 Red. masses --     2.1796                 2.1888                 1.8816
 Frc consts  --     0.0000                 0.0000                 0.0000
 IR Inten    --    15.5231                15.0305                28.6321
 Raman Activ --     0.0000                 0.0000                 0.0000
 Depolar     --     0.0000                 0.0000                 0.0000
 Atom AN      X      Y      Z        X      Y      Z        X      Y      Z
   1   8     0.00  -0.00   0.00    -0.00   0.00  -0.00     0.24  -0.01   0.02
   2   6     0.00  -0.00   0.00    -0.00   0.00  -0.00     0.00   0.00  -0.00
   3   1     0.00  -0.00  -0.00    -0.00  -0.00   0.00     0.00  -0.00   0.00
   4   1    -0.00  -0.00  -0.00    -0.00   0.00   0.00    -0.01   0.00   0.00
   5   6     0.00  -0.00  -0.00    -0.00  -0.00   0.00    -0.00   0.00  -0.00
   6   1    -0.00   0.00  -0.00     0.00   0.00  -0.00     0.00   0.00  -0.00
   7   1     0.00   0.00   0.00     0.00   0.00   0.00     0.00  -0.00   0.00
   8   7    -0.00  -0.00   0.00     0.00   0.00   0.00    -0.00  -0.00  -0.00
   9   6    -0.00   0.00  -0.00     0.00   0.00  -0.00    -0.00  -0.00  -0.00
  10   1    -0.00  -0.00   0.00     0.00  -0.00   0.00     0.00   0.00  -0.00
  11   1     0.00  -0.00  -0.00    -0.00   0.00   0.00    -0.00   0.00   0.00
  12   1     0.00  -0.00   0.00    -0.00  -0.00  -0.00     0.01   0.00   0.00
  13   6    -0.00  -0.00   0.00     0.00  -0.00  -0.00     0.00  -0.00  -0.00
  14   1    -0.00   0.00  -0.00     0.00  -0.00   0.00     0.00   0.00   0.00
  15   1     0.00   0.00   0.00     0.00   0.00  -0.00     0.00   0.00   0.00
  16   1    -0.00  -0.00  -0.00    -0.00   0.00   0.00    -0.00   0.00   0.00
  17   6     0.00   0.00   0.00     0.00   0.00  -0.00    -0.00  -0.00  -0.00
  18   1     0.00  -0.00   0.00     0.00   0.00  -0.00     0.00  -0.00   0.00
  19   1     0.00  -0.00   0.00    -0.00  -0.00  -0.00     0.00   0.00   0.00
  20   1     0.00   0.00   0.00    -0.00   0.00   0.00    -0.00   0.00   0.00
  21   1    -0.00   0.00  -0.00     0.01  -0.00   0.00    -0.97   0.04  -0.06
  22   6    -0.00   0.01  -0.00     0.00  -0.00   0.00     0.00  -0.00   0.00
  23   8     0.00  -0.00   0.00    -0.00   0.00  -0.00    -0.00   0.00  -0.00
  24   7    -0.02   0.01  -0.01     0.00  -0.00   0.00    -0.00   0.00  -0.00
  25   1     0.01   0.00  -0.00    -0.00  -0.00   0.00     0.00   0.00  -0.00
  26   1     0.06  -0.07   0.03    -0.00   0.00  -0.00     0.00  -0.00   0.00
  27   7    -0.05   0.27  -0.12     0.00  -0.00   0.00    -0.00  -0.00   0.00
  28   1     0.43  -0.43   0.21    -0.00   0.00  -0.00    -0.00   0.00  -0.00
  29   1    -0.26  -0.60   0.24     0.00   0.00  -0.00     0.00   0.00  -0.00
  30   6     0.00   0.00   0.00     0.00   0.00   0.00     0.00   0.00   0.00
  31   8    -0.00  -0.00  -0.00    -0.00  -0.00   0.00    -0.00  -0.00   0.00
  32   7     0.01   0.01   0.00     0.00   0.00   0.00    -0.00  -0.00  -0.00
  33   1    -0.02  -0.01  -0.02    -0.00  -0.00  -0.00     0.00   0.00   0.00
  34   1    -0.01  -0.02   0.01    -0.00  -0.00   0.00     0.00   0.00  -0.00
  35   7    -0.00   0.00  -0.00    -0.00   0.00  -0.00    -0.00  -0.00  -0.00
  36   1    -0.00  -0.01  -0.00    -0.00  -0.00  -0.00     0.00   0.00  -0.00
  37   1     0.00  -0.01   0.01     0.00  -0.00   0.00     0.00  -0.00   0.00
  38   6     0.00  -0.00   0.00     0.01  -0.00   0.00     0.00  -0.00   0.00
  39   8    -0.00   0.00  -0.00    -0.00   0.00  -0.00    -0.00   0.00  -0.00
  40   7     0.00  -0.00   0.00     0.25  -0.15   0.07     0.00  -0.00   0.00
  41   1    -0.00   0.00  -0.00    -0.69   0.01  -0.01    -0.00   0.00   0.00
  42   1    -0.00   0.00  -0.00    -0.28   0.54  -0.24    -0.00   0.00  -0.00
  43   7     0.00   0.00  -0.00     0.00  -0.01   0.01    -0.00  -0.00   0.00
  44   1     0.00  -0.00   0.00    -0.02   0.03  -0.02    -0.00   0.00  -0.00
  45   1    -0.00  -0.00   0.00     0.00   0.00   0.00     0.00   0.00  -0.00
  46   6    -0.00   0.00   0.00     0.00  -0.00  -0.00     0.00   0.00   0.00
  47   8     0.00  -0.00   0.00    -0.00   0.00  -0.00    -0.00  -0.00  -0.00
  48   7    -0.00   0.00   0.00     0.00  -0.00  -0.00     0.00  -0.00  -0.00
  49   1     0.01   0.00  -0.00    -0.00  -0.00   0.00     0.00  -0.00  -0.00
  50   1     0.00  -0.01  -0.00    -0.00   0.00   0.00    -0.00   0.00   0.00
  51   7    -0.00   0.00   0.00    -0.00  -0.00  -0.00     0.00  -0.00  -0.00
  52   1     0.00  -0.00  -0.00    -0.00   0.01   0.00    -0.00   0.00   0.00
  53   1    -0.00  -0.00  -0.00     0.00   0.01   0.00     0.00   0.00   0.00
