 Entering Gaussian System
 *********************************************
 Gaussian 98:
 frequency output generated by the xtb code
 *********************************************
                         Standard orientation:
 --------------------------------------------------------------------
  Center     Atomic     Atomic              Coordinates (Angstroms)
  Number     Number      Type              X           Y           Z
 --------------------------------------------------------------------
    1          8             0        0.441424   -2.380708   -1.210278
    2          6             0        0.392964   -2.824719    0.121504
    3          1             0       -0.613891   -3.218291    0.276440
    4          1             0        1.114784   -3.638367    0.276174
    5          6             0        0.725820   -1.723502    1.134984
    6          1             0        1.558930   -1.147552    0.723093
    7          1             0        1.045972   -2.183988    2.071265
    8          7             0       -0.366723   -0.765099    1.450197
    9          6             0        0.231036    0.374140    2.166798
   10          1             0        0.942254    0.885525    1.519078
   11          1             0        0.733839    0.034892    3.069859
   12          1             0       -0.554706    1.084710    2.422035
   13          6             0       -1.395630   -1.385459    2.300141
   14          1             0       -2.131136   -0.629526    2.567490
   15          1             0       -0.948942   -1.786758    3.207557
   16          1             0       -1.904293   -2.178360    1.754480
   17          6             0       -1.019683   -0.269040    0.226322
   18          1             0       -1.624193    0.600802    0.479829
   19          1             0       -1.652341   -1.051185   -0.188851
   20          1             0       -0.267519    0.015238   -0.503070
   21          1             0        1.307834   -1.972336   -1.374849
   22          6             0        3.836880   -0.326213   -0.628863
   23          8             0        2.813658   -0.789789   -1.145293
   24          7             0        3.814438    0.826726    0.062753
   25          1             0        2.969767    1.402625    0.029850
   26          1             0        4.663809    1.252719    0.386418
   27          7             0        5.008600   -0.995338   -0.680196
   28          1             0        5.861301   -0.613233   -0.314558
   29          1             0        5.054455   -1.846568   -1.211483
   30          6             0       -1.515287    3.673013    1.708658
   31          8             0       -1.849753    2.501472    1.620617
   32          7             0       -2.300121    4.602320    2.308827
   33          1             0       -3.227253    4.328446    2.582511
   34          1             0       -2.090619    5.583265    2.271702
   35          7             0       -0.341502    4.136283    1.193703
   36          1             0        0.009181    5.029260    1.494976
   37          1             0        0.353273    3.445816    0.916709
   38          6             0       -3.022488   -3.416297   -1.158644
   39          8             0       -2.725445   -2.965554   -0.058810
   40          7             0       -2.217638   -3.261613   -2.238360
   41          1             0       -1.276405   -2.927169   -2.081887
   42          1             0       -2.392067   -3.775121   -3.083417
   43          7             0       -4.182121   -4.084757   -1.368995
   44          1             0       -4.484981   -4.349168   -2.288415
   45          1             0       -4.853310   -4.112222   -0.622203
   46          6             0        0.911422    2.240883   -1.318662
   47          8             0        1.397072    2.264064   -0.180302
   48          7             0        1.116118    1.204359   -2.150189
   49          1             0        1.753009    0.456841   -1.869155
   50          1             0        0.804315    1.231624   -3.103540
   51          7             0        0.140390    3.251190   -1.775036
   52          1             0       -0.353286    3.175487   -2.645851
   53          1             0       -0.161846    3.949940   -1.115718
 --------------------------------------------------------------------
     1 basis functions        1 primitive gaussians
     1 alpha electrons        1 beta electrons

 Harmonic frequencies (cm**-1), IR intensities (km*mol⁻¹),
 Raman scattering activities (A**4/amu), Raman depolarization ratios,
 reduced masses (AMU), force constants (mDyne/A) and normal coordinates:
                      1                      2                      3
                        a                      a                      a 
 Frequencies --    19.9710                29.9249                31.8172
 Red. masses --    12.3503                12.2755                12.6561
 Frc consts  --     0.0000                 0.0000                 0.0000
 IR Inten    --     1.2969                 1.3224                 1.1742
 Raman Activ --     0.0000                 0.0000                 0.0000
 Depolar     --     0.0000                 0.0000                 0.0000
 Atom AN      X      Y      Z        X      Y      Z        X      Y      Z
   1   8    -0.05   0.02  -0.03    -0.00  -0.13   0.03    -0.03   0.20  -0.05
   2   6    -0.01   0.04  -0.02     0.01  -0.08   0.04     0.06   0.13  -0.06
   3   1     0.00  -0.00  -0.00     0.00  -0.02   0.02     0.02   0.02  -0.01
   4   1     0.01   0.02  -0.00    -0.00  -0.03   0.01     0.03   0.05  -0.03
   5   6    -0.06   0.07  -0.04     0.05  -0.06   0.01     0.05   0.11  -0.03
   6   1    -0.03   0.03  -0.01     0.02  -0.03  -0.00     0.01   0.04  -0.01
   7   1    -0.01   0.03  -0.01     0.01  -0.01   0.01     0.02   0.02  -0.02
   8   7    -0.11   0.03  -0.06     0.09  -0.01  -0.03     0.03   0.07   0.02
   9   6    -0.16   0.05  -0.04     0.12  -0.02  -0.04     0.01   0.05   0.06
  10   1    -0.04   0.02  -0.01     0.04  -0.01  -0.01    -0.00   0.03   0.02
  11   1    -0.05   0.02  -0.01     0.03  -0.01  -0.01     0.01   0.01   0.01
  12   1    -0.05   0.01  -0.02     0.04   0.00  -0.02    -0.00   0.01   0.03
  13   6    -0.09  -0.01  -0.07     0.05   0.05  -0.02     0.04   0.01  -0.00
  14   1    -0.03  -0.01  -0.02     0.02   0.03  -0.02     0.01  -0.00   0.01
  15   1    -0.02  -0.00  -0.02     0.01   0.02  -0.00     0.02  -0.01  -0.01
  16   1    -0.02  -0.01  -0.02     0.01   0.02  -0.00     0.02   0.01  -0.01
  17   6    -0.10   0.01  -0.07     0.12  -0.01  -0.05     0.01   0.11   0.04
  18   1    -0.04  -0.00  -0.02     0.03  -0.00  -0.02    -0.01   0.02   0.02
  19   1    -0.02  -0.00  -0.02     0.04  -0.00  -0.02     0.01   0.03  -0.00
  20   1    -0.03   0.01  -0.02     0.04  -0.01  -0.01     0.00   0.05   0.02
  21   1    -0.02   0.01  -0.01    -0.01  -0.02   0.00    -0.01   0.05  -0.03
  22   6    -0.04  -0.05  -0.07    -0.02  -0.03  -0.05    -0.09  -0.14   0.01
  23   8    -0.08   0.02  -0.08    -0.08   0.02  -0.01     0.01  -0.02  -0.34
  24   7     0.03  -0.10  -0.00     0.07  -0.04  -0.05    -0.23  -0.30   0.26
  25   1     0.01  -0.02   0.02     0.02  -0.00   0.00    -0.05  -0.06   0.03
  26   1     0.01  -0.04   0.00     0.03  -0.02  -0.02    -0.08  -0.10   0.13
  27   7    -0.07  -0.09  -0.16    -0.06  -0.09  -0.13    -0.11  -0.18   0.16
  28   1    -0.01  -0.04  -0.04    -0.01  -0.04  -0.05    -0.05  -0.07   0.11
  29   1    -0.03  -0.02  -0.06    -0.03  -0.02  -0.04    -0.00  -0.02  -0.00
  30   6     0.07   0.13  -0.02    -0.17  -0.13  -0.07    -0.07  -0.03   0.08
  31   8     0.00   0.19  -0.19    -0.07  -0.19  -0.07    -0.11  -0.04   0.23
  32   7     0.07   0.14  -0.03    -0.34  -0.18  -0.24    -0.00   0.03   0.08
  33   1     0.00   0.05  -0.05    -0.09  -0.07  -0.09     0.00   0.02   0.05
  34   1     0.04   0.04   0.03    -0.11  -0.04  -0.06     0.00   0.01  -0.01
  35   7     0.18   0.11   0.18    -0.15  -0.07   0.05    -0.11  -0.09  -0.07
  36   1     0.06   0.01   0.08    -0.07  -0.01   0.02    -0.02  -0.02  -0.04
  37   1     0.04   0.02   0.05    -0.02  -0.01   0.04    -0.04  -0.03  -0.02
  38   6     0.05  -0.24   0.02    -0.07   0.05   0.10     0.07  -0.02   0.04
  39   8     0.00  -0.14  -0.02    -0.01   0.02   0.10     0.09   0.01   0.04
  40   7     0.04  -0.28   0.01    -0.08  -0.01   0.09     0.02   0.04   0.01
  41   1     0.00  -0.05  -0.00    -0.02  -0.02   0.02    -0.00   0.03  -0.01
  42   1     0.02  -0.10   0.01    -0.04   0.00   0.02     0.01   0.01   0.01
  43   7     0.11  -0.38   0.07    -0.13   0.15   0.13     0.12  -0.13   0.10
  44   1     0.04  -0.13   0.02    -0.05   0.05   0.04     0.03  -0.04   0.03
  45   1     0.03  -0.10   0.02    -0.03   0.05   0.04     0.04  -0.04   0.03
  46   6     0.05   0.11   0.14     0.16   0.17   0.06     0.05   0.03  -0.13
  47   8     0.09   0.04   0.15     0.12   0.10   0.09    -0.08  -0.10  -0.09
  48   7    -0.05   0.13   0.11     0.11   0.20   0.03     0.14   0.13  -0.24
  49   1    -0.02   0.02   0.01     0.01   0.03   0.01     0.02   0.02  -0.07
  50   1    -0.01   0.06   0.03     0.04   0.07   0.00     0.06   0.06  -0.07
  51   7     0.14   0.20   0.20     0.31   0.29   0.06     0.11   0.10  -0.11
  52   1     0.03   0.07   0.06     0.09   0.10   0.01     0.06   0.06  -0.05
  53   1     0.05   0.05   0.06     0.09   0.07   0.02     0.01   0.01  -0.02
                      4                      5                      6
                        a                      a                      a 
 Frequencies --    32.2545                36.6812                43.9243
 Red. masses --    12.2177                12.2947                12.8062
 Frc consts  --     0.0000                 0.0000                 0.0000
 IR Inten    --     1.4082                 1.7452                 4.7426
 Raman Activ --     0.0000                 0.0000                 0.0000
 Depolar     --     0.0000                 0.0000                 0.0000
 Atom AN      X      Y      Z        X      Y      Z        X      Y      Z
   1   8     0.01   0.17  -0.01     0.11  -0.21   0.30     0.07  -0.07  -0.04
   2   6     0.07   0.11  -0.02     0.07  -0.08   0.29     0.11  -0.06  -0.03
   3   1     0.03   0.01  -0.00     0.02  -0.03   0.08     0.04  -0.03  -0.00
   4   1     0.04   0.04  -0.02     0.02  -0.01   0.11     0.04  -0.01  -0.01
   5   6     0.03   0.10  -0.00     0.01  -0.00   0.22     0.09  -0.05  -0.04
   6   1    -0.01   0.05  -0.01     0.01  -0.01   0.07     0.02  -0.01  -0.01
   7   1     0.03   0.03  -0.01    -0.01   0.02   0.08     0.03  -0.01  -0.01
   8   7    -0.04  -0.00   0.09    -0.01   0.02   0.11     0.08  -0.07  -0.05
   9   6    -0.10   0.02   0.11    -0.05   0.04   0.10     0.06  -0.03  -0.09
  10   1    -0.04   0.03   0.03     0.00   0.00   0.04     0.01  -0.01  -0.03
  11   1    -0.01   0.01   0.02    -0.04   0.02   0.05     0.03   0.00  -0.03
  12   1    -0.04  -0.01   0.05    -0.02   0.02   0.00     0.01  -0.01  -0.03
  13   6     0.06  -0.13   0.10    -0.08   0.06   0.04     0.11  -0.08  -0.00
  14   1     0.00  -0.06   0.05    -0.02   0.02  -0.01     0.02  -0.03  -0.01
  15   1     0.04  -0.04   0.02    -0.05   0.02   0.02     0.04  -0.01   0.00
  16   1     0.03  -0.04   0.03    -0.02   0.02   0.00     0.04  -0.03   0.01
  17   6    -0.12  -0.01   0.13     0.10  -0.02   0.03     0.04  -0.11  -0.04
  18   1    -0.04  -0.01   0.05     0.02  -0.01  -0.01     0.01  -0.03  -0.02
  19   1    -0.03  -0.01   0.04     0.04  -0.01  -0.00     0.01  -0.04   0.00
  20   1    -0.05   0.01   0.03     0.05  -0.01   0.03     0.00  -0.04  -0.02
  21   1     0.01   0.03  -0.01     0.02  -0.03   0.07     0.01  -0.00  -0.02
  22   6     0.09  -0.07  -0.12    -0.13  -0.07  -0.14    -0.12  -0.02   0.08
  23   8     0.12  -0.09  -0.16    -0.18  -0.04  -0.14    -0.09   0.09  -0.11
  24   7     0.04  -0.17   0.02    -0.10  -0.10  -0.10    -0.14  -0.03   0.10
  25   1     0.01  -0.05   0.02    -0.02  -0.02  -0.02    -0.02   0.01  -0.00
  26   1     0.01  -0.04   0.00    -0.02  -0.03  -0.04    -0.04  -0.03   0.07
  27   7     0.14   0.02  -0.27    -0.16  -0.10  -0.22    -0.20  -0.17   0.34
  28   1     0.03  -0.00  -0.05    -0.04  -0.03  -0.06    -0.06  -0.05   0.11
  29   1     0.04   0.02  -0.09    -0.05  -0.02  -0.07    -0.05  -0.03   0.07
  30   6    -0.08   0.04  -0.11     0.01   0.01   0.02     0.10   0.03  -0.11
  31   8    -0.10   0.04  -0.05    -0.03   0.02  -0.02     0.16   0.03  -0.31
  32   7    -0.16   0.12  -0.34     0.04   0.02   0.05     0.02  -0.07  -0.09
  33   1    -0.05   0.04  -0.11     0.01   0.01   0.01    -0.00  -0.03  -0.06
  34   1    -0.03   0.03  -0.10     0.02   0.00   0.02    -0.00  -0.01   0.01
  35   7    -0.01  -0.03  -0.00     0.03  -0.01   0.04     0.14   0.12   0.05
  36   1    -0.01  -0.00  -0.01     0.02  -0.01   0.02     0.02   0.03   0.05
  37   1     0.00  -0.02   0.04     0.00  -0.01   0.00     0.05   0.05   0.00
  38   6     0.04   0.09   0.01     0.15   0.08  -0.10     0.03   0.03   0.05
  39   8     0.08  -0.10   0.08     0.07   0.10  -0.10     0.13  -0.23   0.14
  40   7    -0.02   0.33  -0.00     0.32  -0.03  -0.02    -0.06   0.27   0.02
  41   1    -0.00   0.08   0.01     0.09  -0.03   0.03    -0.01   0.05   0.01
  42   1    -0.01   0.12  -0.02     0.10  -0.01  -0.00    -0.03   0.11  -0.02
  43   7     0.05   0.09  -0.06     0.12   0.19  -0.24     0.01   0.09  -0.00
  44   1     0.01   0.06  -0.03     0.06   0.05  -0.07    -0.02   0.07  -0.01
  45   1     0.02  -0.02  -0.01     0.01   0.08  -0.09     0.02  -0.02   0.01
  46   6    -0.02  -0.13   0.14    -0.07   0.02  -0.03    -0.12   0.08   0.02
  47   8     0.01  -0.19   0.15    -0.07  -0.04  -0.04    -0.00   0.13  -0.03
  48   7    -0.06  -0.12   0.11    -0.09   0.07  -0.09    -0.18   0.08   0.02
  49   1    -0.00  -0.03   0.01    -0.04   0.01  -0.03    -0.03   0.03  -0.01
  50   1    -0.02  -0.02   0.03    -0.04   0.03  -0.02    -0.07   0.02   0.01
  51   7    -0.03  -0.12   0.19    -0.06   0.06   0.02    -0.22   0.05   0.10
  52   1    -0.01  -0.03   0.06    -0.02   0.03   0.01    -0.09   0.00   0.04
  53   1    -0.01  -0.04   0.06    -0.01   0.01   0.02    -0.05   0.01   0.03
                      7                      8                      9
                        a                      a                      a 
 Frequencies --    49.8671                54.0916                56.2549
 Red. masses --    12.5950                12.3625                12.4362
 Frc consts  --     0.0000                 0.0000                 0.0000
 IR Inten    --     5.2449                 1.4129                 1.4726
 Raman Activ --     0.0000                 0.0000                 0.0000
 Depolar     --     0.0000                 0.0000                 0.0000
 Atom AN      X      Y      Z        X      Y      Z        X      Y      Z
   1   8     0.03  -0.05   0.08     0.08  -0.04  -0.03    -0.05  -0.06   0.02
   2   6     0.01  -0.01   0.08     0.08   0.01  -0.02    -0.05  -0.11  -0.01
   3   1     0.01  -0.02   0.02     0.03  -0.01  -0.00    -0.02  -0.03  -0.01
   4   1     0.01   0.01   0.03     0.03   0.01   0.00    -0.02  -0.04  -0.01
   5   6    -0.05   0.03   0.06     0.04   0.05  -0.04    -0.01  -0.17   0.04
   6   1    -0.02   0.01   0.02     0.00   0.02  -0.02     0.00  -0.05   0.02
   7   1    -0.02   0.02   0.02     0.02   0.02  -0.01    -0.01  -0.07   0.01
   8   7    -0.10   0.01  -0.00    -0.00  -0.00  -0.05     0.03  -0.15   0.09
   9   6    -0.15   0.05  -0.02    -0.07   0.02  -0.04     0.07  -0.19   0.12
  10   1    -0.05   0.02  -0.01    -0.02   0.02  -0.01     0.03  -0.06   0.04
  11   1    -0.05   0.03  -0.00    -0.02   0.01  -0.01     0.01  -0.07   0.03
  12   1    -0.05   0.01  -0.02    -0.03  -0.00  -0.01     0.03  -0.04   0.04
  13   6    -0.10  -0.00  -0.01     0.02  -0.05  -0.05     0.00  -0.14   0.05
  14   1    -0.04  -0.01  -0.02    -0.00  -0.02  -0.01     0.01  -0.04   0.03
  15   1    -0.03   0.02   0.01     0.01  -0.01  -0.02    -0.00  -0.06   0.01
  16   1    -0.01  -0.02   0.00     0.01  -0.02  -0.02    -0.01  -0.03   0.00
  17   6    -0.08  -0.05  -0.04    -0.01  -0.04  -0.06     0.05  -0.06   0.10
  18   1    -0.03  -0.02  -0.02    -0.01  -0.01  -0.02     0.02  -0.02   0.04
  19   1    -0.01  -0.02  -0.01     0.00  -0.02  -0.01     0.01  -0.01   0.02
  20   1    -0.02  -0.01  -0.01    -0.01  -0.01  -0.02     0.02  -0.01   0.04
  21   1     0.01  -0.01   0.02     0.02  -0.01  -0.02    -0.02  -0.01   0.01
  22   6     0.01   0.05  -0.00     0.02   0.05   0.03    -0.10   0.09   0.05
  23   8    -0.00  -0.01   0.09     0.12   0.03  -0.12    -0.10   0.05   0.08
  24   7     0.01   0.05   0.01    -0.18  -0.15   0.38    -0.21  -0.03   0.28
  25   1    -0.00   0.00   0.01    -0.05  -0.04   0.08    -0.06  -0.01   0.07
  26   1     0.00   0.03  -0.02    -0.06  -0.02   0.10    -0.06   0.02   0.05
  27   7     0.06   0.14  -0.13     0.14   0.27  -0.15    -0.02   0.29  -0.20
  28   1     0.01   0.04  -0.03     0.01   0.06   0.03    -0.02   0.07  -0.02
  29   1     0.01   0.03  -0.02     0.07   0.09  -0.07     0.01   0.08  -0.06
  30   6    -0.01  -0.05   0.00     0.02  -0.01  -0.04     0.12   0.08  -0.05
  31   8    -0.15  -0.00  -0.24    -0.05   0.03  -0.25     0.29   0.03   0.21
  32   7     0.15  -0.11   0.31     0.07  -0.05   0.09     0.04   0.12  -0.21
  33   1     0.03  -0.02   0.07     0.01  -0.01  -0.00     0.02   0.01  -0.02
  34   1     0.06  -0.03   0.12     0.03  -0.02   0.06    -0.02   0.04  -0.11
  35   7     0.00  -0.07   0.02     0.07  -0.01   0.06     0.04   0.14  -0.21
  36   1     0.03  -0.04   0.05     0.03  -0.02   0.05    -0.01   0.06  -0.09
  37   1    -0.02  -0.02  -0.04     0.01  -0.00  -0.00     0.02   0.04  -0.03
  38   6     0.00  -0.02   0.06    -0.06  -0.00   0.05    -0.03  -0.04  -0.04
  39   8     0.05  -0.35   0.19     0.04   0.01   0.03    -0.05  -0.07  -0.04
  40   7    -0.10   0.37   0.04     0.03  -0.37   0.09    -0.05   0.05  -0.05
  41   1    -0.02   0.08   0.03     0.02  -0.12   0.01    -0.02   0.02  -0.01
  42   1    -0.03   0.15  -0.02    -0.03  -0.09   0.02    -0.01   0.01  -0.02
  43   7     0.03  -0.03  -0.05    -0.27   0.36   0.07     0.02  -0.12  -0.06
  44   1    -0.00   0.05  -0.03    -0.08   0.08   0.03     0.01  -0.02  -0.02
  45   1     0.02  -0.08  -0.00    -0.08   0.15   0.02     0.00  -0.05  -0.02
  46   6     0.08   0.01  -0.10    -0.02  -0.03   0.00     0.00   0.07  -0.03
  47   8    -0.04  -0.03  -0.06    -0.07  -0.06   0.02    -0.07   0.04  -0.01
  48   7     0.03  -0.05  -0.05     0.04   0.01  -0.03    -0.08   0.02   0.00
  49   1    -0.01  -0.02   0.01     0.02   0.00  -0.01    -0.03  -0.00   0.01
  50   1     0.05  -0.00  -0.03     0.02   0.01  -0.01     0.00   0.02  -0.01
  51   7     0.30   0.11  -0.23    -0.05  -0.05   0.02     0.18   0.17  -0.12
  52   1     0.10   0.04  -0.08    -0.00  -0.01  -0.00     0.05   0.05  -0.04
  53   1     0.08   0.05  -0.08    -0.02  -0.02   0.01     0.05   0.05  -0.03
                     10                     11                     12
                        a                      a                      a 
 Frequencies --    64.7067                71.6482                75.6648
 Red. masses --    12.3673                12.4367                12.5217
 Frc consts  --     0.0000                 0.0000                 0.0000
 IR Inten    --     3.7666                 3.5625                 4.1565
 Raman Activ --     0.0000                 0.0000                 0.0000
 Depolar     --     0.0000                 0.0000                 0.0000
 Atom AN      X      Y      Z        X      Y      Z        X      Y      Z
   1   8    -0.04   0.00   0.05     0.02  -0.03   0.04    -0.08   0.29  -0.00
   2   6    -0.10  -0.01   0.04     0.01  -0.05   0.03    -0.01   0.11  -0.05
   3   1    -0.04   0.02   0.00     0.01  -0.02   0.00     0.00   0.02  -0.01
   4   1    -0.05  -0.02   0.01     0.01  -0.01   0.01     0.01   0.03  -0.05
   5   6    -0.05  -0.06   0.07    -0.04  -0.06   0.05    -0.01   0.01   0.06
   6   1     0.01  -0.04   0.04    -0.00  -0.02   0.03    -0.01   0.02   0.03
   7   1    -0.05  -0.03   0.03    -0.03  -0.02   0.02     0.01  -0.02   0.00
   8   7     0.03   0.07  -0.01    -0.04  -0.04  -0.02    -0.03  -0.07   0.19
   9   6     0.11   0.02  -0.01    -0.07  -0.07   0.06    -0.07  -0.11   0.28
  10   1     0.05  -0.01  -0.00     0.00  -0.03   0.04    -0.03  -0.01   0.09
  11   1     0.02  -0.00   0.00    -0.05  -0.03   0.03    -0.01  -0.05   0.07
  12   1     0.04   0.02  -0.01    -0.02  -0.01  -0.00    -0.02  -0.05   0.10
  13   6    -0.08   0.20  -0.05    -0.13  -0.02  -0.12    -0.00  -0.19   0.12
  14   1    -0.01   0.08  -0.04    -0.04  -0.00  -0.05    -0.01  -0.07   0.06
  15   1    -0.05   0.06   0.00    -0.06  -0.02  -0.03     0.01  -0.08   0.02
  16   1    -0.03   0.06  -0.01    -0.03   0.00  -0.05     0.00  -0.04   0.01
  17   6     0.14   0.09  -0.06     0.09   0.01  -0.06    -0.05   0.04   0.22
  18   1     0.07   0.05  -0.03     0.02   0.00  -0.03    -0.01   0.00   0.08
  19   1     0.02   0.04  -0.02     0.04   0.01  -0.05    -0.01   0.02   0.05
  20   1     0.06  -0.01  -0.01     0.05   0.01   0.01    -0.01   0.03   0.07
  21   1    -0.00  -0.01   0.02     0.00   0.00   0.02    -0.02   0.07  -0.00
  22   6    -0.01  -0.00   0.02     0.01   0.07  -0.01    -0.02   0.08  -0.02
  23   8    -0.00  -0.02   0.02    -0.02   0.08   0.05    -0.03   0.09  -0.01
  24   7    -0.08  -0.12   0.23     0.06   0.13  -0.11     0.01   0.18  -0.18
  25   1    -0.02  -0.03   0.04     0.01   0.02  -0.01    -0.01   0.04  -0.04
  26   1    -0.02  -0.01   0.03     0.02   0.03  -0.03     0.00   0.04  -0.03
  27   7     0.06   0.14  -0.20    -0.01   0.04   0.02    -0.07  -0.00   0.15
  28   1     0.01   0.03  -0.02     0.00   0.01  -0.02    -0.01   0.02   0.01
  29   1     0.02   0.04  -0.06    -0.01   0.00   0.01    -0.02  -0.00   0.04
  30   6     0.04  -0.11  -0.07     0.04   0.03   0.01     0.09  -0.13  -0.14
  31   8     0.05  -0.11  -0.28    -0.02   0.04   0.15     0.03  -0.12  -0.35
  32   7    -0.01  -0.20  -0.02     0.07   0.16  -0.16     0.10  -0.18  -0.09
  33   1    -0.01  -0.06  -0.04     0.02   0.07  -0.03     0.01  -0.04  -0.07
  34   1     0.00  -0.05   0.04     0.04   0.04  -0.06     0.04  -0.05   0.01
  35   7     0.10  -0.06   0.10     0.10  -0.10   0.00     0.17  -0.15   0.03
  36   1     0.02  -0.02   0.05     0.04  -0.02  -0.02     0.05  -0.05   0.04
  37   1     0.03  -0.01   0.01     0.02  -0.05   0.02     0.04  -0.04  -0.01
  38   6    -0.02   0.08   0.02    -0.05  -0.08   0.04    -0.02   0.03  -0.01
  39   8    -0.14   0.29  -0.03     0.04  -0.29   0.11    -0.06   0.19  -0.06
  40   7    -0.09   0.24  -0.02    -0.09   0.02   0.03     0.04  -0.13   0.01
  41   1    -0.04   0.10  -0.01    -0.01  -0.02   0.01    -0.00  -0.01  -0.00
  42   1     0.01   0.01   0.02    -0.04   0.04  -0.01     0.01  -0.05   0.01
  43   7     0.18  -0.31   0.11    -0.11   0.04  -0.01    -0.01   0.00   0.04
  44   1     0.05  -0.10   0.03    -0.04   0.04  -0.01     0.00  -0.03   0.01
  45   1     0.05  -0.09   0.03    -0.02  -0.02   0.01    -0.01   0.03   0.00
  46   6    -0.02  -0.02   0.01     0.02   0.02  -0.02    -0.01   0.01  -0.06
  47   8     0.02  -0.00  -0.00    -0.09  -0.15   0.04    -0.10  -0.11  -0.02
  48   7     0.14   0.07  -0.06     0.44   0.32  -0.28     0.01   0.07  -0.12
  49   1     0.03   0.02  -0.02     0.09   0.06  -0.07    -0.01   0.01  -0.03
  50   1     0.00   0.00  -0.01     0.10   0.10  -0.07     0.01   0.03  -0.04
  51   7    -0.23  -0.14   0.11    -0.23  -0.08   0.18     0.11   0.11  -0.04
  52   1    -0.06  -0.04   0.03    -0.02   0.02   0.02     0.04   0.05  -0.02
  53   1    -0.07  -0.05   0.04    -0.11  -0.08   0.09     0.02   0.01   0.00
                     13                     14                     15
                        a                      a                      a 
 Frequencies --    93.3829                96.3216               105.3125
 Red. masses --    12.8886                12.6238                11.7991
 Frc consts  --     0.0000                 0.0000                 0.0000
 IR Inten    --     4.8931                 8.5690                 7.8865
 Raman Activ --     0.0000                 0.0000                 0.0000
 Depolar     --     0.0000                 0.0000                 0.0000
 Atom AN      X      Y      Z        X      Y      Z        X      Y      Z
   1   8    -0.13   0.28   0.02     0.06  -0.21   0.00     0.14   0.02   0.06
   2   6    -0.09   0.10  -0.02     0.12  -0.10   0.03     0.04  -0.03   0.03
   3   1    -0.03   0.03  -0.01     0.04  -0.04   0.02     0.01  -0.01  -0.01
   4   1    -0.03   0.02  -0.03     0.05  -0.01   0.02     0.01  -0.01   0.02
   5   6    -0.05  -0.01   0.08     0.07  -0.01  -0.04    -0.05  -0.08   0.12
   6   1     0.00  -0.01   0.05    -0.01   0.02  -0.04     0.02  -0.03   0.08
   7   1    -0.04  -0.03   0.02     0.06   0.02  -0.01    -0.07  -0.04   0.04
   8   7    -0.00   0.05   0.10    -0.01  -0.13   0.00    -0.05  -0.02  -0.03
   9   6     0.04  -0.01   0.15    -0.12  -0.08   0.03    -0.09  -0.11   0.15
  10   1     0.02  -0.00   0.05    -0.05   0.00   0.01     0.02  -0.04   0.09
  11   1     0.01  -0.02   0.04    -0.03  -0.01   0.01    -0.08  -0.06   0.07
  12   1     0.02   0.00   0.06    -0.05  -0.04   0.01    -0.02  -0.02   0.01
  13   6    -0.07   0.07   0.03     0.07  -0.25   0.01    -0.26   0.03  -0.24
  14   1    -0.02   0.02  -0.00     0.01  -0.09   0.03    -0.07   0.03  -0.10
  15   1    -0.04   0.01   0.01     0.04  -0.09  -0.01    -0.13  -0.01  -0.05
  16   1    -0.02   0.02  -0.00     0.02  -0.07  -0.01    -0.07   0.03  -0.10
  17   6     0.05   0.12   0.09    -0.05  -0.13   0.02     0.21   0.09  -0.12
  18   1     0.02   0.04   0.03    -0.03  -0.05   0.01     0.07   0.04  -0.05
  19   1     0.01   0.05   0.01    -0.01  -0.05   0.01     0.06   0.05  -0.07
  20   1     0.03   0.03   0.04    -0.02  -0.02   0.01     0.10   0.01   0.00
  21   1    -0.02   0.05   0.01     0.01  -0.04  -0.01     0.04  -0.01   0.02
  22   6     0.02  -0.09  -0.04     0.01  -0.05  -0.04     0.10   0.02  -0.14
  23   8     0.01  -0.09  -0.02     0.02  -0.10  -0.02     0.27  -0.03  -0.41
  24   7     0.05  -0.12  -0.01    -0.01  -0.01  -0.12    -0.08   0.04  -0.19
  25   1     0.02  -0.02  -0.01    -0.01  -0.02  -0.01    -0.04  -0.01  -0.05
  26   1     0.02  -0.03  -0.02    -0.01  -0.00  -0.02    -0.05   0.01   0.02
  27   7     0.03  -0.09  -0.12     0.02  -0.05   0.01     0.14   0.05   0.21
  28   1     0.01  -0.03  -0.03     0.01   0.00  -0.02     0.02   0.06   0.06
  29   1    -0.00  -0.03  -0.03     0.01  -0.01   0.00     0.09   0.04   0.02
  30   6     0.01   0.01  -0.06    -0.07   0.14  -0.06     0.02   0.03   0.03
  31   8     0.23  -0.05  -0.12    -0.00   0.15  -0.17     0.13   0.00   0.05
  32   7    -0.06  -0.21   0.18    -0.01   0.01   0.26    -0.07  -0.03  -0.00
  33   1     0.00  -0.11   0.07     0.01  -0.02   0.08    -0.01  -0.03  -0.00
  34   1    -0.08  -0.04   0.05    -0.04   0.01   0.06    -0.04  -0.00  -0.00
  35   7    -0.17   0.27  -0.24    -0.20   0.31  -0.24    -0.01   0.11   0.04
  36   1    -0.08   0.09  -0.06    -0.06   0.07  -0.04    -0.02   0.04   0.01
  37   1    -0.01   0.10  -0.06    -0.04   0.09  -0.05     0.01   0.04   0.01
  38   6    -0.00  -0.12  -0.02    -0.02   0.11   0.01    -0.05   0.01   0.05
  39   8     0.01  -0.32   0.05    -0.03   0.31  -0.07    -0.02   0.02   0.04
  40   7     0.07  -0.12   0.03    -0.09   0.09  -0.05    -0.09   0.03   0.02
  41   1     0.02  -0.03   0.02    -0.02   0.03  -0.02    -0.02   0.01  -0.00
  42   1     0.01   0.01  -0.02    -0.01  -0.02   0.01    -0.03   0.01   0.01
  43   7    -0.09   0.06  -0.17     0.05  -0.07   0.16    -0.04  -0.02   0.10
  44   1    -0.01   0.04  -0.06     0.00  -0.04   0.05    -0.02  -0.01   0.03
  45   1    -0.03  -0.00  -0.05     0.02   0.00   0.05    -0.00  -0.01   0.04
  46   6     0.05   0.06   0.03     0.04   0.02   0.07    -0.04  -0.03   0.05
  47   8     0.13   0.23   0.00    -0.11  -0.03   0.14    -0.08  -0.03   0.06
  48   7     0.16   0.06   0.07     0.28   0.14  -0.01    -0.20  -0.13   0.12
  49   1     0.04   0.02   0.02     0.05   0.02   0.01    -0.02  -0.02   0.01
  50   1     0.01  -0.02   0.03     0.09   0.04  -0.01    -0.02  -0.01   0.02
  51   7    -0.14  -0.09  -0.00    -0.00  -0.02   0.05     0.10   0.05  -0.02
  52   1    -0.04  -0.06   0.00     0.04  -0.00  -0.01     0.02   0.01  -0.00
  53   1    -0.05  -0.02  -0.02    -0.05  -0.03   0.02     0.04   0.02  -0.01
                     16                     17                     18
                        a                      a                      a 
 Frequencies --   111.4608               115.5328               119.4431
 Red. masses --    12.0142                12.4296                12.8685
 Frc consts  --     0.0000                 0.0000                 0.0000
 IR Inten    --     7.8148                 5.3954                 2.8942
 Raman Activ --     0.0000                 0.0000                 0.0000
 Depolar     --     0.0000                 0.0000                 0.0000
 Atom AN      X      Y      Z        X      Y      Z        X      Y      Z
   1   8     0.03   0.10  -0.07    -0.09  -0.06   0.16     0.11  -0.09   0.13
   2   6     0.08   0.03  -0.08     0.07   0.02   0.16     0.07   0.00   0.14
   3   1     0.04  -0.02  -0.03     0.03  -0.01   0.07     0.02   0.00   0.04
   4   1     0.05   0.03  -0.03     0.04   0.02   0.04     0.02   0.00   0.06
   5   6    -0.03  -0.00  -0.01     0.11   0.08   0.09     0.05   0.07   0.07
   6   1    -0.00   0.01   0.03     0.02   0.03   0.00     0.00   0.03   0.00
   7   1    -0.03  -0.01  -0.00     0.05   0.04   0.03     0.03   0.04   0.03
   8   7    -0.07  -0.02  -0.06     0.10   0.07   0.11     0.01   0.03   0.04
   9   6    -0.14  -0.09   0.11     0.04   0.07   0.13    -0.04   0.08  -0.01
  10   1    -0.01  -0.02   0.07     0.03   0.02   0.05    -0.02   0.02  -0.01
  11   1    -0.08  -0.05   0.05    -0.01   0.02   0.05    -0.01   0.04   0.00
  12   1    -0.04  -0.02   0.01     0.01   0.02   0.02    -0.02   0.02  -0.01
  13   6    -0.18  -0.06  -0.22     0.09   0.01   0.06     0.04   0.00   0.07
  14   1    -0.05  -0.02  -0.07     0.02  -0.00   0.03     0.01  -0.00   0.02
  15   1    -0.08  -0.04  -0.06     0.02  -0.01   0.01     0.02   0.01   0.02
  16   1    -0.04  -0.00  -0.10     0.03   0.01   0.00     0.01  -0.00   0.03
  17   6     0.09   0.08  -0.09     0.11   0.06   0.09    -0.04  -0.06   0.03
  18   1     0.01   0.01  -0.03     0.00  -0.00   0.03    -0.02  -0.02  -0.00
  19   1     0.05   0.03  -0.07     0.07   0.00   0.00    -0.00  -0.03   0.02
  20   1     0.05   0.05   0.01     0.04   0.05   0.04    -0.02  -0.01   0.00
  21   1    -0.00   0.05  -0.01    -0.03  -0.01   0.01     0.02  -0.01   0.03
  22   6    -0.05  -0.01   0.07    -0.00  -0.02   0.00     0.10   0.06  -0.03
  23   8    -0.18   0.08   0.24     0.00  -0.04   0.02     0.14   0.23  -0.21
  24   7     0.12  -0.03   0.12    -0.02  -0.01   0.00     0.14  -0.01   0.10
  25   1     0.04   0.01   0.04    -0.00   0.00  -0.01     0.05   0.02   0.01
  26   1     0.05  -0.02  -0.01    -0.00   0.00  -0.01     0.04  -0.03   0.06
  27   7    -0.11  -0.09  -0.15     0.01   0.01  -0.00     0.06  -0.04   0.05
  28   1    -0.01  -0.06  -0.05     0.00   0.00   0.00     0.02  -0.03   0.03
  29   1    -0.08  -0.04  -0.03     0.00  -0.00   0.01     0.02   0.01  -0.03
  30   6     0.00  -0.07  -0.07    -0.03   0.04   0.03     0.02  -0.11  -0.10
  31   8    -0.06  -0.06   0.04    -0.08   0.06  -0.06    -0.10  -0.11   0.04
  32   7     0.15  -0.01   0.02    -0.07   0.05  -0.01     0.24  -0.02   0.02
  33   1     0.05   0.01   0.04    -0.03   0.02  -0.03     0.07   0.02   0.06
  34   1     0.05  -0.00  -0.02    -0.01   0.01   0.02     0.08  -0.01  -0.03
  35   7    -0.06  -0.13  -0.28     0.03   0.02   0.19    -0.06  -0.22  -0.40
  36   1    -0.00  -0.03  -0.09     0.01   0.00   0.06     0.00  -0.06  -0.13
  37   1    -0.01  -0.04  -0.05     0.00   0.01   0.02    -0.01  -0.07  -0.07
  38   6     0.14   0.07   0.05    -0.07  -0.08  -0.19    -0.17  -0.04  -0.06
  39   8     0.36   0.10  -0.00     0.28  -0.13  -0.30    -0.25  -0.01  -0.07
  40   7    -0.01   0.02  -0.07    -0.37  -0.05  -0.43    -0.15   0.00  -0.05
  41   1     0.00  -0.00  -0.05    -0.08  -0.04  -0.15    -0.04  -0.00   0.00
  42   1    -0.04   0.00  -0.01    -0.14  -0.03  -0.10    -0.02  -0.02  -0.01
  43   7     0.08   0.13   0.29    -0.15  -0.07   0.12    -0.12  -0.14  -0.11
  44   1    -0.03   0.02   0.10    -0.12   0.00   0.05    -0.02  -0.03  -0.04
  45   1     0.06   0.05   0.11     0.02  -0.01   0.08    -0.05  -0.04  -0.04
  46   6    -0.03   0.00   0.04     0.02  -0.00  -0.05    -0.01   0.10   0.06
  47   8     0.10   0.05  -0.01     0.04   0.08  -0.07     0.17   0.11   0.01
  48   7    -0.16  -0.06   0.09     0.02  -0.05  -0.00    -0.14   0.09   0.06
  49   1    -0.03  -0.01   0.02     0.00  -0.01   0.01    -0.01   0.04  -0.01
  50   1    -0.06  -0.03   0.03    -0.01  -0.03   0.00    -0.06   0.03   0.02
  51   7    -0.05  -0.00   0.06    -0.02  -0.05  -0.09    -0.07   0.10   0.17
  52   1    -0.04  -0.02   0.03    -0.01  -0.03  -0.02    -0.05   0.02   0.07
  53   1    -0.00   0.01   0.01     0.00   0.00  -0.04    -0.01   0.02   0.06
                     19                     20                     21
                        a                      a                      a 
 Frequencies --   122.0396               135.3184               140.9655
 Red. masses --    13.1293                11.5820                11.6844
 Frc consts  --     0.0000                 0.0000                 0.0000
 IR Inten    --    13.8676                25.5783                14.2723
 Raman Activ --     0.0000                 0.0000                 0.0000
 Depolar     --     0.0000                 0.0000                 0.0000
 Atom AN      X      Y      Z        X      Y      Z        X      Y      Z
   1   8     0.09  -0.03   0.03    -0.09  -0.01   0.03     0.05   0.26  -0.01
   2   6     0.09  -0.02   0.02    -0.20  -0.07   0.00    -0.06  -0.08  -0.12
   3   1     0.04  -0.03   0.00    -0.07  -0.00  -0.02    -0.03  -0.01  -0.07
   4   1     0.05   0.01   0.01    -0.07  -0.03   0.01    -0.04  -0.05  -0.07
   5   6    -0.02   0.02   0.02    -0.21  -0.12   0.07    -0.04  -0.35   0.16
   6   1    -0.02   0.03   0.00    -0.04  -0.05   0.04     0.05  -0.13   0.13
   7   1     0.01   0.02   0.01    -0.09  -0.05   0.02    -0.10  -0.17   0.04
   8   7    -0.13  -0.10   0.02    -0.18  -0.05   0.03     0.08  -0.18   0.08
   9   6    -0.24  -0.07   0.08    -0.04   0.03  -0.18     0.16  -0.14  -0.04
  10   1    -0.05  -0.02   0.05    -0.04  -0.01  -0.10     0.05  -0.07  -0.03
  11   1    -0.09  -0.01   0.04     0.03   0.03  -0.07     0.04  -0.02  -0.00
  12   1    -0.08  -0.02  -0.01     0.00   0.02  -0.04     0.06  -0.02  -0.03
  13   6    -0.08  -0.23  -0.03    -0.10   0.12   0.22    -0.01   0.02   0.11
  14   1    -0.03  -0.08   0.02    -0.04   0.04   0.02    -0.00   0.02  -0.02
  15   1    -0.02  -0.09  -0.02    -0.02   0.10   0.09    -0.03   0.04   0.06
  16   1    -0.02  -0.05  -0.03    -0.02  -0.01   0.12     0.00  -0.02   0.06
  17   6    -0.12  -0.09   0.02    -0.28  -0.18   0.03     0.14  -0.17   0.04
  18   1    -0.06  -0.04   0.01    -0.07  -0.04   0.00     0.06  -0.03  -0.00
  19   1    -0.01  -0.03  -0.01    -0.09  -0.07   0.05     0.02  -0.04   0.02
  20   1    -0.03   0.01   0.02    -0.10  -0.07  -0.02     0.05  -0.08   0.01
  21   1     0.02   0.01   0.01    -0.01  -0.02   0.02     0.02   0.06   0.03
  22   6     0.06  -0.02  -0.01     0.01   0.02  -0.08     0.08  -0.02  -0.01
  23   8     0.06   0.02  -0.03     0.11  -0.05  -0.22     0.08   0.06  -0.03
  24   7     0.07  -0.07   0.08    -0.12   0.02  -0.09     0.13  -0.06   0.07
  25   1     0.04   0.01  -0.01    -0.04  -0.00  -0.03     0.04  -0.00   0.00
  26   1     0.03  -0.02   0.01    -0.05   0.01   0.01     0.04  -0.02   0.01
  27   7     0.05  -0.04  -0.06     0.06   0.09   0.08     0.06  -0.07  -0.03
  28   1     0.01  -0.03   0.01     0.00   0.05   0.03     0.02  -0.03  -0.01
  29   1     0.01  -0.01  -0.01     0.06   0.04   0.01     0.01  -0.01  -0.02
  30   6     0.01  -0.00   0.09     0.06  -0.07  -0.01    -0.16   0.13  -0.01
  31   8     0.04  -0.02   0.12     0.08  -0.10   0.07    -0.38   0.22  -0.15
  32   7    -0.11   0.01  -0.09     0.06  -0.06  -0.06     0.02   0.24   0.10
  33   1    -0.03  -0.00  -0.04     0.02  -0.02   0.00    -0.02   0.11   0.00
  34   1    -0.03   0.00  -0.01     0.01  -0.02  -0.03     0.05   0.05   0.03
  35   7     0.07  -0.01   0.27     0.04  -0.08  -0.07    -0.08   0.01   0.04
  36   1     0.00   0.01   0.05     0.00  -0.01  -0.04     0.01  -0.02   0.04
  37   1     0.02   0.02   0.03     0.02  -0.02  -0.01    -0.05  -0.02   0.00
  38   6    -0.03   0.05   0.05     0.15   0.04  -0.02    -0.00   0.00   0.00
  39   8    -0.12   0.12   0.05     0.35   0.04  -0.07    -0.00   0.02  -0.00
  40   7     0.02   0.04   0.09     0.02  -0.01  -0.13     0.01  -0.04   0.01
  41   1     0.00   0.02   0.03     0.01  -0.01  -0.06    -0.00   0.01  -0.01
  42   1     0.02  -0.00   0.03    -0.03   0.01  -0.03    -0.00   0.00  -0.00
  43   7     0.01  -0.02   0.02     0.09   0.12   0.17    -0.00   0.00   0.01
  44   1     0.02  -0.02   0.00    -0.01   0.01   0.07     0.00  -0.01   0.00
  45   1    -0.01  -0.00  -0.00     0.06   0.03   0.08    -0.00   0.00   0.00
  46   6     0.10   0.12  -0.17     0.05   0.07   0.04    -0.02   0.04  -0.05
  47   8     0.33   0.41  -0.30     0.07   0.14   0.05     0.04   0.04  -0.10
  48   7     0.07   0.03  -0.06     0.14   0.09   0.06    -0.09   0.03  -0.07
  49   1     0.03   0.02  -0.01     0.03   0.02   0.02    -0.01   0.02  -0.03
  50   1    -0.04  -0.05   0.00     0.02   0.01   0.02    -0.03   0.01  -0.02
  51   7    -0.16  -0.07  -0.20    -0.01   0.02   0.04    -0.03   0.06  -0.02
  52   1    -0.08  -0.07  -0.03     0.00  -0.00   0.01    -0.03   0.01   0.01
  53   1    -0.01   0.02  -0.08    -0.01   0.00   0.01    -0.00   0.01  -0.00
                     22                     23                     24
                        a                      a                      a 
 Frequencies --   146.7768               162.4235               176.3198
 Red. masses --    12.5521                11.4418                13.6473
 Frc consts  --     0.0000                 0.0000                 0.0000
 IR Inten    --     5.5251                 2.1495                11.4641
 Raman Activ --     0.0000                 0.0000                 0.0000
 Depolar     --     0.0000                 0.0000                 0.0000
 Atom AN      X      Y      Z        X      Y      Z        X      Y      Z
   1   8     0.17   0.06   0.04     0.22   0.41   0.07    -0.08  -0.13  -0.01
   2   6     0.03   0.03   0.03     0.30   0.10  -0.02    -0.10  -0.05   0.01
   3   1     0.01   0.01  -0.02     0.11  -0.03  -0.02    -0.04   0.00   0.00
   4   1     0.01   0.01   0.02     0.13   0.06  -0.05    -0.04  -0.03   0.01
   5   6    -0.07   0.01   0.08     0.09  -0.03   0.19    -0.04  -0.03  -0.03
   6   1    -0.01   0.01   0.05     0.06  -0.00   0.13    -0.02  -0.01  -0.02
   7   1    -0.04  -0.00   0.03    -0.05  -0.04   0.06     0.00  -0.00  -0.01
   8   7    -0.10   0.01   0.01     0.03  -0.03  -0.03    -0.01  -0.01   0.02
   9   6    -0.07   0.06  -0.09    -0.08   0.11  -0.17     0.04  -0.05   0.04
  10   1    -0.06   0.02  -0.06    -0.04   0.03  -0.07     0.02  -0.02   0.01
  11   1     0.02   0.03  -0.04    -0.01   0.08  -0.04     0.01  -0.03   0.01
  12   1    -0.02   0.01  -0.00    -0.04   0.02  -0.07     0.02  -0.01   0.02
  13   6    -0.07   0.06   0.08     0.01   0.04   0.01    -0.02  -0.01   0.02
  14   1    -0.04   0.02  -0.02    -0.04   0.00  -0.08     0.01   0.00   0.03
  15   1    -0.02   0.07   0.04    -0.01   0.10   0.05    -0.00  -0.02  -0.01
  16   1    -0.00  -0.01   0.05     0.05  -0.05   0.04    -0.02   0.01  -0.00
  17   6    -0.12  -0.10  -0.02     0.03  -0.25  -0.12    -0.01   0.05   0.04
  18   1    -0.03  -0.02  -0.02     0.01  -0.06  -0.08     0.00   0.01   0.02
  19   1    -0.04  -0.04   0.02     0.01  -0.09   0.00    -0.00   0.02   0.00
  20   1    -0.04  -0.05  -0.02     0.01  -0.10  -0.05    -0.00   0.02   0.02
  21   1     0.04   0.04   0.04     0.05   0.12   0.03    -0.03  -0.01  -0.00
  22   6     0.14   0.01   0.05    -0.16   0.03  -0.02    -0.09   0.24  -0.06
  23   8     0.06   0.24   0.07    -0.19  -0.03   0.02    -0.11   0.49  -0.28
  24   7     0.33  -0.04   0.17    -0.18   0.05  -0.08     0.02   0.14   0.09
  25   1     0.10  -0.00   0.05    -0.06   0.01  -0.01     0.02   0.07   0.02
  26   1     0.10  -0.03   0.03    -0.05   0.01  -0.02     0.01  -0.02   0.08
  27   7     0.04  -0.17  -0.08    -0.18   0.04  -0.05    -0.25  -0.01   0.01
  28   1     0.03  -0.10  -0.02    -0.04   0.02  -0.03    -0.05  -0.05   0.00
  29   1    -0.04  -0.04  -0.04    -0.06   0.01  -0.01    -0.09   0.04  -0.07
  30   6     0.05   0.02   0.05     0.04  -0.03   0.03    -0.05   0.05   0.01
  31   8     0.30  -0.04   0.06     0.08  -0.05   0.09    -0.03   0.06  -0.05
  32   7    -0.16  -0.14   0.02     0.01  -0.03  -0.03    -0.06   0.01   0.07
  33   1    -0.03  -0.10   0.00     0.01  -0.01   0.00    -0.02  -0.01   0.00
  34   1    -0.10  -0.03   0.01    -0.01  -0.01  -0.02    -0.03   0.01   0.02
  35   7    -0.02   0.22   0.06     0.02  -0.01  -0.00    -0.06   0.09   0.02
  36   1    -0.03   0.07   0.02    -0.00   0.00  -0.01    -0.02   0.02   0.01
  37   1     0.01   0.08   0.02     0.01   0.00   0.01    -0.01   0.03   0.02
  38   6    -0.02   0.00  -0.02    -0.10  -0.00  -0.02     0.02   0.00   0.00
  39   8     0.05   0.03  -0.06    -0.13   0.05  -0.05     0.02  -0.01   0.01
  40   7    -0.08  -0.02  -0.07    -0.09  -0.02  -0.02     0.03   0.00   0.01
  41   1    -0.02  -0.00  -0.03    -0.03   0.01  -0.01     0.01  -0.00   0.00
  42   1    -0.03  -0.01  -0.02    -0.01  -0.02  -0.00     0.00   0.01   0.00
  43   7    -0.03   0.00   0.06    -0.08  -0.05  -0.01     0.02   0.01  -0.00
  44   1    -0.02  -0.01   0.03    -0.02  -0.02  -0.00     0.01   0.00  -0.00
  45   1     0.01   0.00   0.03    -0.03  -0.01  -0.01     0.01   0.00  -0.00
  46   6    -0.10  -0.06  -0.10     0.08  -0.08   0.05     0.19  -0.20   0.01
  47   8    -0.16  -0.30  -0.09     0.05  -0.01   0.09     0.29  -0.15  -0.01
  48   7    -0.16   0.04  -0.26     0.16  -0.10   0.11     0.14  -0.22   0.02
  49   1    -0.03   0.01  -0.08     0.02  -0.04   0.05     0.05  -0.05  -0.00
  50   1    -0.00   0.06  -0.08     0.02  -0.05   0.04     0.01  -0.06   0.01
  51   7     0.02   0.08  -0.00     0.08  -0.13  -0.01     0.13  -0.27   0.04
  52   1     0.00   0.06  -0.00     0.04  -0.04  -0.01     0.02  -0.08   0.02
  53   1    -0.00  -0.01   0.03     0.02  -0.02  -0.02     0.05  -0.06   0.00
                     25                     26                     27
                        a                      a                      a 
 Frequencies --   186.5148               197.9732               256.7718
 Red. masses --    12.5910                12.8504                 1.9854
 Frc consts  --     0.0000                 0.0000                 0.0000
 IR Inten    --     1.9611                99.7761                20.2127
 Raman Activ --     0.0000                 0.0000                 0.0000
 Depolar     --     0.0000                 0.0000                 0.0000
 Atom AN      X      Y      Z        X      Y      Z        X      Y      Z
   1   8     0.71  -0.16  -0.21     0.18  -0.00  -0.05     0.12   0.07  -0.03
   2   6    -0.07   0.07  -0.14    -0.01   0.03  -0.03    -0.08   0.03  -0.03
   3   1    -0.08   0.12  -0.14    -0.02   0.03  -0.03    -0.04   0.05  -0.03
   4   1    -0.12  -0.05   0.07    -0.03  -0.00   0.02    -0.06  -0.02   0.00
   5   6    -0.10   0.02  -0.05    -0.03   0.02  -0.01    -0.01  -0.01  -0.00
   6   1    -0.02   0.01   0.01    -0.01   0.01  -0.00    -0.00  -0.01  -0.01
   7   1    -0.04  -0.02  -0.02    -0.01   0.00  -0.01     0.01  -0.00  -0.01
   8   7    -0.05   0.06   0.08    -0.03   0.02   0.02     0.01  -0.00   0.01
   9   6     0.06  -0.03   0.14    -0.01   0.00   0.03    -0.03   0.06  -0.05
  10   1    -0.01   0.02   0.03     0.00  -0.00   0.01     0.26  -0.19   0.11
  11   1     0.06  -0.04   0.01    -0.00  -0.01   0.01    -0.32   0.08   0.18
  12   1     0.03  -0.02   0.10     0.00   0.00   0.02     0.03   0.18  -0.35
  13   6    -0.03   0.07   0.11    -0.02   0.01   0.03     0.04   0.05   0.10
  14   1    -0.02   0.02   0.02    -0.01  -0.00   0.01     0.19   0.09   0.29
  15   1    -0.01   0.04   0.04    -0.00   0.00   0.01     0.07  -0.26  -0.12
  16   1     0.00   0.00   0.05    -0.00   0.00   0.01    -0.20   0.21  -0.06
  17   6    -0.07   0.15   0.13    -0.03   0.03   0.03     0.00  -0.11  -0.02
  18   1     0.04   0.08   0.05    -0.01   0.01   0.01    -0.16  -0.15   0.01
  19   1    -0.08   0.08   0.06    -0.01   0.01   0.01     0.15  -0.10  -0.10
  20   1    -0.02  -0.01   0.01    -0.01   0.01   0.01     0.00   0.14   0.07
  21   1     0.20  -0.06   0.04     0.06  -0.01   0.02     0.04   0.01   0.02
  22   6    -0.05  -0.02  -0.02    -0.08  -0.03   0.04    -0.01  -0.01   0.00
  23   8    -0.08  -0.00  -0.00    -0.04  -0.24   0.13    -0.00   0.00  -0.02
  24   7    -0.04  -0.02  -0.02    -0.21   0.03  -0.08    -0.01  -0.00   0.00
  25   1    -0.01  -0.00   0.00    -0.07  -0.01  -0.05     0.01   0.01  -0.03
  26   1    -0.01  -0.01  -0.01    -0.06   0.05  -0.06     0.01   0.02  -0.05
  27   7    -0.09  -0.06  -0.06     0.04   0.18   0.09    -0.01   0.03  -0.07
  28   1    -0.02  -0.03  -0.02    -0.01   0.11   0.01    -0.03  -0.09   0.15
  29   1    -0.04  -0.02  -0.02     0.06   0.03   0.07    -0.03  -0.06   0.09
  30   6     0.00  -0.01  -0.01    -0.05   0.03   0.00     0.01   0.01  -0.01
  31   8    -0.04   0.00  -0.03    -0.00   0.02  -0.01     0.03  -0.00  -0.01
  32   7     0.02   0.02  -0.02    -0.05  -0.03   0.08    -0.02  -0.03  -0.00
  33   1     0.00   0.02  -0.01    -0.01  -0.02   0.02     0.00  -0.02   0.02
  34   1     0.02   0.00  -0.00    -0.03  -0.00   0.02    -0.00  -0.01   0.03
  35   7     0.02  -0.04   0.03    -0.08   0.09  -0.08     0.01   0.00  -0.01
  36   1     0.01  -0.01  -0.00    -0.02   0.02   0.01    -0.00   0.01  -0.02
  37   1    -0.00  -0.01  -0.02    -0.00   0.02   0.05    -0.00  -0.00  -0.01
  38   6    -0.04  -0.03  -0.01    -0.01  -0.01  -0.00     0.00  -0.01   0.00
  39   8    -0.00  -0.05  -0.01     0.01  -0.02  -0.01    -0.00  -0.01   0.00
  40   7    -0.07  -0.02  -0.04    -0.03  -0.00  -0.02     0.00  -0.00   0.00
  41   1    -0.02  -0.01  -0.03    -0.00  -0.00  -0.01    -0.00   0.01  -0.01
  42   1    -0.03   0.00  -0.01    -0.01   0.00  -0.00    -0.02   0.04  -0.02
  43   7    -0.05  -0.01   0.03    -0.02   0.01   0.01    -0.02   0.06  -0.00
  44   1    -0.02  -0.02   0.01    -0.00  -0.02   0.01     0.04  -0.12   0.02
  45   1     0.00  -0.02   0.02     0.00  -0.01   0.01     0.02  -0.07   0.02
  46   6    -0.02   0.02   0.02     0.13  -0.05  -0.08    -0.01  -0.01   0.02
  47   8    -0.10   0.10   0.06     0.48  -0.21  -0.23    -0.04  -0.03   0.03
  48   7     0.10   0.01   0.09    -0.17   0.03  -0.28     0.01  -0.00   0.01
  49   1     0.00  -0.01   0.05    -0.05  -0.01  -0.13    -0.00  -0.01   0.00
  50   1     0.01  -0.03   0.03    -0.13   0.03  -0.05     0.01   0.00   0.00
  51   7    -0.02  -0.03  -0.10     0.05   0.06   0.35     0.01  -0.00  -0.00
  52   1     0.02  -0.02  -0.04    -0.06   0.07   0.13     0.00  -0.00  -0.00
  53   1    -0.02   0.01  -0.05     0.09  -0.00   0.15    -0.01  -0.01  -0.00
                     28                     29                     30
                        a                      a                      a 
 Frequencies --   261.4551               266.6827               282.9070
 Red. masses --     2.4280                 2.9900                 6.5196
 Frc consts  --     0.0000                 0.0000                 0.0000
 IR Inten    --   118.5558               203.4434                 4.8325
 Raman Activ --     0.0000                 0.0000                 0.0000
 Depolar     --     0.0000                 0.0000                 0.0000
 Atom AN      X      Y      Z        X      Y      Z        X      Y      Z
   1   8    -0.02  -0.03  -0.00     0.04  -0.00  -0.05    -0.01   0.04  -0.02
   2   6     0.04  -0.01  -0.00     0.04  -0.01  -0.05    -0.41   0.14   0.02
   3   1     0.02  -0.02   0.00     0.02  -0.02  -0.01    -0.19   0.21  -0.03
   4   1     0.02   0.01  -0.00     0.03   0.01  -0.01    -0.27  -0.09   0.04
   5   6    -0.01  -0.00   0.00    -0.03  -0.01  -0.01     0.08   0.04  -0.01
   6   1    -0.00   0.01   0.01    -0.01  -0.00   0.00     0.02  -0.01  -0.04
   7   1    -0.01  -0.00   0.00    -0.01  -0.01  -0.01     0.05   0.00  -0.02
   8   7    -0.01  -0.01   0.01    -0.03   0.00   0.01     0.10   0.01   0.02
   9   6     0.02  -0.02   0.02     0.01  -0.01  -0.01    -0.26   0.15   0.09
  10   1    -0.04   0.03  -0.02     0.07  -0.06   0.03    -0.01   0.03   0.09
  11   1     0.06  -0.02  -0.03    -0.07   0.01   0.04    -0.18   0.09   0.10
  12   1     0.00  -0.04   0.07     0.02   0.04  -0.08    -0.12   0.03  -0.10
  13   6    -0.02   0.00  -0.01    -0.03   0.05   0.05     0.20  -0.17   0.00
  14   1    -0.05  -0.02  -0.07     0.03   0.04   0.05    -0.06  -0.12  -0.12
  15   1    -0.02   0.07   0.04     0.00  -0.02  -0.01     0.06   0.11   0.07
  16   1     0.05  -0.05   0.02    -0.04   0.04   0.01     0.18  -0.17   0.06
  17   6    -0.00   0.02   0.01    -0.03   0.01   0.02     0.25  -0.17  -0.14
  18   1     0.03   0.03   0.00    -0.06  -0.04   0.02     0.14   0.03  -0.13
  19   1    -0.03   0.02   0.03     0.04  -0.02  -0.03     0.00  -0.03   0.03
  20   1    -0.00  -0.03  -0.01    -0.01   0.07   0.03     0.10  -0.19  -0.06
  21   1    -0.02   0.01  -0.01     0.00   0.01  -0.01     0.05  -0.08   0.02
  22   6    -0.01  -0.02   0.02     0.00   0.00  -0.00    -0.00   0.01  -0.00
  23   8     0.01   0.01  -0.07    -0.00  -0.01   0.01    -0.00   0.02  -0.00
  24   7     0.01   0.02   0.00    -0.00  -0.00  -0.00     0.00   0.00   0.00
  25   1     0.02   0.03  -0.08    -0.00  -0.00   0.01    -0.00   0.00   0.00
  26   1     0.04   0.09  -0.19    -0.01  -0.01   0.02     0.00   0.00  -0.00
  27   7     0.03   0.17  -0.25    -0.00  -0.02   0.03    -0.01  -0.01  -0.01
  28   1    -0.13  -0.34   0.65     0.02   0.05  -0.08    -0.00  -0.01   0.01
  29   1    -0.07  -0.24   0.40     0.01   0.03  -0.05    -0.01  -0.00   0.00
  30   6    -0.00   0.00  -0.00     0.00   0.00   0.00     0.02  -0.00   0.02
  31   8    -0.01   0.00  -0.00     0.01   0.00  -0.00     0.03  -0.01   0.04
  32   7     0.00   0.01   0.01    -0.01  -0.01  -0.02    -0.03  -0.01  -0.06
  33   1    -0.00   0.01  -0.01     0.01  -0.01   0.02     0.02  -0.02   0.06
  34   1    -0.00   0.00  -0.02     0.02  -0.00   0.05     0.04  -0.01   0.11
  35   7    -0.00   0.00   0.00     0.00   0.00  -0.00     0.00  -0.00  -0.00
  36   1    -0.00   0.00   0.00    -0.00   0.00  -0.01    -0.01   0.01  -0.03
  37   1     0.00   0.00   0.00    -0.00   0.00  -0.00     0.00   0.00  -0.01
  38   6    -0.00   0.01   0.00    -0.01   0.05   0.01     0.02   0.01  -0.00
  39   8    -0.00   0.01   0.00     0.01   0.00   0.02     0.02   0.00   0.01
  40   7    -0.00  -0.00   0.00    -0.02   0.04  -0.02     0.02  -0.00   0.00
  41   1     0.00  -0.01   0.00     0.03  -0.08   0.03     0.01  -0.00  -0.01
  42   1     0.01  -0.02   0.01     0.06  -0.16   0.08    -0.00   0.00   0.00
  43   7     0.02  -0.06   0.00     0.12  -0.33   0.05     0.03  -0.03   0.03
  44   1    -0.04   0.11  -0.02    -0.26   0.69  -0.12    -0.03   0.08  -0.00
  45   1    -0.02   0.06  -0.02    -0.13   0.38  -0.10    -0.00   0.05   0.00
  46   6     0.01  -0.00   0.01     0.00  -0.00   0.00     0.00  -0.01   0.00
  47   8     0.01  -0.00   0.01     0.00  -0.01   0.00     0.01  -0.00  -0.00
  48   7    -0.00  -0.01   0.01    -0.00   0.00  -0.00    -0.01   0.00  -0.01
  49   1     0.02   0.01  -0.01    -0.00  -0.00  -0.00    -0.00  -0.00  -0.01
  50   1     0.02   0.01  -0.00    -0.00  -0.00  -0.00    -0.01   0.00  -0.00
  51   7     0.01  -0.00   0.02    -0.00  -0.00   0.01     0.01   0.01  -0.00
  52   1     0.01   0.00   0.00     0.01   0.01  -0.00    -0.01  -0.01   0.01
  53   1     0.00  -0.00   0.01     0.00   0.00  -0.00    -0.00  -0.00   0.00
                     31                     32                     33
                        a                      a                      a 
 Frequencies --   292.0184               297.0458               334.8043
 Red. masses --     3.2575                 5.4569                 1.9355
 Frc consts  --     0.0000                 0.0000                 0.0000
 IR Inten    --   211.5797                12.1145                 2.7808
 Raman Activ --     0.0000                 0.0000                 0.0000
 Depolar     --     0.0000                 0.0000                 0.0000
 Atom AN      X      Y      Z        X      Y      Z        X      Y      Z
   1   8     0.04   0.06   0.06     0.12   0.20   0.25     0.02  -0.07  -0.09
   2   6    -0.13   0.04   0.04    -0.19   0.02   0.15    -0.09  -0.00  -0.06
   3   1    -0.06   0.07  -0.01    -0.10   0.10   0.00    -0.04   0.02  -0.03
   4   1    -0.09  -0.03   0.02    -0.14  -0.07   0.05    -0.05  -0.02  -0.00
   5   6     0.01   0.00   0.02    -0.00  -0.04   0.08    -0.03  -0.06   0.01
   6   1     0.00  -0.01  -0.00     0.01  -0.04   0.02     0.01  -0.03   0.02
   7   1     0.01   0.00   0.01    -0.02   0.01   0.04    -0.03  -0.05  -0.00
   8   7     0.01  -0.00  -0.02    -0.00  -0.03  -0.09     0.04   0.01   0.06
   9   6    -0.04   0.04  -0.05     0.04   0.02  -0.21    -0.05   0.11  -0.03
  10   1    -0.06   0.05  -0.04    -0.19   0.13  -0.19    -0.14   0.12  -0.08
  11   1     0.05   0.02  -0.04     0.25  -0.00  -0.20     0.12   0.06  -0.08
  12   1    -0.03  -0.02   0.04    -0.01  -0.10   0.16    -0.06  -0.05   0.10
  13   6     0.04  -0.08  -0.04     0.06  -0.24  -0.16     0.01   0.00   0.01
  14   1     0.04  -0.02   0.06     0.13  -0.05   0.21    -0.09  -0.04  -0.14
  15   1     0.03  -0.09  -0.05     0.07  -0.33  -0.19    -0.03   0.14   0.08
  16   1    -0.03   0.03  -0.04    -0.13   0.11  -0.16     0.11  -0.10   0.04
  17   6     0.05  -0.03  -0.05    -0.01   0.09  -0.04     0.12  -0.01   0.06
  18   1    -0.00  -0.02  -0.02     0.01   0.02   0.03    -0.35  -0.29   0.09
  19   1     0.04  -0.01  -0.03    -0.01   0.05  -0.04     0.41  -0.15  -0.26
  20   1     0.02   0.01   0.00    -0.00   0.05  -0.00     0.06   0.47   0.23
  21   1     0.03  -0.02   0.03     0.06   0.01   0.11    -0.00   0.01  -0.00
  22   6    -0.00  -0.00   0.00    -0.01  -0.00  -0.00    -0.00  -0.00  -0.00
  23   8    -0.00  -0.00   0.00    -0.01  -0.01  -0.01     0.00  -0.00  -0.01
  24   7    -0.00  -0.00  -0.01    -0.02   0.00  -0.01    -0.00  -0.00  -0.00
  25   1    -0.00  -0.00   0.00    -0.01  -0.00  -0.00     0.00  -0.00   0.00
  26   1    -0.00  -0.00   0.01    -0.01   0.00  -0.00    -0.00  -0.00   0.00
  27   7    -0.00  -0.00  -0.00    -0.01   0.01  -0.02     0.00   0.01   0.00
  28   1    -0.00   0.00  -0.00    -0.01  -0.02   0.03    -0.00  -0.00   0.01
  29   1    -0.00   0.00  -0.00    -0.01  -0.01   0.01     0.00  -0.00   0.00
  30   6    -0.02  -0.02  -0.06     0.01  -0.01   0.02     0.01  -0.01   0.00
  31   8     0.01  -0.03   0.00    -0.01   0.00   0.01     0.01  -0.01   0.00
  32   7     0.14  -0.00   0.31    -0.04   0.01  -0.11     0.00  -0.00  -0.03
  33   1    -0.11   0.04  -0.35     0.04  -0.00   0.11     0.01   0.00   0.02
  34   1    -0.30   0.05  -0.70     0.10  -0.02   0.22     0.03  -0.01   0.04
  35   7     0.01   0.00   0.01    -0.00   0.00  -0.00     0.01   0.02  -0.00
  36   1     0.02  -0.05   0.12    -0.01   0.01  -0.02     0.00  -0.00   0.02
  37   1     0.01  -0.01   0.03     0.00   0.00  -0.01     0.00   0.01   0.00
  38   6     0.00   0.00   0.00     0.00  -0.00  -0.01    -0.01   0.01   0.02
  39   8     0.01  -0.01   0.00     0.03  -0.01  -0.01    -0.03   0.02   0.02
  40   7     0.00   0.01  -0.00    -0.00   0.01  -0.01     0.00   0.01   0.02
  41   1     0.00  -0.01   0.00     0.00   0.00  -0.00     0.01  -0.01  -0.01
  42   1     0.01  -0.01   0.01     0.00  -0.00  -0.00    -0.01   0.01   0.00
  43   7     0.01  -0.02   0.02     0.01  -0.02   0.05     0.01   0.00  -0.02
  44   1    -0.03   0.07  -0.01    -0.04   0.06   0.01     0.03  -0.04  -0.00
  45   1    -0.01   0.04  -0.00     0.00   0.04   0.01    -0.00  -0.01  -0.01
  46   6    -0.00   0.00  -0.01     0.00  -0.00  -0.00    -0.00   0.00  -0.01
  47   8    -0.01   0.02  -0.00     0.00   0.00   0.00    -0.01  -0.00   0.01
  48   7     0.01   0.00  -0.00     0.01  -0.01   0.01     0.00  -0.01   0.02
  49   1    -0.01  -0.01   0.00    -0.00  -0.01   0.01    -0.01  -0.01   0.01
  50   1    -0.02  -0.01   0.01    -0.01  -0.01   0.01    -0.02  -0.02   0.01
  51   7    -0.04  -0.03   0.02     0.01   0.00   0.01    -0.02  -0.01   0.01
  52   1     0.04   0.04  -0.03     0.00   0.00   0.00     0.03   0.02  -0.02
  53   1     0.05   0.04  -0.02    -0.01  -0.01   0.01     0.01   0.00  -0.00
                     34                     35                     36
                        a                      a                      a 
 Frequencies --   337.6459               356.4421               382.4782
 Red. masses --     6.6737                 2.4727                 7.7063
 Frc consts  --     0.0000                 0.0000                 0.0000
 IR Inten    --     3.8926                63.3281                 8.0721
 Raman Activ --     0.0000                 0.0000                 0.0000
 Depolar     --     0.0000                 0.0000                 0.0000
 Atom AN      X      Y      Z        X      Y      Z        X      Y      Z
   1   8    -0.10  -0.15  -0.26    -0.03  -0.02  -0.03    -0.05  -0.14  -0.13
   2   6     0.06   0.08  -0.14     0.03  -0.01  -0.02     0.10  -0.13  -0.12
   3   1     0.03  -0.00  -0.00     0.01  -0.02   0.00     0.07  -0.14  -0.04
   4   1     0.05   0.05  -0.04     0.02   0.01  -0.01     0.11   0.03  -0.04
   5   6     0.01   0.05  -0.01     0.00  -0.01   0.00    -0.18  -0.21   0.16
   6   1    -0.01   0.05   0.02     0.00   0.00   0.01     0.05  -0.11   0.18
   7   1     0.02  -0.03  -0.03    -0.00  -0.01  -0.00    -0.21  -0.15   0.05
   8   7    -0.03  -0.02   0.16    -0.00  -0.01   0.01    -0.03   0.07   0.04
   9   6    -0.18   0.09   0.13    -0.02   0.01   0.00    -0.21   0.30  -0.15
  10   1    -0.23   0.18  -0.04    -0.01   0.00   0.00    -0.06   0.06  -0.06
  11   1     0.15   0.03  -0.07    -0.01   0.01   0.01    -0.08   0.19   0.01
  12   1    -0.11  -0.10   0.22    -0.01   0.00  -0.01    -0.10   0.08  -0.14
  13   6    -0.12   0.18   0.22    -0.01   0.01   0.02     0.17  -0.18   0.10
  14   1     0.13   0.15   0.24     0.01   0.01   0.02     0.02  -0.11   0.11
  15   1    -0.01  -0.15  -0.04     0.00  -0.01  -0.00     0.12  -0.07  -0.01
  16   1    -0.23   0.21   0.01    -0.02   0.01   0.00     0.08  -0.05   0.01
  17   6     0.28  -0.25  -0.09     0.02  -0.00   0.00     0.12   0.38   0.08
  18   1     0.10  -0.02  -0.14     0.04   0.03  -0.02     0.13   0.17   0.04
  19   1     0.07  -0.08  -0.00    -0.02   0.01   0.02    -0.05   0.19   0.00
  20   1     0.14  -0.17  -0.00     0.01  -0.04  -0.01     0.07   0.04   0.04
  21   1    -0.03  -0.04  -0.11    -0.00  -0.02  -0.02    -0.05   0.04  -0.03
  22   6    -0.00  -0.00   0.00     0.02   0.01  -0.01    -0.00  -0.01   0.00
  23   8    -0.00   0.00   0.00     0.02   0.02  -0.01    -0.00  -0.00  -0.00
  24   7     0.01   0.00  -0.01     0.02  -0.00   0.02     0.02  -0.00  -0.01
  25   1     0.00  -0.00   0.01     0.01   0.00  -0.01     0.00  -0.00   0.01
  26   1     0.00  -0.01   0.01     0.01   0.01  -0.01     0.00  -0.01   0.01
  27   7     0.01   0.01   0.00     0.01  -0.01   0.00     0.01   0.02   0.01
  28   1    -0.00   0.01   0.01     0.00  -0.01   0.01    -0.00   0.01   0.01
  29   1     0.01   0.00   0.00     0.00  -0.00  -0.00     0.01   0.00   0.00
  30   6    -0.00  -0.01   0.01     0.00   0.00  -0.01     0.02   0.01  -0.00
  31   8    -0.00  -0.01   0.02     0.00   0.01   0.01     0.01   0.00   0.02
  32   7     0.00   0.01  -0.02    -0.02  -0.01  -0.04    -0.01  -0.04   0.01
  33   1     0.00   0.01   0.01     0.01  -0.01   0.04    -0.00  -0.04  -0.01
  34   1     0.03  -0.00   0.03     0.02  -0.01   0.07    -0.04  -0.00  -0.02
  35   7    -0.00   0.01   0.00    -0.00   0.02  -0.02     0.02  -0.03  -0.01
  36   1    -0.01   0.00   0.00     0.03  -0.03   0.05    -0.00   0.01  -0.04
  37   1     0.00   0.01   0.00    -0.03  -0.01  -0.05     0.01  -0.01  -0.00
  38   6     0.01  -0.00   0.01     0.00   0.00   0.00     0.00  -0.00   0.02
  39   8    -0.00  -0.00   0.01     0.00   0.00  -0.00     0.01  -0.00   0.01
  40   7    -0.00   0.00   0.00     0.00   0.00  -0.00    -0.02  -0.00  -0.01
  41   1     0.00  -0.01  -0.00    -0.00  -0.00   0.00    -0.01  -0.00  -0.00
  42   1    -0.01  -0.00   0.00     0.00  -0.00   0.00     0.01  -0.03   0.01
  43   7     0.01   0.00  -0.02     0.00   0.01  -0.00    -0.00   0.01  -0.03
  44   1     0.01   0.00  -0.01     0.01  -0.01   0.00     0.02  -0.02  -0.01
  45   1    -0.00  -0.00  -0.01     0.00  -0.01  -0.00    -0.01  -0.02  -0.01
  46   6     0.00   0.00  -0.01    -0.01   0.01  -0.02     0.01  -0.00  -0.00
  47   8     0.02   0.01  -0.01    -0.01   0.01  -0.01    -0.00  -0.01   0.00
  48   7    -0.01  -0.01   0.00     0.07   0.05  -0.03    -0.02  -0.02   0.00
  49   1     0.02   0.01  -0.00    -0.07  -0.05   0.02     0.01   0.01  -0.00
  50   1     0.03   0.01  -0.01    -0.36  -0.21   0.11     0.04   0.02  -0.01
  51   7     0.02   0.01  -0.01    -0.20  -0.16   0.16     0.00   0.00   0.01
  52   1    -0.04  -0.03   0.02     0.53   0.41  -0.32    -0.02  -0.01   0.02
  53   1    -0.02  -0.02   0.01     0.24   0.23  -0.13    -0.00  -0.01   0.01
                     37                     38                     39
                        a                      a                      a 
 Frequencies --   409.7989               421.1271               442.6117
 Red. masses --     3.2093                 3.6022                 8.2093
 Frc consts  --     0.0000                 0.0000                 0.0000
 IR Inten    --   280.4763               154.5928                 0.4480
 Raman Activ --     0.0000                 0.0000                 0.0000
 Depolar     --     0.0000                 0.0000                 0.0000
 Atom AN      X      Y      Z        X      Y      Z        X      Y      Z
   1   8     0.01  -0.02   0.00    -0.03  -0.02  -0.03     0.05   0.13   0.17
   2   6     0.01  -0.02   0.00     0.02  -0.01  -0.01     0.02  -0.16   0.04
   3   1     0.01  -0.02  -0.01     0.01  -0.01   0.00     0.02  -0.09  -0.01
   4   1     0.01   0.00   0.00     0.01   0.01  -0.01     0.05  -0.01   0.00
   5   6    -0.01  -0.00   0.01     0.01  -0.00   0.01    -0.14  -0.03  -0.11
   6   1     0.00  -0.00   0.00     0.01  -0.00   0.02    -0.05  -0.02  -0.06
   7   1    -0.01  -0.00   0.00    -0.01  -0.01   0.00    -0.03   0.05  -0.01
   8   7     0.01   0.02   0.01     0.01   0.01   0.03    -0.13   0.02  -0.26
   9   6     0.00   0.02   0.01     0.00   0.05  -0.03    -0.15  -0.24   0.13
  10   1     0.00   0.01   0.00    -0.00   0.01  -0.02    -0.03   0.02   0.11
  11   1    -0.00   0.01   0.01     0.01   0.03  -0.01    -0.06  -0.18   0.00
  12   1    -0.00   0.01  -0.00    -0.00   0.01  -0.01    -0.05  -0.10   0.12
  13   6     0.00   0.01  -0.01    -0.03  -0.02  -0.04     0.27   0.12   0.27
  14   1     0.00  -0.00   0.00    -0.01  -0.01  -0.01     0.09   0.03   0.14
  15   1    -0.00  -0.01  -0.00    -0.02  -0.02  -0.01     0.23   0.12   0.04
  16   1     0.00   0.01  -0.01    -0.00   0.00  -0.03     0.03  -0.02   0.21
  17   6    -0.01   0.00   0.01    -0.00   0.01   0.04     0.04   0.15  -0.32
  18   1    -0.00   0.00   0.00     0.01   0.01   0.01    -0.01   0.03  -0.09
  19   1    -0.00  -0.01   0.02    -0.01   0.00   0.02     0.05   0.04  -0.15
  20   1    -0.01   0.00  -0.01     0.00  -0.01   0.01     0.06   0.08  -0.03
  21   1    -0.00   0.00   0.00     0.02  -0.07  -0.03     0.01   0.06   0.08
  22   6    -0.01  -0.02   0.03     0.01   0.03  -0.06     0.02   0.02  -0.02
  23   8    -0.01  -0.01   0.02     0.01   0.01  -0.03     0.02   0.00  -0.01
  24   7    -0.01   0.02  -0.06     0.02  -0.05   0.12    -0.03  -0.01   0.05
  25   1    -0.01  -0.00   0.02     0.02   0.01  -0.04    -0.02  -0.01  -0.01
  26   1    -0.02  -0.06   0.13     0.06   0.14  -0.29     0.01   0.09  -0.15
  27   7     0.00   0.01  -0.03    -0.01  -0.02   0.07    -0.01  -0.03   0.02
  28   1     0.00  -0.00  -0.01    -0.00   0.03  -0.02     0.01  -0.01  -0.02
  29   1    -0.01  -0.01   0.01     0.02   0.02  -0.03    -0.01   0.01  -0.03
  30   6     0.00  -0.00  -0.00     0.00   0.01   0.01    -0.01  -0.03   0.01
  31   8     0.00  -0.00   0.01    -0.00   0.01  -0.00    -0.00  -0.04   0.01
  32   7    -0.00  -0.00  -0.01     0.00  -0.00   0.02     0.02   0.02  -0.04
  33   1     0.01  -0.00   0.01    -0.01  -0.00  -0.02     0.01   0.03   0.03
  34   1     0.00  -0.00   0.00    -0.02   0.00  -0.03     0.04  -0.00  -0.00
  35   7     0.00   0.01  -0.01     0.01  -0.02   0.02    -0.04   0.07  -0.03
  36   1     0.02  -0.02   0.05    -0.04   0.04  -0.08     0.05  -0.07   0.18
  37   1    -0.01  -0.01  -0.01     0.02   0.01   0.03    -0.02   0.01  -0.00
  38   6    -0.04   0.06  -0.05    -0.02   0.03  -0.02    -0.01   0.01   0.04
  39   8    -0.00   0.06  -0.06     0.00   0.03  -0.03     0.03   0.02   0.02
  40   7     0.12  -0.20   0.16     0.06  -0.09   0.09    -0.05  -0.04  -0.00
  41   1     0.01   0.03  -0.06     0.02  -0.02  -0.02    -0.01  -0.02  -0.03
  42   1    -0.34   0.65  -0.30    -0.18   0.34  -0.15    -0.06   0.04  -0.02
  43   7     0.02  -0.15   0.03     0.01  -0.08   0.01     0.02  -0.01  -0.05
  44   1    -0.06   0.08  -0.00    -0.03   0.04  -0.01     0.05  -0.01  -0.03
  45   1    -0.02   0.08  -0.01    -0.02   0.05  -0.01    -0.03  -0.00  -0.05
  46   6     0.06   0.03  -0.02    -0.11  -0.07   0.02    -0.00   0.00   0.01
  47   8     0.03   0.03  -0.01    -0.05  -0.06  -0.00    -0.00   0.00   0.01
  48   7    -0.11  -0.06   0.01     0.22   0.10  -0.02     0.01   0.00   0.00
  49   1     0.02   0.02  -0.00    -0.05  -0.05   0.02     0.00  -0.00  -0.00
  50   1     0.29   0.16  -0.10    -0.52  -0.31   0.18    -0.03  -0.01   0.01
  51   7    -0.08  -0.07   0.05     0.15   0.15  -0.08     0.01  -0.00  -0.01
  52   1     0.11   0.07  -0.07    -0.21  -0.11   0.13    -0.03  -0.02   0.02
  53   1     0.04   0.04  -0.02    -0.05  -0.07   0.06     0.02   0.01  -0.01
                     40                     41                     42
                        a                      a                      a 
 Frequencies --   443.7912               453.4846               461.1107
 Red. masses --     3.3550                 2.9714                 7.5289
 Frc consts  --     0.0000                 0.0000                 0.0000
 IR Inten    --    49.8081               414.6773                51.0307
 Raman Activ --     0.0000                 0.0000                 0.0000
 Depolar     --     0.0000                 0.0000                 0.0000
 Atom AN      X      Y      Z        X      Y      Z        X      Y      Z
   1   8     0.02   0.06   0.07    -0.00   0.01  -0.00    -0.03  -0.07  -0.05
   2   6     0.01  -0.07   0.02     0.01   0.01   0.00    -0.02  -0.05  -0.04
   3   1     0.01  -0.03  -0.00     0.00  -0.00   0.00    -0.01  -0.01  -0.01
   4   1     0.01  -0.01  -0.00     0.00   0.00   0.00    -0.01  -0.02  -0.02
   5   6    -0.03   0.01  -0.07    -0.00   0.03  -0.02     0.05  -0.17   0.13
   6   1    -0.04   0.02  -0.07    -0.03   0.03  -0.04     0.14  -0.14   0.17
   7   1     0.04   0.04  -0.02     0.04   0.02  -0.01    -0.18  -0.13   0.06
   8   7    -0.06  -0.04  -0.05    -0.03  -0.04   0.06     0.23   0.19  -0.17
   9   6    -0.04  -0.08  -0.01     0.03   0.02  -0.08    -0.09   0.09   0.30
  10   1    -0.01  -0.01   0.00     0.02  -0.04  -0.04    -0.03   0.15   0.18
  11   1    -0.01  -0.04  -0.01    -0.01   0.04  -0.00    -0.05  -0.06   0.07
  12   1    -0.01  -0.02   0.01     0.02   0.03  -0.06    -0.09  -0.07   0.14
  13   6     0.03   0.03   0.10    -0.07  -0.05   0.02     0.23   0.17  -0.22
  14   1     0.01   0.01   0.03    -0.03  -0.01  -0.01     0.09   0.06  -0.01
  15   1     0.04   0.04   0.03    -0.03  -0.01   0.02     0.06  -0.01  -0.09
  16   1    -0.00  -0.01   0.07    -0.01  -0.02  -0.00     0.02   0.09  -0.08
  17   6     0.05   0.06  -0.07     0.06   0.03   0.05    -0.28  -0.10  -0.04
  18   1     0.01   0.02  -0.02     0.04   0.02   0.00    -0.12  -0.07   0.03
  19   1     0.03   0.03  -0.05    -0.00   0.03   0.00    -0.07  -0.10   0.09
  20   1     0.04   0.03   0.01     0.04  -0.02   0.03    -0.19   0.01  -0.11
  21   1     0.01   0.01   0.03     0.01  -0.02  -0.01    -0.02   0.02  -0.00
  22   6    -0.01  -0.05   0.08     0.02  -0.01   0.06     0.01   0.00   0.03
  23   8    -0.02   0.00   0.05     0.02   0.01   0.04     0.02   0.01   0.02
  24   7     0.01   0.06  -0.20    -0.02   0.06  -0.13    -0.00   0.03  -0.05
  25   1     0.01   0.02   0.03     0.00   0.02  -0.01    -0.01   0.00   0.00
  26   1    -0.09  -0.28   0.56    -0.08  -0.19   0.42    -0.03  -0.07   0.17
  27   7     0.05   0.06  -0.10     0.03   0.01  -0.09     0.01   0.00  -0.04
  28   1    -0.01  -0.04   0.07     0.01  -0.06   0.03     0.00  -0.04   0.03
  29   1    -0.01  -0.05   0.07    -0.04  -0.05   0.05    -0.02  -0.02   0.01
  30   6     0.00   0.04  -0.02    -0.00  -0.03   0.02    -0.01  -0.03   0.00
  31   8     0.01   0.03  -0.05    -0.02  -0.04   0.06     0.00  -0.04   0.00
  32   7    -0.00   0.01   0.08    -0.00  -0.01  -0.10     0.03   0.02  -0.02
  33   1    -0.04   0.01  -0.10     0.06  -0.02   0.15     0.00   0.03   0.01
  34   1    -0.02   0.01   0.01     0.01  -0.00  -0.03     0.04  -0.00  -0.01
  35   7     0.03  -0.12   0.12    -0.04   0.14  -0.15    -0.03   0.05   0.01
  36   1    -0.18   0.20  -0.44     0.23  -0.25   0.55    -0.01  -0.00   0.06
  37   1     0.05   0.02   0.03    -0.07  -0.03  -0.05    -0.00   0.02  -0.01
  38   6    -0.00   0.01   0.01    -0.00   0.00   0.01    -0.01  -0.02  -0.07
  39   8     0.01   0.01   0.01     0.01   0.01   0.01    -0.05  -0.04  -0.06
  40   7    -0.01  -0.02   0.00    -0.02  -0.01  -0.00     0.09   0.05   0.01
  41   1     0.00  -0.01  -0.01    -0.00  -0.01  -0.01     0.01   0.03   0.05
  42   1    -0.03   0.03  -0.02    -0.01   0.00   0.00     0.08   0.00  -0.00
  43   7     0.01  -0.01  -0.02     0.01  -0.00  -0.01    -0.04   0.01   0.08
  44   1     0.02  -0.00  -0.01     0.02  -0.00  -0.01    -0.09   0.02   0.04
  45   1    -0.01   0.01  -0.02    -0.01   0.00  -0.02     0.06  -0.01   0.08
  46   6    -0.02  -0.02   0.00    -0.05  -0.02  -0.02    -0.02  -0.01  -0.02
  47   8     0.00  -0.02  -0.00    -0.05  -0.03  -0.02    -0.01  -0.01  -0.02
  48   7     0.03   0.04  -0.02     0.12   0.02   0.00     0.05   0.01  -0.02
  49   1     0.01   0.01  -0.03     0.01  -0.00   0.02    -0.00  -0.00   0.01
  50   1    -0.23  -0.11   0.07    -0.16  -0.13   0.06    -0.08  -0.06   0.02
  51   7     0.04   0.05  -0.02     0.03   0.06  -0.03     0.01   0.03   0.00
  52   1     0.01  -0.00  -0.00    -0.21  -0.08   0.13    -0.05  -0.00   0.03
  53   1    -0.09  -0.06   0.03     0.13   0.07  -0.00     0.02   0.01   0.01
                     43                     44                     45
                        a                      a                      a 
 Frequencies --   465.9061               466.3108               468.9296
 Red. masses --     8.5036                 8.2037                 8.1880
 Frc consts  --     0.0000                 0.0000                 0.0000
 IR Inten    --    19.4610                 5.5828                22.4837
 Raman Activ --     0.0000                 0.0000                 0.0000
 Depolar     --     0.0000                 0.0000                 0.0000
 Atom AN      X      Y      Z        X      Y      Z        X      Y      Z
   1   8     0.01   0.01   0.00    -0.00   0.04   0.03     0.01   0.02   0.02
   2   6     0.01   0.00   0.00     0.02  -0.07  -0.00    -0.00  -0.03  -0.00
   3   1     0.01  -0.02  -0.00     0.01  -0.03  -0.00    -0.01   0.01  -0.00
   4   1     0.02   0.02   0.00     0.02  -0.01  -0.01    -0.01  -0.02  -0.01
   5   6    -0.05   0.04  -0.02     0.00  -0.00  -0.08     0.04  -0.03  -0.01
   6   1    -0.03   0.02  -0.02    -0.04   0.02  -0.07     0.01  -0.01  -0.00
   7   1     0.01   0.02  -0.01     0.06   0.03  -0.03     0.01  -0.01   0.00
   8   7    -0.06  -0.01   0.02    -0.03  -0.06   0.01     0.04  -0.01  -0.05
   9   6     0.02  -0.02  -0.04    -0.05  -0.03  -0.05    -0.04  -0.03   0.05
  10   1     0.02  -0.03  -0.02    -0.03  -0.01  -0.02    -0.03   0.03   0.02
  11   1     0.00  -0.00  -0.01    -0.00   0.01  -0.01     0.01  -0.03  -0.00
  12   1     0.02   0.02  -0.02    -0.02  -0.01  -0.02    -0.03  -0.04   0.05
  13   6    -0.00  -0.04   0.07    -0.02   0.03   0.09     0.03   0.06  -0.01
  14   1    -0.01  -0.02   0.02    -0.00   0.02   0.01     0.03   0.03  -0.00
  15   1     0.02   0.01   0.02     0.00   0.04   0.04     0.01   0.02  -0.00
  16   1     0.01  -0.03   0.03    -0.01  -0.01   0.05    -0.01   0.02   0.01
  17   6     0.06   0.03  -0.03     0.08   0.06   0.00    -0.03  -0.01  -0.01
  18   1     0.02   0.01  -0.02     0.03   0.02   0.01    -0.02  -0.02   0.01
  19   1     0.03   0.02  -0.03     0.02   0.04  -0.04    -0.00  -0.01  -0.00
  20   1     0.05   0.01   0.02     0.05   0.03   0.03    -0.03   0.02  -0.01
  21   1     0.00   0.01  -0.00     0.01  -0.01   0.00     0.01  -0.00   0.01
  22   6    -0.13  -0.10  -0.08     0.10   0.08   0.06    -0.10  -0.07  -0.06
  23   8    -0.21   0.01  -0.04     0.17  -0.01   0.03    -0.16   0.01  -0.03
  24   7     0.21  -0.13  -0.03    -0.17   0.09   0.03     0.16  -0.10  -0.03
  25   1     0.10   0.03   0.06    -0.08  -0.02  -0.05     0.08   0.02   0.04
  26   1     0.10  -0.12  -0.02    -0.08   0.11  -0.02     0.08  -0.09  -0.02
  27   7     0.04   0.18   0.12    -0.03  -0.14  -0.08     0.03   0.14   0.09
  28   1    -0.08   0.17   0.11     0.06  -0.13  -0.08    -0.06   0.13   0.09
  29   1     0.19   0.06   0.03    -0.15  -0.04  -0.03     0.15   0.05   0.01
  30   6    -0.04  -0.10   0.01     0.03   0.09  -0.00     0.10   0.24  -0.01
  31   8     0.01  -0.12  -0.01    -0.01   0.11   0.02    -0.04   0.30   0.06
  32   7     0.11   0.06  -0.05    -0.10  -0.05   0.04    -0.27  -0.14   0.08
  33   1     0.01   0.12   0.00    -0.00  -0.10   0.00     0.03  -0.31   0.09
  34   1     0.12  -0.01  -0.04    -0.11   0.01   0.03    -0.33   0.02   0.05
  35   7    -0.10   0.11   0.06     0.09  -0.10  -0.06     0.24  -0.24  -0.15
  36   1    -0.06   0.02   0.09     0.06  -0.03  -0.06     0.24  -0.13  -0.05
  37   1     0.01   0.08  -0.01    -0.01  -0.07   0.01    -0.07  -0.19  -0.07
  38   6    -0.03  -0.05  -0.17    -0.03  -0.06  -0.21    -0.00   0.00   0.00
  39   8    -0.13  -0.09  -0.15    -0.15  -0.10  -0.18     0.00   0.00   0.00
  40   7     0.23   0.10   0.04     0.28   0.11   0.04    -0.01  -0.00  -0.00
  41   1     0.03   0.07   0.12     0.03   0.10   0.14    -0.00  -0.00  -0.00
  42   1     0.18   0.05  -0.03     0.22   0.05  -0.03    -0.00  -0.00   0.00
  43   7    -0.13  -0.00   0.18    -0.15   0.00   0.22     0.00  -0.00  -0.00
  44   1    -0.21   0.01   0.11    -0.27   0.03   0.13     0.00   0.00  -0.00
  45   1     0.13  -0.02   0.19     0.16  -0.05   0.24    -0.00  -0.00  -0.00
  46   6     0.03  -0.00   0.13    -0.02   0.00  -0.10     0.01   0.02   0.05
  47   8     0.06  -0.04   0.12    -0.05   0.03  -0.09     0.04  -0.03   0.05
  48   7    -0.09   0.14  -0.07     0.07  -0.11   0.06    -0.03   0.07   0.00
  49   1    -0.04   0.00  -0.09     0.04   0.00   0.07    -0.03   0.00  -0.01
  50   1    -0.10   0.09   0.01     0.07  -0.08  -0.00    -0.02   0.04   0.01
  51   7     0.02  -0.12  -0.13    -0.01   0.09   0.09    -0.01  -0.05  -0.07
  52   1     0.04  -0.13  -0.04    -0.03   0.09   0.04    -0.02  -0.08  -0.00
  53   1    -0.04   0.03  -0.12     0.03  -0.02   0.09     0.02   0.05  -0.07
                     46                     47                     48
                        a                      a                      a 
 Frequencies --   482.8466               484.6239               489.3029
 Red. masses --     5.5686                 5.1022                 2.4563
 Frc consts  --     0.0000                 0.0000                 0.0000
 IR Inten    --     2.9680                22.1259                14.3033
 Raman Activ --     0.0000                 0.0000                 0.0000
 Depolar     --     0.0000                 0.0000                 0.0000
 Atom AN      X      Y      Z        X      Y      Z        X      Y      Z
   1   8    -0.02  -0.09  -0.08     0.02   0.09   0.06    -0.00  -0.00  -0.01
   2   6    -0.01   0.17   0.02     0.00  -0.15  -0.02     0.00   0.03   0.00
   3   1     0.02  -0.01   0.00    -0.02   0.02   0.00     0.00  -0.00   0.00
   4   1     0.04   0.09   0.04    -0.04  -0.09  -0.04     0.01   0.02   0.01
   5   6    -0.21   0.12   0.12     0.20  -0.12  -0.11    -0.03   0.03   0.01
   6   1    -0.00   0.01   0.12     0.01  -0.01  -0.11    -0.00   0.01   0.01
   7   1    -0.14  -0.02   0.04     0.13   0.01  -0.03    -0.01   0.00   0.00
   8   7    -0.14   0.17   0.02     0.13  -0.17  -0.02    -0.03   0.02   0.01
   9   6     0.22  -0.03   0.06    -0.22   0.03  -0.06     0.04  -0.01   0.00
  10   1     0.10  -0.06   0.01    -0.09   0.06  -0.01     0.02  -0.02  -0.00
  11   1     0.06  -0.09  -0.01    -0.06   0.08   0.01     0.00  -0.01   0.00
  12   1     0.13   0.05   0.05    -0.13  -0.05  -0.05     0.02   0.01  -0.00
  13   6     0.06  -0.16   0.02    -0.05   0.16  -0.01     0.00  -0.03   0.01
  14   1    -0.04  -0.12   0.06     0.04   0.12  -0.05    -0.01  -0.02   0.01
  15   1     0.07  -0.05  -0.02    -0.07   0.05   0.02     0.01  -0.01  -0.00
  16   1     0.08  -0.07  -0.02    -0.07   0.06   0.02     0.01  -0.01  -0.00
  17   6     0.02  -0.09  -0.17    -0.02   0.09   0.16     0.01  -0.01  -0.03
  18   1    -0.03  -0.03  -0.13     0.04   0.04   0.12    -0.00  -0.00  -0.02
  19   1     0.05  -0.07  -0.04    -0.05   0.08   0.03     0.01  -0.01  -0.01
  20   1     0.04  -0.05  -0.02    -0.04   0.04   0.02     0.01  -0.01  -0.00
  21   1    -0.03   0.03  -0.03     0.02  -0.00   0.02     0.01  -0.02  -0.01
  22   6     0.00   0.00  -0.00     0.01   0.01   0.01    -0.02  -0.06   0.04
  23   8     0.00   0.00  -0.01     0.02  -0.00   0.02    -0.07   0.01   0.08
  24   7     0.00  -0.00   0.00    -0.02   0.02  -0.01     0.06   0.02  -0.13
  25   1     0.01   0.01  -0.01    -0.02  -0.02   0.01    -0.02  -0.04   0.05
  26   1    -0.00  -0.02   0.03    -0.01   0.03  -0.03     0.01   0.00  -0.01
  27   7     0.01   0.01  -0.01    -0.00  -0.03  -0.00     0.01  -0.03   0.04
  28   1     0.01   0.02  -0.04    -0.00  -0.04   0.04    -0.11  -0.15   0.44
  29   1    -0.01  -0.03   0.05     0.00   0.03  -0.07     0.22   0.36  -0.56
  30   6    -0.00   0.04   0.01     0.00  -0.03  -0.01    -0.01   0.00   0.00
  31   8     0.01   0.04  -0.00    -0.01  -0.03   0.00     0.04  -0.01  -0.00
  32   7    -0.05   0.00   0.02     0.04  -0.00  -0.02    -0.00   0.01   0.03
  33   1    -0.01  -0.02  -0.00     0.01   0.01   0.01    -0.06   0.05  -0.13
  34   1    -0.03   0.00   0.02     0.02  -0.00  -0.02     0.06  -0.01   0.07
  35   7     0.02  -0.04  -0.03    -0.01   0.03   0.03    -0.02  -0.01  -0.01
  36   1     0.04  -0.03   0.00    -0.04   0.03  -0.01    -0.02   0.02  -0.05
[...]
  44   1     0.00   0.00   0.00     0.00   0.00   0.01     0.00   0.00   0.01
  45   1     0.00   0.00  -0.00     0.01  -0.00  -0.01     0.01  -0.00  -0.01
  46   6    -0.01   0.00  -0.02     0.00  -0.00   0.00     0.00  -0.00  -0.00
  47   8     0.00   0.00   0.01    -0.00   0.00  -0.00     0.00   0.00   0.00
  48   7    -0.02   0.02  -0.00    -0.01   0.01  -0.00     0.00  -0.00   0.00
  49   1     0.07  -0.09   0.03     0.04  -0.04   0.02    -0.01   0.01  -0.00
  50   1    -0.01   0.00  -0.01    -0.00   0.00  -0.01     0.00  -0.00   0.00
  51   7    -0.00   0.01   0.01     0.00  -0.00   0.00     0.00  -0.00  -0.00
  52   1     0.01   0.00   0.02    -0.00   0.00  -0.00    -0.00  -0.00  -0.00
  53   1     0.02  -0.05  -0.04    -0.00   0.00   0.00    -0.00   0.00   0.00
                    142                    143                    144
                        a                      a                      a 
 Frequencies --  3464.1649              3495.2918              3498.4840
 Red. masses --     1.5254                 1.4517                 1.4484
 Frc consts  --     0.0000                 0.0000                 0.0000
 IR Inten    --    87.0870                19.9267                20.3747
 Raman Activ --     0.0000                 0.0000                 0.0000
 Depolar     --     0.0000                 0.0000                 0.0000
 Atom AN      X      Y      Z        X      Y      Z        X      Y      Z
   1   8    -0.00  -0.00   0.00     0.00   0.00  -0.00     0.00   0.00  -0.00
   2   6    -0.00   0.00  -0.00    -0.00   0.00   0.00     0.00   0.00  -0.00
   3   1     0.00   0.00  -0.00     0.00   0.00  -0.00    -0.00  -0.00   0.00
   4   1     0.00  -0.00   0.00     0.00  -0.00   0.00     0.00  -0.00   0.00
   5   6    -0.00   0.00  -0.00    -0.00   0.00  -0.00     0.00  -0.00  -0.00
   6   1    -0.00   0.00  -0.00    -0.00  -0.00   0.00    -0.00   0.00   0.00
   7   1     0.00  -0.00   0.00     0.00  -0.00   0.00     0.00  -0.00   0.00
   8   7    -0.00   0.00   0.00     0.00  -0.00  -0.00    -0.00   0.00   0.00
   9   6    -0.00   0.00   0.00     0.00  -0.00  -0.00    -0.00   0.00  -0.00
  10   1     0.00   0.00  -0.00    -0.00  -0.00   0.00    -0.00  -0.00   0.00
  11   1     0.00  -0.00   0.00     0.00  -0.00   0.00     0.00  -0.00   0.00
  12   1     0.00  -0.00  -0.00    -0.00   0.00   0.00     0.00  -0.00  -0.00
  13   6    -0.00   0.00  -0.00    -0.00  -0.00  -0.00     0.00   0.00   0.00
  14   1     0.00  -0.00  -0.00     0.00   0.00  -0.00    -0.00   0.00   0.00
  15   1     0.00  -0.00   0.00     0.00  -0.00   0.00     0.00  -0.00   0.00
  16   1     0.00   0.00   0.00     0.00   0.00   0.00    -0.00  -0.00  -0.00
  17   6    -0.00   0.00   0.00     0.00  -0.00  -0.00     0.00   0.00   0.00
  18   1     0.00  -0.00  -0.00    -0.00   0.00   0.00     0.00  -0.00  -0.00
  19   1     0.00   0.00   0.00     0.00   0.00   0.00    -0.00  -0.00  -0.00
  20   1     0.00   0.00  -0.00    -0.00  -0.00   0.00     0.00   0.00   0.00
  21   1     0.00   0.00  -0.00    -0.00  -0.00   0.00    -0.00  -0.00   0.00
  22   6    -0.00   0.00   0.00    -0.00   0.00   0.00     0.00  -0.00  -0.00
  23   8     0.00  -0.00   0.00     0.00  -0.00   0.00    -0.00  -0.00  -0.00
  24   7     0.00  -0.00  -0.00     0.00  -0.00  -0.00    -0.00   0.00  -0.00
  25   1    -0.02   0.01  -0.00    -0.00   0.00   0.00     0.00  -0.00   0.00
  26   1     0.01   0.00   0.00     0.00   0.00   0.00     0.00   0.00   0.00
  27   7    -0.00  -0.00   0.00    -0.00   0.00   0.00     0.00  -0.00  -0.00
  28   1     0.00   0.00   0.00     0.00   0.00   0.00    -0.01  -0.01  -0.01
  29   1     0.00  -0.00  -0.00     0.00  -0.00  -0.00    -0.00   0.01   0.01
  30   6    -0.00  -0.00   0.00    -0.00   0.00  -0.00     0.00  -0.00  -0.00
  31   8     0.00   0.00   0.00    -0.00  -0.00   0.00    -0.00   0.00   0.00
  32   7    -0.00   0.00   0.00    -0.12   0.13   0.04    -0.00   0.00   0.00
  33   1     0.01   0.00  -0.00     0.61   0.20  -0.19     0.00   0.00  -0.00
  34   1    -0.00  -0.02   0.00    -0.17  -0.70   0.03    -0.00  -0.00   0.00
  35   7    -0.01   0.02   0.00    -0.00  -0.02  -0.01    -0.00   0.00   0.00
  36   1    -0.01  -0.02  -0.01     0.02   0.06   0.02    -0.00  -0.00  -0.00
  37   1     0.04  -0.04  -0.01    -0.01   0.01   0.01     0.00  -0.00  -0.00
  38   6     0.00   0.00  -0.00     0.00   0.00   0.00    -0.00   0.00  -0.00
  39   8    -0.00  -0.00  -0.00    -0.00  -0.00  -0.00     0.00   0.00   0.00
  40   7    -0.00  -0.00   0.00    -0.00  -0.00   0.00     0.01   0.01   0.00
  41   1     0.00   0.00   0.00     0.00   0.00   0.00    -0.03  -0.01  -0.00
  42   1    -0.00  -0.00  -0.00    -0.00  -0.00  -0.00    -0.00  -0.01  -0.02
  43   7     0.00   0.00  -0.00     0.00   0.00   0.00    -0.17  -0.06  -0.04
  44   1    -0.00  -0.00  -0.00    -0.00  -0.00  -0.00     0.20   0.19   0.66
  45   1    -0.00  -0.00   0.00    -0.00  -0.00   0.00     0.44   0.02  -0.51
  46   6    -0.00   0.00   0.00    -0.00   0.00   0.00    -0.00  -0.00  -0.00
  47   8     0.00   0.00   0.00     0.00  -0.00  -0.00     0.00   0.00   0.00
  48   7     0.00  -0.01   0.00     0.00  -0.00  -0.00     0.00   0.00   0.00
  49   1    -0.01   0.02  -0.01    -0.00   0.00  -0.00     0.00  -0.00   0.00
  50   1    -0.00   0.00  -0.01     0.00  -0.00   0.00    -0.00  -0.00  -0.00
  51   7    -0.12   0.15   0.04     0.00  -0.00   0.00    -0.00   0.00  -0.00
  52   1     0.21   0.04   0.40    -0.01  -0.00  -0.01     0.00   0.00   0.00
  53   1     0.25  -0.61  -0.57    -0.00   0.01   0.01     0.00  -0.00  -0.00
                    145                    146                    147
                        a                      a                      a 
 Frequencies --  3499.2387              3511.5846              3530.9368
 Red. masses --     1.4494                 1.9145                 1.8963
 Frc consts  --     0.0000                 0.0000                 0.0000
 IR Inten    --    25.3088                11.1796                15.7955
 Raman Activ --     0.0000                 0.0000                 0.0000
 Depolar     --     0.0000                 0.0000                 0.0000
 Atom AN      X      Y      Z        X      Y      Z        X      Y      Z
   1   8     0.00   0.00  -0.00    -0.00  -0.00   0.00    -0.00  -0.00   0.00
   2   6     0.00   0.00  -0.00    -0.00   0.00  -0.00    -0.00  -0.00   0.00
   3   1    -0.00  -0.00   0.00     0.00  -0.00   0.00     0.00   0.00  -0.00
   4   1    -0.00  -0.00  -0.00    -0.00   0.00   0.00     0.00  -0.00  -0.00
   5   6     0.00   0.00  -0.00     0.00  -0.00   0.00     0.00   0.00  -0.00
   6   1    -0.00  -0.00   0.00     0.00   0.00  -0.00    -0.00  -0.00   0.00
   7   1     0.00  -0.00   0.00    -0.00   0.00   0.00     0.00   0.00  -0.00
   8   7     0.00   0.00  -0.00    -0.00  -0.00   0.00    -0.00  -0.00   0.00
   9   6     0.00  -0.00  -0.00    -0.00  -0.00   0.00    -0.00  -0.00   0.00
  10   1    -0.00   0.00   0.00     0.00   0.00  -0.00     0.00   0.00  -0.00
  11   1    -0.00   0.00   0.00    -0.00   0.00  -0.00     0.00   0.00  -0.00
  12   1    -0.00   0.00   0.00    -0.00  -0.00   0.00     0.00   0.00  -0.00
  13   6     0.00   0.00   0.00     0.00  -0.00   0.00    -0.00  -0.00  -0.00
  14   1    -0.00   0.00  -0.00    -0.00   0.00   0.00     0.00  -0.00  -0.00
  15   1    -0.00  -0.00   0.00    -0.00   0.00  -0.00     0.00   0.00  -0.00
  16   1    -0.00  -0.00  -0.00    -0.00  -0.00  -0.00    -0.00   0.00   0.00
  17   6     0.00   0.00  -0.00    -0.00  -0.00   0.00    -0.00  -0.00   0.00
  18   1    -0.00   0.00   0.00    -0.00  -0.00  -0.00     0.00   0.00  -0.00
  19   1    -0.00  -0.00  -0.00    -0.00   0.00  -0.00     0.00   0.00  -0.00
  20   1    -0.00  -0.00   0.00     0.00   0.00  -0.00     0.00   0.00  -0.00
  21   1    -0.02  -0.01   0.00     0.00   0.00  -0.00     0.00   0.00  -0.00
  22   6    -0.00   0.00   0.00    -0.00   0.00   0.00     0.01  -0.00  -0.00
  23   8     0.00   0.00   0.00     0.00  -0.00   0.00    -0.00  -0.00  -0.00
  24   7     0.02   0.00   0.00    -0.00  -0.00  -0.00     0.23   0.09   0.08
  25   1    -0.01   0.01  -0.00    -0.00   0.00  -0.00    -0.05   0.06   0.00
  26   1    -0.04  -0.02  -0.02     0.01   0.00   0.00    -0.81  -0.40  -0.31
  27   7    -0.16   0.08   0.03     0.00  -0.00   0.00    -0.00  -0.02  -0.01
  28   1     0.59   0.28   0.27    -0.00  -0.00  -0.00     0.01   0.00   0.00
  29   1     0.02  -0.58  -0.36    -0.00   0.00   0.00    -0.00   0.07   0.05
  30   6    -0.00   0.00   0.00    -0.00   0.01   0.01     0.00   0.00  -0.00
  31   8     0.00  -0.00  -0.00    -0.00  -0.00  -0.00    -0.00  -0.00   0.00
  32   7     0.00  -0.00  -0.00    -0.02  -0.00   0.01    -0.00   0.00   0.00
  33   1    -0.00  -0.00   0.00     0.08   0.02  -0.02     0.00   0.00  -0.00
  34   1     0.00   0.00  -0.00    -0.00  -0.02   0.00    -0.00  -0.00  -0.00
  35   7     0.00   0.00   0.00     0.06   0.24   0.08    -0.00   0.00   0.00
  36   1    -0.00  -0.00  -0.00    -0.33  -0.85  -0.28    -0.00  -0.01  -0.00
  37   1    -0.00   0.00   0.00     0.10  -0.07  -0.02     0.00  -0.00  -0.00
  38   6    -0.00  -0.00  -0.00     0.00   0.00  -0.00    -0.00  -0.00  -0.00
  39   8     0.00   0.00   0.00    -0.00   0.00   0.00     0.00   0.00   0.00
  40   7     0.00   0.00   0.00    -0.00   0.00   0.00    -0.00  -0.00  -0.00
  41   1    -0.00  -0.00  -0.00     0.00   0.00   0.00     0.00   0.00   0.00
  42   1    -0.00  -0.00  -0.00    -0.00  -0.00  -0.00     0.00   0.00   0.01
  43   7    -0.00  -0.00  -0.00     0.00   0.00   0.00    -0.00   0.00   0.00
  44   1     0.00   0.00   0.02    -0.00  -0.00  -0.00    -0.00  -0.00  -0.00
  45   1     0.01   0.00  -0.01    -0.00  -0.00   0.00     0.00   0.00  -0.00
  46   6    -0.00   0.00  -0.00     0.00  -0.00   0.00     0.00   0.00   0.00
  47   8     0.00  -0.00   0.00    -0.00  -0.00  -0.00    -0.00  -0.00  -0.00
  48   7     0.00  -0.00  -0.00    -0.00  -0.00  -0.00     0.00  -0.00   0.01
  49   1    -0.01   0.01  -0.00    -0.00   0.00  -0.00    -0.00   0.00  -0.00
  50   1     0.00  -0.00   0.01     0.00  -0.00   0.01    -0.01   0.00  -0.04
  51   7     0.00  -0.00   0.00     0.01  -0.00   0.01    -0.00  -0.00  -0.01
  52   1    -0.00  -0.00  -0.00    -0.02  -0.00  -0.03     0.01   0.00   0.02
  53   1    -0.00   0.00   0.00    -0.01   0.02   0.01    -0.00   0.00   0.00
                    148                    149                    150
                        a                      a                      a 
 Frequencies --  3533.1529              3535.6880              3545.2180
 Red. masses --     2.0227                 1.9272                 2.0907
 Frc consts  --     0.0000                 0.0000                 0.0000
 IR Inten    --    20.8360                 8.7112                36.6370
 Raman Activ --     0.0000                 0.0000                 0.0000
 Depolar     --     0.0000                 0.0000                 0.0000
 Atom AN      X      Y      Z        X      Y      Z        X      Y      Z
   1   8     0.00   0.00  -0.00    -0.00  -0.00   0.00    -0.00  -0.00   0.00
   2   6     0.00   0.00  -0.00    -0.00  -0.00  -0.00    -0.00   0.00   0.00
   3   1     0.00  -0.00   0.00     0.00   0.00   0.00     0.00   0.00   0.00
   4   1     0.00  -0.00   0.00     0.00   0.00   0.00     0.00  -0.00   0.00
   5   6     0.00   0.00   0.00    -0.00  -0.00   0.00    -0.00  -0.00   0.00
   6   1    -0.00  -0.00   0.00     0.00  -0.00  -0.00     0.00  -0.00  -0.00
   7   1     0.00   0.00   0.00     0.00   0.00  -0.00     0.00  -0.00   0.00
   8   7     0.00   0.00  -0.00    -0.00  -0.00   0.00    -0.00  -0.00   0.00
   9   6    -0.00   0.00  -0.00    -0.00   0.00   0.00     0.00  -0.00  -0.00
  10   1    -0.00  -0.00   0.00     0.00   0.00   0.00    -0.00  -0.00   0.00
  11   1    -0.00  -0.00  -0.00     0.00   0.00  -0.00     0.00   0.00  -0.00
  12   1     0.00  -0.00   0.00     0.00  -0.00  -0.00    -0.00   0.00   0.00
  13   6    -0.00  -0.00  -0.00    -0.00  -0.00   0.00    -0.00  -0.00   0.00
  14   1    -0.00   0.00   0.00     0.00  -0.00  -0.00    -0.00   0.00  -0.00
  15   1    -0.00  -0.00  -0.00    -0.00  -0.00  -0.00    -0.00  -0.00   0.00
  16   1     0.00   0.00   0.00     0.00   0.00   0.00     0.00   0.00   0.00
  17   6    -0.00  -0.00  -0.00    -0.00  -0.00   0.00    -0.00  -0.00   0.00
  18   1    -0.00  -0.00  -0.00     0.00  -0.00  -0.00    -0.00   0.00   0.00
  19   1     0.00   0.00   0.00     0.00   0.00   0.00     0.00   0.00   0.00
  20   1     0.00  -0.00  -0.00    -0.00   0.00  -0.00     0.00   0.00  -0.00
  21   1    -0.01  -0.01   0.00     0.00   0.00  -0.00     0.00   0.00  -0.00
  22   6    -0.00  -0.00  -0.00    -0.00  -0.00  -0.00    -0.00  -0.00  -0.00
  23   8     0.00   0.00   0.00     0.00   0.00   0.00     0.00   0.00   0.00
  24   7    -0.00  -0.00  -0.00     0.01   0.00   0.00    -0.00   0.00  -0.00
  25   1     0.00  -0.00  -0.00    -0.00   0.00   0.00     0.01  -0.00   0.00
  26   1     0.01   0.00   0.00    -0.04  -0.02  -0.01     0.01   0.00   0.00
  27   7     0.00   0.00   0.00     0.00   0.00   0.00     0.00   0.00   0.00
  28   1    -0.00  -0.00  -0.00    -0.01  -0.00  -0.00    -0.00  -0.00  -0.00
  29   1    -0.00  -0.00  -0.00    -0.00   0.00   0.00     0.00  -0.00  -0.00
  30   6     0.00  -0.00  -0.00    -0.00  -0.00   0.00     0.00   0.00  -0.00
  31   8    -0.00   0.00   0.00     0.00   0.00   0.00    -0.00  -0.00  -0.00
  32   7    -0.00   0.00   0.00     0.00   0.00  -0.00    -0.00  -0.00   0.00
  33   1     0.00   0.00  -0.00    -0.00  -0.00   0.00     0.01   0.00  -0.00
  34   1    -0.00  -0.00   0.00     0.00  -0.00   0.00    -0.00  -0.00  -0.00
  35   7    -0.00   0.00   0.00    -0.00  -0.00  -0.00     0.00   0.00   0.00
  36   1    -0.00  -0.00  -0.00     0.00   0.01   0.00    -0.01  -0.02  -0.01
  37   1     0.00  -0.00  -0.00     0.00  -0.00  -0.00    -0.01   0.01   0.00
  38   6    -0.01  -0.01  -0.00    -0.00  -0.00  -0.00    -0.00   0.00   0.00
  39   8     0.00   0.00   0.00    -0.00   0.00  -0.00    -0.00  -0.00  -0.00
  40   7    -0.11  -0.14  -0.21    -0.00  -0.00  -0.00    -0.00  -0.00  -0.00
  41   1     0.25   0.08   0.02     0.01   0.00   0.00     0.00   0.00   0.00
  42   1     0.16   0.46   0.78     0.00   0.01   0.01     0.00   0.00   0.00
  43   7    -0.01   0.00   0.02    -0.00   0.00   0.00    -0.00   0.00   0.00
  44   1    -0.01  -0.01  -0.03    -0.00  -0.00  -0.00    -0.00  -0.00  -0.00
  45   1     0.06   0.00  -0.06     0.00   0.00  -0.00     0.00   0.00  -0.00
  46   6     0.00  -0.00  -0.00    -0.00   0.01  -0.00    -0.00  -0.00  -0.01
  47   8    -0.00   0.00   0.00     0.00  -0.00   0.00     0.00   0.00   0.00
  48   7     0.00  -0.00   0.00    -0.09   0.02  -0.23    -0.03   0.01  -0.08
  49   1    -0.00   0.00   0.00     0.05  -0.06   0.01     0.02  -0.02   0.00
  50   1    -0.00   0.00  -0.01     0.29  -0.02   0.86     0.10  -0.01   0.29
  51   7    -0.00  -0.00  -0.00     0.02   0.03   0.09    -0.07  -0.09  -0.25
  52   1     0.00   0.00   0.00    -0.13  -0.02  -0.23     0.40   0.06   0.71
  53   1    -0.00   0.00   0.00     0.05  -0.10  -0.09    -0.13   0.29   0.25
                    151                    152                    153
                        a                      a                      a 
 Frequencies --  3561.0782              3564.6639              3565.0775
 Red. masses --     2.1815                 2.1830                 2.1861
 Frc consts  --     0.0000                 0.0000                 0.0000
 IR Inten    --    12.1540                13.1042                18.5848
 Raman Activ --     0.0000                 0.0000                 0.0000
 Depolar     --     0.0000                 0.0000                 0.0000
 Atom AN      X      Y      Z        X      Y      Z        X      Y      Z
   1   8     0.00   0.00  -0.00     0.00   0.00   0.00     0.00   0.00  -0.00
   2   6    -0.00   0.00   0.00    -0.00  -0.00  -0.00    -0.00  -0.00  -0.00
   3   1     0.00   0.00  -0.00     0.00   0.00  -0.00     0.00  -0.00  -0.00
   4   1     0.00  -0.00  -0.00    -0.00  -0.00   0.00     0.00  -0.00  -0.00
   5   6    -0.00   0.00  -0.00     0.00   0.00   0.00     0.00   0.00  -0.00
   6   1    -0.00  -0.00   0.00    -0.00  -0.00  -0.00    -0.00   0.00   0.00
   7   1     0.00  -0.00   0.00     0.00   0.00   0.00     0.00   0.00   0.00
   8   7     0.00  -0.00  -0.00     0.00  -0.00  -0.00     0.00   0.00   0.00
   9   6     0.00  -0.00  -0.00     0.00  -0.00   0.00    -0.00  -0.00   0.00
  10   1    -0.00  -0.00   0.00    -0.00  -0.00  -0.00     0.00   0.00  -0.00
  11   1     0.00  -0.00   0.00    -0.00   0.00  -0.00    -0.00   0.00  -0.00
  12   1    -0.00   0.00   0.00    -0.00   0.00   0.00    -0.00  -0.00  -0.00
  13   6    -0.00  -0.00  -0.00    -0.00  -0.00  -0.00     0.00   0.00   0.00
  14   1     0.00   0.00  -0.00    -0.00   0.00   0.00     0.00  -0.00  -0.00
  15   1     0.00  -0.00   0.00    -0.00  -0.00  -0.00     0.00   0.00   0.00
  16   1     0.00   0.00   0.00     0.00   0.00   0.00    -0.00  -0.00  -0.00
  17   6     0.00  -0.00  -0.00    -0.00  -0.00  -0.00     0.00   0.00   0.00
  18   1    -0.00   0.00   0.00    -0.00   0.00   0.00     0.00  -0.00  -0.00
  19   1     0.00   0.00   0.00     0.00   0.00   0.00    -0.00  -0.00  -0.00
  20   1    -0.00  -0.00   0.00    -0.00  -0.00  -0.00    -0.00   0.00  -0.00
  21   1    -0.00  -0.00   0.00    -0.00  -0.00   0.00    -0.01  -0.00   0.00
  22   6    -0.00   0.00   0.00     0.00   0.00   0.00     0.00   0.01   0.01
  23   8     0.00   0.00  -0.00    -0.00  -0.00  -0.00    -0.00  -0.00  -0.00
  24   7    -0.00   0.00   0.00     0.00   0.00   0.00     0.02   0.01   0.01
  25   1     0.00  -0.00   0.00     0.00   0.00  -0.00    -0.01   0.01   0.00
  26   1    -0.00  -0.00  -0.00    -0.00  -0.00  -0.00    -0.06  -0.03  -0.02
  27   7     0.00   0.00   0.00     0.00   0.00   0.00     0.14   0.22   0.16
  28   1    -0.00  -0.00  -0.00    -0.01  -0.00  -0.00    -0.57  -0.25  -0.24
  29   1     0.00  -0.00  -0.00     0.00  -0.01  -0.00     0.04  -0.58  -0.36
  30   6    -0.01  -0.01   0.00     0.00   0.00  -0.00     0.00   0.00  -0.00
  31   8     0.00   0.00  -0.00    -0.00  -0.00  -0.00    -0.00  -0.00   0.00
  32   7    -0.20  -0.21   0.06     0.00   0.00  -0.00     0.00   0.00  -0.00
  33   1     0.64   0.18  -0.19    -0.00  -0.00   0.00    -0.00  -0.00   0.00
  34   1     0.13   0.64  -0.02    -0.00  -0.00   0.00    -0.00  -0.00   0.00
  35   7    -0.00  -0.01  -0.00     0.00   0.00   0.00    -0.00   0.00   0.00
  36   1     0.02   0.05   0.01    -0.00  -0.00  -0.00    -0.00  -0.00  -0.00
  37   1    -0.01   0.00   0.00     0.00   0.00  -0.00     0.00  -0.00  -0.00
  38   6     0.00   0.00  -0.00     0.00  -0.00  -0.01    -0.00  -0.00   0.00
  39   8    -0.00  -0.00  -0.00    -0.00  -0.00   0.00     0.00   0.00   0.00
  40   7    -0.00  -0.00  -0.00    -0.01  -0.01  -0.02     0.00   0.00   0.00
  41   1     0.00   0.00   0.00     0.02   0.01   0.00    -0.00  -0.00  -0.00
  42   1     0.00   0.00   0.00     0.01   0.04   0.07    -0.00  -0.00  -0.00
  43   7     0.00  -0.00  -0.00     0.07  -0.04  -0.29    -0.00   0.00   0.00
  44   1     0.00   0.00   0.00     0.21   0.17   0.59    -0.00  -0.00  -0.01
  45   1    -0.00  -0.00   0.00    -0.47  -0.03   0.51     0.00   0.00  -0.00
  46   6    -0.00   0.00  -0.00     0.00  -0.00  -0.00     0.00   0.00   0.00
  47   8     0.00   0.00   0.00    -0.00  -0.00   0.00    -0.00  -0.00  -0.00
  48   7    -0.00   0.00  -0.00     0.00   0.00   0.00     0.00  -0.00   0.00
  49   1     0.00  -0.00   0.00    -0.00  -0.00  -0.00    -0.00   0.01  -0.00
  50   1     0.00  -0.00   0.00    -0.00  -0.00  -0.00    -0.00   0.00  -0.01
  51   7     0.00   0.00   0.00    -0.00  -0.00  -0.00     0.00   0.00   0.00
  52   1    -0.00  -0.00  -0.00     0.00   0.00   0.00    -0.00  -0.00  -0.00
  53   1     0.00  -0.00  -0.00    -0.00   0.00   0.00     0.00  -0.00  -0.00
