      -----------------------------------------------------------      
     |                   =====================                   |     
     |                           x T B                           |     
     |                   =====================                   |     
     |                         S. Grimme                         |     
     |          Mulliken Center for Theoretical Chemistry        |     
     |                    University of Bonn                     |     
      -----------------------------------------------------------      

   * xtb version 6.6.1 (unknown-commit) compiled by '@Linux' on 12/27/2023

   xtb is free software: you can redistribute it and/or modify it under
   the terms of the GNU Lesser General Public License as published by
   the Free Software Foundation, either version 3 of the License, or
   (at your option) any later version.
   
   xtb is distributed in the hope that it will be useful,
   but WITHOUT ANY WARRANTY; without even the implied warranty of
   MERCHANTABILITY or FITNESS FOR A PARTICULAR PURPOSE.  See the
   GNU Lesser General Public License for more details.
   
   Cite this work as:
   * C. Bannwarth, E. Caldeweyher, S. Ehlert, A. Hansen, P. Pracht,
     J. Seibert, S. Spicher, S. Grimme, WIREs Comput. Mol. Sci., 2020, 11,
     e01493. DOI: 10.1002/wcms.1493
   
   for GFN2-xTB:
   * C. Bannwarth, S. Ehlert and S. Grimme., J. Chem. Theory Comput., 2019,
     15, 1652-1671. DOI: 10.1021/acs.jctc.8b01176
   for GFN1-xTB:
   * S. Grimme, C. Bannwarth, P. Shushkov, J. Chem. Theory Comput., 2017,
     13, 1989-2009. DOI: 10.1021/acs.jctc.7b00118
   for GFN0-xTB:
   * P. Pracht, E. Caldeweyher, S. Ehlert, S. Grimme, ChemRxiv, 2019, preprint.
     DOI: 10.26434/chemrxiv.8326202.v1
   for GFN-FF:
   * S. Spicher and S. Grimme, Angew. Chem. Int. Ed., 2020, 59, 15665-15673.
     DOI: 10.1002/anie.202004239
   
   for ALPB and GBSA implicit solvation:
   * S. Ehlert, M. Stahn, S. Spicher, S. Grimme, J. Chem. Theory Comput.,
     2021, 17, 4250-4261. DOI: 10.1021/acs.jctc.1c00471
   
   for DFT-D4:
   * E. Caldeweyher, C. Bannwarth and S. Grimme, J. Chem. Phys., 2017,
     147, 034112. DOI: 10.1063/1.4993215
   * E. Caldeweyher, S. Ehlert, A. Hansen, H. Neugebauer, S. Spicher,
     C. Bannwarth and S. Grimme, J. Chem. Phys., 2019, 150, 154122.
     DOI: 10.1063/1.5090222
   * E. Caldeweyher, J.-M. Mewes, S. Ehlert and S. Grimme, Phys. Chem. Chem. Phys.
     2020, 22, 8499-8512. DOI: 10.1039/D0CP00502A
   
   for sTDA-xTB:
   * S. Grimme and C. Bannwarth, J. Chem. Phys., 2016, 145, 054103.
     DOI: 10.1063/1.4959605
   
   in the mass-spec context:
   * V. Asgeirsson, C. Bauer and S. Grimme, Chem. Sci., 2017, 8, 4879.
     DOI: 10.1039/c7sc00601b
   * J. Koopman and S. Grimme, ACS Omega 2019, 4, 12, 15120-15133.
     DOI: 10.1021/acsomega.9b02011
   
   for metadynamics refer to:
   * S. Grimme, J. Chem. Theory Comput., 2019, 155, 2847-2862
     DOI: 10.1021/acs.jctc.9b00143
   
   for SPH calculations refer to:
   * S. Spicher and S. Grimme, J. Chem. Theory Comput., 2021, 17, 1701-1714
     DOI: 10.1021/acs.jctc.0c01306
   
   with help from (in alphabetical order)
   P. Atkinson, C. Bannwarth, F. Bohle, G. Brandenburg, E. Caldeweyher
   M. Checinski, S. Dohm, S. Ehlert, S. Ehrlich, I. Gerasimov, C. Hölzer
   A. Katbashev, J. Koopman, C. Lavigne, S. Lehtola, F. März, M. Müller,
   F. Musil, H. Neugebauer, J. Pisarek, C. Plett, P. Pracht, F. Pultar,
   J. Seibert, P. Shushkov, S. Spicher, M. Stahn, M. Steiner, T. Strunk,
   J. Stückrath, T. Rose, and J. Unsleber
   
 * started run on 2024/01/10 at 15:42:36.013     

           -------------------------------------------------
          |                Calculation Setup                |
           -------------------------------------------------

          program call               : xtb struc.xyz --gfn2 --hess
          hostname                   : swaroop
          coordinate file            : struc.xyz
          omp threads                :                     1

   ID    Z sym.   atoms
    1    8 O      1, 23, 31, 39, 47
    2    6 C      2, 5, 9, 13, 17, 22, 30, 38, 46
    3    1 H      3, 4, 6, 7, 10-12, 14-16, 18-21, 25, 26, 28, 29, 33, 34,
                  36, 37, 41, 42, 44, 45, 49, 50, 52, 53
    4    7 N      8, 24, 27, 32, 35, 40, 43, 48, 51

molecular fragmentation (1/2 indicates fragments):
11111111111111111111122222222222222222222222222222222
# atoms in fragment 1/2:    21    32
 fragment masses (1/2) :      104.17      240.22
CMA distance (Bohr)    :   7.939
constraining FC (au)   :  0.0500

           -------------------------------------------------
          |                 G F N 2 - x T B                 |
           -------------------------------------------------

        Reference                      10.1021/acs.jctc.8b01176
      * Hamiltonian:
        H0-scaling (s, p, d)           1.850000    2.230000    2.230000
        zeta-weighting                 0.500000
      * Dispersion:
        s8                             2.700000
        a1                             0.520000
        a2                             5.000000
        s9                             5.000000
      * Repulsion:
        kExp                           1.500000    1.000000
        rExp                           1.000000
      * Coulomb:
        alpha                          2.000000
        third order                    shell-resolved
        anisotropic                    true
        a3                             3.000000
        a5                             4.000000
        cn-shift                       1.200000
        cn-exp                         4.000000
        max-rad                        5.000000


          ...................................................
          :                      SETUP                      :
          :.................................................:
          :  # basis functions                 122          :
          :  # atomic orbitals                 122          :
          :  # shells                           76          :
          :  # electrons                       140          :
          :  max. iterations                   250          :
          :  Hamiltonian                  GFN2-xTB          :
          :  restarted?                      false          :
          :  GBSA solvation                  false          :
          :  PC potential                    false          :
          :  electronic temp.          300.0000000     K    :
          :  accuracy                    1.0000000          :
          :  -> integral cutoff          0.2500000E+02      :
          :  -> integral neglect         0.1000000E-07      :
          :  -> SCF convergence          0.1000000E-05 Eh   :
          :  -> wf. convergence          0.1000000E-03 e    :
          :  Broyden damping             0.4000000          :
          ...................................................

 iter      E             dE          RMSdq      gap      omega  full diag
   1    -81.5454192 -0.815454E+02  0.430E+00    5.11       0.0  T
   2    -81.8385773 -0.293158E+00  0.232E+00    5.97       1.0  T
   3    -81.8442922 -0.571497E-02  0.114E+00    5.72       1.0  T
   4    -81.8456662 -0.137399E-02  0.240E-01    5.81       1.0  T
   5    -81.8465633 -0.897111E-03  0.912E-02    5.71       1.0  T
   6    -81.8465872 -0.238994E-04  0.252E-02    5.72       1.0  T
   7    -81.8465922 -0.492877E-05  0.728E-03    5.71       1.9  T
   8    -81.8465924 -0.238349E-06  0.257E-03    5.71       5.4  T
   9    -81.8465924 -0.229275E-07  0.890E-04    5.71      15.4  T
  10    -81.8465924 -0.704077E-08  0.187E-04    5.71      73.3  T

   *** convergence criteria satisfied after 10 iterations ***

         #    Occupation            Energy/Eh            Energy/eV
      -------------------------------------------------------------
         1        2.0000           -0.7914140             -21.5355
       ...           ...                  ...                  ...
        64        2.0000           -0.4872946             -13.2600
        65        2.0000           -0.4860803             -13.2269
        66        2.0000           -0.4831774             -13.1479
        67        2.0000           -0.4827352             -13.1359
        68        2.0000           -0.4800948             -13.0640
        69        2.0000           -0.4771704             -12.9845
        70        2.0000           -0.4755608             -12.9407 (HOMO)
        71                         -0.2657633              -7.2318 (LUMO)
        72                         -0.2547030              -6.9308
        73                         -0.2502129              -6.8086
        74                         -0.2501204              -6.8061
        75                         -0.1473207              -4.0088
       ...                                ...                  ...
       122                          0.5765093              15.6876
      -------------------------------------------------------------
                  HL-Gap            0.2097975 Eh            5.7089 eV
             Fermi-level           -0.3706621 Eh          -10.0862 eV

 SCC (total)                   0 d,  0 h,  0 min,  0.077 sec
 SCC setup                      ...        0 min,  0.000 sec (  0.394%)
 Dispersion                     ...        0 min,  0.001 sec (  0.754%)
 classical contributions        ...        0 min,  0.000 sec (  0.237%)
 integral evaluation            ...        0 min,  0.007 sec (  9.470%)
 iterations                     ...        0 min,  0.042 sec ( 54.231%)
 molecular gradient             ...        0 min,  0.027 sec ( 34.557%)
 printout                       ...        0 min,  0.000 sec (  0.342%)

         :::::::::::::::::::::::::::::::::::::::::::::::::::::
         ::                     SUMMARY                     ::
         :::::::::::::::::::::::::::::::::::::::::::::::::::::
         :: total energy             -80.931566243338 Eh    ::
         :: gradient norm              0.000181445575 Eh/a0 ::
         :: HOMO-LUMO gap              5.708881040986 eV    ::
         ::.................................................::
         :: SCC energy               -81.846592437145 Eh    ::
         :: -> isotropic ES            0.291721358204 Eh    ::
         :: -> anisotropic ES         -0.029167731023 Eh    ::
         :: -> anisotropic XC          0.020883507927 Eh    ::
         :: -> dispersion             -0.040122623811 Eh    ::
         :: repulsion energy           0.914673939696 Eh    ::
         :: add. restraining           0.000000000000 Eh    ::
         :: total charge               1.000000000000 e     ::
         :::::::::::::::::::::::::::::::::::::::::::::::::::::

           ------------------------------------------------- 
          |                Numerical Hessian                |
           ------------------------------------------------- 
step length          :   0.00500
SCC accuracy         :   0.30000
Hessian scale factor :   1.00000
frozen atoms in %    :   0.00000    0
RMS gradient         :   0.00018
estimated CPU  time      0.23 min
estimated wall time      0.23 min

writing file <hessian>.

 projected vibrational frequencies (cm⁻¹)
eigval :       -0.00    -0.00    -0.00    -0.00     0.00     0.00
eigval :      -11.57     9.10    12.17    18.69    25.50    28.67
eigval :       31.08    37.66    42.64    46.28    48.83    56.44
eigval :       65.27    75.63    77.87    83.16    94.46   104.19
eigval :      112.81   120.07   124.92   137.03   146.18   150.89
eigval :      164.84   185.57   243.82   259.55   281.53   285.71
eigval :      293.71   302.44   305.59   318.51   322.93   348.22
eigval :      368.38   386.70   418.90   436.52   438.71   440.72
eigval :      457.68   463.52   466.54   470.37   475.39   480.45
eigval :      484.46   502.49   509.02   531.73   540.02   542.79
eigval :      545.26   565.17   583.68   635.36   637.58   670.31
eigval :      674.86   676.69   680.85   719.61   762.85   808.63
eigval :      911.21   932.07   946.00   965.39   971.98   993.87
eigval :      996.38   996.97  1009.55  1012.60  1015.12  1024.81
eigval :     1026.79  1036.24  1038.91  1082.18  1086.40  1091.44
eigval :     1098.05  1105.00  1113.59  1129.46  1171.46  1226.78
eigval :     1250.31  1274.89  1314.71  1336.69  1342.96  1354.22
eigval :     1355.47  1361.17  1366.42  1385.46  1401.74  1413.92
eigval :     1423.70  1436.16  1444.92  1446.15  1446.95  1455.40
eigval :     1457.19  1458.96  1460.34  1462.39  1474.28  1475.11
eigval :     1485.12  1497.21  1498.46  1502.02  1528.87  1669.34
eigval :     1713.16  1723.05  1724.71  2892.47  2953.13  2991.13
eigval :     2995.01  3018.09  3032.03  3042.40  3043.67  3045.81
eigval :     3047.65  3051.88  3052.58  3057.63  3067.53  3257.90
eigval :     3380.58  3382.14  3426.52  3496.20  3497.01  3500.57
eigval :     3505.01  3523.52  3535.86  3541.37  3555.18  3561.57
eigval :     3561.93  3564.81  3570.48
           -------------------------------------------------
          |                Property Printout                |
           -------------------------------------------------

    * Orbital Energies and Occupations

         #    Occupation            Energy/Eh            Energy/eV
      -------------------------------------------------------------
         1        2.0000           -0.7914134             -21.5355
       ...           ...                  ...                  ...
        58        2.0000           -0.5047050             -13.7337
        59        2.0000           -0.5006719             -13.6240
        60        2.0000           -0.4993923             -13.5892
        61        2.0000           -0.4956126             -13.4863
        62        2.0000           -0.4941887             -13.4476
        63        2.0000           -0.4879978             -13.2791
        64        2.0000           -0.4872964             -13.2600
        65        2.0000           -0.4860805             -13.2269
        66        2.0000           -0.4831771             -13.1479
        67        2.0000           -0.4827374             -13.1360
        68        2.0000           -0.4800956             -13.0641
        69        2.0000           -0.4771717             -12.9845
        70        2.0000           -0.4755623             -12.9407 (HOMO)
        71                         -0.2657655              -7.2318 (LUMO)
        72                         -0.2547014              -6.9308
        73                         -0.2502163              -6.8087
        74                         -0.2501229              -6.8062
        75                         -0.1473201              -4.0088
        76                         -0.1001671              -2.7257
        77                         -0.0846349              -2.3030
        78                         -0.0817241              -2.2238
        79                         -0.0771355              -2.0990
        80                         -0.0672503              -1.8300
        81                         -0.0655758              -1.7844
       ...                                ...                  ...
       122                          0.5765087              15.6876
      -------------------------------------------------------------
                  HL-Gap            0.2097968 Eh            5.7089 eV
             Fermi-level           -0.3706639 Eh          -10.0863 eV

     #   Z          covCN         q      C6AA      α(0)
     1   8 O        1.652    -0.484    22.552     6.411
     2   6 C        3.673     0.067    19.677     6.357
     3   1 H        0.924     0.080     1.982     2.202
     4   1 H        0.923     0.037     2.489     2.467
     5   6 C        3.767    -0.062    21.730     6.644
     6   1 H        0.924     0.130     1.537     1.939
     7   1 H        0.924     0.068     2.108     2.271
     8   7 N        3.623     0.155    18.622     6.409
     9   6 C        3.732    -0.110    22.694     6.799
    10   1 H        0.925     0.136     1.494     1.911
    11   1 H        0.925     0.080     1.984     2.203
    12   1 H        0.925     0.083     1.945     2.181
    13   6 C        3.720    -0.112    22.769     6.815
    14   1 H        0.925     0.085     1.927     2.171
    15   1 H        0.925     0.079     1.993     2.208
    16   1 H        0.925     0.141     1.453     1.885
    17   6 C        3.726    -0.110    22.713     6.805
    18   1 H        0.925     0.123     1.586     1.969
    19   1 H        0.925     0.120     1.609     1.984
    20   1 H        0.925     0.079     1.987     2.204
    21   1 H        0.801     0.338     0.617     1.235
    22   6 C        2.675     0.347    21.101     7.517
    23   8 O        0.860    -0.512    24.043     6.574
    24   7 N        2.646    -0.288    27.422     7.777
    25   1 H        0.860     0.200     1.107     1.648
    26   1 H        0.861     0.188     1.172     1.696
    27   7 N        2.646    -0.287    27.399     7.774
    28   1 H        0.861     0.188     1.172     1.696
    29   1 H        0.860     0.200     1.103     1.645
    30   6 C        2.675     0.340    21.225     7.539
    31   8 O        0.860    -0.536    24.594     6.649
    32   7 N        2.650    -0.296    27.618     7.805
    33   1 H        0.860     0.200     1.108     1.649
    34   1 H        0.860     0.223     0.996     1.563
    35   7 N        2.650    -0.294    27.578     7.799
    36   1 H        0.860     0.226     0.983     1.553
    37   1 H        0.861     0.192     1.148     1.679
    38   6 C        2.675     0.344    21.149     7.525
    39   8 O        0.860    -0.522    24.279     6.606
    40   7 N        2.644    -0.309    27.949     7.852
    41   1 H        0.860     0.228     0.973     1.545
    42   1 H        0.861     0.174     1.249     1.750
    43   7 N        2.644    -0.294    27.583     7.800
    44   1 H        0.861     0.180     1.214     1.726
    45   1 H        0.860     0.198     1.116     1.655
    46   6 C        2.675     0.345    21.144     7.524
    47   8 O        0.860    -0.533    24.524     6.640
    48   7 N        2.644    -0.311    28.007     7.860
    49   1 H        0.860     0.240     0.923     1.505
    50   1 H        0.860     0.171     1.265     1.762
    51   7 N        2.645    -0.298    27.677     7.813
    52   1 H        0.861     0.178     1.223     1.732
    53   1 H        0.860     0.193     1.144     1.676

 Mol. C6AA /au·bohr⁶  :      21801.413039
 Mol. C8AA /au·bohr⁸  :     454304.775269
 Mol. α(0) /au        :        220.604407


Wiberg/Mayer (AO) data.
largest (>0.10) Wiberg bond orders for each atom

 ---------------------------------------------------------------------------
     #   Z sym  total        # sym  WBO       # sym  WBO       # sym  WBO
 ---------------------------------------------------------------------------
     1   8 O    1.955 --     2 C    1.017    21 H    0.794
     2   6 C    3.962 --     1 O    1.017     5 C    0.993     4 H    0.965
                             3 H    0.956
     3   1 H    0.994 --     2 C    0.956
     4   1 H    0.998 --     2 C    0.965
     5   6 C    3.929 --     2 C    0.993     7 H    0.971     6 H    0.947
                             8 N    0.933
     6   1 H    0.983 --     5 C    0.947
     7   1 H    0.995 --     5 C    0.971
     8   7 N    3.821 --    13 C    0.959     9 C    0.958    17 C    0.953
                             5 C    0.933
     9   6 C    3.925 --    11 H    0.979    12 H    0.977     8 N    0.958
                            10 H    0.953
    10   1 H    0.982 --     9 C    0.953
    11   1 H    0.994 --     9 C    0.979
    12   1 H    0.993 --     9 C    0.977
    13   6 C    3.923 --    15 H    0.979    14 H    0.977     8 N    0.959
                            16 H    0.949
    14   1 H    0.993 --    13 C    0.977
    15   1 H    0.994 --    13 C    0.979
    16   1 H    0.980 --    13 C    0.949
    17   6 C    3.915 --    20 H    0.979    19 H    0.965    18 H    0.963
                             8 N    0.953
    18   1 H    0.985 --    17 C    0.963
    19   1 H    0.985 --    17 C    0.965
    20   1 H    0.994 --    17 C    0.979
    21   1 H    0.886 --     1 O    0.794
    22   6 C    3.959 --    23 O    1.534    27 N    1.210    24 N    1.208
    23   8 O    1.924 --    22 C    1.534    27 N    0.143    24 N    0.143
    24   7 N    3.323 --    22 C    1.208    26 H    0.946    25 H    0.943
                            23 O    0.143
    25   1 H    0.960 --    24 N    0.943
    26   1 H    0.965 --    24 N    0.946
    27   7 N    3.325 --    22 C    1.210    28 H    0.946    29 H    0.943
                            23 O    0.143
    28   1 H    0.964 --    27 N    0.946
    29   1 H    0.960 --    27 N    0.943
    30   6 C    3.960 --    31 O    1.456    35 N    1.249    32 N    1.249
    31   8 O    1.924 --    30 C    1.456    32 N    0.133    35 N    0.132
    32   7 N    3.347 --    30 C    1.249    33 H    0.939    34 H    0.912
                            31 O    0.133
    33   1 H    0.960 --    32 N    0.939
    34   1 H    0.950 --    32 N    0.912
    35   7 N    3.346 --    30 C    1.249    37 H    0.945    36 H    0.905
                            31 O    0.132
    36   1 H    0.949 --    35 N    0.905
    37   1 H    0.963 --    35 N    0.945
    38   6 C    3.959 --    39 O    1.539    40 N    1.217    43 N    1.196
    39   8 O    1.900 --    38 C    1.539    40 N    0.147    43 N    0.140
    40   7 N    3.315 --    38 C    1.217    42 H    0.950    41 H    0.902
                            39 O    0.147
    41   1 H    0.948 --    40 N    0.902
    42   1 H    0.970 --    40 N    0.950
    43   7 N    3.311 --    38 C    1.196    44 H    0.949    45 H    0.944
                            39 O    0.140
    44   1 H    0.967 --    43 N    0.949
    45   1 H    0.961 --    43 N    0.944
    46   6 C    3.959 --    47 O    1.523    48 N    1.238    51 N    1.189
    47   8 O    1.886 --    46 C    1.523    48 N    0.146    51 N    0.136
    48   7 N    3.324 --    46 C    1.238    50 H    0.951    49 H    0.876
                            47 O    0.146
    49   1 H    0.942 --    48 N    0.876
    50   1 H    0.970 --    48 N    0.951
    51   7 N    3.303 --    46 C    1.189    52 H    0.949    53 H    0.946
                            47 O    0.136
    52   1 H    0.968 --    51 N    0.949
    53   1 H    0.963 --    51 N    0.946
 ---------------------------------------------------------------------------

Topologies differ in total number of bonds
Writing topology from bond orders to xtbtopo.mol

molecular dipole:
                 x           y           z       tot (Debye)
 q only:        0.495       0.254      -0.259
   full:        0.974       1.087      -0.462       3.890
molecular quadrupole (traceless):
                xx          xy          yy          xz          yz          zz
 q only:       -5.483      53.099      14.992      -7.264     -39.323      -9.509
  q+dip:       -3.988      59.616      11.188      -5.370     -44.191      -7.200
   full:       -4.045      58.622      11.743      -5.753     -43.968      -7.699

           -------------------------------------------------
          |               Frequency Printout                |
           -------------------------------------------------
 projected vibrational frequencies (cm⁻¹)
eigval :       -0.00    -0.00    -0.00    -0.00     0.00     0.00
eigval :      -11.57     9.10    12.17    18.69    25.50    28.67
eigval :       31.08    37.66    42.64    46.28    48.83    56.44
eigval :       65.27    75.63    77.87    83.16    94.46   104.19
eigval :      112.81   120.07   124.92   137.03   146.18   150.89
eigval :      164.84   185.57   243.82   259.55   281.53   285.71
eigval :      293.71   302.44   305.59   318.51   322.93   348.22
eigval :      368.38   386.70   418.90   436.52   438.71   440.72
eigval :      457.68   463.52   466.54   470.37   475.39   480.45
eigval :      484.46   502.49   509.02   531.73   540.02   542.79
eigval :      545.26   565.17   583.68   635.36   637.58   670.31
eigval :      674.86   676.69   680.85   719.61   762.85   808.63
eigval :      911.21   932.07   946.00   965.39   971.98   993.87
eigval :      996.38   996.97  1009.55  1012.60  1015.12  1024.81
eigval :     1026.79  1036.24  1038.91  1082.18  1086.40  1091.44
eigval :     1098.05  1105.00  1113.59  1129.46  1171.46  1226.78
eigval :     1250.31  1274.89  1314.71  1336.69  1342.96  1354.22
eigval :     1355.47  1361.17  1366.42  1385.46  1401.74  1413.92
eigval :     1423.70  1436.16  1444.92  1446.15  1446.95  1455.40
eigval :     1457.19  1458.96  1460.34  1462.39  1474.28  1475.11
eigval :     1485.12  1497.21  1498.46  1502.02  1528.87  1669.34
eigval :     1713.16  1723.05  1724.71  2892.47  2953.13  2991.13
eigval :     2995.01  3018.09  3032.03  3042.40  3043.67  3045.81
eigval :     3047.65  3051.88  3052.58  3057.63  3067.53  3257.90
eigval :     3380.58  3382.14  3426.52  3496.20  3497.01  3500.57
eigval :     3505.01  3523.52  3535.86  3541.37  3555.18  3561.57
eigval :     3561.93  3564.81  3570.48
 reduced masses (amu)
   1: 12.49   2: 12.77   3: 12.59   4: 12.56   5: 12.46   6: 12.38   7: 10.64   8: 11.71
   9: 12.41  10: 12.24  11: 12.55  12: 12.63  13: 11.94  14: 12.85  15: 12.78  16: 13.39
  17: 12.30  18: 12.66  19: 12.80  20: 13.74  21: 12.92  22: 13.01  23: 11.85  24: 13.10
  25: 11.24  26: 12.23  27: 12.37  28: 11.21  29: 11.33  30: 10.53  31:  4.47  32: 12.55
  33:  4.09  34:  3.57  35: 10.05  36:  4.28  37:  4.95  38:  3.00  39:  5.63  40:  3.71
  41:  2.08  42:  8.00  43:  7.93  44:  3.34  45:  3.14  46:  8.63  47:  2.21  48:  1.52
  49:  8.61  50:  4.63  51:  6.90  52:  6.12  53:  8.03  54:  3.96  55:  8.28  56:  2.80
  57:  9.19  58: 10.18  59: 10.92  60: 10.01  61: 10.07  62: 11.85  63:  1.13  64:  4.16
  65:  2.06  66: 11.64  67: 11.60  68: 11.77  69:  9.51  70:  2.85  71:  9.37  72:  1.90
  73:  7.91  74:  7.38  75:  5.24  76:  5.04  77:  4.94  78:  5.18  79:  8.61  80:  7.50
  81:  9.53  82:  7.59  83:  9.31  84:  6.42  85:  8.46  86:  7.70  87:  2.96  88:  9.81
  89:  7.85  90:  8.32  91:  8.08  92:  4.51  93:  9.10  94:  7.44  95:  3.12  96:  5.75
  97:  6.56  98:  7.94  99:  6.17 100:  3.29 101:  3.96 102:  5.84 103:  5.42 104:  4.72
 105:  5.73 106:  3.24 107:  2.45 108:  2.48 109:  2.13 110:  2.24 111:  3.04 112:  1.68
 113:  1.83 114:  1.83 115:  3.06 116:  2.26 117:  2.57 118:  2.93 119:  1.68 120:  1.59
 121:  1.62 122:  8.22 123:  7.83 124:  7.94 125: 10.20 126: 12.61 127: 12.77 128: 12.81
 129: 12.77 130:  1.74 131:  1.74 132:  1.72 133:  1.76 134:  1.91 135:  1.70 136:  1.86
 137:  1.59 138:  1.76 139:  1.68 140:  1.61 141:  1.92 142:  1.70 143:  1.76 144:  1.76
 145:  1.66 146:  1.65 147:  1.59 148:  1.45 149:  1.45 150:  1.44 151:  1.46 152:  1.91
 153:  1.99 154:  2.07 155:  2.01 156:  2.18 157:  2.18 158:  2.19 159:  2.18
 IR intensities (km·mol⁻¹)
   1:  0.97   2:  1.50   3:  1.93   4:  0.87   5:  1.49   6:  2.04   7:  0.01   8:  1.05
   9:  1.35  10:  2.17  11:  1.09  12:  2.19  13:  0.93  14:  6.85  15:  0.65  16:  0.79
  17:  2.61  18:  4.02  19:  9.88  20:  3.27  21:  3.33  22:  0.23  23: 15.14  24: 16.94
  25: 19.37  26:  4.50  27: 14.87  28: 21.45  29:  0.84  30: 15.51  31:  6.93  32: 13.44
  33:  3.86  34:  0.93  35: 12.18  36: 73.93  37: 31.94  38:155.76  39:  9.57  40:361.75
  41:  4.09  42:  7.45  43:  1.96  44:220.75  45:138.99  46:  2.67  47:579.02  48: 69.95
  49:  5.14  50:  5.63  51: 36.68  52: 11.26  53:  1.45  54: 18.77  55: 19.36  56: 90.43
  57: 78.26  58: 50.54  59: 18.91  60: 20.02  61:  0.36  62: 42.46  63:  2.68  64: 61.49
  65:122.32  66: 35.82  67: 20.10  68: 64.13  69: 98.23  70:207.03  71:  4.27  72:333.43
  73:  2.32  74:  8.50  75:  1.00  76:  2.36  77:  0.12  78: 11.22  79:  4.04  80: 20.29
  81:  0.73  82: 26.44  83: 18.75  84: 23.63  85: 14.33  86:  8.33  87:  0.85  88:  0.49
  89: 30.83  90:  2.14  91:  2.10  92: 23.13  93:  0.66  94: 24.78  95: 34.67  96:  2.06
  97:  7.54  98:  5.71  99:  1.43 100:  3.19 101: 61.57 102: 14.99 103:134.40 104: 51.46
 105:156.29 106:104.30 107: 35.24 108:  5.15 109:  8.93 110: 21.91 111: 29.02 112:  0.34
 113:  4.68 114:  8.10 115: 12.69 116: 23.05 117: 10.98 118:  1.79 119: 20.23 120: 26.45
 121: 47.11 122: 98.33 123:789.73 124:594.69 125:535.31 126:****** 127:687.81 128:******
 129:336.66 130: 36.24 131: 14.16 132: 70.54 133: 23.26 134:****** 135:164.43 136:  9.30
 137: 16.94 138:  4.57 139: 33.11 140: 36.43 141: 18.20 142: 29.89 143: 55.52 144:******
 145:335.33 146:101.70 147:372.60 148: 18.20 149: 13.81 150: 39.36 151:  5.21 152: 11.22
 153: 20.14 154: 67.24 155: 47.60 156: 11.22 157:  7.45 158: 14.58 159: 17.16
 Raman intensities (amu)
Molecule has no symmetry elements
It seems to be the C1 point group
   1:  0.00   2:  0.00   3:  0.00   4:  0.00   5:  0.00   6:  0.00   7:  0.00   8:  0.00
   9:  0.00  10:  0.00  11:  0.00  12:  0.00  13:  0.00  14:  0.00  15:  0.00  16:  0.00
  17:  0.00  18:  0.00  19:  0.00  20:  0.00  21:  0.00  22:  0.00  23:  0.00  24:  0.00
  25:  0.00  26:  0.00  27:  0.00  28:  0.00  29:  0.00  30:  0.00  31:  0.00  32:  0.00
  33:  0.00  34:  0.00  35:  0.00  36:  0.00  37:  0.00  38:  0.00  39:  0.00  40:  0.00
  41:  0.00  42:  0.00  43:  0.00  44:  0.00  45:  0.00  46:  0.00  47:  0.00  48:  0.00
  49:  0.00  50:  0.00  51:  0.00  52:  0.00  53:  0.00  54:  0.00  55:  0.00  56:  0.00
  57:  0.00  58:  0.00  59:  0.00  60:  0.00  61:  0.00  62:  0.00  63:  0.00  64:  0.00
  65:  0.00  66:  0.00  67:  0.00  68:  0.00  69:  0.00  70:  0.00  71:  0.00  72:  0.00
  73:  0.00  74:  0.00  75:  0.00  76:  0.00  77:  0.00  78:  0.00  79:  0.00  80:  0.00
  81:  0.00  82:  0.00  83:  0.00  84:  0.00  85:  0.00  86:  0.00  87:  0.00  88:  0.00
  89:  0.00  90:  0.00  91:  0.00  92:  0.00  93:  0.00  94:  0.00  95:  0.00  96:  0.00
  97:  0.00  98:  0.00  99:  0.00 100:  0.00 101:  0.00 102:  0.00 103:  0.00 104:  0.00
 105:  0.00 106:  0.00 107:  0.00 108:  0.00 109:  0.00 110:  0.00 111:  0.00 112:  0.00
 113:  0.00 114:  0.00 115:  0.00 116:  0.00 117:  0.00 118:  0.00 119:  0.00 120:  0.00
 121:  0.00 122:  0.00 123:  0.00 124:  0.00 125:  0.00 126:  0.00 127:  0.00 128:  0.00
 129:  0.00 130:  0.00 131:  0.00 132:  0.00 133:  0.00 134:  0.00 135:  0.00 136:  0.00
 137:  0.00 138:  0.00 139:  0.00 140:  0.00 141:  0.00 142:  0.00 143:  0.00 144:  0.00
 145:  0.00 146:  0.00 147:  0.00 148:  0.00 149:  0.00 150:  0.00 151:  0.00 152:  0.00
 153:  0.00 154:  0.00 155:  0.00 156:  0.00 157:  0.00 158:  0.00 159:  0.00
 output can be read by thermo (or use thermo option).
 writing <g98.out> molden fake output.
 recommended (thermochemical) frequency scaling factor: 1.0
           -------------------------------------------------
          |             Thermodynamic Functions             |
           -------------------------------------------------

c1  symmetry found (for desy threshold:  0.10E+00) used in thermo
 inverting freq            1   11.566174203958738     

          ...................................................
          :                      SETUP                      :
          :.................................................:
          :  # frequencies                         153      :
          :  # imaginary freq.                       0      :
          :  linear?                             false      :
          :  only rotor calc.                    false      :
          :  symmetry                               c1      :
          :  rotational number                       1      :
          :  scaling factor                  1.0000000      :
          :  rotor cutoff                   50.0000000 cm⁻¹ :
          :  imag. cutoff                  -20.0000000 cm⁻¹ :
          :.................................................:

    mode    ω/cm⁻¹     T·S(HO)/kcal·mol⁻¹    T·S(FR)/kcal·mol⁻¹   T·S(vib)
   ------------------------------------------------------------------------
       1     11.57    -2.30230 (  0.29%)    -1.49014 ( 99.71%)    -1.49246
       2      9.10    -2.44454 (  0.11%)    -1.56125 ( 99.89%)    -1.56221
       3     12.17    -2.27197 (  0.35%)    -1.47497 ( 99.65%)    -1.47777
       4     18.69    -2.01805 (  1.92%)    -1.34799 ( 98.08%)    -1.36082
       5     25.50    -1.83409 (  6.34%)    -1.25593 ( 93.66%)    -1.29259
       6     28.67    -1.76480 (  9.76%)    -1.22125 ( 90.24%)    -1.27429
       7     31.08    -1.71703 ( 13.00%)    -1.19732 ( 87.00%)    -1.26487
       8     37.66    -1.60353 ( 24.36%)    -1.14045 ( 75.64%)    -1.25324
       9     42.64    -1.53020 ( 34.60%)    -1.10367 ( 65.40%)    -1.25126
      10     46.28    -1.48188 ( 42.33%)    -1.07942 ( 57.67%)    -1.24980
      11     48.83    -1.45022 ( 47.64%)    -1.06352 ( 52.36%)    -1.24775
      12     56.44    -1.36491 ( 61.88%)    -1.02064 ( 38.12%)    -1.23369
      13     65.27    -1.27940 ( 74.38%)    -0.97758 ( 25.62%)    -1.20209
      14     75.63    -1.19296 ( 83.96%)    -0.93395 ( 16.04%)    -1.15142
      15     77.87    -1.17589 ( 85.47%)    -0.92531 ( 14.53%)    -1.13948
      16     83.16    -1.13742 ( 88.44%)    -0.90583 ( 11.56%)    -1.11065
      17     94.46    -1.06305 ( 92.72%)    -0.86808 (  7.28%)    -1.04886
      18    104.19    -1.00607 ( 94.96%)    -0.83904 (  5.04%)    -0.99766
      19    112.81    -0.96004 ( 96.28%)    -0.81550 (  3.72%)    -0.95467
      20    120.07    -0.92404 ( 97.08%)    -0.79702 (  2.92%)    -0.92033
      21    124.92    -0.90123 ( 97.50%)    -0.78528 (  2.50%)    -0.89833
      22    137.03    -0.84822 ( 98.26%)    -0.75788 (  1.74%)    -0.84664
      23    146.18    -0.81137 ( 98.65%)    -0.73873 (  1.35%)    -0.81039
      24    150.89    -0.79336 ( 98.81%)    -0.72933 (  1.19%)    -0.79260
      25    164.84    -0.74344 ( 99.16%)    -0.70314 (  0.84%)    -0.74310
      26    185.57    -0.67728 ( 99.48%)    -0.66805 (  0.52%)    -0.67723
      27    243.82    -0.52917 ( 99.82%)    -0.58718 (  0.18%)    -0.52927
      28    259.55    -0.49636 ( 99.86%)    -0.56866 (  0.14%)    -0.49646
      29    281.53    -0.45449 ( 99.90%)    -0.54458 (  0.10%)    -0.45458
      30    285.71    -0.44700 ( 99.91%)    -0.54021 (  0.09%)    -0.44709
      31    293.71    -0.43307 ( 99.92%)    -0.53203 (  0.08%)    -0.43315
   ------------------------------------------------------------------------

   temp. (K)  partition function   enthalpy   heat capacity  entropy
                                   cal/mol     cal/K/mol   cal/K/mol   J/K/mol
 298.15  VIB  0.834E+19            19928.007    103.195    133.154
         ROT  0.213E+08              888.752      2.981     36.516
         INT  0.178E+27            20816.759    106.176    169.669
         TR   0.618E+28             1481.254      4.968     43.384
         TOT                       22298.0130   111.1444   213.0538   891.4172

       T/K    H(0)-H(T)+PV         H(T)/Eh          T*S/Eh         G(T)/Eh
   ------------------------------------------------------------------------
    298.15    0.355341E-01    0.473909E+00    0.101229E+00    0.372680E+00
   ------------------------------------------------------------------------

         :::::::::::::::::::::::::::::::::::::::::::::::::::::
         ::                  THERMODYNAMIC                  ::
         :::::::::::::::::::::::::::::::::::::::::::::::::::::
         :: total free energy         -80.558886417072 Eh   ::
         ::.................................................::
         :: total energy              -80.931566243710 Eh   ::
         :: zero point energy           0.438374429288 Eh   ::
         :: G(RRHO) w/o ZPVE           -0.065694602650 Eh   ::
         :: G(RRHO) contrib.            0.372679826638 Eh   ::
         :::::::::::::::::::::::::::::::::::::::::::::::::::::
imag cut-off (cm-1) :    5.00
 found            1  significant imaginary frequency
 writing imag mode distorted coords to xtbhess.xyz
 for further optimization.

           -------------------------------------------------
          | TOTAL ENERGY              -80.931566243710 Eh   |
          | TOTAL ENTHALPY            -80.457657668891 Eh   |
          | TOTAL FREE ENERGY         -80.558886417072 Eh   |
          | GRADIENT NORM               0.000181882211 Eh/α |
          | HOMO-LUMO GAP               5.708861495741 eV   |
           -------------------------------------------------

------------------------------------------------------------------------
 * finished run on 2024/01/10 at 15:42:49.883     
------------------------------------------------------------------------
 total:
 * wall-time:     0 d,  0 h,  0 min, 13.870 sec
 *  cpu-time:     0 d,  0 h,  0 min, 13.823 sec
 * ratio c/w:     0.997 speedup
 SCF:
 * wall-time:     0 d,  0 h,  0 min,  0.077 sec
 *  cpu-time:     0 d,  0 h,  0 min,  0.056 sec
 * ratio c/w:     0.721 speedup
 analytical hessian:
 * wall-time:     0 d,  0 h,  0 min, 13.766 sec
 *  cpu-time:     0 d,  0 h,  0 min, 13.741 sec
 * ratio c/w:     0.998 speedup

