      -----------------------------------------------------------      
     |                   =====================                   |     
     |                           x T B                           |     
     |                   =====================                   |     
     |                         S. Grimme                         |     
     |          Mulliken Center for Theoretical Chemistry        |     
     |                    University of Bonn                     |     
      -----------------------------------------------------------      

   * xtb version 6.6.1 (unknown-commit) compiled by '@Linux' on 12/27/2023

   xtb is free software: you can redistribute it and/or modify it under
   the terms of the GNU Lesser General Public License as published by
   the Free Software Foundation, either version 3 of the License, or
   (at your option) any later version.
   
   xtb is distributed in the hope that it will be useful,
   but WITHOUT ANY WARRANTY; without even the implied warranty of
   MERCHANTABILITY or FITNESS FOR A PARTICULAR PURPOSE.  See the
   GNU Lesser General Public License for more details.
   
   Cite this work as:
   * C. Bannwarth, E. Caldeweyher, S. Ehlert, A. Hansen, P. Pracht,
     J. Seibert, S. Spicher, S. Grimme, WIREs Comput. Mol. Sci., 2020, 11,
     e01493. DOI: 10.1002/wcms.1493
   
   for GFN2-xTB:
   * C. Bannwarth, S. Ehlert and S. Grimme., J. Chem. Theory Comput., 2019,
     15, 1652-1671. DOI: 10.1021/acs.jctc.8b01176
   for GFN1-xTB:
   * S. Grimme, C. Bannwarth, P. Shushkov, J. Chem. Theory Comput., 2017,
     13, 1989-2009. DOI: 10.1021/acs.jctc.7b00118
   for GFN0-xTB:
   * P. Pracht, E. Caldeweyher, S. Ehlert, S. Grimme, ChemRxiv, 2019, preprint.
     DOI: 10.26434/chemrxiv.8326202.v1
   for GFN-FF:
   * S. Spicher and S. Grimme, Angew. Chem. Int. Ed., 2020, 59, 15665-15673.
     DOI: 10.1002/anie.202004239
   
   for ALPB and GBSA implicit solvation:
   * S. Ehlert, M. Stahn, S. Spicher, S. Grimme, J. Chem. Theory Comput.,
     2021, 17, 4250-4261. DOI: 10.1021/acs.jctc.1c00471
   
   for DFT-D4:
   * E. Caldeweyher, C. Bannwarth and S. Grimme, J. Chem. Phys., 2017,
     147, 034112. DOI: 10.1063/1.4993215
   * E. Caldeweyher, S. Ehlert, A. Hansen, H. Neugebauer, S. Spicher,
     C. Bannwarth and S. Grimme, J. Chem. Phys., 2019, 150, 154122.
     DOI: 10.1063/1.5090222
   * E. Caldeweyher, J.-M. Mewes, S. Ehlert and S. Grimme, Phys. Chem. Chem. Phys.
     2020, 22, 8499-8512. DOI: 10.1039/D0CP00502A
   
   for sTDA-xTB:
   * S. Grimme and C. Bannwarth, J. Chem. Phys., 2016, 145, 054103.
     DOI: 10.1063/1.4959605
   
   in the mass-spec context:
   * V. Asgeirsson, C. Bauer and S. Grimme, Chem. Sci., 2017, 8, 4879.
     DOI: 10.1039/c7sc00601b
   * J. Koopman and S. Grimme, ACS Omega 2019, 4, 12, 15120-15133.
     DOI: 10.1021/acsomega.9b02011
   
   for metadynamics refer to:
   * S. Grimme, J. Chem. Theory Comput., 2019, 155, 2847-2862
     DOI: 10.1021/acs.jctc.9b00143
   
   for SPH calculations refer to:
   * S. Spicher and S. Grimme, J. Chem. Theory Comput., 2021, 17, 1701-1714
     DOI: 10.1021/acs.jctc.0c01306
   
   with help from (in alphabetical order)
   P. Atkinson, C. Bannwarth, F. Bohle, G. Brandenburg, E. Caldeweyher
   M. Checinski, S. Dohm, S. Ehlert, S. Ehrlich, I. Gerasimov, C. Hölzer
   A. Katbashev, J. Koopman, C. Lavigne, S. Lehtola, F. März, M. Müller,
   F. Musil, H. Neugebauer, J. Pisarek, C. Plett, P. Pracht, F. Pultar,
   J. Seibert, P. Shushkov, S. Spicher, M. Stahn, M. Steiner, T. Strunk,
   J. Stückrath, T. Rose, and J. Unsleber
   
 * started run on 2024/01/10 at 18:31:15.237     

           -------------------------------------------------
          |                Calculation Setup                |
           -------------------------------------------------

          program call               : xtb struc.xyz --gfn2 --hess
          hostname                   : swaroop
          coordinate file            : struc.xyz
          omp threads                :                     1

   ID    Z sym.   atoms
    1    8 O      1, 23, 31, 39, 47
    2    6 C      2, 5, 9, 13, 17, 22, 30, 38, 46
    3    1 H      3, 4, 6, 7, 10-12, 14-16, 18-21, 25, 26, 28, 29, 33, 34,
                  36, 37, 41, 42, 44, 45, 49, 50, 52, 53
    4    7 N      8, 24, 27, 32, 35, 40, 43, 48, 51

molecular fragmentation (1/2 indicates fragments):
11111111111111111111122222222222222222222222222222222
# atoms in fragment 1/2:    21    32
 fragment masses (1/2) :      104.17      240.22
CMA distance (Bohr)    :   3.741
constraining FC (au)   :  0.0500

           -------------------------------------------------
          |                 G F N 2 - x T B                 |
           -------------------------------------------------

        Reference                      10.1021/acs.jctc.8b01176
      * Hamiltonian:
        H0-scaling (s, p, d)           1.850000    2.230000    2.230000
        zeta-weighting                 0.500000
      * Dispersion:
        s8                             2.700000
        a1                             0.520000
        a2                             5.000000
        s9                             5.000000
      * Repulsion:
        kExp                           1.500000    1.000000
        rExp                           1.000000
      * Coulomb:
        alpha                          2.000000
        third order                    shell-resolved
        anisotropic                    true
        a3                             3.000000
        a5                             4.000000
        cn-shift                       1.200000
        cn-exp                         4.000000
        max-rad                        5.000000


          ...................................................
          :                      SETUP                      :
          :.................................................:
          :  # basis functions                 122          :
          :  # atomic orbitals                 122          :
          :  # shells                           76          :
          :  # electrons                       140          :
          :  max. iterations                   250          :
          :  Hamiltonian                  GFN2-xTB          :
          :  restarted?                      false          :
          :  GBSA solvation                  false          :
          :  PC potential                    false          :
          :  electronic temp.          300.0000000     K    :
          :  accuracy                    1.0000000          :
          :  -> integral cutoff          0.2500000E+02      :
          :  -> integral neglect         0.1000000E-07      :
          :  -> SCF convergence          0.1000000E-05 Eh   :
          :  -> wf. convergence          0.1000000E-03 e    :
          :  Broyden damping             0.4000000          :
          ...................................................

 iter      E             dE          RMSdq      gap      omega  full diag
   1    -81.5498799 -0.815499E+02  0.433E+00    5.19       0.0  T
   2    -81.8409260 -0.291046E+00  0.232E+00    6.08       1.0  T
   3    -81.8465973 -0.567124E-02  0.113E+00    5.79       1.0  T
   4    -81.8479450 -0.134778E-02  0.241E-01    5.85       1.0  T
   5    -81.8488238 -0.878776E-03  0.913E-02    5.78       1.0  T
   6    -81.8488484 -0.245903E-04  0.268E-02    5.80       1.0  T
   7    -81.8488529 -0.449354E-05  0.749E-03    5.79       1.8  T
   8    -81.8488532 -0.266112E-06  0.258E-03    5.79       5.3  T
   9    -81.8488532 -0.124693E-07  0.820E-04    5.79      16.7  T
  10    -81.8488532 -0.541152E-08  0.164E-04    5.79      84.0  T

   *** convergence criteria satisfied after 10 iterations ***

         #    Occupation            Energy/Eh            Energy/eV
      -------------------------------------------------------------
         1        2.0000           -0.7907368             -21.5170
       ...           ...                  ...                  ...
        64        2.0000           -0.4973426             -13.5334
        65        2.0000           -0.4970612             -13.5257
        66        2.0000           -0.4948418             -13.4653
        67        2.0000           -0.4940366             -13.4434
        68        2.0000           -0.4904342             -13.3454
        69        2.0000           -0.4859474             -13.2233
        70        2.0000           -0.4849029             -13.1949 (HOMO)
        71                         -0.2720452              -7.4027 (LUMO)
        72                         -0.2672766              -7.2730
        73                         -0.2671488              -7.2695
        74                         -0.2607341              -7.0949
        75                         -0.1428867              -3.8881
       ...                                ...                  ...
       122                          0.5519924              15.0205
      -------------------------------------------------------------
                  HL-Gap            0.2128577 Eh            5.7922 eV
             Fermi-level           -0.3784741 Eh          -10.2988 eV

 SCC (total)                   0 d,  0 h,  0 min,  0.096 sec
 SCC setup                      ...        0 min,  0.000 sec (  0.301%)
 Dispersion                     ...        0 min,  0.001 sec (  0.618%)
 classical contributions        ...        0 min,  0.000 sec (  0.188%)
 integral evaluation            ...        0 min,  0.008 sec (  8.306%)
 iterations                     ...        0 min,  0.059 sec ( 61.509%)
 molecular gradient             ...        0 min,  0.028 sec ( 28.806%)
 printout                       ...        0 min,  0.000 sec (  0.259%)

         :::::::::::::::::::::::::::::::::::::::::::::::::::::
         ::                     SUMMARY                     ::
         :::::::::::::::::::::::::::::::::::::::::::::::::::::
         :: total energy             -80.932658095095 Eh    ::
         :: gradient norm              0.000170060800 Eh/a0 ::
         :: HOMO-LUMO gap              5.792152380241 eV    ::
         ::.................................................::
         :: SCC energy               -81.848853186569 Eh    ::
         :: -> isotropic ES            0.292304813998 Eh    ::
         :: -> anisotropic ES         -0.026963279960 Eh    ::
         :: -> anisotropic XC          0.020328960883 Eh    ::
         :: -> dispersion             -0.043344271546 Eh    ::
         :: repulsion energy           0.914941470808 Eh    ::
         :: add. restraining           0.000000000000 Eh    ::
         :: total charge               1.000000000000 e     ::
         :::::::::::::::::::::::::::::::::::::::::::::::::::::

           ------------------------------------------------- 
          |                Numerical Hessian                |
           ------------------------------------------------- 
step length          :   0.00500
SCC accuracy         :   0.30000
Hessian scale factor :   1.00000
frozen atoms in %    :   0.00000    0
RMS gradient         :   0.00017
estimated CPU  time      0.24 min
estimated wall time      0.24 min

writing file <hessian>.

 projected vibrational frequencies (cm⁻¹)
eigval :       -0.00    -0.00    -0.00     0.00     0.00     0.00
eigval :       -7.54     9.20    17.63    21.31    25.30    31.04
eigval :       35.95    42.04    47.96    48.33    49.10    57.92
eigval :       72.77    75.13    82.69    89.45    93.26   101.73
eigval :      105.20   115.93   137.05   150.32   171.17   185.83
eigval :      186.94   199.56   206.44   213.20   241.26   268.64
eigval :      277.45   299.85   316.34   330.54   340.12   364.54
eigval :      377.55   400.69   426.73   434.45   439.68   443.44
eigval :      455.53   463.30   466.27   470.72   475.42   478.58
eigval :      482.37   486.61   490.40   502.13   530.72   541.90
eigval :      553.36   562.54   567.13   666.89   671.65   674.10
eigval :      674.78   724.32   727.41   755.16   770.29   782.37
eigval :      905.87   930.03   946.52   963.46   964.96   968.44
eigval :      995.40  1003.71  1013.93  1015.23  1017.64  1025.27
eigval :     1030.56  1034.27  1038.30  1081.50  1084.30  1089.67
eigval :     1092.71  1095.45  1105.57  1130.03  1161.82  1222.93
eigval :     1250.73  1284.43  1312.29  1321.80  1351.23  1352.12
eigval :     1353.05  1357.58  1376.90  1381.86  1401.62  1406.03
eigval :     1424.84  1436.49  1439.40  1445.34  1451.29  1453.09
eigval :     1456.02  1456.79  1461.11  1466.40  1471.57  1483.67
eigval :     1490.23  1497.59  1502.92  1513.08  1513.75  1661.94
eigval :     1691.76  1704.94  1725.96  2874.56  2973.61  2989.23
eigval :     3026.50  3032.05  3040.19  3045.56  3048.16  3051.08
eigval :     3055.21  3056.32  3058.70  3062.83  3171.83  3217.48
eigval :     3256.31  3287.19  3497.49  3500.20  3500.86  3501.42
eigval :     3504.36  3520.28  3532.06  3536.77  3563.38  3564.50
eigval :     3567.26  3568.01  3569.98
           -------------------------------------------------
          |                Property Printout                |
           -------------------------------------------------

    * Orbital Energies and Occupations

         #    Occupation            Energy/Eh            Energy/eV
      -------------------------------------------------------------
         1        2.0000           -0.7907355             -21.5170
       ...           ...                  ...                  ...
        58        2.0000           -0.5088973             -13.8478
        59        2.0000           -0.5058072             -13.7637
        60        2.0000           -0.5049226             -13.7396
        61        2.0000           -0.5024601             -13.6726
        62        2.0000           -0.5016870             -13.6516
        63        2.0000           -0.5000349             -13.6066
        64        2.0000           -0.4973440             -13.5334
        65        2.0000           -0.4970626             -13.5258
        66        2.0000           -0.4948430             -13.4654
        67        2.0000           -0.4940377             -13.4435
        68        2.0000           -0.4904352             -13.3454
        69        2.0000           -0.4859469             -13.2233
        70        2.0000           -0.4849040             -13.1949 (HOMO)
        71                         -0.2720440              -7.4027 (LUMO)
        72                         -0.2672791              -7.2730
        73                         -0.2671501              -7.2695
        74                         -0.2607367              -7.0950
        75                         -0.1428858              -3.8881
        76                         -0.1048980              -2.8544
        77                         -0.0969207              -2.6373
        78                         -0.0809327              -2.2023
        79                         -0.0745940              -2.0298
        80                         -0.0721107              -1.9622
        81                         -0.0666677              -1.8141
       ...                                ...                  ...
       122                          0.5519903              15.0204
      -------------------------------------------------------------
                  HL-Gap            0.2128600 Eh            5.7922 eV
             Fermi-level           -0.3784740 Eh          -10.2988 eV

     #   Z          covCN         q      C6AA      α(0)
     1   8 O        1.654    -0.460    22.047     6.339
     2   6 C        3.673     0.075    19.546     6.336
     3   1 H        0.924     0.052     2.301     2.372
     4   1 H        0.923     0.043     2.414     2.430
     5   6 C        3.765    -0.075    21.971     6.681
     6   1 H        0.924     0.116     1.646     2.006
     7   1 H        0.925     0.102     1.768     2.079
     8   7 N        3.624     0.159    18.564     6.399
     9   6 C        3.725    -0.114    22.786     6.816
    10   1 H        0.925     0.099     1.797     2.096
    11   1 H        0.925     0.109     1.701     2.040
    12   1 H        0.925     0.111     1.688     2.032
    13   6 C        3.739    -0.119    22.867     6.823
    14   1 H        0.925     0.086     1.922     2.168
    15   1 H        0.925     0.110     1.700     2.039
    16   1 H        0.925     0.120     1.612     1.985
    17   6 C        3.728    -0.108    22.672     6.798
    18   1 H        0.925     0.089     1.887     2.148
    19   1 H        0.925     0.091     1.872     2.140
    20   1 H        0.925     0.120     1.611     1.985
    21   1 H        0.803     0.328     0.643     1.259
    22   6 C        2.675     0.340    21.217     7.538
    23   8 O        0.861    -0.536    24.594     6.649
    24   7 N        2.645    -0.288    27.442     7.780
    25   1 H        0.860     0.201     1.100     1.643
    26   1 H        0.861     0.185     1.186     1.706
    27   7 N        2.644    -0.308    27.926     7.848
    28   1 H        0.861     0.180     1.216     1.727
    29   1 H        0.860     0.242     0.914     1.497
    30   6 C        2.675     0.346    21.127     7.521
    31   8 O        0.860    -0.521    24.249     6.602
    32   7 N        2.646    -0.289    27.454     7.782
    33   1 H        0.860     0.199     1.109     1.650
    34   1 H        0.861     0.186     1.179     1.701
    35   7 N        2.646    -0.289    27.464     7.783
    36   1 H        0.861     0.186     1.180     1.701
    37   1 H        0.860     0.199     1.110     1.650
    38   6 C        2.675     0.341    21.201     7.535
    39   8 O        0.860    -0.520    24.225     6.599
    40   7 N        2.644    -0.310    27.978     7.856
    41   1 H        0.859     0.244     0.906     1.491
    42   1 H        0.861     0.178     1.223     1.732
    43   7 N        2.645    -0.289    27.443     7.780
    44   1 H        0.861     0.185     1.186     1.706
    45   1 H        0.860     0.203     1.088     1.634
    46   6 C        2.675     0.343    21.168     7.529
    47   8 O        0.860    -0.531    24.486     6.634
    48   7 N        2.644    -0.292    27.534     7.793
    49   1 H        0.860     0.200     1.108     1.649
    50   1 H        0.861     0.183     1.200     1.716
    51   7 N        2.643    -0.315    28.113     7.875
    52   1 H        0.860     0.175     1.241     1.745
    53   1 H        0.860     0.236     0.938     1.518

 Mol. C6AA /au·bohr⁶  :      21789.677819
 Mol. C8AA /au·bohr⁸  :     454162.364805
 Mol. α(0) /au        :        220.542994


Wiberg/Mayer (AO) data.
largest (>0.10) Wiberg bond orders for each atom

 ---------------------------------------------------------------------------
     #   Z sym  total        # sym  WBO       # sym  WBO       # sym  WBO
 ---------------------------------------------------------------------------
     1   8 O    1.956 --     2 C    1.021    21 H    0.837
     2   6 C    3.967 --     1 O    1.021     5 C    0.996     3 H    0.966
                             4 H    0.961
     3   1 H    0.997 --     2 C    0.966
     4   1 H    0.998 --     2 C    0.961
     5   6 C    3.927 --     2 C    0.996     7 H    0.952     6 H    0.949
                             8 N    0.933
     6   1 H    0.987 --     5 C    0.949
     7   1 H    0.990 --     5 C    0.952
     8   7 N    3.822 --    17 C    0.961    13 C    0.957     9 C    0.955
                             5 C    0.933
     9   6 C    3.919 --    10 H    0.975    12 H    0.968    11 H    0.966
                             8 N    0.955
    10   1 H    0.990 --     9 C    0.975
    11   1 H    0.988 --     9 C    0.966
    12   1 H    0.988 --     9 C    0.968
    13   6 C    3.924 --    14 H    0.977    15 H    0.969    16 H    0.963
                             8 N    0.957
    14   1 H    0.993 --    13 C    0.977
    15   1 H    0.988 --    13 C    0.969
    16   1 H    0.985 --    13 C    0.963
    17   6 C    3.929 --    18 H    0.977    19 H    0.974    20 H    0.962
                             8 N    0.961
    18   1 H    0.992 --    17 C    0.977
    19   1 H    0.992 --    17 C    0.974
    20   1 H    0.986 --    17 C    0.962
    21   1 H    0.892 --     1 O    0.837
    22   6 C    3.960 --    23 O    1.482    27 N    1.256    24 N    1.212
    23   8 O    1.894 --    22 C    1.482    27 N    0.145    24 N    0.130
    24   7 N    3.326 --    22 C    1.212    26 H    0.947    25 H    0.943
                            23 O    0.130
    25   1 H    0.959 --    24 N    0.943
    26   1 H    0.965 --    24 N    0.947
    27   7 N    3.344 --    22 C    1.256    28 H    0.948    29 H    0.873
                            23 O    0.145
    28   1 H    0.968 --    27 N    0.948
    29   1 H    0.941 --    27 N    0.873
    30   6 C    3.959 --    31 O    1.538    32 N    1.207    35 N    1.207
    31   8 O    1.896 --    30 C    1.538    32 N    0.144    35 N    0.143
    32   7 N    3.323 --    30 C    1.207    34 H    0.947    33 H    0.943
                            31 O    0.144
    33   1 H    0.960 --    32 N    0.943
    34   1 H    0.965 --    32 N    0.947
    35   7 N    3.322 --    30 C    1.207    36 H    0.947    37 H    0.943
                            31 O    0.143
    36   1 H    0.965 --    35 N    0.947
    37   1 H    0.960 --    35 N    0.943
    38   6 C    3.960 --    39 O    1.482    40 N    1.253    43 N    1.215
    39   8 O    1.933 --    38 C    1.482    40 N    0.139    43 N    0.132
    40   7 N    3.335 --    38 C    1.253    42 H    0.948    41 H    0.867
                            39 O    0.139
    41   1 H    0.940 --    40 N    0.867
    42   1 H    0.968 --    40 N    0.948
    43   7 N    3.330 --    38 C    1.215    44 H    0.947    45 H    0.940
                            39 O    0.132
    44   1 H    0.965 --    43 N    0.947
    45   1 H    0.958 --    43 N    0.940
    46   6 C    3.959 --    47 O    1.510    51 N    1.231    48 N    1.206
    47   8 O    1.889 --    46 C    1.510    51 N    0.140    48 N    0.137
    48   7 N    3.322 --    46 C    1.206    50 H    0.948    49 H    0.943
                            47 O    0.137
    49   1 H    0.960 --    48 N    0.943
    50   1 H    0.967 --    48 N    0.948
    51   7 N    3.316 --    46 C    1.231    52 H    0.949    53 H    0.878
                            47 O    0.140
    52   1 H    0.969 --    51 N    0.949
    53   1 H    0.944 --    51 N    0.878
 ---------------------------------------------------------------------------

Topologies differ in total number of bonds
Writing topology from bond orders to xtbtopo.mol

molecular dipole:
                 x           y           z       tot (Debye)
 q only:        0.976       1.227      -0.051
   full:        0.888       1.259      -0.649       4.249
molecular quadrupole (traceless):
                xx          xy          yy          xz          yz          zz
 q only:        7.374      14.358       6.157      23.968      34.844     -13.531
  q+dip:       11.339      16.435       7.601      28.260      43.072     -18.940
   full:       10.800      16.213       7.452      27.599      42.726     -18.252

           -------------------------------------------------
          |               Frequency Printout                |
           -------------------------------------------------
 projected vibrational frequencies (cm⁻¹)
eigval :       -0.00    -0.00    -0.00     0.00     0.00     0.00
eigval :       -7.54     9.20    17.63    21.31    25.30    31.04
eigval :       35.95    42.04    47.96    48.33    49.10    57.92
eigval :       72.77    75.13    82.69    89.45    93.26   101.73
eigval :      105.20   115.93   137.05   150.32   171.17   185.83
eigval :      186.94   199.56   206.44   213.20   241.26   268.64
eigval :      277.45   299.85   316.34   330.54   340.12   364.54
eigval :      377.55   400.69   426.73   434.45   439.68   443.44
eigval :      455.53   463.30   466.27   470.72   475.42   478.58
eigval :      482.37   486.61   490.40   502.13   530.72   541.90
eigval :      553.36   562.54   567.13   666.89   671.65   674.10
eigval :      674.78   724.32   727.41   755.16   770.29   782.37
eigval :      905.87   930.03   946.52   963.46   964.96   968.44
eigval :      995.40  1003.71  1013.93  1015.23  1017.64  1025.27
eigval :     1030.56  1034.27  1038.30  1081.50  1084.30  1089.67
eigval :     1092.71  1095.45  1105.57  1130.03  1161.82  1222.93
eigval :     1250.73  1284.43  1312.29  1321.80  1351.23  1352.12
eigval :     1353.05  1357.58  1376.90  1381.86  1401.62  1406.03
eigval :     1424.84  1436.49  1439.40  1445.34  1451.29  1453.09
eigval :     1456.02  1456.79  1461.11  1466.40  1471.57  1483.67
eigval :     1490.23  1497.59  1502.92  1513.08  1513.75  1661.94
eigval :     1691.76  1704.94  1725.96  2874.56  2973.61  2989.23
eigval :     3026.50  3032.05  3040.19  3045.56  3048.16  3051.08
eigval :     3055.21  3056.32  3058.70  3062.83  3171.83  3217.48
eigval :     3256.31  3287.19  3497.49  3500.20  3500.86  3501.42
eigval :     3504.36  3520.28  3532.06  3536.77  3563.38  3564.50
eigval :     3567.26  3568.01  3569.98
 reduced masses (amu)
   1: 12.80   2: 12.65   3: 12.50   4: 12.68   5: 12.56   6: 12.63   7: 10.97   8: 12.29
   9: 12.24  10: 11.87  11: 11.23  12: 11.27  13: 12.04  14: 12.41  15: 12.89  16: 11.59
  17: 12.15  18: 12.90  19: 12.68  20: 12.96  21: 12.54  22: 13.67  23: 13.06  24: 12.59
  25: 12.40  26: 13.18  27: 11.97  28: 12.40  29: 13.09  30:  8.63  31:  8.13  32: 10.28
  33: 12.49  34:  3.84  35:  2.23  36:  5.75  37:  3.07  38:  7.41  39:  5.56  40:  3.64
  41:  3.04  42:  3.38  43:  6.46  44:  3.38  45:  3.11  46:  8.32  47:  3.06  48:  1.55
  49:  8.44  50:  8.42  51:  8.28  52:  8.14  53:  2.40  54:  6.43  55:  3.35  56:  2.89
  57:  8.10  58:  3.22  59:  9.65  60: 11.32  61: 11.60  62: 11.12  63:  8.89  64: 10.54
  65: 10.88  66: 11.85  67: 11.66  68:  2.78  69:  2.67  70:  2.86  71:  8.86  72:  2.21
  73:  7.01  74:  8.18  75:  5.24  76:  4.94  77:  5.07  78:  5.08  79:  8.77  80:  7.43
  81:  8.11  82:  9.29  83:  9.17  84:  9.27  85:  5.64  86:  7.18  87:  3.13  88:  9.71
  89:  8.86  90:  8.38  91:  7.79  92:  6.98  93:  3.92  94:  8.10  95:  2.89  96:  5.30
  97:  7.49  98:  8.19  99:  5.80 100:  3.70 101:  4.75 102:  5.17 103:  5.55 104:  4.49
 105:  4.30 106:  4.59 107:  2.58 108:  2.49 109:  2.25 110:  1.96 111:  2.18 112:  3.19
 113:  1.72 114:  3.11 115:  2.88 116:  3.12 117:  1.87 118:  1.73 119:  1.63 120:  1.70
 121:  1.77 122:  8.19 123:  8.36 124:  9.36 125:  9.32 126: 12.39 127: 12.68 128: 12.70
 129: 12.84 130:  1.76 131:  1.66 132:  1.77 133:  1.75 134:  1.70 135:  1.61 136:  1.61
 137:  1.56 138:  1.91 139:  1.81 140:  1.95 141:  1.67 142:  1.75 143:  1.81 144:  1.79
 145:  1.77 146:  1.89 147:  1.45 148:  1.44 149:  1.45 150:  1.45 151:  1.46 152:  1.91
 153:  1.90 154:  1.90 155:  2.18 156:  2.19 157:  2.18 158:  2.19 159:  2.18
 IR intensities (km·mol⁻¹)
   1:  1.09   2:  1.30   3:  2.11   4:  2.21   5:  0.21   6:  2.20   7:  0.04   8:  0.97
   9:  2.01  10:  0.62  11:  2.90  12:  1.55  13:  2.06  14:  2.65  15:  0.20  16:  2.14
  17:  6.85  18:  4.36  19:  0.92  20:  1.96  21:  6.13  22:  6.65  23:  4.15  24:  1.94
  25:  7.02  26: 17.26  27: 21.46  28:  4.64  29: 15.87  30: 30.34  31:  6.36  32:  8.13
  33: 43.76  34:229.60  35:118.38  36: 23.89  37:156.04  38:  1.25  39:  0.82  40:468.99
  41: 71.50  42:  2.57  43:  5.58  44:103.95  45:296.60  46: 45.45  47:258.70  48:  3.10
  49:  3.34  50:  4.08  51:  1.05  52: 26.99  53:  2.17  54: 18.76  55:  3.04  56:  3.88
  57: 40.18  58: 36.56  59: 36.69  60: 13.62  61:  7.51  62: 23.72  63: 32.91  64:  9.06
  65: 23.69  66:  6.58  67: 68.43  68: 45.89  69: 54.28  70:325.26  71:  8.78  72:452.10
  73:  4.38  74: 10.41  75:  1.63  76:  8.54  77:  0.40  78:  2.47  79:  0.07  80: 21.57
  81: 29.24  82:  6.20  83:  3.65  84:  3.32  85: 26.88  86: 13.36  87:  0.50  88:  1.85
  89:  0.19  90:  0.50  91:  7.47  92:  5.64  93: 21.35  94: 31.59  95:  6.85  96:  5.94
  97:  3.29  98: 22.73  99:  2.64 100: 18.85 101:  7.30 102: 18.73 103:151.84 104:154.86
 105:172.28 106:  6.72 107: 26.00 108: 25.61 109:  7.77 110:  0.23 111:  1.00 112:  8.17
 113:  5.01 114:  1.67 115:  8.59 116:  2.89 117:  8.96 118: 27.70 119:  7.89 120: 47.87
 121:  7.94 122:371.20 123:780.11 124:336.04 125:512.42 126:289.35 127:704.71 128:******
 129:483.67 130: 39.94 131: 38.59 132:  2.60 133: 18.97 134: 14.02 135:  1.06 136:  5.93
 137: 17.14 138:  1.05 139:  9.50 140: 12.34 141:  7.72 142:  2.93 143:102.82 144:******
 145:696.11 146:493.37 147: 20.38 148: 35.94 149: 23.49 150: 24.88 151:  8.48 152: 13.39
 153: 15.94 154: 14.84 155: 12.27 156: 13.39 157: 12.53 158: 21.28 159: 11.21
 Raman intensities (amu)
Molecule has no symmetry elements
It seems to be the C1 point group
   1:  0.00   2:  0.00   3:  0.00   4:  0.00   5:  0.00   6:  0.00   7:  0.00   8:  0.00
   9:  0.00  10:  0.00  11:  0.00  12:  0.00  13:  0.00  14:  0.00  15:  0.00  16:  0.00
  17:  0.00  18:  0.00  19:  0.00  20:  0.00  21:  0.00  22:  0.00  23:  0.00  24:  0.00
  25:  0.00  26:  0.00  27:  0.00  28:  0.00  29:  0.00  30:  0.00  31:  0.00  32:  0.00
  33:  0.00  34:  0.00  35:  0.00  36:  0.00  37:  0.00  38:  0.00  39:  0.00  40:  0.00
  41:  0.00  42:  0.00  43:  0.00  44:  0.00  45:  0.00  46:  0.00  47:  0.00  48:  0.00
  49:  0.00  50:  0.00  51:  0.00  52:  0.00  53:  0.00  54:  0.00  55:  0.00  56:  0.00
  57:  0.00  58:  0.00  59:  0.00  60:  0.00  61:  0.00  62:  0.00  63:  0.00  64:  0.00
  65:  0.00  66:  0.00  67:  0.00  68:  0.00  69:  0.00  70:  0.00  71:  0.00  72:  0.00
  73:  0.00  74:  0.00  75:  0.00  76:  0.00  77:  0.00  78:  0.00  79:  0.00  80:  0.00
  81:  0.00  82:  0.00  83:  0.00  84:  0.00  85:  0.00  86:  0.00  87:  0.00  88:  0.00
  89:  0.00  90:  0.00  91:  0.00  92:  0.00  93:  0.00  94:  0.00  95:  0.00  96:  0.00
  97:  0.00  98:  0.00  99:  0.00 100:  0.00 101:  0.00 102:  0.00 103:  0.00 104:  0.00
 105:  0.00 106:  0.00 107:  0.00 108:  0.00 109:  0.00 110:  0.00 111:  0.00 112:  0.00
 113:  0.00 114:  0.00 115:  0.00 116:  0.00 117:  0.00 118:  0.00 119:  0.00 120:  0.00
 121:  0.00 122:  0.00 123:  0.00 124:  0.00 125:  0.00 126:  0.00 127:  0.00 128:  0.00
 129:  0.00 130:  0.00 131:  0.00 132:  0.00 133:  0.00 134:  0.00 135:  0.00 136:  0.00
 137:  0.00 138:  0.00 139:  0.00 140:  0.00 141:  0.00 142:  0.00 143:  0.00 144:  0.00
 145:  0.00 146:  0.00 147:  0.00 148:  0.00 149:  0.00 150:  0.00 151:  0.00 152:  0.00
 153:  0.00 154:  0.00 155:  0.00 156:  0.00 157:  0.00 158:  0.00 159:  0.00
 output can be read by thermo (or use thermo option).
 writing <g98.out> molden fake output.
 recommended (thermochemical) frequency scaling factor: 1.0
           -------------------------------------------------
          |             Thermodynamic Functions             |
           -------------------------------------------------

c1  symmetry found (for desy threshold:  0.10E+00) used in thermo
 inverting freq            1   7.5400837877696141     

          ...................................................
          :                      SETUP                      :
          :.................................................:
          :  # frequencies                         153      :
          :  # imaginary freq.                       0      :
          :  linear?                             false      :
          :  only rotor calc.                    false      :
          :  symmetry                               c1      :
          :  rotational number                       1      :
          :  scaling factor                  1.0000000      :
          :  rotor cutoff                   50.0000000 cm⁻¹ :
          :  imag. cutoff                  -20.0000000 cm⁻¹ :
          :.................................................:

    mode    ω/cm⁻¹     T·S(HO)/kcal·mol⁻¹    T·S(FR)/kcal·mol⁻¹   T·S(vib)
   ------------------------------------------------------------------------
       1      7.54    -2.55576 (  0.05%)    -1.61680 ( 99.95%)    -1.61728
       2      9.20    -2.43759 (  0.11%)    -1.55774 ( 99.89%)    -1.55875
       3     17.63    -2.05272 (  1.52%)    -1.36531 ( 98.48%)    -1.37577
       4     21.31    -1.94056 (  3.19%)    -1.30920 ( 96.81%)    -1.32935
       5     25.30    -1.83896 (  6.15%)    -1.25836 ( 93.85%)    -1.29405
       6     31.04    -1.71790 ( 12.93%)    -1.19775 ( 87.07%)    -1.26501
       7     35.95    -1.63109 ( 21.09%)    -1.15425 ( 78.91%)    -1.25480
       8     42.04    -1.53866 ( 33.32%)    -1.10791 ( 66.68%)    -1.25142
       9     47.96    -1.46087 ( 45.84%)    -1.06886 ( 54.16%)    -1.24857
      10     48.33    -1.45633 ( 46.61%)    -1.06658 ( 53.39%)    -1.24824
      11     49.10    -1.44697 ( 48.19%)    -1.06188 ( 51.81%)    -1.24746
      12     57.92    -1.34967 ( 64.29%)    -1.01297 ( 35.71%)    -1.22945
      13     72.77    -1.21557 ( 81.77%)    -0.94537 ( 18.23%)    -1.16632
      14     75.13    -1.19688 ( 83.60%)    -0.93592 ( 16.40%)    -1.15407
      15     82.69    -1.14075 ( 88.21%)    -0.90752 ( 11.79%)    -1.11324
      16     89.45    -1.09483 ( 91.11%)    -0.88423 (  8.89%)    -1.07610
      17     93.26    -1.07051 ( 92.37%)    -0.87187 (  7.63%)    -1.05535
      18    101.73    -1.01993 ( 94.49%)    -0.84611 (  5.51%)    -1.01035
      19    105.20    -1.00050 ( 95.14%)    -0.83619 (  4.86%)    -0.99252
      20    115.93    -0.94428 ( 96.66%)    -0.80741 (  3.34%)    -0.93970
      21    137.05    -0.84813 ( 98.26%)    -0.75783 (  1.74%)    -0.84656
      22    150.32    -0.79553 ( 98.79%)    -0.73046 (  1.21%)    -0.79474
      23    171.17    -0.72229 ( 99.28%)    -0.69197 (  0.72%)    -0.72207
      24    185.83    -0.67650 ( 99.48%)    -0.66763 (  0.52%)    -0.67646
      25    186.94    -0.67321 ( 99.49%)    -0.66587 (  0.51%)    -0.67317
      26    199.56    -0.63719 ( 99.61%)    -0.64652 (  0.39%)    -0.63723
      27    206.44    -0.61863 ( 99.66%)    -0.63647 (  0.34%)    -0.61869
      28    213.20    -0.60111 ( 99.70%)    -0.62694 (  0.30%)    -0.60119
      29    241.26    -0.53475 ( 99.82%)    -0.59031 (  0.18%)    -0.53486
      30    268.64    -0.47850 ( 99.88%)    -0.55845 (  0.12%)    -0.47860
      31    277.45    -0.46194 ( 99.89%)    -0.54890 (  0.11%)    -0.46204
      32    299.85    -0.42270 ( 99.92%)    -0.52590 (  0.08%)    -0.42278
   ------------------------------------------------------------------------

   temp. (K)  partition function   enthalpy   heat capacity  entropy
                                   cal/mol     cal/K/mol   cal/K/mol   J/K/mol
 298.15  VIB  0.346E+19            19839.047    103.578    132.307
         ROT  0.156E+08              888.752      2.981     35.900
         INT  0.541E+26            20727.799    106.559    168.207
         TR   0.618E+28             1481.254      4.968     43.384
         TOT                       22209.0528   111.5273   211.5915   885.2990

       T/K    H(0)-H(T)+PV         H(T)/Eh          T*S/Eh         G(T)/Eh
   ------------------------------------------------------------------------
    298.15    0.353924E-01    0.473949E+00    0.100534E+00    0.373415E+00
   ------------------------------------------------------------------------

         :::::::::::::::::::::::::::::::::::::::::::::::::::::
         ::                  THERMODYNAMIC                  ::
         :::::::::::::::::::::::::::::::::::::::::::::::::::::
         :: total free energy         -80.559243441955 Eh   ::
         ::.................................................::
         :: total energy              -80.932658095407 Eh   ::
         :: zero point energy           0.438556246828 Eh   ::
         :: G(RRHO) w/o ZPVE           -0.065141593375 Eh   ::
         :: G(RRHO) contrib.            0.373414653453 Eh   ::
         :::::::::::::::::::::::::::::::::::::::::::::::::::::
imag cut-off (cm-1) :    5.00
 found            1  significant imaginary frequency
 writing imag mode distorted coords to xtbhess.xyz
 for further optimization.

           -------------------------------------------------
          | TOTAL ENERGY              -80.932658095407 Eh   |
          | TOTAL ENTHALPY            -80.458709470071 Eh   |
          | TOTAL FREE ENERGY         -80.559243441955 Eh   |
          | GRADIENT NORM               0.000169767811 Eh/α |
          | HOMO-LUMO GAP               5.792214988848 eV   |
           -------------------------------------------------

------------------------------------------------------------------------
 * finished run on 2024/01/10 at 18:31:29.716     
------------------------------------------------------------------------
 total:
 * wall-time:     0 d,  0 h,  0 min, 14.479 sec
 *  cpu-time:     0 d,  0 h,  0 min, 14.386 sec
 * ratio c/w:     0.994 speedup
 SCF:
 * wall-time:     0 d,  0 h,  0 min,  0.096 sec
 *  cpu-time:     0 d,  0 h,  0 min,  0.057 sec
 * ratio c/w:     0.593 speedup
 analytical hessian:
 * wall-time:     0 d,  0 h,  0 min, 14.356 sec
 *  cpu-time:     0 d,  0 h,  0 min, 14.302 sec
 * ratio c/w:     0.996 speedup

