 Entering Gaussian System
 *********************************************
 Gaussian 98:
 frequency output generated by the xtb code
 *********************************************
                         Standard orientation:
 --------------------------------------------------------------------
  Center     Atomic     Atomic              Coordinates (Angstroms)
  Number     Number      Type              X           Y           Z
 --------------------------------------------------------------------
    1          8             0       -1.581239   -2.902511   -1.304816
    2          6             0       -0.624034   -3.066365   -2.305811
    3          1             0       -0.334803   -4.121229   -2.279074
    4          1             0       -1.050010   -2.867145   -3.299615
    5          6             0        0.608758   -2.154878   -2.180752
    6          1             0        0.329563   -1.114766   -2.370581
    7          1             0        1.322917   -2.465777   -2.945667
    8          7             0        1.303500   -2.167021   -0.862550
    9          6             0        0.516348   -1.424082    0.137367
   10          1             0        0.313060   -0.424738   -0.240340
   11          1             0        1.085655   -1.335207    1.059336
   12          1             0       -0.424274   -1.933393    0.326166
   13          6             0        2.596812   -1.480235   -1.028284
   14          1             0        3.065031   -1.340492   -0.055719
   15          1             0        2.418027   -0.501026   -1.471423
   16          1             0        3.254785   -2.059307   -1.672653
   17          6             0        1.529774   -3.536535   -0.379916
   18          1             0        0.577593   -4.015137   -0.161012
   19          1             0        2.124922   -3.505894    0.531004
   20          1             0        2.061690   -4.118577   -1.130897
   21          1             0       -1.915723   -1.978703   -1.325859
   22          6             0        0.394346    1.960290   -1.942236
   23          8             0        1.013529    0.912493   -2.071122
   24          7             0       -0.887464    2.001274   -1.551365
   25          1             0       -1.374965    1.132577   -1.336687
   26          1             0       -1.366591    2.869733   -1.401502
   27          7             0        1.011039    3.179389   -2.120784
   28          1             0        0.435290    3.984032   -2.308739
   29          1             0        1.872512    3.145757   -2.643131
   30          6             0        2.652787    1.392490    0.992440
   31          8             0        2.603524    0.343289    1.637517
   32          7             0        3.781657    1.744276    0.320433
   33          1             0        4.625536    1.242992    0.538211
   34          1             0        3.883468    2.671422   -0.051873
   35          7             0        1.611441    2.235814    0.898051
   36          1             0        1.635851    2.996208    0.241374
   37          1             0        0.697593    1.925937    1.230086
   38          6             0       -3.353070   -0.130812   -0.261828
   39          8             0       -2.371308   -0.333694   -0.983550
   40          7             0       -4.522792   -0.768863   -0.486074
   41          1             0       -4.599171   -1.374274   -1.284159
   42          1             0       -5.349453   -0.583978    0.051625
   43          7             0       -3.315231    0.743786    0.758910
   44          1             0       -4.098532    0.815962    1.383664
   45          1             0       -2.404857    1.061600    1.096806
   46          6             0       -0.648440    0.821662    3.098262
   47          8             0       -0.837184    1.302740    1.975694
   48          7             0       -1.647763    0.797205    4.021988
   49          1             0       -2.464870    1.355463    3.847975
   50          1             0       -1.459208    0.548901    4.976822
   51          7             0        0.507766    0.246263    3.446109
   52          1             0        0.664163   -0.077445    4.383232
   53          1             0        1.303357    0.268423    2.796344
 --------------------------------------------------------------------
     1 basis functions        1 primitive gaussians
     1 alpha electrons        1 beta electrons

 Harmonic frequencies (cm**-1), IR intensities (km*mol⁻¹),
 Raman scattering activities (A**4/amu), Raman depolarization ratios,
 reduced masses (AMU), force constants (mDyne/A) and normal coordinates:
                      1                      2                      3
                        a                      a                      a 
 Frequencies --    15.7510                27.1371                28.8797
 Red. masses --    12.2164                12.6258                12.2084
 Frc consts  --     0.0000                 0.0000                 0.0000
 IR Inten    --     0.8600                 3.3804                 0.3696
 Raman Activ --     0.0000                 0.0000                 0.0000
 Depolar     --     0.0000                 0.0000                 0.0000
 Atom AN      X      Y      Z        X      Y      Z        X      Y      Z
   1   8    -0.02   0.04   0.15    -0.04   0.04  -0.12    -0.02   0.08  -0.23
   2   6    -0.01  -0.04   0.15    -0.01   0.04  -0.08     0.06   0.04  -0.13
   3   1    -0.00  -0.01   0.06    -0.02   0.01  -0.04     0.01   0.01  -0.03
   4   1     0.00  -0.03   0.04     0.01   0.03  -0.02     0.04   0.01  -0.05
   5   6    -0.00  -0.04   0.10     0.03  -0.02  -0.01     0.06   0.02  -0.05
   6   1     0.00  -0.01   0.01     0.02   0.00   0.01     0.03   0.01  -0.03
   7   1     0.00  -0.03   0.04     0.01  -0.00  -0.00     0.03  -0.00   0.00
   8   7    -0.01   0.03   0.11    -0.00  -0.12   0.00    -0.04   0.04   0.01
   9   6    -0.02   0.10   0.05     0.00  -0.14   0.03    -0.10   0.08  -0.07
  10   1     0.00   0.02   0.00     0.01  -0.03   0.02    -0.02   0.02  -0.03
  11   1    -0.01   0.04   0.02    -0.00  -0.06   0.01    -0.05   0.03  -0.01
  12   1    -0.01   0.04   0.02    -0.01  -0.04  -0.01    -0.03   0.03  -0.03
  13   6    -0.00   0.01   0.08     0.02  -0.13   0.06    -0.01   0.01   0.08
  14   1    -0.00   0.02   0.02    -0.00  -0.05   0.02    -0.02   0.00   0.03
  15   1     0.00  -0.00   0.00     0.02  -0.03   0.03     0.01   0.00   0.02
  16   1    -0.00  -0.01   0.03     0.01  -0.04   0.02     0.00  -0.01   0.04
  17   6    -0.03   0.06   0.19    -0.05  -0.14  -0.07    -0.10   0.04   0.05
  18   1    -0.01   0.02   0.06    -0.02  -0.04  -0.03    -0.04   0.02  -0.00
  19   1    -0.01   0.03   0.05    -0.02  -0.06  -0.02    -0.05   0.02   0.03
  20   1    -0.01   0.00   0.07    -0.02  -0.03  -0.03    -0.02   0.00   0.03
  21   1    -0.01   0.01   0.01     0.01   0.02  -0.01     0.00   0.02  -0.06
  22   6     0.01  -0.02  -0.09     0.16  -0.04   0.03     0.01   0.02  -0.12
  23   8     0.01  -0.03  -0.04     0.14  -0.08   0.07     0.02   0.01  -0.05
  24   7     0.01  -0.00  -0.12     0.20   0.01   0.10    -0.00   0.04  -0.19
  25   1    -0.00   0.00  -0.03     0.05   0.01   0.04    -0.01   0.02  -0.05
  26   1    -0.00   0.00  -0.06     0.06   0.01   0.01    -0.01   0.01  -0.08
  27   7     0.02  -0.03  -0.13     0.20  -0.08  -0.08     0.03   0.00  -0.17
  28   1     0.01  -0.01  -0.05     0.06  -0.02  -0.03     0.01   0.00  -0.06
  29   1     0.01  -0.01  -0.03     0.05  -0.04  -0.03     0.01  -0.01  -0.03
  30   6    -0.01   0.10  -0.04    -0.19   0.13  -0.12    -0.08  -0.08   0.01
  31   8     0.10   0.11  -0.04    -0.16   0.12  -0.19    -0.05  -0.06   0.07
  32   7    -0.07   0.21  -0.07    -0.28   0.15  -0.25    -0.11  -0.09  -0.02
  33   1    -0.01   0.07  -0.03    -0.07   0.03  -0.11    -0.02  -0.02  -0.00
  34   1    -0.04   0.06  -0.02    -0.08   0.04  -0.06    -0.04  -0.03  -0.02
  35   7    -0.10   0.01  -0.01    -0.19   0.18   0.05    -0.11  -0.13  -0.02
  36   1    -0.05   0.00  -0.00    -0.06   0.06   0.03    -0.04  -0.04  -0.01
  37   1    -0.02  -0.02   0.01    -0.04   0.05   0.03    -0.02  -0.03   0.01
  38   6    -0.06   0.11  -0.11     0.09   0.04   0.07     0.03  -0.08  -0.05
  39   8    -0.07   0.06  -0.11     0.17   0.06   0.16    -0.00   0.07  -0.16
  40   7    -0.15   0.32  -0.24     0.15  -0.04   0.03     0.04  -0.07  -0.11
  41   1    -0.05   0.11  -0.08     0.06  -0.03   0.02     0.00   0.01  -0.05
  42   1    -0.04   0.10  -0.06     0.03  -0.02  -0.01     0.02  -0.06  -0.00
  43   7     0.02  -0.00  -0.02    -0.02   0.10   0.03     0.06  -0.28   0.11
  44   1    -0.00   0.02  -0.01    -0.02   0.03  -0.01     0.02  -0.11   0.04
  45   1     0.01  -0.03   0.01    -0.02   0.04   0.02     0.02  -0.07   0.03
  46   6     0.09  -0.24   0.04    -0.05  -0.00   0.08     0.07   0.08   0.24
  47   8     0.04  -0.26   0.07    -0.13   0.17   0.17    -0.00  -0.12   0.20
  48   7     0.10  -0.40   0.05     0.00  -0.12   0.14     0.15   0.26   0.34
  49   1     0.01  -0.14   0.02    -0.00  -0.02   0.07     0.04   0.06   0.08
  50   1     0.03  -0.11   0.01     0.02  -0.07   0.03     0.06   0.11   0.10
  51   7     0.17  -0.13   0.03    -0.04  -0.07  -0.07     0.10   0.12   0.26
  52   1     0.06  -0.03   0.01     0.01  -0.05  -0.03     0.05   0.07   0.08
  53   1     0.04  -0.00   0.01    -0.02   0.00  -0.03     0.01   0.00   0.05
                      4                      5                      6
                        a                      a                      a 
 Frequencies --    36.7965                41.1858                47.8324
 Red. masses --    12.0949                12.1052                11.8683
 Frc consts  --     0.0000                 0.0000                 0.0000
 IR Inten    --     0.5983                 1.4374                 4.5148
 Raman Activ --     0.0000                 0.0000                 0.0000
 Depolar     --     0.0000                 0.0000                 0.0000
 Atom AN      X      Y      Z        X      Y      Z        X      Y      Z
   1   8    -0.08   0.02  -0.24     0.03  -0.12   0.02    -0.14   0.03   0.05
   2   6     0.02   0.08  -0.13     0.01  -0.07  -0.01    -0.10  -0.12   0.09
   3   1     0.00   0.02  -0.05     0.01  -0.02  -0.01    -0.03  -0.03   0.07
   4   1     0.03   0.04  -0.04    -0.00  -0.02   0.00    -0.02  -0.07   0.02
   5   6     0.02   0.06   0.06    -0.01  -0.05  -0.01    -0.10  -0.10  -0.01
   6   1     0.01   0.02   0.03    -0.01  -0.01   0.01    -0.03  -0.03  -0.04
   7   1     0.03   0.03   0.03    -0.00  -0.00  -0.01    -0.03  -0.05   0.01
   8   7    -0.13  -0.03   0.14     0.03  -0.07  -0.03    -0.12   0.07  -0.00
   9   6    -0.17  -0.00   0.07     0.03  -0.12   0.01    -0.12   0.17  -0.09
  10   1    -0.00   0.01   0.03     0.00  -0.03   0.02    -0.04   0.03  -0.06
  11   1    -0.08  -0.04   0.04     0.01  -0.04   0.00    -0.03   0.09  -0.03
  12   1    -0.07   0.02  -0.02     0.01  -0.04  -0.00    -0.03   0.05  -0.00
  13   6    -0.06  -0.10   0.28     0.01  -0.03  -0.04    -0.12   0.06  -0.08
  14   1    -0.05  -0.04   0.10     0.00  -0.01  -0.01    -0.03   0.05  -0.03
  15   1     0.01  -0.03   0.08    -0.01  -0.01  -0.01    -0.04   0.00  -0.06
  16   1    -0.01  -0.04   0.10     0.00  -0.00  -0.02    -0.03  -0.00  -0.01
  17   6    -0.26  -0.06   0.11     0.07  -0.08  -0.08    -0.09   0.13   0.16
  18   1    -0.09   0.00   0.00     0.03  -0.03  -0.02    -0.02   0.04   0.06
  19   1    -0.10  -0.04   0.05     0.03  -0.03  -0.03    -0.03   0.07   0.05
  20   1    -0.07  -0.02   0.04     0.02  -0.01  -0.03    -0.02   0.01   0.07
  21   1    -0.02   0.00  -0.06    -0.00  -0.04   0.00    -0.02   0.02  -0.01
  22   6    -0.00   0.01   0.11    -0.00  -0.04   0.21     0.10   0.02   0.02
  23   8     0.07   0.03   0.31    -0.01  -0.02   0.05    -0.06  -0.04  -0.35
  24   7    -0.07  -0.02  -0.10     0.02  -0.10   0.32     0.23   0.12   0.38
  25   1    -0.02  -0.00  -0.03     0.01  -0.04   0.05     0.03   0.04   0.06
  26   1    -0.03  -0.01  -0.06     0.01  -0.03   0.13     0.09   0.04   0.15
  27   7    -0.02   0.02   0.13    -0.02  -0.01   0.36     0.24  -0.02   0.10
  28   1    -0.01  -0.00   0.00    -0.01   0.00   0.13     0.08   0.02   0.09
  29   1     0.02   0.01   0.07    -0.01   0.02   0.08     0.03  -0.01  -0.03
  30   6     0.10   0.11  -0.04    -0.02   0.05  -0.07     0.02   0.05  -0.00
  31   8     0.10   0.08  -0.13    -0.01   0.01  -0.14     0.01   0.03  -0.04
  32   7     0.11   0.16  -0.01    -0.06   0.07  -0.12     0.03   0.09   0.05
  33   1     0.03   0.03  -0.02    -0.01   0.01  -0.06     0.01   0.02   0.01
  34   1     0.03   0.05   0.02    -0.02   0.02  -0.02     0.01   0.03   0.02
  35   7     0.12   0.16   0.04    -0.00   0.09   0.06     0.01   0.04  -0.01
  36   1     0.03   0.05   0.02    -0.01   0.03   0.02     0.01   0.02   0.00
  37   1     0.03   0.03  -0.01    -0.00   0.01   0.01     0.00   0.01  -0.01
  38   6    -0.03  -0.09  -0.01    -0.09  -0.01  -0.14     0.05  -0.10  -0.04
  39   8    -0.10  -0.01  -0.13    -0.07  -0.12  -0.09     0.05   0.10  -0.12
  40   7    -0.01  -0.18   0.11    -0.19   0.23  -0.33     0.14  -0.27  -0.02
  41   1    -0.02  -0.04   0.02    -0.06   0.08  -0.10     0.05  -0.05  -0.02
  42   1     0.01  -0.06   0.05    -0.05   0.08  -0.09     0.04  -0.11   0.01
  43   7     0.02  -0.13   0.02    -0.02  -0.13  -0.06    -0.01  -0.19   0.04
  44   1     0.02  -0.06   0.03    -0.02  -0.01  -0.03     0.00  -0.10   0.02
  45   1     0.01  -0.02  -0.02    -0.00  -0.06  -0.00    -0.01  -0.03   0.00
  46   6     0.09  -0.02  -0.14     0.06   0.11   0.02    -0.00  -0.02  -0.04
  47   8     0.10  -0.05  -0.17    -0.02  -0.05  -0.04     0.00  -0.03  -0.05
  48   7     0.11  -0.00  -0.14     0.15   0.28   0.11    -0.03  -0.07  -0.07
  49   1     0.03   0.00  -0.04     0.03   0.06   0.02    -0.01  -0.03  -0.02
  50   1     0.03   0.01  -0.04     0.06   0.11   0.03    -0.01  -0.01  -0.02
  51   7     0.10  -0.02  -0.16     0.09   0.16   0.01     0.02   0.04  -0.01
  52   1     0.03   0.01  -0.04     0.05   0.08   0.01     0.00   0.01  -0.00
  53   1     0.03   0.00  -0.04     0.01   0.02  -0.02     0.01   0.01  -0.00
                      7                      8                      9
                        a                      a                      a 
 Frequencies --    53.9453                59.8507                62.4853
 Red. masses --    11.7842                11.9929                12.2633
 Frc consts  --     0.0000                 0.0000                 0.0000
 IR Inten    --     2.9420                 1.7810                 5.3844
 Raman Activ --     0.0000                 0.0000                 0.0000
 Depolar     --     0.0000                 0.0000                 0.0000
 Atom AN      X      Y      Z        X      Y      Z        X      Y      Z
   1   8     0.06   0.00   0.00    -0.11  -0.01   0.23    -0.04   0.31   0.13
   2   6     0.09   0.02   0.03    -0.14  -0.10   0.18    -0.08   0.17   0.09
   3   1     0.03   0.01   0.01    -0.04  -0.03   0.08    -0.05   0.04   0.03
   4   1     0.03  -0.00   0.00    -0.05  -0.06   0.05    -0.02   0.06   0.03
   5   6     0.06   0.05   0.06    -0.14  -0.08   0.04     0.01   0.05   0.04
   6   1     0.01   0.01   0.01    -0.06  -0.03   0.02     0.02   0.03   0.03
   7   1     0.03   0.01   0.03    -0.06  -0.02  -0.01    -0.02   0.01  -0.00
   8   7     0.01   0.08   0.10    -0.02  -0.04  -0.02     0.11  -0.06  -0.00
   9   6    -0.03   0.09   0.05     0.02  -0.10   0.05     0.16  -0.14   0.11
  10   1    -0.01   0.02   0.01    -0.03  -0.03   0.02     0.04  -0.03   0.06
  11   1    -0.02   0.03   0.02     0.03  -0.01  -0.00     0.06  -0.06   0.02
  12   1    -0.01   0.02   0.01     0.03  -0.05   0.04     0.05  -0.05   0.04
  13   6     0.01   0.07   0.12    -0.07   0.04  -0.14     0.09  -0.04  -0.03
  14   1    -0.00   0.02   0.04     0.01   0.01  -0.05     0.05  -0.04  -0.02
  15   1     0.01   0.02   0.03    -0.05   0.01  -0.02     0.02  -0.00   0.02
  16   1     0.01   0.02   0.04    -0.03   0.03  -0.06     0.01   0.00  -0.04
  17   6    -0.00   0.09   0.13     0.12  -0.03  -0.05     0.14  -0.10  -0.14
  18   1    -0.00   0.02   0.03     0.05  -0.03   0.02     0.05  -0.04  -0.03
  19   1    -0.01   0.03   0.05     0.06   0.00  -0.03     0.06  -0.05  -0.06
  20   1     0.01   0.02   0.05     0.02   0.00  -0.03     0.02  -0.01  -0.07
  21   1     0.01  -0.00  -0.01    -0.01   0.00   0.04     0.00   0.08   0.02
  22   6    -0.02   0.08   0.08    -0.01   0.09   0.02     0.04  -0.01   0.03
  23   8    -0.00   0.11   0.06    -0.07   0.06   0.16    -0.01  -0.07   0.20
  24   7    -0.03   0.05   0.05    -0.15   0.18  -0.46     0.06   0.12   0.04
  25   1    -0.01   0.01   0.00    -0.05   0.05  -0.12    -0.01   0.05   0.03
  26   1    -0.01   0.01   0.03    -0.02   0.06  -0.11     0.02   0.05  -0.04
  27   7    -0.03   0.11   0.18     0.16   0.06   0.31     0.13  -0.08  -0.16
  28   1    -0.01   0.03   0.06     0.08   0.03   0.04     0.05  -0.02  -0.07
  29   1    -0.01   0.04   0.04     0.08   0.00   0.15     0.03  -0.06  -0.04
  30   6    -0.03  -0.15  -0.15    -0.03   0.01  -0.00     0.01  -0.01  -0.02
  31   8    -0.01  -0.05   0.04    -0.02  -0.02  -0.06     0.02   0.02   0.03
  32   7    -0.16  -0.45  -0.53    -0.06   0.02  -0.04     0.01  -0.04  -0.05
  33   1    -0.04  -0.13  -0.16    -0.01  -0.00  -0.03     0.00  -0.00  -0.00
  34   1    -0.03  -0.14  -0.19    -0.01   0.02   0.01    -0.00  -0.01  -0.02
  35   7     0.06  -0.03  -0.04    -0.01   0.05   0.10     0.01  -0.02  -0.05
  36   1     0.00  -0.04  -0.05    -0.01   0.01   0.03     0.00  -0.01  -0.02
  37   1     0.02   0.02   0.03    -0.00   0.01   0.03    -0.00  -0.01  -0.02
  38   6     0.03  -0.01  -0.03     0.10  -0.02  -0.10    -0.13  -0.03   0.03
  39   8     0.03  -0.00  -0.04     0.10   0.08  -0.18    -0.16   0.26  -0.06
  40   7     0.04  -0.02  -0.01     0.17  -0.15  -0.05    -0.09  -0.08  -0.08
  41   1     0.01  -0.00  -0.00     0.05  -0.04  -0.02    -0.01   0.02  -0.05
  42   1     0.01  -0.01  -0.00     0.05  -0.06  -0.00    -0.02  -0.09   0.01
  43   7     0.04  -0.00  -0.03     0.07  -0.02  -0.11    -0.16  -0.30   0.26
  44   1     0.01   0.00  -0.01     0.03  -0.03  -0.02    -0.04  -0.13   0.09
  45   1     0.01   0.00  -0.01     0.01   0.01  -0.03    -0.05  -0.06   0.06
  46   6    -0.03  -0.01  -0.01     0.01  -0.00   0.03    -0.04   0.01  -0.08
  47   8     0.03   0.04  -0.01    -0.01   0.02   0.05    -0.04  -0.10  -0.14
  48   7    -0.13  -0.20  -0.12     0.06   0.06   0.08    -0.10  -0.04  -0.14
  49   1    -0.04  -0.07  -0.04     0.02   0.03   0.03    -0.03  -0.03  -0.06
  50   1    -0.05  -0.05  -0.03     0.02   0.01   0.02    -0.03   0.02  -0.03
  51   7     0.01   0.14   0.08    -0.01  -0.09  -0.03     0.01   0.20   0.03
  52   1    -0.02   0.01   0.02     0.01  -0.02  -0.01    -0.01   0.06   0.01
  53   1     0.01   0.04   0.03    -0.01  -0.02  -0.01     0.00   0.04   0.01
                     10                     11                     12
                        a                      a                      a 
 Frequencies --    66.8327                68.3523                74.9263
 Red. masses --    11.6518                12.2559                12.0793
 Frc consts  --     0.0000                 0.0000                 0.0000
 IR Inten    --     1.4190                 5.1098                 5.5914
 Raman Activ --     0.0000                 0.0000                 0.0000
 Depolar     --     0.0000                 0.0000                 0.0000
 Atom AN      X      Y      Z        X      Y      Z        X      Y      Z
   1   8    -0.10  -0.10   0.01    -0.03  -0.17   0.10     0.07  -0.02   0.28
   2   6    -0.04   0.01   0.04    -0.14   0.03  -0.05    -0.08   0.07   0.10
   3   1     0.01   0.01  -0.00    -0.03   0.01  -0.07    -0.01   0.02  -0.01
   4   1    -0.00   0.01   0.01    -0.08   0.05   0.01    -0.06   0.04   0.05
   5   6    -0.11   0.08   0.13    -0.16   0.07  -0.04    -0.07   0.08   0.02
   6   1    -0.06   0.02   0.07    -0.06   0.02   0.01    -0.02   0.02   0.01
   7   1    -0.03   0.07   0.02    -0.06   0.04  -0.03    -0.03   0.02  -0.01
   8   7    -0.09  -0.01   0.12    -0.11  -0.02  -0.08    -0.01   0.07  -0.02
   9   6    -0.13  -0.21   0.22     0.03   0.04  -0.02     0.14   0.24  -0.03
  10   1    -0.07  -0.05   0.10     0.02   0.02   0.00     0.10   0.08  -0.02
  11   1    -0.03  -0.08   0.06     0.03  -0.00  -0.02     0.05   0.04  -0.01
  12   1    -0.02  -0.10   0.05     0.00   0.03   0.01     0.01   0.12  -0.00
  13   6    -0.15   0.13   0.15    -0.04  -0.13  -0.12     0.08  -0.13  -0.11
  14   1    -0.04   0.03   0.05     0.00  -0.06  -0.04     0.04  -0.04  -0.04
  15   1    -0.07   0.04   0.07     0.01  -0.03  -0.03     0.06  -0.03  -0.04
  16   1    -0.03   0.07   0.03    -0.04  -0.05  -0.05    -0.01  -0.07  -0.03
  17   6     0.07  -0.05  -0.06    -0.21  -0.05  -0.12    -0.19   0.06   0.06
  18   1     0.04  -0.05  -0.02    -0.07   0.01  -0.03    -0.08   0.06   0.04
  19   1     0.03  -0.03  -0.03    -0.05  -0.04  -0.04    -0.05   0.01   0.01
  20   1     0.03   0.03  -0.05    -0.08  -0.02  -0.04    -0.09  -0.02   0.02
  21   1    -0.01  -0.02   0.03    -0.02  -0.04   0.06    -0.00  -0.01   0.08
  22   6    -0.07   0.13  -0.01     0.07   0.02  -0.01     0.11   0.07   0.01
  23   8    -0.08   0.14   0.08     0.20   0.09   0.05     0.31   0.18   0.11
  24   7     0.00   0.17   0.24     0.03  -0.10  -0.13     0.11  -0.09   0.01
  25   1     0.01   0.04   0.08     0.03  -0.03  -0.01     0.05  -0.03   0.02
  26   1    -0.01   0.04   0.02    -0.01  -0.04  -0.03    -0.01  -0.04  -0.03
  27   7    -0.14   0.13  -0.32    -0.05   0.09   0.00    -0.10   0.17  -0.10
  28   1    -0.05   0.02  -0.09    -0.03   0.01  -0.01    -0.06   0.02  -0.04
  29   1    -0.06   0.02  -0.12    -0.00   0.05   0.02    -0.02   0.07  -0.02
  30   6     0.03  -0.05  -0.03     0.01   0.04   0.04    -0.01  -0.03  -0.02
  31   8     0.03  -0.05  -0.02     0.00   0.05   0.05     0.00  -0.03  -0.01
  32   7     0.05  -0.03   0.03     0.03   0.06   0.09    -0.04  -0.06  -0.08
  33   1     0.02  -0.00   0.02     0.01   0.01   0.03    -0.01  -0.02  -0.04
  34   1     0.01  -0.01  -0.01     0.01   0.01   0.02    -0.01  -0.02  -0.04
  35   7     0.00  -0.09  -0.09     0.01   0.04   0.02    -0.00  -0.01   0.02
  36   1     0.01  -0.02  -0.02     0.00   0.01   0.01    -0.00  -0.00   0.01
  37   1    -0.00  -0.03  -0.03     0.00   0.01   0.00    -0.00  -0.00   0.01
  38   6     0.13  -0.01  -0.07     0.08  -0.06   0.02    -0.02  -0.09  -0.00
  39   8     0.28  -0.03   0.09     0.18  -0.17   0.16     0.02  -0.08   0.05
  40   7     0.19  -0.02  -0.25     0.08  -0.00  -0.11    -0.03  -0.05  -0.13
  41   1     0.09  -0.02  -0.06     0.04  -0.01  -0.02     0.00  -0.00  -0.05
  42   1     0.03  -0.02  -0.09     0.01   0.01  -0.06    -0.01  -0.03  -0.04
  43   7    -0.01   0.01  -0.09     0.03  -0.04  -0.01    -0.06  -0.19   0.07
  44   1    -0.02   0.01  -0.05    -0.01   0.02  -0.03    -0.02  -0.05   0.01
  45   1    -0.01   0.00   0.00     0.00  -0.02   0.02    -0.02  -0.04   0.02
  46   6     0.03  -0.04  -0.04     0.00   0.04   0.04    -0.04  -0.03  -0.05
  47   8     0.01  -0.12  -0.07    -0.00  -0.08  -0.01    -0.05   0.02  -0.03
  48   7     0.08   0.08   0.01    -0.11  -0.24  -0.08     0.05   0.21   0.05
  49   1     0.02   0.02  -0.00    -0.06  -0.12  -0.05     0.03   0.09   0.03
  50   1     0.03   0.03   0.00    -0.03  -0.02  -0.01     0.02   0.03   0.01
  51   7     0.02  -0.08  -0.06     0.16   0.49   0.24    -0.16  -0.35  -0.19
  52   1     0.02   0.01  -0.01     0.02   0.11   0.06    -0.03  -0.07  -0.04
  53   1     0.01  -0.02  -0.02     0.03   0.09   0.05    -0.03  -0.07  -0.04
                     13                     14                     15
                        a                      a                      a 
 Frequencies --    78.8624                83.5916                92.8238
 Red. masses --    13.1397                12.6042                12.4514
 Frc consts  --     0.0000                 0.0000                 0.0000
 IR Inten    --     2.1824                11.2963                 0.6942
 Raman Activ --     0.0000                 0.0000                 0.0000
 Depolar     --     0.0000                 0.0000                 0.0000
 Atom AN      X      Y      Z        X      Y      Z        X      Y      Z
   1   8     0.03   0.08   0.08    -0.01  -0.01  -0.01    -0.06  -0.06   0.07
   2   6    -0.02   0.09   0.03    -0.00   0.13  -0.02    -0.06   0.04   0.03
   3   1    -0.01   0.02  -0.01     0.01   0.04  -0.04    -0.00   0.01  -0.01
   4   1    -0.02   0.04   0.01    -0.00   0.07  -0.00    -0.03   0.02   0.02
   5   6     0.00   0.06   0.02    -0.03   0.15   0.08    -0.11   0.10   0.05
   6   1     0.01   0.02   0.01    -0.01   0.05   0.04    -0.05   0.03   0.04
   7   1    -0.01   0.02  -0.00    -0.00   0.07   0.02    -0.04   0.06  -0.01
   8   7     0.03   0.01   0.00    -0.04   0.06   0.08    -0.04   0.02   0.01
   9   6     0.07   0.03   0.03    -0.08  -0.12   0.17    -0.04  -0.15   0.13
  10   1     0.03   0.01   0.02    -0.05  -0.02   0.09    -0.02  -0.03   0.08
  11   1     0.02  -0.01   0.01    -0.03  -0.05   0.05    -0.01  -0.08   0.04
  12   1     0.01   0.02   0.01    -0.01  -0.06   0.03    -0.01  -0.06   0.02
  13   6     0.05  -0.04  -0.01    -0.07   0.15   0.15    -0.08   0.11   0.02
  14   1     0.02  -0.02  -0.00    -0.03   0.04   0.05    -0.02   0.02   0.00
  15   1     0.03  -0.01   0.00    -0.03   0.04   0.05    -0.04   0.04   0.02
  16   1     0.01  -0.02  -0.01    -0.00   0.06   0.04    -0.02   0.05  -0.01
  17   6    -0.02  -0.00  -0.02     0.05   0.01  -0.08     0.09  -0.02  -0.16
  18   1    -0.01   0.01  -0.00     0.02  -0.02  -0.04     0.04  -0.03  -0.03
  19   1    -0.00  -0.01  -0.01     0.02  -0.02  -0.02     0.05  -0.03  -0.06
  20   1    -0.02  -0.00  -0.01     0.02   0.04  -0.05     0.01   0.03  -0.08
  21   1    -0.01   0.01   0.02    -0.01  -0.00   0.03    -0.05  -0.03   0.00
  22   6     0.07   0.01   0.04     0.12  -0.04  -0.13     0.09  -0.02  -0.09
  23   8     0.12   0.04   0.02     0.16   0.01  -0.45     0.21   0.04  -0.15
  24   7     0.09  -0.03   0.10     0.08  -0.16  -0.28     0.15  -0.15   0.09
  25   1     0.02  -0.01   0.01     0.03  -0.05  -0.07     0.04  -0.05  -0.03
  26   1     0.01  -0.01   0.01     0.04  -0.05   0.04     0.00  -0.05  -0.02
  27   7     0.03   0.04   0.05     0.13   0.03   0.31    -0.05   0.04  -0.17
  28   1     0.00   0.01   0.02     0.03   0.02   0.13    -0.04  -0.00  -0.03
  29   1     0.01   0.02   0.01     0.04   0.05   0.08    -0.02   0.03  -0.06
  30   6    -0.06  -0.05  -0.02    -0.02  -0.00  -0.03    -0.01   0.07   0.07
  31   8     0.05  -0.03   0.01     0.02   0.04   0.04    -0.09   0.09   0.09
  32   7    -0.11   0.06  -0.04    -0.01   0.02  -0.02    -0.04  -0.08  -0.04
  33   1    -0.01   0.04  -0.01     0.00   0.02   0.01    -0.02  -0.05  -0.03
  34   1    -0.06   0.01  -0.02    -0.02  -0.00  -0.02     0.01  -0.03  -0.02
  35   7    -0.16  -0.17  -0.06    -0.07  -0.08  -0.16     0.09   0.22   0.19
  36   1    -0.06  -0.05  -0.02    -0.02  -0.03  -0.06     0.03   0.05   0.04
  37   1    -0.04  -0.07  -0.02    -0.01  -0.03  -0.03     0.02   0.07   0.06
  38   6    -0.08   0.05  -0.07    -0.04  -0.02   0.13    -0.01  -0.04  -0.10
  39   8    -0.12   0.03  -0.12     0.02  -0.05   0.25    -0.22  -0.07  -0.39
  40   7     0.02  -0.26   0.25    -0.06   0.04  -0.01    -0.09  -0.02   0.21
  41   1     0.00  -0.10   0.09     0.00   0.02  -0.01    -0.09   0.02   0.04
  42   1     0.00  -0.03   0.05    -0.03   0.01  -0.02     0.01   0.02   0.10
  43   7    -0.15   0.38  -0.34    -0.10  -0.07   0.18     0.27  -0.07  -0.09
  44   1    -0.02   0.08  -0.06    -0.04  -0.01   0.03     0.11  -0.02   0.02
  45   1    -0.03   0.07  -0.08    -0.03  -0.02   0.05     0.09  -0.03  -0.06
  46   6     0.03  -0.09  -0.00    -0.01  -0.03  -0.06     0.01  -0.00   0.06
  47   8    -0.06  -0.44  -0.13    -0.01  -0.10  -0.10     0.12   0.07   0.08
  48   7     0.10   0.12   0.07     0.02   0.08  -0.04    -0.06  -0.02  -0.01
  49   1     0.01  -0.01  -0.01     0.00   0.02  -0.02    -0.00   0.01  -0.01
  50   1     0.04   0.10   0.03     0.00   0.02  -0.01    -0.04  -0.02  -0.00
  51   7     0.09   0.07   0.09    -0.03  -0.08  -0.06    -0.03  -0.07   0.11
  52   1     0.04   0.09   0.05    -0.00   0.01  -0.01    -0.02  -0.03   0.03
  53   1     0.02  -0.01   0.02    -0.00  -0.01  -0.01    -0.00  -0.01   0.04
                     16                     17                     18
                        a                      a                      a 
 Frequencies --   104.7298               107.9699               114.7810
 Red. masses --    13.7194                12.7019                12.2315
 Frc consts  --     0.0000                 0.0000                 0.0000
 IR Inten    --     4.8551                 4.1732                 3.1870
 Raman Activ --     0.0000                 0.0000                 0.0000
 Depolar     --     0.0000                 0.0000                 0.0000
 Atom AN      X      Y      Z        X      Y      Z        X      Y      Z
   1   8    -0.02   0.05   0.03    -0.06  -0.03  -0.10     0.04  -0.01   0.04
   2   6     0.02  -0.03   0.07     0.05  -0.19   0.04     0.01   0.10  -0.01
   3   1     0.00  -0.01   0.04     0.01  -0.06   0.07     0.02   0.03  -0.03
   4   1     0.02  -0.02   0.01     0.04  -0.11  -0.01    -0.01   0.05   0.00
   5   6     0.04  -0.04   0.05     0.05  -0.18  -0.03    -0.03   0.15   0.01
   6   1     0.02  -0.01   0.01     0.01  -0.06  -0.04    -0.02   0.04   0.02
   7   1     0.01  -0.02   0.02     0.02  -0.08   0.01    -0.01   0.06  -0.00
   8   7     0.03  -0.03   0.06     0.02  -0.02  -0.02    -0.02   0.13   0.01
   9   6    -0.02  -0.06   0.04    -0.09  -0.03  -0.10    -0.02   0.07   0.04
  10   1    -0.00  -0.02   0.02    -0.05  -0.02  -0.05    -0.01   0.02   0.02
  11   1    -0.02  -0.02   0.02    -0.04   0.03  -0.03    -0.00   0.01   0.01
  12   1    -0.01  -0.02  -0.00    -0.01  -0.03  -0.03    -0.00   0.01   0.01
  13   6     0.00   0.02   0.06    -0.04   0.09  -0.04    -0.02   0.13   0.02
  14   1    -0.01   0.02   0.02    -0.02   0.05  -0.01    -0.01   0.04   0.01
  15   1    -0.01   0.00   0.01    -0.03   0.02  -0.02    -0.01   0.04   0.00
  16   1     0.01   0.01   0.03     0.00   0.03  -0.00    -0.00   0.04   0.01
  17   6     0.09  -0.01   0.06     0.16   0.05   0.10     0.00   0.11  -0.04
  18   1     0.03  -0.02   0.02     0.06  -0.01   0.04     0.00   0.03  -0.01
  19   1     0.03   0.01   0.02     0.04   0.06   0.03     0.00   0.02  -0.01
  20   1     0.03   0.00   0.02     0.07   0.01   0.05     0.00   0.04  -0.02
  21   1    -0.01   0.01  -0.02     0.01   0.00  -0.04     0.00  -0.01   0.03
  22   6     0.07   0.08  -0.01     0.09   0.09  -0.04    -0.01  -0.10  -0.08
  23   8     0.22   0.18  -0.03     0.20   0.15   0.05    -0.08  -0.16  -0.08
  24   7     0.07  -0.06  -0.00     0.07   0.02  -0.10    -0.01  -0.03  -0.08
  25   1     0.03  -0.02  -0.02     0.03   0.00   0.00    -0.01  -0.00  -0.00
  26   1    -0.01  -0.03  -0.01     0.00  -0.00  -0.04     0.01  -0.00  -0.01
  27   7    -0.08   0.17   0.02    -0.02   0.14  -0.12     0.08  -0.17  -0.12
  28   1    -0.05   0.03   0.01    -0.02   0.02  -0.05     0.04  -0.03  -0.03
  29   1    -0.02   0.08   0.01     0.00   0.05  -0.02     0.02  -0.07  -0.03
  30   6     0.01  -0.13  -0.11    -0.09  -0.03   0.00     0.13  -0.04   0.08
  31   8    -0.07  -0.28  -0.33    -0.23  -0.19  -0.26     0.13  -0.15  -0.10
  32   7     0.12   0.04   0.18    -0.08  -0.03   0.04     0.04  -0.08  -0.09
  33   1     0.02  -0.00   0.05    -0.04  -0.06  -0.05     0.01  -0.06  -0.09
  34   1     0.04   0.02   0.08     0.01   0.00   0.05     0.03  -0.00   0.02
  35   7    -0.03  -0.20  -0.18     0.03   0.17   0.31     0.23   0.14   0.46
  36   1     0.02   0.00   0.02     0.02   0.07   0.11     0.06   0.05   0.14
  37   1    -0.01  -0.04  -0.04    -0.00   0.02   0.03     0.06   0.03   0.10
  38   6    -0.10  -0.01  -0.05    -0.03   0.04   0.13    -0.13  -0.05  -0.04
  39   8    -0.15   0.03  -0.11    -0.01   0.03   0.19    -0.02  -0.05   0.12
  40   7    -0.09  -0.08   0.03    -0.05   0.09   0.09    -0.06  -0.17  -0.14
  41   1    -0.03  -0.02   0.01    -0.01   0.03   0.02     0.03  -0.07  -0.02
  42   1    -0.02  -0.03   0.02    -0.02   0.03   0.02    -0.04  -0.05  -0.08
  43   7    -0.10  -0.02  -0.05    -0.05   0.02   0.16    -0.33   0.07  -0.14
  44   1    -0.02  -0.01  -0.01    -0.01  -0.00   0.04    -0.11   0.02  -0.06
  45   1    -0.03   0.02  -0.02    -0.01  -0.01   0.05    -0.10   0.03  -0.02
  46   6    -0.01   0.10   0.04     0.01  -0.06  -0.08     0.01   0.03   0.02
  47   8    -0.16   0.34   0.17     0.06  -0.29  -0.19    -0.11   0.06   0.06
  48   7     0.06  -0.23   0.12    -0.02   0.10  -0.13     0.10  -0.04   0.12
  49   1     0.01  -0.06   0.09    -0.01   0.01  -0.07     0.01  -0.02   0.06
  50   1     0.06  -0.09   0.02    -0.02   0.07  -0.02     0.06  -0.02   0.03
  51   7     0.09   0.20  -0.13     0.02   0.05   0.07     0.06   0.07  -0.06
  52   1     0.03  -0.03  -0.06     0.00   0.05   0.03     0.03   0.00  -0.02
  53   1    -0.00   0.03  -0.06    -0.00  -0.03   0.01     0.01   0.01  -0.03
                     19                     20                     21
                        a                      a                      a 
 Frequencies --   128.8231               130.1036               147.9434
 Red. masses --    12.6891                12.9314                12.6458
 Frc consts  --     0.0000                 0.0000                 0.0000
 IR Inten    --    26.8923                23.0330                 7.8932
 Raman Activ --     0.0000                 0.0000                 0.0000
 Depolar     --     0.0000                 0.0000                 0.0000
 Atom AN      X      Y      Z        X      Y      Z        X      Y      Z
   1   8     0.14  -0.18   0.12     0.16   0.16   0.19     0.25  -0.34   0.10
   2   6     0.05   0.08  -0.01     0.01   0.20   0.02     0.09  -0.08  -0.07
   3   1     0.05   0.03  -0.05    -0.02   0.05  -0.05     0.05  -0.02  -0.08
   4   1    -0.02   0.05   0.02    -0.02   0.11   0.03    -0.01   0.02   0.00
   5   6    -0.07   0.23   0.01     0.10   0.06   0.05     0.04  -0.02  -0.02
   6   1    -0.06   0.06   0.03     0.06   0.03   0.02    -0.00  -0.01   0.01
   7   1    -0.01   0.11  -0.01     0.02   0.00   0.02     0.02   0.02  -0.01
   8   7    -0.04   0.22  -0.01     0.06  -0.08   0.08    -0.01  -0.09   0.01
   9   6    -0.04   0.14   0.03     0.12  -0.01   0.08     0.00  -0.07   0.00
  10   1    -0.02   0.04   0.02     0.05  -0.00   0.02    -0.01  -0.02  -0.01
  11   1    -0.01   0.03   0.01     0.04  -0.01   0.02     0.01  -0.01  -0.00
  12   1    -0.01   0.03   0.01     0.03   0.01   0.03     0.01  -0.02   0.02
  13   6    -0.04   0.20   0.00     0.13  -0.20   0.12     0.02  -0.12   0.07
  14   1    -0.01   0.05   0.00     0.03  -0.07   0.04    -0.00  -0.04   0.02
  15   1    -0.01   0.06   0.01     0.07  -0.06   0.03     0.01  -0.03   0.02
  16   1    -0.01   0.06  -0.01     0.03  -0.08   0.04     0.01  -0.03   0.02
  17   6    -0.02   0.19  -0.06    -0.15  -0.12   0.03    -0.10  -0.11  -0.03
  18   1    -0.00   0.05  -0.02    -0.07   0.00  -0.01    -0.04  -0.02  -0.03
  19   1    -0.00   0.05  -0.02    -0.06  -0.07   0.02    -0.05  -0.05   0.00
  20   1    -0.00   0.07  -0.02    -0.05  -0.05   0.01    -0.02  -0.03  -0.01
  21   1    -0.00  -0.06   0.05     0.03   0.04   0.06     0.01  -0.11   0.04
  22   6     0.05  -0.10   0.09    -0.15   0.02  -0.10     0.05   0.24  -0.07
  23   8    -0.05  -0.21   0.28    -0.24   0.01  -0.36    -0.15   0.16  -0.11
  24   7     0.04   0.04   0.02    -0.12   0.03   0.02     0.06   0.46  -0.03
  25   1    -0.01   0.02   0.01    -0.03   0.00  -0.01    -0.00   0.14  -0.01
  26   1     0.02   0.02  -0.04    -0.01   0.01   0.06     0.05   0.14   0.01
  27   7     0.21  -0.22  -0.03    -0.13   0.03   0.05     0.27   0.15  -0.09
  28   1     0.09  -0.04  -0.05    -0.03   0.02   0.06     0.11   0.07  -0.02
  29   1     0.07  -0.11   0.02    -0.05   0.02  -0.01     0.07  -0.01  -0.03
  30   6    -0.13  -0.08  -0.09    -0.09  -0.03  -0.03     0.02   0.01   0.02
  31   8    -0.23  -0.19  -0.26    -0.26  -0.19  -0.29     0.08   0.02   0.05
  32   7    -0.05   0.02   0.11    -0.02  -0.01   0.12    -0.01   0.03  -0.04
  33   1    -0.02  -0.01   0.04    -0.03  -0.05   0.00     0.00   0.02  -0.01
  34   1     0.00   0.02   0.07     0.03   0.02   0.08    -0.01   0.01  -0.01
  35   7    -0.14  -0.10  -0.13     0.01   0.12   0.14    -0.01  -0.03   0.03
  36   1    -0.01   0.01   0.01     0.02   0.05   0.06    -0.01  -0.00   0.01
  37   1    -0.04  -0.03  -0.04    -0.01   0.03   0.01     0.00  -0.01   0.01
  38   6     0.06  -0.03   0.02     0.10   0.02  -0.03    -0.13  -0.06   0.02
  39   8     0.01  -0.12  -0.03     0.09   0.05  -0.08    -0.17  -0.17   0.03
  40   7    -0.02   0.09   0.08     0.12   0.01  -0.02    -0.21  -0.01   0.13
  41   1    -0.04   0.04   0.01     0.03   0.02  -0.01    -0.10   0.04   0.01
  42   1     0.01   0.05   0.03     0.03  -0.00  -0.00    -0.06   0.09  -0.00
  43   7     0.19  -0.05   0.03     0.14  -0.01  -0.01    -0.07  -0.03   0.00
  44   1     0.06   0.00   0.01     0.04  -0.01   0.00    -0.01  -0.00   0.01
  45   1     0.06  -0.02  -0.00     0.04  -0.01  -0.01    -0.01  -0.02  -0.00
  46   6     0.02  -0.00  -0.04     0.02  -0.02  -0.01    -0.01   0.01   0.00
  47   8     0.05  -0.01  -0.05     0.07  -0.07  -0.04    -0.00   0.03   0.01
  48   7    -0.01   0.01  -0.07    -0.01   0.02  -0.05    -0.01   0.01  -0.00
  49   1     0.00   0.00  -0.03     0.00   0.01  -0.03    -0.00  -0.00  -0.00
  50   1    -0.01   0.00  -0.02    -0.01   0.01  -0.01    -0.01  -0.01  -0.00
  51   7     0.02   0.02  -0.01     0.02   0.01   0.05    -0.01   0.00   0.00
  52   1    -0.00  -0.01  -0.01    -0.00  -0.00   0.01    -0.01  -0.00   0.00
  53   1    -0.01  -0.02  -0.02    -0.01  -0.02  -0.00     0.00   0.00   0.01
                     22                     23                     24
                        a                      a                      a 
 Frequencies --   154.6069               181.3217               182.8244
 Red. masses --    12.6097                 9.4778                11.8068
 Frc consts  --     0.0000                 0.0000                 0.0000
 IR Inten    --     8.2740                14.9082                19.2118
 Raman Activ --     0.0000                 0.0000                 0.0000
 Depolar     --     0.0000                 0.0000                 0.0000
 Atom AN      X      Y      Z        X      Y      Z        X      Y      Z
   1   8    -0.03   0.02  -0.02    -0.27  -0.10  -0.30    -0.15  -0.04  -0.16
   2   6    -0.01  -0.00   0.00     0.09  -0.11   0.05     0.04  -0.07   0.04
   3   1    -0.00   0.00   0.01     0.07  -0.02   0.09     0.04  -0.01   0.06
   4   1     0.00  -0.00  -0.00     0.09  -0.10  -0.03     0.05  -0.06  -0.01
   5   6    -0.01   0.00   0.01    -0.12   0.14   0.17    -0.06   0.06   0.08
   6   1    -0.00   0.00   0.01    -0.11   0.03   0.12    -0.06   0.01   0.06
   7   1    -0.00   0.00   0.00    -0.04   0.14   0.01    -0.02   0.07  -0.00
   8   7    -0.00  -0.01   0.01     0.08   0.04   0.08     0.06   0.02   0.03
   9   6     0.01  -0.00   0.01     0.24   0.08   0.16     0.15   0.05   0.07
  10   1     0.02   0.00   0.01     0.24   0.09   0.14     0.16   0.06   0.07
  11   1    -0.00  -0.02   0.01     0.02  -0.16   0.10     0.00  -0.10   0.05
  12   1    -0.01   0.01  -0.01    -0.02   0.14  -0.08    -0.02   0.09  -0.06
  13   6    -0.00  -0.01   0.01     0.12  -0.08  -0.10     0.08  -0.06  -0.07
  14   1    -0.00   0.00   0.00     0.04   0.03  -0.04     0.03   0.01  -0.03
  15   1     0.00  -0.00  -0.00     0.05  -0.05  -0.09     0.03  -0.03  -0.05
  16   1     0.00  -0.01   0.01     0.02  -0.08   0.01     0.01  -0.05  -0.01
  17   6    -0.01  -0.01   0.01     0.02   0.02   0.04     0.01   0.01   0.02
  18   1    -0.00   0.00   0.01     0.01   0.06   0.13     0.00   0.04   0.08
  19   1     0.00  -0.00  -0.00     0.12  -0.02  -0.06     0.07  -0.01  -0.04
  20   1    -0.01  -0.00  -0.00    -0.12  -0.03  -0.05    -0.07  -0.02  -0.03
  21   1    -0.01   0.01  -0.01    -0.05  -0.02  -0.09    -0.03  -0.01  -0.05
  22   6    -0.02  -0.00  -0.03    -0.02   0.02  -0.03    -0.01   0.02  -0.01
  23   8    -0.01   0.00  -0.06    -0.07   0.00  -0.07    -0.05   0.01  -0.04
  24   7    -0.01  -0.03   0.02    -0.01   0.06  -0.01    -0.01   0.06  -0.02
  25   1    -0.00  -0.01  -0.01    -0.00   0.01  -0.00     0.00   0.02   0.01
  26   1    -0.01  -0.01  -0.00     0.00   0.02   0.01     0.01   0.02   0.02
  27   7    -0.05   0.00  -0.03     0.03   0.00   0.01     0.04   0.01   0.00
  28   1    -0.02   0.00   0.00     0.02   0.01   0.01     0.02   0.01   0.01
  29   1    -0.01   0.01  -0.01     0.01  -0.01   0.00     0.01  -0.01  -0.01
  30   6    -0.07  -0.11   0.17     0.09  -0.03  -0.08    -0.20   0.03   0.11
  31   8     0.28  -0.18   0.17     0.14  -0.09  -0.20    -0.35   0.09   0.24
  32   7    -0.30   0.15  -0.03     0.06   0.13  -0.08    -0.11  -0.24   0.18
  33   1    -0.03   0.09  -0.07     0.03   0.05  -0.04    -0.06  -0.09   0.09
  34   1    -0.17   0.05  -0.02    -0.00   0.05   0.02     0.02  -0.09   0.01
  35   7    -0.25  -0.32   0.38     0.06  -0.06   0.02    -0.11   0.11  -0.05
  36   1    -0.10  -0.06   0.13     0.00   0.00   0.02     0.01   0.02  -0.03
  37   1    -0.06  -0.11   0.10     0.02  -0.03   0.00    -0.04   0.06  -0.00
  38   6     0.08   0.01   0.01     0.02  -0.00   0.02    -0.07  -0.03  -0.01
  39   8     0.03   0.01  -0.06     0.00  -0.03   0.00    -0.03  -0.03   0.06
  40   7     0.04   0.08   0.05    -0.01   0.05   0.04    -0.05  -0.06  -0.06
  41   1    -0.01   0.03   0.01    -0.01   0.01   0.02     0.01  -0.04  -0.00
  42   1     0.02   0.02   0.04     0.01   0.02   0.02    -0.02  -0.02  -0.03
  43   7     0.17  -0.06   0.07     0.06  -0.01   0.03    -0.14   0.02  -0.05
  44   1     0.05  -0.00   0.02     0.02  -0.00   0.01    -0.04   0.01  -0.02
  45   1     0.05   0.00  -0.00     0.02  -0.01   0.01    -0.04   0.01  -0.01
  46   6     0.06   0.10  -0.15    -0.13  -0.01   0.07     0.23   0.02  -0.09
  47   8    -0.01   0.20  -0.14    -0.08  -0.08   0.04     0.19   0.12  -0.06
  48   7     0.07   0.02  -0.17    -0.18   0.05   0.03     0.26  -0.09  -0.07
  49   1     0.01   0.00  -0.03    -0.05   0.01  -0.02     0.07  -0.01   0.01
  50   1     0.02  -0.02  -0.05    -0.07   0.02   0.01     0.09  -0.03  -0.02
  51   7     0.08   0.14  -0.22    -0.14  -0.01   0.12     0.23   0.01  -0.14
  52   1     0.01   0.01  -0.07    -0.03   0.01   0.04     0.05  -0.02  -0.04
  53   1     0.03   0.02  -0.05    -0.04  -0.01   0.03     0.06   0.01  -0.04
                     25                     26                     27
                        a                      a                      a 
 Frequencies --   206.3178               230.2941               250.7468
 Red. masses --    12.8844                11.7310                 5.9382
 Frc consts  --     0.0000                 0.0000                 0.0000
 IR Inten    --    50.1438                20.5266                 4.8553
 Raman Activ --     0.0000                 0.0000                 0.0000
 Depolar     --     0.0000                 0.0000                 0.0000
 Atom AN      X      Y      Z        X      Y      Z        X      Y      Z
   1   8    -0.06   0.08  -0.01    -0.27   0.26  -0.09     0.13   0.26   0.20
   2   6    -0.05   0.05  -0.00    -0.19   0.22  -0.00     0.03  -0.06   0.14
   3   1    -0.03   0.01  -0.01    -0.11   0.05  -0.04     0.00  -0.02   0.12
   4   1    -0.01   0.03  -0.00    -0.02   0.12  -0.00    -0.01  -0.09   0.04
   5   6     0.01  -0.02   0.00     0.04  -0.06   0.04     0.06  -0.05  -0.12
   6   1     0.02  -0.00  -0.01     0.08  -0.00  -0.02     0.02  -0.02  -0.06
   7   1    -0.00  -0.02   0.01    -0.01  -0.09   0.02     0.02  -0.05  -0.02
   8   7     0.00  -0.01   0.01     0.08  -0.02   0.03    -0.03   0.01  -0.09
   9   6    -0.00  -0.01   0.00     0.05   0.02  -0.02    -0.18  -0.02  -0.18
  10   1    -0.03  -0.01  -0.02    -0.01  -0.01  -0.03     0.15   0.06   0.03
  11   1     0.02   0.03  -0.01     0.01   0.04  -0.01    -0.18  -0.20   0.04
  12   1     0.02  -0.02   0.03     0.02  -0.01   0.01    -0.15   0.11  -0.25
  13   6    -0.00   0.00  -0.00     0.06   0.00  -0.04    -0.03   0.07   0.19
  14   1     0.00  -0.00  -0.00     0.04  -0.02  -0.02    -0.16   0.18   0.11
  15   1    -0.00   0.00   0.01     0.01   0.01   0.01     0.02  -0.04  -0.10
  16   1    -0.00   0.01  -0.01     0.00   0.01  -0.04     0.10  -0.05   0.23
  17   6     0.02  -0.00   0.02     0.13   0.03   0.13    -0.05  -0.04  -0.21
  18   1     0.01  -0.01  -0.02     0.04  -0.03  -0.05    -0.00   0.07   0.16
  19   1    -0.01   0.00   0.02    -0.05   0.04   0.09     0.20  -0.06  -0.20
  20   1     0.03   0.01   0.01     0.13   0.03   0.09    -0.24  -0.06  -0.18
  21   1     0.00   0.02   0.01    -0.04   0.08   0.01     0.01   0.06  -0.03
  22   6     0.02   0.00   0.02     0.02   0.06  -0.01     0.00   0.02   0.01
  23   8     0.02   0.01   0.03    -0.05   0.03   0.00    -0.02   0.01   0.02
  24   7     0.00  -0.01  -0.00     0.02   0.12   0.00    -0.00   0.03  -0.01
  25   1     0.01  -0.00   0.00     0.01   0.03  -0.01     0.01   0.01   0.01
  26   1     0.00  -0.00   0.01    -0.00   0.03  -0.01    -0.00   0.01   0.01
  27   7    -0.01   0.01  -0.01     0.11   0.02  -0.03     0.03   0.00  -0.01
  28   1    -0.00   0.00  -0.00     0.05   0.02  -0.01     0.01   0.00  -0.01
  29   1     0.01   0.01   0.01     0.03  -0.02  -0.00     0.01  -0.01   0.00
  30   6    -0.03  -0.02  -0.04     0.00   0.00   0.00     0.01   0.00   0.00
  31   8     0.06  -0.08  -0.12    -0.01   0.01   0.01     0.02   0.01   0.01
  32   7    -0.07   0.17  -0.05     0.01  -0.02   0.00     0.01   0.00  -0.01
  33   1     0.00   0.07  -0.03    -0.00  -0.01   0.01     0.00   0.01  -0.00
  34   1    -0.05   0.07   0.03     0.01  -0.01   0.00    -0.00   0.00  -0.01
  35   7    -0.09  -0.12  -0.01     0.01   0.01  -0.01     0.00  -0.01  -0.01
  36   1    -0.03  -0.00   0.03     0.01   0.01   0.00     0.00  -0.00  -0.00
  37   1    -0.01  -0.04   0.03     0.00   0.00  -0.00     0.00  -0.00   0.00
  38   6    -0.11  -0.07  -0.04     0.02  -0.23   0.02     0.01  -0.08   0.02
  39   8    -0.03  -0.07   0.09     0.03  -0.51   0.11     0.03  -0.16   0.07
  40   7    -0.07  -0.10  -0.14    -0.16   0.13  -0.02    -0.04   0.06  -0.05
  41   1     0.03  -0.08  -0.00    -0.03  -0.15   0.14     0.02  -0.09   0.07
  42   1    -0.03  -0.07  -0.04     0.02  -0.07   0.13     0.02  -0.09   0.08
  43   7    -0.19   0.02  -0.10     0.19  -0.07  -0.14     0.04  -0.01  -0.04
  44   1    -0.05   0.03  -0.03     0.03   0.12  -0.09    -0.00   0.06  -0.04
  45   1    -0.06   0.02  -0.05     0.06  -0.03  -0.05     0.01  -0.00  -0.02
  46   6     0.18   0.04   0.10    -0.04  -0.01  -0.01    -0.00  -0.00   0.01
  47   8     0.55   0.23   0.14    -0.10  -0.04  -0.02     0.01  -0.01   0.01
  48   7    -0.13   0.07  -0.24     0.02  -0.00   0.05    -0.02   0.00   0.00
  49   1     0.03   0.09  -0.12    -0.01  -0.03   0.02    -0.00   0.00  -0.00
  50   1    -0.13  -0.01  -0.05     0.02  -0.01   0.01    -0.01   0.01   0.00
  51   7     0.02  -0.18   0.35    -0.01   0.03  -0.05    -0.00   0.01   0.02
  52   1    -0.07  -0.10   0.09     0.01   0.02  -0.01    -0.00  -0.00   0.00
  53   1     0.03  -0.06   0.13    -0.01   0.01  -0.02    -0.00  -0.01   0.00
                     28                     29                     30
                        a                      a                      a 
 Frequencies --   258.9796               291.7257               314.5747
 Red. masses --     3.8521                 5.9461                 6.0410
 Frc consts  --     0.0000                 0.0000                 0.0000
 IR Inten    --   141.0965                11.1292                 0.4215
 Raman Activ --     0.0000                 0.0000                 0.0000
 Depolar     --     0.0000                 0.0000                 0.0000
 Atom AN      X      Y      Z        X      Y      Z        X      Y      Z
   1   8    -0.13   0.09   0.02    -0.12  -0.37   0.11    -0.22  -0.04   0.04
   2   6    -0.12   0.11   0.01    -0.18   0.14  -0.09     0.02  -0.14   0.24
   3   1    -0.06   0.02  -0.02    -0.07   0.03  -0.18     0.04  -0.03   0.15
   4   1    -0.03   0.07   0.01    -0.09   0.19   0.02     0.03  -0.14   0.04
   5   6     0.03  -0.05  -0.00    -0.01  -0.03   0.02    -0.03   0.04   0.01
   6   1     0.05  -0.01  -0.02     0.04   0.00   0.01    -0.04   0.00  -0.01
   7   1    -0.01  -0.06   0.01    -0.03  -0.04  -0.00    -0.04   0.01  -0.02
   8   7     0.05  -0.01  -0.01     0.10  -0.04  -0.03     0.10   0.08  -0.07
   9   6    -0.03  -0.00  -0.08    -0.01  -0.00  -0.14    -0.01   0.14  -0.21
  10   1     0.09   0.03   0.00     0.20   0.07   0.03     0.07   0.05  -0.07
  11   1    -0.07  -0.08   0.02    -0.13  -0.18   0.06    -0.07   0.01  -0.02
  12   1    -0.05   0.05  -0.12    -0.10   0.11  -0.23    -0.04   0.08  -0.13
  13   6     0.03   0.03   0.03     0.09   0.01   0.06     0.18  -0.03   0.31
  14   1    -0.04   0.07   0.02    -0.10   0.19   0.05     0.12  -0.32   0.10
  15   1     0.01  -0.02  -0.05     0.05  -0.08  -0.17     0.08   0.12   0.37
  16   1     0.04  -0.02   0.07     0.12  -0.09   0.20    -0.02   0.15  -0.12
  17   6     0.10   0.02   0.03     0.18   0.02   0.06    -0.02  -0.02  -0.28
  18   1     0.03  -0.01   0.00     0.05  -0.08  -0.16    -0.02  -0.06  -0.28
  19   1     0.02   0.02   0.01    -0.12   0.05   0.13    -0.17  -0.06   0.03
  20   1     0.04   0.01   0.02     0.24   0.06   0.11     0.15   0.08  -0.04
  21   1    -0.05   0.01   0.01    -0.08  -0.11   0.07    -0.06  -0.01  -0.04
  22   6     0.00   0.00   0.02    -0.01  -0.00  -0.00    -0.01   0.00  -0.02
  23   8    -0.02  -0.01   0.03    -0.01  -0.00   0.00    -0.01  -0.00  -0.04
  24   7    -0.02   0.01  -0.04    -0.00  -0.00   0.01    -0.00   0.01   0.00
  25   1     0.02   0.00   0.03    -0.01  -0.00  -0.01    -0.00   0.00   0.00
  26   1     0.02   0.00   0.08    -0.01  -0.00  -0.03     0.01   0.00   0.02
  27   7     0.00  -0.01  -0.02    -0.01  -0.00   0.01    -0.00   0.00   0.01
  28   1     0.00  -0.00  -0.01    -0.00  -0.00   0.00    -0.00   0.00   0.01
  29   1     0.00  -0.01  -0.00    -0.00   0.00   0.00    -0.00   0.00  -0.00
  30   6     0.00  -0.00   0.00     0.00   0.00   0.00     0.00  -0.00  -0.00
  31   8     0.00   0.00   0.01     0.01   0.00   0.01    -0.00  -0.01  -0.01
  32   7    -0.00   0.00  -0.01     0.00   0.00  -0.00     0.00   0.01  -0.02
  33   1     0.00   0.00  -0.00     0.00   0.00   0.00    -0.00   0.01   0.00
  34   1    -0.00   0.00  -0.00    -0.00  -0.00  -0.01     0.01   0.02   0.04
  35   7    -0.00  -0.01  -0.01     0.00  -0.00  -0.00     0.00  -0.00  -0.00
  36   1     0.00   0.01   0.01    -0.00  -0.01  -0.01     0.00   0.00   0.00
  37   1     0.00   0.00   0.01     0.00  -0.00   0.00     0.00   0.00   0.00
  38   6     0.01  -0.01  -0.05     0.01   0.09   0.00     0.00   0.00   0.00
  39   8     0.05  -0.12   0.05    -0.02   0.19  -0.07     0.01  -0.00   0.01
  40   7     0.07  -0.27   0.18     0.05   0.05  -0.06     0.01  -0.00  -0.00
  41   1    -0.11   0.32  -0.24     0.05  -0.05   0.03     0.00   0.00  -0.00
  42   1    -0.16   0.54  -0.43     0.06  -0.18   0.11    -0.00   0.00  -0.01
  43   7     0.03  -0.00  -0.05    -0.05   0.02   0.07    -0.00   0.00   0.00
  44   1     0.04  -0.10   0.05    -0.02  -0.01   0.01    -0.00  -0.00   0.00
  45   1     0.02  -0.07   0.02    -0.02   0.03   0.01    -0.00  -0.00   0.00
  46   6     0.00   0.00   0.01     0.00   0.00   0.00    -0.00  -0.00   0.00
  47   8     0.01   0.02   0.01     0.01  -0.01   0.00     0.00  -0.00   0.00
  48   7     0.00   0.02  -0.00    -0.02  -0.01  -0.01    -0.00   0.00  -0.00
  49   1    -0.01  -0.01  -0.00     0.01   0.02  -0.00    -0.00  -0.00  -0.00
  50   1    -0.02  -0.03  -0.01     0.00   0.02   0.00    -0.00  -0.00  -0.00
  51   7    -0.00   0.00   0.01     0.00   0.00   0.01     0.00   0.00   0.00
  52   1    -0.00  -0.01  -0.00     0.00   0.00   0.00    -0.00  -0.00   0.00
  53   1    -0.00  -0.00  -0.00    -0.00  -0.00   0.00    -0.00  -0.00  -0.00
                     31                     32                     33
                        a                      a                      a 
 Frequencies --   323.6136               337.8576               344.0233
 Red. masses --     5.5724                 3.0372                 2.6465
 Frc consts  --     0.0000                 0.0000                 0.0000
 IR Inten    --     3.5197                 0.6251                77.1234
 Raman Activ --     0.0000                 0.0000                 0.0000
 Depolar     --     0.0000                 0.0000                 0.0000
 Atom AN      X      Y      Z        X      Y      Z        X      Y      Z
   1   8    -0.28  -0.27  -0.05     0.05  -0.12   0.03     0.02  -0.03   0.01
   2   6    -0.12   0.12   0.01    -0.10   0.11  -0.14    -0.02   0.02  -0.04
   3   1    -0.04   0.03  -0.07    -0.07   0.02  -0.14    -0.02   0.00  -0.04
   4   1    -0.02   0.12   0.01    -0.05   0.15  -0.01    -0.01   0.03  -0.00
   5   6     0.04   0.00   0.07     0.10  -0.15  -0.01     0.02  -0.04  -0.01
   6   1     0.06   0.01  -0.02     0.11  -0.03  -0.05     0.02  -0.01  -0.01
   7   1    -0.01  -0.06   0.02     0.03  -0.12   0.03     0.01  -0.03   0.01
   8   7     0.10   0.04   0.04    -0.00  -0.07   0.04    -0.00  -0.02   0.01
   9   6    -0.03   0.14  -0.14     0.01   0.03  -0.02     0.01   0.01   0.00
  10   1    -0.24  -0.07  -0.21     0.20   0.07   0.06     0.06   0.02   0.02
  11   1     0.06   0.32  -0.11    -0.07  -0.17   0.06    -0.02  -0.05   0.02
  12   1     0.10  -0.10   0.14    -0.09   0.14  -0.14    -0.02   0.04  -0.04
  13   6     0.18  -0.06   0.21    -0.12   0.12  -0.02    -0.04   0.03  -0.01
  14   1    -0.01   0.01   0.09     0.14  -0.26  -0.05     0.02  -0.05  -0.01
  15   1     0.10  -0.03   0.02    -0.12   0.16   0.31    -0.03   0.04   0.06
  16   1     0.08  -0.06   0.13    -0.15   0.24  -0.30    -0.03   0.05  -0.07
  17   6     0.13  -0.01  -0.09     0.05  -0.01   0.16     0.01  -0.01   0.03
  18   1     0.06   0.08   0.24     0.02   0.07   0.26     0.00   0.01   0.05
  19   1     0.30  -0.05  -0.20     0.20   0.01  -0.08     0.04  -0.00  -0.02
  20   1    -0.23  -0.06  -0.18    -0.18  -0.08  -0.03    -0.03  -0.02  -0.01
  21   1    -0.06  -0.06   0.06    -0.02  -0.04   0.03    -0.00  -0.01   0.01
  22   6    -0.00  -0.01  -0.01    -0.01   0.01  -0.02     0.00  -0.00   0.01
  23   8     0.00  -0.00  -0.01    -0.01   0.01  -0.02     0.00  -0.00   0.01
  24   7     0.00   0.01   0.02     0.01  -0.01   0.03    -0.01  -0.00  -0.03
  25   1    -0.02   0.01  -0.02     0.00  -0.01  -0.01     0.01  -0.00   0.01
  26   1    -0.01   0.00  -0.04    -0.03  -0.01  -0.07     0.03   0.00   0.08
  27   7    -0.01   0.00   0.01     0.02  -0.01   0.01    -0.01  -0.00  -0.01
  28   1    -0.01   0.00   0.01     0.02   0.01   0.01    -0.01  -0.01  -0.02
  29   1    -0.00   0.01   0.00     0.01  -0.01   0.01    -0.00  -0.00   0.00
  30   6    -0.01   0.00  -0.01     0.00  -0.01   0.01    -0.01  -0.01  -0.01
  31   8    -0.00  -0.00  -0.01     0.00  -0.00  -0.00    -0.01  -0.01  -0.02
  32   7     0.00  -0.01   0.01    -0.01   0.01  -0.04     0.01  -0.01   0.00
  33   1    -0.00  -0.01   0.00     0.00   0.01   0.01    -0.00  -0.01   0.01
  34   1     0.00  -0.01  -0.01     0.01   0.03   0.06     0.02   0.00   0.02
  35   7    -0.00   0.01   0.01     0.00  -0.00  -0.01    -0.01  -0.01  -0.00
  36   1    -0.00  -0.01  -0.01     0.00  -0.00  -0.00     0.00   0.01   0.02
  37   1    -0.00  -0.01  -0.01     0.00   0.00   0.00    -0.00   0.00   0.01
  38   6    -0.00   0.02  -0.00     0.01   0.03   0.00    -0.01   0.03  -0.01
  39   8    -0.01   0.04  -0.03    -0.00   0.04  -0.01    -0.02   0.04  -0.02
  40   7     0.01   0.00  -0.00     0.02   0.01  -0.02     0.01  -0.03   0.00
  41   1     0.00   0.01  -0.00     0.01   0.00  -0.00     0.01  -0.01   0.00
  42   1     0.01  -0.01   0.01     0.01  -0.04   0.02     0.00  -0.04   0.01
  43   7    -0.01  -0.00   0.02    -0.02   0.01   0.02     0.02  -0.04   0.03
  44   1    -0.00  -0.01   0.01     0.00  -0.03   0.02    -0.05   0.12  -0.08
  45   1    -0.00   0.01   0.00    -0.01   0.01   0.00    -0.00   0.02   0.00
  46   6     0.00   0.00  -0.01     0.00  -0.01   0.00     0.00   0.03   0.01
  47   8    -0.01   0.00  -0.01     0.01  -0.01   0.00    -0.02   0.03   0.00
  48   7     0.02   0.00   0.00    -0.05  -0.05  -0.01     0.17   0.25   0.01
  49   1    -0.00  -0.01   0.00     0.05   0.09   0.02    -0.22  -0.36  -0.09
  50   1     0.00  -0.02  -0.00     0.05   0.13   0.03    -0.24  -0.60  -0.12
  51   7    -0.00  -0.01  -0.01     0.01   0.03   0.00    -0.03  -0.12   0.02
  52   1     0.00   0.01   0.00    -0.02  -0.08  -0.02     0.12   0.38   0.12
  53   1     0.01   0.01   0.01    -0.01  -0.02  -0.01     0.01   0.07   0.04
                     34                     35                     36
                        a                      a                      a 
 Frequencies --   361.9846               370.1556               384.5151
 Red. masses --     2.7376                 7.6429                 2.5600
 Frc consts  --     0.0000                 0.0000                 0.0000
 IR Inten    --   122.5893                 4.2133               123.8475
 Raman Activ --     0.0000                 0.0000                 0.0000
 Depolar     --     0.0000                 0.0000                 0.0000
 Atom AN      X      Y      Z        X      Y      Z        X      Y      Z
   1   8     0.01  -0.02   0.01     0.08   0.04   0.06    -0.02  -0.01  -0.01
   2   6    -0.00   0.03  -0.01     0.09   0.11   0.05    -0.01  -0.01  -0.00
   3   1     0.01   0.01  -0.01     0.09   0.05   0.06    -0.01  -0.01  -0.01
   4   1    -0.01   0.02   0.00     0.00  -0.04   0.01     0.00   0.01  -0.00
   5   6    -0.02   0.04   0.00    -0.11   0.31  -0.01     0.02  -0.04   0.01
   6   1    -0.01   0.01   0.01    -0.09   0.10   0.11     0.01  -0.01  -0.02
   7   1    -0.01   0.02  -0.01    -0.06   0.20  -0.07     0.01  -0.03   0.01
   8   7    -0.00  -0.00  -0.00    -0.02  -0.04  -0.08     0.01   0.01   0.01
   9   6    -0.04  -0.02  -0.03    -0.35  -0.20  -0.21     0.04   0.01   0.04
  10   1    -0.02  -0.01  -0.02    -0.12  -0.06  -0.04    -0.01  -0.00   0.00
  11   1    -0.02   0.00  -0.00    -0.18  -0.06  -0.01     0.03   0.02  -0.00
  12   1    -0.01  -0.01  -0.02    -0.09  -0.12  -0.16     0.02  -0.01   0.03
  13   6     0.01  -0.03   0.00     0.11  -0.32  -0.10    -0.00   0.04   0.00
  14   1     0.02  -0.05  -0.00     0.09  -0.19  -0.04    -0.02   0.06   0.00
  15   1     0.01   0.01   0.04     0.10  -0.05   0.04     0.00  -0.01  -0.04
  16   1    -0.02   0.00  -0.03    -0.05  -0.12  -0.09     0.02  -0.01   0.04
  17   6     0.04   0.02   0.05     0.20   0.10   0.23    -0.04  -0.01  -0.03
  18   1     0.02   0.01   0.05     0.10  -0.00   0.17    -0.02   0.00  -0.02
  19   1     0.04   0.02  -0.01     0.11   0.15   0.03    -0.02  -0.02  -0.00
  20   1    -0.01  -0.01   0.01     0.05  -0.02   0.10    -0.01   0.00  -0.01
  21   1    -0.02  -0.01  -0.01    -0.03  -0.01  -0.01     0.00  -0.00   0.00
  22   6     0.05  -0.02   0.13    -0.01  -0.00  -0.02    -0.00  -0.00  -0.00
  23   8     0.03  -0.03   0.04    -0.00  -0.00  -0.02     0.02   0.02  -0.03
  24   7    -0.09   0.02  -0.27     0.01   0.01   0.04    -0.00  -0.02   0.01
  25   1     0.04   0.02   0.12    -0.01   0.00  -0.01     0.00  -0.01   0.01
  26   1     0.29   0.03   0.79    -0.02   0.00  -0.08     0.07   0.00   0.19
  27   7    -0.04   0.03  -0.05    -0.01  -0.00   0.01    -0.05   0.04   0.00
  28   1    -0.07  -0.07  -0.18     0.00   0.01   0.01    -0.01  -0.06  -0.32
  29   1    -0.04  -0.02  -0.07     0.01   0.01   0.02     0.11  -0.05   0.20
  30   6     0.02   0.00   0.00     0.00  -0.01   0.01    -0.02   0.00   0.03
  31   8    -0.01   0.00  -0.00     0.01   0.01   0.03     0.01   0.02   0.05
  32   7     0.01   0.03   0.06    -0.01   0.00  -0.05    -0.04  -0.10  -0.29
  33   1     0.01  -0.01  -0.07     0.00   0.03   0.04    -0.03   0.04   0.19
  34   1    -0.05  -0.06  -0.17     0.02   0.05   0.12     0.19   0.27   0.69
  35   7    -0.00  -0.03  -0.03     0.01   0.02   0.01    -0.01   0.01   0.03
  36   1     0.03   0.07   0.08    -0.01  -0.04  -0.06    -0.05  -0.13  -0.15
  37   1     0.01   0.01   0.03     0.00  -0.00  -0.01    -0.00  -0.02  -0.00
  38   6     0.00   0.00  -0.03     0.00   0.00   0.01     0.00   0.01  -0.01
  39   8    -0.01   0.02  -0.05     0.00  -0.01   0.01     0.00   0.01  -0.01
  40   7    -0.01   0.03   0.01     0.01  -0.01  -0.01     0.00   0.01   0.01
  41   1    -0.01  -0.02   0.02     0.01   0.00  -0.00    -0.00   0.00   0.00
  42   1     0.03  -0.07   0.08    -0.00  -0.00  -0.01     0.01  -0.01   0.01
  43   7     0.01   0.00  -0.02    -0.00   0.00   0.00     0.01  -0.01   0.00
  44   1     0.00  -0.01  -0.00    -0.01   0.01  -0.01    -0.01   0.01  -0.01
  45   1     0.00  -0.03   0.02    -0.00   0.00   0.00    -0.00   0.00  -0.00
  46   6    -0.01  -0.02   0.01     0.01   0.01   0.00    -0.01  -0.00  -0.02
  47   8    -0.00  -0.02   0.00     0.01   0.01   0.00    -0.00   0.00  -0.02
  48   7    -0.02  -0.02   0.01     0.00   0.00  -0.01     0.03  -0.01   0.01
  49   1     0.02   0.03   0.01    -0.00  -0.01  -0.00     0.00  -0.01   0.01
  50   1     0.02   0.06   0.02    -0.01  -0.02  -0.00     0.02   0.00   0.00
  51   7     0.00   0.02   0.00     0.00  -0.00   0.01    -0.00   0.03  -0.00
  52   1    -0.02  -0.06  -0.02     0.01   0.02   0.01    -0.02  -0.05  -0.02
  53   1    -0.00  -0.01  -0.00     0.00  -0.00   0.00    -0.00  -0.01  -0.00
                     37                     38                     39
                        a                      a                      a 
 Frequencies --   419.1972               425.5460               429.5915
 Red. masses --     2.2445                 8.6598                 2.8888
 Frc consts  --     0.0000                 0.0000                 0.0000
 IR Inten    --    40.0489                 0.8337                59.7412
 Raman Activ --     0.0000                 0.0000                 0.0000
 Depolar     --     0.0000                 0.0000                 0.0000
 Atom AN      X      Y      Z        X      Y      Z        X      Y      Z
   1   8    -0.02  -0.01   0.00    -0.20  -0.12   0.03    -0.02  -0.02  -0.00
   2   6    -0.00   0.00   0.01     0.05   0.08   0.18     0.01   0.01   0.02
   3   1    -0.00  -0.00  -0.00     0.03   0.03   0.06     0.01   0.00   0.01
   4   1    -0.00   0.01   0.00     0.03   0.01   0.04     0.01  -0.00   0.00
   5   6     0.01  -0.01  -0.00     0.16   0.04  -0.03     0.01   0.01  -0.00
   6   1     0.01  -0.00  -0.01     0.09   0.01  -0.05     0.00   0.00   0.00
   7   1     0.00  -0.02   0.00     0.00  -0.06  -0.02    -0.00   0.00  -0.01
   8   7     0.02   0.02  -0.00     0.28   0.10  -0.13     0.04  -0.00  -0.02
   9   6     0.01  -0.02   0.02    -0.02  -0.37  -0.05    -0.00  -0.05  -0.02
  10   1    -0.01  -0.01   0.01    -0.12  -0.10   0.07    -0.01  -0.01   0.00
  11   1     0.00  -0.01   0.00    -0.04  -0.13   0.01    -0.00  -0.01  -0.00
  12   1     0.01  -0.02   0.01     0.04  -0.22  -0.08     0.00  -0.03  -0.01
  13   6     0.02   0.03  -0.01     0.22   0.25  -0.14     0.02   0.03  -0.01
  14   1     0.00   0.02  -0.00     0.06   0.09  -0.04     0.01   0.01  -0.00
  15   1     0.01   0.00  -0.01     0.01   0.07  -0.03    -0.00   0.01  -0.00
  16   1     0.01   0.00   0.01     0.07   0.10  -0.05     0.01   0.01  -0.00
  17   6    -0.04   0.01   0.00    -0.37   0.07   0.10    -0.04   0.00   0.02
  18   1    -0.02   0.02  -0.00    -0.19   0.19   0.03    -0.02   0.02   0.01
  19   1    -0.01  -0.00   0.00    -0.14  -0.02   0.05    -0.02  -0.00   0.01
  20   1    -0.02  -0.00   0.00    -0.18  -0.12   0.09    -0.02  -0.02   0.02
  21   1    -0.01  -0.00  -0.00    -0.07  -0.04   0.01    -0.01  -0.01   0.01
  22   6     0.08  -0.02   0.03    -0.01   0.00   0.01     0.01   0.00   0.01
  23   8    -0.00  -0.08   0.13     0.00   0.01  -0.00    -0.01  -0.01   0.00
  24   7     0.01   0.05  -0.16    -0.00  -0.01   0.01     0.00   0.00  -0.00
  25   1     0.03   0.02   0.05    -0.00  -0.00  -0.01     0.00   0.00   0.00
  26   1     0.05   0.02   0.11    -0.01  -0.00  -0.00    -0.01   0.00  -0.04
  27   7     0.02  -0.04  -0.09     0.01   0.00   0.00    -0.01  -0.01  -0.01
  28   1    -0.06   0.10   0.65     0.01  -0.01  -0.06    -0.00   0.01   0.05
  29   1    -0.25   0.16  -0.45     0.02  -0.02   0.03    -0.01   0.02  -0.01
  30   6    -0.01  -0.04   0.01     0.00  -0.01  -0.00     0.01   0.04   0.01
  31   8    -0.00  -0.03   0.02    -0.00  -0.01   0.00    -0.01   0.04   0.00
  32   7    -0.05   0.01  -0.09     0.00   0.01   0.01     0.02  -0.02  -0.03
  33   1    -0.01   0.03   0.04     0.01   0.02   0.01     0.00   0.00   0.02
  34   1     0.04   0.12   0.27    -0.03  -0.02  -0.05     0.02  -0.01  -0.01
  35   7     0.03   0.05   0.02     0.01   0.01   0.01    -0.02  -0.04  -0.03
  36   1    -0.02  -0.15  -0.19     0.00  -0.01  -0.01     0.03   0.09   0.11
  37   1     0.00   0.00  -0.01     0.00   0.00  -0.01     0.00   0.01   0.03
  38   6     0.01  -0.01  -0.02     0.01   0.01   0.00    -0.05   0.07  -0.03
  39   8     0.01   0.00  -0.01    -0.00  -0.00  -0.01    -0.03   0.08  -0.00
  40   7    -0.01   0.01   0.01     0.01   0.01  -0.01     0.02  -0.11   0.04
  41   1    -0.02   0.00   0.01     0.00   0.01  -0.01    -0.01   0.08  -0.07
  42   1     0.01  -0.01   0.03     0.01  -0.02   0.01    -0.01  -0.02  -0.02
  43   7    -0.01  -0.00  -0.01    -0.02   0.02  -0.00     0.10  -0.16   0.09
  44   1     0.00  -0.02   0.01     0.01  -0.05   0.03    -0.18   0.49  -0.31
  45   1    -0.00  -0.01   0.01    -0.00  -0.00   0.00    -0.00   0.03   0.02
  46   6    -0.00   0.00  -0.01     0.01   0.01   0.01    -0.02  -0.09  -0.02
  47   8     0.00   0.00  -0.01     0.00   0.00   0.01    -0.01  -0.02  -0.01
  48   7     0.02  -0.01   0.01    -0.02  -0.02  -0.01     0.09   0.14   0.05
  49   1     0.00  -0.00   0.02     0.02   0.04   0.01    -0.15  -0.27  -0.15
  50   1     0.01  -0.02  -0.00    -0.00  -0.01  -0.00    -0.02   0.10   0.03
  51   7    -0.01   0.01   0.01    -0.00  -0.02  -0.01     0.03   0.11   0.05
  52   1    -0.01  -0.02  -0.00     0.03   0.08   0.02    -0.19  -0.50  -0.14
  53   1    -0.00  -0.01   0.01    -0.00   0.00  -0.01     0.01  -0.03   0.02
                     40                     41                     42
                        a                      a                      a 
 Frequencies --   447.5096               453.9549               461.4609
 Red. masses --     3.5084                 4.3343                 8.1161
 Frc consts  --     0.0000                 0.0000                 0.0000
 IR Inten    --   117.9037                70.1833                 3.3747
 Raman Activ --     0.0000                 0.0000                 0.0000
 Depolar     --     0.0000                 0.0000                 0.0000
 Atom AN      X      Y      Z        X      Y      Z        X      Y      Z
   1   8    -0.00   0.00   0.01    -0.00   0.01   0.01    -0.03  -0.05  -0.01
   2   6    -0.00   0.01  -0.00    -0.01   0.00  -0.00     0.18   0.13   0.16
   3   1     0.01   0.00   0.00     0.00   0.00   0.00     0.03   0.03   0.01
   4   1    -0.00  -0.00   0.00    -0.01  -0.00   0.00     0.10   0.08   0.03
   5   6    -0.02   0.03  -0.01    -0.03   0.03  -0.02     0.24  -0.03   0.28
   6   1    -0.02   0.01   0.03    -0.02   0.01   0.02     0.14  -0.01  -0.01
   7   1    -0.01   0.03  -0.02    -0.01   0.03  -0.02     0.08  -0.11   0.13
   8   7     0.02  -0.04  -0.02     0.02  -0.04  -0.04    -0.01   0.05   0.30
   9   6     0.02  -0.02  -0.04     0.03  -0.03  -0.04    -0.32   0.14   0.01
  10   1     0.00  -0.01  -0.02     0.00  -0.01  -0.02    -0.05   0.03  -0.06
  11   1     0.02   0.01  -0.02     0.01   0.00  -0.01    -0.18   0.06   0.06
  12   1     0.01  -0.01  -0.00     0.01  -0.01   0.00    -0.11   0.04  -0.09
  13   6    -0.01   0.02   0.02    -0.01   0.03   0.03    -0.04  -0.06  -0.35
  14   1    -0.02   0.02   0.01    -0.02   0.01   0.02     0.12   0.04  -0.17
  15   1    -0.02   0.01   0.01    -0.01   0.01   0.01    -0.04  -0.05  -0.16
  16   1     0.01   0.02   0.01     0.02   0.02   0.01    -0.12  -0.09  -0.15
  17   6    -0.01  -0.03   0.04    -0.01  -0.02   0.04    -0.02  -0.13  -0.21
  18   1    -0.01   0.00   0.02    -0.01   0.01   0.02    -0.01  -0.07  -0.15
  19   1    -0.00   0.01   0.01    -0.00   0.01   0.01    -0.02  -0.17  -0.05
  20   1    -0.00  -0.02   0.02    -0.01  -0.03   0.03     0.01   0.08  -0.14
  21   1    -0.00   0.00  -0.00     0.00   0.00  -0.00    -0.04  -0.03  -0.01
  22   6     0.03  -0.01   0.01     0.05  -0.02   0.01     0.00   0.01   0.02
  23   8    -0.01  -0.04  -0.01    -0.01  -0.06   0.00    -0.00   0.01   0.01
  24   7     0.02   0.02  -0.01     0.03   0.04  -0.03    -0.01  -0.01  -0.01
  25   1    -0.00   0.01  -0.01    -0.00   0.02  -0.00     0.00  -0.01  -0.01
  26   1    -0.00   0.01  -0.05     0.02   0.02  -0.02    -0.01  -0.01   0.01
  27   7    -0.04  -0.00  -0.01    -0.07  -0.01  -0.01     0.01  -0.01  -0.02
  28   1    -0.02   0.01   0.07    -0.04   0.01   0.11     0.01   0.01   0.03
  29   1    -0.01   0.04   0.01    -0.02   0.06  -0.00     0.00  -0.00  -0.00
  30   6     0.03   0.09   0.02     0.01   0.15  -0.02     0.01   0.01  -0.00
  31   8     0.01   0.09   0.01     0.07   0.15  -0.04    -0.01   0.02   0.01
  32   7     0.05  -0.07  -0.08     0.11  -0.13  -0.04     0.01  -0.02  -0.03
  33   1    -0.01  -0.04   0.04    -0.07  -0.22  -0.02     0.01   0.03   0.04
  34   1     0.09   0.01   0.06     0.23   0.01   0.14     0.01   0.00   0.01
  35   7    -0.08  -0.12  -0.06    -0.20  -0.17  -0.01    -0.01  -0.03  -0.00
  36   1     0.06   0.23   0.30     0.00   0.25   0.34     0.02   0.06   0.08
  37   1    -0.01  -0.01   0.04    -0.03  -0.06   0.04    -0.00  -0.00   0.00
  38   6     0.03  -0.02   0.01     0.02  -0.02  -0.01     0.01   0.01   0.01
  39   8     0.01  -0.03  -0.01     0.02  -0.02  -0.01    -0.01  -0.01  -0.00
  40   7    -0.00   0.06  -0.03    -0.01   0.05  -0.00     0.01   0.01  -0.02
  41   1     0.02  -0.06   0.05     0.01  -0.06   0.05     0.01   0.00  -0.00
  42   1     0.01   0.00   0.01     0.00   0.03  -0.00     0.00  -0.02   0.01
  43   7    -0.05   0.08  -0.03    -0.04   0.04  -0.03    -0.01   0.03   0.00
  44   1     0.09  -0.25   0.16     0.06  -0.19   0.11     0.02  -0.05   0.04
  45   1    -0.00   0.00  -0.02    -0.00   0.00  -0.02     0.00   0.00  -0.00
  46   6    -0.06  -0.11  -0.04     0.06   0.01   0.09     0.00  -0.01   0.01
  47   8    -0.00  -0.11  -0.05    -0.05   0.04   0.13    -0.01  -0.00   0.01
  48   7     0.03   0.15   0.03    -0.06   0.02  -0.06    -0.00   0.02  -0.00
  49   1     0.10   0.23   0.18    -0.15  -0.27  -0.29    -0.02  -0.03  -0.03
  50   1    -0.11  -0.48  -0.11    -0.06   0.35   0.08    -0.02   0.01   0.00
  51   7     0.04   0.21   0.06     0.07  -0.12  -0.11     0.01  -0.00  -0.01
  52   1    -0.13  -0.37  -0.11     0.11   0.13   0.01    -0.00  -0.02  -0.01
  53   1    -0.01  -0.04  -0.01     0.01   0.05  -0.04     0.00   0.01  -0.00
                     43                     44                     45
                        a                      a                      a 
 Frequencies --   464.7554               466.7255               475.2437
 Red. masses --     3.2586                 8.0859                 3.9677
 Frc consts  --     0.0000                 0.0000                 0.0000
 IR Inten    --   193.1221                 1.8693               335.0912
 Raman Activ --     0.0000                 0.0000                 0.0000
 Depolar     --     0.0000                 0.0000                 0.0000
 Atom AN      X      Y      Z        X      Y      Z        X      Y      Z
   1   8     0.00  -0.00   0.01    -0.01  -0.03   0.00     0.01   0.02  -0.00
   2   6    -0.03  -0.01  -0.02    -0.08  -0.08  -0.05     0.00   0.00  -0.00
   3   1    -0.01  -0.01  -0.01    -0.05  -0.03  -0.02     0.00   0.00  -0.00
   4   1    -0.01   0.00  -0.00    -0.03  -0.01  -0.01     0.00   0.00  -0.00
   5   6    -0.00  -0.02  -0.03     0.07  -0.17  -0.14    -0.03   0.03   0.02
   6   1     0.01  -0.01  -0.03     0.10  -0.06  -0.19    -0.03   0.01   0.04
   7   1     0.00  -0.03   0.00     0.05  -0.20   0.05    -0.01   0.05  -0.01
   8   7    -0.02   0.04  -0.02    -0.12   0.31  -0.02     0.02  -0.06  -0.00
   9   6    -0.00  -0.02   0.04    -0.10  -0.07   0.30     0.03   0.02  -0.05
  10   1     0.00   0.00   0.04    -0.05   0.02   0.22     0.01  -0.00  -0.04
  11   1     0.00  -0.03   0.01    -0.01  -0.14   0.09     0.01   0.03  -0.02
  12   1     0.00  -0.01   0.00    -0.02  -0.06   0.04     0.01   0.02   0.00
  13   6     0.03  -0.03   0.02     0.17  -0.22   0.00    -0.03   0.04   0.02
  14   1     0.01  -0.02   0.01     0.06  -0.14   0.00    -0.02   0.03   0.00
  15   1     0.03  -0.00   0.01     0.20  -0.03   0.01    -0.03   0.01   0.00
  16   1    -0.00  -0.02   0.01    -0.04  -0.16   0.00     0.01   0.03   0.01
  17   6     0.00   0.06  -0.00     0.03   0.35  -0.12    -0.00  -0.06   0.03
  18   1     0.00   0.01   0.00     0.03   0.06  -0.02    -0.00  -0.01   0.01
  19   1     0.01   0.02  -0.00     0.03   0.09  -0.05    -0.00  -0.01   0.01
  20   1     0.00   0.01  -0.00     0.01   0.13  -0.06    -0.00  -0.02   0.01
  21   1     0.01   0.00  -0.00     0.01  -0.00   0.01     0.01   0.01   0.00
  22   6    -0.00  -0.01  -0.01     0.07  -0.09  -0.02     0.07  -0.05   0.01
  23   8     0.00  -0.01  -0.00    -0.00  -0.14  -0.01    -0.01  -0.11  -0.00
  24   7     0.01   0.01   0.01     0.08   0.16  -0.01     0.07   0.08  -0.03
  25   1    -0.01   0.00  -0.01    -0.03   0.08  -0.00    -0.01   0.04   0.01
  26   1     0.00   0.00  -0.01     0.07   0.08  -0.07     0.04   0.04  -0.05
  27   7    -0.01   0.01   0.02    -0.15   0.05   0.06    -0.10   0.03   0.03
  28   1    -0.01  -0.02  -0.06    -0.12  -0.05  -0.02    -0.09  -0.03   0.03
  29   1     0.01  -0.00   0.02    -0.02   0.11   0.04    -0.03   0.08   0.00
  30   6     0.01  -0.10   0.03    -0.00   0.02  -0.01     0.04  -0.03  -0.00
  31   8    -0.09  -0.10   0.04     0.01   0.03  -0.01    -0.15   0.00   0.03
  32   7    -0.07   0.07  -0.03     0.03  -0.03  -0.01     0.03  -0.06  -0.21
  33   1     0.08   0.24   0.12     0.00  -0.00   0.04     0.15   0.43   0.45
  34   1    -0.19   0.01  -0.09     0.02  -0.01  -0.01    -0.16   0.01  -0.05
  35   7     0.15   0.08  -0.02    -0.03  -0.02   0.01     0.06  -0.07   0.01
  36   1     0.05  -0.07  -0.11    -0.00   0.05   0.07     0.12   0.23   0.31
  37   1     0.02   0.06  -0.02    -0.01  -0.01   0.01    -0.01  -0.02  -0.06
  38   6     0.04  -0.03  -0.00     0.01  -0.01  -0.02     0.02  -0.02  -0.03
  39   8     0.02  -0.04  -0.02     0.03   0.01  -0.00     0.06   0.03   0.01
  40   7    -0.01   0.10  -0.02    -0.01   0.01   0.03    -0.02   0.00   0.05
  41   1     0.05  -0.18   0.15    -0.04   0.02  -0.00    -0.07   0.06  -0.02
  42   1    -0.01   0.09  -0.04     0.01   0.01   0.03     0.02   0.01   0.05
  43   7    -0.09   0.07  -0.03    -0.02  -0.03  -0.01    -0.02  -0.06  -0.01
  44   1     0.13  -0.39   0.23    -0.03   0.04  -0.04    -0.06   0.10  -0.09
  45   1    -0.01   0.04  -0.05    -0.01   0.00   0.01    -0.02   0.00   0.01
  46   6    -0.00   0.02  -0.05     0.00  -0.02   0.02    -0.02   0.07  -0.06
  47   8    -0.01   0.05  -0.04    -0.00  -0.02   0.03     0.06   0.04  -0.10
  48   7     0.17   0.08   0.07    -0.04   0.01  -0.02     0.05  -0.13   0.04
  49   1    -0.22  -0.44  -0.16     0.04   0.08   0.01     0.03   0.03   0.11
  50   1     0.02   0.08   0.03    -0.03  -0.03  -0.01     0.15   0.07   0.01
  51   7    -0.05   0.01   0.07     0.03   0.01  -0.02    -0.12  -0.06   0.05
  52   1    -0.16  -0.27  -0.05     0.03   0.01  -0.01     0.01   0.23   0.09
  53   1     0.02   0.00   0.07    -0.00   0.00  -0.03    -0.02  -0.03   0.03
                     46                     47                     48
                        a                      a                      a 
 Frequencies --   477.5429               479.9180               484.0556
 Red. masses --     8.0475                 6.6170                 7.0306
 Frc consts  --     0.0000                 0.0000                 0.0000
 IR Inten    --    57.9863                20.1164                39.8088
 Raman Activ --     0.0000                 0.0000                 0.0000
 Depolar     --     0.0000                 0.0000                 0.0000
 Atom AN      X      Y      Z        X      Y      Z        X      Y      Z
   1   8     0.00  -0.02  -0.00    -0.00  -0.02  -0.00     0.01  -0.00  -0.00
   2   6    -0.02  -0.03  -0.02     0.02   0.01   0.01     0.03   0.02   0.01
   3   1    -0.01  -0.01  -0.00     0.00   0.00  -0.00     0.01   0.01  -0.01
   4   1    -0.01  -0.01  -0.01     0.01   0.01   0.00     0.01   0.02   0.00
   5   6     0.00  -0.03  -0.05     0.01   0.01   0.03    -0.01   0.03   0.07
   6   1     0.01  -0.01  -0.04    -0.00   0.00   0.02    -0.04   0.01   0.06
   7   1     0.01  -0.04   0.00    -0.00   0.01   0.00    -0.01   0.06  -0.01
   8   7    -0.03   0.06  -0.02     0.02  -0.01   0.01     0.05  -0.08   0.03
   9   6    -0.00  -0.02   0.07    -0.01   0.00  -0.02     0.02   0.04  -0.09
  10   1    -0.01   0.00   0.04     0.00   0.00  -0.01     0.02   0.00  -0.06
  11   1     0.02  -0.03   0.01    -0.02   0.00   0.00    -0.02   0.03  -0.02
  12   1     0.01  -0.02   0.03    -0.01   0.00  -0.02    -0.01   0.03  -0.03
  13   6     0.04  -0.05   0.03    -0.01   0.03  -0.03    -0.05   0.09  -0.02
  14   1     0.00  -0.03   0.01     0.00   0.01  -0.01    -0.00   0.04  -0.01
  15   1     0.05  -0.01   0.01    -0.02   0.00  -0.01    -0.06   0.02  -0.00
  16   1     0.00  -0.04   0.02    -0.00   0.01  -0.01     0.00   0.06  -0.02
  17   6     0.01   0.08  -0.01    -0.01  -0.03  -0.00    -0.01  -0.10   0.02
  18   1     0.01   0.01   0.00    -0.01   0.00  -0.01    -0.01  -0.01  -0.00
  19   1     0.01   0.03  -0.01    -0.01  -0.02   0.00    -0.01  -0.04   0.01
  20   1     0.00   0.02  -0.00    -0.01  -0.01  -0.00    -0.01  -0.03   0.01
  21   1     0.01  -0.00   0.01     0.01   0.00   0.01     0.01   0.00   0.01
  22   6    -0.04   0.08   0.04     0.08  -0.09  -0.01     0.11  -0.16  -0.07
  23   8    -0.01   0.12   0.01     0.01  -0.15  -0.01     0.04  -0.24   0.00
  24   7    -0.08  -0.11  -0.01     0.10   0.16  -0.02     0.16   0.25  -0.03
  25   1     0.02  -0.06  -0.02    -0.04   0.08  -0.00    -0.07   0.13   0.00
  26   1    -0.05  -0.06   0.09     0.08   0.08  -0.07     0.15   0.13  -0.05
  27   7     0.13  -0.02  -0.06    -0.16   0.03   0.05    -0.23   0.07   0.10
  28   1     0.10   0.05   0.05    -0.12  -0.06  -0.02    -0.20  -0.10  -0.07
  29   1    -0.00  -0.08  -0.08    -0.01   0.11   0.07    -0.03   0.17   0.07
  30   6     0.01   0.01  -0.00     0.02  -0.05   0.09    -0.03   0.02  -0.06
  31   8    -0.04   0.02   0.01    -0.02  -0.05   0.10     0.05   0.01  -0.08
  32   7     0.02  -0.04  -0.08    -0.11   0.16   0.04     0.05  -0.07   0.06
  33   1     0.04   0.12   0.16    -0.08  -0.22  -0.43     0.02   0.06   0.17
  34   1    -0.03   0.01   0.01     0.02   0.08   0.13    -0.01  -0.07  -0.12
  35   7    -0.00  -0.04   0.01     0.08  -0.04  -0.17    -0.04   0.08   0.13
  36   1     0.03   0.08   0.11     0.13   0.09   0.08    -0.14  -0.19  -0.22
[...]
  44   1     0.08  -0.01  -0.05    -0.04   0.00   0.03     0.03  -0.00  -0.02
  45   1    -0.70  -0.26  -0.25     0.36   0.13   0.13    -0.27  -0.10  -0.10
  46   6    -0.00  -0.00   0.01    -0.00   0.01  -0.02    -0.00  -0.00   0.01
  47   8    -0.00  -0.00  -0.01     0.00  -0.01   0.01     0.00   0.00  -0.00
  48   7     0.00   0.00  -0.00    -0.00  -0.00   0.01     0.00   0.00  -0.00
  49   1     0.00  -0.00  -0.00    -0.01   0.01  -0.00     0.00  -0.00  -0.00
  50   1    -0.00   0.00  -0.00     0.00   0.00   0.01    -0.00  -0.00  -0.00
  51   7     0.01   0.00  -0.01     0.05  -0.00  -0.03    -0.00   0.00  -0.00
  52   1    -0.00   0.00  -0.00    -0.00   0.01  -0.02    -0.00   0.00  -0.00
  53   1    -0.02  -0.00   0.02    -0.16  -0.01   0.13    -0.00  -0.00   0.00
                    142                    143                    144
                        a                      a                      a 
 Frequencies --  3463.8798              3490.5314              3493.4906
 Red. masses --     1.4720                 1.4560                 1.4594
 Frc consts  --     0.0000                 0.0000                 0.0000
 IR Inten    --    11.7172                14.6442                13.2813
 Raman Activ --     0.0000                 0.0000                 0.0000
 Depolar     --     0.0000                 0.0000                 0.0000
 Atom AN      X      Y      Z        X      Y      Z        X      Y      Z
   1   8    -0.00   0.00   0.00    -0.00  -0.00  -0.00    -0.00   0.00  -0.00
   2   6    -0.00  -0.00  -0.00     0.00   0.00   0.00     0.00   0.00   0.00
   3   1     0.00  -0.00  -0.00    -0.00  -0.00  -0.00    -0.00   0.00   0.00
   4   1     0.00  -0.00   0.00    -0.00  -0.00  -0.00    -0.00  -0.00  -0.00
   5   6    -0.00   0.00  -0.00     0.00  -0.00   0.00    -0.00   0.00   0.00
   6   1     0.00  -0.00   0.00     0.00   0.00   0.00     0.00  -0.00   0.00
   7   1    -0.00   0.00   0.00     0.00   0.00  -0.00     0.00  -0.00  -0.00
   8   7    -0.00  -0.00   0.00     0.00  -0.00   0.00    -0.00   0.00   0.00
   9   6    -0.00   0.00  -0.00    -0.00  -0.00  -0.00    -0.00  -0.00  -0.00
  10   1     0.00  -0.00   0.00     0.00   0.00  -0.00    -0.00   0.00   0.00
  11   1    -0.00  -0.00  -0.00     0.00   0.00   0.00    -0.00   0.00   0.00
  12   1     0.00   0.00  -0.00    -0.00  -0.00   0.00     0.00   0.00   0.00
  13   6    -0.00   0.00  -0.00    -0.00  -0.00   0.00    -0.00   0.00  -0.00
  14   1    -0.00  -0.00  -0.00    -0.00   0.00  -0.00     0.00  -0.00   0.00
  15   1     0.00  -0.00   0.00     0.00   0.00   0.00    -0.00  -0.00   0.00
  16   1    -0.00   0.00   0.00     0.00  -0.00  -0.00     0.00  -0.00  -0.00
  17   6     0.00   0.00  -0.00    -0.00   0.00  -0.00    -0.00   0.00   0.00
  18   1    -0.00  -0.00   0.00     0.00  -0.00   0.00     0.00   0.00   0.00
  19   1     0.00   0.00   0.00    -0.00   0.00   0.00    -0.00   0.00   0.00
  20   1     0.00   0.00  -0.00    -0.00  -0.00  -0.00     0.00  -0.00  -0.00
  21   1     0.00  -0.00   0.00     0.00   0.00  -0.00     0.00  -0.00   0.00
  22   6     0.00  -0.00   0.01     0.00  -0.00   0.00     0.00  -0.00   0.00
  23   8    -0.00   0.00  -0.00    -0.00   0.00  -0.00     0.00   0.00  -0.00
  24   7     0.00   0.01  -0.00    -0.00  -0.00   0.00     0.00  -0.00  -0.00
  25   1    -0.00  -0.01   0.00     0.00   0.00  -0.00     0.00   0.00   0.00
  26   1     0.01  -0.01  -0.00     0.00  -0.00  -0.00    -0.00   0.00   0.00
  27   7    -0.04  -0.14   0.11    -0.00   0.00  -0.00     0.00   0.00  -0.00
  28   1    -0.42   0.57  -0.11     0.01  -0.01   0.00     0.00  -0.00   0.00
  29   1     0.58  -0.03  -0.33     0.00  -0.00  -0.00    -0.00   0.00   0.00
  30   6     0.00  -0.00   0.00     0.00   0.00   0.00    -0.00  -0.00   0.00
  31   8    -0.00   0.00  -0.00     0.00  -0.00   0.00     0.00   0.00  -0.00
  32   7    -0.00   0.00  -0.00     0.17   0.07  -0.03    -0.00  -0.00   0.00
  33   1     0.00  -0.00   0.00    -0.58   0.36  -0.15     0.01  -0.01   0.00
  34   1     0.00  -0.00   0.00    -0.05  -0.63   0.26     0.00   0.01  -0.00
  35   7    -0.00  -0.01   0.01    -0.01  -0.01   0.01     0.00  -0.00   0.00
  36   1     0.00   0.04  -0.04     0.00   0.06  -0.05     0.00   0.01  -0.01
  37   1     0.01   0.00  -0.00     0.01   0.00  -0.01    -0.01  -0.00   0.00
  38   6    -0.00  -0.00  -0.00     0.00   0.00  -0.00     0.00  -0.00  -0.00
  39   8     0.00   0.00  -0.00    -0.00  -0.00   0.00    -0.00   0.00   0.00
  40   7     0.00   0.00   0.00     0.00   0.00   0.00     0.00   0.00   0.00
  41   1    -0.00  -0.00  -0.00    -0.00  -0.00  -0.00    -0.00  -0.00  -0.00
  42   1    -0.00   0.00   0.00    -0.00   0.00   0.00    -0.00   0.00   0.00
  43   7     0.00   0.00   0.00    -0.00  -0.00   0.00     0.00  -0.00  -0.00
  44   1     0.00  -0.00  -0.00     0.00  -0.00  -0.00    -0.01   0.00   0.01
  45   1    -0.00  -0.00  -0.00     0.00   0.00   0.00     0.01   0.00   0.00
  46   6     0.00  -0.00   0.00     0.00   0.00   0.00    -0.00   0.00   0.00
  47   8     0.00   0.00  -0.00    -0.00  -0.00   0.00    -0.00   0.00  -0.00
  48   7    -0.00   0.00  -0.00    -0.00   0.00   0.00    -0.10   0.04   0.15
  49   1     0.00  -0.00   0.00     0.01  -0.00   0.00     0.53  -0.35   0.13
  50   1    -0.00   0.00  -0.00    -0.00   0.00  -0.01    -0.15   0.20  -0.70
  51   7     0.00   0.00  -0.00    -0.00   0.00  -0.00     0.00   0.00  -0.01
  52   1    -0.00   0.00  -0.00     0.00  -0.00   0.00     0.01  -0.01   0.04
  53   1    -0.00  -0.00   0.00     0.00   0.00  -0.00    -0.01  -0.00   0.01
                    145                    146                    147
                        a                      a                      a 
 Frequencies --  3498.3944              3508.5532              3519.0399
 Red. masses --     1.4504                 1.9026                 2.1490
 Frc consts  --     0.0000                 0.0000                 0.0000
 IR Inten    --    25.5996                35.3260                 5.9180
 Raman Activ --     0.0000                 0.0000                 0.0000
 Depolar     --     0.0000                 0.0000                 0.0000
 Atom AN      X      Y      Z        X      Y      Z        X      Y      Z
   1   8     0.00  -0.00  -0.00     0.00  -0.00  -0.00     0.00  -0.00   0.00
   2   6     0.00  -0.00   0.00    -0.00  -0.00   0.00     0.00  -0.00   0.00
   3   1     0.00  -0.00  -0.00    -0.00   0.00  -0.00    -0.00  -0.00   0.00
   4   1     0.00   0.00  -0.00    -0.00  -0.00  -0.00    -0.00  -0.00  -0.00
   5   6     0.00  -0.00   0.00    -0.00   0.00   0.00     0.00  -0.00   0.00
   6   1    -0.00   0.00   0.00     0.00  -0.00   0.00     0.00   0.00  -0.00
   7   1     0.00  -0.00  -0.00     0.00  -0.00  -0.00    -0.00   0.00   0.00
   8   7    -0.00  -0.00  -0.00     0.00   0.00  -0.00     0.00   0.00  -0.00
   9   6     0.00  -0.00   0.00    -0.00  -0.00  -0.00     0.00  -0.00   0.00
  10   1    -0.00   0.00  -0.00    -0.00   0.00  -0.00     0.00   0.00  -0.00
  11   1     0.00  -0.00  -0.00     0.00  -0.00   0.00    -0.00   0.00  -0.00
  12   1    -0.00   0.00   0.00    -0.00  -0.00   0.00    -0.00  -0.00   0.00
  13   6    -0.00  -0.00   0.00    -0.00   0.00  -0.00     0.00  -0.00   0.00
  14   1    -0.00  -0.00  -0.00    -0.00   0.00  -0.00    -0.00  -0.00  -0.00
  15   1    -0.00   0.00  -0.00     0.00  -0.00   0.00    -0.00   0.00  -0.00
  16   1     0.00  -0.00  -0.00     0.00  -0.00  -0.00     0.00  -0.00   0.00
  17   6    -0.00   0.00   0.00    -0.00  -0.00  -0.00    -0.00   0.00   0.00
  18   1    -0.00   0.00   0.00     0.00  -0.00   0.00    -0.00  -0.00   0.00
  19   1    -0.00  -0.00  -0.00     0.00  -0.00   0.00    -0.00  -0.00  -0.00
  20   1     0.00  -0.00  -0.00     0.00  -0.00   0.00    -0.00   0.00   0.00
  21   1    -0.00   0.01   0.00    -0.00   0.00   0.00    -0.00   0.00  -0.00
  22   6    -0.00  -0.00   0.00    -0.00  -0.00   0.00     0.01  -0.00  -0.00
  23   8     0.00  -0.00  -0.00    -0.00   0.00  -0.00    -0.00   0.00  -0.00
  24   7     0.00   0.00  -0.00     0.00   0.00  -0.00    -0.02   0.03   0.00
  25   1    -0.01  -0.01   0.00    -0.00  -0.00   0.00    -0.01  -0.01   0.00
  26   1    -0.00   0.01   0.00     0.00  -0.00  -0.00     0.06  -0.11  -0.02
  27   7    -0.00   0.00   0.00    -0.01  -0.00   0.01     0.25  -0.14  -0.06
  28   1     0.00  -0.00   0.00    -0.02   0.02  -0.00    -0.36   0.52  -0.12
  29   1     0.00  -0.00  -0.00     0.05  -0.00  -0.03    -0.59   0.01   0.36
  30   6    -0.00   0.00   0.00     0.00   0.01  -0.01     0.00   0.00  -0.00
  31   8     0.00   0.00  -0.00    -0.00  -0.00   0.00    -0.00  -0.00   0.00
  32   7     0.00   0.00  -0.00     0.02  -0.01   0.00     0.00  -0.00   0.00
  33   1    -0.00   0.00  -0.00    -0.08   0.05  -0.02    -0.01   0.01  -0.00
  34   1    -0.00  -0.00   0.00     0.00  -0.01   0.01     0.00   0.00  -0.00
  35   7     0.00  -0.00   0.00     0.03   0.20  -0.17     0.00   0.00  -0.00
  36   1     0.00   0.00  -0.00    -0.03  -0.73   0.62     0.00  -0.01   0.01
  37   1    -0.00  -0.00   0.00    -0.09  -0.01   0.02    -0.00  -0.00   0.00
  38   6    -0.00  -0.00  -0.00     0.00   0.00   0.00     0.00  -0.00  -0.00
  39   8     0.00  -0.00  -0.00     0.00   0.00  -0.00    -0.00   0.00   0.00
  40   7    -0.16  -0.08  -0.05    -0.00   0.00   0.00    -0.00  -0.00   0.00
  41   1     0.04   0.42   0.56    -0.00  -0.00  -0.00     0.00   0.00   0.00
  42   1     0.56  -0.13  -0.38     0.00  -0.00  -0.00     0.00  -0.00  -0.00
  43   7     0.02   0.00  -0.01     0.00  -0.00  -0.00     0.00   0.00  -0.00
  44   1    -0.04   0.00   0.03    -0.01   0.00   0.01    -0.00   0.00   0.00
  45   1    -0.01  -0.01  -0.01     0.00   0.00   0.00    -0.00  -0.00  -0.00
  46   6    -0.00   0.00  -0.00    -0.00   0.00  -0.00     0.00  -0.00  -0.00
  47   8     0.00   0.00   0.00    -0.00  -0.00   0.00    -0.00   0.00   0.00
  48   7    -0.00   0.00   0.00    -0.00  -0.00   0.00    -0.00   0.00  -0.00
  49   1     0.00  -0.00   0.00     0.00  -0.00   0.00     0.00  -0.00   0.00
  50   1    -0.00   0.00  -0.00    -0.00   0.00  -0.01     0.00  -0.00   0.00
  51   7     0.00   0.00  -0.00     0.00   0.00  -0.00    -0.00   0.00  -0.00
  52   1     0.00  -0.00   0.00     0.00  -0.00   0.01     0.00  -0.00   0.00
  53   1    -0.00  -0.00   0.00    -0.00  -0.00   0.00     0.00   0.00  -0.00
                    148                    149                    150
                        a                      a                      a 
 Frequencies --  3521.9506              3531.0206              3539.0842
 Red. masses --     1.8996                 1.8853                 1.9142
 Frc consts  --     0.0000                 0.0000                 0.0000
 IR Inten    --     8.7709                13.2285                12.2693
 Raman Activ --     0.0000                 0.0000                 0.0000
 Depolar     --     0.0000                 0.0000                 0.0000
 Atom AN      X      Y      Z        X      Y      Z        X      Y      Z
   1   8     0.00  -0.00   0.00     0.00   0.00   0.00    -0.00   0.00   0.00
   2   6    -0.00   0.00  -0.00    -0.00   0.00   0.00     0.00   0.00  -0.00
   3   1     0.00  -0.00  -0.00     0.00  -0.00  -0.00    -0.00  -0.00   0.00
   4   1     0.00   0.00   0.00    -0.00   0.00  -0.00     0.00  -0.00   0.00
   5   6    -0.00   0.00  -0.00     0.00   0.00   0.00     0.00  -0.00  -0.00
   6   1    -0.00  -0.00   0.00    -0.00  -0.00   0.00    -0.00   0.00   0.00
   7   1     0.00  -0.00  -0.00     0.00  -0.00  -0.00    -0.00  -0.00   0.00
   8   7     0.00  -0.00   0.00     0.00  -0.00  -0.00    -0.00   0.00  -0.00
   9   6    -0.00  -0.00   0.00     0.00   0.00   0.00    -0.00  -0.00   0.00
  10   1    -0.00  -0.00   0.00     0.00  -0.00   0.00    -0.00   0.00  -0.00
  11   1     0.00  -0.00  -0.00    -0.00   0.00  -0.00     0.00  -0.00   0.00
  12   1     0.00   0.00  -0.00     0.00   0.00  -0.00     0.00  -0.00  -0.00
  13   6    -0.00   0.00   0.00     0.00   0.00   0.00     0.00  -0.00   0.00
  14   1    -0.00  -0.00  -0.00    -0.00  -0.00  -0.00    -0.00  -0.00  -0.00
  15   1    -0.00  -0.00  -0.00    -0.00  -0.00   0.00    -0.00   0.00  -0.00
  16   1     0.00  -0.00  -0.00     0.00  -0.00  -0.00    -0.00  -0.00   0.00
  17   6    -0.00  -0.00  -0.00     0.00   0.00  -0.00    -0.00   0.00  -0.00
  18   1     0.00   0.00  -0.00    -0.00  -0.00  -0.00    -0.00  -0.00   0.00
  19   1     0.00   0.00   0.00     0.00  -0.00  -0.00     0.00  -0.00   0.00
  20   1    -0.00  -0.00  -0.00     0.00  -0.00  -0.00     0.00  -0.00  -0.00
  21   1    -0.00   0.00  -0.00     0.00  -0.00   0.00     0.00  -0.01  -0.00
  22   6    -0.00  -0.00   0.00    -0.00   0.00   0.00     0.00  -0.01   0.00
  23   8     0.00   0.00   0.00     0.00  -0.00   0.00    -0.00   0.00   0.00
  24   7     0.00  -0.00  -0.00     0.00  -0.00  -0.00     0.11  -0.24  -0.03
  25   1    -0.00   0.00   0.00     0.00   0.00  -0.00     0.06   0.07  -0.03
  26   1    -0.01   0.01   0.00    -0.00   0.00   0.00    -0.45   0.82   0.14
  27   7    -0.00   0.00   0.00    -0.00   0.00   0.00     0.03  -0.02  -0.01
  28   1     0.00  -0.00   0.00     0.00  -0.00   0.00    -0.05   0.08  -0.02
  29   1     0.00  -0.00  -0.00     0.00   0.00  -0.00    -0.07   0.00   0.04
  30   6     0.00  -0.00  -0.00    -0.00   0.00  -0.00     0.00  -0.00  -0.00
  31   8    -0.00   0.00   0.00    -0.00  -0.00   0.00    -0.00   0.00   0.00
  32   7    -0.00   0.00  -0.00     0.00  -0.00   0.00     0.00  -0.00   0.00
  33   1     0.00  -0.00   0.00    -0.00   0.00  -0.00    -0.00   0.00  -0.00
  34   1    -0.00  -0.00   0.00     0.00   0.01  -0.00     0.00  -0.00   0.00
  35   7    -0.00  -0.00   0.00     0.00  -0.00   0.00    -0.00   0.00  -0.00
  36   1     0.00   0.01  -0.01     0.00   0.01  -0.01     0.00  -0.00   0.00
  37   1     0.01   0.00  -0.00     0.00  -0.00   0.00    -0.00  -0.00   0.00
  38   6     0.01   0.00  -0.00     0.00   0.00  -0.00    -0.00   0.00   0.00
  39   8    -0.00  -0.00   0.00    -0.00  -0.00   0.00     0.00   0.00  -0.00
  40   7     0.00   0.01   0.02     0.00   0.00   0.00     0.00  -0.00  -0.00
  41   1    -0.01  -0.05  -0.06    -0.00  -0.00  -0.00     0.00   0.00   0.00
  42   1     0.00  -0.00  -0.00    -0.00   0.00   0.00    -0.01   0.00   0.01
  43   7     0.22  -0.01  -0.15     0.00  -0.00  -0.00    -0.00  -0.00   0.00
  44   1    -0.75   0.07   0.59    -0.01   0.00   0.00     0.01  -0.00  -0.01
  45   1    -0.07  -0.03  -0.04    -0.00  -0.00  -0.00     0.00   0.00   0.00
  46   6     0.00  -0.00   0.00     0.00   0.00  -0.01     0.00   0.00   0.00
  47   8    -0.00   0.00  -0.00    -0.00  -0.00   0.00    -0.00  -0.00  -0.00
  48   7    -0.00   0.00  -0.01     0.02  -0.02   0.01    -0.00   0.00  -0.00
  49   1     0.00  -0.00   0.00    -0.08   0.06  -0.02     0.00  -0.00   0.00
  50   1     0.00  -0.00   0.02    -0.00   0.01  -0.03     0.00  -0.00   0.00
  51   7    -0.00  -0.00   0.00    -0.03   0.08  -0.24    -0.00  -0.00   0.00
  52   1    -0.00   0.00  -0.01     0.15  -0.31   0.89    -0.00   0.00  -0.00
  53   1     0.00  -0.00  -0.00    -0.06   0.00   0.02     0.00  -0.00  -0.00
                    151                    152                    153
                        a                      a                      a 
 Frequencies --  3553.5035              3556.1048              3563.6002
 Red. masses --     2.1735                 2.1668                 2.1853
 Frc consts  --     0.0000                 0.0000                 0.0000
 IR Inten    --    10.3953                12.9657                15.7295
 Raman Activ --     0.0000                 0.0000                 0.0000
 Depolar     --     0.0000                 0.0000                 0.0000
 Atom AN      X      Y      Z        X      Y      Z        X      Y      Z
   1   8     0.00  -0.00   0.00    -0.00  -0.00  -0.00    -0.00   0.00   0.00
   2   6    -0.00  -0.00   0.00     0.00   0.00   0.00    -0.00  -0.00  -0.00
   3   1     0.00  -0.00  -0.00     0.00  -0.00  -0.00    -0.00   0.00   0.00
   4   1     0.00   0.00   0.00    -0.00   0.00  -0.00    -0.00  -0.00   0.00
   5   6     0.00  -0.00  -0.00    -0.00   0.00   0.00    -0.00  -0.00  -0.00
   6   1    -0.00   0.00  -0.00    -0.00   0.00   0.00     0.00   0.00  -0.00
   7   1     0.00  -0.00   0.00     0.00  -0.00  -0.00    -0.00   0.00   0.00
   8   7     0.00  -0.00   0.00     0.00  -0.00   0.00     0.00   0.00   0.00
   9   6     0.00  -0.00   0.00     0.00  -0.00   0.00     0.00  -0.00  -0.00
  10   1    -0.00   0.00  -0.00    -0.00  -0.00   0.00     0.00   0.00  -0.00
  11   1    -0.00  -0.00  -0.00    -0.00  -0.00  -0.00    -0.00   0.00  -0.00
  12   1     0.00   0.00   0.00     0.00   0.00  -0.00     0.00  -0.00   0.00
  13   6     0.00  -0.00   0.00     0.00  -0.00   0.00     0.00  -0.00  -0.00
  14   1     0.00  -0.00   0.00    -0.00  -0.00  -0.00     0.00   0.00   0.00
  15   1    -0.00   0.00  -0.00    -0.00   0.00  -0.00     0.00   0.00  -0.00
  16   1     0.00   0.00   0.00     0.00  -0.00   0.00    -0.00   0.00   0.00
  17   6    -0.00  -0.00  -0.00     0.00   0.00  -0.00     0.00  -0.00  -0.00
  18   1     0.00   0.00   0.00    -0.00  -0.00  -0.00    -0.00  -0.00   0.00
  19   1     0.00  -0.00   0.00     0.00  -0.00  -0.00     0.00   0.00   0.00
  20   1     0.00   0.00   0.00     0.00  -0.00   0.00    -0.00   0.00   0.00
  21   1    -0.00   0.00  -0.00     0.00   0.00   0.00     0.00  -0.01  -0.00
  22   6     0.00  -0.00   0.00    -0.00   0.00   0.00     0.00  -0.00  -0.00
  23   8    -0.00   0.00  -0.00     0.00  -0.00  -0.00    -0.00   0.00   0.00
  24   7     0.00  -0.00  -0.00    -0.00   0.00   0.00    -0.00  -0.00   0.00
  25   1    -0.00  -0.00   0.00    -0.00  -0.00   0.00     0.00   0.01  -0.00
  26   1    -0.00   0.00   0.00     0.00  -0.00  -0.00    -0.00   0.01   0.00
  27   7     0.00  -0.00  -0.00    -0.00   0.00   0.00     0.00  -0.00  -0.00
  28   1    -0.00   0.00  -0.00     0.00  -0.00   0.00    -0.00   0.00  -0.00
  29   1    -0.01  -0.00   0.00     0.00  -0.00  -0.00    -0.00  -0.00   0.00
  30   6    -0.01   0.01  -0.00    -0.00   0.00  -0.00     0.00   0.00  -0.00
  31   8     0.00  -0.00   0.00    -0.00  -0.00   0.00    -0.00  -0.00  -0.00
  32   7    -0.13   0.25  -0.10    -0.00   0.01  -0.00    -0.00   0.00  -0.00
  33   1     0.57  -0.32   0.14     0.02  -0.01   0.00     0.00  -0.00   0.00
  34   1    -0.08  -0.63   0.26    -0.00  -0.02   0.01    -0.00  -0.00   0.00
  35   7     0.00   0.01  -0.01     0.00   0.00  -0.00     0.00   0.00  -0.00
  36   1    -0.00  -0.04   0.04     0.00  -0.00   0.00     0.00  -0.00   0.00
  37   1    -0.01  -0.00   0.00    -0.01  -0.00   0.00    -0.00  -0.00   0.00
  38   6    -0.00   0.00   0.00    -0.00  -0.00  -0.00    -0.00   0.01   0.01
  39   8     0.00  -0.00  -0.00    -0.00   0.00   0.00     0.00  -0.00  -0.00
  40   7     0.00   0.00  -0.00     0.00  -0.00  -0.00    -0.13   0.14   0.23
  41   1    -0.00  -0.00  -0.00     0.00   0.01   0.01    -0.06  -0.40  -0.52
  42   1    -0.00   0.00   0.00    -0.01   0.00   0.01     0.57  -0.12  -0.36
  43   7     0.00  -0.00  -0.00    -0.00   0.00   0.00    -0.01  -0.00   0.01
  44   1    -0.00   0.00   0.00     0.01  -0.00  -0.01     0.05  -0.01  -0.04
  45   1     0.00   0.00   0.00     0.01   0.00   0.00     0.01   0.00   0.00
  46   6     0.00  -0.00  -0.00    -0.01   0.01  -0.01    -0.00   0.00  -0.00
  47   8    -0.00  -0.00   0.00     0.00  -0.00   0.00     0.00  -0.00   0.00
  48   7     0.01  -0.01   0.01    -0.18   0.14  -0.19    -0.00   0.00  -0.00
  49   1    -0.02   0.01  -0.00     0.59  -0.39   0.11     0.01  -0.01   0.00
  50   1    -0.00   0.01  -0.02     0.11  -0.15   0.60     0.00  -0.00   0.01
  51   7     0.00   0.00  -0.00    -0.00   0.01  -0.02     0.00   0.00  -0.00
  52   1     0.00  -0.00   0.00     0.02  -0.03   0.09     0.00  -0.00   0.00
  53   1    -0.01  -0.00   0.00    -0.01   0.00   0.00    -0.00   0.00   0.00
