      -----------------------------------------------------------      
     |                   =====================                   |     
     |                           x T B                           |     
     |                   =====================                   |     
     |                         S. Grimme                         |     
     |          Mulliken Center for Theoretical Chemistry        |     
     |                    University of Bonn                     |     
      -----------------------------------------------------------      

   * xtb version 6.6.1 (unknown-commit) compiled by '@Linux' on 12/27/2023

   xtb is free software: you can redistribute it and/or modify it under
   the terms of the GNU Lesser General Public License as published by
   the Free Software Foundation, either version 3 of the License, or
   (at your option) any later version.
   
   xtb is distributed in the hope that it will be useful,
   but WITHOUT ANY WARRANTY; without even the implied warranty of
   MERCHANTABILITY or FITNESS FOR A PARTICULAR PURPOSE.  See the
   GNU Lesser General Public License for more details.
   
   Cite this work as:
   * C. Bannwarth, E. Caldeweyher, S. Ehlert, A. Hansen, P. Pracht,
     J. Seibert, S. Spicher, S. Grimme, WIREs Comput. Mol. Sci., 2020, 11,
     e01493. DOI: 10.1002/wcms.1493
   
   for GFN2-xTB:
   * C. Bannwarth, S. Ehlert and S. Grimme., J. Chem. Theory Comput., 2019,
     15, 1652-1671. DOI: 10.1021/acs.jctc.8b01176
   for GFN1-xTB:
   * S. Grimme, C. Bannwarth, P. Shushkov, J. Chem. Theory Comput., 2017,
     13, 1989-2009. DOI: 10.1021/acs.jctc.7b00118
   for GFN0-xTB:
   * P. Pracht, E. Caldeweyher, S. Ehlert, S. Grimme, ChemRxiv, 2019, preprint.
     DOI: 10.26434/chemrxiv.8326202.v1
   for GFN-FF:
   * S. Spicher and S. Grimme, Angew. Chem. Int. Ed., 2020, 59, 15665-15673.
     DOI: 10.1002/anie.202004239
   
   for ALPB and GBSA implicit solvation:
   * S. Ehlert, M. Stahn, S. Spicher, S. Grimme, J. Chem. Theory Comput.,
     2021, 17, 4250-4261. DOI: 10.1021/acs.jctc.1c00471
   
   for DFT-D4:
   * E. Caldeweyher, C. Bannwarth and S. Grimme, J. Chem. Phys., 2017,
     147, 034112. DOI: 10.1063/1.4993215
   * E. Caldeweyher, S. Ehlert, A. Hansen, H. Neugebauer, S. Spicher,
     C. Bannwarth and S. Grimme, J. Chem. Phys., 2019, 150, 154122.
     DOI: 10.1063/1.5090222
   * E. Caldeweyher, J.-M. Mewes, S. Ehlert and S. Grimme, Phys. Chem. Chem. Phys.
     2020, 22, 8499-8512. DOI: 10.1039/D0CP00502A
   
   for sTDA-xTB:
   * S. Grimme and C. Bannwarth, J. Chem. Phys., 2016, 145, 054103.
     DOI: 10.1063/1.4959605
   
   in the mass-spec context:
   * V. Asgeirsson, C. Bauer and S. Grimme, Chem. Sci., 2017, 8, 4879.
     DOI: 10.1039/c7sc00601b
   * J. Koopman and S. Grimme, ACS Omega 2019, 4, 12, 15120-15133.
     DOI: 10.1021/acsomega.9b02011
   
   for metadynamics refer to:
   * S. Grimme, J. Chem. Theory Comput., 2019, 155, 2847-2862
     DOI: 10.1021/acs.jctc.9b00143
   
   for SPH calculations refer to:
   * S. Spicher and S. Grimme, J. Chem. Theory Comput., 2021, 17, 1701-1714
     DOI: 10.1021/acs.jctc.0c01306
   
   with help from (in alphabetical order)
   P. Atkinson, C. Bannwarth, F. Bohle, G. Brandenburg, E. Caldeweyher
   M. Checinski, S. Dohm, S. Ehlert, S. Ehrlich, I. Gerasimov, C. Hölzer
   A. Katbashev, J. Koopman, C. Lavigne, S. Lehtola, F. März, M. Müller,
   F. Musil, H. Neugebauer, J. Pisarek, C. Plett, P. Pracht, F. Pultar,
   J. Seibert, P. Shushkov, S. Spicher, M. Stahn, M. Steiner, T. Strunk,
   J. Stückrath, T. Rose, and J. Unsleber
   
 * started run on 2024/01/10 at 18:33:12.343     

           -------------------------------------------------
          |                Calculation Setup                |
           -------------------------------------------------

          program call               : xtb struc.xyz --gfn2 --hess
          hostname                   : swaroop
          coordinate file            : struc.xyz
          omp threads                :                     1

   ID    Z sym.   atoms
    1    8 O      1, 23, 31, 39, 47
    2    6 C      2, 5, 9, 13, 17, 22, 30, 38, 46
    3    1 H      3, 4, 6, 7, 10-12, 14-16, 18-21, 25, 26, 28, 29, 33, 34,
                  36, 37, 41, 42, 44, 45, 49, 50, 52, 53
    4    7 N      8, 24, 27, 32, 35, 40, 43, 48, 51

molecular fragmentation (1/2 indicates fragments):
11111111111111111111122222222222222222222222222222222
# atoms in fragment 1/2:    21    32
 fragment masses (1/2) :      104.17      240.22
CMA distance (Bohr)    :   7.337
constraining FC (au)   :  0.0500

           -------------------------------------------------
          |                 G F N 2 - x T B                 |
           -------------------------------------------------

        Reference                      10.1021/acs.jctc.8b01176
      * Hamiltonian:
        H0-scaling (s, p, d)           1.850000    2.230000    2.230000
        zeta-weighting                 0.500000
      * Dispersion:
        s8                             2.700000
        a1                             0.520000
        a2                             5.000000
        s9                             5.000000
      * Repulsion:
        kExp                           1.500000    1.000000
        rExp                           1.000000
      * Coulomb:
        alpha                          2.000000
        third order                    shell-resolved
        anisotropic                    true
        a3                             3.000000
        a5                             4.000000
        cn-shift                       1.200000
        cn-exp                         4.000000
        max-rad                        5.000000


          ...................................................
          :                      SETUP                      :
          :.................................................:
          :  # basis functions                 122          :
          :  # atomic orbitals                 122          :
          :  # shells                           76          :
          :  # electrons                       140          :
          :  max. iterations                   250          :
          :  Hamiltonian                  GFN2-xTB          :
          :  restarted?                      false          :
          :  GBSA solvation                  false          :
          :  PC potential                    false          :
          :  electronic temp.          300.0000000     K    :
          :  accuracy                    1.0000000          :
          :  -> integral cutoff          0.2500000E+02      :
          :  -> integral neglect         0.1000000E-07      :
          :  -> SCF convergence          0.1000000E-05 Eh   :
          :  -> wf. convergence          0.1000000E-03 e    :
          :  Broyden damping             0.4000000          :
          ...................................................

 iter      E             dE          RMSdq      gap      omega  full diag
   1    -81.5401809 -0.815402E+02  0.432E+00    4.86       0.0  T
   2    -81.8323348 -0.292154E+00  0.234E+00    5.90       1.0  T
   3    -81.8378918 -0.555701E-02  0.115E+00    5.68       1.0  T
   4    -81.8392256 -0.133377E-02  0.233E-01    5.78       1.0  T
   5    -81.8400881 -0.862530E-03  0.908E-02    5.70       1.0  T
   6    -81.8401107 -0.225727E-04  0.250E-02    5.70       1.0  T
   7    -81.8401160 -0.533140E-05  0.724E-03    5.70       1.9  T
   8    -81.8401162 -0.198238E-06  0.317E-03    5.70       4.3  T
   9    -81.8401163 -0.626218E-07  0.919E-04    5.70      15.0  T
  10    -81.8401163 -0.542155E-08  0.214E-04    5.70      64.3  T

   *** convergence criteria satisfied after 10 iterations ***

         #    Occupation            Energy/Eh            Energy/eV
      -------------------------------------------------------------
         1        2.0000           -0.7982397             -21.7212
       ...           ...                  ...                  ...
        64        2.0000           -0.4980982             -13.5539
        65        2.0000           -0.4951160             -13.4728
        66        2.0000           -0.4906371             -13.3509
        67        2.0000           -0.4854540             -13.2099
        68        2.0000           -0.4836124             -13.1598
        69        2.0000           -0.4818187             -13.1110
        70        2.0000           -0.4795582             -13.0494 (HOMO)
        71                         -0.2701733              -7.3518 (LUMO)
        72                         -0.2673657              -7.2754
        73                         -0.2653998              -7.2219
        74                         -0.2537897              -6.9060
        75                         -0.1567035              -4.2641
       ...                                ...                  ...
       122                          0.5648959              15.3716
      -------------------------------------------------------------
                  HL-Gap            0.2093849 Eh            5.6977 eV
             Fermi-level           -0.3748658 Eh          -10.2006 eV

 SCC (total)                   0 d,  0 h,  0 min,  0.095 sec
 SCC setup                      ...        0 min,  0.000 sec (  0.300%)
 Dispersion                     ...        0 min,  0.001 sec (  0.625%)
 classical contributions        ...        0 min,  0.000 sec (  0.191%)
 integral evaluation            ...        0 min,  0.008 sec (  8.029%)
 iterations                     ...        0 min,  0.060 sec ( 62.760%)
 molecular gradient             ...        0 min,  0.026 sec ( 27.822%)
 printout                       ...        0 min,  0.000 sec (  0.260%)

         :::::::::::::::::::::::::::::::::::::::::::::::::::::
         ::                     SUMMARY                     ::
         :::::::::::::::::::::::::::::::::::::::::::::::::::::
         :: total energy             -80.932068032390 Eh    ::
         :: gradient norm              0.000164705584 Eh/a0 ::
         :: HOMO-LUMO gap              5.697652346181 eV    ::
         ::.................................................::
         :: SCC energy               -81.840116311422 Eh    ::
         :: -> isotropic ES            0.293184385627 Eh    ::
         :: -> anisotropic ES         -0.031937483361 Eh    ::
         :: -> anisotropic XC          0.021439731798 Eh    ::
         :: -> dispersion             -0.042034893143 Eh    ::
         :: repulsion energy           0.907311577595 Eh    ::
         :: add. restraining           0.000000000000 Eh    ::
         :: total charge               1.000000000000 e     ::
         :::::::::::::::::::::::::::::::::::::::::::::::::::::

           ------------------------------------------------- 
          |                Numerical Hessian                |
           ------------------------------------------------- 
step length          :   0.00500
SCC accuracy         :   0.30000
Hessian scale factor :   1.00000
frozen atoms in %    :   0.00000    0
RMS gradient         :   0.00017
estimated CPU  time      0.23 min
estimated wall time      0.23 min

writing file <hessian>.

 projected vibrational frequencies (cm⁻¹)
eigval :       -0.00    -0.00    -0.00     0.00     0.00     0.00
eigval :       12.11    15.91    21.75    31.22    42.61    43.78
eigval :       46.70    56.84    58.31    61.14    66.49    71.70
eigval :       80.08    88.13    93.71   110.73   114.65   117.64
eigval :      121.83   130.02   133.15   143.32   171.10   175.94
eigval :      182.47   216.26   221.63   271.82   274.78   280.24
eigval :      290.48   317.38   346.12   352.84   363.43   369.10
eigval :      379.15   387.60   401.85   432.06   464.00   467.92
eigval :      470.18   472.61   474.01   480.97   481.69   486.53
eigval :      490.95   534.04   543.39   545.50   553.11   558.53
eigval :      574.68   589.48   634.73   647.41   661.67   670.31
eigval :      675.78   683.16   729.08   759.35   806.79   820.39
eigval :      849.31   958.06   959.62   961.90   971.46   992.58
eigval :     1004.05  1005.44  1009.59  1011.23  1014.12  1024.19
eigval :     1034.89  1045.79  1060.57  1083.00  1084.73  1085.94
eigval :     1092.54  1108.73  1115.29  1129.57  1176.04  1235.72
eigval :     1251.69  1272.09  1312.79  1319.69  1354.34  1356.51
eigval :     1357.37  1365.45  1375.07  1402.04  1405.73  1407.62
eigval :     1417.52  1437.08  1447.56  1453.95  1455.00  1457.42
eigval :     1458.05  1462.39  1469.66  1474.59  1478.28  1481.88
eigval :     1484.06  1498.91  1502.51  1506.30  1516.67  1675.92
eigval :     1701.46  1712.02  1731.54  2896.33  2964.52  2970.02
eigval :     2986.82  3015.09  3018.78  3035.71  3041.42  3041.96
eigval :     3042.49  3048.12  3052.61  3057.23  3061.82  3313.02
eigval :     3340.25  3342.40  3358.39  3379.73  3446.51  3494.46
eigval :     3494.69  3497.54  3499.24  3535.14  3537.96  3539.22
eigval :     3557.96  3562.33  3562.93
           -------------------------------------------------
          |                Property Printout                |
           -------------------------------------------------

    * Orbital Energies and Occupations

         #    Occupation            Energy/Eh            Energy/eV
      -------------------------------------------------------------
         1        2.0000           -0.7982396             -21.7212
       ...           ...                  ...                  ...
        58        2.0000           -0.5070089             -13.7964
        59        2.0000           -0.5068645             -13.7925
        60        2.0000           -0.5050321             -13.7426
        61        2.0000           -0.5031527             -13.6915
        62        2.0000           -0.5018071             -13.6549
        63        2.0000           -0.4991402             -13.5823
        64        2.0000           -0.4980973             -13.5539
        65        2.0000           -0.4951169             -13.4728
        66        2.0000           -0.4906397             -13.3510
        67        2.0000           -0.4854564             -13.2099
        68        2.0000           -0.4836139             -13.1598
        69        2.0000           -0.4818202             -13.1110
        70        2.0000           -0.4795606             -13.0495 (HOMO)
        71                         -0.2701750              -7.3518 (LUMO)
        72                         -0.2673639              -7.2753
        73                         -0.2654035              -7.2220
        74                         -0.2537921              -6.9060
        75                         -0.1567037              -4.2641
        76                         -0.1069535              -2.9104
        77                         -0.0958705              -2.6088
        78                         -0.0878631              -2.3909
        79                         -0.0827190              -2.2509
        80                         -0.0762198              -2.0740
        81                         -0.0656663              -1.7869
       ...                                ...                  ...
       122                          0.5648942              15.3716
      -------------------------------------------------------------
                  HL-Gap            0.2093857 Eh            5.6977 eV
             Fermi-level           -0.3748678 Eh          -10.2007 eV

     #   Z          covCN         q      C6AA      α(0)
     1   8 O        1.652    -0.479    22.442     6.395
     2   6 C        3.673     0.076    19.538     6.335
     3   1 H        0.924     0.032     2.562     2.503
     4   1 H        0.924     0.052     2.298     2.370
     5   6 C        3.772    -0.081    22.084     6.696
     6   1 H        0.924     0.115     1.656     2.012
     7   1 H        0.924     0.129     1.545     1.944
     8   7 N        3.624     0.154    18.645     6.413
     9   6 C        3.740    -0.112    22.730     6.802
    10   1 H        0.925     0.084     1.942     2.179
    11   1 H        0.925     0.125     1.574     1.962
    12   1 H        0.925     0.111     1.691     2.033
    13   6 C        3.721    -0.108    22.675     6.801
    14   1 H        0.924     0.133     1.513     1.923
    15   1 H        0.925     0.081     1.967     2.193
    16   1 H        0.925     0.085     1.930     2.172
    17   6 C        3.721    -0.106    22.648     6.797
    18   1 H        0.925     0.082     1.962     2.190
    19   1 H        0.925     0.131     1.530     1.935
    20   1 H        0.925     0.085     1.932     2.174
    21   1 H        0.801     0.338     0.618     1.235
    22   6 C        2.675     0.343    21.172     7.529
    23   8 O        0.861    -0.521    24.255     6.603
    24   7 N        2.645    -0.288    27.421     7.777
    25   1 H        0.860     0.242     0.914     1.498
    26   1 H        0.861     0.183     1.194     1.712
    27   7 N        2.646    -0.290    27.484     7.786
    28   1 H        0.861     0.186     1.181     1.702
    29   1 H        0.860     0.209     1.063     1.615
    30   6 C        2.675     0.344    21.154     7.526
    31   8 O        0.860    -0.528    24.420     6.626
    32   7 N        2.644    -0.304    27.840     7.836
    33   1 H        0.860     0.227     0.978     1.549
    34   1 H        0.861     0.176     1.237     1.742
    35   7 N        2.645    -0.293    27.551     7.796
    36   1 H        0.861     0.181     1.209     1.723
    37   1 H        0.860     0.198     1.114     1.653
    38   6 C        2.675     0.344    21.154     7.526
    39   8 O        0.860    -0.516    24.132     6.586
    40   7 N        2.645    -0.289    27.466     7.783
    41   1 H        0.860     0.201     1.098     1.642
    42   1 H        0.860     0.186     1.181     1.702
    43   7 N        2.645    -0.297    27.643     7.809
    44   1 H        0.861     0.184     1.194     1.712
    45   1 H        0.860     0.214     1.036     1.594
    46   6 C        2.675     0.343    21.179     7.531
    47   8 O        0.859    -0.531    24.485     6.634
    48   7 N        2.643    -0.328    28.449     7.922
    49   1 H        0.860     0.187     1.174     1.697
    50   1 H        0.860     0.184     1.191     1.709
    51   7 N        2.643    -0.320    28.233     7.891
    52   1 H        0.860     0.218     1.019     1.581
    53   1 H        0.860     0.231     0.961     1.536

 Mol. C6AA /au·bohr⁶  :      21800.871897
 Mol. C8AA /au·bohr⁸  :     454431.184451
 Mol. α(0) /au        :        220.596930


Wiberg/Mayer (AO) data.
largest (>0.10) Wiberg bond orders for each atom

 ---------------------------------------------------------------------------
     #   Z sym  total        # sym  WBO       # sym  WBO       # sym  WBO
 ---------------------------------------------------------------------------
     1   8 O    1.960 --     2 C    1.014    21 H    0.796
     2   6 C    3.966 --     1 O    1.014     5 C    0.992     3 H    0.970
                             4 H    0.969
     3   1 H    0.999 --     2 C    0.970
     4   1 H    0.997 --     2 C    0.969
     5   6 C    3.911 --     2 C    0.992     6 H    0.953     7 H    0.939
                             8 N    0.931
     6   1 H    0.987 --     5 C    0.953
     7   1 H    0.983 --     5 C    0.939
     8   7 N    3.820 --    17 C    0.961    13 C    0.960     9 C    0.953
                             5 C    0.931
     9   6 C    3.918 --    10 H    0.977    12 H    0.972    11 H    0.960
                             8 N    0.953
    10   1 H    0.993 --     9 C    0.977
    11   1 H    0.984 --     9 C    0.960
    12   1 H    0.988 --     9 C    0.972
    13   6 C    3.927 --    16 H    0.977    15 H    0.976     8 N    0.960
                            14 H    0.956
    14   1 H    0.982 --    13 C    0.956
    15   1 H    0.993 --    13 C    0.976
    16   1 H    0.993 --    13 C    0.977
    17   6 C    3.929 --    20 H    0.978    18 H    0.977     8 N    0.961
                            19 H    0.960
    18   1 H    0.993 --    17 C    0.977
    19   1 H    0.983 --    17 C    0.960
    20   1 H    0.993 --    17 C    0.978
    21   1 H    0.886 --     1 O    0.796
    22   6 C    3.960 --    23 O    1.474    24 N    1.263    27 N    1.216
    23   8 O    1.940 --    22 C    1.474    24 N    0.139    27 N    0.131
    24   7 N    3.357 --    22 C    1.263    26 H    0.947    25 H    0.892
                            23 O    0.139
    25   1 H    0.941 --    24 N    0.892
    26   1 H    0.966 --    24 N    0.947
    27   7 N    3.328 --    22 C    1.216    28 H    0.947    29 H    0.937
                            23 O    0.131
    28   1 H    0.965 --    27 N    0.947
    29   1 H    0.956 --    27 N    0.937
    30   6 C    3.959 --    31 O    1.525    32 N    1.229    35 N    1.199
    31   8 O    1.893 --    30 C    1.525    32 N    0.147    35 N    0.137
    32   7 N    3.329 --    30 C    1.229    34 H    0.950    33 H    0.899
                            31 O    0.147
    33   1 H    0.948 --    32 N    0.899
    34   1 H    0.969 --    32 N    0.950
    35   7 N    3.314 --    30 C    1.199    36 H    0.948    37 H    0.944
                            31 O    0.137
    36   1 H    0.967 --    35 N    0.948
    37   1 H    0.961 --    35 N    0.944
    38   6 C    3.959 --    39 O    1.515    43 N    1.229    40 N    1.206
    39   8 O    1.922 --    38 C    1.515    43 N    0.144    40 N    0.136
    40   7 N    3.318 --    38 C    1.206    42 H    0.946    41 H    0.942
                            39 O    0.136
    41   1 H    0.959 --    40 N    0.942
    42   1 H    0.965 --    40 N    0.946
    43   7 N    3.335 --    38 C    1.229    44 H    0.947    45 H    0.910
                            39 O    0.144
    44   1 H    0.966 --    43 N    0.947
    45   1 H    0.954 --    43 N    0.910
    46   6 C    3.958 --    47 O    1.541    51 N    1.281    48 N    1.121
    47   8 O    1.897 --    46 C    1.541    51 N    0.160    48 N    0.118
    48   7 N    3.246 --    46 C    1.121    49 H    0.947    50 H    0.944
                            47 O    0.118
    49   1 H    0.965 --    48 N    0.947
    50   1 H    0.966 --    48 N    0.944
    51   7 N    3.346 --    46 C    1.281    52 H    0.897    53 H    0.885
                            47 O    0.160
    52   1 H    0.952 --    51 N    0.897
    53   1 H    0.947 --    51 N    0.885
 ---------------------------------------------------------------------------

Topologies differ in total number of bonds
Writing topology from bond orders to xtbtopo.mol

molecular dipole:
                 x           y           z       tot (Debye)
 q only:       -0.183      -1.035       0.039
   full:       -0.117      -0.946      -0.748       3.081
molecular quadrupole (traceless):
                xx          xy          yy          xz          yz          zz
 q only:       -5.934      19.018     -41.706      14.153       9.019      47.640
  q+dip:       -4.206      21.470     -47.478      19.177      13.167      51.684
   full:       -4.307      21.205     -46.754      18.925      12.701      51.061

           -------------------------------------------------
          |               Frequency Printout                |
           -------------------------------------------------
 projected vibrational frequencies (cm⁻¹)
eigval :       -0.00    -0.00    -0.00     0.00     0.00     0.00
eigval :       12.11    15.91    21.75    31.22    42.61    43.78
eigval :       46.70    56.84    58.31    61.14    66.49    71.70
eigval :       80.08    88.13    93.71   110.73   114.65   117.64
eigval :      121.83   130.02   133.15   143.32   171.10   175.94
eigval :      182.47   216.26   221.63   271.82   274.78   280.24
eigval :      290.48   317.38   346.12   352.84   363.43   369.10
eigval :      379.15   387.60   401.85   432.06   464.00   467.92
eigval :      470.18   472.61   474.01   480.97   481.69   486.53
eigval :      490.95   534.04   543.39   545.50   553.11   558.53
eigval :      574.68   589.48   634.73   647.41   661.67   670.31
eigval :      675.78   683.16   729.08   759.35   806.79   820.39
eigval :      849.31   958.06   959.62   961.90   971.46   992.58
eigval :     1004.05  1005.44  1009.59  1011.23  1014.12  1024.19
eigval :     1034.89  1045.79  1060.57  1083.00  1084.73  1085.94
eigval :     1092.54  1108.73  1115.29  1129.57  1176.04  1235.72
eigval :     1251.69  1272.09  1312.79  1319.69  1354.34  1356.51
eigval :     1357.37  1365.45  1375.07  1402.04  1405.73  1407.62
eigval :     1417.52  1437.08  1447.56  1453.95  1455.00  1457.42
eigval :     1458.05  1462.39  1469.66  1474.59  1478.28  1481.88
eigval :     1484.06  1498.91  1502.51  1506.30  1516.67  1675.92
eigval :     1701.46  1712.02  1731.54  2896.33  2964.52  2970.02
eigval :     2986.82  3015.09  3018.78  3035.71  3041.42  3041.96
eigval :     3042.49  3048.12  3052.61  3057.23  3061.82  3313.02
eigval :     3340.25  3342.40  3358.39  3379.73  3446.51  3494.46
eigval :     3494.69  3497.54  3499.24  3535.14  3537.96  3539.22
eigval :     3557.96  3562.33  3562.93
 reduced masses (amu)
   1: 12.84   2: 12.57   3: 12.02   4: 12.32   5: 12.46   6: 12.69   7: 12.31   8: 12.14
   9: 12.06  10: 12.51  11: 12.54  12: 12.68  13: 12.69  14: 12.04  15: 12.99  16: 12.88
  17: 12.80  18: 12.26  19: 12.85  20: 13.24  21: 12.51  22: 11.95  23: 11.79  24: 11.13
  25: 11.52  26: 12.53  27: 12.31  28: 12.95  29: 12.28  30:  9.51  31: 12.82  32:  4.68
  33:  7.76  34:  6.67  35:  2.76  36:  2.21  37:  8.22  38:  1.97  39:  6.64  40:  4.74
  41:  3.72  42:  8.71  43:  8.38  44:  3.86  45:  3.10  46:  2.42  47:  6.97  48:  6.25
  49:  5.74  50:  5.45  51:  6.36  52:  7.69  53:  8.32  54:  2.23  55:  8.79  56:  9.50
  57: 11.30  58: 11.27  59: 10.04  60:  5.49  61:  9.19  62:  4.18  63:  1.85  64:  4.91
  65:  6.38  66: 11.31  67: 11.82  68:  8.66  69:  7.20  70:  3.48  71:  5.99  72:  5.89
  73:  3.13  74:  4.95  75:  4.94  76:  4.92  77:  8.86  78:  9.01  79:  9.10  80:  9.11
  81:  8.28  82:  6.69  83:  7.51  84:  5.55  85:  3.01  86:  4.63  87:  8.97  88: 10.00
  89:  9.28  90:  9.06  91: 11.45  92:  4.81  93:  6.71  94:  5.00  95:  3.08  96:  7.83
  97:  4.28  98:  8.09  99:  3.82 100:  5.81 101:  5.26 102:  5.99 103:  7.49 104:  5.48
 105:  4.32 106:  2.49 107:  2.86 108:  2.71 109:  2.21 110:  2.50 111:  1.62 112:  3.19
 113:  2.87 114:  1.97 115:  1.64 116:  3.14 117:  1.70 118:  1.68 119:  1.66 120:  3.45
 121:  1.68 122:  6.28 123:  7.92 124:  6.86 125:  9.46 126: 12.66 127: 12.75 128: 12.76
 129: 12.75 130:  1.75 131:  1.74 132:  1.68 133:  1.82 134:  1.91 135:  1.71 136:  1.67
 137:  1.78 138:  1.88 139:  1.42 140:  1.86 141:  1.87 142:  1.70 143:  1.68 144:  1.70
 145:  1.80 146:  1.73 147:  1.87 148:  1.72 149:  1.48 150:  1.45 151:  1.45 152:  1.45
 153:  2.14 154:  1.94 155:  1.94 156:  1.98 157:  2.17 158:  2.18 159:  2.18
 IR intensities (km·mol⁻¹)
   1:  1.34   2:  1.47   3:  1.80   4:  0.20   5:  1.98   6:  2.11   7:  0.89   8:  0.50
   9:  0.25  10:  5.65  11:  5.71  12:  1.18  13:  0.10  14:  1.76  15:  1.29  16:  6.36
  17:  3.54  18:  0.87  19:  4.10  20: 12.57  21:  9.84  22:  4.91  23: 30.17  24:  6.08
  25:  3.65  26: 18.48  27: 13.82  28: 12.01  29: 13.00  30: 28.12  31: 13.12  32: 64.20
  33: 66.62  34:  0.68  35: 11.08  36: 72.38  37: 40.82  38:  2.35  39:  3.61  40:  0.51
  41:206.49  42: 33.26  43:  0.73  44:186.72  45:474.59  46:115.03  47: 13.73  48: 12.54
  49: 11.82  50: 16.40  51:  3.70  52: 19.92  53: 10.64  54:  5.84  55: 29.60  56:  2.53
  57: 12.80  58: 19.70  59: 58.24  60: 34.22  61: 59.50  62: 62.89  63:140.02  64: 57.01
  65: 99.85  66: 13.52  67: 28.81  68: 37.36  69:145.49  70:455.53  71: 70.65  72:192.64
  73:269.85  74:  1.88  75:  3.05  76:  0.82  77: 27.28  78: 26.05  79:  1.36  80:  5.28
  81: 11.18  82: 17.49  83: 14.67  84:  9.75  85:  1.38  86:  7.79  87: 17.93  88:  1.59
  89:  0.31  90:  0.23  91: 50.93  92:  7.15  93:  2.47  94:  2.15  95:  6.30  96:  8.22
  97: 14.38  98:  2.86  99: 11.13 100:  3.18 101: 97.30 102:107.80 103: 76.50 104: 94.51
 105: 82.68 106: 23.40 107: 53.05 108: 34.51 109:  6.63 110: 29.57 111:  0.41 112:  8.93
 113: 11.05 114:  3.77 115:  0.95 116: 16.43 117: 14.10 118:  8.35 119: 19.70 120: 52.85
 121: 43.05 122:179.90 123:341.63 124:834.77 125:467.85 126:****** 127:868.48 128:474.57
 129:881.97 130: 63.61 131: 79.13 132:173.09 133: 62.86 134:****** 135: 57.44 136:  3.73
 137: 51.84 138: 22.12 139: 44.84 140: 21.67 141: 10.25 142:  2.64 143:  9.54 144:317.94
 145:211.55 146:469.58 147:621.58 148:587.96 149:  9.34 150: 16.44 151: 29.25 152: 18.39
 153:  5.56 154: 16.00 155: 15.22 156: 22.12 157: 17.03 158: 20.19 159: 12.50
 Raman intensities (amu)
Molecule has no symmetry elements
It seems to be the C1 point group
   1:  0.00   2:  0.00   3:  0.00   4:  0.00   5:  0.00   6:  0.00   7:  0.00   8:  0.00
   9:  0.00  10:  0.00  11:  0.00  12:  0.00  13:  0.00  14:  0.00  15:  0.00  16:  0.00
  17:  0.00  18:  0.00  19:  0.00  20:  0.00  21:  0.00  22:  0.00  23:  0.00  24:  0.00
  25:  0.00  26:  0.00  27:  0.00  28:  0.00  29:  0.00  30:  0.00  31:  0.00  32:  0.00
  33:  0.00  34:  0.00  35:  0.00  36:  0.00  37:  0.00  38:  0.00  39:  0.00  40:  0.00
  41:  0.00  42:  0.00  43:  0.00  44:  0.00  45:  0.00  46:  0.00  47:  0.00  48:  0.00
  49:  0.00  50:  0.00  51:  0.00  52:  0.00  53:  0.00  54:  0.00  55:  0.00  56:  0.00
  57:  0.00  58:  0.00  59:  0.00  60:  0.00  61:  0.00  62:  0.00  63:  0.00  64:  0.00
  65:  0.00  66:  0.00  67:  0.00  68:  0.00  69:  0.00  70:  0.00  71:  0.00  72:  0.00
  73:  0.00  74:  0.00  75:  0.00  76:  0.00  77:  0.00  78:  0.00  79:  0.00  80:  0.00
  81:  0.00  82:  0.00  83:  0.00  84:  0.00  85:  0.00  86:  0.00  87:  0.00  88:  0.00
  89:  0.00  90:  0.00  91:  0.00  92:  0.00  93:  0.00  94:  0.00  95:  0.00  96:  0.00
  97:  0.00  98:  0.00  99:  0.00 100:  0.00 101:  0.00 102:  0.00 103:  0.00 104:  0.00
 105:  0.00 106:  0.00 107:  0.00 108:  0.00 109:  0.00 110:  0.00 111:  0.00 112:  0.00
 113:  0.00 114:  0.00 115:  0.00 116:  0.00 117:  0.00 118:  0.00 119:  0.00 120:  0.00
 121:  0.00 122:  0.00 123:  0.00 124:  0.00 125:  0.00 126:  0.00 127:  0.00 128:  0.00
 129:  0.00 130:  0.00 131:  0.00 132:  0.00 133:  0.00 134:  0.00 135:  0.00 136:  0.00
 137:  0.00 138:  0.00 139:  0.00 140:  0.00 141:  0.00 142:  0.00 143:  0.00 144:  0.00
 145:  0.00 146:  0.00 147:  0.00 148:  0.00 149:  0.00 150:  0.00 151:  0.00 152:  0.00
 153:  0.00 154:  0.00 155:  0.00 156:  0.00 157:  0.00 158:  0.00 159:  0.00
 output can be read by thermo (or use thermo option).
 writing <g98.out> molden fake output.
 recommended (thermochemical) frequency scaling factor: 1.0
           -------------------------------------------------
          |             Thermodynamic Functions             |
           -------------------------------------------------

c1  symmetry found (for desy threshold:  0.10E+00) used in thermo

          ...................................................
          :                      SETUP                      :
          :.................................................:
          :  # frequencies                         153      :
          :  # imaginary freq.                       0      :
          :  linear?                             false      :
          :  only rotor calc.                    false      :
          :  symmetry                               c1      :
          :  rotational number                       1      :
          :  scaling factor                  1.0000000      :
          :  rotor cutoff                   50.0000000 cm⁻¹ :
          :  imag. cutoff                  -20.0000000 cm⁻¹ :
          :.................................................:

    mode    ω/cm⁻¹     T·S(HO)/kcal·mol⁻¹    T·S(FR)/kcal·mol⁻¹   T·S(vib)
   ------------------------------------------------------------------------
       1     12.11    -2.27518 (  0.34%)    -1.47656 ( 99.66%)    -1.47930
       2     15.91    -2.11358 (  1.01%)    -1.39576 ( 98.99%)    -1.40303
       3     21.75    -1.92826 (  3.46%)    -1.30305 ( 96.54%)    -1.32467
       4     31.22    -1.71455 ( 13.19%)    -1.19607 ( 86.81%)    -1.26445
       5     42.61    -1.53069 ( 34.53%)    -1.10391 ( 65.47%)    -1.25127
       6     43.78    -1.51466 ( 37.02%)    -1.09587 ( 62.98%)    -1.25091
       7     46.70    -1.47660 ( 43.21%)    -1.07676 ( 56.79%)    -1.24953
       8     56.84    -1.36078 ( 62.54%)    -1.01856 ( 37.46%)    -1.23260
       9     58.31    -1.34571 ( 64.91%)    -1.01097 ( 35.09%)    -1.22825
      10     61.14    -1.31785 ( 69.09%)    -0.99695 ( 30.91%)    -1.21867
      11     66.49    -1.26851 ( 75.77%)    -0.97208 ( 24.23%)    -1.19669
      12     71.70    -1.22424 ( 80.87%)    -0.94975 ( 19.13%)    -1.17174
      13     80.08    -1.15945 ( 86.81%)    -0.91699 ( 13.19%)    -1.12747
      14     88.13    -1.10352 ( 90.61%)    -0.88864 (  9.39%)    -1.08334
      15     93.71    -1.06771 ( 92.50%)    -0.87044 (  7.50%)    -1.05292
      16    110.73    -0.97079 ( 96.01%)    -0.82100 (  3.99%)    -0.96481
      17    114.65    -0.95071 ( 96.51%)    -0.81071 (  3.49%)    -0.94582
      18    117.64    -0.93583 ( 96.84%)    -0.80308 (  3.16%)    -0.93163
      19    121.83    -0.91566 ( 97.24%)    -0.79271 (  2.76%)    -0.91227
      20    130.02    -0.87828 ( 97.86%)    -0.77343 (  2.14%)    -0.87603
      21    133.15    -0.86464 ( 98.05%)    -0.76638 (  1.95%)    -0.86272
      22    143.32    -0.82260 ( 98.54%)    -0.74457 (  1.46%)    -0.82146
      23    171.10    -0.72254 ( 99.28%)    -0.69211 (  0.72%)    -0.72232
      24    175.94    -0.70693 ( 99.35%)    -0.68383 (  0.65%)    -0.70678
      25    182.47    -0.68664 ( 99.44%)    -0.67304 (  0.56%)    -0.68656
      26    216.26    -0.59337 ( 99.72%)    -0.62271 (  0.28%)    -0.59345
      27    221.63    -0.58011 ( 99.74%)    -0.61544 (  0.26%)    -0.58020
      28    271.82    -0.47245 ( 99.89%)    -0.55497 (  0.11%)    -0.47255
      29    274.78    -0.46689 ( 99.89%)    -0.55177 (  0.11%)    -0.46698
      30    280.24    -0.45683 ( 99.90%)    -0.54594 (  0.10%)    -0.45692
      31    290.48    -0.43863 ( 99.91%)    -0.53530 (  0.09%)    -0.43871
   ------------------------------------------------------------------------

   temp. (K)  partition function   enthalpy   heat capacity  entropy
                                   cal/mol     cal/K/mol   cal/K/mol   J/K/mol
 298.15  VIB  0.212E+17            19181.450    104.443    125.997
         ROT  0.154E+08              888.752      2.981     35.871
         INT  0.327E+24            20070.202    107.424    161.868
         TR   0.618E+28             1481.254      4.968     43.384
         TOT                       21551.4564   112.3924   205.2526   858.7769

       T/K    H(0)-H(T)+PV         H(T)/Eh          T*S/Eh         G(T)/Eh
   ------------------------------------------------------------------------
    298.15    0.343444E-01    0.474223E+00    0.975221E-01    0.376701E+00
   ------------------------------------------------------------------------

         :::::::::::::::::::::::::::::::::::::::::::::::::::::
         ::                  THERMODYNAMIC                  ::
         :::::::::::::::::::::::::::::::::::::::::::::::::::::
         :: total free energy         -80.555367053604 Eh   ::
         ::.................................................::
         :: total energy              -80.932068032865 Eh   ::
         :: zero point energy           0.439878684813 Eh   ::
         :: G(RRHO) w/o ZPVE           -0.063177705551 Eh   ::
         :: G(RRHO) contrib.            0.376700979261 Eh   ::
         :::::::::::::::::::::::::::::::::::::::::::::::::::::

           -------------------------------------------------
          | TOTAL ENERGY              -80.932068032865 Eh   |
          | TOTAL ENTHALPY            -80.457844916163 Eh   |
          | TOTAL FREE ENERGY         -80.555367053604 Eh   |
          | GRADIENT NORM               0.000165000946 Eh/α |
          | HOMO-LUMO GAP               5.697674363532 eV   |
           -------------------------------------------------

------------------------------------------------------------------------
 * finished run on 2024/01/10 at 18:33:26.462     
------------------------------------------------------------------------
 total:
 * wall-time:     0 d,  0 h,  0 min, 14.119 sec
 *  cpu-time:     0 d,  0 h,  0 min, 14.005 sec
 * ratio c/w:     0.992 speedup
 SCF:
 * wall-time:     0 d,  0 h,  0 min,  0.095 sec
 *  cpu-time:     0 d,  0 h,  0 min,  0.055 sec
 * ratio c/w:     0.583 speedup
 analytical hessian:
 * wall-time:     0 d,  0 h,  0 min, 13.997 sec
 *  cpu-time:     0 d,  0 h,  0 min, 13.924 sec
 * ratio c/w:     0.995 speedup

