      -----------------------------------------------------------      
     |                   =====================                   |     
     |                           x T B                           |     
     |                   =====================                   |     
     |                         S. Grimme                         |     
     |          Mulliken Center for Theoretical Chemistry        |     
     |                    University of Bonn                     |     
      -----------------------------------------------------------      

   * xtb version 6.6.1 (unknown-commit) compiled by '@Linux' on 12/27/2023

   xtb is free software: you can redistribute it and/or modify it under
   the terms of the GNU Lesser General Public License as published by
   the Free Software Foundation, either version 3 of the License, or
   (at your option) any later version.
   
   xtb is distributed in the hope that it will be useful,
   but WITHOUT ANY WARRANTY; without even the implied warranty of
   MERCHANTABILITY or FITNESS FOR A PARTICULAR PURPOSE.  See the
   GNU Lesser General Public License for more details.
   
   Cite this work as:
   * C. Bannwarth, E. Caldeweyher, S. Ehlert, A. Hansen, P. Pracht,
     J. Seibert, S. Spicher, S. Grimme, WIREs Comput. Mol. Sci., 2020, 11,
     e01493. DOI: 10.1002/wcms.1493
   
   for GFN2-xTB:
   * C. Bannwarth, S. Ehlert and S. Grimme., J. Chem. Theory Comput., 2019,
     15, 1652-1671. DOI: 10.1021/acs.jctc.8b01176
   for GFN1-xTB:
   * S. Grimme, C. Bannwarth, P. Shushkov, J. Chem. Theory Comput., 2017,
     13, 1989-2009. DOI: 10.1021/acs.jctc.7b00118
   for GFN0-xTB:
   * P. Pracht, E. Caldeweyher, S. Ehlert, S. Grimme, ChemRxiv, 2019, preprint.
     DOI: 10.26434/chemrxiv.8326202.v1
   for GFN-FF:
   * S. Spicher and S. Grimme, Angew. Chem. Int. Ed., 2020, 59, 15665-15673.
     DOI: 10.1002/anie.202004239
   
   for ALPB and GBSA implicit solvation:
   * S. Ehlert, M. Stahn, S. Spicher, S. Grimme, J. Chem. Theory Comput.,
     2021, 17, 4250-4261. DOI: 10.1021/acs.jctc.1c00471
   
   for DFT-D4:
   * E. Caldeweyher, C. Bannwarth and S. Grimme, J. Chem. Phys., 2017,
     147, 034112. DOI: 10.1063/1.4993215
   * E. Caldeweyher, S. Ehlert, A. Hansen, H. Neugebauer, S. Spicher,
     C. Bannwarth and S. Grimme, J. Chem. Phys., 2019, 150, 154122.
     DOI: 10.1063/1.5090222
   * E. Caldeweyher, J.-M. Mewes, S. Ehlert and S. Grimme, Phys. Chem. Chem. Phys.
     2020, 22, 8499-8512. DOI: 10.1039/D0CP00502A
   
   for sTDA-xTB:
   * S. Grimme and C. Bannwarth, J. Chem. Phys., 2016, 145, 054103.
     DOI: 10.1063/1.4959605
   
   in the mass-spec context:
   * V. Asgeirsson, C. Bauer and S. Grimme, Chem. Sci., 2017, 8, 4879.
     DOI: 10.1039/c7sc00601b
   * J. Koopman and S. Grimme, ACS Omega 2019, 4, 12, 15120-15133.
     DOI: 10.1021/acsomega.9b02011
   
   for metadynamics refer to:
   * S. Grimme, J. Chem. Theory Comput., 2019, 155, 2847-2862
     DOI: 10.1021/acs.jctc.9b00143
   
   for SPH calculations refer to:
   * S. Spicher and S. Grimme, J. Chem. Theory Comput., 2021, 17, 1701-1714
     DOI: 10.1021/acs.jctc.0c01306
   
   with help from (in alphabetical order)
   P. Atkinson, C. Bannwarth, F. Bohle, G. Brandenburg, E. Caldeweyher
   M. Checinski, S. Dohm, S. Ehlert, S. Ehrlich, I. Gerasimov, C. Hölzer
   A. Katbashev, J. Koopman, C. Lavigne, S. Lehtola, F. März, M. Müller,
   F. Musil, H. Neugebauer, J. Pisarek, C. Plett, P. Pracht, F. Pultar,
   J. Seibert, P. Shushkov, S. Spicher, M. Stahn, M. Steiner, T. Strunk,
   J. Stückrath, T. Rose, and J. Unsleber
   
 * started run on 2024/01/10 at 18:23:15.314     

           -------------------------------------------------
          |                Calculation Setup                |
           -------------------------------------------------

          program call               : xtb struc.xyz --gfn2 --hess
          hostname                   : swaroop
          coordinate file            : struc.xyz
          omp threads                :                     1

   ID    Z sym.   atoms
    1    8 O      1, 23, 31, 39, 47
    2    6 C      2, 5, 9, 13, 17, 22, 30, 38, 46
    3    1 H      3, 4, 6, 7, 10-12, 14-16, 18-21, 25, 26, 28, 29, 33, 34,
                  36, 37, 41, 42, 44, 45, 49, 50, 52, 53
    4    7 N      8, 24, 27, 32, 35, 40, 43, 48, 51

molecular fragmentation (1/2 indicates fragments):
11111111111111111111122222222222222222222222222222222
# atoms in fragment 1/2:    21    32
 fragment masses (1/2) :      104.17      240.22
CMA distance (Bohr)    :   5.825
constraining FC (au)   :  0.0500

           -------------------------------------------------
          |                 G F N 2 - x T B                 |
           -------------------------------------------------

        Reference                      10.1021/acs.jctc.8b01176
      * Hamiltonian:
        H0-scaling (s, p, d)           1.850000    2.230000    2.230000
        zeta-weighting                 0.500000
      * Dispersion:
        s8                             2.700000
        a1                             0.520000
        a2                             5.000000
        s9                             5.000000
      * Repulsion:
        kExp                           1.500000    1.000000
        rExp                           1.000000
      * Coulomb:
        alpha                          2.000000
        third order                    shell-resolved
        anisotropic                    true
        a3                             3.000000
        a5                             4.000000
        cn-shift                       1.200000
        cn-exp                         4.000000
        max-rad                        5.000000


          ...................................................
          :                      SETUP                      :
          :.................................................:
          :  # basis functions                 122          :
          :  # atomic orbitals                 122          :
          :  # shells                           76          :
          :  # electrons                       140          :
          :  max. iterations                   250          :
          :  Hamiltonian                  GFN2-xTB          :
          :  restarted?                      false          :
          :  GBSA solvation                  false          :
          :  PC potential                    false          :
          :  electronic temp.          300.0000000     K    :
          :  accuracy                    1.0000000          :
          :  -> integral cutoff          0.2500000E+02      :
          :  -> integral neglect         0.1000000E-07      :
          :  -> SCF convergence          0.1000000E-05 Eh   :
          :  -> wf. convergence          0.1000000E-03 e    :
          :  Broyden damping             0.4000000          :
          ...................................................

 iter      E             dE          RMSdq      gap      omega  full diag
   1    -81.5602346 -0.815602E+02  0.435E+00    5.15       0.0  T
   2    -81.8432740 -0.283039E+00  0.239E+00    5.86       1.0  T
   3    -81.8490675 -0.579355E-02  0.116E+00    5.51       1.0  T
   4    -81.8504949 -0.142733E-02  0.246E-01    5.54       1.0  T
   5    -81.8514393 -0.944415E-03  0.921E-02    5.45       1.0  T
   6    -81.8514638 -0.245587E-04  0.261E-02    5.46       1.0  T
   7    -81.8514680 -0.415777E-05  0.768E-03    5.46       1.8  T
   8    -81.8514683 -0.290925E-06  0.278E-03    5.46       4.9  T
   9    -81.8514683 -0.194749E-07  0.966E-04    5.46      14.2  T
  10    -81.8514683 -0.570293E-08  0.192E-04    5.46      71.7  T

   *** convergence criteria satisfied after 10 iterations ***

         #    Occupation            Energy/Eh            Energy/eV
      -------------------------------------------------------------
         1        2.0000           -0.8017576             -21.8169
       ...           ...                  ...                  ...
        64        2.0000           -0.4931224             -13.4185
        65        2.0000           -0.4916849             -13.3794
        66        2.0000           -0.4887899             -13.3007
        67        2.0000           -0.4865473             -13.2396
        68        2.0000           -0.4850566             -13.1991
        69        2.0000           -0.4844004             -13.1812
        70        2.0000           -0.4815022             -13.1023 (HOMO)
        71                         -0.2808343              -7.6419 (LUMO)
        72                         -0.2614194              -7.1136
        73                         -0.2594330              -7.0595
        74                         -0.2551571              -6.9432
        75                         -0.1532626              -4.1705
       ...                                ...                  ...
       122                          0.5652895              15.3823
      -------------------------------------------------------------
                  HL-Gap            0.2006679 Eh            5.4605 eV
             Fermi-level           -0.3811682 Eh          -10.3721 eV

 SCC (total)                   0 d,  0 h,  0 min,  0.075 sec
 SCC setup                      ...        0 min,  0.000 sec (  0.365%)
 Dispersion                     ...        0 min,  0.001 sec (  0.763%)
 classical contributions        ...        0 min,  0.000 sec (  0.249%)
 integral evaluation            ...        0 min,  0.008 sec ( 10.479%)
 iterations                     ...        0 min,  0.038 sec ( 51.442%)
 molecular gradient             ...        0 min,  0.027 sec ( 36.343%)
 printout                       ...        0 min,  0.000 sec (  0.344%)

         :::::::::::::::::::::::::::::::::::::::::::::::::::::
         ::                     SUMMARY                     ::
         :::::::::::::::::::::::::::::::::::::::::::::::::::::
         :: total energy             -80.937687847648 Eh    ::
         :: gradient norm              0.000082048466 Eh/a0 ::
         :: HOMO-LUMO gap              5.460450477468 eV    ::
         ::.................................................::
         :: SCC energy               -81.851468301849 Eh    ::
         :: -> isotropic ES            0.295596403527 Eh    ::
         :: -> anisotropic ES         -0.030040697835 Eh    ::
         :: -> anisotropic XC          0.020290692543 Eh    ::
         :: -> dispersion             -0.044722037615 Eh    ::
         :: repulsion energy           0.912230401555 Eh    ::
         :: add. restraining           0.000000000000 Eh    ::
         :: total charge               1.000000000000 e     ::
         :::::::::::::::::::::::::::::::::::::::::::::::::::::

           ------------------------------------------------- 
          |                Numerical Hessian                |
           ------------------------------------------------- 
step length          :   0.00500
SCC accuracy         :   0.30000
Hessian scale factor :   1.00000
frozen atoms in %    :   0.00000    0
RMS gradient         :   0.00008
estimated CPU  time      0.24 min
estimated wall time      0.24 min

writing file <hessian>.

 projected vibrational frequencies (cm⁻¹)
eigval :       -0.00    -0.00    -0.00    -0.00     0.00     0.00
eigval :        5.60    16.63    21.44    26.73    28.84    39.44
eigval :       41.35    46.06    51.21    54.44    57.17    62.41
eigval :       65.34    84.48    90.45    93.45   107.13   113.99
eigval :      116.87   129.21   141.30   162.95   168.76   174.77
eigval :      194.82   203.87   226.93   247.54   251.65   276.50
eigval :      287.87   294.62   301.07   333.97   344.48   352.38
eigval :      374.17   409.75   423.73   443.10   462.96   465.25
eigval :      467.91   470.90   471.32   477.90   480.16   485.40
eigval :      497.26   531.36   539.38   545.27   546.35   553.23
eigval :      553.96   563.00   594.51   665.59   669.81   673.44
eigval :      676.28   701.68   709.29   714.53   764.46   769.60
eigval :      915.03   918.49   953.89   963.38   966.28   985.57
eigval :      995.97  1003.93  1009.69  1015.09  1020.09  1026.70
eigval :     1030.73  1038.82  1040.71  1081.62  1086.80  1087.43
eigval :     1088.85  1106.88  1110.02  1123.89  1172.11  1227.38
eigval :     1247.93  1274.60  1320.54  1334.99  1343.72  1353.81
eigval :     1359.07  1361.10  1378.12  1385.76  1402.64  1411.26
eigval :     1420.34  1436.72  1442.18  1445.04  1448.60  1449.57
eigval :     1454.82  1456.28  1462.64  1466.41  1469.05  1479.75
eigval :     1486.25  1502.76  1512.12  1514.29  1514.91  1660.19
eigval :     1680.18  1694.98  1713.71  2925.89  2956.31  2978.10
eigval :     3035.59  3037.36  3037.93  3040.18  3042.77  3044.91
eigval :     3049.34  3051.70  3055.73  3059.20  3148.81  3175.60
eigval :     3276.18  3298.16  3463.64  3465.76  3482.35  3497.87
eigval :     3500.57  3501.27  3524.72  3537.33  3550.17  3562.00
eigval :     3563.99  3565.98  3567.16
           -------------------------------------------------
          |                Property Printout                |
           -------------------------------------------------

    * Orbital Energies and Occupations

         #    Occupation            Energy/Eh            Energy/eV
      -------------------------------------------------------------
         1        2.0000           -0.8017575             -21.8169
       ...           ...                  ...                  ...
        58        2.0000           -0.5193496             -14.1322
        59        2.0000           -0.5129707             -13.9586
        60        2.0000           -0.5118452             -13.9280
        61        2.0000           -0.5073077             -13.8045
        62        2.0000           -0.4974747             -13.5370
        63        2.0000           -0.4961926             -13.5021
        64        2.0000           -0.4931233             -13.4186
        65        2.0000           -0.4916871             -13.3795
        66        2.0000           -0.4887905             -13.3007
        67        2.0000           -0.4865485             -13.2397
        68        2.0000           -0.4850582             -13.1991
        69        2.0000           -0.4844014             -13.1812
        70        2.0000           -0.4815041             -13.1024 (HOMO)
        71                         -0.2808342              -7.6419 (LUMO)
        72                         -0.2614209              -7.1136
        73                         -0.2594343              -7.0596
        74                         -0.2551614              -6.9433
        75                         -0.1532617              -4.1705
        76                         -0.1122963              -3.0557
        77                         -0.0931098              -2.5336
        78                         -0.0875389              -2.3821
        79                         -0.0763759              -2.0783
        80                         -0.0758564              -2.0642
        81                         -0.0666160              -1.8127
       ...                                ...                  ...
       122                          0.5652879              15.3823
      -------------------------------------------------------------
                  HL-Gap            0.2006700 Eh            5.4605 eV
             Fermi-level           -0.3811692 Eh          -10.3721 eV

     #   Z          covCN         q      C6AA      α(0)
     1   8 O        1.653    -0.481    22.485     6.401
     2   6 C        3.673     0.071    19.624     6.349
     3   1 H        0.924     0.053     2.278     2.360
     4   1 H        0.924     0.047     2.360     2.402
     5   6 C        3.770    -0.080    22.058     6.693
     6   1 H        0.925     0.104     1.751     2.069
     7   1 H        0.924     0.127     1.561     1.954
     8   7 N        3.623     0.156    18.603     6.406
     9   6 C        3.720    -0.106    22.654     6.798
    10   1 H        0.925     0.079     1.985     2.203
    11   1 H        0.925     0.110     1.696     2.037
    12   1 H        0.925     0.116     1.646     2.006
    13   6 C        3.737    -0.118    22.849     6.821
    14   1 H        0.925     0.117     1.637     2.001
    15   1 H        0.925     0.121     1.603     1.980
    16   1 H        0.925     0.079     1.988     2.205
    17   6 C        3.722    -0.101    22.544     6.781
    18   1 H        0.925     0.114     1.664     2.018
    19   1 H        0.925     0.089     1.885     2.147
    20   1 H        0.925     0.087     1.911     2.162
    21   1 H        0.803     0.331     0.636     1.252
    22   6 C        2.675     0.339    21.247     7.543
    23   8 O        0.860    -0.530    24.459     6.631
    24   7 N        2.648    -0.298    27.673     7.813
    25   1 H        0.861     0.194     1.139     1.672
    26   1 H        0.860     0.204     1.087     1.634
    27   7 N        2.647    -0.319    28.212     7.889
    28   1 H        0.860     0.209     1.059     1.612
    29   1 H        0.860     0.231     0.959     1.534
    30   6 C        2.675     0.340    21.225     7.539
    31   8 O        0.861    -0.543    24.749     6.670
    32   7 N        2.644    -0.292    27.523     7.792
    33   1 H        0.860     0.199     1.113     1.652
    34   1 H        0.861     0.183     1.200     1.716
    35   7 N        2.644    -0.308    27.920     7.848
    36   1 H        0.861     0.177     1.233     1.739
    37   1 H        0.859     0.247     0.895     1.482
    38   6 C        2.675     0.343    21.169     7.529
    39   8 O        0.860    -0.534    24.557     6.644
    40   7 N        2.645    -0.294    27.573     7.799
    41   1 H        0.860     0.197     1.124     1.661
    42   1 H        0.861     0.181     1.209     1.723
    43   7 N        2.644    -0.308    27.918     7.847
    44   1 H        0.860     0.177     1.232     1.739
    45   1 H        0.860     0.236     0.941     1.519
    46   6 C        2.675     0.344    21.159     7.527
    47   8 O        0.861    -0.531    24.483     6.634
    48   7 N        2.645    -0.281    27.268     7.755
    49   1 H        0.860     0.206     1.078     1.626
    50   1 H        0.861     0.191     1.152     1.681
    51   7 N        2.645    -0.287    27.397     7.774
    52   1 H        0.861     0.190     1.159     1.686
    53   1 H        0.860     0.223     0.996     1.563

 Mol. C6AA /au·bohr⁶  :      21788.847950
 Mol. C8AA /au·bohr⁸  :     454332.408498
 Mol. α(0) /au        :        220.516655


Wiberg/Mayer (AO) data.
largest (>0.10) Wiberg bond orders for each atom

 ---------------------------------------------------------------------------
     #   Z sym  total        # sym  WBO       # sym  WBO       # sym  WBO
 ---------------------------------------------------------------------------
     1   8 O    1.945 --     2 C    1.012    21 H    0.822
     2   6 C    3.964 --     1 O    1.012     5 C    0.996     4 H    0.966
                             3 H    0.964
     3   1 H    0.997 --     2 C    0.964
     4   1 H    0.998 --     2 C    0.966
     5   6 C    3.919 --     2 C    0.996     6 H    0.953     7 H    0.936
                             8 N    0.930
     6   1 H    0.989 --     5 C    0.953
     7   1 H    0.984 --     5 C    0.936
     8   7 N    3.821 --    17 C    0.964     9 C    0.958    13 C    0.952
                             5 C    0.930
     9   6 C    3.925 --    10 H    0.979    12 H    0.969    11 H    0.968
                             8 N    0.958
    10   1 H    0.994 --     9 C    0.979
    11   1 H    0.988 --     9 C    0.968
    12   1 H    0.987 --     9 C    0.969
    13   6 C    3.915 --    16 H    0.978    15 H    0.960    14 H    0.958
                             8 N    0.952
    14   1 H    0.986 --    13 C    0.958
    15   1 H    0.985 --    13 C    0.960
    16   1 H    0.993 --    13 C    0.978
    17   6 C    3.935 --    20 H    0.977    19 H    0.973    18 H    0.971
                             8 N    0.964
    18   1 H    0.987 --    17 C    0.971
    19   1 H    0.992 --    17 C    0.973
    20   1 H    0.992 --    17 C    0.977
    21   1 H    0.891 --     1 O    0.822
    22   6 C    3.960 --    23 O    1.474    27 N    1.254    24 N    1.218
    23   8 O    1.923 --    22 C    1.474    27 N    0.140    24 N    0.131
    24   7 N    3.328 --    22 C    1.218    25 H    0.945    26 H    0.931
                            23 O    0.131
    25   1 H    0.962 --    24 N    0.945
    26   1 H    0.958 --    24 N    0.931
    27   7 N    3.342 --    22 C    1.254    28 H    0.919    29 H    0.881
                            23 O    0.140
    28   1 H    0.956 --    27 N    0.919
    29   1 H    0.946 --    27 N    0.881
    30   6 C    3.960 --    31 O    1.478    35 N    1.265    32 N    1.205
    31   8 O    1.879 --    30 C    1.478    35 N    0.146    32 N    0.129
    32   7 N    3.320 --    30 C    1.205    34 H    0.948    33 H    0.944
                            31 O    0.129
    33   1 H    0.960 --    32 N    0.944
    34   1 H    0.966 --    32 N    0.948
    35   7 N    3.348 --    30 C    1.265    36 H    0.949    37 H    0.863
                            31 O    0.146
    36   1 H    0.969 --    35 N    0.949
    37   1 H    0.939 --    35 N    0.863
    38   6 C    3.959 --    39 O    1.517    43 N    1.237    40 N    1.197
    39   8 O    1.888 --    38 C    1.517    43 N    0.145    40 N    0.136
    40   7 N    3.313 --    38 C    1.197    42 H    0.948    41 H    0.944
                            39 O    0.136
    41   1 H    0.961 --    40 N    0.944
    42   1 H    0.967 --    40 N    0.948
    43   7 N    3.327 --    38 C    1.237    44 H    0.949    45 H    0.886
                            39 O    0.145
    44   1 H    0.969 --    43 N    0.949
    45   1 H    0.944 --    43 N    0.886
    46   6 C    3.960 --    47 O    1.485    51 N    1.240    48 N    1.227
    47   8 O    1.907 --    46 C    1.485    51 N    0.139    48 N    0.134
    48   7 N    3.339 --    46 C    1.227    50 H    0.945    49 H    0.941
                            47 O    0.134
    49   1 H    0.958 --    48 N    0.941
    50   1 H    0.963 --    48 N    0.945
    51   7 N    3.347 --    46 C    1.240    52 H    0.945    53 H    0.924
                            47 O    0.139
    52   1 H    0.964 --    51 N    0.945
    53   1 H    0.950 --    51 N    0.924
 ---------------------------------------------------------------------------

Topologies differ in total number of bonds
Writing topology from bond orders to xtbtopo.mol

molecular dipole:
                 x           y           z       tot (Debye)
 q only:       -0.631      -0.694       0.789
   full:       -0.875      -0.157       0.447       2.530
molecular quadrupole (traceless):
                xx          xy          yy          xz          yz          zz
 q only:       30.239     -10.400     -15.404      -8.181       0.624     -14.835
  q+dip:       34.439     -10.394     -18.268      -9.759       3.411     -16.170
   full:       34.685     -10.531     -18.257      -9.954       3.629     -16.429

           -------------------------------------------------
          |               Frequency Printout                |
           -------------------------------------------------
 projected vibrational frequencies (cm⁻¹)
eigval :       -0.00    -0.00    -0.00    -0.00     0.00     0.00
eigval :        5.60    16.63    21.44    26.73    28.84    39.44
eigval :       41.35    46.06    51.21    54.44    57.17    62.41
eigval :       65.34    84.48    90.45    93.45   107.13   113.99
eigval :      116.87   129.21   141.30   162.95   168.76   174.77
eigval :      194.82   203.87   226.93   247.54   251.65   276.50
eigval :      287.87   294.62   301.07   333.97   344.48   352.38
eigval :      374.17   409.75   423.73   443.10   462.96   465.25
eigval :      467.91   470.90   471.32   477.90   480.16   485.40
eigval :      497.26   531.36   539.38   545.27   546.35   553.23
eigval :      553.96   563.00   594.51   665.59   669.81   673.44
eigval :      676.28   701.68   709.29   714.53   764.46   769.60
eigval :      915.03   918.49   953.89   963.38   966.28   985.57
eigval :      995.97  1003.93  1009.69  1015.09  1020.09  1026.70
eigval :     1030.73  1038.82  1040.71  1081.62  1086.80  1087.43
eigval :     1088.85  1106.88  1110.02  1123.89  1172.11  1227.38
eigval :     1247.93  1274.60  1320.54  1334.99  1343.72  1353.81
eigval :     1359.07  1361.10  1378.12  1385.76  1402.64  1411.26
eigval :     1420.34  1436.72  1442.18  1445.04  1448.60  1449.57
eigval :     1454.82  1456.28  1462.64  1466.41  1469.05  1479.75
eigval :     1486.25  1502.76  1512.12  1514.29  1514.91  1660.19
eigval :     1680.18  1694.98  1713.71  2925.89  2956.31  2978.10
eigval :     3035.59  3037.36  3037.93  3040.18  3042.77  3044.91
eigval :     3049.34  3051.70  3055.73  3059.20  3148.81  3175.60
eigval :     3276.18  3298.16  3463.64  3465.76  3482.35  3497.87
eigval :     3500.57  3501.27  3524.72  3537.33  3550.17  3562.00
eigval :     3563.99  3565.98  3567.16
 reduced masses (amu)
   1: 12.44   2: 12.30   3: 12.42   4: 12.50   5: 12.81   6: 12.69   7: 11.81   8: 11.88
   9: 12.39  10:  9.65  11: 11.90  12: 12.44  13: 12.74  14: 12.57  15: 12.00  16: 12.59
  17: 12.65  18: 12.45  19: 12.63  20: 13.59  21: 12.31  22: 13.36  23: 13.19  24: 12.95
  25: 12.63  26: 13.58  27: 11.69  28: 12.98  29: 12.87  30: 10.98  31: 12.13  32:  3.53
  33: 10.64  34:  2.31  35:  5.86  36:  2.93  37:  3.39  38:  5.39  39:  4.44  40:  6.69
  41:  3.25  42:  4.16  43:  6.92  44:  3.31  45:  8.78  46:  2.81  47:  8.45  48:  8.22
  49:  7.45  50:  3.35  51:  4.65  52:  4.29  53:  3.78  54:  7.54  55:  7.98  56:  4.08
  57:  9.89  58: 10.55  59:  9.58  60:  5.97  61:  7.46  62: 10.50  63:  4.23  64:  8.79
  65:  9.85  66: 10.61  67: 11.95  68:  4.66  69:  2.96  70:  2.53  71:  9.21  72:  2.01
  73:  7.56  74:  7.91  75:  5.15  76:  4.89  77:  4.93  78:  5.11  79:  7.43  80:  9.04
  81:  8.33  82:  7.18  83:  9.33  84:  6.62  85:  9.26  86:  6.54  87:  4.60  88:  9.82
  89:  8.46  90:  8.99  91:  7.65  92:  4.50  93:  7.89  94:  7.89  95:  2.90  96:  5.75
  97:  6.56  98:  8.08  99:  5.90 100:  3.41 101:  4.75 102:  3.97 103:  4.27 104:  5.91
 105:  4.63 106:  3.40 107:  2.56 108:  2.45 109:  2.12 110:  2.55 111:  1.62 112:  3.03
 113:  3.20 114:  2.86 115:  1.80 116:  2.05 117:  2.13 118:  2.35 119:  1.96 120:  1.64
 121:  1.74 122:  7.88 123:  9.40 124:  9.48 125:  9.47 126: 12.41 127: 12.62 128: 12.72
 129: 12.73 130:  1.79 131:  1.78 132:  1.64 133:  1.77 134:  1.76 135:  1.66 136:  1.91
 137:  1.56 138:  1.65 139:  1.64 140:  1.91 141:  1.76 142:  1.70 143:  1.81 144:  1.92
 145:  1.76 146:  1.76 147:  1.54 148:  1.65 149:  1.78 150:  1.45 151:  1.45 152:  1.46
 153:  1.90 154:  1.90 155:  2.12 156:  2.13 157:  2.18 158:  2.18 159:  2.18
 IR intensities (km·mol⁻¹)
   1:  1.45   2:  1.77   3:  1.82   4:  1.32   5:  1.28   6:  1.20   7:  0.48   8:  1.64
   9:  0.69  10:  2.04  11:  0.32  12:  2.79  13:  0.79  14:  0.21  15:  4.63  16:  0.75
  17:  0.70  18:  6.61  19:  0.78  20:  7.36  21:  4.31  22:  3.05  23: 11.09  24:  0.71
  25:  6.95  26: 10.96  27: 30.49  28: 14.90  29:  0.95  30: 11.51  31: 34.37  32: 28.21
  33:  4.97  34:144.47  35:  0.92  36:186.20  37:  8.49  38: 88.78  39:117.97  40: 11.73
  41: 37.29  42:396.09  43:  4.52  44:183.92  45:  4.66  46:235.08  47: 17.23  48:  4.35
  49: 14.12  50:  6.34  51:  3.62  52:  5.21  53:  4.37  54: 16.97  55: 69.99  56:  8.06
  57:  4.21  58: 20.87  59: 18.58  60: 10.40  61: 43.79  62: 42.02  63:340.86  64: 14.53
  65: 34.38  66: 21.95  67: 38.93  68: 27.21  69:365.87  70: 88.43  71:  1.84  72:376.54
  73: 18.48  74:  9.04  75:  7.81  76:  0.58  77:  5.46  78:  7.01  79: 21.70  80: 23.98
  81: 12.14  82: 18.07  83:  5.67  84: 11.99  85:  1.06  86: 13.16  87: 12.84  88:  0.06
  89:  2.36  90:  3.34  91: 39.89  92:  8.81  93:  4.34  94: 40.13  95: 19.57  96:  2.54
  97:  2.92  98:  1.67  99:  2.39 100:  6.31 101:172.19 102:147.20 103: 20.97 104: 67.70
 105: 20.47 106: 76.85 107: 12.74 108: 18.62 109: 13.88 110: 23.16 111:  0.89 112:  3.54
 113:  0.90 114: 12.72 115:  1.25 116:  1.14 117:  7.72 118:  4.10 119: 19.71 120: 70.51
 121:  3.94 122:644.74 123:433.59 124:136.78 125:908.71 126:386.78 127:****** 128:165.39
 129:****** 130: 27.42 131:127.62 132: 35.75 133: 15.01 134:  9.45 135:  1.45 136:  0.93
 137: 25.78 138:  1.93 139: 30.09 140: 24.18 141:  0.52 142:  0.33 143:778.56 144:678.26
 145:853.91 146:823.29 147: 96.77 148:  4.84 149:283.18 150: 17.37 151: 18.80 152: 18.81
 153: 12.23 154: 12.79 155: 29.99 156: 33.57 157: 10.24 158: 26.56 159: 14.12
 Raman intensities (amu)
Molecule has no symmetry elements
It seems to be the C1 point group
   1:  0.00   2:  0.00   3:  0.00   4:  0.00   5:  0.00   6:  0.00   7:  0.00   8:  0.00
   9:  0.00  10:  0.00  11:  0.00  12:  0.00  13:  0.00  14:  0.00  15:  0.00  16:  0.00
  17:  0.00  18:  0.00  19:  0.00  20:  0.00  21:  0.00  22:  0.00  23:  0.00  24:  0.00
  25:  0.00  26:  0.00  27:  0.00  28:  0.00  29:  0.00  30:  0.00  31:  0.00  32:  0.00
  33:  0.00  34:  0.00  35:  0.00  36:  0.00  37:  0.00  38:  0.00  39:  0.00  40:  0.00
  41:  0.00  42:  0.00  43:  0.00  44:  0.00  45:  0.00  46:  0.00  47:  0.00  48:  0.00
  49:  0.00  50:  0.00  51:  0.00  52:  0.00  53:  0.00  54:  0.00  55:  0.00  56:  0.00
  57:  0.00  58:  0.00  59:  0.00  60:  0.00  61:  0.00  62:  0.00  63:  0.00  64:  0.00
  65:  0.00  66:  0.00  67:  0.00  68:  0.00  69:  0.00  70:  0.00  71:  0.00  72:  0.00
  73:  0.00  74:  0.00  75:  0.00  76:  0.00  77:  0.00  78:  0.00  79:  0.00  80:  0.00
  81:  0.00  82:  0.00  83:  0.00  84:  0.00  85:  0.00  86:  0.00  87:  0.00  88:  0.00
  89:  0.00  90:  0.00  91:  0.00  92:  0.00  93:  0.00  94:  0.00  95:  0.00  96:  0.00
  97:  0.00  98:  0.00  99:  0.00 100:  0.00 101:  0.00 102:  0.00 103:  0.00 104:  0.00
 105:  0.00 106:  0.00 107:  0.00 108:  0.00 109:  0.00 110:  0.00 111:  0.00 112:  0.00
 113:  0.00 114:  0.00 115:  0.00 116:  0.00 117:  0.00 118:  0.00 119:  0.00 120:  0.00
 121:  0.00 122:  0.00 123:  0.00 124:  0.00 125:  0.00 126:  0.00 127:  0.00 128:  0.00
 129:  0.00 130:  0.00 131:  0.00 132:  0.00 133:  0.00 134:  0.00 135:  0.00 136:  0.00
 137:  0.00 138:  0.00 139:  0.00 140:  0.00 141:  0.00 142:  0.00 143:  0.00 144:  0.00
 145:  0.00 146:  0.00 147:  0.00 148:  0.00 149:  0.00 150:  0.00 151:  0.00 152:  0.00
 153:  0.00 154:  0.00 155:  0.00 156:  0.00 157:  0.00 158:  0.00 159:  0.00
 output can be read by thermo (or use thermo option).
 writing <g98.out> molden fake output.
 recommended (thermochemical) frequency scaling factor: 1.0
           -------------------------------------------------
          |             Thermodynamic Functions             |
           -------------------------------------------------

c1  symmetry found (for desy threshold:  0.10E+00) used in thermo

          ...................................................
          :                      SETUP                      :
          :.................................................:
          :  # frequencies                         153      :
          :  # imaginary freq.                       0      :
          :  linear?                             false      :
          :  only rotor calc.                    false      :
          :  symmetry                               c1      :
          :  rotational number                       1      :
          :  scaling factor                  1.0000000      :
          :  rotor cutoff                   50.0000000 cm⁻¹ :
          :  imag. cutoff                  -20.0000000 cm⁻¹ :
          :.................................................:

    mode    ω/cm⁻¹     T·S(HO)/kcal·mol⁻¹    T·S(FR)/kcal·mol⁻¹   T·S(vib)
   ------------------------------------------------------------------------
       1      5.60    -2.73197 (  0.02%)    -1.70481 ( 99.98%)    -1.70497
       2     16.63    -2.08711 (  1.21%)    -1.38250 ( 98.79%)    -1.39102
       3     21.44    -1.93670 (  3.27%)    -1.30726 ( 96.73%)    -1.32786
       4     26.73    -1.80621 (  7.56%)    -1.24196 ( 92.44%)    -1.28459
       5     28.84    -1.76129 (  9.97%)    -1.21947 ( 90.03%)    -1.27349
       6     39.44    -1.57629 ( 27.91%)    -1.12677 ( 72.09%)    -1.25225
       7     41.35    -1.54833 ( 31.88%)    -1.11275 ( 68.12%)    -1.25161
       8     46.06    -1.48469 ( 41.87%)    -1.08082 ( 58.13%)    -1.24992
       9     51.21    -1.42217 ( 52.39%)    -1.04942 ( 47.61%)    -1.24472
      10     54.44    -1.38612 ( 58.43%)    -1.03129 ( 41.57%)    -1.23863
      11     57.17    -1.35736 ( 63.09%)    -1.01683 ( 36.91%)    -1.23166
      12     62.41    -1.30574 ( 70.82%)    -0.99084 ( 29.18%)    -1.21387
      13     65.34    -1.27881 ( 74.46%)    -0.97727 ( 25.54%)    -1.20180
      14     84.48    -1.12818 ( 89.07%)    -0.90115 ( 10.93%)    -1.10337
      15     90.45    -1.08834 ( 91.46%)    -0.88093 (  8.54%)    -1.07063
      16     93.45    -1.06929 ( 92.43%)    -0.87125 (  7.57%)    -1.05430
      17    107.13    -0.98994 ( 95.47%)    -0.83079 (  4.53%)    -0.98273
      18    113.99    -0.95402 ( 96.43%)    -0.81241 (  3.57%)    -0.94896
      19    116.87    -0.93960 ( 96.76%)    -0.80501 (  3.24%)    -0.93524
      20    129.21    -0.88186 ( 97.81%)    -0.77528 (  2.19%)    -0.87952
      21    141.30    -0.83072 ( 98.46%)    -0.74879 (  1.54%)    -0.82945
      22    162.95    -0.74991 ( 99.12%)    -0.70655 (  0.88%)    -0.74953
      23    168.76    -0.73024 ( 99.24%)    -0.69617 (  0.76%)    -0.72998
      24    174.77    -0.71065 ( 99.33%)    -0.68580 (  0.67%)    -0.71048
      25    194.82    -0.65040 ( 99.57%)    -0.65363 (  0.43%)    -0.65041
      26    203.87    -0.62549 ( 99.64%)    -0.64019 (  0.36%)    -0.62555
      27    226.93    -0.56741 ( 99.76%)    -0.60844 (  0.24%)    -0.56751
      28    247.54    -0.52117 ( 99.83%)    -0.58269 (  0.17%)    -0.52128
      29    251.65    -0.51251 ( 99.84%)    -0.57781 (  0.16%)    -0.51261
      30    276.50    -0.46368 ( 99.89%)    -0.54991 (  0.11%)    -0.46377
      31    287.87    -0.44318 ( 99.91%)    -0.53797 (  0.09%)    -0.44327
      32    294.62    -0.43150 ( 99.92%)    -0.53111 (  0.08%)    -0.43158
   ------------------------------------------------------------------------

   temp. (K)  partition function   enthalpy   heat capacity  entropy
                                   cal/mol     cal/K/mol   cal/K/mol   J/K/mol
 298.15  VIB  0.309E+18            19488.310    103.820    128.981
         ROT  0.129E+08              888.752      2.981     35.516
         INT  0.398E+25            20377.062    106.801    164.496
         TR   0.618E+28             1481.254      4.968     43.384
         TOT                       21858.3162   111.7691   207.8808   869.7731

       T/K    H(0)-H(T)+PV         H(T)/Eh          T*S/Eh         G(T)/Eh
   ------------------------------------------------------------------------
    298.15    0.348334E-01    0.473990E+00    0.987709E-01    0.375219E+00
   ------------------------------------------------------------------------

         :::::::::::::::::::::::::::::::::::::::::::::::::::::
         ::                  THERMODYNAMIC                  ::
         :::::::::::::::::::::::::::::::::::::::::::::::::::::
         :: total free energy         -80.562468378717 Eh   ::
         ::.................................................::
         :: total energy              -80.937687848106 Eh   ::
         :: zero point energy           0.439156883041 Eh   ::
         :: G(RRHO) w/o ZPVE           -0.063937413652 Eh   ::
         :: G(RRHO) contrib.            0.375219469389 Eh   ::
         :::::::::::::::::::::::::::::::::::::::::::::::::::::

           -------------------------------------------------
          | TOTAL ENERGY              -80.937687848106 Eh   |
          | TOTAL ENTHALPY            -80.463697520961 Eh   |
          | TOTAL FREE ENERGY         -80.562468378717 Eh   |
          | GRADIENT NORM               0.000082328967 Eh/α |
          | HOMO-LUMO GAP               5.460507774723 eV   |
           -------------------------------------------------

------------------------------------------------------------------------
 * finished run on 2024/01/10 at 18:23:29.885     
------------------------------------------------------------------------
 total:
 * wall-time:     0 d,  0 h,  0 min, 14.571 sec
 *  cpu-time:     0 d,  0 h,  0 min, 14.498 sec
 * ratio c/w:     0.995 speedup
 SCF:
 * wall-time:     0 d,  0 h,  0 min,  0.075 sec
 *  cpu-time:     0 d,  0 h,  0 min,  0.057 sec
 * ratio c/w:     0.756 speedup
 analytical hessian:
 * wall-time:     0 d,  0 h,  0 min, 14.470 sec
 *  cpu-time:     0 d,  0 h,  0 min, 14.415 sec
 * ratio c/w:     0.996 speedup

