 Entering Gaussian System
 *********************************************
 Gaussian 98:
 frequency output generated by the xtb code
 *********************************************
                         Standard orientation:
 --------------------------------------------------------------------
  Center     Atomic     Atomic              Coordinates (Angstroms)
  Number     Number      Type              X           Y           Z
 --------------------------------------------------------------------
    1          8             0       -0.841286    1.111368   -1.316244
    2          6             0       -1.009837    0.257300   -2.405260
    3          1             0       -1.926415    0.572870   -2.912548
    4          1             0       -0.181835    0.366777   -3.120859
    5          6             0       -1.064575   -1.235454   -2.043549
    6          1             0       -0.118018   -1.538556   -1.586050
    7          1             0       -1.202590   -1.793525   -2.971810
    8          7             0       -2.134821   -1.641601   -1.093937
    9          6             0       -1.816015   -1.181320    0.269483
   10          1             0       -2.604132   -1.516882    0.940316
   11          1             0       -1.748341   -0.096446    0.284955
   12          1             0       -0.861082   -1.610812    0.567901
   13          6             0       -2.191132   -3.113494   -1.067211
   14          1             0       -2.944923   -3.418068   -0.343274
   15          1             0       -1.214767   -3.496040   -0.774363
   16          1             0       -2.457620   -3.500175   -2.048623
   17          6             0       -3.452724   -1.117615   -1.479251
   18          1             0       -3.687027   -1.402222   -2.503397
   19          1             0       -3.464111   -0.034259   -1.389634
   20          1             0       -4.196942   -1.538181   -0.803314
   21          1             0        0.043767    0.917333   -0.908251
   22          6             0        1.994153   -2.943843   -0.036652
   23          8             0        0.781212   -2.916448   -0.209518
   24          7             0        2.728066   -1.826707    0.136847
   25          1             0        2.286036   -0.918789   -0.014774
   26          1             0        3.730847   -1.875958    0.122902
   27          7             0        2.680865   -4.120067   -0.017484
   28          1             0        3.635823   -4.163180    0.289218
   29          1             0        2.148531   -4.971756    0.004980
   30          6             0        4.184462    5.877595    0.562196
   31          8             0        3.626225    4.794966    0.447409
   32          7             0        3.492601    7.038525    0.662147
   33          1             0        2.495218    6.989011    0.771900
   34          1             0        3.945928    7.906306    0.883281
   35          7             0        5.534261    5.993994    0.596179
   36          1             0        5.988453    6.888525    0.566045
   37          1             0        6.087831    5.179808    0.396884
   38          6             0        2.156677    1.812042   -0.143866
   39          8             0        1.594715    0.717362   -0.307711
   40          7             0        3.389854    1.917617    0.385883
   41          1             0        3.823286    1.113953    0.801784
   42          1             0        3.755320    2.841761    0.568008
   43          7             0        1.593013    2.970067   -0.519926
   44          1             0        2.075495    3.834858   -0.325019
   45          1             0        0.668756    2.970847   -0.915426
   46          6             0       -5.353644   -3.169430    1.792779
   47          8             0       -4.569392   -2.727352    0.965712
   48          7             0       -4.939928   -3.875919    2.873079
   49          1             0       -3.968629   -4.121527    2.941534
   50          1             0       -5.586557   -4.328108    3.492847
   51          7             0       -6.692279   -2.987106    1.691116
   52          1             0       -7.323718   -3.259552    2.421760
   53          1             0       -7.041072   -2.388173    0.964551
 --------------------------------------------------------------------
     1 basis functions        1 primitive gaussians
     1 alpha electrons        1 beta electrons

 Harmonic frequencies (cm**-1), IR intensities (km*mol⁻¹),
 Raman scattering activities (A**4/amu), Raman depolarization ratios,
 reduced masses (AMU), force constants (mDyne/A) and normal coordinates:
                      1                      2                      3
                        a                      a                      a 
 Frequencies --     6.2692                 6.8097                10.6052
 Red. masses --    12.0210                11.5178                11.1591
 Frc consts  --     0.0000                 0.0000                 0.0000
 IR Inten    --     0.7934                 0.3817                 0.2228
 Raman Activ --     0.0000                 0.0000                 0.0000
 Depolar     --     0.0000                 0.0000                 0.0000
 Atom AN      X      Y      Z        X      Y      Z        X      Y      Z
   1   8     0.05  -0.07  -0.24     0.02  -0.03  -0.15     0.00  -0.05  -0.12
   2   6     0.03  -0.12  -0.16     0.00  -0.06  -0.10     0.01  -0.08  -0.07
   3   1     0.01  -0.04  -0.05     0.00  -0.02  -0.03     0.00  -0.03  -0.02
   4   1     0.01  -0.05  -0.05     0.00  -0.02  -0.03     0.00  -0.03  -0.02
   5   6     0.02  -0.10  -0.07    -0.00  -0.05  -0.06     0.01  -0.07  -0.03
   6   1     0.01  -0.03  -0.02    -0.00  -0.01  -0.02     0.00  -0.01  -0.00
   7   1     0.00  -0.04  -0.01    -0.00  -0.02  -0.01     0.01  -0.03  -0.00
   8   7     0.04  -0.04  -0.03     0.00  -0.01  -0.04     0.01  -0.05  -0.02
   9   6     0.07   0.03  -0.06     0.02   0.02  -0.05     0.00   0.01  -0.03
  10   1     0.02   0.02  -0.01     0.01   0.01  -0.01    -0.00   0.01  -0.01
  11   1     0.02   0.01  -0.03     0.01   0.01  -0.02    -0.00   0.00  -0.02
  12   1     0.02   0.01  -0.02     0.00   0.01  -0.01     0.00   0.01  -0.00
  13   6     0.01  -0.03   0.05    -0.01  -0.01   0.00     0.02  -0.04   0.04
  14   1     0.01   0.01   0.02    -0.00   0.00   0.01     0.01  -0.01   0.01
  15   1     0.00  -0.01   0.01    -0.00  -0.00   0.00     0.01  -0.01   0.02
  16   1    -0.01  -0.02   0.02    -0.01  -0.01   0.00     0.01  -0.02   0.01
  17   6     0.04  -0.03  -0.03     0.00  -0.02  -0.04     0.01  -0.07  -0.04
  18   1     0.00  -0.02  -0.00    -0.00  -0.01  -0.01     0.01  -0.03  -0.01
  19   1     0.02  -0.01  -0.02     0.00  -0.00  -0.02     0.00  -0.02  -0.02
  20   1     0.01   0.01   0.00     0.00   0.00  -0.01     0.00  -0.01  -0.01
  21   1     0.01  -0.01  -0.06     0.00  -0.01  -0.04     0.00  -0.01  -0.03
  22   6     0.04  -0.03  -0.05     0.00  -0.02  -0.06     0.02   0.02   0.05
  23   8     0.04  -0.05  -0.03     0.00  -0.02  -0.03     0.02   0.01   0.06
  24   7     0.04  -0.02  -0.08     0.01  -0.02  -0.08     0.02   0.03  -0.00
  25   1     0.01  -0.01  -0.03     0.00  -0.01  -0.02     0.00   0.01  -0.01
  26   1     0.01  -0.00  -0.03     0.00  -0.01  -0.03     0.00   0.01   0.00
  27   7     0.05  -0.03  -0.05     0.00  -0.02  -0.07     0.02   0.02   0.11
  28   1     0.02  -0.00  -0.02     0.00  -0.01  -0.03     0.01   0.01   0.03
  29   1     0.02  -0.01  -0.01    -0.00  -0.01  -0.01     0.01   0.01   0.04
  30   6    -0.13  -0.02   0.12    -0.06  -0.03   0.11    -0.01  -0.00   0.07
  31   8    -0.11  -0.04   0.10    -0.06  -0.04   0.09    -0.08   0.04   0.03
  32   7    -0.18  -0.03   0.01    -0.08  -0.04   0.08     0.05  -0.02   0.66
  33   1    -0.05  -0.01  -0.03    -0.02  -0.01   0.01     0.03  -0.01   0.29
  34   1    -0.06  -0.00   0.01    -0.03  -0.01   0.03     0.04  -0.02   0.19
  35   7    -0.15   0.01   0.31    -0.07  -0.03   0.20     0.01  -0.03  -0.46
  36   1    -0.04   0.01   0.09    -0.02  -0.01   0.06     0.00  -0.01  -0.12
  37   1    -0.03   0.00   0.11    -0.01  -0.01   0.06    -0.02   0.00  -0.25
  38   6    -0.02  -0.04  -0.06    -0.01  -0.03  -0.04    -0.02   0.02  -0.07
  39   8     0.00  -0.05  -0.13    -0.00  -0.03  -0.10     0.01   0.01  -0.10
  40   7    -0.06  -0.04   0.04    -0.04  -0.04   0.01    -0.02   0.04  -0.08
  41   1    -0.02  -0.01   0.02    -0.01  -0.01   0.00    -0.00   0.01  -0.02
  42   1    -0.02  -0.01   0.02    -0.01  -0.01   0.01    -0.01   0.01  -0.01
  43   7     0.00  -0.04  -0.09    -0.00  -0.03  -0.04    -0.06   0.01  -0.05
  44   1    -0.01  -0.01  -0.01    -0.00  -0.01  -0.00    -0.02   0.01  -0.01
  45   1     0.01  -0.01  -0.04     0.00  -0.01  -0.02    -0.01  -0.00  -0.01
  46   6     0.05   0.17   0.10     0.06   0.11   0.08    -0.01   0.05   0.01
  47   8     0.06   0.14   0.09     0.03   0.08   0.03     0.00   0.02   0.01
  48   7     0.02  -0.09  -0.05     0.15   0.59   0.36    -0.03   0.04   0.01
  49   1    -0.01  -0.09  -0.05     0.06   0.24   0.15    -0.01   0.00   0.00
  50   1    -0.00  -0.01  -0.01     0.06   0.16   0.12    -0.01   0.02   0.01
  51   7     0.09   0.51   0.29     0.02  -0.29  -0.11    -0.00   0.10   0.02
  52   1     0.03   0.14   0.09     0.01  -0.06  -0.02    -0.00   0.03   0.01
  53   1     0.04   0.19   0.12    -0.02  -0.17  -0.09     0.00   0.03   0.00
                      4                      5                      6
                        a                      a                      a 
 Frequencies --    14.0931                18.3624                18.7797
 Red. masses --    11.9397                12.2996                11.8966
 Frc consts  --     0.0000                 0.0000                 0.0000
 IR Inten    --     3.3679                 1.5562                 2.1212
 Raman Activ --     0.0000                 0.0000                 0.0000
 Depolar     --     0.0000                 0.0000                 0.0000
 Atom AN      X      Y      Z        X      Y      Z        X      Y      Z
   1   8     0.13  -0.01   0.16     0.02   0.02  -0.01    -0.03  -0.06   0.06
   2   6     0.07   0.05   0.11     0.07   0.04  -0.03    -0.00  -0.06   0.06
   3   1     0.02   0.03   0.04     0.03   0.02  -0.02    -0.00  -0.02   0.01
   4   1     0.02   0.01   0.03     0.03   0.01   0.00    -0.00  -0.01   0.02
   5   6     0.02   0.04   0.04     0.04   0.03  -0.07     0.03  -0.06   0.06
   6   1     0.00  -0.00   0.01     0.01   0.00  -0.02     0.01  -0.01   0.01
   7   1    -0.00   0.02   0.01     0.02   0.02  -0.03     0.01  -0.02   0.02
   8   7     0.01   0.04   0.04     0.02   0.03  -0.11     0.07  -0.08   0.09
   9   6     0.04  -0.03   0.05     0.01  -0.03  -0.08     0.09  -0.09   0.08
  10   1     0.01  -0.01   0.01    -0.00  -0.01  -0.03     0.03  -0.03   0.03
  11   1     0.02  -0.01   0.03     0.01  -0.01  -0.01     0.02  -0.03   0.03
  12   1     0.01  -0.02   0.01     0.00  -0.02  -0.02     0.03  -0.02   0.01
  13   6    -0.03   0.03  -0.02    -0.02   0.03  -0.16     0.07  -0.08   0.07
  14   1    -0.01   0.01  -0.01    -0.01   0.01  -0.05     0.03  -0.03   0.03
  15   1    -0.01  -0.00  -0.01    -0.01  -0.00  -0.05     0.02  -0.02   0.01
  16   1    -0.01   0.02  -0.01    -0.01   0.02  -0.05     0.01  -0.02   0.02
  17   6     0.03   0.09   0.06     0.04   0.08  -0.10     0.05  -0.08   0.12
  18   1     0.00   0.04   0.02     0.01   0.03  -0.03     0.01  -0.02   0.04
  19   1     0.02   0.02   0.03     0.02   0.02  -0.02     0.01  -0.02   0.04
  20   1     0.01   0.02   0.01     0.01   0.02  -0.03     0.02  -0.03   0.04
  21   1     0.04  -0.01   0.03    -0.01  -0.00   0.02    -0.01  -0.01   0.02
  22   6    -0.01  -0.12  -0.05    -0.03  -0.06  -0.02     0.15   0.01  -0.16
  23   8    -0.01  -0.08  -0.05    -0.03  -0.09  -0.12     0.16  -0.04  -0.09
  24   7     0.04  -0.16  -0.05    -0.08  -0.06   0.15     0.11   0.03  -0.14
  25   1     0.02  -0.04  -0.00    -0.03  -0.02   0.05     0.01   0.01  -0.01
  26   1     0.01  -0.06  -0.01    -0.02  -0.01   0.06     0.03   0.02  -0.06
  27   7    -0.06  -0.16  -0.08    -0.00  -0.04  -0.09     0.22   0.04  -0.33
  28   1    -0.02  -0.06  -0.02    -0.01  -0.01  -0.01     0.07   0.02  -0.10
  29   1    -0.03  -0.04  -0.02     0.01  -0.02  -0.06     0.07   0.00  -0.09
  30   6    -0.13   0.08  -0.04    -0.05  -0.02  -0.09    -0.01   0.01  -0.03
  31   8     0.12  -0.05  -0.07    -0.08  -0.04   0.14    -0.11   0.05   0.09
  32   7    -0.42  -0.09   0.07    -0.03  -0.01  -0.13     0.09   0.07  -0.10
  33   1    -0.11  -0.09   0.04    -0.00   0.00   0.02     0.02   0.04  -0.01
  34   1    -0.16   0.00   0.02     0.00   0.00  -0.08     0.04   0.01  -0.05
  35   7    -0.17   0.41  -0.14    -0.05  -0.02  -0.35     0.00  -0.09  -0.12
  36   1    -0.10   0.14  -0.03    -0.01  -0.01  -0.14     0.02  -0.04  -0.06
  37   1     0.00   0.15  -0.06    -0.02  -0.01  -0.09    -0.02  -0.04  -0.02
  38   6     0.15  -0.08   0.02    -0.09  -0.04   0.25    -0.06   0.02   0.10
  39   8     0.17  -0.10   0.03    -0.12  -0.05   0.28    -0.04   0.01   0.11
  40   7     0.21  -0.10  -0.07    -0.14  -0.05   0.37    -0.08   0.05   0.13
  41   1     0.07  -0.03  -0.04    -0.05  -0.01   0.12    -0.02   0.02   0.04
  42   1     0.06  -0.03  -0.03    -0.04  -0.01   0.09    -0.03   0.02   0.04
  43   7     0.13  -0.08   0.10    -0.05  -0.05   0.18    -0.09   0.01   0.10
  44   1     0.04  -0.02   0.02    -0.01  -0.01   0.05    -0.03   0.01   0.03
  45   1     0.03  -0.02   0.04    -0.00  -0.01   0.03    -0.02  -0.00   0.02
  46   6    -0.06   0.07  -0.02     0.13   0.07   0.00    -0.13   0.07  -0.01
  47   8    -0.03   0.06  -0.00     0.04   0.05  -0.11     0.03  -0.05   0.09
  48   7    -0.12   0.09   0.01     0.27   0.12  -0.02    -0.39   0.12   0.10
  49   1    -0.03   0.02   0.01     0.07   0.03  -0.04    -0.11   0.01   0.07
  50   1    -0.04   0.03  -0.00     0.09   0.03   0.02    -0.14   0.06   0.01
  51   7    -0.06   0.08  -0.09     0.12   0.08   0.16    -0.11   0.19  -0.25
  52   1    -0.02   0.03  -0.03     0.06   0.03   0.06    -0.07   0.08  -0.09
  53   1    -0.01   0.02  -0.03     0.01   0.01   0.05     0.02   0.05  -0.09
                      7                      8                      9
                        a                      a                      a 
 Frequencies --    29.4851                31.7071                36.6405
 Red. masses --    11.9200                12.9997                12.3805
 Frc consts  --     0.0000                 0.0000                 0.0000
 IR Inten    --     2.2540                 3.0859                 2.0698
 Raman Activ --     0.0000                 0.0000                 0.0000
 Depolar     --     0.0000                 0.0000                 0.0000
 Atom AN      X      Y      Z        X      Y      Z        X      Y      Z
   1   8    -0.06  -0.08   0.28    -0.15   0.05   0.02    -0.15   0.03  -0.06
   2   6    -0.02   0.05   0.14    -0.03   0.03   0.01    -0.03  -0.04  -0.01
   3   1    -0.01   0.03   0.05    -0.01  -0.00  -0.01    -0.01  -0.03  -0.02
   4   1    -0.00   0.04   0.05     0.00   0.02   0.02    -0.00  -0.01   0.00
   5   6     0.00   0.01  -0.03     0.01   0.03   0.01     0.04  -0.03   0.05
   6   1    -0.00  -0.00  -0.01     0.01   0.02   0.00     0.01   0.02   0.04
   7   1     0.01   0.03  -0.03     0.01   0.01   0.00     0.05  -0.02   0.02
   8   7    -0.01  -0.13  -0.11     0.03  -0.00   0.01    -0.01  -0.06  -0.02
   9   6    -0.07  -0.23  -0.05     0.04  -0.05   0.02    -0.16   0.05  -0.02
  10   1    -0.03  -0.09  -0.03     0.01  -0.02   0.00    -0.06   0.01  -0.02
  11   1    -0.03  -0.07   0.01     0.01  -0.01   0.02    -0.07   0.02  -0.02
  12   1    -0.02  -0.07  -0.02     0.01  -0.01  -0.00    -0.05   0.04   0.03
  13   6     0.04  -0.12  -0.24     0.03  -0.00  -0.04     0.11  -0.06   0.07
  14   1     0.01  -0.06  -0.08     0.01  -0.01  -0.01     0.02  -0.02   0.01
  15   1     0.01  -0.03  -0.07     0.01  -0.00  -0.02     0.03   0.01   0.05
  16   1     0.02  -0.01  -0.08     0.00   0.01  -0.02     0.07  -0.04   0.02
  17   6    -0.02  -0.13  -0.10     0.02   0.01   0.04    -0.02  -0.19  -0.16
  18   1     0.01  -0.01  -0.04     0.00   0.01   0.01     0.03  -0.08  -0.05
  19   1    -0.02  -0.04  -0.00     0.01   0.00   0.02    -0.03  -0.05  -0.07
  20   1    -0.01  -0.06  -0.05     0.01  -0.00   0.01    -0.01  -0.06  -0.06
  21   1    -0.01  -0.02   0.06    -0.05   0.02   0.03    -0.04   0.03  -0.00
  22   6    -0.00  -0.03   0.01     0.03   0.04   0.00     0.04   0.13   0.01
  23   8     0.01  -0.05  -0.12     0.05  -0.04  -0.10     0.00   0.13   0.31
  24   7    -0.03  -0.03   0.08    -0.08   0.09   0.23     0.08   0.15  -0.25
  25   1    -0.00  -0.01   0.01    -0.04   0.02   0.07     0.00   0.04  -0.05
  26   1    -0.01  -0.01   0.06    -0.02   0.05   0.07     0.02   0.04  -0.13
  27   7    -0.00  -0.03   0.09     0.15   0.11  -0.11     0.06   0.14  -0.09
  28   1    -0.01  -0.01   0.05     0.03   0.04  -0.01     0.03   0.04  -0.07
  29   1     0.00  -0.01   0.01     0.06   0.02  -0.07     0.02   0.04   0.03
  30   6     0.01   0.05   0.01     0.05  -0.05  -0.05     0.10  -0.06  -0.01
  31   8    -0.05   0.11  -0.15     0.20  -0.09  -0.45     0.30  -0.18   0.02
  32   7     0.08   0.09   0.05    -0.08  -0.16   0.21    -0.09  -0.18  -0.04
  33   1     0.02   0.04  -0.02    -0.02  -0.08   0.02    -0.02  -0.09  -0.01
  34   1     0.03   0.01   0.04    -0.05  -0.05   0.13    -0.06  -0.03  -0.02
  35   7     0.02  -0.03   0.16     0.04   0.08   0.14     0.08   0.16  -0.03
  36   1     0.02  -0.02   0.07    -0.02   0.04   0.11    -0.02   0.06  -0.01
  37   1    -0.00  -0.01   0.03     0.04   0.05  -0.01     0.06   0.07   0.00
  38   6     0.00   0.04  -0.02    -0.09  -0.02   0.01    -0.05  -0.01   0.08
  39   8     0.05   0.01   0.04    -0.26   0.02   0.26    -0.15   0.05  -0.02
  40   7     0.10   0.11  -0.27    -0.13  -0.07   0.09    -0.01  -0.16   0.01
  41   1     0.07   0.03  -0.11    -0.08  -0.01   0.10    -0.01  -0.06  -0.04
  42   1     0.02   0.04  -0.08    -0.00  -0.02  -0.03     0.03  -0.06   0.01
  43   7    -0.16   0.02   0.14     0.11  -0.04  -0.35    -0.02   0.08   0.30
  44   1    -0.05   0.01   0.02     0.06  -0.02  -0.14     0.03   0.00   0.07
  45   1    -0.06  -0.01   0.08     0.04  -0.00  -0.11    -0.00   0.05   0.07
  46   6     0.02   0.06   0.00     0.02   0.01   0.01    -0.03   0.01  -0.03
  47   8    -0.02  -0.24  -0.20     0.06  -0.04   0.01    -0.11  -0.09  -0.16
  48   7     0.05   0.23   0.10    -0.03   0.03   0.04     0.06   0.07  -0.02
  49   1     0.00   0.01  -0.00    -0.01  -0.00   0.02     0.01   0.01  -0.03
  50   1     0.01   0.11   0.07    -0.02   0.02   0.01     0.03   0.04   0.02
  51   7     0.04   0.28   0.15     0.03   0.05  -0.03    -0.03   0.06   0.11
  52   1     0.02   0.13   0.07     0.00   0.02  -0.01     0.01   0.03   0.05
  53   1     0.01   0.04   0.01     0.02   0.01  -0.02    -0.02   0.00   0.02
                     10                     11                     12
                        a                      a                      a 
 Frequencies --    38.4797                44.2189                51.4381
 Red. masses --    12.3810                12.9051                12.7960
 Frc consts  --     0.0000                 0.0000                 0.0000
 IR Inten    --     1.7986                 1.5492                 2.1177
 Raman Activ --     0.0000                 0.0000                 0.0000
 Depolar     --     0.0000                 0.0000                 0.0000
 Atom AN      X      Y      Z        X      Y      Z        X      Y      Z
   1   8    -0.13   0.11  -0.08     0.06  -0.07  -0.18    -0.07   0.16   0.16
   2   6    -0.15   0.12  -0.08     0.11  -0.13  -0.11     0.06   0.14   0.12
   3   1    -0.06   0.03  -0.00     0.04  -0.04  -0.06     0.02   0.03   0.02
   4   1    -0.06   0.05  -0.04     0.05  -0.06  -0.02     0.03   0.06   0.05
   5   6    -0.06   0.10  -0.11     0.04  -0.10  -0.02     0.13   0.14   0.12
   6   1    -0.00   0.04  -0.05     0.01  -0.04  -0.00     0.03   0.06   0.05
   7   1    -0.03   0.03  -0.03     0.00  -0.04   0.01     0.06   0.04   0.03
   8   7     0.03   0.05  -0.03     0.03   0.02   0.02     0.11   0.11   0.08
   9   6     0.14  -0.00  -0.04     0.09   0.04   0.00     0.04   0.07   0.10
  10   1     0.06  -0.02   0.00     0.02   0.03   0.01     0.00   0.01   0.02
  11   1     0.03  -0.00   0.00     0.04   0.01  -0.01     0.00   0.02   0.04
  12   1     0.05   0.00  -0.04     0.02  -0.00  -0.00     0.01   0.02   0.04
  13   6     0.06   0.04  -0.08    -0.08   0.02   0.07     0.11   0.10   0.03
  14   1     0.04  -0.00  -0.01    -0.03   0.03   0.03     0.02   0.02  -0.01
  15   1     0.03   0.01  -0.05    -0.03  -0.01   0.02     0.03   0.03   0.02
  16   1    -0.01   0.02  -0.02    -0.04   0.00   0.03     0.05   0.04   0.00
  17   6    -0.01   0.04   0.11     0.06   0.11   0.03     0.11   0.11   0.03
  18   1    -0.03   0.02   0.03     0.00   0.02   0.01     0.04   0.04   0.00
  19   1    -0.01   0.01   0.04     0.05   0.03  -0.01     0.03   0.03   0.02
  20   1     0.02  -0.00   0.05     0.01   0.06   0.02     0.02   0.02  -0.00
  21   1    -0.03   0.02  -0.03     0.01  -0.02  -0.02    -0.03   0.03   0.06
  22   6     0.03   0.05   0.06    -0.02  -0.07  -0.01     0.05  -0.02   0.06
  23   8     0.08   0.02  -0.24    -0.02  -0.13  -0.02     0.03   0.00   0.29
  24   7    -0.03   0.09   0.17    -0.06  -0.05  -0.01     0.12  -0.03  -0.16
  25   1    -0.01   0.02  -0.00    -0.02  -0.01   0.01     0.02  -0.01  -0.02
  26   1    -0.01   0.03   0.10    -0.01  -0.01   0.01     0.03  -0.01  -0.09
  27   7     0.06   0.08   0.32     0.03  -0.05  -0.03     0.03  -0.04   0.02
  28   1    -0.00   0.03   0.14     0.01  -0.01  -0.01     0.02  -0.01  -0.04
  29   1     0.02   0.02   0.06     0.02  -0.02  -0.02     0.00  -0.01   0.05
  30   6    -0.00  -0.12   0.01     0.05   0.04  -0.08    -0.16  -0.15  -0.03
  31   8     0.08  -0.20   0.15     0.07   0.08  -0.41    -0.28  -0.12  -0.09
  32   7    -0.09  -0.17  -0.09     0.05   0.03   0.09    -0.07  -0.11   0.00
  33   1    -0.02  -0.06  -0.01     0.01   0.01  -0.02    -0.02  -0.01  -0.01
  34   1    -0.04  -0.03  -0.05     0.01  -0.00   0.08     0.00  -0.04   0.01
  35   7    -0.01  -0.02  -0.07     0.05   0.03   0.13    -0.16  -0.30  -0.01
  36   1    -0.02   0.00  -0.04     0.02   0.01   0.09    -0.02  -0.09   0.01
  37   1     0.01   0.00   0.00     0.02   0.02  -0.00    -0.06  -0.09  -0.01
  38   6    -0.06  -0.05  -0.03    -0.12   0.02   0.11    -0.09  -0.08  -0.06
  39   8    -0.10  -0.02  -0.19    -0.07  -0.01   0.13    -0.13  -0.10   0.08
  40   7    -0.02  -0.16  -0.14    -0.02   0.07  -0.14    -0.01  -0.06  -0.25
  41   1     0.01  -0.06  -0.10     0.05   0.02  -0.11    -0.01  -0.01  -0.04
  42   1     0.01  -0.05  -0.01     0.00   0.02  -0.07    -0.01  -0.01  -0.07
  43   7    -0.11   0.03   0.26    -0.34   0.03   0.46    -0.13  -0.11  -0.08
  44   1    -0.01  -0.01   0.08    -0.07   0.01   0.06    -0.04  -0.03  -0.03
  45   1    -0.03   0.03   0.08    -0.09  -0.00   0.12    -0.05  -0.04   0.01
  46   6     0.08  -0.01   0.03     0.01   0.04   0.00     0.07   0.06  -0.09
  47   8     0.25  -0.06   0.15     0.01   0.26   0.11     0.05   0.11  -0.11
  48   7    -0.12  -0.03   0.09     0.04  -0.06  -0.08     0.11   0.06  -0.12
  49   1    -0.04  -0.02   0.06     0.02   0.02  -0.01     0.03   0.02  -0.04
  50   1    -0.06   0.00  -0.00     0.02  -0.05  -0.04     0.04   0.01  -0.03
  51   7     0.11   0.07  -0.17    -0.00  -0.11  -0.05     0.07   0.04  -0.07
  52   1    -0.00   0.03  -0.07    -0.00  -0.07  -0.03     0.02   0.00  -0.02
  53   1     0.07   0.03  -0.06    -0.01  -0.01   0.01     0.01   0.01  -0.02
                     13                     14                     15
                        a                      a                      a 
 Frequencies --    60.6550                64.4670                72.9031
 Red. masses --    12.6246                12.0070                13.5108
 Frc consts  --     0.0000                 0.0000                 0.0000
 IR Inten    --     0.0683                 5.9775                 6.5846
 Raman Activ --     0.0000                 0.0000                 0.0000
 Depolar     --     0.0000                 0.0000                 0.0000
 Atom AN      X      Y      Z        X      Y      Z        X      Y      Z
   1   8     0.04  -0.04  -0.02     0.17   0.05  -0.04     0.13   0.04  -0.02
   2   6     0.02  -0.05  -0.00    -0.05   0.07  -0.02    -0.05   0.07  -0.01
   3   1     0.01  -0.01  -0.00    -0.03   0.04   0.03    -0.03   0.03   0.03
   4   1     0.01  -0.02  -0.00    -0.04   0.02  -0.04    -0.04   0.02  -0.03
   5   6    -0.01  -0.04   0.03    -0.05   0.07  -0.05    -0.06   0.07  -0.04
   6   1    -0.00  -0.01   0.01    -0.01   0.02  -0.01    -0.01   0.01  -0.03
   7   1    -0.00  -0.02   0.01    -0.01   0.02  -0.02    -0.04   0.02  -0.01
   8   7    -0.02  -0.00   0.03    -0.05   0.04  -0.06    -0.01   0.07   0.02
   9   6    -0.04   0.05   0.01    -0.16   0.22  -0.09     0.04   0.10  -0.01
  10   1    -0.02   0.03   0.00    -0.04   0.05  -0.02     0.02   0.03   0.01
  11   1    -0.01   0.02  -0.01    -0.09   0.07  -0.05     0.00   0.03  -0.01
  12   1    -0.01   0.02   0.01    -0.03   0.11  -0.00     0.02   0.04  -0.01
  13   6    -0.02   0.00   0.09     0.14   0.03   0.09     0.04   0.06   0.06
  14   1    -0.01   0.01   0.02     0.05   0.00   0.03     0.02   0.01   0.02
  15   1    -0.01   0.00   0.03     0.05   0.05   0.05     0.02   0.03   0.01
  16   1    -0.00  -0.01   0.03     0.07  -0.03   0.04     0.01   0.01   0.02
  17   6    -0.01  -0.02  -0.02    -0.10  -0.19  -0.16    -0.04   0.01   0.06
  18   1     0.00  -0.02  -0.00    -0.01  -0.10  -0.04    -0.02   0.00   0.02
  19   1    -0.00  -0.00  -0.02    -0.08  -0.05  -0.08    -0.02   0.00   0.02
  20   1    -0.01   0.00  -0.01    -0.02  -0.06  -0.04    -0.00  -0.00   0.02
  21   1     0.01  -0.01  -0.01     0.04  -0.03  -0.01     0.03  -0.02  -0.02
  22   6     0.09   0.09   0.03    -0.06   0.06   0.02     0.18   0.06  -0.06
  23   8     0.12   0.07  -0.10    -0.07   0.30   0.07     0.24   0.18  -0.30
  24   7    -0.01   0.10   0.54     0.10  -0.07   0.22     0.27   0.01  -0.10
  25   1    -0.01   0.02   0.13     0.05  -0.00   0.07     0.09   0.01  -0.05
  26   1    -0.00   0.04   0.13     0.02  -0.05   0.03     0.07  -0.02   0.03
  27   7     0.19   0.15  -0.32    -0.24  -0.05  -0.24     0.06  -0.01   0.24
  28   1     0.04   0.03  -0.05    -0.07  -0.07  -0.06     0.01  -0.02   0.10
  29   1     0.07   0.03  -0.17    -0.10   0.01  -0.09    -0.00   0.01   0.06
  30   6    -0.05  -0.07   0.04    -0.04  -0.01  -0.05    -0.04  -0.04  -0.07
  31   8    -0.07  -0.09   0.18    -0.09   0.03  -0.21    -0.06  -0.02  -0.27
  32   7    -0.04  -0.06  -0.05     0.01   0.01   0.04    -0.02  -0.05   0.04
  33   1    -0.01  -0.01   0.00    -0.00   0.01  -0.01    -0.01  -0.01  -0.01
  34   1    -0.01  -0.01  -0.04     0.01  -0.01   0.04    -0.00  -0.02   0.04
  35   7    -0.05  -0.08  -0.04    -0.04  -0.07   0.03    -0.04  -0.09   0.03
  36   1    -0.01  -0.02  -0.03     0.00  -0.02   0.03    -0.00  -0.03   0.04
  37   1    -0.02  -0.03   0.01    -0.02  -0.02  -0.01    -0.01  -0.02  -0.02
  38   6     0.06  -0.03  -0.07     0.04  -0.07   0.06     0.01  -0.07   0.06
  39   8     0.04  -0.03  -0.01     0.12  -0.13   0.07     0.12  -0.12  -0.08
  40   7     0.17  -0.04  -0.31     0.03   0.00   0.07    -0.09  -0.01   0.25
  41   1     0.05  -0.01  -0.09     0.03   0.01   0.01     0.00  -0.00   0.04
  42   1     0.03  -0.01  -0.06    -0.00   0.01   0.00    -0.02   0.00   0.05
  43   7     0.00  -0.02   0.04    -0.05  -0.12   0.10    -0.06  -0.10   0.09
  44   1    -0.00  -0.01   0.02    -0.02  -0.02   0.01    -0.02  -0.02   0.01
  45   1    -0.02  -0.01   0.05    -0.01  -0.05   0.02     0.01  -0.04  -0.02
  46   6    -0.10   0.03  -0.01     0.10  -0.04   0.05    -0.16  -0.04  -0.00
  47   8    -0.24   0.13  -0.07     0.25  -0.13   0.14    -0.32  -0.09  -0.15
  48   7     0.05   0.02  -0.08    -0.09  -0.07   0.11     0.00   0.05  -0.00
  49   1     0.02   0.03  -0.05    -0.03  -0.03   0.06     0.00   0.01  -0.04
  50   1     0.04  -0.01  -0.01    -0.05   0.00   0.01     0.03   0.01   0.02
  51   7    -0.13  -0.08   0.12     0.13   0.07  -0.12    -0.19  -0.06   0.20
  52   1    -0.01  -0.04   0.05     0.01   0.04  -0.05    -0.02  -0.01   0.08
  53   1    -0.07  -0.02   0.05     0.07   0.03  -0.04    -0.08  -0.04   0.05
                     16                     17                     18
                        a                      a                      a 
 Frequencies --    81.8706                89.8021                97.2722
 Red. masses --    13.4190                13.7240                11.8907
 Frc consts  --     0.0000                 0.0000                 0.0000
 IR Inten    --     4.6526                 2.1317                 1.9947
 Raman Activ --     0.0000                 0.0000                 0.0000
 Depolar     --     0.0000                 0.0000                 0.0000
 Atom AN      X      Y      Z        X      Y      Z        X      Y      Z
   1   8     0.06   0.08  -0.22     0.10   0.01  -0.16     0.06  -0.19   0.09
   2   6     0.03   0.00  -0.12     0.18  -0.05  -0.11     0.11  -0.09   0.01
   3   1     0.01  -0.01  -0.04     0.07  -0.01  -0.07     0.05  -0.01  -0.02
   4   1     0.01  -0.01  -0.04     0.08  -0.04  -0.01     0.05  -0.03   0.03
   5   6     0.05   0.03  -0.01     0.07  -0.03  -0.05    -0.01  -0.11  -0.07
   6   1     0.02   0.02  -0.01     0.01  -0.02  -0.00    -0.01  -0.06  -0.02
   7   1     0.00  -0.01   0.01     0.02  -0.02  -0.01    -0.02  -0.01  -0.03
   8   7     0.09   0.11   0.07     0.02   0.07  -0.07    -0.05  -0.06  -0.08
   9   6     0.22   0.05   0.05     0.00   0.09  -0.07     0.07  -0.28  -0.03
  10   1     0.07   0.02   0.03     0.00   0.03  -0.02     0.02  -0.08  -0.01
  11   1     0.08   0.01   0.02    -0.00   0.03  -0.03     0.05  -0.08   0.03
  12   1     0.06  -0.01  -0.00     0.00   0.03  -0.02     0.01  -0.12  -0.04
  13   6    -0.02   0.10   0.03    -0.05   0.06  -0.02    -0.25  -0.05  -0.26
  14   1    -0.01   0.04   0.01    -0.02   0.03  -0.00    -0.08  -0.01  -0.08
  15   1    -0.01   0.01   0.00    -0.02   0.01   0.00    -0.09  -0.06  -0.09
  16   1    -0.02   0.04   0.01    -0.01   0.01  -0.00    -0.09   0.03  -0.09
  17   6     0.10   0.21   0.18     0.05   0.11  -0.11     0.02   0.21   0.05
  18   1     0.01   0.09   0.05     0.02   0.02  -0.03    -0.03   0.10   0.01
  19   1     0.05   0.06   0.08     0.03   0.03  -0.05     0.06   0.06   0.05
  20   1     0.03   0.05   0.05     0.01   0.05  -0.03    -0.00   0.08   0.02
  21   1     0.02   0.02  -0.05     0.00  -0.01   0.01     0.02  -0.04   0.02
  22   6    -0.08  -0.04   0.07    -0.01   0.06  -0.06    -0.00   0.24   0.06
  23   8    -0.11  -0.07   0.25    -0.00   0.10  -0.14    -0.03   0.38   0.22
  24   7    -0.10  -0.04   0.16     0.03   0.05  -0.21     0.11   0.19  -0.01
  25   1    -0.03  -0.01   0.04     0.01   0.02  -0.01     0.04   0.06   0.00
  26   1    -0.03  -0.01  -0.02     0.01   0.01   0.00     0.03   0.03  -0.05
  27   7    -0.04  -0.03  -0.18    -0.07   0.04   0.14    -0.10   0.20  -0.07
  28   1    -0.00  -0.01  -0.07    -0.02   0.01   0.04    -0.02   0.03  -0.04
  29   1    -0.01  -0.01  -0.05    -0.03   0.02   0.04    -0.05   0.07   0.01
  30   6     0.01   0.02  -0.01    -0.03  -0.03   0.03    -0.05  -0.10  -0.04
  31   8     0.00   0.02  -0.04    -0.05  -0.04   0.13    -0.05  -0.11  -0.12
  32   7     0.01   0.02   0.01    -0.02  -0.02  -0.02    -0.06  -0.12   0.00
  33   1     0.00   0.01  -0.00    -0.01  -0.00   0.01    -0.02  -0.03  -0.01
  34   1     0.00   0.00   0.01    -0.00  -0.00  -0.02    -0.02  -0.03   0.01
  35   7     0.01   0.01   0.00    -0.03  -0.04  -0.02    -0.05  -0.11  -0.01
  36   1     0.00   0.00   0.01    -0.01  -0.01  -0.02    -0.01  -0.03   0.02
  37   1     0.00   0.00  -0.00    -0.01  -0.02   0.01    -0.01  -0.03  -0.01
  38   6    -0.02   0.01  -0.05     0.02   0.02   0.10     0.06   0.01   0.02
  39   8     0.03   0.00  -0.19    -0.16   0.06   0.53     0.13  -0.01  -0.08
  40   7    -0.06   0.00   0.03     0.20  -0.00  -0.29     0.02   0.02   0.12
  41   1    -0.00  -0.01  -0.02     0.02   0.02   0.01     0.01   0.00   0.01
  42   1    -0.01  -0.00   0.01     0.05   0.00  -0.08     0.00   0.01   0.03
  43   7    -0.05   0.03   0.07     0.08  -0.00  -0.08     0.02  -0.01   0.06
  44   1    -0.01   0.01   0.02     0.03   0.00  -0.05    -0.00   0.00   0.02
  45   1    -0.00   0.01  -0.01    -0.01  -0.00   0.05     0.01  -0.01  -0.00
  46   6    -0.04  -0.16  -0.04    -0.07  -0.11   0.11     0.01   0.01   0.04
  47   8    -0.06  -0.55  -0.26    -0.05  -0.25   0.09     0.05   0.05   0.10
  48   7    -0.04   0.06   0.11    -0.14  -0.06   0.18    -0.03  -0.04   0.03
  49   1    -0.03  -0.05  -0.00    -0.05  -0.05   0.05    -0.01  -0.00   0.02
  50   1    -0.02   0.07   0.06    -0.05  -0.01   0.04    -0.01  -0.01  -0.00
  51   7    -0.01   0.08   0.08    -0.07  -0.03   0.10     0.02  -0.01  -0.02
  52   1     0.00   0.09   0.05    -0.02   0.02   0.04    -0.00  -0.01  -0.01
  53   1    -0.00  -0.03  -0.02    -0.01  -0.01   0.02     0.01   0.01  -0.00
                     19                     20                     21
                        a                      a                      a 
 Frequencies --   103.7012               115.7717               118.4772
 Red. masses --    12.3600                11.6045                12.2862
 Frc consts  --     0.0000                 0.0000                 0.0000
 IR Inten    --    12.9821                18.2185                10.2142
 Raman Activ --     0.0000                 0.0000                 0.0000
 Depolar     --     0.0000                 0.0000                 0.0000
 Atom AN      X      Y      Z        X      Y      Z        X      Y      Z
   1   8     0.00   0.14   0.05     0.08  -0.04   0.10     0.02  -0.01   0.10
   2   6     0.12   0.16  -0.00     0.18  -0.08   0.10     0.18  -0.03   0.08
   3   1     0.04   0.04  -0.02     0.08  -0.01  -0.02     0.06  -0.03  -0.01
   4   1     0.05   0.07   0.02     0.09  -0.05   0.07     0.07  -0.00   0.05
   5   6     0.16   0.14  -0.07     0.02  -0.05   0.17     0.23  -0.03   0.11
   6   1     0.04   0.05   0.00    -0.02  -0.04   0.09     0.06   0.01   0.05
   7   1     0.08   0.05  -0.03     0.03  -0.03   0.05     0.09  -0.02   0.04
   8   7     0.09   0.05  -0.20    -0.15   0.09   0.05     0.20  -0.05   0.07
   9   6    -0.04  -0.01  -0.13    -0.30   0.16   0.06     0.09  -0.02   0.08
  10   1    -0.03  -0.01  -0.06    -0.11   0.07  -0.01     0.01  -0.01   0.01
  11   1    -0.01  -0.00  -0.02    -0.07   0.05  -0.00     0.02  -0.00   0.02
  12   1    -0.02  -0.01  -0.02    -0.10   0.04   0.06     0.02   0.00   0.04
  13   6     0.12   0.05  -0.25    -0.21   0.08   0.14     0.20  -0.05   0.08
  14   1     0.02  -0.00  -0.09    -0.08   0.05   0.03     0.05  -0.01   0.02
  15   1     0.03   0.01  -0.06    -0.07   0.01   0.06     0.06  -0.01   0.03
  16   1     0.06   0.02  -0.08    -0.05   0.01   0.04     0.07  -0.02   0.02
  17   6     0.09   0.02  -0.25    -0.06   0.12  -0.18     0.20  -0.08  -0.02
  18   1     0.05   0.01  -0.08     0.02   0.02  -0.06     0.08  -0.03  -0.01
  19   1     0.01   0.00  -0.07    -0.01   0.04  -0.07     0.05  -0.02  -0.01
  20   1     0.02  -0.00  -0.09    -0.05   0.05  -0.08     0.05  -0.02  -0.02
  21   1     0.00   0.04   0.01     0.03   0.01   0.03     0.01   0.02   0.03
  22   6     0.03  -0.09   0.06     0.01  -0.02  -0.06    -0.15   0.05  -0.10
  23   8     0.02  -0.21   0.19     0.02  -0.22  -0.17    -0.15   0.18  -0.30
  24   7    -0.04  -0.04   0.05    -0.15   0.09  -0.04    -0.10  -0.01   0.02
  25   1    -0.02  -0.02   0.00    -0.05   0.01  -0.03    -0.00   0.01  -0.01
  26   1    -0.01   0.01  -0.03    -0.04   0.05   0.01    -0.03  -0.02   0.06
  27   7     0.16  -0.03  -0.06     0.21   0.10   0.06    -0.31  -0.02  -0.02
  28   1     0.05   0.02  -0.03     0.05   0.07   0.04    -0.09  -0.04   0.01
  29   1     0.07  -0.02   0.00     0.09   0.00   0.01    -0.11   0.01  -0.05
  30   6    -0.01  -0.00  -0.02    -0.06  -0.10  -0.04     0.03  -0.11   0.01
  31   8    -0.03   0.00  -0.06    -0.07  -0.11  -0.12     0.12  -0.18   0.07
  32   7    -0.00  -0.00   0.01    -0.07  -0.12   0.01    -0.07  -0.19  -0.03
  33   1    -0.00   0.00  -0.00    -0.02  -0.03  -0.01    -0.02  -0.08  -0.00
  34   1     0.00  -0.00   0.01    -0.02  -0.03   0.00    -0.04  -0.03  -0.02
  35   7    -0.01  -0.03   0.00    -0.07  -0.14  -0.01     0.02  -0.01  -0.02
  36   1     0.00  -0.01   0.01    -0.01  -0.04   0.02    -0.01   0.01  -0.01
  37   1    -0.01  -0.01  -0.00    -0.02  -0.04  -0.01     0.02   0.01   0.01
  38   6    -0.00   0.01  -0.05     0.07   0.09  -0.01    -0.07   0.13  -0.07
  39   8     0.04   0.01  -0.21     0.13   0.10  -0.18     0.05   0.09  -0.13
  40   7    -0.06  -0.01   0.08     0.02   0.08   0.12    -0.16   0.26   0.04
  41   1    -0.01  -0.01  -0.01     0.01   0.01  -0.01    -0.01   0.07  -0.03
  42   1    -0.01  -0.01   0.03     0.01   0.02   0.04    -0.04   0.07  -0.01
  43   7    -0.01   0.03   0.04     0.05   0.11   0.08    -0.18   0.10  -0.09
  44   1    -0.00   0.01   0.02     0.01   0.03   0.03    -0.07   0.03  -0.02
  45   1     0.01   0.01  -0.01     0.03   0.03  -0.01    -0.05   0.00  -0.03
  46   6    -0.14  -0.04   0.20     0.08  -0.05  -0.02    -0.03   0.00   0.02
  47   8    -0.14   0.07   0.32     0.15  -0.18  -0.04    -0.06   0.04   0.02
  48   7    -0.20  -0.11   0.20     0.00  -0.00   0.05    -0.01  -0.00   0.01
  49   1    -0.05  -0.03   0.06    -0.01  -0.03   0.02    -0.00  -0.00  -0.01
  50   1    -0.06  -0.07   0.02    -0.01   0.02   0.01     0.00  -0.02  -0.01
  51   7    -0.17  -0.13   0.15     0.11   0.07  -0.07    -0.05  -0.04   0.04
  52   1    -0.04  -0.03   0.05     0.01   0.04  -0.03    -0.00  -0.01   0.02
  53   1    -0.04   0.00   0.07     0.05   0.00  -0.04    -0.02   0.00   0.02
                     22                     23                     24
                        a                      a                      a 
 Frequencies --   123.7767               132.5779               171.3250
 Red. masses --    12.2621                11.9925                12.4904
 Frc consts  --     0.0000                 0.0000                 0.0000
 IR Inten    --    16.6107                10.9460                12.0985
 Raman Activ --     0.0000                 0.0000                 0.0000
 Depolar     --     0.0000                 0.0000                 0.0000
 Atom AN      X      Y      Z        X      Y      Z        X      Y      Z
   1   8    -0.00  -0.05   0.05    -0.28   0.02   0.01    -0.26   0.10  -0.16
   2   6     0.07  -0.02   0.02     0.14  -0.09   0.02    -0.09  -0.04  -0.07
   3   1     0.04   0.01  -0.02     0.07  -0.06  -0.08    -0.03  -0.05  -0.04
   4   1     0.04  -0.02   0.03     0.10  -0.02   0.07    -0.02  -0.01  -0.01
   5   6    -0.03  -0.01   0.02     0.18  -0.05   0.17     0.02  -0.01   0.07
   6   1    -0.02  -0.02   0.02     0.04   0.01   0.10     0.00   0.04   0.05
   7   1    -0.00  -0.00   0.01     0.10  -0.05   0.06     0.04  -0.03   0.03
   8   7    -0.12   0.08  -0.03     0.05   0.01   0.05    -0.04  -0.03   0.01
   9   6    -0.15   0.04  -0.01    -0.09  -0.03   0.10    -0.07  -0.08   0.04
  10   1    -0.05   0.01  -0.01    -0.05  -0.01  -0.00    -0.04  -0.01  -0.00
  11   1    -0.04   0.01   0.01    -0.03  -0.01   0.04     0.00  -0.02   0.02
  12   1    -0.05   0.01   0.00    -0.04  -0.01   0.05    -0.03  -0.04   0.02
  13   6    -0.19   0.08  -0.04    -0.05   0.01   0.02    -0.07  -0.02  -0.05
  14   1    -0.07   0.03  -0.02    -0.03   0.01  -0.01    -0.02  -0.01  -0.02
  15   1    -0.06   0.01  -0.00    -0.02  -0.01   0.02    -0.02  -0.02  -0.02
  16   1    -0.05   0.03  -0.01    -0.01   0.01   0.00    -0.03   0.01  -0.02
  17   6    -0.06   0.17  -0.09     0.13   0.11  -0.10    -0.01   0.03  -0.01
  18   1    -0.01   0.05  -0.03     0.07   0.04  -0.04     0.01   0.03  -0.01
  19   1     0.00   0.05  -0.02     0.06   0.03  -0.03     0.00   0.01   0.02
  20   1    -0.03   0.06  -0.04     0.01   0.04  -0.06    -0.01   0.00  -0.02
  21   1    -0.01  -0.03   0.03    -0.08   0.04   0.04    -0.06   0.08  -0.03
  22   6     0.17  -0.06   0.04    -0.01   0.06  -0.06     0.12  -0.14   0.03
  23   8     0.20   0.07   0.07     0.02   0.19  -0.21     0.16   0.08   0.01
  24   7     0.29  -0.14   0.08     0.06   0.00   0.06     0.30  -0.26   0.14
  25   1     0.09  -0.03   0.02     0.03   0.00  -0.02     0.10  -0.06   0.03
  26   1     0.08  -0.05   0.00     0.02  -0.02   0.02     0.08  -0.09   0.02
  27   7     0.07  -0.14  -0.01    -0.13  -0.00   0.01    -0.10  -0.29  -0.03
  28   1     0.02  -0.06   0.00    -0.04  -0.03   0.02    -0.03  -0.14  -0.01
  29   1    -0.00  -0.02  -0.00    -0.06   0.01  -0.03    -0.07  -0.05  -0.03
  30   6     0.12   0.03   0.07    -0.00   0.16   0.00    -0.05  -0.06  -0.03
  31   8     0.24  -0.03   0.22    -0.07   0.22  -0.03    -0.06  -0.06  -0.08
  32   7     0.01  -0.02  -0.04     0.11   0.24   0.03    -0.05  -0.08   0.01
  33   1     0.01  -0.03   0.02     0.03   0.09   0.01    -0.02  -0.02  -0.02
  34   1    -0.02   0.01  -0.02     0.05   0.05   0.03    -0.02  -0.02  -0.00
  35   7     0.12   0.19  -0.00     0.01   0.08   0.03    -0.05  -0.11  -0.01
  36   1     0.00   0.07  -0.04     0.02   0.01  -0.00    -0.00  -0.03   0.02
  37   1     0.06   0.06   0.02    -0.01   0.01  -0.01    -0.02  -0.04  -0.00
  38   6    -0.18  -0.03  -0.09    -0.04  -0.20  -0.06     0.04   0.23   0.03
  39   8    -0.05  -0.13  -0.02    -0.17  -0.14  -0.21    -0.06   0.33   0.01
  40   7    -0.23   0.17  -0.07    -0.03  -0.40  -0.02     0.08   0.09   0.01
  41   1    -0.02   0.06  -0.03    -0.04  -0.12  -0.00    -0.03   0.02   0.03
  42   1    -0.08   0.06  -0.04     0.01  -0.12   0.03     0.03   0.01   0.03
  43   7    -0.33  -0.12  -0.20     0.11  -0.10   0.08     0.19   0.34   0.08
  44   1    -0.12  -0.02  -0.06     0.06  -0.05   0.03     0.08   0.07   0.03
  45   1    -0.10  -0.06  -0.04     0.04   0.02  -0.01     0.06   0.13   0.00
  46   6     0.03  -0.02   0.01     0.01  -0.01   0.02     0.00   0.00   0.00
  47   8     0.06  -0.07   0.02     0.02  -0.03   0.02     0.01   0.01   0.01
  48   7    -0.02  -0.02   0.03    -0.01  -0.01   0.03     0.00  -0.02  -0.01
  49   1    -0.01  -0.01   0.02    -0.01  -0.01   0.01     0.00   0.02   0.01
  50   1    -0.01   0.01   0.01    -0.01  -0.01   0.00     0.00   0.02   0.02
  51   7     0.04   0.02  -0.02     0.01  -0.01   0.00     0.01   0.01   0.00
  52   1     0.00   0.01  -0.01     0.00   0.01   0.00    -0.00  -0.02  -0.01
  53   1     0.02  -0.00  -0.02     0.01   0.00   0.00    -0.00  -0.01  -0.01
                     25                     26                     27
                        a                      a                      a 
 Frequencies --   183.7793               194.7626               248.5553
 Red. masses --     3.6917                10.4962                 3.6717
 Frc consts  --     0.0000                 0.0000                 0.0000
 IR Inten    --    10.7252                 8.7296                21.4443
 Raman Activ --     0.0000                 0.0000                 0.0000
 Depolar     --     0.0000                 0.0000                 0.0000
 Atom AN      X      Y      Z        X      Y      Z        X      Y      Z
   1   8    -0.04  -0.04   0.03    -0.27  -0.33   0.38     0.03   0.01   0.01
   2   6    -0.01  -0.01   0.00     0.14  -0.01   0.05     0.01   0.00   0.01
   3   1    -0.00  -0.00  -0.00     0.09   0.04  -0.05     0.01   0.00   0.00
   4   1    -0.00  -0.00   0.01     0.11   0.04   0.11     0.00  -0.00   0.00
   5   6    -0.03  -0.02  -0.02    -0.10  -0.09  -0.30    -0.00   0.00  -0.00
   6   1    -0.01  -0.01  -0.01    -0.02  -0.12  -0.17    -0.00  -0.00  -0.00
   7   1    -0.02  -0.00  -0.01    -0.14   0.04  -0.11    -0.00   0.00  -0.00
   8   7    -0.02   0.00   0.00     0.04   0.06  -0.10    -0.00  -0.00   0.00
   9   6     0.01   0.02  -0.01     0.22   0.24  -0.20     0.00  -0.00  -0.00
  10   1     0.01   0.00   0.01     0.13   0.02  -0.00     0.00  -0.00   0.00
  11   1    -0.00   0.01  -0.01    -0.03   0.07  -0.07     0.00  -0.00  -0.00
  12   1     0.01   0.01  -0.01     0.12   0.15  -0.11     0.00  -0.00  -0.00
  13   6    -0.01   0.00   0.02     0.02   0.07   0.19     0.00  -0.00  -0.00
  14   1    -0.00   0.00   0.01    -0.01   0.06   0.06    -0.00  -0.00  -0.00
  15   1    -0.00   0.00   0.01    -0.00   0.03   0.09    -0.00  -0.00   0.00
  16   1    -0.00  -0.00   0.01     0.02  -0.04   0.07     0.00  -0.00  -0.00
  17   6    -0.01   0.01  -0.00     0.01   0.03  -0.03    -0.01  -0.01   0.01
  18   1    -0.00   0.00  -0.00    -0.05  -0.08   0.03    -0.00  -0.01   0.00
  19   1    -0.00   0.00   0.00     0.03   0.02  -0.11    -0.00  -0.00  -0.00
  20   1    -0.01   0.00  -0.00     0.03   0.08   0.06     0.00   0.00   0.01
  21   1    -0.01  -0.00   0.00    -0.05  -0.03   0.09     0.01   0.00   0.00
  22   6     0.01  -0.01   0.01     0.01  -0.04   0.02     0.00  -0.00  -0.00
  23   8     0.01   0.01   0.01     0.02   0.00   0.05     0.00   0.00   0.00
  24   7     0.03  -0.02   0.01     0.04  -0.05   0.03     0.00  -0.00   0.00
  25   1     0.01  -0.00   0.00     0.01  -0.02  -0.00     0.00  -0.00  -0.00
  26   1     0.01  -0.01   0.00     0.01  -0.01  -0.02     0.00   0.00  -0.00
  27   7    -0.00  -0.02  -0.01    -0.02  -0.06  -0.02    -0.00  -0.00  -0.00
  28   1    -0.00  -0.01  -0.00    -0.01  -0.03  -0.01     0.00  -0.00  -0.00
  29   1    -0.00  -0.00  -0.00    -0.02  -0.01  -0.00    -0.00  -0.00  -0.00
  30   6    -0.00  -0.00  -0.00    -0.01   0.00  -0.01    -0.01  -0.03  -0.01
  31   8    -0.00  -0.00  -0.00    -0.02   0.00  -0.02    -0.01  -0.02  -0.01
  32   7    -0.00  -0.00   0.00    -0.00   0.01   0.01    -0.02   0.06  -0.30
  33   1    -0.00  -0.00  -0.00    -0.00   0.00  -0.00     0.04  -0.07   0.32
  34   1    -0.00  -0.00  -0.00     0.00   0.00  -0.00     0.01  -0.13   0.49
  35   7    -0.00  -0.00  -0.00    -0.01  -0.02  -0.00     0.04  -0.03   0.32
  36   1    -0.00  -0.00   0.00     0.00  -0.01   0.01    -0.07   0.02  -0.54
  37   1    -0.00  -0.00   0.00    -0.01  -0.01   0.00    -0.05   0.05  -0.35
  38   6     0.00   0.01   0.00    -0.02   0.05  -0.02    -0.00   0.03  -0.00
  39   8    -0.01   0.02  -0.00    -0.09   0.10  -0.07    -0.00   0.03  -0.01
  40   7     0.00   0.00   0.00    -0.03  -0.06   0.01     0.02  -0.01  -0.02
  41   1    -0.00   0.00   0.00    -0.02  -0.03  -0.01    -0.03  -0.00   0.03
  42   1     0.00   0.00   0.00     0.01  -0.03   0.01     0.00  -0.01   0.02
  43   7     0.01   0.02   0.00     0.08   0.11   0.01    -0.01   0.03   0.02
  44   1     0.01   0.00   0.00     0.03   0.02   0.02    -0.00   0.01  -0.02
  45   1     0.00   0.01   0.00     0.01   0.05   0.02     0.01   0.00  -0.03
  46   6     0.02   0.01  -0.02    -0.01  -0.01  -0.01    -0.00  -0.00  -0.00
  47   8     0.02   0.01  -0.02    -0.02  -0.03  -0.02    -0.00   0.00  -0.00
  48   7     0.04   0.25   0.18    -0.01  -0.02  -0.01     0.00   0.00   0.00
  49   1    -0.05  -0.29  -0.23     0.00   0.02   0.02    -0.00  -0.00  -0.00
  50   1    -0.04  -0.39  -0.33     0.00   0.04   0.03     0.00  -0.00  -0.00
  51   7    -0.05  -0.25  -0.17    -0.00   0.02   0.02    -0.00   0.00   0.00
  52   1     0.11   0.42   0.25    -0.01  -0.03  -0.01    -0.00  -0.00   0.00
  53   1     0.07   0.30   0.21    -0.01  -0.03  -0.02    -0.00  -0.00   0.00
                     28                     29                     30
                        a                      a                      a 
 Frequencies --   257.8286               277.7980               293.4493
 Red. masses --    12.2439                 5.5799                 3.4867
 Frc consts  --     0.0000                 0.0000                 0.0000
 IR Inten    --    11.4012                 6.3099                18.2130
 Raman Activ --     0.0000                 0.0000                 0.0000
 Depolar     --     0.0000                 0.0000                 0.0000
 Atom AN      X      Y      Z        X      Y      Z        X      Y      Z
   1   8    -0.56  -0.14  -0.04     0.21  -0.20   0.16     0.01   0.03  -0.05
   2   6    -0.28  -0.05  -0.14    -0.25  -0.01   0.08     0.04  -0.00  -0.02
   3   1    -0.10  -0.07  -0.03    -0.15  -0.01   0.17     0.02  -0.00  -0.02
   4   1    -0.09   0.06  -0.03    -0.18   0.06  -0.09     0.02  -0.01   0.00
   5   6     0.08  -0.01  -0.03     0.06  -0.04  -0.04     0.00   0.01   0.02
   6   1     0.03   0.07   0.02     0.03   0.03  -0.01    -0.00   0.00   0.01
   7   1     0.06  -0.06   0.02     0.03  -0.02  -0.00     0.00  -0.00   0.01
   8   7     0.08   0.06  -0.02     0.08  -0.02  -0.04    -0.01  -0.00   0.01
   9   6    -0.01   0.06   0.01     0.08   0.08  -0.07    -0.02  -0.02   0.02
  10   1    -0.01  -0.01  -0.01    -0.07   0.21  -0.04     0.00  -0.02   0.01
  11   1    -0.03   0.02   0.02     0.23   0.01  -0.09    -0.02  -0.00   0.01
  12   1     0.00   0.03   0.01    -0.07  -0.13   0.05     0.00   0.01  -0.00
  13   6     0.02   0.07   0.06    -0.08  -0.00   0.12     0.00  -0.00  -0.02
  14   1     0.01   0.04   0.02     0.07   0.05   0.15    -0.02  -0.01  -0.03
  15   1     0.00   0.02   0.02     0.00  -0.03  -0.09    -0.01   0.00   0.02
  16   1    -0.00   0.01   0.02    -0.18  -0.02   0.08     0.03   0.00  -0.01
  17   6     0.14   0.14  -0.12     0.15   0.07  -0.19    -0.02  -0.01   0.03
  18   1     0.09   0.11  -0.07     0.20   0.28  -0.16    -0.03  -0.05   0.03
  19   1     0.03   0.03   0.05    -0.03  -0.00   0.23     0.01   0.00  -0.04
  20   1     0.01  -0.01  -0.10    -0.03  -0.18  -0.26     0.00   0.04   0.05
  21   1    -0.14  -0.01  -0.01     0.10  -0.06  -0.04     0.01   0.01  -0.02
  22   6    -0.02   0.02  -0.00     0.01  -0.00   0.00     0.01  -0.00   0.01
  23   8    -0.03  -0.03   0.00     0.01   0.02   0.00     0.01   0.01   0.01
  24   7    -0.04   0.02  -0.04     0.02  -0.00   0.01     0.01  -0.00  -0.03
  25   1    -0.00   0.02   0.01    -0.00  -0.00   0.00    -0.00   0.00   0.03
  26   1    -0.01   0.00   0.04     0.01   0.00  -0.01     0.00  -0.01   0.09
  27   7     0.03   0.05  -0.00    -0.01  -0.01  -0.01    -0.00  -0.01  -0.01
  28   1     0.01   0.03   0.00    -0.01  -0.01   0.01     0.00  -0.01  -0.02
  29   1     0.02   0.01   0.01    -0.01   0.00   0.00    -0.00  -0.00  -0.02
  30   6     0.01  -0.02   0.00    -0.01   0.01  -0.00    -0.02  -0.00  -0.01
  31   8     0.01  -0.02   0.01    -0.01   0.01  -0.01    -0.02   0.00  -0.01
  32   7    -0.01  -0.03  -0.02     0.01   0.01   0.00     0.01   0.02  -0.01
  33   1    -0.00  -0.02   0.02     0.00   0.01   0.00     0.00   0.01   0.01
  34   1    -0.01  -0.01   0.02     0.01   0.00   0.00     0.01  -0.01   0.02
  35   7     0.01  -0.00   0.02    -0.00   0.00   0.00    -0.01  -0.01   0.03
  36   1    -0.01   0.00  -0.03    -0.00  -0.00  -0.00    -0.01  -0.00  -0.05
  37   1     0.00   0.00  -0.02    -0.00   0.00  -0.00    -0.01   0.00  -0.03
  38   6     0.19  -0.08   0.07    -0.08   0.04  -0.01    -0.01  -0.00   0.02
  39   8     0.30  -0.13   0.10    -0.14   0.06   0.00    -0.04   0.00   0.04
  40   7     0.16   0.25   0.10    -0.08  -0.11  -0.01    -0.17   0.00   0.24
  41   1     0.14   0.10  -0.02    -0.02  -0.06  -0.07     0.32  -0.13  -0.58
  42   1    -0.00   0.10  -0.02     0.02  -0.05  -0.01     0.13  -0.03  -0.15
  43   7    -0.01  -0.20  -0.01     0.04   0.09  -0.04     0.16   0.02  -0.25
  44   1    -0.06  -0.03  -0.01     0.01   0.01   0.03    -0.06   0.00   0.20
  45   1    -0.02  -0.10   0.04    -0.03   0.05   0.07    -0.18   0.05   0.46
  46   6    -0.00  -0.00   0.01     0.01   0.00   0.01    -0.00  -0.00  -0.00
  47   8    -0.00  -0.00   0.01     0.00  -0.00   0.01     0.00  -0.00  -0.00
  48   7    -0.01  -0.01   0.01    -0.01  -0.02   0.00     0.00   0.00   0.00
  49   1    -0.00  -0.00   0.01    -0.00   0.01   0.02     0.00  -0.00  -0.00
  50   1    -0.01   0.00   0.00    -0.00   0.02   0.02     0.00  -0.01  -0.01
  51   7    -0.00  -0.00   0.01     0.00  -0.01   0.00     0.00   0.00  -0.00
  52   1    -0.00  -0.01  -0.00     0.00   0.01   0.01    -0.00  -0.00  -0.00
  53   1    -0.00  -0.00  -0.00     0.00   0.01   0.01     0.00  -0.00  -0.00
                     31                     32                     33
                        a                      a                      a 
 Frequencies --   307.7668               315.3005               326.7326
 Red. masses --     2.7418                 9.5083                 3.5027
 Frc consts  --     0.0000                 0.0000                 0.0000
 IR Inten    --   120.7592                 1.3200               483.6550
 Raman Activ --     0.0000                 0.0000                 0.0000
 Depolar     --     0.0000                 0.0000                 0.0000
 Atom AN      X      Y      Z        X      Y      Z        X      Y      Z
   1   8     0.01   0.00   0.01     0.10  -0.44   0.01     0.04  -0.02  -0.01
   2   6    -0.02   0.01   0.01     0.01  -0.11  -0.16    -0.04   0.00  -0.00
   3   1    -0.01   0.00   0.01    -0.01  -0.01  -0.01    -0.02   0.00   0.02
   4   1    -0.01   0.00  -0.00    -0.01  -0.02  -0.06    -0.03   0.00  -0.02
   5   6    -0.01   0.00  -0.00    -0.03  -0.01  -0.07    -0.00   0.00  -0.00
   6   1    -0.00  -0.00   0.00    -0.01   0.00  -0.02     0.00   0.00  -0.01
   7   1    -0.00   0.00  -0.00    -0.04  -0.04   0.01    -0.00  -0.00   0.00
   8   7    -0.01   0.00  -0.01     0.00   0.16   0.05     0.01   0.01   0.01
   9   6     0.01  -0.01  -0.01    -0.31   0.03   0.17    -0.01  -0.02   0.02
  10   1     0.01  -0.00  -0.00    -0.08  -0.12  -0.01     0.03  -0.08   0.01
  11   1     0.01  -0.00   0.00    -0.21   0.02   0.11    -0.08  -0.00   0.03
  12   1     0.00  -0.01  -0.01    -0.05   0.10   0.07     0.03   0.06  -0.02
  13   6    -0.01   0.00   0.01     0.39   0.14  -0.18    -0.01   0.00   0.02
  14   1    -0.02   0.01  -0.01     0.11  -0.07  -0.10    -0.08  -0.00  -0.08
  15   1    -0.01   0.01   0.03     0.13   0.11  -0.03    -0.03   0.00   0.11
  16   1     0.02  -0.01  -0.00     0.19   0.06  -0.08     0.11  -0.00  -0.02
  17   6    -0.00   0.01  -0.02    -0.03   0.17   0.18     0.03   0.04  -0.01
  18   1     0.00   0.01  -0.01     0.01   0.18   0.01     0.02   0.02  -0.01
  19   1     0.00   0.00  -0.00    -0.03   0.04   0.19     0.02   0.01   0.00
  20   1    -0.00   0.00  -0.01    -0.01  -0.05  -0.01     0.00   0.01  -0.01
  21   1     0.00  -0.00  -0.00     0.04  -0.11  -0.02     0.01  -0.01  -0.01
  22   6     0.04  -0.01  -0.01     0.00  -0.02  -0.00    -0.00  -0.00  -0.01
  23   8     0.02  -0.01   0.01     0.00  -0.01  -0.00    -0.00  -0.00  -0.01
  24   7     0.01   0.01  -0.07    -0.01  -0.01   0.00    -0.01  -0.00   0.01
  25   1     0.00   0.01   0.06    -0.01  -0.00  -0.00    -0.00  -0.00  -0.01
  26   1     0.00   0.02   0.29    -0.00   0.00   0.00    -0.00   0.00  -0.05
  27   7    -0.12   0.04   0.33    -0.00  -0.01   0.01     0.01  -0.00  -0.02
  28   1     0.23  -0.03  -0.76     0.01  -0.00  -0.02    -0.02   0.00   0.06
  29   1     0.09  -0.06  -0.36     0.00  -0.01  -0.01    -0.00   0.00   0.02
  30   6    -0.00  -0.00   0.00    -0.00   0.00  -0.00    -0.00   0.00  -0.00
  31   8     0.00   0.00   0.00    -0.00   0.00  -0.00    -0.00   0.00  -0.00
  32   7     0.00   0.00  -0.00     0.00   0.00   0.00     0.00   0.00   0.00
  33   1     0.00  -0.00   0.00    -0.00   0.00  -0.00    -0.00   0.00  -0.00
  34   1    -0.00  -0.00   0.00     0.00   0.00  -0.00     0.00   0.00  -0.00
  35   7    -0.00  -0.00  -0.00    -0.00  -0.00   0.00    -0.00   0.00   0.00
  36   1     0.00  -0.00   0.00     0.00  -0.00   0.00    -0.00   0.00  -0.01
  37   1     0.00  -0.00   0.00    -0.00  -0.00  -0.00    -0.00   0.00  -0.00
  38   6    -0.00  -0.00  -0.01    -0.04   0.04  -0.01    -0.01   0.01  -0.00
  39   8     0.00  -0.00  -0.03    -0.06   0.05  -0.01    -0.01   0.01   0.00
  40   7     0.00  -0.01  -0.01    -0.03  -0.06  -0.02    -0.01  -0.01  -0.00
  41   1    -0.02   0.00   0.02    -0.04  -0.03   0.01    -0.00  -0.01  -0.01
  42   1    -0.01  -0.00   0.01     0.01  -0.03   0.01     0.00  -0.00  -0.00
  43   7    -0.01   0.00   0.02     0.02   0.07  -0.00     0.00   0.01  -0.00
  44   1     0.00  -0.00  -0.01     0.02   0.01   0.01     0.00   0.00  -0.00
  45   1     0.01  -0.00  -0.02     0.00   0.03   0.01     0.00   0.00  -0.00
  46   6     0.00   0.00   0.01    -0.00   0.00  -0.00     0.02   0.09   0.06
  47   8     0.00  -0.00   0.00    -0.00   0.02   0.01     0.02   0.01   0.02
  48   7    -0.00  -0.02  -0.01    -0.00   0.02   0.01    -0.02  -0.21  -0.20
  49   1     0.00   0.02   0.01    -0.00  -0.01  -0.01     0.04   0.20   0.17
  50   1     0.00   0.03   0.02    -0.00  -0.04  -0.03     0.03   0.43   0.33
  51   7    -0.00  -0.02  -0.01     0.00   0.02   0.02    -0.08  -0.25  -0.14
  52   1     0.01   0.03   0.02    -0.01  -0.05  -0.02     0.09   0.47   0.27
  53   1     0.01   0.02   0.01    -0.01  -0.02  -0.01     0.06   0.21   0.15
                     34                     35                     36
                        a                      a                      a 
 Frequencies --   327.6229               353.2227               359.3390
 Red. masses --     4.1128                 3.7567                 5.2040
 Frc consts  --     0.0000                 0.0000                 0.0000
 IR Inten    --    34.9817               417.2528                 8.3818
 Raman Activ --     0.0000                 0.0000                 0.0000
 Depolar     --     0.0000                 0.0000                 0.0000
 Atom AN      X      Y      Z        X      Y      Z        X      Y      Z
   1   8    -0.18   0.05  -0.02     0.00   0.00  -0.00    -0.03   0.26  -0.09
   2   6     0.28  -0.03  -0.04    -0.00   0.00   0.00     0.19   0.09  -0.01
   3   1     0.15   0.00  -0.13    -0.00   0.00   0.00     0.12   0.07  -0.10
   4   1     0.18  -0.05   0.10    -0.00  -0.00  -0.00     0.14  -0.05   0.08
   5   6    -0.04  -0.01  -0.01    -0.00  -0.00  -0.00    -0.24   0.01  -0.15
   6   1    -0.03  -0.04   0.01    -0.00  -0.00  -0.00    -0.05  -0.11  -0.15
   7   1    -0.03   0.00  -0.00    -0.00   0.00  -0.00    -0.20   0.09  -0.08
   8   7    -0.07   0.04  -0.01    -0.00  -0.00   0.00    -0.07  -0.07   0.03
   9   6    -0.03   0.09  -0.03    -0.00  -0.00   0.00     0.00  -0.22   0.06
  10   1    -0.09   0.18  -0.03     0.00  -0.00   0.00     0.05  -0.16   0.02
  11   1     0.16   0.02  -0.06    -0.00  -0.00   0.00    -0.08  -0.06   0.09
  12   1    -0.09  -0.11   0.05     0.00   0.00  -0.00     0.04  -0.01  -0.05
  13   6     0.13   0.03  -0.09     0.00  -0.00   0.00     0.06  -0.09   0.25
  14   1     0.30  -0.04   0.23    -0.01  -0.00  -0.01    -0.06  -0.00   0.00
  15   1     0.15   0.02  -0.38    -0.00   0.00   0.01    -0.00   0.02   0.21
  16   1    -0.31   0.04   0.06     0.01  -0.00  -0.00     0.15  -0.10   0.06
  17   6    -0.19  -0.12   0.16     0.00   0.00  -0.00     0.01   0.05  -0.09
  18   1    -0.03   0.07   0.01     0.00   0.01  -0.00     0.18   0.31  -0.15
  19   1    -0.12  -0.04   0.17    -0.00   0.00   0.01    -0.04  -0.01   0.29
  20   1    -0.03  -0.17  -0.00    -0.00  -0.00  -0.01    -0.08  -0.20  -0.26
  21   1    -0.06   0.05   0.04    -0.00   0.00   0.00    -0.04   0.05   0.04
  22   6     0.00   0.00   0.01     0.00   0.00  -0.00     0.00   0.00   0.00
  23   8    -0.00   0.00   0.02     0.00   0.00  -0.00     0.00   0.00   0.00
  24   7    -0.00   0.00  -0.01     0.00   0.00  -0.00    -0.00  -0.00   0.00
  25   1    -0.00   0.00   0.01    -0.00   0.00   0.00    -0.00  -0.00  -0.00
  26   1    -0.00   0.00   0.03     0.00  -0.00  -0.00    -0.00   0.00   0.00
  27   7    -0.01   0.00   0.00    -0.00  -0.00  -0.00     0.00  -0.01  -0.01
  28   1     0.01  -0.00  -0.03    -0.00  -0.00   0.01    -0.01  -0.00   0.02
  29   1     0.00  -0.00  -0.00    -0.00   0.00  -0.00    -0.00   0.00   0.00
  30   6     0.00  -0.00   0.00     0.00  -0.01   0.11    -0.00  -0.00  -0.00
  31   8    -0.00  -0.00   0.00     0.02  -0.02   0.05    -0.00   0.00   0.00
  32   7    -0.00  -0.00  -0.00    -0.01   0.11  -0.30    -0.00  -0.00   0.01
  33   1     0.00  -0.00   0.00     0.03  -0.07   0.25    -0.00   0.00  -0.01
  34   1    -0.00  -0.00   0.01    -0.01  -0.13   0.58    -0.00   0.00  -0.01
  35   7     0.00  -0.00  -0.00    -0.06  -0.01  -0.30     0.00  -0.00   0.01
  36   1    -0.00   0.00  -0.00     0.05  -0.02   0.54    -0.00  -0.00  -0.01
  37   1     0.00  -0.00   0.00     0.05  -0.03   0.24    -0.00  -0.00  -0.00
  38   6     0.04  -0.03   0.00     0.01  -0.00  -0.02     0.02  -0.01  -0.00
  39   8     0.04  -0.03  -0.00    -0.00  -0.00   0.01     0.01  -0.01  -0.01
  40   7     0.02   0.05   0.03    -0.02   0.00   0.03     0.00   0.02   0.02
  41   1     0.04   0.02  -0.02     0.04  -0.01  -0.06     0.03   0.01  -0.03
  42   1    -0.00   0.02  -0.01     0.02  -0.00  -0.04     0.00   0.01  -0.01
  43   7    -0.00  -0.05   0.00    -0.00   0.01   0.03     0.00  -0.02   0.00
  44   1    -0.01  -0.01  -0.00     0.03  -0.00  -0.05    -0.00  -0.00   0.00
  45   1     0.00  -0.02  -0.01     0.03   0.00  -0.05     0.00  -0.01  -0.00
  46   6    -0.00   0.03   0.01    -0.00   0.00   0.00     0.00   0.00   0.00
  47   8    -0.00   0.00  -0.00     0.00   0.00   0.00     0.00   0.02   0.01
  48   7     0.00  -0.05  -0.06     0.00  -0.00  -0.00    -0.00   0.01   0.01
  49   1     0.01   0.06   0.04     0.00   0.00   0.00    -0.00  -0.01  -0.01
  50   1     0.01   0.11   0.08     0.00   0.00   0.00    -0.00  -0.03  -0.02
  51   7    -0.03  -0.06  -0.03    -0.00  -0.00  -0.00     0.01   0.02   0.01
  52   1     0.02   0.12   0.07    -0.00   0.00  -0.00    -0.01  -0.05  -0.03
  53   1     0.01   0.05   0.04     0.00   0.00   0.00    -0.00  -0.01  -0.00
                     37                     38                     39
                        a                      a                      a 
 Frequencies --   373.4724               380.9764               396.1670
 Red. masses --     4.8987                 2.6619                 3.3702
 Frc consts  --     0.0000                 0.0000                 0.0000
 IR Inten    --     2.5028                 1.9400               151.4573
 Raman Activ --     0.0000                 0.0000                 0.0000
 Depolar     --     0.0000                 0.0000                 0.0000
 Atom AN      X      Y      Z        X      Y      Z        X      Y      Z
   1   8    -0.00   0.07  -0.01    -0.10   0.01   0.02     0.02  -0.00   0.01
   2   6     0.03  -0.12   0.12     0.05  -0.05   0.03    -0.02  -0.00   0.02
   3   1    -0.02  -0.09   0.05     0.02  -0.03  -0.02    -0.01   0.00   0.01
   4   1    -0.01  -0.02   0.01     0.03  -0.01   0.03    -0.01  -0.00  -0.00
   5   6     0.17  -0.09   0.18     0.03  -0.05   0.02    -0.01  -0.01   0.00
   6   1     0.02  -0.00   0.12    -0.01  -0.02   0.03     0.00  -0.00  -0.00
   7   1     0.13  -0.04   0.05     0.04  -0.00  -0.01    -0.01   0.00  -0.00
   8   7    -0.02  -0.03  -0.03    -0.04  -0.03  -0.06    -0.01  -0.00  -0.00
   9   6     0.14   0.28  -0.18     0.03   0.16  -0.14    -0.01  -0.01  -0.00
  10   1     0.22  -0.13   0.06    -0.16   0.37  -0.07    -0.01   0.00  -0.00
  11   1    -0.27   0.10  -0.08     0.35   0.03  -0.17     0.01  -0.00  -0.00
  12   1     0.20   0.35  -0.17    -0.15  -0.20   0.10    -0.01  -0.01  -0.00
  13   6    -0.17  -0.03  -0.20     0.06  -0.04  -0.09     0.01  -0.00   0.01
  14   1    -0.08  -0.02  -0.10    -0.22  -0.03  -0.28    -0.00  -0.00  -0.00
  15   1    -0.07  -0.05  -0.04    -0.07   0.02   0.31     0.00   0.01   0.01
  16   1    -0.03   0.05  -0.09     0.40  -0.02  -0.12     0.01  -0.01   0.00
  17   6    -0.12  -0.12   0.13    -0.12  -0.01   0.20     0.00   0.02  -0.01
  18   1     0.03   0.18  -0.04    -0.07   0.09   0.04    -0.01  -0.00   0.00
  19   1    -0.15  -0.06   0.28    -0.05  -0.01   0.16     0.01   0.01  -0.01
  20   1    -0.02  -0.25  -0.08    -0.00  -0.07   0.05    -0.00   0.02   0.01
  21   1    -0.01   0.03   0.02    -0.01   0.04   0.00     0.00  -0.01   0.00
  22   6    -0.00  -0.00   0.00     0.00   0.01  -0.01     0.03  -0.00   0.12
  23   8    -0.00  -0.00   0.00     0.00   0.00  -0.02     0.03   0.05   0.11
  24   7    -0.01  -0.00  -0.01     0.00   0.00   0.00    -0.06   0.01  -0.30
  25   1     0.00   0.00  -0.00    -0.00   0.00   0.00     0.02   0.03   0.05
  26   1    -0.00  -0.00   0.03     0.00   0.00  -0.01    -0.01  -0.01   0.85
  27   7     0.01   0.00  -0.01    -0.00   0.00   0.00     0.06  -0.06  -0.21
  28   1     0.00   0.00  -0.00    -0.01  -0.00   0.02    -0.06  -0.04   0.20
  29   1     0.00  -0.00   0.00    -0.00   0.00  -0.01    -0.04   0.02   0.08
  30   6    -0.00   0.00   0.00     0.00  -0.00   0.00    -0.01   0.00   0.01
  31   8    -0.00   0.00   0.00    -0.00   0.00   0.00    -0.00   0.00   0.01
  32   7     0.00   0.00   0.00    -0.00  -0.00   0.00    -0.00   0.01   0.00
  33   1    -0.00   0.00  -0.00    -0.00  -0.00  -0.00    -0.00   0.00   0.00
  34   1     0.00   0.00  -0.00    -0.00   0.00  -0.00     0.00   0.01  -0.02
  35   7    -0.00  -0.00   0.00     0.00   0.00   0.00    -0.00  -0.01   0.00
  36   1    -0.00  -0.00  -0.01    -0.00   0.00  -0.01     0.00  -0.00  -0.01
  37   1    -0.00  -0.00  -0.00     0.00   0.00  -0.00    -0.01  -0.00  -0.01
  38   6     0.00  -0.00  -0.01     0.02  -0.02   0.01    -0.00  -0.01  -0.06
  39   8    -0.00  -0.00  -0.00     0.01  -0.02   0.00    -0.02  -0.00  -0.01
  40   7    -0.01   0.00   0.00     0.01   0.03   0.01    -0.03  -0.02   0.00
  41   1     0.01  -0.00  -0.02     0.02   0.01   0.00     0.01  -0.01  -0.04
  42   1     0.00  -0.00  -0.00    -0.01   0.01  -0.01     0.00  -0.01  -0.01
  43   7     0.00   0.00   0.00    -0.00  -0.03   0.00    -0.00   0.03   0.07
  44   1     0.00  -0.00  -0.00    -0.00  -0.01  -0.00     0.05  -0.00  -0.07
  45   1     0.01   0.00  -0.01     0.00  -0.01  -0.00     0.07   0.01  -0.16
  46   6    -0.00   0.01  -0.00     0.00  -0.01   0.01     0.00   0.00  -0.00
  47   8    -0.00   0.02   0.01     0.00  -0.00   0.01     0.00  -0.00   0.00
  48   7     0.00   0.01   0.00     0.00  -0.01   0.01     0.00  -0.00  -0.00
  49   1    -0.00  -0.00  -0.01     0.00   0.01   0.00     0.00   0.00   0.00
  50   1     0.00  -0.02  -0.02     0.00  -0.01  -0.00     0.00   0.01   0.01
  51   7    -0.00   0.01   0.01     0.01   0.01  -0.01    -0.00  -0.00  -0.00
  52   1    -0.01  -0.04  -0.02    -0.00   0.00  -0.01     0.00   0.01   0.01
  53   1    -0.01  -0.00   0.00     0.01   0.00  -0.01     0.00   0.00   0.00
                     40                     41                     42
                        a                      a                      a 
 Frequencies --   429.1755               444.3232               445.3277
 Red. masses --     8.5834                 1.6798                 1.7248
 Frc consts  --     0.0000                 0.0000                 0.0000
 IR Inten    --     1.1436                 5.3743                 5.4728
 Raman Activ --     0.0000                 0.0000                 0.0000
 Depolar     --     0.0000                 0.0000                 0.0000
 Atom AN      X      Y      Z        X      Y      Z        X      Y      Z
   1   8    -0.03  -0.23   0.00     0.00   0.01  -0.00     0.00  -0.00   0.00
   2   6     0.07   0.02  -0.16    -0.01  -0.01   0.02    -0.00  -0.00   0.00
   3   1     0.03   0.02  -0.06    -0.00  -0.00   0.00    -0.00   0.00   0.00
   4   1     0.04   0.00  -0.02    -0.00  -0.01   0.00    -0.00  -0.00  -0.00
   5   6    -0.01   0.12   0.05    -0.02  -0.01   0.01    -0.00  -0.00  -0.00
   6   1    -0.00   0.06   0.03    -0.00  -0.01  -0.00    -0.00  -0.00  -0.00
   7   1     0.00  -0.03   0.05    -0.01   0.00  -0.00    -0.00   0.00  -0.00
   8   7    -0.01   0.30   0.15    -0.01  -0.02   0.01     0.00   0.00   0.00
   9   6     0.27  -0.11   0.24    -0.00   0.02  -0.01     0.00   0.00   0.00
  10   1     0.08  -0.03   0.07    -0.00   0.02   0.00     0.00   0.00   0.00
  11   1     0.16  -0.04   0.16     0.01   0.00  -0.01     0.00   0.00   0.00
  12   1     0.06  -0.14  -0.02    -0.00   0.00   0.00     0.00  -0.00   0.00
  13   6    -0.14   0.32  -0.06     0.02  -0.02  -0.01    -0.00   0.00  -0.00
  14   1    -0.12   0.08  -0.10     0.01  -0.01  -0.00    -0.00   0.00  -0.00
  15   1    -0.08   0.03   0.05     0.01   0.00  -0.01    -0.00  -0.00  -0.00
  16   1     0.04   0.14  -0.06     0.00  -0.00  -0.00     0.00   0.00  -0.00
  17   6    -0.17  -0.32  -0.19     0.01   0.02  -0.00     0.00  -0.00  -0.00
  18   1     0.11  -0.15  -0.07    -0.00  -0.00   0.00     0.00  -0.00  -0.00
  19   1    -0.24  -0.09  -0.07     0.02   0.01  -0.01    -0.00  -0.00  -0.00
  20   1    -0.04  -0.21  -0.12    -0.00   0.02   0.00    -0.00  -0.00  -0.00
  21   1    -0.00  -0.05  -0.01     0.00   0.00  -0.00     0.00  -0.00   0.00
  22   6     0.01   0.00   0.00     0.00   0.00   0.00    -0.00  -0.00   0.00
  23   8     0.00  -0.00   0.00     0.00  -0.00  -0.00    -0.00   0.00   0.00
  24   7     0.00   0.01  -0.01     0.00   0.00   0.00    -0.00  -0.00  -0.00
  25   1     0.00   0.00  -0.00    -0.00  -0.00   0.00     0.00  -0.00   0.00
  26   1     0.00   0.00   0.02     0.00   0.00  -0.00    -0.00  -0.00   0.00
  27   7    -0.00  -0.00  -0.01    -0.00  -0.00   0.00     0.00   0.00  -0.00
  28   1    -0.01  -0.01   0.02     0.00  -0.00  -0.01     0.00   0.00   0.00
  29   1    -0.01   0.00  -0.01    -0.00   0.00   0.00     0.00  -0.00   0.00
  30   6    -0.00  -0.00  -0.00     0.00   0.00  -0.00     0.03   0.07   0.01
  31   8    -0.00  -0.00  -0.00     0.00   0.00  -0.00     0.04   0.07   0.01
  32   7     0.00   0.00  -0.00    -0.00  -0.00   0.00    -0.06  -0.01   0.14
  33   1     0.00   0.00   0.00    -0.00  -0.00  -0.01    -0.07  -0.05  -0.51
  34   1     0.00  -0.00   0.00    -0.00  -0.00   0.01    -0.13  -0.04   0.40
  35   7    -0.00   0.00  -0.00     0.00  -0.00  -0.00     0.04  -0.03  -0.13
  36   1    -0.00   0.00   0.01     0.00  -0.00  -0.01     0.08  -0.06  -0.44
  37   1     0.00   0.00  -0.00    -0.00  -0.00   0.01    -0.04  -0.17   0.50
  38   6    -0.00   0.01   0.00     0.00  -0.00   0.00    -0.01  -0.02  -0.00
  39   8     0.00   0.01  -0.00    -0.00  -0.00  -0.00    -0.01  -0.02  -0.00
  40   7     0.00  -0.01  -0.00     0.00   0.00  -0.00    -0.01   0.02  -0.01
  41   1    -0.02  -0.00   0.02     0.00   0.00   0.00     0.01   0.01   0.00
  42   1     0.00  -0.01   0.01    -0.00   0.00  -0.00    -0.01   0.01  -0.02
  43   7     0.00   0.01  -0.01     0.00  -0.00  -0.00     0.02   0.00   0.01
  44   1    -0.00   0.00   0.01    -0.00  -0.00   0.00     0.02  -0.01   0.01
  45   1    -0.01  -0.00   0.01    -0.00  -0.00   0.00     0.01   0.01  -0.01
  46   6    -0.00   0.00   0.01     0.05   0.03  -0.05    -0.00  -0.00   0.00
  47   8    -0.00   0.00   0.01     0.05   0.03  -0.05    -0.00  -0.00   0.00
  48   7     0.01   0.00   0.00    -0.05   0.11   0.05    -0.00  -0.00  -0.00
  49   1    -0.00  -0.02  -0.02    -0.12  -0.45  -0.19     0.00   0.01   0.00
  50   1     0.01   0.01   0.01    -0.08   0.40   0.22     0.00  -0.01  -0.00
  51   7    -0.00   0.00  -0.01     0.02  -0.13  -0.01     0.00   0.00   0.00
  52   1    -0.01  -0.03  -0.02     0.01  -0.44  -0.14     0.00   0.01   0.00
  53   1     0.01   0.03   0.02    -0.02   0.38   0.35    -0.00  -0.01  -0.01
                     43                     44                     45
                        a                      a                      a 
 Frequencies --   454.4617               457.0394               462.6238
 Red. masses --     8.2863                 8.2157                 2.8204
 Frc consts  --     0.0000                 0.0000                 0.0000
 IR Inten    --     2.3391                33.5579               223.6408
 Raman Activ --     0.0000                 0.0000                 0.0000
 Depolar     --     0.0000                 0.0000                 0.0000
 Atom AN      X      Y      Z        X      Y      Z        X      Y      Z
   1   8    -0.00   0.03  -0.02     0.01  -0.01   0.00     0.01  -0.01   0.00
   2   6    -0.04  -0.08   0.07    -0.00  -0.00   0.01    -0.02  -0.02   0.02
   3   1    -0.00  -0.01   0.01    -0.00   0.00   0.01    -0.01  -0.01   0.02
   4   1    -0.01  -0.05   0.02    -0.01  -0.00  -0.00    -0.02  -0.00  -0.01
   5   6    -0.13  -0.06   0.08    -0.01  -0.00  -0.01     0.01  -0.01   0.03
   6   1    -0.03  -0.05  -0.01     0.00  -0.01  -0.01    -0.01   0.01   0.03
   7   1    -0.07   0.00   0.02    -0.01   0.00  -0.00     0.03  -0.01   0.01
   8   7    -0.07  -0.00   0.11     0.01   0.00   0.01    -0.05   0.02  -0.04
   9   6     0.10   0.07   0.05    -0.00   0.01   0.02     0.03  -0.04  -0.04
  10   1     0.05   0.05   0.05    -0.00   0.00   0.00     0.02  -0.02   0.00
  11   1     0.05   0.02  -0.02    -0.00   0.00   0.00     0.01  -0.01   0.01
  12   1     0.03   0.01  -0.01    -0.00   0.00   0.01     0.01  -0.02  -0.03
  13   6     0.08  -0.01  -0.11    -0.01   0.00  -0.02     0.05   0.02   0.02
  14   1     0.03  -0.07  -0.05    -0.00   0.00  -0.01     0.03  -0.00   0.02
  15   1     0.03   0.02  -0.05    -0.00  -0.01  -0.01     0.03   0.03  -0.00
  16   1     0.04   0.04  -0.05    -0.00   0.01  -0.01     0.01  -0.01   0.02
  17   6     0.01   0.04  -0.11     0.02  -0.01  -0.00    -0.05   0.04  -0.03
  18   1     0.05  -0.02  -0.03     0.01  -0.01  -0.00    -0.02   0.01  -0.00
  19   1     0.02   0.01  -0.07     0.00  -0.00  -0.01    -0.00   0.01  -0.02
  20   1    -0.04   0.05  -0.05     0.00  -0.00  -0.00    -0.01   0.02   0.00
  21   1    -0.00   0.01   0.00    -0.00  -0.01   0.01    -0.01  -0.01   0.02
  22   6     0.01   0.00   0.00    -0.01  -0.00  -0.00     0.08   0.04   0.06
  23   8     0.01  -0.01   0.00    -0.01   0.01  -0.00     0.08  -0.13   0.07
  24   7    -0.01   0.01   0.00     0.01  -0.01   0.01    -0.01   0.14  -0.08
  25   1    -0.01   0.00   0.00    -0.00  -0.00   0.02    -0.07   0.02   0.07
  26   1    -0.00   0.01  -0.03     0.00  -0.01  -0.05    -0.00   0.08  -0.17
  27   7    -0.01  -0.01   0.00     0.01   0.01   0.02    -0.09  -0.02   0.09
  28   1    -0.00  -0.01  -0.00     0.00   0.01  -0.00    -0.12  -0.21   0.28
  29   1    -0.01   0.00  -0.01     0.01  -0.00  -0.02    -0.09   0.02  -0.65
  30   6     0.00   0.02   0.00     0.13   0.27   0.04    -0.04  -0.03   0.01
  31   8     0.01   0.02   0.00     0.16   0.29   0.04    -0.01  -0.05   0.00
  32   7    -0.03   0.00  -0.00    -0.40  -0.02  -0.04     0.05   0.02   0.02
  33   1    -0.00  -0.01   0.02    -0.08  -0.25   0.14     0.02   0.05   0.04
  34   1    -0.01   0.01  -0.02    -0.28   0.12  -0.12     0.06  -0.00  -0.06
  35   7     0.01  -0.02   0.00     0.19  -0.35   0.01    -0.05   0.04   0.01
  36   1     0.02  -0.01  -0.00     0.25  -0.19   0.05    -0.03   0.02  -0.09
  37   1    -0.01  -0.01  -0.01    -0.16  -0.20  -0.15     0.01   0.01   0.07
  38   6     0.00  -0.01  -0.01    -0.02  -0.05  -0.03     0.03  -0.01  -0.05
  39   8    -0.01  -0.01   0.01    -0.05  -0.06   0.02    -0.03   0.00   0.05
  40   7    -0.01   0.01   0.01    -0.06   0.05   0.00    -0.04   0.03   0.05
  41   1     0.03  -0.00  -0.05     0.08   0.01  -0.11     0.13  -0.04  -0.23
  42   1     0.00   0.00  -0.01    -0.02   0.02  -0.03     0.04  -0.00  -0.05
  43   7     0.00  -0.00   0.02     0.05   0.00   0.06    -0.02  -0.00   0.10
  44   1     0.02  -0.00  -0.03     0.08  -0.02  -0.06     0.07  -0.01  -0.15
  45   1     0.03   0.00  -0.05     0.07   0.03  -0.11     0.13  -0.02  -0.29
  46   6     0.18   0.10  -0.19    -0.02  -0.01   0.02    -0.02  -0.01   0.02
  47   8     0.20   0.11  -0.21    -0.02  -0.01   0.02    -0.02  -0.01   0.02
  48   7    -0.37   0.02  -0.04     0.04  -0.00   0.01     0.03  -0.00   0.01
  49   1    -0.12   0.01   0.26     0.01   0.00  -0.03     0.01   0.00  -0.02
  50   1    -0.26   0.01  -0.17     0.03  -0.00   0.02     0.02  -0.01   0.01
  51   7     0.11  -0.17   0.32    -0.01   0.02  -0.03    -0.01   0.02  -0.03
  52   1     0.20  -0.04   0.24    -0.02   0.00  -0.03    -0.02  -0.01  -0.03
  53   1    -0.20  -0.19   0.07     0.02   0.02  -0.01     0.02   0.02  -0.00
                     46                     47                     48
                        a                      a                      a 
 Frequencies --   463.9036               469.0429               473.5039
 Red. masses --     5.4870                 5.5648                 7.8082
 Frc consts  --     0.0000                 0.0000                 0.0000
 IR Inten    --   187.9471                83.1208                13.1378
 Raman Activ --     0.0000                 0.0000                 0.0000
 Depolar     --     0.0000                 0.0000                 0.0000
 Atom AN      X      Y      Z        X      Y      Z        X      Y      Z
   1   8    -0.01   0.05  -0.02     0.02  -0.09   0.03     0.02   0.01  -0.01
   2   6    -0.05  -0.06   0.07     0.05   0.09  -0.10    -0.06  -0.15   0.12
   3   1    -0.00   0.00   0.01    -0.01   0.01   0.00    -0.02  -0.05   0.03
   4   1    -0.01  -0.05   0.02    -0.00   0.07  -0.04    -0.02  -0.07   0.02
   5   6    -0.18  -0.08  -0.02     0.21   0.10  -0.04    -0.08  -0.06   0.23
   6   1    -0.02  -0.10  -0.12     0.04   0.11   0.10    -0.05   0.01   0.15
   7   1    -0.19   0.04  -0.02     0.19  -0.03   0.01     0.07  -0.05   0.07
   8   7     0.07  -0.03   0.21     0.00   0.05  -0.22    -0.28   0.05  -0.04
   9   6     0.02   0.18   0.16    -0.06  -0.19  -0.13     0.23  -0.09  -0.12
  10   1    -0.01   0.10   0.05    -0.02  -0.10  -0.07     0.14  -0.02   0.05
  11   1     0.02   0.05  -0.02    -0.02  -0.06   0.04     0.11  -0.03  -0.01
  12   1    -0.00   0.06   0.08    -0.02  -0.07  -0.04     0.09  -0.06  -0.16
  13   6    -0.01  -0.03  -0.22    -0.05   0.06   0.23     0.27   0.04   0.02
  14   1    -0.02  -0.07  -0.10    -0.02   0.10   0.10     0.13  -0.08   0.02
  15   1    -0.01  -0.06  -0.10    -0.02   0.03   0.11     0.14   0.15  -0.01
  16   1    -0.00   0.10  -0.11    -0.01  -0.09   0.11     0.12  -0.04   0.02
  17   6     0.18  -0.04  -0.09    -0.15  -0.02   0.12    -0.20   0.22  -0.20
  18   1     0.12  -0.05  -0.03    -0.12   0.03   0.04    -0.04   0.04  -0.05
  19   1     0.05  -0.01  -0.07    -0.07  -0.01   0.09     0.01   0.07  -0.10
  20   1    -0.00   0.02  -0.06     0.02  -0.06   0.08    -0.09   0.12  -0.06
  21   1    -0.02   0.01   0.03    -0.01  -0.04   0.03     0.01   0.02  -0.01
  22   6    -0.05  -0.02  -0.03    -0.05  -0.02  -0.04     0.10   0.01  -0.02
  23   8    -0.05   0.06  -0.04    -0.05   0.06  -0.05     0.11  -0.03  -0.02
  24   7     0.03  -0.08   0.06     0.01  -0.08   0.07    -0.10   0.13   0.06
  25   1     0.02  -0.01   0.02     0.01  -0.01   0.02    -0.08   0.01  -0.03
  26   1     0.01  -0.04  -0.07     0.00  -0.04  -0.06    -0.02   0.10  -0.03
  27   7     0.04   0.03  -0.00     0.04   0.02  -0.01    -0.10  -0.12  -0.06
  28   1     0.06   0.11  -0.15     0.06   0.11  -0.15     0.02  -0.06  -0.15
  29   1     0.06  -0.02   0.25     0.05  -0.02   0.29    -0.11   0.03   0.30
  30   6    -0.06  -0.05   0.01    -0.04  -0.01   0.01     0.00   0.00   0.00
  31   8    -0.01  -0.08  -0.00     0.01  -0.04  -0.00     0.00   0.00   0.00
  32   7     0.08   0.02   0.02     0.03   0.03   0.02    -0.01   0.00  -0.00
  33   1     0.02   0.08   0.05     0.01   0.05   0.07    -0.00  -0.00   0.01
  34   1     0.09  -0.01  -0.07     0.05   0.00  -0.08    -0.00   0.00  -0.00
  35   7    -0.07   0.06   0.01    -0.04   0.02   0.01     0.00  -0.00   0.00
  36   1    -0.05   0.03  -0.10    -0.01   0.00  -0.09     0.00  -0.00  -0.01
[...]
  44   1    -0.25  -0.44  -0.10     0.36   0.64   0.14     0.00   0.00   0.00
  45   1     0.17   0.01   0.07    -0.29  -0.01  -0.12    -0.00   0.00  -0.00
  46   6    -0.00  -0.00   0.00    -0.00  -0.00   0.00    -0.00  -0.00   0.00
  47   8     0.00   0.00  -0.00     0.00   0.00  -0.00     0.00   0.00  -0.00
  48   7     0.00   0.00  -0.00    -0.00   0.00  -0.00    -0.00   0.00  -0.00
  49   1    -0.00  -0.00   0.00     0.00  -0.00   0.00     0.00  -0.00   0.00
  50   1     0.00   0.00  -0.00    -0.00  -0.00   0.00    -0.00  -0.00   0.00
  51   7     0.00   0.00  -0.00     0.00   0.00  -0.00     0.00  -0.00  -0.00
  52   1     0.00   0.00  -0.00     0.00   0.00  -0.00    -0.00  -0.00   0.00
  53   1    -0.00  -0.00   0.00     0.00  -0.00   0.00    -0.00   0.00  -0.00
                    142                    143                    144
                        a                      a                      a 
 Frequencies --  3496.1866              3499.7281              3499.9856
 Red. masses --     1.4393                 1.4380                 1.4636
 Frc consts  --     0.0000                 0.0000                 0.0000
 IR Inten    --    39.1050                38.2457                 4.9222
 Raman Activ --     0.0000                 0.0000                 0.0000
 Depolar     --     0.0000                 0.0000                 0.0000
 Atom AN      X      Y      Z        X      Y      Z        X      Y      Z
   1   8     0.00  -0.00   0.00    -0.00   0.00  -0.00    -0.00   0.00  -0.00
   2   6    -0.00   0.00   0.00     0.00  -0.00   0.00     0.00  -0.00  -0.00
   3   1     0.00  -0.00   0.00    -0.00   0.00  -0.00    -0.00   0.00  -0.00
   4   1     0.00   0.00  -0.00    -0.00  -0.00   0.00    -0.00  -0.00   0.00
   5   6     0.00  -0.00   0.00    -0.00   0.00  -0.00    -0.00   0.00   0.00
   6   1    -0.00   0.00  -0.00     0.00  -0.00   0.00     0.00   0.00   0.00
   7   1    -0.00  -0.00  -0.00     0.00  -0.00  -0.00    -0.00   0.00  -0.00
   8   7     0.00  -0.00  -0.00    -0.00   0.00   0.00    -0.00  -0.00  -0.00
   9   6     0.00  -0.00   0.00    -0.00  -0.00   0.00     0.00   0.00   0.00
  10   1     0.00   0.00  -0.00     0.00   0.00  -0.00     0.00   0.00  -0.00
  11   1     0.00   0.00   0.00    -0.00   0.00   0.00     0.00  -0.00   0.00
  12   1    -0.00   0.00  -0.00    -0.00  -0.00   0.00    -0.00   0.00  -0.00
  13   6     0.00   0.00   0.00    -0.00  -0.00   0.00    -0.00   0.00  -0.00
  14   1    -0.00   0.00   0.00     0.00   0.00  -0.00    -0.00   0.00   0.00
  15   1    -0.00   0.00  -0.00    -0.00   0.00   0.00     0.00  -0.00   0.00
  16   1    -0.00  -0.00  -0.00    -0.00  -0.00  -0.00    -0.00   0.00  -0.00
  17   6    -0.00  -0.00   0.00     0.00  -0.00   0.00     0.00   0.00  -0.00
  18   1    -0.00   0.00  -0.00     0.00  -0.00  -0.00     0.00   0.00  -0.00
  19   1    -0.00   0.00   0.00     0.00   0.00   0.00    -0.00  -0.00   0.00
  20   1     0.00   0.00   0.00     0.00  -0.00   0.00    -0.00   0.00   0.00
  21   1    -0.00   0.00  -0.00     0.00  -0.00   0.00     0.00  -0.00   0.00
  22   6    -0.00  -0.00   0.00    -0.00  -0.00   0.00     0.00  -0.00   0.00
  23   8     0.00  -0.00  -0.00     0.00   0.00  -0.00    -0.00  -0.00  -0.00
  24   7    -0.00   0.00   0.00    -0.00   0.00  -0.00     0.00  -0.00   0.00
  25   1    -0.00   0.00  -0.00     0.00  -0.00   0.00    -0.00   0.00  -0.00
  26   1     0.00  -0.00  -0.00    -0.00  -0.00   0.00    -0.00   0.00  -0.00
  27   7     0.00  -0.00   0.00    -0.00   0.00  -0.00     0.00  -0.00   0.00
  28   1    -0.00   0.00  -0.00     0.00  -0.00   0.00    -0.00   0.00  -0.00
  29   1     0.00   0.00  -0.00    -0.00  -0.00   0.00     0.00   0.00  -0.00
  30   6     0.00  -0.00  -0.00     0.00  -0.00   0.00    -0.00  -0.00  -0.00
  31   8     0.00   0.00   0.00    -0.00  -0.00  -0.00     0.00   0.00   0.00
  32   7     0.06  -0.12  -0.04    -0.00   0.00   0.00     0.06  -0.10  -0.03
  33   1    -0.51  -0.04   0.05     0.00   0.00  -0.00    -0.43  -0.03   0.04
  34   1     0.27   0.48   0.12    -0.00  -0.00  -0.00     0.21   0.38   0.09
  35   7     0.11   0.02  -0.02    -0.00  -0.00  -0.00    -0.14  -0.02   0.03
  36   1    -0.20  -0.42   0.01     0.00   0.00  -0.00     0.24   0.50  -0.01
  37   1    -0.22   0.34   0.08    -0.00   0.00   0.00     0.28  -0.43  -0.10
  38   6    -0.00   0.00  -0.00     0.00  -0.00   0.00    -0.00  -0.00   0.00
  39   8     0.00  -0.00   0.00    -0.00   0.00  -0.00    -0.00  -0.00  -0.00
  40   7     0.00  -0.00   0.00     0.00  -0.00   0.00     0.00   0.00   0.00
  41   1    -0.00   0.00  -0.00    -0.00   0.00  -0.00    -0.01   0.01  -0.01
  42   1    -0.00   0.00   0.00    -0.00  -0.00   0.00    -0.01  -0.02  -0.00
  43   7    -0.00   0.00  -0.00     0.00   0.00   0.00    -0.01   0.00  -0.00
  44   1    -0.00  -0.00  -0.00    -0.00  -0.00  -0.00    -0.01  -0.01  -0.00
  45   1     0.00   0.00   0.00    -0.00   0.00  -0.00     0.03   0.00   0.01
  46   6    -0.00   0.00  -0.00    -0.00   0.00  -0.00     0.00   0.00  -0.00
  47   8     0.00  -0.00  -0.00    -0.00  -0.00  -0.00    -0.00  -0.00   0.00
  48   7    -0.00   0.00  -0.00    -0.03   0.09  -0.10    -0.00   0.00  -0.00
  49   1     0.00  -0.00   0.00     0.48  -0.11   0.03     0.00  -0.00   0.00
  50   1    -0.00  -0.00   0.00    -0.36  -0.24   0.33    -0.00  -0.00   0.00
  51   7    -0.00   0.00   0.00    -0.12   0.03   0.01     0.00  -0.00   0.00
  52   1     0.00   0.00  -0.00     0.30   0.14  -0.36    -0.00  -0.00   0.00
  53   1     0.00  -0.00   0.00     0.14  -0.26   0.32    -0.00   0.00  -0.00
                    145                    146                    147
                        a                      a                      a 
 Frequencies --  3503.7518              3525.9118              3527.1430
 Red. masses --     1.4619                 1.9115                 2.0875
 Frc consts  --     0.0000                 0.0000                 0.0000
 IR Inten    --     7.4575                11.0914               109.1803
 Raman Activ --     0.0000                 0.0000                 0.0000
 Depolar     --     0.0000                 0.0000                 0.0000
 Atom AN      X      Y      Z        X      Y      Z        X      Y      Z
   1   8    -0.00  -0.00  -0.00    -0.00  -0.00  -0.00    -0.00   0.00  -0.00
   2   6    -0.00   0.00  -0.00    -0.00   0.00   0.00     0.00  -0.00  -0.00
   3   1     0.00   0.00   0.00     0.00  -0.00   0.00    -0.00  -0.00  -0.00
   4   1    -0.00  -0.00   0.00     0.00  -0.00  -0.00    -0.00   0.00   0.00
   5   6    -0.00  -0.00  -0.00     0.00  -0.00   0.00    -0.00   0.00   0.00
   6   1     0.00  -0.00   0.00    -0.00   0.00  -0.00     0.00  -0.00   0.00
   7   1    -0.00   0.00   0.00     0.00  -0.00  -0.00     0.00   0.00   0.00
   8   7     0.00  -0.00  -0.00     0.00  -0.00   0.00    -0.00   0.00  -0.00
   9   6    -0.00  -0.00   0.00     0.00  -0.00   0.00     0.00   0.00  -0.00
  10   1     0.00   0.00  -0.00     0.00  -0.00   0.00    -0.00  -0.00   0.00
  11   1    -0.00   0.00  -0.00     0.00   0.00  -0.00    -0.00  -0.00   0.00
  12   1    -0.00  -0.00   0.00    -0.00   0.00   0.00     0.00   0.00   0.00
  13   6    -0.00  -0.00   0.00     0.00   0.00  -0.00    -0.00   0.00  -0.00
  14   1     0.00   0.00  -0.00    -0.00  -0.00   0.00    -0.00  -0.00   0.00
  15   1    -0.00  -0.00   0.00    -0.00  -0.00  -0.00     0.00  -0.00   0.00
  16   1    -0.00   0.00   0.00     0.00  -0.00  -0.00    -0.00  -0.00   0.00
  17   6    -0.00  -0.00   0.00    -0.00   0.00  -0.00     0.00   0.00  -0.00
  18   1    -0.00   0.00   0.00     0.00   0.00   0.00    -0.00  -0.00  -0.00
  19   1    -0.00  -0.00   0.00     0.00  -0.00  -0.00    -0.00  -0.00   0.00
  20   1     0.00   0.00  -0.00     0.00   0.00  -0.00    -0.00  -0.00   0.00
  21   1     0.00  -0.00   0.00     0.00  -0.00   0.00     0.01  -0.00   0.01
  22   6     0.00  -0.00   0.00     0.01  -0.01  -0.00     0.00  -0.00  -0.00
  23   8    -0.00   0.00  -0.00    -0.00   0.00   0.00    -0.00   0.00  -0.00
  24   7    -0.00   0.00  -0.00     0.26  -0.03   0.00     0.03  -0.01   0.00
  25   1     0.00  -0.00   0.00    -0.03   0.09  -0.02    -0.01   0.02  -0.00
  26   1     0.00  -0.00   0.00    -0.95   0.05   0.01    -0.12   0.01   0.00
  27   7     0.00  -0.00   0.00    -0.02  -0.02  -0.00    -0.00  -0.00  -0.00
  28   1    -0.00   0.00  -0.00     0.02  -0.00   0.01     0.00  -0.00   0.00
  29   1     0.00   0.00   0.00     0.04   0.07  -0.00     0.01   0.01  -0.00
  30   6     0.00   0.00  -0.00     0.00   0.00  -0.00    -0.00  -0.00  -0.00
  31   8    -0.00  -0.00  -0.00     0.00  -0.00  -0.00     0.00   0.00   0.00
  32   7    -0.00   0.00   0.00    -0.00  -0.00  -0.00     0.00   0.01   0.00
  33   1     0.00   0.00  -0.00    -0.00  -0.00   0.00     0.00   0.00  -0.00
  34   1    -0.00  -0.00  -0.00     0.00   0.00   0.00    -0.01  -0.02  -0.00
  35   7     0.00   0.00  -0.00    -0.00  -0.00   0.00     0.00   0.00  -0.00
  36   1    -0.00  -0.00   0.00     0.00   0.00   0.00    -0.01  -0.02   0.00
  37   1    -0.00   0.00   0.00     0.00  -0.00  -0.00    -0.00   0.01   0.00
  38   6     0.00   0.00   0.00    -0.00  -0.00   0.00    -0.01  -0.00  -0.00
  39   8    -0.00  -0.00  -0.00     0.00   0.00   0.00     0.00   0.00   0.00
  40   7    -0.00  -0.00  -0.00     0.00  -0.00   0.00    -0.01   0.02  -0.01
  41   1     0.00  -0.00   0.00    -0.01   0.01  -0.01     0.04  -0.08   0.04
  42   1     0.00   0.00   0.00    -0.00  -0.00  -0.00     0.00   0.00  -0.00
  43   7     0.00   0.00   0.00     0.03   0.01   0.01    -0.25  -0.07  -0.11
  44   1    -0.00  -0.00  -0.00    -0.02  -0.04  -0.01     0.14   0.29   0.06
  45   1    -0.00   0.00  -0.00    -0.10   0.00  -0.04     0.81  -0.01   0.35
  46   6     0.00   0.00  -0.00    -0.00   0.00   0.00    -0.00  -0.00   0.00
  47   8    -0.00  -0.00   0.00     0.00  -0.00  -0.00     0.00   0.00  -0.00
  48   7    -0.03   0.08  -0.09     0.00   0.00  -0.00     0.00   0.00  -0.00
  49   1     0.44  -0.10   0.03    -0.00   0.00   0.00     0.00  -0.00   0.00
  50   1    -0.32  -0.21   0.29    -0.00  -0.00   0.00    -0.00  -0.00   0.00
  51   7     0.13  -0.04  -0.01     0.00  -0.00  -0.00     0.00  -0.00   0.00
  52   1    -0.33  -0.16   0.40    -0.00  -0.00   0.00    -0.00  -0.00   0.00
  53   1    -0.16   0.29  -0.37    -0.00   0.00  -0.00    -0.00   0.00  -0.00
                    148                    149                    150
                        a                      a                      a 
 Frequencies --  3553.9591              3559.4204              3560.4600
 Red. masses --     2.0187                 2.1892                 2.1733
 Frc consts  --     0.0000                 0.0000                 0.0000
 IR Inten    --    43.7772                13.6959                 6.9367
 Raman Activ --     0.0000                 0.0000                 0.0000
 Depolar     --     0.0000                 0.0000                 0.0000
 Atom AN      X      Y      Z        X      Y      Z        X      Y      Z
   1   8    -0.00   0.00  -0.00    -0.00   0.00  -0.00     0.00   0.00   0.00
   2   6     0.00  -0.00  -0.00     0.00  -0.00  -0.00    -0.00  -0.00  -0.00
   3   1    -0.00  -0.00  -0.00    -0.00   0.00  -0.00    -0.00   0.00  -0.00
   4   1    -0.00  -0.00   0.00    -0.00  -0.00   0.00    -0.00   0.00  -0.00
   5   6     0.00   0.00   0.00    -0.00   0.00  -0.00    -0.00   0.00  -0.00
   6   1    -0.00   0.00  -0.00     0.00  -0.00   0.00     0.00  -0.00   0.00
   7   1    -0.00   0.00  -0.00     0.00   0.00   0.00     0.00   0.00   0.00
   8   7     0.00   0.00   0.00    -0.00   0.00   0.00     0.00  -0.00   0.00
   9   6     0.00   0.00  -0.00    -0.00   0.00  -0.00    -0.00   0.00   0.00
  10   1    -0.00  -0.00   0.00    -0.00  -0.00   0.00     0.00   0.00  -0.00
  11   1     0.00  -0.00   0.00     0.00  -0.00  -0.00    -0.00  -0.00  -0.00
  12   1    -0.00   0.00  -0.00     0.00  -0.00   0.00     0.00  -0.00  -0.00
  13   6     0.00  -0.00   0.00    -0.00  -0.00  -0.00    -0.00   0.00  -0.00
  14   1    -0.00  -0.00   0.00     0.00  -0.00   0.00    -0.00   0.00  -0.00
  15   1    -0.00   0.00  -0.00     0.00  -0.00   0.00     0.00  -0.00   0.00
  16   1     0.00  -0.00   0.00     0.00   0.00   0.00    -0.00   0.00  -0.00
  17   6     0.00   0.00  -0.00     0.00   0.00  -0.00    -0.00  -0.00   0.00
  18   1    -0.00   0.00   0.00    -0.00  -0.00   0.00    -0.00   0.00  -0.00
  19   1    -0.00  -0.00   0.00    -0.00  -0.00  -0.00    -0.00   0.00  -0.00
  20   1    -0.00   0.00  -0.00    -0.00  -0.00   0.00     0.00   0.00  -0.00
  21   1     0.00  -0.00   0.00     0.00  -0.00   0.00    -0.00   0.00  -0.00
  22   6    -0.00  -0.00  -0.00     0.00   0.00   0.00    -0.01  -0.01  -0.00
  23   8     0.00   0.00   0.00    -0.00  -0.00  -0.00     0.00   0.00   0.00
  24   7     0.00  -0.00   0.00     0.00  -0.00  -0.00    -0.02   0.00  -0.00
  25   1    -0.00   0.01  -0.00     0.00  -0.00   0.00     0.00  -0.01   0.00
  26   1    -0.00  -0.00  -0.00    -0.00   0.00   0.00     0.07  -0.00  -0.00
  27   7    -0.00  -0.00  -0.00     0.00   0.00   0.00    -0.25  -0.15  -0.05
  28   1     0.00  -0.00   0.00    -0.01   0.00  -0.00     0.60  -0.04   0.19
  29   1     0.00   0.00  -0.00    -0.00  -0.01   0.00     0.36   0.61  -0.02
  30   6    -0.00  -0.00  -0.00    -0.01   0.00   0.00    -0.00   0.00   0.00
  31   8     0.00   0.00  -0.00     0.00  -0.00   0.00     0.00  -0.00  -0.00
  32   7     0.00   0.00   0.00    -0.19  -0.11  -0.01    -0.00  -0.00  -0.00
  33   1    -0.01  -0.00   0.00     0.52   0.02  -0.06     0.01   0.00  -0.00
  34   1    -0.01  -0.02  -0.00     0.21   0.41   0.10     0.00   0.01   0.00
  35   7     0.00   0.01   0.00    -0.02   0.20   0.02    -0.00   0.00   0.00
  36   1    -0.01  -0.02   0.00    -0.20  -0.38   0.01    -0.00  -0.00   0.00
  37   1     0.01  -0.01  -0.00     0.27  -0.38  -0.09     0.00  -0.00  -0.00
  38   6    -0.00  -0.01   0.00     0.00  -0.00   0.00     0.00   0.00   0.00
  39   8    -0.00   0.00   0.00    -0.00   0.00   0.00     0.00  -0.00  -0.00
  40   7     0.08  -0.25   0.09    -0.00   0.00  -0.00    -0.00   0.00  -0.00
  41   1    -0.41   0.74  -0.38     0.00  -0.00   0.00     0.00  -0.00   0.00
  42   1     0.10   0.21   0.05    -0.00  -0.00  -0.00    -0.00  -0.00  -0.00
  43   7    -0.03  -0.01  -0.01    -0.00  -0.00  -0.00     0.00  -0.00   0.00
  44   1     0.02   0.04   0.01     0.00   0.00   0.00     0.00   0.00   0.00
  45   1     0.07  -0.00   0.03     0.00  -0.00   0.00    -0.00  -0.00  -0.00
  46   6    -0.00   0.00   0.00     0.00  -0.00   0.00    -0.00   0.00  -0.00
  47   8     0.00   0.00  -0.00    -0.00   0.00  -0.00    -0.00  -0.00   0.00
  48   7    -0.00  -0.00   0.00     0.00   0.00  -0.00    -0.00  -0.00   0.00
  49   1     0.00  -0.00   0.00    -0.00   0.00  -0.00     0.00  -0.00   0.00
  50   1     0.00   0.00  -0.00    -0.00  -0.00   0.00     0.00   0.00  -0.00
  51   7     0.00   0.00  -0.00    -0.00  -0.00   0.00     0.00   0.00  -0.00
  52   1    -0.00  -0.00   0.00     0.00   0.00  -0.00    -0.00  -0.00   0.00
  53   1     0.00  -0.00   0.00    -0.00   0.00  -0.00     0.00  -0.00   0.00
                    151                    152                    153
                        a                      a                      a 
 Frequencies --  3564.0851              3564.8973              3569.5529
 Red. masses --     2.1907                 2.1753                 2.1770
 Frc consts  --     0.0000                 0.0000                 0.0000
 IR Inten    --    13.4445                17.1403                10.9603
 Raman Activ --     0.0000                 0.0000                 0.0000
 Depolar     --     0.0000                 0.0000                 0.0000
 Atom AN      X      Y      Z        X      Y      Z        X      Y      Z
   1   8     0.00  -0.00   0.00    -0.00   0.00  -0.00     0.00   0.00   0.00
   2   6    -0.00   0.00  -0.00     0.00  -0.00  -0.00    -0.00  -0.00   0.00
   3   1     0.00  -0.00   0.00    -0.00  -0.00  -0.00     0.00  -0.00   0.00
   4   1     0.00   0.00   0.00    -0.00  -0.00   0.00     0.00   0.00  -0.00
   5   6     0.00  -0.00   0.00     0.00  -0.00   0.00     0.00  -0.00   0.00
   6   1    -0.00   0.00  -0.00    -0.00   0.00  -0.00    -0.00   0.00  -0.00
   7   1     0.00   0.00   0.00    -0.00  -0.00  -0.00     0.00  -0.00  -0.00
   8   7     0.00  -0.00  -0.00    -0.00  -0.00   0.00    -0.00   0.00   0.00
   9   6     0.00   0.00  -0.00     0.00   0.00  -0.00     0.00   0.00  -0.00
  10   1    -0.00  -0.00   0.00    -0.00  -0.00   0.00    -0.00  -0.00   0.00
  11   1     0.00   0.00  -0.00     0.00  -0.00   0.00     0.00  -0.00  -0.00
  12   1    -0.00   0.00  -0.00    -0.00   0.00  -0.00    -0.00   0.00  -0.00
  13   6     0.00   0.00  -0.00     0.00  -0.00   0.00     0.00   0.00  -0.00
  14   1    -0.00  -0.00   0.00    -0.00  -0.00   0.00    -0.00  -0.00   0.00
  15   1    -0.00   0.00  -0.00    -0.00   0.00  -0.00    -0.00   0.00  -0.00
  16   1     0.00   0.00  -0.00    -0.00  -0.00  -0.00     0.00   0.00   0.00
  17   6    -0.00  -0.00   0.00     0.00   0.00   0.00     0.00   0.00  -0.00
  18   1    -0.00   0.00   0.00    -0.00  -0.00  -0.00     0.00  -0.00  -0.00
  19   1    -0.00  -0.00   0.00     0.00  -0.00  -0.00     0.00   0.00  -0.00
  20   1     0.00   0.00  -0.00    -0.00  -0.00   0.00    -0.00  -0.00   0.00
  21   1    -0.00   0.00  -0.00     0.00  -0.00   0.00    -0.00   0.00  -0.00
  22   6     0.00   0.00  -0.00     0.00   0.00   0.00    -0.00   0.00  -0.00
  23   8    -0.00  -0.00   0.00     0.00  -0.00   0.00     0.00  -0.00   0.00
  24   7    -0.00  -0.00   0.00     0.00  -0.00   0.00    -0.00  -0.00   0.00
  25   1    -0.00   0.00  -0.00    -0.00   0.00  -0.00    -0.00   0.00  -0.00
  26   1     0.00  -0.00  -0.00    -0.00   0.00  -0.00     0.00  -0.00  -0.00
  27   7    -0.00  -0.00  -0.00     0.00   0.00   0.00    -0.00  -0.00  -0.00
  28   1     0.00  -0.00   0.00    -0.00   0.00  -0.00     0.00  -0.00   0.00
  29   1     0.00   0.00  -0.00    -0.00  -0.00   0.00     0.00   0.00  -0.00
  30   6     0.00   0.00   0.00    -0.01  -0.01  -0.00    -0.00  -0.00  -0.00
  31   8    -0.00  -0.00  -0.00     0.00   0.00   0.00     0.00   0.00   0.00
  32   7     0.00   0.00   0.00    -0.17  -0.10  -0.01    -0.00  -0.00  -0.00
  33   1    -0.00  -0.00   0.00     0.46   0.01  -0.05     0.00   0.00  -0.00
  34   1    -0.00  -0.00  -0.00     0.19   0.38   0.10     0.00   0.00   0.00
  35   7    -0.00   0.00   0.00     0.02  -0.22  -0.02     0.00  -0.00  -0.00
  36   1    -0.00  -0.00   0.00     0.23   0.43  -0.01     0.00   0.00  -0.00
  37   1     0.00  -0.00  -0.00    -0.29   0.41   0.10    -0.00   0.00   0.00
  38   6    -0.00   0.00  -0.00    -0.00  -0.00  -0.00    -0.00  -0.00  -0.00
  39   8     0.00  -0.00   0.00    -0.00  -0.00   0.00     0.00  -0.00   0.00
  40   7     0.00  -0.00   0.00     0.00  -0.01   0.00     0.00  -0.00   0.00
  41   1    -0.00   0.00  -0.00    -0.01   0.02  -0.01    -0.00   0.00  -0.00
  42   1     0.00   0.00   0.00     0.01   0.02   0.00     0.00   0.00   0.00
  43   7     0.00  -0.00   0.00    -0.00  -0.00  -0.00     0.00  -0.00   0.00
  44   1    -0.00  -0.00  -0.00     0.01   0.01   0.00     0.00   0.00   0.00
  45   1    -0.00   0.00  -0.00     0.01  -0.00   0.00    -0.00  -0.00  -0.00
  46   6     0.01  -0.00   0.00     0.00  -0.00   0.00     0.01   0.00  -0.01
  47   8    -0.00   0.00  -0.00    -0.00   0.00  -0.00    -0.00  -0.00   0.00
  48   7     0.21   0.02  -0.07     0.00   0.00  -0.00     0.20   0.02  -0.06
  49   1    -0.49   0.13  -0.04    -0.00   0.00  -0.00    -0.47   0.12  -0.04
  50   1    -0.29  -0.21   0.28    -0.00  -0.00   0.00    -0.29  -0.21   0.28
  51   7    -0.03  -0.11   0.18    -0.00  -0.00   0.00     0.03   0.11  -0.18
  52   1     0.28   0.12  -0.31     0.00   0.00  -0.00    -0.30  -0.12   0.33
  53   1    -0.18   0.30  -0.36    -0.00   0.00  -0.00     0.18  -0.30   0.36
