 Entering Gaussian System
 *********************************************
 Gaussian 98:
 frequency output generated by the xtb code
 *********************************************
                         Standard orientation:
 --------------------------------------------------------------------
  Center     Atomic     Atomic              Coordinates (Angstroms)
  Number     Number      Type              X           Y           Z
 --------------------------------------------------------------------
    1          8             0        2.412397    0.627724   -0.213273
    2          6             0        3.152786   -0.514408    0.127491
    3          1             0        3.023166   -1.304780   -0.614651
    4          1             0        4.201502   -0.202575    0.114977
    5          6             0        2.827834   -1.012550    1.551714
    6          1             0        2.352018   -0.180787    2.076870
    7          1             0        3.751503   -1.276617    2.068550
    8          7             0        1.906160   -2.176951    1.669733
    9          6             0        0.676558   -1.950765    0.894663
   10          1             0       -0.037928   -2.744449    1.100956
   11          1             0        0.899543   -1.956605   -0.171838
   12          1             0        0.246582   -0.995254    1.183026
   13          6             0        1.542271   -2.300639    3.091658
   14          1             0        1.015515   -1.399088    3.404215
   15          1             0        2.433621   -2.428411    3.703535
   16          1             0        0.889957   -3.159535    3.237453
   17          6             0        2.554282   -3.413073    1.204629
   18          1             0        3.505762   -3.557333    1.712095
   19          1             0        2.712497   -3.363265    0.128096
   20          1             0        1.909118   -4.264259    1.413071
   21          1             0        1.534399    0.377232   -0.588104
   22          6             0       -1.074069    0.590763   -1.032759
   23          8             0        0.015415    0.055896   -1.287702
   24          7             0       -1.392222    1.036642    0.192172
   25          1             0       -0.746689    0.957339    0.964583
   26          1             0       -2.279057    1.494609    0.325731
   27          7             0       -2.042485    0.720973   -1.960292
   28          1             0       -2.868469    1.253224   -1.717322
   29          1             0       -1.833030    0.527426   -2.922433
   30          6             0        0.878818    2.019073    2.635596
   31          8             0        0.461959    0.863525    2.530676
   32          7             0        0.407208    2.853660    3.592850
   33          1             0       -0.234328    2.488750    4.273767
   34          1             0        0.802028    3.762814    3.748544
   35          7             0        1.827474    2.506632    1.816381
   36          1             0        2.086098    3.475987    1.835487
   37          1             0        2.111955    1.940904    1.015743
   38          6             0        1.845628   -2.584394   -2.950027
   39          8             0        2.103470   -2.805117   -1.770005
   40          7             0        0.949500   -1.652957   -3.330130
   41          1             0        0.582273   -1.013627   -2.625779
   42          1             0        0.869713   -1.391210   -4.296019
   43          7             0        2.457269   -3.275366   -3.947598
   44          1             0        2.153394   -3.203278   -4.901409
   45          1             0        3.027251   -4.063138   -3.695887
   46          6             0       -5.235319    2.486252   -0.624398
   47          8             0       -4.051700    2.186761   -0.551748
   48          7             0       -6.122654    1.755838   -1.345634
   49          1             0       -5.822412    0.869759   -1.712008
   50          1             0       -7.110228    1.928225   -1.293906
   51          7             0       -5.745097    3.569989    0.008613
   52          1             0       -6.681640    3.889436   -0.160024
   53          1             0       -5.101124    4.208316    0.441260
 --------------------------------------------------------------------
     1 basis functions        1 primitive gaussians
     1 alpha electrons        1 beta electrons

 Harmonic frequencies (cm**-1), IR intensities (km*mol⁻¹),
 Raman scattering activities (A**4/amu), Raman depolarization ratios,
 reduced masses (AMU), force constants (mDyne/A) and normal coordinates:
                      1                      2                      3
                        a                      a                      a 
 Frequencies --    11.6363                13.3625                15.4143
 Red. masses --    11.8904                11.3582                11.6501
 Frc consts  --     0.0000                 0.0000                 0.0000
 IR Inten    --     2.4549                 0.4306                 1.1988
 Raman Activ --     0.0000                 0.0000                 0.0000
 Depolar     --     0.0000                 0.0000                 0.0000
 Atom AN      X      Y      Z        X      Y      Z        X      Y      Z
   1   8    -0.13   0.04  -0.04    -0.05   0.01   0.00    -0.06   0.03  -0.02
   2   6    -0.02   0.09  -0.03    -0.01   0.03  -0.02     0.01   0.06  -0.07
   3   1     0.01   0.02  -0.01     0.00   0.01  -0.01     0.00   0.02  -0.02
   4   1    -0.01   0.05  -0.01    -0.00   0.02  -0.01    -0.00   0.03  -0.04
   5   6     0.03   0.08  -0.02     0.03   0.01  -0.02     0.11   0.04  -0.05
   6   1    -0.01   0.01  -0.01     0.01  -0.00  -0.00     0.04   0.01  -0.00
   7   1     0.02   0.04  -0.01     0.01   0.01  -0.01     0.04   0.02  -0.03
   8   7     0.12   0.02  -0.00     0.06  -0.01  -0.01     0.17   0.01   0.00
   9   6     0.08  -0.07   0.01     0.04  -0.03   0.01     0.11  -0.03   0.07
  10   1     0.04  -0.03   0.01     0.02  -0.01   0.00     0.04  -0.02   0.03
  11   1     0.02  -0.02   0.00     0.01  -0.01   0.00     0.01  -0.01   0.02
  12   1     0.01  -0.03   0.00     0.01  -0.01   0.01     0.03  -0.01   0.03
  13   6     0.13   0.01   0.00     0.08  -0.03  -0.01     0.24  -0.00   0.02
  14   1     0.02  -0.01  -0.00     0.02  -0.01   0.00     0.06  -0.01   0.01
  15   1     0.04   0.02  -0.00     0.03  -0.00  -0.01     0.08   0.01  -0.01
  16   1     0.05  -0.01   0.00     0.03  -0.01  -0.00     0.08  -0.01   0.02
  17   6     0.19   0.06   0.00     0.07   0.00  -0.03     0.18   0.03  -0.03
  18   1     0.06   0.04  -0.00     0.02   0.01  -0.01     0.06   0.02  -0.02
  19   1     0.05   0.02   0.00     0.02   0.00  -0.01     0.03   0.01  -0.01
  20   1     0.07   0.01   0.00     0.03  -0.00  -0.01     0.06   0.00  -0.00
  21   1    -0.03  -0.01  -0.01    -0.01  -0.00   0.00    -0.02  -0.00   0.01
  22   6    -0.07  -0.14  -0.02    -0.03   0.00   0.04    -0.07  -0.02   0.11
  23   8    -0.09  -0.18  -0.02    -0.06  -0.04   0.04    -0.10  -0.07   0.12
  24   7    -0.07  -0.12  -0.03    -0.02  -0.02   0.05    -0.05  -0.04   0.14
  25   1    -0.02  -0.04  -0.01    -0.01  -0.01   0.01    -0.01  -0.02   0.03
  26   1    -0.02  -0.03  -0.01     0.00   0.01   0.01    -0.01   0.00   0.04
  27   7    -0.08  -0.16  -0.02    -0.02   0.06   0.04    -0.07   0.04   0.13
  28   1    -0.02  -0.04  -0.01     0.01   0.03   0.01    -0.01   0.03   0.04
  29   1    -0.02  -0.05  -0.00    -0.00   0.03   0.01    -0.02   0.02   0.03
  30   6    -0.16  -0.05  -0.01    -0.03  -0.05   0.05     0.01  -0.06   0.07
  31   8    -0.10  -0.09   0.00    -0.01  -0.07   0.04     0.05  -0.09   0.08
  32   7    -0.20  -0.08  -0.00    -0.02  -0.09   0.08     0.03  -0.10   0.11
  33   1    -0.04  -0.04   0.01    -0.00  -0.03   0.02     0.02  -0.04   0.04
  34   1    -0.07  -0.02  -0.00    -0.01  -0.02   0.02    -0.00  -0.02   0.03
  35   7    -0.22   0.01  -0.04    -0.06  -0.02   0.04    -0.05  -0.02   0.03
  36   1    -0.08   0.01  -0.01    -0.02  -0.01   0.01    -0.02  -0.00   0.01
  37   1    -0.05   0.01  -0.01    -0.02  -0.00   0.01    -0.02   0.00   0.00
  38   6     0.10  -0.04   0.00    -0.02   0.01  -0.01    -0.11  -0.02   0.01
  39   8     0.16  -0.00   0.00     0.02   0.02  -0.02    -0.01   0.01  -0.01
  40   7     0.02  -0.13   0.00    -0.06  -0.01   0.01    -0.19  -0.07   0.07
  41   1    -0.01  -0.04  -0.00    -0.02  -0.01   0.01    -0.04  -0.02   0.02
  42   1    -0.01  -0.04  -0.00    -0.03  -0.01   0.00    -0.08  -0.03   0.02
  43   7     0.15  -0.01   0.01    -0.04   0.03  -0.03    -0.19  -0.03  -0.03
  44   1     0.03  -0.02   0.00    -0.02   0.01  -0.01    -0.07  -0.02  -0.00
  45   1     0.06   0.01   0.00    -0.00   0.01  -0.01    -0.04   0.00  -0.02
  46   6     0.03   0.17   0.04     0.03   0.06  -0.05    -0.01   0.08  -0.16
  47   8    -0.02  -0.07  -0.01     0.07   0.24  -0.01    -0.00   0.16   0.03
  48   7    -0.15   0.36   0.10     0.05  -0.37   0.36     0.20   0.15  -0.49
  49   1    -0.10   0.08   0.03     0.03  -0.14   0.21     0.09   0.06  -0.15
  50   1    -0.03   0.15   0.04     0.01  -0.13   0.10     0.05   0.02  -0.18
  51   7     0.30   0.30   0.07    -0.03   0.30  -0.52    -0.22  -0.06  -0.11
  52   1     0.10   0.13   0.03    -0.02   0.04  -0.16    -0.06  -0.03  -0.07
  53   1     0.12   0.05   0.01    -0.02   0.15  -0.24    -0.10  -0.02   0.04
                      4                      5                      6
                        a                      a                      a 
 Frequencies --    22.6890                27.7024                32.6879
 Red. masses --    12.5797                12.4878                12.3800
 Frc consts  --     0.0000                 0.0000                 0.0000
 IR Inten    --     1.9806                 1.3901                 0.9288
 Raman Activ --     0.0000                 0.0000                 0.0000
 Depolar     --     0.0000                 0.0000                 0.0000
 Atom AN      X      Y      Z        X      Y      Z        X      Y      Z
   1   8     0.08  -0.01   0.03    -0.03  -0.15  -0.08     0.21  -0.01   0.09
   2   6     0.03  -0.04   0.00    -0.03  -0.11   0.01     0.13  -0.05   0.06
   3   1    -0.00  -0.01  -0.00     0.00  -0.04   0.01     0.03  -0.01   0.01
   4   1     0.01  -0.02  -0.00    -0.01  -0.03   0.01     0.04  -0.03   0.02
   5   6     0.03  -0.04   0.00    -0.08  -0.06   0.01     0.09  -0.06   0.05
   6   1     0.02  -0.01   0.00    -0.04  -0.02  -0.01     0.02  -0.02   0.01
   7   1     0.01  -0.02  -0.00    -0.03  -0.00   0.02     0.02  -0.02   0.02
   8   7     0.00  -0.02   0.00    -0.05  -0.09   0.02     0.09  -0.06   0.01
   9   6    -0.01   0.03   0.03    -0.04  -0.13   0.00     0.09  -0.02   0.02
  10   1    -0.01   0.02   0.01    -0.01  -0.04   0.00     0.02  -0.00   0.00
  11   1    -0.01   0.01   0.01    -0.01  -0.04   0.00     0.03  -0.00   0.00
  12   1     0.01   0.01   0.01    -0.02  -0.04  -0.01     0.03  -0.00   0.01
  13   6     0.02  -0.03   0.01    -0.05  -0.08   0.02     0.08  -0.09   0.01
  14   1     0.02  -0.01   0.01    -0.02  -0.02   0.00     0.02  -0.03   0.01
  15   1     0.01  -0.02  -0.00    -0.02  -0.02   0.01     0.02  -0.03   0.00
  16   1     0.00  -0.00   0.00    -0.01  -0.02   0.01     0.02  -0.03  -0.01
  17   6    -0.04  -0.03  -0.03    -0.00  -0.08   0.04     0.07  -0.05  -0.02
  18   1    -0.01  -0.02  -0.01     0.00  -0.01   0.01     0.02  -0.02  -0.01
  19   1    -0.02  -0.01  -0.01    -0.00  -0.03   0.01     0.02  -0.01  -0.01
  20   1    -0.02  -0.00  -0.01     0.01  -0.03   0.02     0.02  -0.01  -0.01
  21   1     0.01   0.01   0.02    -0.02  -0.04   0.00     0.05   0.01   0.03
  22   6    -0.03  -0.06   0.10    -0.11  -0.09   0.13     0.05   0.04   0.06
  23   8     0.03   0.06   0.09    -0.15  -0.13   0.12     0.13   0.16   0.13
  24   7    -0.02  -0.01   0.09    -0.13  -0.20   0.18    -0.13  -0.19   0.10
  25   1     0.00   0.02   0.02    -0.02  -0.04   0.04    -0.05  -0.04   0.04
  26   1    -0.02  -0.04   0.03    -0.02  -0.02   0.05    -0.04  -0.05   0.01
  27   7    -0.08  -0.24   0.14    -0.12  -0.02   0.15     0.17   0.13  -0.03
  28   1    -0.04  -0.10   0.04    -0.02   0.02   0.04     0.03   0.02  -0.02
  29   1    -0.03  -0.09   0.04    -0.03   0.01   0.04     0.08   0.08  -0.01
  30   6     0.15   0.02   0.03     0.04   0.08  -0.16    -0.10   0.01  -0.11
  31   8     0.10   0.06   0.01     0.09   0.06  -0.05     0.02  -0.05  -0.05
  32   7     0.19   0.04   0.04     0.00   0.18  -0.28    -0.46   0.13  -0.39
  33   1     0.04   0.02   0.01     0.01   0.06  -0.06    -0.13   0.03  -0.11
  34   1     0.07   0.00   0.02    -0.00   0.05  -0.10    -0.12   0.03  -0.09
  35   7     0.21  -0.02   0.07     0.03   0.02  -0.23     0.05  -0.03   0.05
  36   1     0.07  -0.01   0.02    -0.00   0.01  -0.09    -0.03   0.00  -0.02
  37   1     0.05  -0.01   0.01     0.01  -0.01  -0.05     0.05  -0.02   0.03
  38   6    -0.03   0.10  -0.01     0.12   0.10   0.00    -0.12   0.04   0.01
  39   8    -0.08   0.03  -0.02     0.00  -0.06   0.00    -0.03   0.05  -0.01
  40   7     0.01   0.16   0.01     0.12   0.11   0.03    -0.07   0.13   0.08
  41   1     0.00   0.04   0.01     0.00  -0.00   0.02     0.01   0.04   0.03
  42   1     0.02   0.06   0.01     0.06   0.06   0.02    -0.04   0.03   0.02
  43   7    -0.02   0.15  -0.04     0.31   0.30  -0.03    -0.30  -0.04  -0.03
  44   1     0.00   0.06  -0.01     0.11   0.11  -0.01    -0.10  -0.00  -0.00
  45   1    -0.02   0.03  -0.02     0.08   0.08  -0.02    -0.09  -0.02  -0.02
  46   6    -0.13  -0.05  -0.12     0.01   0.08   0.04     0.01  -0.01  -0.00
  47   8    -0.25  -0.41   0.03     0.04   0.21   0.14    -0.00  -0.07  -0.03
  48   7    -0.28   0.11  -0.13     0.13   0.02  -0.04    -0.04   0.01   0.04
  49   1    -0.13  -0.01   0.01     0.06   0.01  -0.01    -0.02  -0.00   0.01
  50   1    -0.06   0.10  -0.06     0.03  -0.02  -0.03    -0.01   0.02   0.02
  51   7     0.10   0.18  -0.33    -0.13   0.04   0.01     0.08   0.02  -0.01
  52   1     0.05   0.11  -0.12    -0.04  -0.01  -0.02     0.02   0.02   0.00
  53   1     0.06   0.01  -0.09    -0.06   0.02   0.02     0.03  -0.00  -0.01
                      7                      8                      9
                        a                      a                      a 
 Frequencies --    43.6494                52.5795                53.2264
 Red. masses --    12.4090                12.4758                12.1121
 Frc consts  --     0.0000                 0.0000                 0.0000
 IR Inten    --     3.1465                 3.8641                 0.1114
 Raman Activ --     0.0000                 0.0000                 0.0000
 Depolar     --     0.0000                 0.0000                 0.0000
 Atom AN      X      Y      Z        X      Y      Z        X      Y      Z
   1   8    -0.00   0.13   0.07     0.01   0.03   0.07    -0.12   0.00   0.09
   2   6    -0.05   0.09   0.09     0.03   0.05   0.11    -0.08  -0.01  -0.01
   3   1    -0.00   0.04   0.01     0.04   0.02   0.02    -0.04   0.00  -0.01
   4   1    -0.01   0.02   0.05     0.00   0.03   0.06    -0.02  -0.01  -0.03
   5   6    -0.18   0.06   0.05    -0.07   0.01   0.07     0.03  -0.04   0.00
   6   1    -0.09   0.01  -0.00    -0.04  -0.01   0.01     0.03  -0.01   0.02
   7   1    -0.07   0.04   0.05    -0.03   0.01   0.04     0.02  -0.02  -0.02
   8   7    -0.12  -0.01  -0.07    -0.03  -0.03  -0.03     0.02  -0.03   0.05
   9   6    -0.07  -0.06  -0.14     0.03  -0.06  -0.11    -0.07   0.06   0.22
  10   1    -0.01  -0.04  -0.07     0.01  -0.02  -0.05    -0.02   0.01   0.07
  11   1     0.00   0.01  -0.04     0.03  -0.01  -0.03    -0.06   0.05   0.06
  12   1    -0.05  -0.03  -0.03    -0.01  -0.02  -0.04    -0.01   0.01   0.11
  13   6    -0.19  -0.10  -0.10    -0.12  -0.09  -0.05     0.21  -0.12   0.09
  14   1    -0.06  -0.04  -0.02    -0.05  -0.03  -0.02     0.08  -0.04   0.07
  15   1    -0.07  -0.03  -0.01    -0.05  -0.02   0.00     0.08  -0.06  -0.01
  16   1    -0.05  -0.03  -0.05    -0.03  -0.03  -0.04     0.06  -0.03   0.03
  17   6     0.01   0.05  -0.08     0.06   0.01  -0.01    -0.07  -0.02  -0.12
  18   1    -0.00   0.03  -0.01     0.01   0.01   0.02     0.00  -0.02  -0.08
  19   1     0.01   0.03  -0.02     0.05   0.02   0.00    -0.07   0.01  -0.04
  20   1     0.02  -0.00  -0.04     0.02  -0.01  -0.03    -0.02  -0.00  -0.02
  21   1     0.01   0.04  -0.00     0.00  -0.00   0.02    -0.03   0.00   0.02
  22   6     0.05  -0.09   0.04    -0.03  -0.04   0.02     0.02  -0.08  -0.04
  23   8     0.11   0.07  -0.10    -0.03  -0.08   0.10    -0.00  -0.17  -0.01
  24   7     0.10  -0.22   0.10    -0.06   0.04  -0.02     0.17   0.26  -0.13
  25   1     0.06  -0.02   0.01    -0.02   0.02   0.00     0.04   0.06  -0.03
  26   1     0.03  -0.07   0.05    -0.01   0.03  -0.02     0.04   0.06  -0.03
  27   7    -0.06  -0.19   0.14    -0.01  -0.11  -0.01    -0.06  -0.32   0.02
  28   1    -0.01  -0.06   0.06     0.00  -0.01  -0.02    -0.01  -0.06  -0.01
  29   1    -0.02  -0.01   0.03     0.01  -0.04   0.00    -0.04  -0.14   0.01
  30   6    -0.03   0.14   0.03     0.08   0.05   0.01    -0.04   0.05   0.04
  31   8     0.04   0.13   0.06    -0.07   0.13  -0.11     0.01   0.04   0.09
  32   7    -0.04   0.12   0.06     0.04   0.09  -0.04    -0.22   0.14  -0.10
  33   1     0.00   0.02   0.02    -0.02   0.04  -0.04    -0.06   0.04  -0.02
  34   1    -0.03   0.04   0.01     0.05   0.00   0.02    -0.05   0.03  -0.02
  35   7    -0.12   0.21  -0.03     0.31  -0.06   0.20     0.05   0.02   0.13
  36   1    -0.03   0.06  -0.00     0.10  -0.02   0.06    -0.01   0.01   0.01
  37   1    -0.02   0.05   0.00     0.07  -0.01   0.04     0.01   0.00   0.04
  38   6    -0.03  -0.02  -0.07     0.01   0.01  -0.00    -0.11   0.08  -0.06
  39   8     0.10   0.11  -0.08     0.33   0.13  -0.05    -0.29   0.05  -0.04
  40   7    -0.08  -0.07  -0.07    -0.39  -0.31   0.14    -0.13   0.04  -0.14
  41   1     0.00   0.00  -0.03    -0.08  -0.08   0.05    -0.05   0.00  -0.04
  42   1    -0.05  -0.04  -0.02    -0.16  -0.09   0.04     0.01   0.04  -0.04
  43   7    -0.15  -0.14  -0.07     0.03   0.17  -0.10     0.07   0.18  -0.01
  44   1    -0.06  -0.06  -0.01    -0.05   0.01  -0.01     0.04   0.04  -0.01
  45   1    -0.02  -0.02  -0.01     0.09   0.10  -0.05     0.01   0.04   0.01
  46   6     0.17  -0.05   0.06    -0.02   0.03  -0.05     0.14  -0.03  -0.02
  47   8     0.15  -0.14   0.33     0.01   0.13  -0.25     0.18   0.02  -0.10
  48   7     0.27  -0.03  -0.08    -0.07  -0.01   0.04     0.15  -0.06   0.00
  49   1     0.07  -0.02   0.01    -0.01   0.01  -0.02     0.05  -0.01  -0.01
  50   1     0.07   0.01  -0.07    -0.02  -0.02   0.05     0.04  -0.03   0.01
  51   7     0.14   0.02  -0.10    -0.02  -0.05   0.08     0.14  -0.08   0.03
  52   1     0.05   0.02  -0.07    -0.02  -0.03   0.05     0.03  -0.03   0.02
  53   1     0.03  -0.01   0.00    -0.00  -0.00  -0.00     0.04  -0.02   0.00
                     10                     11                     12
                        a                      a                      a 
 Frequencies --    57.0633                60.6091                64.3407
 Red. masses --    13.0423                12.8098                11.5048
 Frc consts  --     0.0000                 0.0000                 0.0000
 IR Inten    --     3.2382                 1.5578                 3.1294
 Raman Activ --     0.0000                 0.0000                 0.0000
 Depolar     --     0.0000                 0.0000                 0.0000
 Atom AN      X      Y      Z        X      Y      Z        X      Y      Z
   1   8     0.04  -0.10   0.01    -0.11   0.06  -0.01    -0.10   0.05   0.06
   2   6     0.06  -0.06   0.04    -0.05   0.05  -0.10    -0.10   0.04   0.06
   3   1     0.03  -0.02   0.01    -0.02   0.02  -0.03    -0.02   0.02   0.01
   4   1     0.01  -0.01   0.02    -0.02   0.02  -0.04    -0.03   0.01   0.03
   5   6     0.02  -0.07   0.03     0.05   0.00  -0.09    -0.16   0.02   0.04
   6   1     0.00  -0.02   0.01     0.04   0.00  -0.00    -0.11  -0.01  -0.01
   7   1     0.00  -0.02   0.01     0.02  -0.02  -0.05    -0.05   0.06   0.04
   8   7     0.00  -0.06   0.00    -0.00   0.05  -0.06     0.03  -0.14  -0.03
   9   6     0.03  -0.03  -0.03     0.01   0.06  -0.07    -0.01  -0.25  -0.00
  10   1     0.00  -0.01  -0.02    -0.01   0.03  -0.01     0.03  -0.11  -0.02
  11   1     0.02  -0.01  -0.01     0.00  -0.00  -0.02    -0.01  -0.04  -0.00
  12   1     0.01  -0.01  -0.01     0.01   0.03  -0.03    -0.04  -0.09   0.02
  13   6    -0.03  -0.06  -0.01    -0.02   0.11  -0.05     0.07  -0.30  -0.04
  14   1    -0.00  -0.01  -0.00    -0.01   0.04  -0.03     0.00  -0.11   0.02
  15   1    -0.01  -0.03   0.00    -0.01   0.04  -0.01     0.03  -0.08  -0.02
  16   1    -0.02  -0.01  -0.01    -0.01   0.04  -0.00     0.04  -0.11  -0.03
  17   6    -0.01  -0.06   0.01    -0.04   0.01  -0.00     0.21  -0.01  -0.11
  18   1    -0.01  -0.02   0.01    -0.02  -0.01   0.02     0.08   0.04  -0.05
  19   1     0.01  -0.02   0.00     0.01  -0.00   0.00     0.04   0.01  -0.04
  20   1    -0.01  -0.02  -0.01    -0.03   0.01  -0.01     0.11  -0.04  -0.03
  21   1     0.02  -0.03  -0.01    -0.03   0.02  -0.01    -0.03   0.01   0.02
  22   6     0.09   0.16   0.01    -0.05   0.03  -0.03     0.03   0.04   0.05
  23   8     0.01  -0.01  -0.00    -0.09   0.03  -0.13    -0.04  -0.12   0.10
  24   7     0.28   0.44  -0.04     0.07   0.11  -0.02     0.13   0.26   0.00
  25   1     0.05   0.04  -0.00     0.03   0.01  -0.01     0.03   0.04   0.00
  26   1     0.06   0.09   0.01     0.02   0.01   0.02     0.04   0.07   0.00
  27   7     0.07   0.23   0.06    -0.17  -0.00   0.08     0.03   0.05   0.06
  28   1     0.01   0.04   0.03    -0.03   0.00   0.04     0.01   0.02   0.01
  29   1    -0.02   0.00   0.02    -0.07   0.00   0.01    -0.01  -0.04   0.02
  30   6    -0.04  -0.02  -0.04     0.02  -0.05   0.03     0.03   0.12   0.02
  31   8     0.14  -0.11   0.13    -0.03  -0.03  -0.05     0.05   0.13   0.03
  32   7    -0.12   0.02  -0.11    -0.28   0.04  -0.19     0.01   0.14  -0.00
  33   1     0.01  -0.01   0.00    -0.11   0.02  -0.08     0.01   0.03   0.01
  34   1    -0.06   0.02  -0.06    -0.04  -0.01  -0.00     0.01   0.03   0.00
  35   7    -0.22   0.05  -0.20     0.38  -0.18   0.37     0.03   0.13   0.02
  36   1    -0.09   0.02  -0.08     0.07  -0.04   0.08     0.00   0.04   0.00
  37   1    -0.04  -0.00  -0.03     0.08  -0.03   0.08     0.01   0.03   0.01
  38   6     0.01  -0.03   0.01     0.11  -0.10  -0.00     0.08  -0.06  -0.03
  39   8     0.13   0.00  -0.01     0.11  -0.09   0.01     0.07  -0.10  -0.03
  40   7    -0.23  -0.24   0.06     0.18  -0.07  -0.04     0.31   0.15  -0.02
  41   1    -0.05  -0.06   0.02     0.04  -0.02  -0.02     0.08   0.03  -0.00
  42   1    -0.07  -0.06   0.02     0.04  -0.03  -0.01     0.07   0.03  -0.01
  43   7     0.13   0.12  -0.03     0.10  -0.18   0.03    -0.14  -0.27  -0.03
  44   1     0.01   0.01  -0.00     0.04  -0.05   0.00    -0.03  -0.05  -0.01
  45   1     0.08   0.06  -0.02     0.02  -0.05   0.02    -0.07  -0.09  -0.01
  46   6    -0.08  -0.04   0.05    -0.04   0.03   0.09    -0.12   0.04  -0.04
  47   8    -0.14  -0.19   0.26    -0.07   0.01   0.35    -0.12   0.09  -0.16
  48   7    -0.06   0.02  -0.06     0.07   0.03  -0.04    -0.17   0.02   0.02
  49   1    -0.03  -0.01   0.02     0.03  -0.00   0.02    -0.04   0.01  -0.01
  50   1    -0.01   0.03  -0.05     0.02   0.01  -0.05    -0.05  -0.00   0.03
  51   7    -0.06   0.05  -0.09    -0.14   0.08  -0.05    -0.12   0.01   0.03
  52   1    -0.00   0.04  -0.06    -0.03   0.02  -0.06    -0.04  -0.00   0.03
  53   1    -0.02  -0.00  -0.00    -0.06   0.02   0.01    -0.03   0.01  -0.01
                     13                     14                     15
                        a                      a                      a 
 Frequencies --    72.2769                79.2894                88.7865
 Red. masses --    12.2720                11.9180                13.1623
 Frc consts  --     0.0000                 0.0000                 0.0000
 IR Inten    --     3.8357                 6.1533                 9.7440
 Raman Activ --     0.0000                 0.0000                 0.0000
 Depolar     --     0.0000                 0.0000                 0.0000
 Atom AN      X      Y      Z        X      Y      Z        X      Y      Z
   1   8     0.14  -0.06   0.01    -0.08  -0.09   0.19     0.01  -0.13   0.00
   2   6     0.15  -0.04   0.02     0.07  -0.01   0.10     0.10  -0.00   0.17
   3   1     0.06  -0.01   0.00     0.05   0.00   0.02     0.08  -0.01   0.05
   4   1     0.04   0.00   0.02     0.01   0.03   0.04     0.02   0.04   0.08
   5   6     0.12  -0.06   0.01     0.15  -0.14   0.07    -0.01   0.01   0.15
   6   1     0.07  -0.01   0.02     0.09  -0.04   0.06    -0.03  -0.00   0.03
   7   1     0.03  -0.06  -0.01     0.05  -0.09  -0.02    -0.01   0.02   0.07
   8   7    -0.02   0.04  -0.03     0.02  -0.04   0.02     0.06  -0.05   0.07
   9   6     0.07   0.14  -0.13     0.00   0.21   0.12     0.07  -0.05   0.04
  10   1    -0.01   0.07  -0.04    -0.02   0.08   0.01     0.03  -0.03  -0.01
  11   1     0.04   0.01  -0.03    -0.02   0.10   0.03     0.03   0.01   0.01
  12   1     0.05   0.06  -0.06     0.04   0.07   0.08     0.01  -0.02   0.02
  13   6    -0.15   0.13  -0.05     0.10  -0.16   0.03     0.03  -0.16   0.05
  14   1    -0.03   0.05  -0.04     0.07  -0.04   0.05    -0.01  -0.06   0.03
  15   1    -0.06   0.03   0.01     0.04  -0.10  -0.01     0.01  -0.05   0.02
  16   1    -0.06   0.05  -0.02     0.00  -0.03  -0.01     0.02  -0.06  -0.01
  17   6    -0.11  -0.04   0.06    -0.18  -0.08  -0.16     0.14   0.02   0.01
  18   1    -0.06  -0.05   0.05    -0.05  -0.08  -0.06     0.05   0.02  -0.00
  19   1     0.01  -0.02   0.02    -0.06   0.01  -0.05     0.03   0.02   0.00
  20   1    -0.07   0.01  -0.01    -0.09  -0.00  -0.06     0.06  -0.01  -0.00
  21   1     0.04  -0.02   0.01     0.00  -0.04   0.01     0.01  -0.05  -0.01
  22   6    -0.04  -0.04   0.09    -0.02  -0.04  -0.09    -0.05   0.02  -0.11
  23   8    -0.01   0.03   0.12    -0.01   0.05  -0.23    -0.05   0.04  -0.13
  24   7     0.04   0.25   0.01    -0.04  -0.29  -0.00     0.01   0.14  -0.16
  25   1     0.01   0.07   0.01     0.02  -0.03  -0.02    -0.00   0.02  -0.04
  26   1     0.00   0.05   0.00     0.00  -0.05   0.01    -0.01   0.02  -0.03
  27   7    -0.19  -0.44   0.18    -0.08   0.05  -0.03    -0.13  -0.11  -0.08
  28   1    -0.03  -0.08   0.03    -0.02   0.01   0.01    -0.02  -0.02  -0.02
  29   1    -0.05  -0.12   0.05    -0.03   0.06  -0.02    -0.04  -0.02  -0.02
  30   6    -0.03  -0.07  -0.02     0.07   0.07   0.05    -0.03  -0.08  -0.17
  31   8     0.09  -0.13   0.07     0.21   0.02   0.18    -0.22  -0.01  -0.33
  32   7    -0.09  -0.08  -0.04     0.02   0.11   0.00     0.15  -0.15  -0.05
  33   1     0.00  -0.03   0.01     0.04   0.02   0.03    -0.01  -0.02  -0.05
  34   1    -0.05  -0.01  -0.03    -0.00   0.04  -0.01     0.04  -0.04  -0.01
  35   7    -0.16   0.00  -0.11    -0.03   0.12  -0.04     0.04  -0.14  -0.13
  36   1    -0.06   0.01  -0.04    -0.03   0.04  -0.04     0.06  -0.05  -0.00
  37   1    -0.02  -0.01  -0.02     0.00   0.02   0.01    -0.00  -0.03  -0.04
  38   6     0.06   0.03  -0.02     0.08  -0.00  -0.04    -0.04   0.16   0.09
  39   8     0.23   0.05  -0.05     0.16   0.25  -0.02    -0.01   0.40   0.14
  40   7     0.15   0.15   0.08     0.01  -0.13  -0.18    -0.01   0.13  -0.04
  41   1     0.05   0.04   0.03     0.00  -0.01  -0.07    -0.01   0.05  -0.03
  42   1    -0.01   0.02   0.02    -0.02  -0.08  -0.06    -0.02  -0.02  -0.02
  43   7    -0.19  -0.09  -0.08     0.07  -0.17   0.06    -0.10  -0.05   0.22
  44   1    -0.07  -0.01  -0.02     0.01  -0.09   0.01    -0.02  -0.05   0.05
  45   1    -0.05  -0.03  -0.04     0.04  -0.02   0.05    -0.02   0.00   0.09
  46   6     0.00   0.06  -0.03    -0.12   0.07  -0.01     0.00   0.02   0.07
  47   8     0.04   0.20  -0.16    -0.12   0.14  -0.07    -0.01   0.01   0.23
  48   7     0.01  -0.01   0.03    -0.13   0.04   0.02     0.08   0.01  -0.02
  49   1     0.02   0.01  -0.01    -0.03   0.02  -0.00     0.03  -0.00   0.02
  50   1    -0.00  -0.03   0.03    -0.04  -0.00   0.02     0.02   0.00  -0.03
  51   7    -0.06  -0.01   0.06    -0.16   0.04   0.02    -0.06   0.04  -0.01
  52   1    -0.03  -0.03   0.04    -0.05   0.00   0.01    -0.01   0.01  -0.04
  53   1    -0.02   0.01   0.00    -0.05   0.02  -0.00    -0.03   0.01   0.01
                     16                     17                     18
                        a                      a                      a 
 Frequencies --    93.1075               102.7560               113.8749
 Red. masses --    13.4546                12.9259                13.5903
 Frc consts  --     0.0000                 0.0000                 0.0000
 IR Inten    --     1.9175                 4.8443                15.2449
 Raman Activ --     0.0000                 0.0000                 0.0000
 Depolar     --     0.0000                 0.0000                 0.0000
 Atom AN      X      Y      Z        X      Y      Z        X      Y      Z
   1   8     0.17   0.12   0.02     0.04   0.05   0.17     0.27  -0.04  -0.14
   2   6     0.03   0.02  -0.01    -0.02  -0.04  -0.04     0.11  -0.08  -0.03
   3   1    -0.01   0.01  -0.01    -0.05   0.01  -0.02     0.02  -0.03   0.00
   4   1     0.02  -0.02   0.00     0.00  -0.04  -0.04     0.04  -0.05  -0.00
   5   6    -0.05   0.02  -0.02     0.11  -0.13  -0.03    -0.00   0.03  -0.01
   6   1    -0.05  -0.00  -0.03     0.07  -0.03   0.02    -0.01   0.02  -0.03
   7   1    -0.02   0.03   0.02     0.04  -0.07  -0.05    -0.01   0.03   0.02
   8   7     0.02  -0.04  -0.07     0.03  -0.07  -0.02     0.02   0.02  -0.00
   9   6     0.04  -0.13  -0.13    -0.02   0.10   0.09    -0.01   0.03   0.05
  10   1     0.02  -0.05  -0.04    -0.03   0.06   0.04     0.01  -0.01  -0.00
  11   1     0.03  -0.05  -0.04    -0.03   0.02   0.02    -0.01   0.04   0.01
  12   1    -0.01  -0.04  -0.05     0.04   0.05   0.04    -0.02  -0.01   0.04
  13   6    -0.05  -0.05  -0.08     0.14  -0.12   0.00     0.08  -0.02   0.01
  14   1    -0.03  -0.02  -0.03     0.06  -0.04   0.03     0.03  -0.01   0.02
  15   1    -0.02  -0.00  -0.01     0.06  -0.05  -0.02     0.03  -0.02  -0.01
  16   1    -0.01  -0.02  -0.03     0.04  -0.03   0.00     0.02  -0.01   0.00
  17   6     0.14  -0.00  -0.00    -0.12  -0.10  -0.13     0.02   0.03  -0.06
  18   1     0.04   0.03   0.01    -0.04  -0.07  -0.05     0.03   0.03  -0.05
  19   1     0.05  -0.01   0.00    -0.04  -0.02  -0.04    -0.03   0.00  -0.02
  20   1     0.06  -0.01   0.00    -0.06  -0.01  -0.05     0.02   0.00   0.01
  21   1     0.04   0.05  -0.01     0.00   0.04   0.05     0.06   0.01  -0.05
  22   6     0.06   0.03  -0.04    -0.01   0.05   0.01     0.14  -0.01   0.05
  23   8     0.15   0.30  -0.19     0.05   0.15   0.06     0.21   0.14  -0.06
  24   7     0.10  -0.07   0.01    -0.09   0.06  -0.02     0.17  -0.06   0.08
  25   1     0.06   0.01  -0.02    -0.02   0.03  -0.00     0.04  -0.02   0.03
  26   1     0.02  -0.04   0.03    -0.03   0.00  -0.02     0.03  -0.04   0.03
  27   7    -0.11  -0.20   0.10    -0.01  -0.08  -0.03     0.04  -0.14   0.15
  28   1    -0.02  -0.05   0.04    -0.00  -0.02  -0.02     0.02  -0.03   0.05
  29   1    -0.03   0.00   0.01     0.02   0.00  -0.01     0.01   0.01   0.03
  30   6     0.06  -0.03  -0.00    -0.09   0.12  -0.11    -0.19   0.02   0.05
  31   8     0.25  -0.09  -0.08    -0.17   0.20  -0.45    -0.53   0.13   0.15
  32   7    -0.12  -0.15   0.01     0.01  -0.13   0.15     0.08   0.20   0.04
  33   1    -0.02  -0.08  -0.01    -0.05  -0.06  -0.02    -0.02   0.12   0.00
  34   1    -0.07  -0.03   0.02    -0.03  -0.03   0.08     0.06   0.04  -0.03
  35   7     0.01   0.15   0.04    -0.09   0.29  -0.01    -0.11  -0.26  -0.01
  36   1    -0.03   0.05   0.03     0.02   0.06   0.07     0.04  -0.09  -0.00
  37   1     0.04   0.05   0.01     0.00   0.10  -0.00    -0.05  -0.09   0.00
  38   6    -0.10  -0.04   0.12     0.06  -0.11   0.04     0.01  -0.06  -0.07
  39   8    -0.35  -0.10   0.18     0.12  -0.30   0.00    -0.04  -0.09  -0.08
  40   7    -0.12  -0.11  -0.00     0.03  -0.07   0.21    -0.02  -0.10  -0.10
  41   1    -0.03  -0.01  -0.01     0.02  -0.03   0.07     0.01  -0.02  -0.03
  42   1     0.04  -0.00   0.00     0.00   0.01   0.07     0.01  -0.01  -0.02
  43   7     0.19   0.07   0.22     0.03   0.05  -0.09     0.09  -0.02  -0.07
  44   1     0.09   0.01   0.05    -0.01   0.05  -0.02     0.03  -0.01  -0.02
  45   1     0.03   0.01   0.09     0.01   0.00  -0.06     0.02  -0.01  -0.02
  46   6    -0.08   0.08  -0.03     0.00   0.02   0.05    -0.08   0.07   0.01
  47   8    -0.06   0.18  -0.13    -0.01   0.01   0.14    -0.09   0.13   0.02
  48   7    -0.09   0.03   0.03     0.05   0.01  -0.01    -0.07   0.04   0.01
  49   1    -0.01   0.02  -0.01     0.02  -0.00   0.01    -0.01   0.01   0.01
  50   1    -0.03  -0.01   0.03     0.01   0.00  -0.02    -0.02  -0.00   0.01
  51   7    -0.13   0.03   0.04    -0.04   0.03  -0.00    -0.16   0.05   0.02
  52   1    -0.04  -0.01   0.02    -0.01   0.01  -0.02    -0.04   0.00  -0.01
  53   1    -0.04   0.02  -0.01    -0.02   0.01   0.01    -0.05   0.03  -0.00
                     19                     20                     21
                        a                      a                      a 
 Frequencies --   117.4438               122.9510               125.3377
 Red. masses --    11.9672                11.3368                13.1552
 Frc consts  --     0.0000                 0.0000                 0.0000
 IR Inten    --    15.8137                13.4821                 5.1187
 Raman Activ --     0.0000                 0.0000                 0.0000
 Depolar     --     0.0000                 0.0000                 0.0000
 Atom AN      X      Y      Z        X      Y      Z        X      Y      Z
   1   8    -0.02  -0.09   0.15     0.10   0.15  -0.13     0.02  -0.02  -0.04
   2   6     0.00  -0.06   0.13    -0.14  -0.00  -0.04    -0.07  -0.07  -0.00
   3   1    -0.01  -0.03   0.05    -0.09  -0.00  -0.00    -0.04  -0.03   0.01
   4   1     0.00  -0.02   0.03    -0.02  -0.06  -0.02    -0.01  -0.04  -0.01
   5   6     0.04   0.01   0.16    -0.23   0.14  -0.01    -0.08   0.02   0.03
   6   1     0.01   0.01   0.03    -0.10   0.04  -0.04    -0.05   0.00  -0.01
   7   1     0.01   0.01   0.05    -0.07   0.08   0.03    -0.02   0.04   0.03
   8   7     0.05   0.01   0.23    -0.15   0.08   0.10     0.02  -0.06   0.08
   9   6     0.10  -0.10   0.09    -0.28   0.01   0.29    -0.03  -0.12   0.12
  10   1     0.03  -0.02   0.04    -0.04  -0.04   0.07     0.01  -0.05   0.04
  11   1     0.05  -0.07   0.03    -0.12   0.07   0.08    -0.02  -0.03   0.03
  12   1     0.02  -0.02  -0.02    -0.11  -0.03   0.14    -0.02  -0.04   0.04
  13   6    -0.06   0.15   0.20     0.10   0.02   0.15     0.09  -0.07   0.10
  14   1    -0.04   0.05   0.01     0.05   0.00   0.08     0.02  -0.03   0.04
  15   1    -0.03   0.08   0.08     0.06  -0.01  -0.00     0.04  -0.01   0.01
  16   1    -0.01   0.04   0.07     0.03   0.01   0.07     0.04  -0.03   0.04
  17   6     0.11  -0.01   0.35    -0.14   0.13  -0.03     0.10  -0.01   0.07
  18   1     0.02   0.01   0.12    -0.00   0.07  -0.07     0.04   0.03   0.00
  19   1     0.05  -0.02   0.10    -0.11   0.03  -0.02     0.01  -0.01   0.02
  20   1     0.03  -0.00   0.10    -0.00   0.02   0.04     0.06  -0.02   0.04
  21   1     0.01  -0.03   0.01     0.01   0.07  -0.02     0.00   0.02  -0.02
  22   6     0.06  -0.06  -0.08     0.08   0.01   0.07    -0.13   0.14  -0.19
  23   8     0.06  -0.07  -0.14     0.12   0.07   0.03    -0.03   0.43  -0.23
  24   7     0.11  -0.08  -0.07     0.11  -0.04   0.10    -0.23   0.05  -0.19
  25   1     0.04  -0.01  -0.03     0.04  -0.01   0.02    -0.05   0.04  -0.06
  26   1     0.03  -0.02  -0.01     0.03  -0.02   0.04    -0.07  -0.01  -0.05
  27   7     0.02  -0.03  -0.05     0.05  -0.03   0.12    -0.22  -0.12  -0.18
  28   1     0.01  -0.01  -0.00     0.01  -0.01   0.04    -0.06  -0.03  -0.05
  29   1    -0.01  -0.01  -0.02     0.01   0.01   0.03    -0.03   0.03  -0.06
  30   6     0.01   0.04  -0.02     0.06  -0.14  -0.12     0.05  -0.02   0.09
  31   8     0.07   0.03  -0.15     0.15  -0.20  -0.18     0.10  -0.06   0.31
  32   7    -0.04  -0.08   0.05    -0.04  -0.25  -0.11     0.05   0.13  -0.02
  33   1    -0.03  -0.04  -0.02    -0.02  -0.09  -0.05     0.05   0.05   0.04
  34   1    -0.04  -0.01   0.03    -0.05  -0.05  -0.02     0.03   0.03  -0.03
  35   7     0.03   0.14   0.06     0.05  -0.07  -0.08    -0.01  -0.09  -0.01
  36   1     0.01   0.04   0.04     0.01  -0.02   0.00    -0.02  -0.02  -0.04
  37   1     0.02   0.05   0.02     0.04  -0.01  -0.02    -0.01  -0.04   0.00
  38   6    -0.05  -0.01  -0.24     0.09   0.02  -0.04     0.04  -0.02   0.02
  39   8    -0.07  -0.09  -0.29     0.25   0.13  -0.06     0.18  -0.17  -0.03
  40   7    -0.03   0.03  -0.23     0.00  -0.05  -0.00     0.01   0.02   0.20
  41   1     0.00   0.00  -0.05     0.02  -0.00  -0.00     0.02   0.01   0.06
  42   1     0.01   0.03  -0.06    -0.03  -0.03  -0.00    -0.02   0.02   0.06
  43   7    -0.06   0.05  -0.32    -0.02  -0.04  -0.06    -0.08   0.09  -0.13
  44   1    -0.04   0.02  -0.08    -0.03  -0.03  -0.01    -0.05   0.06  -0.02
  45   1    -0.03  -0.00  -0.10     0.02   0.01  -0.02    -0.01   0.02  -0.08
  46   6    -0.07   0.05   0.03    -0.02   0.02  -0.02     0.04  -0.01   0.01
  47   8    -0.08   0.08   0.08    -0.02   0.04  -0.06     0.05  -0.01   0.04
  48   7    -0.04   0.04   0.00    -0.04   0.01   0.01     0.07  -0.02  -0.00
  49   1    -0.01   0.01   0.01    -0.01   0.01  -0.01     0.02  -0.01   0.00
  50   1    -0.01   0.00   0.00    -0.01   0.00   0.01     0.02  -0.00  -0.01
  51   7    -0.13   0.05   0.01    -0.03  -0.00   0.01     0.04  -0.00  -0.01
  52   1    -0.03   0.01  -0.02    -0.01  -0.00   0.01     0.01  -0.00   0.00
  53   1    -0.04   0.02   0.00    -0.01   0.00  -0.01     0.01  -0.00   0.01
                     22                     23                     24
                        a                      a                      a 
 Frequencies --   142.6437               154.1988               176.6069
 Red. masses --    11.7238                12.1260                12.7370
 Frc consts  --     0.0000                 0.0000                 0.0000
 IR Inten    --     6.7153                 5.8424                 4.5051
 Raman Activ --     0.0000                 0.0000                 0.0000
 Depolar     --     0.0000                 0.0000                 0.0000
 Atom AN      X      Y      Z        X      Y      Z        X      Y      Z
   1   8    -0.25  -0.03   0.08     0.26   0.02  -0.15     0.26  -0.09  -0.11
   2   6    -0.19  -0.09  -0.19    -0.01  -0.18  -0.23     0.10  -0.14  -0.01
   3   1    -0.11  -0.01  -0.06    -0.08  -0.04  -0.06     0.01  -0.05   0.01
   4   1    -0.05  -0.04  -0.11     0.02  -0.13  -0.09     0.04  -0.07  -0.00
   5   6     0.07  -0.16  -0.15    -0.04  -0.09  -0.20    -0.02  -0.01   0.01
   6   1     0.07  -0.04  -0.01    -0.02  -0.01  -0.08    -0.03   0.01  -0.03
   7   1     0.05  -0.06  -0.10    -0.01  -0.01  -0.04    -0.02   0.02   0.04
   8   7     0.04  -0.13   0.02    -0.03  -0.09  -0.04     0.01  -0.03   0.04
   9   6     0.03  -0.21  -0.01    -0.08  -0.21   0.01     0.01  -0.05   0.03
  10   1     0.00  -0.05   0.04    -0.01  -0.07   0.02     0.01  -0.02   0.01
  11   1     0.01  -0.11  -0.00    -0.03  -0.07  -0.00     0.00  -0.01   0.01
  12   1     0.01  -0.05  -0.04    -0.04  -0.06  -0.01    -0.00  -0.01   0.00
  13   6     0.06   0.10   0.04     0.06   0.10  -0.00     0.02  -0.00   0.04
  14   1    -0.00   0.03  -0.03     0.02   0.04  -0.03     0.01   0.00   0.01
  15   1     0.02   0.08   0.02     0.03   0.05  -0.01     0.01  -0.01   0.01
  16   1     0.04   0.02   0.06     0.02   0.04   0.05     0.00   0.00   0.02
  17   6    -0.00  -0.19   0.17    -0.05  -0.14   0.08     0.04  -0.02   0.05
  18   1    -0.03  -0.08   0.10    -0.01  -0.03   0.03     0.02   0.02  -0.00
  19   1     0.05  -0.06   0.06    -0.01  -0.06   0.02    -0.01  -0.02   0.01
  20   1    -0.03  -0.04   0.03    -0.02  -0.03   0.04     0.03  -0.01   0.04
  21   1    -0.06   0.01  -0.01     0.05   0.04  -0.02     0.05  -0.00   0.00
  22   6     0.04   0.09   0.04     0.05  -0.11  -0.08    -0.19   0.15   0.13
  23   8     0.04   0.20  -0.20     0.06  -0.20   0.10    -0.21   0.19   0.17
  24   7     0.23  -0.05   0.15    -0.07  -0.01  -0.16    -0.27   0.19   0.12
  25   1     0.09  -0.02   0.02    -0.04   0.01  -0.03    -0.09   0.04   0.04
  26   1     0.06  -0.02   0.08    -0.02   0.01  -0.07    -0.08   0.04   0.02
  27   7    -0.11   0.09   0.22     0.16  -0.13  -0.22    -0.19   0.11   0.11
  28   1    -0.03   0.02   0.10     0.04  -0.02  -0.09    -0.05   0.04   0.02
  29   1    -0.06   0.06   0.05     0.06  -0.06  -0.05    -0.03   0.06   0.03
  30   6    -0.06   0.04  -0.03    -0.01   0.09   0.11    -0.03   0.06   0.03
  31   8    -0.15   0.09  -0.09     0.06   0.09   0.09    -0.01   0.07  -0.07
  32   7     0.01   0.05   0.00    -0.08   0.06   0.12    -0.06  -0.03   0.10
  33   1    -0.01   0.02  -0.01    -0.01   0.00   0.03    -0.03  -0.02   0.00
  34   1     0.02   0.00   0.01    -0.03   0.02   0.04    -0.03  -0.00   0.04
  35   7    -0.03   0.00  -0.02    -0.03   0.17   0.13     0.00   0.13   0.09
  36   1     0.01  -0.01   0.00    -0.01   0.05   0.04    -0.00   0.03   0.04
  37   1    -0.02  -0.01  -0.00     0.02   0.05   0.04     0.01   0.05   0.02
  38   6     0.02   0.11   0.04     0.02   0.11   0.05     0.04  -0.06  -0.15
  39   8     0.15   0.23   0.05     0.12   0.29   0.07    -0.05   0.14  -0.12
  40   7    -0.02   0.05   0.03    -0.03   0.05   0.01    -0.00  -0.16  -0.34
  41   1    -0.00   0.03  -0.00    -0.00   0.02  -0.00    -0.01  -0.03  -0.11
  42   1    -0.04  -0.02   0.00    -0.04  -0.02  -0.00     0.01  -0.06  -0.10
  43   7    -0.06   0.02   0.06    -0.05  -0.01   0.11     0.18  -0.19   0.01
  44   1    -0.02  -0.01   0.02    -0.01  -0.03   0.03     0.08  -0.10  -0.01
  45   1     0.01   0.02   0.02     0.02   0.02   0.05     0.06  -0.03   0.06
  46   6     0.04  -0.04  -0.08    -0.06   0.05   0.07     0.07  -0.06  -0.04
  47   8     0.06  -0.05  -0.21    -0.07   0.06   0.18     0.08  -0.09  -0.09
  48   7    -0.03  -0.03   0.01     0.00   0.04  -0.01     0.04  -0.04  -0.00
  49   1    -0.02   0.00  -0.03     0.01   0.00   0.03     0.01  -0.00  -0.02
  50   1    -0.01   0.00   0.02    -0.00  -0.00  -0.01     0.01   0.00  -0.01
  51   7     0.13  -0.06   0.00    -0.16   0.06   0.00     0.16  -0.05  -0.00
  52   1     0.03  -0.01   0.04    -0.04   0.01  -0.04     0.04  -0.01   0.03
  53   1     0.05  -0.02  -0.01    -0.06   0.03   0.01     0.06  -0.03  -0.00
                     25                     26                     27
                        a                      a                      a 
 Frequencies --   187.3343               247.1283               249.4881
 Red. masses --    12.1759                 2.9072                 2.4568
 Frc consts  --     0.0000                 0.0000                 0.0000
 IR Inten    --    51.1847               176.9664                 4.7352
 Raman Activ --     0.0000                 0.0000                 0.0000
 Depolar     --     0.0000                 0.0000                 0.0000
 Atom AN      X      Y      Z        X      Y      Z        X      Y      Z
   1   8    -0.18   0.25   0.30    -0.04  -0.09  -0.08     0.15   0.06  -0.14
   2   6    -0.19   0.12  -0.02     0.01  -0.02   0.00    -0.03  -0.02   0.00
   3   1    -0.11   0.07  -0.03     0.03  -0.02   0.01    -0.04  -0.01   0.01
   4   1    -0.05   0.01  -0.05    -0.00   0.01   0.01     0.00  -0.05  -0.01
   5   6     0.03  -0.05  -0.03    -0.01   0.01   0.01    -0.06   0.05   0.04
   6   1     0.04  -0.03   0.04    -0.00   0.01  -0.00    -0.03   0.01   0.01
   7   1     0.03  -0.04  -0.06    -0.00   0.01   0.01    -0.02   0.02   0.01
   8   7     0.02  -0.05   0.00    -0.01   0.01   0.02    -0.02   0.01   0.04
   9   6     0.03  -0.07  -0.02    -0.01   0.02   0.02    -0.03   0.06   0.06
  10   1    -0.01   0.00   0.03    -0.01   0.02   0.02    -0.09   0.13   0.17
  11   1     0.00  -0.07  -0.01    -0.00  -0.02   0.00    -0.03  -0.17   0.01
  12   1     0.03   0.00  -0.05     0.01   0.01  -0.01     0.11   0.11  -0.11
  13   6    -0.01   0.02  -0.00     0.00  -0.02   0.01     0.05  -0.14   0.04
  14   1    -0.04  -0.01  -0.03    -0.04  -0.03  -0.00    -0.19  -0.15  -0.02
  15   1    -0.00   0.06   0.01     0.00   0.03   0.01     0.04   0.19   0.02
  16   1     0.03  -0.02   0.01     0.03  -0.03   0.01     0.22  -0.19   0.03
  17   6     0.02  -0.06   0.05     0.00   0.02  -0.00     0.01   0.07  -0.03
  18   1    -0.03  -0.05   0.08    -0.01  -0.01   0.02    -0.20  -0.21   0.31
  19   1     0.08   0.01   0.03     0.03   0.02   0.00     0.38   0.20   0.06
  20   1    -0.03  -0.01  -0.05    -0.01   0.01  -0.03    -0.19   0.06  -0.41
  21   1    -0.06   0.09   0.08    -0.01  -0.03  -0.02     0.04   0.03  -0.04
  22   6     0.06   0.06   0.09     0.03   0.02   0.02    -0.02  -0.03  -0.02
  23   8     0.18   0.20   0.29     0.05   0.04   0.02    -0.04  -0.07  -0.05
  24   7    -0.22   0.11  -0.00    -0.00  -0.01   0.01     0.03  -0.02  -0.01
  25   1    -0.10   0.04   0.04     0.00   0.03   0.00     0.01  -0.01  -0.00
  26   1    -0.08  -0.00  -0.05     0.01   0.01  -0.01     0.01  -0.00   0.00
  27   7     0.19  -0.19  -0.09     0.04  -0.03   0.01    -0.04   0.04   0.02
  28   1     0.04  -0.05  -0.08     0.01  -0.01  -0.00    -0.01   0.01   0.02
  29   1     0.13  -0.02  -0.02     0.02  -0.00   0.00    -0.03  -0.00   0.00
  30   6     0.03  -0.08  -0.07     0.03  -0.02   0.02    -0.00   0.00   0.01
  31   8    -0.02  -0.09   0.05    -0.03   0.02  -0.07     0.01  -0.01   0.03
  32   7     0.13   0.03  -0.12    -0.26   0.12  -0.15     0.01  -0.01   0.02
  33   1     0.05   0.04  -0.00     0.36  -0.19   0.26    -0.03   0.01  -0.02
  34   1     0.06   0.00  -0.06     0.53  -0.30   0.44    -0.05   0.03  -0.04
  35   7    -0.03  -0.15  -0.17     0.02   0.02   0.02    -0.01  -0.00   0.01
  36   1     0.00  -0.04  -0.05    -0.14   0.05  -0.09     0.01  -0.00   0.01
  37   1    -0.00  -0.06  -0.03    -0.07   0.04  -0.05     0.01   0.00   0.01
  38   6     0.01  -0.04  -0.09     0.00  -0.00  -0.01    -0.01  -0.00   0.00
  39   8    -0.07   0.09  -0.07     0.00   0.00  -0.00    -0.01  -0.01   0.00
  40   7    -0.04  -0.11  -0.21    -0.00  -0.01  -0.01     0.01   0.01   0.00
  41   1     0.02  -0.01  -0.06     0.00   0.00  -0.00    -0.00  -0.00   0.00
  42   1     0.02  -0.02  -0.06     0.00   0.00  -0.00     0.01   0.01   0.00
  43   7     0.13  -0.10   0.02     0.01  -0.00  -0.00     0.01   0.02  -0.01
  44   1     0.04  -0.07  -0.00    -0.00  -0.01   0.00    -0.03  -0.02   0.01
  45   1     0.03  -0.02   0.04    -0.00  -0.00   0.00    -0.03  -0.02  -0.00
  46   6    -0.02   0.03   0.04    -0.01   0.01   0.01     0.00  -0.00  -0.01
  47   8    -0.02   0.03   0.09    -0.01   0.01   0.02     0.00  -0.00  -0.01
  48   7     0.02   0.02  -0.00     0.00  -0.00   0.00    -0.00  -0.01   0.01
  49   1     0.01  -0.00   0.02     0.00  -0.00   0.00     0.00   0.00  -0.01
  50   1     0.00  -0.01   0.00     0.00  -0.00  -0.00     0.00   0.01  -0.01
  51   7    -0.08   0.03   0.00    -0.02   0.01  -0.02     0.01  -0.00  -0.00
  52   1    -0.02   0.01  -0.03    -0.01  -0.01   0.01    -0.00  -0.00   0.01
  53   1    -0.03   0.02   0.00    -0.01  -0.01   0.02     0.00  -0.00   0.00
                     28                     29                     30
                        a                      a                      a 
 Frequencies --   264.3865               274.1882               281.6832
 Red. masses --     3.7531                11.1097                 7.2703
 Frc consts  --     0.0000                 0.0000                 0.0000
 IR Inten    --    20.7750                19.8619                58.8507
 Raman Activ --     0.0000                 0.0000                 0.0000
 Depolar     --     0.0000                 0.0000                 0.0000
 Atom AN      X      Y      Z        X      Y      Z        X      Y      Z
   1   8    -0.06  -0.07  -0.06    -0.30  -0.38  -0.24     0.26   0.27   0.20
   2   6    -0.01  -0.02  -0.01    -0.22  -0.26  -0.14    -0.19  -0.15  -0.09
   3   1     0.01  -0.01   0.00    -0.10  -0.12   0.01    -0.26  -0.02  -0.01
   4   1    -0.01   0.00  -0.00    -0.06  -0.09  -0.12    -0.01  -0.20  -0.15
   5   6    -0.00   0.01   0.00    -0.00   0.05   0.02     0.04  -0.00   0.03
   6   1    -0.00   0.00  -0.00     0.00   0.03  -0.02     0.03   0.01   0.01
   7   1    -0.00   0.01   0.00     0.01   0.04   0.00     0.03   0.01  -0.01
   8   7     0.00   0.01   0.00     0.03   0.07   0.05     0.04   0.01   0.06
   9   6     0.01   0.02   0.00     0.09   0.24  -0.01     0.10   0.17   0.00
  10   1    -0.00   0.01   0.01    -0.03   0.12   0.01    -0.01   0.08  -0.01
  11   1     0.00  -0.00   0.00     0.02   0.03  -0.00     0.03   0.04   0.00
  12   1     0.01   0.01  -0.01     0.09   0.10  -0.02     0.07   0.07  -0.00
  13   6    -0.01  -0.01  -0.00    -0.14  -0.15  -0.02    -0.13  -0.13  -0.00
  14   1    -0.01  -0.01   0.00     0.00  -0.03   0.03     0.03  -0.01   0.03
  15   1    -0.00  -0.00   0.00    -0.07  -0.13   0.01    -0.07  -0.15   0.02
  16   1     0.00  -0.01  -0.00    -0.10  -0.01  -0.08    -0.12   0.01  -0.07
  17   6     0.01   0.02  -0.01     0.18   0.17  -0.01     0.13   0.06   0.06
  18   1    -0.00   0.00   0.01     0.05   0.08   0.01     0.05   0.05   0.01
  19   1     0.01   0.01   0.00     0.07   0.07   0.00     0.02   0.01   0.02
  20   1     0.00   0.00  -0.01     0.08   0.02  -0.03     0.06  -0.00   0.03
  21   1    -0.01  -0.02  -0.01    -0.08  -0.10  -0.04     0.05   0.15   0.03
  22   6    -0.00   0.02   0.02     0.10   0.05   0.07    -0.06  -0.06  -0.05
  23   8     0.00   0.05   0.01     0.16   0.15   0.08    -0.11  -0.16  -0.06
  24   7    -0.00  -0.00   0.03    -0.03   0.01   0.04     0.05  -0.02  -0.03
  25   1     0.01   0.01   0.00    -0.02   0.02   0.02     0.01  -0.03  -0.01
  26   1     0.00   0.01   0.01    -0.02  -0.02  -0.01     0.02   0.01   0.01
  27   7     0.01  -0.00   0.00     0.17  -0.13  -0.02    -0.10   0.10   0.01
  28   1    -0.00  -0.01  -0.02     0.03  -0.04  -0.04    -0.02   0.03   0.03
  29   1     0.01  -0.02   0.01     0.10  -0.00   0.00    -0.07  -0.00   0.00
  30   6     0.00   0.01   0.01     0.00   0.05   0.03     0.00  -0.04  -0.02
  31   8     0.01   0.01   0.00     0.06   0.04  -0.00    -0.04  -0.04   0.01
  32   7    -0.02  -0.00   0.01    -0.05  -0.05   0.08     0.02   0.03  -0.07
  33   1    -0.01  -0.00  -0.00    -0.07  -0.01  -0.03     0.06   0.00   0.03
  34   1    -0.01   0.00   0.01    -0.12   0.04  -0.02     0.10  -0.04   0.03
  35   7     0.00   0.01   0.01     0.03   0.06   0.06    -0.04  -0.05  -0.06
  36   1     0.00   0.00   0.00     0.01   0.02   0.01     0.00  -0.02  -0.00
  37   1    -0.00   0.00   0.00    -0.01   0.02   0.01     0.03  -0.02   0.00
  38   6     0.00   0.00   0.00     0.02   0.02   0.01     0.01   0.02  -0.01
  39   8     0.00   0.00   0.00     0.04   0.05   0.01    -0.00  -0.00  -0.01
  40   7    -0.00  -0.00   0.00    -0.02  -0.01   0.01     0.04   0.04   0.01
  41   1     0.00   0.00  -0.00     0.02   0.01   0.00    -0.05  -0.03   0.00
  42   1     0.00   0.00   0.00    -0.00   0.00   0.00    -0.13  -0.09  -0.01
  43   7    -0.00  -0.01   0.00    -0.01  -0.02   0.03    -0.15  -0.11   0.05
  44   1     0.01   0.01  -0.00     0.04   0.02  -0.00     0.32   0.27  -0.07
  45   1     0.01   0.00  -0.00     0.03   0.02   0.01     0.19   0.13  -0.03
  46   6     0.03  -0.01  -0.01    -0.01   0.01   0.01     0.00  -0.01  -0.01
  47   8     0.02  -0.01  -0.02    -0.01   0.01   0.02     0.00  -0.00  -0.01
  48   7     0.02   0.14  -0.26    -0.00  -0.01   0.04     0.00   0.00  -0.02
  49   1    -0.04  -0.14   0.30     0.01   0.02  -0.04    -0.00  -0.01   0.01
  50   1    -0.02  -0.24   0.44     0.00   0.04  -0.06    -0.00  -0.02   0.02
  51   7    -0.07  -0.15   0.27    -0.02   0.03  -0.03     0.01  -0.01   0.01
  52   1     0.17   0.24  -0.47    -0.03  -0.03   0.05     0.01   0.01  -0.01
  53   1     0.07   0.13  -0.30    -0.02  -0.01   0.04     0.01  -0.00  -0.01
                     31                     32                     33
                        a                      a                      a 
 Frequencies --   284.5226               301.2259               322.1283
 Red. masses --     4.1440                 3.6451                 6.1601
 Frc consts  --     0.0000                 0.0000                 0.0000
 IR Inten    --   111.9631                 7.0700                 2.2882
 Raman Activ --     0.0000                 0.0000                 0.0000
 Depolar     --     0.0000                 0.0000                 0.0000
 Atom AN      X      Y      Z        X      Y      Z        X      Y      Z
   1   8    -0.13  -0.15  -0.07     0.06  -0.07   0.24     0.00  -0.19   0.28
   2   6     0.12   0.08   0.09    -0.04  -0.19   0.01     0.06  -0.19  -0.03
   3   1     0.14   0.01   0.02    -0.10  -0.04   0.01    -0.03  -0.04  -0.01
   4   1     0.01   0.11   0.10     0.00  -0.11  -0.06     0.02  -0.07  -0.06
   5   6    -0.03   0.01   0.01     0.04  -0.05   0.04     0.13  -0.06  -0.02
   6   1    -0.02  -0.00   0.00     0.03  -0.01   0.01     0.09   0.02  -0.01
   7   1    -0.02  -0.00   0.02     0.01  -0.03   0.00     0.03  -0.07  -0.01
   8   7    -0.03  -0.00  -0.04    -0.02   0.03  -0.04    -0.04   0.11  -0.04
   9   6    -0.07  -0.11  -0.01    -0.05   0.07   0.00    -0.16  -0.16   0.07
  10   1    -0.03  -0.01   0.06    -0.06   0.09   0.11     0.14  -0.26  -0.17
  11   1    -0.03  -0.10  -0.01    -0.06  -0.09  -0.01    -0.04   0.24   0.02
  12   1    -0.00  -0.01  -0.06     0.06   0.08  -0.08    -0.26  -0.20   0.23
  13   6     0.10   0.11   0.01    -0.09   0.10  -0.05    -0.07   0.21  -0.04
  14   1    -0.10  -0.02  -0.05    -0.34  -0.11  -0.15    -0.01   0.08  -0.04
  15   1     0.06   0.22  -0.00    -0.01   0.41   0.04    -0.03   0.06   0.00
  16   1     0.17  -0.06   0.07     0.27  -0.18   0.06    -0.03   0.08   0.00
  17   6    -0.09  -0.02  -0.08     0.10   0.13  -0.17     0.13   0.27  -0.19
  18   1    -0.01  -0.01  -0.06     0.16   0.19  -0.25    -0.05  -0.01   0.09
  19   1    -0.07  -0.01  -0.03    -0.20  -0.03  -0.09     0.21   0.21  -0.02
  20   1    -0.02  -0.00   0.01     0.18  -0.02   0.16    -0.01   0.06  -0.28
  21   1    -0.02  -0.09  -0.02     0.02   0.01   0.04    -0.01  -0.03   0.08
  22   6     0.04   0.03   0.02    -0.01  -0.02  -0.02    -0.02   0.01  -0.01
  23   8     0.07   0.09   0.02    -0.03  -0.04  -0.02    -0.01   0.01   0.01
  24   7    -0.02   0.01   0.02     0.01  -0.01  -0.01    -0.02  -0.01  -0.00
  25   1    -0.01   0.01   0.01     0.01   0.01  -0.01     0.02   0.02  -0.02
  26   1    -0.01  -0.01  -0.00     0.01   0.01  -0.00     0.01   0.02   0.00
  27   7     0.06  -0.06  -0.01    -0.03   0.03   0.01    -0.02   0.01  -0.01
  28   1     0.01  -0.01  -0.02    -0.01   0.00   0.01    -0.01  -0.00  -0.00
  29   1     0.04   0.02  -0.00    -0.03  -0.01   0.00    -0.02  -0.02  -0.00
  30   6     0.00   0.02   0.01     0.01  -0.01   0.00     0.00  -0.00  -0.01
  31   8     0.03   0.02  -0.00     0.01  -0.01   0.01    -0.00  -0.00  -0.01
  32   7    -0.01  -0.02   0.03     0.01   0.01  -0.02     0.01   0.00  -0.01
  33   1    -0.03   0.00  -0.01     0.01   0.01   0.00     0.00   0.00  -0.00
  34   1    -0.05   0.02  -0.02     0.01   0.00  -0.01     0.01  -0.00   0.00
  35   7     0.02   0.02   0.03    -0.02  -0.00  -0.02    -0.01   0.01  -0.01
  36   1    -0.00   0.01  -0.00     0.02  -0.01   0.01     0.00   0.00  -0.00
  37   1    -0.01   0.01  -0.00     0.02  -0.01   0.01     0.01  -0.01   0.01
  38   6     0.02   0.01  -0.03     0.00   0.01   0.01    -0.00  -0.01   0.01
  39   8    -0.01  -0.02  -0.02     0.03   0.03   0.01    -0.01  -0.02   0.01
  40   7     0.02   0.01  -0.01    -0.00  -0.00   0.03     0.01   0.00   0.01
  41   1    -0.04  -0.03  -0.00     0.01   0.01   0.01    -0.00  -0.00   0.00
  42   1    -0.14  -0.09  -0.01     0.02   0.02   0.01    -0.02  -0.01   0.00
  43   7    -0.22  -0.18   0.06     0.06   0.04   0.00    -0.01  -0.01   0.01
  44   1     0.48   0.40  -0.12    -0.12  -0.11   0.03     0.05   0.04  -0.01
  45   1     0.28   0.19  -0.05    -0.06  -0.04   0.02     0.02   0.01  -0.00
  46   6    -0.00   0.00   0.00     0.00  -0.00  -0.00     0.00  -0.00   0.00
  47   8    -0.00   0.00   0.01     0.00  -0.00  -0.00     0.00  -0.00   0.00
  48   7    -0.00  -0.00   0.01     0.00  -0.00  -0.00     0.00   0.00  -0.00
  49   1     0.00   0.01  -0.01    -0.00  -0.00   0.00    -0.00  -0.00   0.00
  50   1     0.00   0.01  -0.02    -0.00  -0.00   0.01     0.00  -0.00   0.00
  51   7    -0.00   0.01  -0.01     0.00  -0.00   0.00     0.00   0.00  -0.00
  52   1    -0.01  -0.01   0.02     0.00   0.00  -0.00    -0.00  -0.00   0.00
  53   1    -0.01  -0.00   0.01     0.00  -0.00  -0.00     0.00  -0.00   0.00
                     34                     35                     36
                        a                      a                      a 
 Frequencies --   342.1422               349.7583               361.4401
 Red. masses --     4.0752                 2.8274                 3.7177
 Frc consts  --     0.0000                 0.0000                 0.0000
 IR Inten    --     0.7617                17.4005               459.4762
 Raman Activ --     0.0000                 0.0000                 0.0000
 Depolar     --     0.0000                 0.0000                 0.0000
 Atom AN      X      Y      Z        X      Y      Z        X      Y      Z
   1   8    -0.01   0.10  -0.23     0.00  -0.02   0.03     0.00   0.00   0.00
   2   6    -0.07   0.08  -0.07     0.02  -0.01   0.01     0.00   0.00  -0.00
   3   1    -0.01   0.01  -0.01     0.01  -0.00   0.00    -0.00   0.00  -0.00
   4   1    -0.02   0.03  -0.02     0.00   0.00   0.01     0.00   0.00  -0.00
   5   6     0.05  -0.01  -0.02    -0.01  -0.00  -0.00     0.01  -0.00  -0.00
   6   1     0.03  -0.02   0.03    -0.01  -0.00  -0.01     0.00  -0.00   0.00
   7   1     0.04  -0.00  -0.05    -0.01   0.00   0.01     0.00  -0.00  -0.00
   8   7     0.07  -0.04   0.08    -0.01  -0.00  -0.02    -0.00  -0.00  -0.00
   9   6     0.16   0.16   0.02    -0.03  -0.03  -0.01    -0.01  -0.00   0.01
  10   1     0.16  -0.14  -0.31    -0.03   0.03   0.07    -0.00  -0.00   0.00
  11   1     0.11   0.41   0.02    -0.02  -0.09  -0.01    -0.00  -0.00   0.00
  12   1    -0.12  -0.11   0.28     0.02   0.03  -0.06    -0.00  -0.00   0.00
  13   6    -0.10  -0.17   0.03     0.04   0.02  -0.01    -0.01   0.00  -0.00
  14   1    -0.28  -0.17  -0.05     0.06   0.03   0.01    -0.00   0.00  -0.00
  15   1    -0.03   0.22   0.07     0.01  -0.05  -0.02    -0.00   0.00   0.00
  16   1     0.19  -0.22  -0.00    -0.04   0.04  -0.00    -0.00   0.00  -0.00
  17   6    -0.08  -0.16   0.16     0.02   0.01  -0.01     0.00   0.00  -0.00
  18   1    -0.02  -0.06   0.04     0.01   0.01  -0.00     0.00   0.00  -0.00
  19   1    -0.04  -0.08   0.04     0.01   0.00  -0.00     0.00   0.00  -0.00
  20   1    -0.04  -0.02   0.08     0.01  -0.00  -0.00     0.00  -0.00  -0.00
  21   1    -0.02   0.04  -0.03    -0.00  -0.00   0.00    -0.00   0.00   0.00
  22   6    -0.00   0.01   0.01    -0.01   0.02  -0.01    -0.00  -0.02   0.00
  23   8     0.01   0.03   0.02     0.03   0.08  -0.02    -0.00  -0.01  -0.01
  24   7    -0.03  -0.02   0.01    -0.12  -0.13   0.03     0.00   0.02  -0.01
  25   1     0.02   0.05  -0.02     0.09   0.23  -0.07    -0.02  -0.03   0.01
  26   1     0.01   0.03  -0.00     0.06   0.15  -0.05    -0.02  -0.04   0.01
  27   7     0.04   0.03  -0.01     0.11   0.23   0.01     0.00   0.01  -0.01
  28   1    -0.02  -0.04  -0.01    -0.12  -0.18   0.01    -0.00  -0.01   0.01
  29   1    -0.04  -0.14   0.02    -0.29  -0.72   0.10     0.00   0.01  -0.00
  30   6     0.01   0.01   0.00    -0.00  -0.01   0.01    -0.00   0.00  -0.00
  31   8     0.01   0.01  -0.00    -0.02  -0.00  -0.01     0.00  -0.00   0.00
  32   7    -0.01  -0.01   0.01    -0.02  -0.00  -0.00     0.00   0.01  -0.00
  33   1    -0.01  -0.01  -0.01    -0.01  -0.00  -0.01     0.00   0.00   0.00
  34   1    -0.02   0.01  -0.00    -0.00  -0.00   0.01     0.02  -0.01   0.01
  35   7     0.01   0.02   0.00    -0.03  -0.03  -0.03     0.01   0.00   0.00
  36   1     0.01   0.00   0.01     0.05  -0.02   0.03    -0.02   0.01  -0.02
  37   1    -0.00   0.01  -0.00     0.01  -0.02   0.00    -0.00   0.00  -0.00
  38   6     0.00  -0.00   0.01     0.03   0.02   0.00     0.00   0.00   0.00
  39   8    -0.01  -0.01   0.01     0.04   0.01  -0.01     0.00   0.00   0.00
  40   7    -0.01  -0.01  -0.02    -0.09  -0.06  -0.02    -0.00  -0.00   0.00
  41   1     0.00   0.00  -0.01     0.05   0.03   0.00     0.00  -0.00   0.00
  42   1     0.04   0.02  -0.00     0.18   0.15   0.02     0.01   0.00   0.00
  43   7    -0.02  -0.00  -0.00    -0.04  -0.05   0.02    -0.00  -0.00   0.00
  44   1     0.03   0.04  -0.01     0.04   0.03  -0.01     0.00   0.00  -0.00
  45   1     0.01   0.01  -0.01     0.02   0.01   0.00     0.00   0.00  -0.00
  46   6     0.00   0.00   0.00     0.02   0.02   0.00     0.02   0.05  -0.09
  47   8     0.00   0.00   0.00     0.02   0.02  -0.00     0.01   0.01  -0.06
  48   7     0.00  -0.00   0.01     0.03  -0.00   0.02     0.01  -0.15   0.29
  49   1    -0.00   0.00  -0.00    -0.00  -0.00   0.00     0.02   0.11  -0.25
  50   1     0.00   0.01  -0.01     0.01   0.02  -0.03     0.04   0.30  -0.49
  51   7    -0.01   0.00   0.00    -0.02  -0.00   0.00    -0.11  -0.11   0.25
  52   1    -0.00  -0.00  -0.00    -0.01  -0.02   0.00     0.17   0.28  -0.48
  53   1    -0.00   0.00  -0.00    -0.02   0.01   0.00     0.05   0.07  -0.19
                     37                     38                     39
                        a                      a                      a 
 Frequencies --   379.7234               406.5653               417.1096
 Red. masses --     7.9020                 3.2550                 3.2382
 Frc consts  --     0.0000                 0.0000                 0.0000
 IR Inten    --     1.0682                85.2265               403.4222
 Raman Activ --     0.0000                 0.0000                 0.0000
 Depolar     --     0.0000                 0.0000                 0.0000
 Atom AN      X      Y      Z        X      Y      Z        X      Y      Z
   1   8     0.02   0.12  -0.21    -0.03  -0.01  -0.02    -0.02  -0.02   0.01
   2   6     0.14   0.22  -0.09     0.03   0.03  -0.02     0.05   0.02  -0.01
   3   1     0.12   0.07  -0.05     0.04   0.01  -0.01     0.04   0.01  -0.01
   4   1     0.02   0.13   0.05     0.00   0.03   0.02     0.01   0.03   0.02
   5   6     0.24  -0.17  -0.12     0.00  -0.02  -0.03    -0.01  -0.02  -0.04
   6   1     0.22  -0.05   0.09     0.00  -0.01  -0.00    -0.03  -0.01  -0.02
   7   1     0.10  -0.18  -0.16     0.00  -0.01  -0.01    -0.01   0.01   0.00
   8   7    -0.02  -0.04   0.05    -0.01  -0.01   0.01    -0.00  -0.02  -0.04
   9   6    -0.23  -0.10   0.34    -0.02   0.00   0.03    -0.04   0.05   0.04
  10   1    -0.07   0.01   0.23    -0.01   0.01   0.02    -0.02   0.02   0.01
  11   1    -0.16  -0.10   0.08    -0.00  -0.00   0.01    -0.03   0.03   0.01
  12   1    -0.00   0.01   0.08     0.00   0.01   0.01     0.00   0.02   0.04
  13   6    -0.35  -0.13  -0.03    -0.02  -0.02   0.01     0.00   0.01  -0.04
  14   1    -0.11  -0.04  -0.03    -0.00  -0.00   0.00     0.00   0.00  -0.01
  15   1    -0.16  -0.07   0.07    -0.01  -0.01   0.01    -0.00   0.00  -0.01
  16   1    -0.13  -0.03  -0.09    -0.01  -0.00  -0.00    -0.00   0.00  -0.01
  17   6     0.19   0.06   0.05     0.02  -0.00   0.02     0.05  -0.02   0.05
  18   1     0.07   0.09  -0.00     0.01   0.01   0.01     0.01   0.01   0.04
  19   1     0.03   0.03   0.01     0.01   0.00   0.01     0.04  -0.02   0.02
  20   1     0.12  -0.03   0.03     0.01  -0.01   0.01     0.02  -0.01   0.01
  21   1     0.01  -0.00  -0.04     0.01  -0.01  -0.03    -0.01  -0.01   0.02
  22   6     0.00   0.01  -0.00     0.03   0.05   0.01    -0.00   0.02  -0.01
  23   8     0.00   0.01  -0.00     0.01   0.03   0.00    -0.02  -0.03   0.01
  24   7     0.00   0.00   0.00    -0.05  -0.05   0.03     0.01  -0.00  -0.00
  25   1    -0.00  -0.01   0.00     0.05   0.14  -0.03     0.02   0.03  -0.01
  26   1    -0.00  -0.01   0.00     0.04   0.11  -0.03     0.02   0.04  -0.00
  27   7    -0.00  -0.00  -0.00     0.05   0.02  -0.00    -0.04  -0.05  -0.01
  28   1     0.00   0.00  -0.00    -0.02  -0.05  -0.01     0.03   0.05   0.00
  29   1     0.00   0.01  -0.00    -0.04  -0.14   0.02     0.06   0.17  -0.02
  30   6    -0.01   0.01  -0.00     0.05   0.00   0.04     0.10  -0.01   0.08
  31   8    -0.00   0.01  -0.01     0.03   0.01   0.01     0.07   0.01   0.01
  32   7     0.01   0.00   0.02    -0.07   0.02  -0.01    -0.14   0.06  -0.06
  33   1    -0.01   0.01  -0.00     0.00  -0.02   0.00     0.04  -0.04   0.03
  34   1    -0.02   0.01  -0.01    -0.00  -0.01   0.04     0.04  -0.03   0.08
  35   7     0.02   0.01   0.03    -0.09  -0.01  -0.08    -0.22   0.00  -0.17
  36   1    -0.06   0.02  -0.04     0.26  -0.08   0.18     0.62  -0.19   0.47
  37   1    -0.02   0.01  -0.01     0.02  -0.02   0.01     0.06  -0.02   0.01
  38   6     0.01  -0.00   0.00    -0.08  -0.06  -0.04     0.03   0.02   0.02
  39   8     0.00   0.00   0.00    -0.10  -0.01  -0.03     0.04   0.00   0.02
  40   7    -0.00  -0.02  -0.02     0.21   0.15   0.08    -0.08  -0.06  -0.05
  41   1     0.01  -0.00  -0.01    -0.04   0.01  -0.01     0.00  -0.01  -0.00
  42   1     0.03   0.02  -0.00    -0.62  -0.49  -0.06     0.25   0.19   0.02
  43   7    -0.02  -0.00  -0.02     0.16   0.07  -0.04    -0.07  -0.03   0.01
  44   1     0.01   0.03  -0.01    -0.05  -0.10   0.01     0.03   0.06  -0.01
  45   1     0.01   0.00  -0.02    -0.07  -0.05   0.03     0.03   0.02  -0.02
  46   6    -0.00  -0.00   0.00     0.01   0.00   0.00    -0.01  -0.01  -0.00
  47   8    -0.00  -0.00   0.00     0.01  -0.00   0.00    -0.01  -0.00   0.00
  48   7    -0.00   0.00  -0.01     0.00   0.00   0.01    -0.00  -0.02   0.00
  49   1     0.00  -0.00   0.00    -0.01  -0.00   0.01     0.01   0.01  -0.02
  50   1    -0.00  -0.01   0.01     0.00   0.03  -0.03    -0.00  -0.00  -0.01
  51   7     0.00   0.00  -0.00    -0.01  -0.01   0.00     0.01   0.00   0.00
  52   1    -0.00  -0.01   0.01    -0.00  -0.00  -0.01     0.01   0.03  -0.01
  53   1    -0.00  -0.00   0.00    -0.01   0.01  -0.00     0.01  -0.02   0.01
                     40                     41                     42
                        a                      a                      a 
 Frequencies --   426.6081               447.9163               453.3262
 Red. masses --     8.6525                 2.3050                 7.8571
 Frc consts  --     0.0000                 0.0000                 0.0000
 IR Inten    --     4.1210                 5.3742                 4.5565
 Raman Activ --     0.0000                 0.0000                 0.0000
 Depolar     --     0.0000                 0.0000                 0.0000
 Atom AN      X      Y      Z        X      Y      Z        X      Y      Z
   1   8    -0.03  -0.09   0.26     0.01   0.00   0.00    -0.02   0.02   0.01
   2   6     0.18  -0.02  -0.08     0.00  -0.00   0.00    -0.02   0.01   0.04
   3   1     0.11   0.03  -0.07     0.00   0.00  -0.00     0.01   0.01  -0.00
   4   1     0.04   0.05   0.05     0.00  -0.00   0.00    -0.01   0.01   0.04
   5   6    -0.16  -0.07  -0.22    -0.00  -0.00  -0.00    -0.19   0.01  -0.01
   6   1    -0.10  -0.00  -0.13    -0.00  -0.00  -0.00    -0.22  -0.03  -0.10
   7   1    -0.08   0.02   0.03    -0.00  -0.00   0.00    -0.07   0.17   0.12
   8   7    -0.16  -0.03  -0.22    -0.00  -0.00  -0.00     0.22  -0.30  -0.04
   9   6    -0.25   0.29  -0.00    -0.00   0.00   0.00     0.11   0.14   0.29
  10   1    -0.11   0.11  -0.03    -0.00   0.00   0.00    -0.02   0.09   0.08
  11   1    -0.10   0.15  -0.01    -0.00   0.00  -0.00    -0.06   0.11   0.07
  12   1     0.00   0.09   0.10     0.00   0.00   0.00     0.13   0.05   0.19
  13   6     0.16  -0.07  -0.16     0.00   0.00  -0.00    -0.16   0.28  -0.08
  14   1     0.04  -0.05   0.01     0.00   0.00  -0.00    -0.02   0.15  -0.19
  15   1     0.10   0.01  -0.11     0.00   0.00  -0.00    -0.12   0.10   0.09
  16   1     0.10  -0.05  -0.01     0.00   0.00  -0.00    -0.12   0.15   0.02
  17   6     0.21  -0.04   0.35     0.00  -0.00   0.00     0.16  -0.30  -0.22
  18   1     0.02   0.12   0.22     0.00   0.00   0.00     0.03  -0.14  -0.05
  19   1     0.17  -0.10   0.11     0.00  -0.00   0.00     0.06  -0.01  -0.06
  20   1     0.11  -0.04   0.12     0.00  -0.00   0.00     0.01  -0.08  -0.13
  21   1     0.01  -0.04   0.03     0.00   0.00   0.00     0.00   0.01  -0.02
  22   6     0.01  -0.01   0.01    -0.02   0.01   0.00     0.00  -0.01   0.00
  23   8     0.00  -0.01  -0.00    -0.03   0.00   0.00     0.01   0.01  -0.01
  24   7    -0.01   0.01   0.00     0.02   0.00   0.02    -0.00   0.01  -0.01
  25   1    -0.01  -0.00   0.01     0.01  -0.01  -0.00    -0.02  -0.02   0.01
  26   1    -0.01  -0.01  -0.00     0.01   0.01   0.02    -0.02  -0.03  -0.00
  27   7     0.00   0.01   0.01    -0.01  -0.01  -0.02     0.00   0.01   0.01
  28   1     0.00   0.00   0.01    -0.00  -0.00  -0.02    -0.00  -0.00   0.01
  29   1    -0.00  -0.00   0.00     0.03   0.04  -0.01    -0.01  -0.02   0.00
  30   6    -0.02  -0.01  -0.02     0.00  -0.00   0.00     0.02   0.05  -0.02
  31   8    -0.02  -0.01  -0.00     0.00  -0.00   0.00    -0.01   0.05   0.03
  32   7     0.04  -0.01  -0.00    -0.00   0.00  -0.00    -0.03  -0.04   0.03
  33   1    -0.01   0.01  -0.01    -0.01   0.00  -0.01    -0.03  -0.05  -0.03
  34   1     0.00   0.00  -0.02     0.01  -0.01   0.01    -0.02  -0.01   0.06
  35   7     0.03  -0.00   0.03    -0.01   0.00  -0.00     0.05  -0.05  -0.04
  36   1    -0.12   0.03  -0.08     0.01  -0.00   0.01    -0.03   0.00  -0.08
  37   1    -0.00  -0.00   0.00     0.00  -0.00   0.00    -0.01  -0.03  -0.01
  38   6     0.01  -0.02   0.03     0.00   0.00  -0.00     0.01  -0.01   0.02
  39   8    -0.01   0.00   0.04     0.00  -0.00  -0.00    -0.01   0.01   0.03
  40   7     0.03  -0.02  -0.05    -0.01  -0.00  -0.00     0.02  -0.02  -0.01
  41   1    -0.01   0.01  -0.03    -0.00  -0.00   0.00     0.00   0.00  -0.01
  42   1    -0.01  -0.05  -0.02     0.02   0.02   0.00    -0.01  -0.03  -0.01
  43   7    -0.03   0.03  -0.03    -0.00  -0.01   0.00    -0.01   0.02  -0.02
  44   1    -0.01   0.06  -0.01     0.00  -0.00  -0.00    -0.00   0.04  -0.00
  45   1    -0.02  -0.01  -0.05     0.01   0.01   0.00    -0.03  -0.02  -0.03
  46   6    -0.00  -0.00  -0.00     0.12  -0.03   0.00    -0.01   0.00  -0.00
  47   8    -0.00   0.00  -0.00     0.13  -0.03  -0.00    -0.01   0.00  -0.00
  48   7     0.00  -0.00  -0.00    -0.02   0.16  -0.04     0.01  -0.01  -0.01
  49   1     0.00   0.00  -0.00    -0.27  -0.22   0.41     0.01  -0.00   0.01
  50   1    -0.00  -0.00   0.00     0.04   0.39  -0.25     0.00  -0.01  -0.00
  51   7     0.00   0.00   0.00    -0.10  -0.15   0.04     0.01   0.01   0.01
  52   1     0.00   0.00   0.00    -0.15  -0.31   0.19    -0.00  -0.00   0.01
  53   1     0.00  -0.00  -0.00    -0.07   0.28  -0.39     0.01   0.00  -0.01
                     43                     44                     45
                        a                      a                      a 
 Frequencies --   457.2336               468.3329               468.7455
 Red. masses --     7.9876                 3.1761                 7.6154
 Frc consts  --     0.0000                 0.0000                 0.0000
 IR Inten    --     2.3160                14.4931                28.5922
 Raman Activ --     0.0000                 0.0000                 0.0000
 Depolar     --     0.0000                 0.0000                 0.0000
 Atom AN      X      Y      Z        X      Y      Z        X      Y      Z
   1   8     0.01   0.00   0.01    -0.01   0.00   0.02     0.04   0.05   0.00
   2   6     0.00  -0.00   0.00     0.03   0.02  -0.01    -0.04   0.00   0.04
   3   1     0.00   0.00  -0.00     0.02   0.01  -0.01    -0.03   0.00   0.01
   4   1     0.00  -0.00   0.00     0.00   0.02   0.01    -0.01  -0.02  -0.00
   5   6    -0.01  -0.00  -0.00    -0.02  -0.01  -0.03     0.04  -0.04   0.03
   6   1    -0.01  -0.00  -0.00    -0.02  -0.00  -0.02     0.06  -0.01   0.06
   7   1    -0.00   0.00   0.00    -0.01   0.01   0.01     0.02  -0.06  -0.04
   8   7     0.01  -0.01  -0.00    -0.00  -0.02  -0.01    -0.06   0.03  -0.02
   9   6     0.00   0.01   0.01    -0.02   0.03   0.03    -0.04  -0.02  -0.08
  10   1    -0.00   0.01   0.00    -0.01   0.01  -0.00    -0.00  -0.01  -0.03
  11   1    -0.00   0.00   0.00    -0.01   0.02   0.01     0.00  -0.01  -0.02
  12   1     0.00   0.00   0.01     0.00   0.01   0.03    -0.02  -0.01  -0.03
  13   6    -0.00   0.01  -0.00    -0.00   0.01  -0.01     0.05  -0.02   0.00
  14   1     0.00   0.01  -0.01    -0.00   0.00  -0.01     0.02  -0.01   0.03
  15   1    -0.00   0.00   0.00    -0.00   0.01  -0.00     0.03  -0.01  -0.03
  16   1    -0.00   0.01   0.00    -0.00   0.00   0.00     0.03  -0.01   0.01
  17   6     0.01  -0.01  -0.00     0.03  -0.02   0.02     0.00   0.04   0.03
  18   1     0.00  -0.00   0.00     0.00   0.00   0.02     0.00   0.03   0.01
  19   1     0.00  -0.00  -0.00     0.02  -0.00   0.01     0.00  -0.00   0.01
  20   1     0.00  -0.00  -0.00     0.01  -0.01  -0.00     0.02   0.00   0.02
  21   1     0.00   0.00   0.00     0.00  -0.00  -0.01     0.01   0.02  -0.00
  22   6    -0.04   0.02   0.01    -0.01   0.01  -0.02    -0.01   0.00  -0.01
  23   8    -0.04   0.01  -0.00    -0.00   0.01   0.02    -0.01  -0.02   0.01
  24   7     0.02   0.00   0.03     0.03  -0.02  -0.00    -0.01  -0.01  -0.00
  25   1     0.02  -0.01  -0.00     0.03   0.01  -0.02     0.01   0.03  -0.01
  26   1     0.01   0.01   0.02     0.02   0.01   0.01     0.01   0.03  -0.01
  27   7    -0.01  -0.00  -0.03    -0.01  -0.01  -0.02    -0.02  -0.01  -0.01
  28   1    -0.01  -0.01  -0.02    -0.00  -0.00  -0.00     0.00   0.01  -0.00
  29   1     0.02   0.01  -0.00     0.00   0.01  -0.01     0.01   0.04  -0.01
  30   6    -0.00   0.00  -0.00     0.02   0.03  -0.00     0.14   0.24  -0.02
  31   8    -0.00   0.00  -0.00     0.00   0.04   0.03     0.02   0.29   0.19
  32   7    -0.00  -0.00  -0.00    -0.03  -0.03   0.03    -0.20  -0.18   0.18
  33   1     0.00  -0.00   0.00    -0.04  -0.03  -0.04    -0.26  -0.23  -0.24
  34   1     0.00  -0.00   0.00    -0.01  -0.01   0.05    -0.11  -0.08   0.37
  35   7    -0.00  -0.00  -0.00     0.02  -0.03  -0.04     0.14  -0.22  -0.31
  36   1     0.00  -0.00   0.00    -0.00  -0.01  -0.05     0.06  -0.06  -0.27
  37   1     0.00  -0.00  -0.00    -0.01  -0.03  -0.00    -0.04  -0.20  -0.02
  38   6    -0.00   0.00  -0.01    -0.11   0.02  -0.11     0.02  -0.01   0.02
  39   8     0.00  -0.00  -0.01    -0.01  -0.14  -0.17    -0.00   0.02   0.04
  40   7    -0.00   0.00   0.00    -0.01   0.21   0.10     0.01  -0.04  -0.02
  41   1    -0.00  -0.00   0.00    -0.05  -0.03   0.08    -0.00  -0.00  -0.02
  42   1     0.01   0.01   0.00    -0.01   0.12   0.05     0.03  -0.01  -0.01
  43   7     0.00  -0.01   0.00    -0.00  -0.11   0.08    -0.01   0.02  -0.02
  44   1     0.00  -0.01  -0.00    -0.14  -0.47   0.03     0.00   0.07  -0.00
  45   1     0.01   0.01   0.01     0.57   0.44   0.20    -0.06  -0.05  -0.04
  46   6     0.28  -0.08   0.02    -0.01   0.00  -0.00    -0.00  -0.00  -0.00
  47   8     0.32  -0.09   0.02    -0.01   0.00   0.00     0.00   0.00   0.00
  48   7    -0.17   0.29   0.23     0.00  -0.01  -0.01    -0.00  -0.00   0.00
  49   1    -0.19   0.16  -0.26     0.01  -0.00   0.00    -0.00   0.00  -0.00
  50   1    -0.02   0.14   0.32    -0.00  -0.01  -0.01    -0.00   0.00  -0.00
  51   7    -0.24  -0.18  -0.27     0.01   0.01   0.01     0.00  -0.00  -0.00
  52   1    -0.06  -0.15  -0.29     0.00   0.01   0.00     0.00   0.01  -0.01
  53   1    -0.27  -0.02   0.18     0.01  -0.00   0.00     0.00  -0.01   0.01
                     46                     47                     48
                        a                      a                      a 
 Frequencies --   481.6134               484.2741               487.4124
 Red. masses --     7.6023                 2.9480                 8.1888
 Frc consts  --     0.0000                 0.0000                 0.0000
 IR Inten    --    18.3720                 6.2410                 1.4273
 Raman Activ --     0.0000                 0.0000                 0.0000
 Depolar     --     0.0000                 0.0000                 0.0000
 Atom AN      X      Y      Z        X      Y      Z        X      Y      Z
   1   8    -0.01  -0.00   0.01     0.03   0.03  -0.01     0.06   0.09  -0.22
   2   6     0.03   0.02  -0.02    -0.03   0.00   0.03    -0.18   0.03   0.14
   3   1     0.04   0.01  -0.02    -0.01   0.01   0.00     0.04   0.03   0.00
   4   1     0.00   0.03   0.02    -0.01  -0.01   0.02    -0.05   0.02   0.14
   5   6    -0.04  -0.03  -0.04    -0.01  -0.06   0.01    -0.12  -0.36   0.04
   6   1    -0.02  -0.01  -0.02     0.03  -0.02   0.03     0.10  -0.11   0.14
   7   1    -0.01   0.00  -0.00     0.00  -0.05  -0.02     0.01  -0.21  -0.12
   8   7    -0.03  -0.03   0.02    -0.05  -0.03   0.00    -0.25  -0.24   0.08
   9   6    -0.01   0.05   0.01    -0.02   0.02  -0.04    -0.01   0.14  -0.18
  10   1    -0.01   0.02  -0.02    -0.01   0.01  -0.03    -0.08   0.07  -0.18
  11   1     0.01   0.03   0.01     0.01   0.02  -0.01     0.10   0.10  -0.03
  12   1     0.01   0.01   0.02     0.00   0.01  -0.00     0.05   0.05  -0.02
  13   6    -0.01   0.00   0.03     0.03   0.02   0.03     0.10   0.16   0.24
  14   1    -0.00   0.00   0.01     0.02   0.01   0.01     0.10   0.10   0.03
  15   1     0.00   0.01   0.01     0.02   0.01  -0.01     0.09   0.07  -0.01
  16   1     0.00   0.00   0.02     0.01   0.01   0.03     0.01   0.09   0.21
  17   6     0.03  -0.01   0.02     0.04   0.01  -0.00     0.21   0.06  -0.11
  18   1     0.01   0.01   0.02     0.01   0.02   0.01     0.07   0.10  -0.03
  19   1     0.02   0.01   0.01     0.02   0.01   0.00     0.08   0.12  -0.02
  20   1     0.02  -0.01  -0.00     0.03  -0.01  -0.01     0.17  -0.08  -0.11
  21   1    -0.01  -0.00   0.01     0.01   0.01  -0.01     0.01   0.04  -0.06
  22   6    -0.04  -0.00  -0.04    -0.00  -0.02  -0.00    -0.00  -0.01   0.02
  23   8    -0.01   0.01   0.06     0.01  -0.01  -0.01    -0.01  -0.00  -0.02
  24   7     0.07  -0.03  -0.02     0.00   0.01  -0.02    -0.00   0.02   0.01
  25   1     0.05  -0.02  -0.03    -0.02  -0.02   0.01    -0.02  -0.02   0.01
  26   1     0.03  -0.01   0.04    -0.02  -0.04   0.00    -0.02  -0.03   0.01
  27   7    -0.04  -0.00  -0.04    -0.01   0.02   0.01     0.02  -0.00   0.00
  28   1    -0.00   0.01  -0.00    -0.00   0.00   0.01     0.00  -0.00  -0.01
  29   1    -0.01   0.03  -0.02    -0.02  -0.01   0.00     0.01  -0.02   0.01
  30   6     0.01  -0.01   0.01    -0.02   0.13  -0.04    -0.02  -0.04   0.01
  31   8     0.00  -0.01   0.01    -0.03   0.14  -0.04     0.01  -0.05  -0.03
  32   7     0.02   0.00  -0.00    -0.15  -0.06   0.07     0.04   0.04  -0.02
  33   1    -0.09   0.03  -0.07     0.54  -0.29   0.42    -0.06   0.07  -0.04
  34   1     0.05  -0.03   0.05    -0.39   0.18  -0.25     0.08  -0.02   0.01
  35   7    -0.02   0.01  -0.01     0.15  -0.15  -0.02    -0.05   0.05   0.04
  36   1    -0.02   0.01  -0.01     0.09  -0.05  -0.07    -0.01   0.01   0.05
[...]
  44   1     0.00  -0.00   0.01     0.00  -0.00   0.00     0.00  -0.00   0.00
  45   1    -0.00   0.01  -0.00    -0.00   0.00  -0.00    -0.00   0.00  -0.00
  46   6     0.00  -0.00   0.00     0.01  -0.00   0.00     0.00   0.00   0.00
  47   8    -0.00   0.00   0.00    -0.01   0.00   0.00    -0.00  -0.00  -0.00
  48   7    -0.00   0.00  -0.00    -0.00   0.00   0.00    -0.00   0.00   0.00
  49   1     0.00  -0.00  -0.00     0.01  -0.02  -0.01     0.00  -0.01  -0.00
  50   1    -0.00   0.00   0.00    -0.01   0.00   0.00    -0.00   0.00   0.00
  51   7    -0.00   0.00   0.00    -0.00  -0.00  -0.00    -0.00  -0.00  -0.00
  52   1    -0.00   0.00  -0.00    -0.00   0.00  -0.00    -0.00   0.00  -0.00
  53   1     0.00   0.00   0.00     0.01   0.01   0.00     0.00   0.00   0.00
                    142                    143                    144
                        a                      a                      a 
 Frequencies --  3494.7692              3494.8470              3498.2200
 Red. masses --     1.5840                 1.8380                 1.4508
 Frc consts  --     0.0000                 0.0000                 0.0000
 IR Inten    --    92.3193               160.4126                15.9155
 Raman Activ --     0.0000                 0.0000                 0.0000
 Depolar     --     0.0000                 0.0000                 0.0000
 Atom AN      X      Y      Z        X      Y      Z        X      Y      Z
   1   8    -0.00   0.00   0.00    -0.00  -0.00  -0.00    -0.00   0.00   0.00
   2   6     0.00  -0.00  -0.00     0.00  -0.00  -0.00     0.00   0.00   0.00
   3   1    -0.00  -0.00   0.00     0.00   0.00   0.00    -0.00  -0.00  -0.00
   4   1     0.00  -0.00   0.00     0.00  -0.00   0.00     0.00   0.00   0.00
   5   6    -0.00   0.00   0.00    -0.00   0.00   0.00    -0.00   0.00   0.00
   6   1     0.00  -0.00  -0.00     0.00  -0.00  -0.00     0.00  -0.00  -0.00
   7   1    -0.00   0.00   0.00    -0.00   0.00   0.00     0.00  -0.00   0.00
   8   7     0.00  -0.00   0.00     0.00  -0.00   0.00    -0.00  -0.00  -0.00
   9   6    -0.00   0.00   0.00    -0.00   0.00   0.00    -0.00   0.00   0.00
  10   1     0.00   0.00  -0.00     0.00   0.00  -0.00    -0.00  -0.00   0.00
  11   1    -0.00   0.00   0.00    -0.00   0.00   0.00     0.00  -0.00  -0.00
  12   1     0.00  -0.00  -0.00     0.00  -0.00  -0.00     0.00  -0.00   0.00
  13   6    -0.00   0.00   0.00    -0.00   0.00   0.00    -0.00   0.00  -0.00
  14   1     0.00  -0.00  -0.00     0.00  -0.00   0.00     0.00  -0.00  -0.00
  15   1     0.00  -0.00   0.00    -0.00  -0.00   0.00     0.00   0.00   0.00
  16   1     0.00   0.00   0.00     0.00   0.00   0.00    -0.00  -0.00   0.00
  17   6    -0.00  -0.00   0.00     0.00  -0.00   0.00    -0.00   0.00   0.00
  18   1     0.00  -0.00   0.00    -0.00  -0.00  -0.00     0.00   0.00   0.00
  19   1    -0.00  -0.00  -0.00    -0.00   0.00  -0.00    -0.00   0.00  -0.00
  20   1     0.00   0.00  -0.00     0.00   0.00  -0.00    -0.00  -0.00   0.00
  21   1     0.00   0.00   0.00     0.00   0.00   0.00     0.00  -0.00  -0.00
  22   6     0.00  -0.00   0.00     0.01  -0.00   0.00     0.00  -0.00  -0.00
  23   8    -0.00   0.00   0.00    -0.00   0.00   0.00    -0.00   0.00   0.00
  24   7     0.12  -0.05   0.02     0.20  -0.09   0.03     0.00  -0.00   0.00
  25   1    -0.10   0.01  -0.13    -0.17   0.02  -0.21    -0.00   0.00  -0.00
  26   1    -0.36   0.19   0.06    -0.60   0.31   0.10    -0.01   0.00   0.00
  27   7     0.00  -0.00   0.01     0.01  -0.00   0.01     0.00  -0.00  -0.00
  28   1    -0.02   0.01   0.01    -0.04   0.02   0.01    -0.00   0.00   0.00
  29   1     0.01  -0.01  -0.03     0.01  -0.01  -0.05     0.00  -0.00   0.00
  30   6     0.00   0.00   0.00     0.00   0.00   0.00     0.00  -0.00  -0.00
  31   8    -0.00  -0.00  -0.00    -0.00  -0.00  -0.00    -0.00   0.00   0.00
  32   7    -0.00   0.01   0.01    -0.01   0.01   0.02    -0.00   0.00   0.00
  33   1     0.04   0.02  -0.04     0.07   0.04  -0.07     0.00   0.00  -0.00
  34   1    -0.02  -0.05  -0.01    -0.04  -0.09  -0.01    -0.00  -0.00  -0.00
  35   7    -0.00  -0.00   0.00    -0.00  -0.00   0.00    -0.00  -0.00   0.00
  36   1     0.00   0.00   0.00     0.00   0.01   0.00     0.00   0.00   0.00
  37   1     0.00  -0.00  -0.00     0.00  -0.00  -0.00     0.00  -0.00  -0.00
  38   6    -0.00   0.00  -0.00     0.00  -0.00  -0.00    -0.00  -0.00  -0.00
  39   8     0.00   0.00   0.00     0.00   0.00   0.00     0.00  -0.00   0.00
  40   7    -0.00   0.00  -0.00    -0.00   0.00  -0.00    -0.00   0.00   0.01
  41   1     0.00  -0.00  -0.00     0.00  -0.00  -0.00     0.01  -0.01  -0.01
  42   1     0.00  -0.00   0.00     0.00  -0.00   0.00    -0.00   0.01  -0.04
  43   7     0.00  -0.00   0.00     0.00  -0.00  -0.00     0.04  -0.12  -0.14
  44   1     0.00  -0.00   0.00     0.00  -0.00   0.00     0.22  -0.07   0.69
  45   1    -0.00   0.00  -0.00    -0.00   0.00  -0.00    -0.38   0.51  -0.18
  46   6     0.00   0.00  -0.00     0.00  -0.00   0.00    -0.00   0.00  -0.00
  47   8    -0.00   0.00   0.00    -0.00   0.00  -0.00     0.00  -0.00   0.00
  48   7     0.10   0.09   0.04    -0.02  -0.01  -0.01    -0.00  -0.00  -0.00
  49   1     0.16  -0.45  -0.19    -0.03   0.07   0.03    -0.00   0.01   0.00
  50   1    -0.53   0.11   0.03     0.11  -0.02  -0.01     0.01  -0.00  -0.00
  51   7    -0.03   0.07   0.02     0.04  -0.10  -0.03    -0.00   0.00   0.00
  52   1     0.31  -0.10   0.06    -0.40   0.13  -0.07     0.01  -0.00   0.00
  53   1    -0.19  -0.18  -0.13     0.27   0.25   0.18    -0.01  -0.01  -0.01
                    145                    146                    147
                        a                      a                      a 
 Frequencies --  3498.9256              3500.6824              3529.3999
 Red. masses --     1.5387                 1.4926                 1.9140
 Frc consts  --     0.0000                 0.0000                 0.0000
 IR Inten    --    12.2501                35.6581                11.2917
 Raman Activ --     0.0000                 0.0000                 0.0000
 Depolar     --     0.0000                 0.0000                 0.0000
 Atom AN      X      Y      Z        X      Y      Z        X      Y      Z
   1   8    -0.00  -0.00  -0.00    -0.00   0.00   0.00     0.00   0.00   0.00
   2   6     0.00  -0.00  -0.00     0.00  -0.00  -0.00    -0.00   0.00  -0.00
   3   1     0.00   0.00   0.00     0.00  -0.00   0.00     0.00   0.00   0.00
   4   1    -0.00  -0.00  -0.00    -0.00  -0.00  -0.00    -0.00  -0.00  -0.00
   5   6    -0.00   0.00   0.00    -0.00   0.00   0.00     0.00  -0.00   0.00
   6   1     0.00  -0.00  -0.00     0.00  -0.00  -0.00    -0.00   0.00  -0.00
   7   1    -0.00   0.00  -0.00    -0.00   0.00  -0.00     0.00  -0.00   0.00
   8   7     0.00  -0.00  -0.00     0.00  -0.00  -0.00     0.00   0.00  -0.00
   9   6    -0.00   0.00   0.00    -0.00   0.00   0.00     0.00  -0.00  -0.00
  10   1     0.00  -0.00  -0.00     0.00   0.00  -0.00    -0.00  -0.00  -0.00
  11   1    -0.00   0.00   0.00    -0.00   0.00  -0.00    -0.00   0.00   0.00
  12   1     0.00  -0.00  -0.00     0.00  -0.00  -0.00    -0.00   0.00  -0.00
  13   6    -0.00   0.00  -0.00    -0.00   0.00   0.00    -0.00  -0.00   0.00
  14   1     0.00  -0.00   0.00     0.00  -0.00   0.00    -0.00   0.00  -0.00
  15   1     0.00  -0.00   0.00    -0.00  -0.00   0.00    -0.00   0.00  -0.00
  16   1     0.00   0.00   0.00     0.00   0.00   0.00    -0.00  -0.00   0.00
  17   6     0.00  -0.00   0.00     0.00  -0.00   0.00     0.00   0.00  -0.00
  18   1    -0.00  -0.00  -0.00     0.00  -0.00   0.00     0.00  -0.00  -0.00
  19   1     0.00  -0.00   0.00     0.00   0.00  -0.00     0.00  -0.00   0.00
  20   1     0.00   0.00  -0.00     0.00   0.00  -0.00    -0.00  -0.00   0.00
  21   1     0.00   0.00   0.00     0.00  -0.00  -0.00    -0.01  -0.00  -0.00
  22   6     0.00  -0.00   0.00     0.00  -0.00   0.00     0.00  -0.00  -0.00
  23   8    -0.00   0.00   0.00    -0.00   0.00   0.00    -0.00   0.00   0.00
  24   7     0.09  -0.04   0.01     0.07  -0.03   0.01    -0.00   0.00   0.00
  25   1    -0.07   0.01  -0.09    -0.07   0.01  -0.08    -0.00   0.00  -0.00
  26   1    -0.27   0.14   0.04    -0.19   0.10   0.03     0.01  -0.00  -0.00
  27   7     0.01  -0.00   0.01     0.00  -0.00   0.00    -0.00   0.00   0.00
  28   1    -0.03   0.02   0.01    -0.02   0.01   0.01     0.01  -0.00  -0.00
  29   1     0.01  -0.01  -0.04     0.00  -0.00  -0.02     0.00  -0.00  -0.01
  30   6     0.00   0.00   0.00    -0.00  -0.00  -0.00    -0.00  -0.00  -0.00
  31   8    -0.00  -0.00  -0.00     0.00   0.00  -0.00     0.00   0.00   0.00
  32   7    -0.01   0.03   0.04     0.04  -0.10  -0.14     0.00   0.00   0.00
  33   1     0.11   0.06  -0.11    -0.41  -0.24   0.42     0.00   0.00  -0.00
  34   1    -0.07  -0.16  -0.02     0.28   0.62   0.09    -0.00  -0.00  -0.00
  35   7    -0.00  -0.00  -0.00    -0.00   0.01   0.01    -0.00  -0.00  -0.00
  36   1     0.00   0.01   0.00    -0.01  -0.04  -0.00     0.00   0.00   0.00
  37   1    -0.00   0.00  -0.00     0.01  -0.01  -0.01    -0.00   0.00   0.00
  38   6     0.00   0.00   0.00     0.00  -0.00  -0.00     0.00  -0.00  -0.01
  39   8    -0.00   0.00  -0.00     0.00   0.00   0.00    -0.00   0.00   0.00
  40   7    -0.00   0.00  -0.00    -0.00   0.00  -0.00    -0.01   0.05  -0.26
  41   1     0.00  -0.00  -0.00     0.00  -0.00  -0.00    -0.04   0.08   0.06
  42   1     0.00  -0.00   0.00     0.00  -0.00   0.00     0.08  -0.25   0.92
  43   7    -0.00   0.00   0.00    -0.00   0.00   0.00     0.01  -0.02   0.01
  44   1    -0.01   0.00  -0.02    -0.00   0.00  -0.00    -0.01   0.00  -0.02
  45   1     0.01  -0.01   0.00     0.00  -0.00   0.00    -0.05   0.06  -0.02
  46   6    -0.00   0.00  -0.00     0.00  -0.00   0.00     0.00  -0.00  -0.00
  47   8     0.00  -0.00  -0.00     0.00  -0.00  -0.00    -0.00   0.00   0.00
  48   7    -0.08  -0.08  -0.04    -0.02  -0.01  -0.01    -0.00  -0.00  -0.00
  49   1    -0.14   0.37   0.16    -0.03   0.07   0.03     0.00   0.00   0.00
  50   1     0.43  -0.09  -0.02     0.08  -0.02  -0.00    -0.00   0.00   0.00
  51   7    -0.04   0.11   0.03    -0.01   0.02   0.01    -0.00   0.00   0.00
  52   1     0.44  -0.14   0.08     0.08  -0.03   0.02     0.00  -0.00   0.00
  53   1    -0.29  -0.27  -0.19    -0.05  -0.05  -0.04    -0.00  -0.00  -0.00
                    148                    149                    150
                        a                      a                      a 
 Frequencies --  3535.8187              3550.4316              3558.0083
 Red. masses --     1.9096                 1.9832                 2.1888
 Frc consts  --     0.0000                 0.0000                 0.0000
 IR Inten    --    14.6864                35.0829                13.6690
 Raman Activ --     0.0000                 0.0000                 0.0000
 Depolar     --     0.0000                 0.0000                 0.0000
 Atom AN      X      Y      Z        X      Y      Z        X      Y      Z
   1   8     0.00   0.00   0.00     0.00   0.00   0.00     0.00   0.00   0.00
   2   6     0.00  -0.00   0.00     0.00  -0.00  -0.00    -0.00  -0.00   0.00
   3   1    -0.00   0.00  -0.00    -0.00   0.00   0.00    -0.00  -0.00  -0.00
   4   1    -0.00  -0.00  -0.00     0.00  -0.00   0.00     0.00   0.00   0.00
   5   6     0.00  -0.00  -0.00    -0.00   0.00   0.00    -0.00   0.00   0.00
   6   1    -0.00   0.00  -0.00     0.00  -0.00  -0.00     0.00  -0.00  -0.00
   7   1     0.00  -0.00  -0.00    -0.00   0.00   0.00     0.00  -0.00   0.00
   8   7     0.00  -0.00  -0.00    -0.00   0.00   0.00     0.00   0.00   0.00
   9   6    -0.00   0.00  -0.00    -0.00   0.00   0.00    -0.00   0.00   0.00
  10   1     0.00   0.00  -0.00    -0.00  -0.00   0.00     0.00   0.00  -0.00
  11   1    -0.00  -0.00   0.00    -0.00   0.00  -0.00    -0.00  -0.00  -0.00
  12   1     0.00   0.00   0.00     0.00  -0.00  -0.00    -0.00  -0.00  -0.00
  13   6    -0.00   0.00   0.00     0.00   0.00   0.00    -0.00   0.00  -0.00
  14   1     0.00  -0.00  -0.00     0.00  -0.00   0.00    -0.00  -0.00  -0.00
  15   1    -0.00  -0.00  -0.00    -0.00   0.00   0.00     0.00  -0.00   0.00
  16   1     0.00   0.00  -0.00     0.00   0.00   0.00    -0.00   0.00  -0.00
  17   6    -0.00   0.00  -0.00     0.00   0.00  -0.00    -0.00  -0.00   0.00
  18   1     0.00  -0.00   0.00    -0.00  -0.00  -0.00     0.00  -0.00   0.00
  19   1    -0.00  -0.00   0.00    -0.00  -0.00   0.00    -0.00  -0.00  -0.00
  20   1     0.00  -0.00  -0.00     0.00   0.00  -0.00    -0.00   0.00  -0.00
  21   1    -0.00  -0.00  -0.00    -0.00  -0.00  -0.00    -0.00  -0.00  -0.00
  22   6    -0.00   0.00   0.00     0.01  -0.00  -0.01    -0.00  -0.00  -0.00
  23   8     0.00   0.00   0.00    -0.00   0.00   0.00     0.00   0.00   0.00
  24   7     0.00  -0.00  -0.00     0.01  -0.01   0.00    -0.00   0.00   0.00
  25   1     0.00  -0.00   0.00    -0.01   0.00  -0.02    -0.00   0.00  -0.00
  26   1    -0.00   0.00   0.00    -0.04   0.02   0.01     0.00  -0.00   0.00
  27   7     0.00  -0.00   0.00     0.09  -0.08  -0.25    -0.00   0.00   0.00
  28   1    -0.00   0.00   0.00    -0.16   0.10   0.03     0.00  -0.00  -0.00
  29   1     0.00  -0.00  -0.00    -0.19   0.18   0.90     0.00  -0.00  -0.01
  30   6     0.00  -0.01  -0.00     0.00   0.00   0.00     0.00  -0.00  -0.00
  31   8    -0.00   0.00   0.00    -0.00  -0.00  -0.00     0.00   0.00   0.00
  32   7     0.02   0.01  -0.01    -0.00  -0.00   0.00     0.00   0.00  -0.00
  33   1    -0.06  -0.03   0.06     0.00   0.00  -0.00    -0.00  -0.00   0.00
  34   1    -0.01  -0.02  -0.00     0.00   0.00   0.00    -0.00  -0.00  -0.00
  35   7    -0.06  -0.25  -0.02    -0.00  -0.00   0.00    -0.00   0.00   0.00
  36   1     0.25   0.92   0.02     0.00   0.00   0.00    -0.00  -0.00  -0.00
  37   1    -0.03   0.04   0.08     0.00  -0.00  -0.00     0.00  -0.00  -0.00
  38   6    -0.00  -0.00  -0.00     0.00  -0.00   0.00    -0.00   0.00  -0.00
  39   8     0.00   0.00   0.00    -0.00   0.00  -0.00     0.00   0.00   0.00
  40   7     0.00  -0.00   0.00     0.00  -0.00  -0.00     0.00   0.00  -0.00
  41   1     0.00  -0.00  -0.00    -0.00   0.01   0.01    -0.00  -0.00  -0.00
  42   1    -0.00   0.00  -0.00     0.00  -0.00   0.01    -0.00  -0.00   0.00
  43   7    -0.00   0.00   0.00     0.00  -0.00   0.00    -0.00   0.00  -0.00
  44   1    -0.00   0.00  -0.00    -0.00   0.00  -0.00     0.00  -0.00   0.00
  45   1     0.00  -0.00   0.00    -0.00   0.00  -0.00     0.00  -0.00   0.00
  46   6    -0.00   0.00   0.00     0.00  -0.00   0.00     0.00   0.01   0.01
  47   8     0.00  -0.00  -0.00    -0.00   0.00   0.00     0.00  -0.00  -0.00
  48   7    -0.00  -0.00  -0.00    -0.01   0.00   0.00    -0.17   0.14   0.06
  49   1    -0.00   0.00   0.00     0.00  -0.01  -0.01     0.15  -0.47  -0.20
  50   1     0.00  -0.00  -0.00     0.02  -0.00  -0.00     0.49  -0.08  -0.02
  51   7     0.00   0.00   0.00    -0.00   0.00  -0.00     0.18   0.04   0.07
  52   1    -0.00   0.00  -0.00     0.01  -0.00   0.00    -0.38   0.13  -0.07
  53   1    -0.00  -0.00  -0.00     0.00   0.00   0.00    -0.29  -0.30  -0.20
                    151                    152                    153
                        a                      a                      a 
 Frequencies --  3563.5123              3563.9594              3567.4093
 Red. masses --     2.1751                 2.1773                 2.1838
 Frc consts  --     0.0000                 0.0000                 0.0000
 IR Inten    --    16.7478                 8.1899                13.6623
 Raman Activ --     0.0000                 0.0000                 0.0000
 Depolar     --     0.0000                 0.0000                 0.0000
 Atom AN      X      Y      Z        X      Y      Z        X      Y      Z
   1   8    -0.00  -0.00  -0.00     0.00  -0.00   0.00    -0.00  -0.00  -0.00
   2   6     0.00  -0.00  -0.00    -0.00  -0.00  -0.00    -0.00   0.00  -0.00
   3   1     0.00   0.00   0.00     0.00   0.00   0.00     0.00  -0.00  -0.00
   4   1    -0.00   0.00  -0.00     0.00  -0.00  -0.00    -0.00  -0.00   0.00
   5   6     0.00  -0.00  -0.00     0.00  -0.00  -0.00    -0.00   0.00   0.00
   6   1    -0.00   0.00   0.00    -0.00   0.00  -0.00     0.00  -0.00  -0.00
   7   1    -0.00   0.00  -0.00     0.00  -0.00   0.00    -0.00   0.00   0.00
   8   7     0.00   0.00  -0.00     0.00   0.00   0.00     0.00  -0.00  -0.00
   9   6     0.00   0.00  -0.00     0.00  -0.00  -0.00    -0.00   0.00   0.00
  10   1    -0.00  -0.00  -0.00    -0.00  -0.00  -0.00    -0.00   0.00   0.00
  11   1    -0.00  -0.00   0.00    -0.00   0.00   0.00    -0.00   0.00  -0.00
  12   1     0.00   0.00   0.00    -0.00   0.00  -0.00     0.00  -0.00  -0.00
  13   6     0.00  -0.00   0.00     0.00  -0.00   0.00    -0.00   0.00   0.00
  14   1    -0.00   0.00   0.00    -0.00   0.00  -0.00     0.00  -0.00   0.00
  15   1    -0.00   0.00  -0.00    -0.00  -0.00  -0.00    -0.00   0.00   0.00
  16   1    -0.00  -0.00  -0.00    -0.00  -0.00   0.00    -0.00   0.00   0.00
  17   6     0.00   0.00  -0.00     0.00   0.00  -0.00     0.00  -0.00   0.00
  18   1    -0.00   0.00  -0.00     0.00  -0.00  -0.00    -0.00   0.00  -0.00
  19   1    -0.00  -0.00   0.00     0.00  -0.00   0.00     0.00   0.00  -0.00
  20   1    -0.00  -0.00  -0.00    -0.00  -0.00  -0.00    -0.00  -0.00   0.00
  21   1     0.00   0.00   0.00    -0.00  -0.00  -0.00     0.00   0.00  -0.00
  22   6    -0.00   0.00   0.00     0.00  -0.00  -0.00     0.00  -0.00  -0.00
  23   8    -0.00   0.00   0.00    -0.00   0.00   0.00    -0.00   0.00   0.00
  24   7    -0.00   0.00  -0.00     0.00  -0.00   0.00     0.00  -0.00   0.00
  25   1     0.00  -0.00   0.00    -0.00   0.00  -0.00    -0.01   0.00  -0.01
  26   1     0.01  -0.01  -0.00    -0.00   0.00   0.00    -0.00   0.00   0.00
  27   7    -0.00   0.00   0.01     0.00  -0.00  -0.00     0.00  -0.00  -0.00
  28   1     0.01  -0.01  -0.00    -0.00   0.00   0.00    -0.00   0.00   0.00
  29   1     0.00  -0.00  -0.02    -0.00   0.00   0.00    -0.00   0.00   0.00
  30   6    -0.00   0.00   0.00    -0.00   0.00   0.00     0.01   0.01  -0.00
  31   8    -0.00  -0.00  -0.00     0.00  -0.00  -0.00    -0.00  -0.00   0.00
  32   7    -0.00  -0.00   0.00    -0.00  -0.00   0.00     0.18   0.22  -0.10
  33   1     0.00   0.00  -0.00     0.00   0.00  -0.00    -0.44  -0.24   0.48
  34   1     0.00   0.00   0.00     0.00   0.00   0.00    -0.25  -0.59  -0.11
  35   7    -0.00  -0.00  -0.00     0.00  -0.00  -0.00     0.00   0.02   0.00
  36   1     0.00   0.00   0.00     0.00   0.00  -0.00    -0.02  -0.07  -0.00
  37   1    -0.00   0.00   0.00    -0.00   0.00   0.00     0.00  -0.00  -0.01
  38   6    -0.00   0.00  -0.00    -0.01   0.01  -0.01    -0.00   0.00  -0.00
  39   8     0.00  -0.00   0.00     0.00  -0.00   0.00    -0.00  -0.00   0.00
  40   7    -0.00   0.00  -0.00     0.00   0.00  -0.02    -0.00   0.00  -0.00
  41   1     0.00  -0.00  -0.00    -0.00   0.01   0.01     0.00  -0.00  -0.00
  42   1     0.00  -0.00   0.00     0.01  -0.02   0.07     0.00  -0.00   0.00
  43   7    -0.01   0.01  -0.01    -0.15   0.15  -0.20    -0.00   0.00  -0.00
  44   1     0.01  -0.00   0.02     0.19  -0.04   0.61     0.00  -0.00   0.00
  45   1     0.01  -0.02   0.01     0.40  -0.55   0.16     0.00  -0.00   0.00
  46   6    -0.01   0.00  -0.00     0.00  -0.00   0.00    -0.00   0.00   0.00
  47   8     0.00  -0.00   0.00    -0.00   0.00  -0.00     0.00  -0.00  -0.00
  48   7    -0.14   0.12   0.05     0.01  -0.00  -0.00    -0.00  -0.00  -0.00
  49   1     0.12  -0.39  -0.16    -0.00   0.01   0.01    -0.00   0.00   0.00
  50   1     0.43  -0.07  -0.02    -0.02   0.00   0.00     0.00  -0.00   0.00
  51   7    -0.21  -0.05  -0.08     0.01   0.00   0.00    -0.00  -0.00  -0.00
  52   1     0.47  -0.17   0.08    -0.02   0.01  -0.00     0.00  -0.00   0.00
  53   1     0.33   0.34   0.23    -0.01  -0.01  -0.01     0.00   0.00   0.00
