      -----------------------------------------------------------      
     |                   =====================                   |     
     |                           x T B                           |     
     |                   =====================                   |     
     |                         S. Grimme                         |     
     |          Mulliken Center for Theoretical Chemistry        |     
     |                    University of Bonn                     |     
      -----------------------------------------------------------      

   * xtb version 6.6.1 (unknown-commit) compiled by '@Linux' on 12/27/2023

   xtb is free software: you can redistribute it and/or modify it under
   the terms of the GNU Lesser General Public License as published by
   the Free Software Foundation, either version 3 of the License, or
   (at your option) any later version.
   
   xtb is distributed in the hope that it will be useful,
   but WITHOUT ANY WARRANTY; without even the implied warranty of
   MERCHANTABILITY or FITNESS FOR A PARTICULAR PURPOSE.  See the
   GNU Lesser General Public License for more details.
   
   Cite this work as:
   * C. Bannwarth, E. Caldeweyher, S. Ehlert, A. Hansen, P. Pracht,
     J. Seibert, S. Spicher, S. Grimme, WIREs Comput. Mol. Sci., 2020, 11,
     e01493. DOI: 10.1002/wcms.1493
   
   for GFN2-xTB:
   * C. Bannwarth, S. Ehlert and S. Grimme., J. Chem. Theory Comput., 2019,
     15, 1652-1671. DOI: 10.1021/acs.jctc.8b01176
   for GFN1-xTB:
   * S. Grimme, C. Bannwarth, P. Shushkov, J. Chem. Theory Comput., 2017,
     13, 1989-2009. DOI: 10.1021/acs.jctc.7b00118
   for GFN0-xTB:
   * P. Pracht, E. Caldeweyher, S. Ehlert, S. Grimme, ChemRxiv, 2019, preprint.
     DOI: 10.26434/chemrxiv.8326202.v1
   for GFN-FF:
   * S. Spicher and S. Grimme, Angew. Chem. Int. Ed., 2020, 59, 15665-15673.
     DOI: 10.1002/anie.202004239
   
   for ALPB and GBSA implicit solvation:
   * S. Ehlert, M. Stahn, S. Spicher, S. Grimme, J. Chem. Theory Comput.,
     2021, 17, 4250-4261. DOI: 10.1021/acs.jctc.1c00471
   
   for DFT-D4:
   * E. Caldeweyher, C. Bannwarth and S. Grimme, J. Chem. Phys., 2017,
     147, 034112. DOI: 10.1063/1.4993215
   * E. Caldeweyher, S. Ehlert, A. Hansen, H. Neugebauer, S. Spicher,
     C. Bannwarth and S. Grimme, J. Chem. Phys., 2019, 150, 154122.
     DOI: 10.1063/1.5090222
   * E. Caldeweyher, J.-M. Mewes, S. Ehlert and S. Grimme, Phys. Chem. Chem. Phys.
     2020, 22, 8499-8512. DOI: 10.1039/D0CP00502A
   
   for sTDA-xTB:
   * S. Grimme and C. Bannwarth, J. Chem. Phys., 2016, 145, 054103.
     DOI: 10.1063/1.4959605
   
   in the mass-spec context:
   * V. Asgeirsson, C. Bauer and S. Grimme, Chem. Sci., 2017, 8, 4879.
     DOI: 10.1039/c7sc00601b
   * J. Koopman and S. Grimme, ACS Omega 2019, 4, 12, 15120-15133.
     DOI: 10.1021/acsomega.9b02011
   
   for metadynamics refer to:
   * S. Grimme, J. Chem. Theory Comput., 2019, 155, 2847-2862
     DOI: 10.1021/acs.jctc.9b00143
   
   for SPH calculations refer to:
   * S. Spicher and S. Grimme, J. Chem. Theory Comput., 2021, 17, 1701-1714
     DOI: 10.1021/acs.jctc.0c01306
   
   with help from (in alphabetical order)
   P. Atkinson, C. Bannwarth, F. Bohle, G. Brandenburg, E. Caldeweyher
   M. Checinski, S. Dohm, S. Ehlert, S. Ehrlich, I. Gerasimov, C. Hölzer
   A. Katbashev, J. Koopman, C. Lavigne, S. Lehtola, F. März, M. Müller,
   F. Musil, H. Neugebauer, J. Pisarek, C. Plett, P. Pracht, F. Pultar,
   J. Seibert, P. Shushkov, S. Spicher, M. Stahn, M. Steiner, T. Strunk,
   J. Stückrath, T. Rose, and J. Unsleber
   
 * started run on 2024/01/10 at 15:33:42.676     

           -------------------------------------------------
          |                Calculation Setup                |
           -------------------------------------------------

          program call               : xtb struc.xyz --gfn2 --hess
          hostname                   : swaroop
          coordinate file            : struc.xyz
          omp threads                :                     1

   ID    Z sym.   atoms
    1    8 O      1, 23, 31, 39, 47
    2    6 C      2, 5, 9, 13, 17, 22, 30, 38, 46
    3    1 H      3, 4, 6, 7, 10-12, 14-16, 18-21, 25, 26, 28, 29, 33, 34,
                  36, 37, 41, 42, 44, 45, 49, 50, 52, 53
    4    7 N      8, 24, 27, 32, 35, 40, 43, 48, 51

molecular fragmentation (1/2 indicates fragments):
11111111111111111111122222222222222222222222222222222
# atoms in fragment 1/2:    21    32
 fragment masses (1/2) :      104.17      240.22
CMA distance (Bohr)    :   5.835
constraining FC (au)   :  0.0500

           -------------------------------------------------
          |                 G F N 2 - x T B                 |
           -------------------------------------------------

        Reference                      10.1021/acs.jctc.8b01176
      * Hamiltonian:
        H0-scaling (s, p, d)           1.850000    2.230000    2.230000
        zeta-weighting                 0.500000
      * Dispersion:
        s8                             2.700000
        a1                             0.520000
        a2                             5.000000
        s9                             5.000000
      * Repulsion:
        kExp                           1.500000    1.000000
        rExp                           1.000000
      * Coulomb:
        alpha                          2.000000
        third order                    shell-resolved
        anisotropic                    true
        a3                             3.000000
        a5                             4.000000
        cn-shift                       1.200000
        cn-exp                         4.000000
        max-rad                        5.000000


          ...................................................
          :                      SETUP                      :
          :.................................................:
          :  # basis functions                 122          :
          :  # atomic orbitals                 122          :
          :  # shells                           76          :
          :  # electrons                       140          :
          :  max. iterations                   250          :
          :  Hamiltonian                  GFN2-xTB          :
          :  restarted?                      false          :
          :  GBSA solvation                  false          :
          :  PC potential                    false          :
          :  electronic temp.          300.0000000     K    :
          :  accuracy                    1.0000000          :
          :  -> integral cutoff          0.2500000E+02      :
          :  -> integral neglect         0.1000000E-07      :
          :  -> SCF convergence          0.1000000E-05 Eh   :
          :  -> wf. convergence          0.1000000E-03 e    :
          :  Broyden damping             0.4000000          :
          ...................................................

 iter      E             dE          RMSdq      gap      omega  full diag
   1    -81.5577531 -0.815578E+02  0.427E+00    5.10       0.0  T
   2    -81.8389091 -0.281156E+00  0.233E+00    5.93       1.0  T
   3    -81.8447775 -0.586838E-02  0.114E+00    5.75       1.0  T
   4    -81.8462391 -0.146160E-02  0.246E-01    5.90       1.0  T
   5    -81.8471922 -0.953114E-03  0.908E-02    5.83       1.0  T
   6    -81.8472154 -0.231776E-04  0.252E-02    5.84       1.0  T
   7    -81.8472195 -0.410263E-05  0.730E-03    5.84       1.9  T
   8    -81.8472197 -0.213360E-06  0.252E-03    5.84       5.5  T
   9    -81.8472198 -0.215941E-07  0.746E-04    5.84      18.4  T
  10    -81.8472198 -0.359223E-08  0.183E-04    5.84      75.1  T

   *** convergence criteria satisfied after 10 iterations ***

         #    Occupation            Energy/Eh            Energy/eV
      -------------------------------------------------------------
         1        2.0000           -0.8082393             -21.9933
       ...           ...                  ...                  ...
        64        2.0000           -0.4985371             -13.5659
        65        2.0000           -0.4974798             -13.5371
        66        2.0000           -0.4944700             -13.4552
        67        2.0000           -0.4902212             -13.3396
        68        2.0000           -0.4892030             -13.3119
        69        2.0000           -0.4883539             -13.2888
        70        2.0000           -0.4873665             -13.2619 (HOMO)
        71                         -0.2727351              -7.4215 (LUMO)
        72                         -0.2666717              -7.2565
        73                         -0.2664522              -7.2505
        74                         -0.2592377              -7.0542
        75                         -0.1655973              -4.5061
       ...                                ...                  ...
       122                          0.5606124              15.2550
      -------------------------------------------------------------
                  HL-Gap            0.2146314 Eh            5.8404 eV
             Fermi-level           -0.3800508 Eh          -10.3417 eV

 SCC (total)                   0 d,  0 h,  0 min,  0.090 sec
 SCC setup                      ...        0 min,  0.000 sec (  0.324%)
 Dispersion                     ...        0 min,  0.001 sec (  0.657%)
 classical contributions        ...        0 min,  0.000 sec (  0.201%)
 integral evaluation            ...        0 min,  0.008 sec (  9.285%)
 iterations                     ...        0 min,  0.052 sec ( 57.350%)
 molecular gradient             ...        0 min,  0.029 sec ( 31.850%)
 printout                       ...        0 min,  0.000 sec (  0.320%)

         :::::::::::::::::::::::::::::::::::::::::::::::::::::
         ::                     SUMMARY                     ::
         :::::::::::::::::::::::::::::::::::::::::::::::::::::
         :: total energy             -80.937940322001 Eh    ::
         :: gradient norm              0.000136150816 Eh/a0 ::
         :: HOMO-LUMO gap              5.840418284318 eV    ::
         ::.................................................::
         :: SCC energy               -81.847219756411 Eh    ::
         :: -> isotropic ES            0.295939511887 Eh    ::
         :: -> anisotropic ES         -0.032439819305 Eh    ::
         :: -> anisotropic XC          0.020324938221 Eh    ::
         :: -> dispersion             -0.046008363587 Eh    ::
         :: repulsion energy           0.907096565038 Eh    ::
         :: add. restraining           0.000000000000 Eh    ::
         :: total charge               1.000000000000 e     ::
         :::::::::::::::::::::::::::::::::::::::::::::::::::::

           ------------------------------------------------- 
          |                Numerical Hessian                |
           ------------------------------------------------- 
step length          :   0.00500
SCC accuracy         :   0.30000
Hessian scale factor :   1.00000
frozen atoms in %    :   0.00000    0
RMS gradient         :   0.00014
estimated CPU  time      0.25 min
estimated wall time      0.25 min

writing file <hessian>.

 projected vibrational frequencies (cm⁻¹)
eigval :       -0.00    -0.00    -0.00     0.00     0.00     0.00
eigval :       -7.02    22.39    29.53    32.85    37.01    43.97
eigval :       50.93    52.26    57.71    62.95    72.06    75.04
eigval :       87.24    96.05   107.47   110.52   114.10   120.52
eigval :      131.72   150.80   151.69   168.03   172.75   176.50
eigval :      198.40   237.95   252.56   266.11   284.70   290.46
eigval :      307.00   318.34   339.34   349.94   381.66   392.30
eigval :      403.66   434.36   441.21   448.37   460.00   466.24
eigval :      466.82   473.28   475.25   478.57   483.90   485.78
eigval :      503.42   509.06   520.76   542.12   544.00   560.62
eigval :      570.28   604.15   664.66   670.26   675.74   676.68
eigval :      685.47   708.41   734.20   783.66   787.10   812.33
eigval :      880.12   960.95   964.11   972.16   972.57   998.31
eigval :     1006.96  1009.90  1012.01  1013.96  1020.47  1026.97
eigval :     1028.71  1034.56  1059.12  1083.54  1086.08  1088.54
eigval :     1090.85  1105.72  1106.40  1125.22  1183.70  1220.76
eigval :     1237.65  1273.31  1311.26  1320.26  1359.53  1363.21
eigval :     1366.03  1373.12  1376.37  1395.23  1403.30  1407.35
eigval :     1422.61  1439.07  1442.64  1449.37  1452.83  1456.10
eigval :     1460.64  1461.32  1468.32  1469.64  1471.71  1478.39
eigval :     1486.59  1503.38  1508.06  1515.16  1520.23  1652.25
eigval :     1682.69  1692.29  1718.39  2908.99  2967.95  2981.37
eigval :     3002.24  3015.01  3028.11  3031.03  3042.29  3042.88
eigval :     3048.25  3059.53  3060.47  3064.54  3112.27  3131.81
eigval :     3245.48  3267.41  3288.75  3417.07  3479.16  3494.22
eigval :     3498.48  3500.86  3531.08  3531.28  3536.70  3540.51
eigval :     3558.04  3563.27  3566.73
           -------------------------------------------------
          |                Property Printout                |
           -------------------------------------------------

    * Orbital Energies and Occupations

         #    Occupation            Energy/Eh            Energy/eV
      -------------------------------------------------------------
         1        2.0000           -0.8082390             -21.9933
       ...           ...                  ...                  ...
        58        2.0000           -0.5109259             -13.9030
        59        2.0000           -0.5094966             -13.8641
        60        2.0000           -0.5046661             -13.7327
        61        2.0000           -0.5023730             -13.6703
        62        2.0000           -0.5009256             -13.6309
        63        2.0000           -0.4990055             -13.5786
        64        2.0000           -0.4985384             -13.5659
        65        2.0000           -0.4974822             -13.5372
        66        2.0000           -0.4944695             -13.4552
        67        2.0000           -0.4902224             -13.3396
        68        2.0000           -0.4892038             -13.3119
        69        2.0000           -0.4883552             -13.2888
        70        2.0000           -0.4873678             -13.2620 (HOMO)
        71                         -0.2727358              -7.4215 (LUMO)
        72                         -0.2666715              -7.2565
        73                         -0.2664538              -7.2506
        74                         -0.2592409              -7.0543
        75                         -0.1655968              -4.5061
        76                         -0.1040668              -2.8318
        77                         -0.1011921              -2.7536
        78                         -0.0910958              -2.4788
        79                         -0.0871994              -2.3728
        80                         -0.0792544              -2.1566
        81                         -0.0735793              -2.0022
       ...                                ...                  ...
       122                          0.5606110              15.2550
      -------------------------------------------------------------
                  HL-Gap            0.2146320 Eh            5.8404 eV
             Fermi-level           -0.3800518 Eh          -10.3417 eV

     #   Z          covCN         q      C6AA      α(0)
     1   8 O        1.653    -0.463    22.112     6.348
     2   6 C        3.672     0.074    19.580     6.342
     3   1 H        0.924     0.051     2.305     2.374
     4   1 H        0.924     0.041     2.436     2.441
     5   6 C        3.772    -0.084    22.131     6.704
     6   1 H        0.924     0.129     1.540     1.941
     7   1 H        0.924     0.117     1.636     2.000
     8   7 N        3.624     0.154    18.634     6.411
     9   6 C        3.740    -0.117    22.828     6.817
    10   1 H        0.925     0.130     1.537     1.939
    11   1 H        0.925     0.085     1.933     2.174
    12   1 H        0.925     0.107     1.719     2.050
    13   6 C        3.721    -0.110    22.732     6.810
    14   1 H        0.925     0.083     1.947     2.182
    15   1 H        0.925     0.085     1.931     2.173
    16   1 H        0.924     0.134     1.506     1.919
    17   6 C        3.721    -0.103    22.596     6.789
    18   1 H        0.925     0.086     1.914     2.164
    19   1 H        0.925     0.120     1.616     1.988
    20   1 H        0.925     0.085     1.929     2.172
    21   1 H        0.802     0.342     0.608     1.225
    22   6 C        2.675     0.343    21.170     7.529
    23   8 O        0.860    -0.541    24.715     6.665
    24   7 N        2.645    -0.305    27.855     7.839
    25   1 H        0.860     0.241     0.920     1.503
    26   1 H        0.861     0.178     1.228     1.736
    27   7 N        2.645    -0.297    27.665     7.812
    28   1 H        0.861     0.181     1.209     1.723
    29   1 H        0.860     0.192     1.148     1.678
    30   6 C        2.675     0.343    21.170     7.529
    31   8 O        0.861    -0.536    24.597     6.650
    32   7 N        2.644    -0.292    27.538     7.794
    33   1 H        0.860     0.201     1.103     1.645
    34   1 H        0.860     0.185     1.188     1.708
    35   7 N        2.644    -0.300    27.722     7.820
    36   1 H        0.861     0.180     1.214     1.726
    37   1 H        0.859     0.252     0.875     1.465
    38   6 C        2.675     0.341    21.203     7.535
    39   8 O        0.860    -0.547    24.841     6.682
    40   7 N        2.644    -0.304    27.827     7.835
    41   1 H        0.860     0.238     0.933     1.513
    42   1 H        0.860     0.181     1.210     1.723
    43   7 N        2.645    -0.289    27.460     7.783
    44   1 H        0.861     0.186     1.183     1.704
    45   1 H        0.860     0.199     1.111     1.651
    46   6 C        2.675     0.341    21.200     7.534
    47   8 O        0.860    -0.520    24.230     6.600
    48   7 N        2.644    -0.317    28.153     7.880
    49   1 H        0.860     0.240     0.924     1.506
    50   1 H        0.860     0.207     1.072     1.622
    51   7 N        2.644    -0.303    27.810     7.832
    52   1 H        0.860     0.184     1.194     1.712
    53   1 H        0.860     0.196     1.127     1.663

 Mol. C6AA /au·bohr⁶  :      21796.611418
 Mol. C8AA /au·bohr⁸  :     454532.071375
 Mol. α(0) /au        :        220.555776


Wiberg/Mayer (AO) data.
largest (>0.10) Wiberg bond orders for each atom

 ---------------------------------------------------------------------------
     #   Z sym  total        # sym  WBO       # sym  WBO       # sym  WBO
 ---------------------------------------------------------------------------
     1   8 O    1.984 --     2 C    1.015    21 H    0.810
     2   6 C    3.965 --     1 O    1.015     5 C    0.989     4 H    0.971
                             3 H    0.964
     3   1 H    0.997 --     2 C    0.964
     4   1 H    0.998 --     2 C    0.971
     5   6 C    3.912 --     2 C    0.989     7 H    0.957     6 H    0.939
                             8 N    0.931
     6   1 H    0.983 --     5 C    0.939
     7   1 H    0.986 --     5 C    0.957
     8   7 N    3.820 --    17 C    0.962    13 C    0.960     9 C    0.953
                             5 C    0.931
     9   6 C    3.917 --    11 H    0.977    12 H    0.972    10 H    0.957
                             8 N    0.953
    10   1 H    0.983 --     9 C    0.957
    11   1 H    0.992 --     9 C    0.977
    12   1 H    0.988 --     9 C    0.972
    13   6 C    3.925 --    15 H    0.978    14 H    0.977     8 N    0.960
                            16 H    0.955
    14   1 H    0.993 --    13 C    0.977
    15   1 H    0.993 --    13 C    0.978
    16   1 H    0.982 --    13 C    0.955
    17   6 C    3.932 --    20 H    0.977    18 H    0.973    19 H    0.963
                             8 N    0.962
    18   1 H    0.993 --    17 C    0.973
    19   1 H    0.986 --    17 C    0.963
    20   1 H    0.993 --    17 C    0.977
    21   1 H    0.883 --     1 O    0.810
    22   6 C    3.959 --    23 O    1.511    24 N    1.250    27 N    1.190
    23   8 O    1.876 --    22 C    1.511    24 N    0.147    27 N    0.134
    24   7 N    3.339 --    22 C    1.250    26 H    0.949    25 H    0.877
                            23 O    0.147
    25   1 H    0.942 --    24 N    0.877
    26   1 H    0.968 --    24 N    0.949
    27   7 N    3.304 --    22 C    1.190    28 H    0.948    29 H    0.946
                            23 O    0.134
    28   1 H    0.967 --    27 N    0.948
    29   1 H    0.963 --    27 N    0.946
    30   6 C    3.960 --    31 O    1.461    35 N    1.283    32 N    1.205
    31   8 O    1.916 --    30 C    1.461    35 N    0.142    32 N    0.125
    32   7 N    3.315 --    30 C    1.205    34 H    0.947    33 H    0.942
                            31 O    0.125
    33   1 H    0.960 --    32 N    0.942
    34   1 H    0.966 --    32 N    0.947
    35   7 N    3.362 --    30 C    1.283    36 H    0.948    37 H    0.856
                            31 O    0.142
    36   1 H    0.967 --    35 N    0.948
    37   1 H    0.936 --    35 N    0.856
    38   6 C    3.959 --    39 O    1.485    40 N    1.251    43 N    1.212
    39   8 O    1.867 --    38 C    1.485    40 N    0.142    43 N    0.133
    40   7 N    3.341 --    38 C    1.251    42 H    0.948    41 H    0.882
                            39 O    0.142
    41   1 H    0.944 --    40 N    0.882
    42   1 H    0.967 --    40 N    0.948
    43   7 N    3.328 --    38 C    1.212    44 H    0.947    45 H    0.943
                            39 O    0.133
    44   1 H    0.965 --    43 N    0.947
    45   1 H    0.960 --    43 N    0.943
    46   6 C    3.959 --    47 O    1.481    48 N    1.280    51 N    1.183
    47   8 O    1.939 --    46 C    1.481    48 N    0.146    51 N    0.121
    48   7 N    3.352 --    46 C    1.280    50 H    0.911    49 H    0.872
                            47 O    0.146
    49   1 H    0.943 --    48 N    0.872
    50   1 H    0.957 --    48 N    0.911
    51   7 N    3.288 --    46 C    1.183    52 H    0.947    53 H    0.944
                            47 O    0.121
    52   1 H    0.966 --    51 N    0.947
    53   1 H    0.961 --    51 N    0.944
 ---------------------------------------------------------------------------

Topologies differ in total number of bonds
Writing topology from bond orders to xtbtopo.mol

molecular dipole:
                 x           y           z       tot (Debye)
 q only:        0.453      -1.597      -0.639
   full:        0.431      -1.130      -0.462       3.292
molecular quadrupole (traceless):
                xx          xy          yy          xz          yz          zz
 q only:       13.405      11.509       9.960      -8.734      -6.126     -23.366
  q+dip:       17.277      15.831      10.082     -11.281      -9.296     -27.360
   full:       17.354      14.991      10.263     -11.383      -8.873     -27.617

           -------------------------------------------------
          |               Frequency Printout                |
           -------------------------------------------------
 projected vibrational frequencies (cm⁻¹)
eigval :       -0.00    -0.00    -0.00     0.00     0.00     0.00
eigval :       -7.02    22.39    29.53    32.85    37.01    43.97
eigval :       50.93    52.26    57.71    62.95    72.06    75.04
eigval :       87.24    96.05   107.47   110.52   114.10   120.52
eigval :      131.72   150.80   151.69   168.03   172.75   176.50
eigval :      198.40   237.95   252.56   266.11   284.70   290.46
eigval :      307.00   318.34   339.34   349.94   381.66   392.30
eigval :      403.66   434.36   441.21   448.37   460.00   466.24
eigval :      466.82   473.28   475.25   478.57   483.90   485.78
eigval :      503.42   509.06   520.76   542.12   544.00   560.62
eigval :      570.28   604.15   664.66   670.26   675.74   676.68
eigval :      685.47   708.41   734.20   783.66   787.10   812.33
eigval :      880.12   960.95   964.11   972.16   972.57   998.31
eigval :     1006.96  1009.90  1012.01  1013.96  1020.47  1026.97
eigval :     1028.71  1034.56  1059.12  1083.54  1086.08  1088.54
eigval :     1090.85  1105.72  1106.40  1125.22  1183.70  1220.76
eigval :     1237.65  1273.31  1311.26  1320.26  1359.53  1363.21
eigval :     1366.03  1373.12  1376.37  1395.23  1403.30  1407.35
eigval :     1422.61  1439.07  1442.64  1449.37  1452.83  1456.10
eigval :     1460.64  1461.32  1468.32  1469.64  1471.71  1478.39
eigval :     1486.59  1503.38  1508.06  1515.16  1520.23  1652.25
eigval :     1682.69  1692.29  1718.39  2908.99  2967.95  2981.37
eigval :     3002.24  3015.01  3028.11  3031.03  3042.29  3042.88
eigval :     3048.25  3059.53  3060.47  3064.54  3112.27  3131.81
eigval :     3245.48  3267.41  3288.75  3417.07  3479.16  3494.22
eigval :     3498.48  3500.86  3531.08  3531.28  3536.70  3540.51
eigval :     3558.04  3563.27  3566.73
 reduced masses (amu)
   1: 12.52   2: 12.73   3: 12.30   4: 12.79   5: 12.53   6: 12.11   7: 12.27   8: 11.94
   9: 12.41  10: 12.39  11: 11.43  12: 12.13  13: 12.46  14: 12.07  15: 12.47  16: 12.39
  17: 12.34  18: 13.01  19: 12.06  20: 11.86  21: 12.60  22: 13.14  23: 12.66  24: 11.89
  25: 12.45  26: 13.27  27: 11.13  28: 11.49  29: 13.07  30: 12.30  31: 13.28  32:  6.74
  33:  6.42  34:  8.29  35:  5.34  36:  2.79  37:  1.65  38:  2.52  39:  8.79  40:  2.60
  41:  8.58  42:  8.77  43:  3.53  44:  3.08  45:  2.04  46:  2.83  47:  3.29  48:  6.55
  49:  6.34  50:  5.55  51:  7.74  52:  7.26  53:  3.92  54:  8.67  55:  9.09  56:  4.28
  57:  9.08  58: 11.33  59: 11.41  60: 10.81  61: 11.63  62:  3.74  63:  9.93  64:  9.78
  65: 11.08  66: 10.84  67:  3.73  68:  3.95  69:  2.34  70:  2.38  71:  7.00  72:  3.32
  73:  5.30  74:  4.98  75:  4.83  76:  8.55  77:  4.79  78:  4.55  79:  8.06  80:  8.09
  81:  8.56  82:  7.59  83:  9.64  84:  9.79  85:  6.61  86:  3.02  87:  7.71  88:  9.55
  89:  9.48  90:  8.98  91:  9.13  92:  7.12  93:  4.49  94:  6.07  95:  2.82  96:  4.24
  97:  7.72  98:  8.26  99:  3.88 100:  5.65 101:  5.43 102:  4.96 103:  5.26 104:  3.94
 105:  3.81 106:  4.79 107:  2.53 108:  2.53 109:  2.27 110:  2.39 111:  1.61 112:  3.37
 113:  1.84 114:  1.94 115:  3.06 116:  2.93 117:  2.63 118:  1.71 119:  1.85 120:  1.64
 121:  1.73 122:  8.31 123:  8.31 124:  8.76 125:  9.54 126: 12.40 127: 12.64 128: 12.65
 129: 12.68 130:  1.80 131:  1.63 132:  1.77 133:  1.78 134:  1.73 135:  1.67 136:  1.74
 137:  1.76 138:  1.80 139:  1.73 140:  1.72 141:  1.75 142:  1.68 143:  1.87 144:  1.87
 145:  1.78 146:  1.78 147:  1.76 148:  1.92 149:  1.46 150:  1.45 151:  1.45 152:  1.45
 153:  1.90 154:  1.91 155:  1.90 156:  2.17 157:  2.17 158:  2.17 159:  2.18
 IR intensities (km·mol⁻¹)
   1:  1.10   2:  0.83   3:  2.30   4:  2.24   5:  1.50   6:  0.97   7:  0.02   8:  2.98
   9:  1.43  10:  1.63  11:  2.47  12:  0.73  13:  1.35  14:  2.84  15:  1.33  16:  0.12
  17: 13.71  18:  3.19  19:  5.37  20:  1.72  21:  2.26  22:  8.99  23:  9.02  24: 12.83
  25:  3.07  26: 12.14  27:  4.01  28: 38.07  29:  5.57  30: 24.46  31: 10.44  32:  9.31
  33: 67.69  34:113.55  35:  4.81  36:135.70  37:  3.76  38:114.93  39:  2.65  40:  0.94
  41:  1.39  42:  4.13  43:227.32  44:230.03  45: 19.99  46:229.87  47:  5.80  48: 20.11
  49: 26.66  50:  5.29  51:  5.72  52: 35.54  53: 11.41  54: 17.69  55: 47.92  56:179.02
  57:  2.99  58: 12.03  59: 13.17  60:  6.62  61: 51.17  62:180.88  63: 36.40  64: 84.93
  65:  9.53  66: 82.14  67: 51.89  68: 94.48  69:190.08  70:442.49  71: 36.00  72:146.77
  73: 28.43  74:  1.61  75:  0.14  76: 31.29  77:  4.03  78:  7.76  79: 11.07  80: 21.77
  81:  7.14  82:  3.22  83:  7.58  84:  1.29  85: 31.05  86:  1.02  87:  8.92  88: 11.58
  89: 28.94  90:  2.60  91: 16.81  92:  9.11  93:  1.92  94: 10.43  95:  9.25  96: 33.80
  97:  1.71  98:  4.25  99:  3.28 100: 17.54 101:130.87 102:164.46 103: 65.45 104: 33.92
 105:133.99 106:  3.64 107: 29.50 108:  3.95 109: 15.69 110: 15.18 111:  0.50 112:  6.72
 113:  7.24 114:  8.62 115:  5.90 116: 11.68 117:  4.23 118:  8.14 119: 18.37 120: 42.76
 121:  3.86 122:468.25 123:292.08 124:789.77 125:498.13 126:109.89 127:****** 128:263.29
 129:****** 130: 46.41 131: 50.21 132: 36.44 133:  3.02 134: 24.53 135: 61.66 136: 35.35
 137:  0.78 138:  0.35 139: 17.70 140:  0.42 141:  1.80 142:  7.80 143:660.32 144:825.25
 145:****** 146:461.08 147:****** 148:279.18 149: 13.14 150: 18.09 151: 13.86 152: 21.63
 153: 16.24 154: 14.23 155: 13.82 156: 12.78 157: 15.60 158:  8.48 159: 13.96
 Raman intensities (amu)
Molecule has no symmetry elements
It seems to be the C1 point group
   1:  0.00   2:  0.00   3:  0.00   4:  0.00   5:  0.00   6:  0.00   7:  0.00   8:  0.00
   9:  0.00  10:  0.00  11:  0.00  12:  0.00  13:  0.00  14:  0.00  15:  0.00  16:  0.00
  17:  0.00  18:  0.00  19:  0.00  20:  0.00  21:  0.00  22:  0.00  23:  0.00  24:  0.00
  25:  0.00  26:  0.00  27:  0.00  28:  0.00  29:  0.00  30:  0.00  31:  0.00  32:  0.00
  33:  0.00  34:  0.00  35:  0.00  36:  0.00  37:  0.00  38:  0.00  39:  0.00  40:  0.00
  41:  0.00  42:  0.00  43:  0.00  44:  0.00  45:  0.00  46:  0.00  47:  0.00  48:  0.00
  49:  0.00  50:  0.00  51:  0.00  52:  0.00  53:  0.00  54:  0.00  55:  0.00  56:  0.00
  57:  0.00  58:  0.00  59:  0.00  60:  0.00  61:  0.00  62:  0.00  63:  0.00  64:  0.00
  65:  0.00  66:  0.00  67:  0.00  68:  0.00  69:  0.00  70:  0.00  71:  0.00  72:  0.00
  73:  0.00  74:  0.00  75:  0.00  76:  0.00  77:  0.00  78:  0.00  79:  0.00  80:  0.00
  81:  0.00  82:  0.00  83:  0.00  84:  0.00  85:  0.00  86:  0.00  87:  0.00  88:  0.00
  89:  0.00  90:  0.00  91:  0.00  92:  0.00  93:  0.00  94:  0.00  95:  0.00  96:  0.00
  97:  0.00  98:  0.00  99:  0.00 100:  0.00 101:  0.00 102:  0.00 103:  0.00 104:  0.00
 105:  0.00 106:  0.00 107:  0.00 108:  0.00 109:  0.00 110:  0.00 111:  0.00 112:  0.00
 113:  0.00 114:  0.00 115:  0.00 116:  0.00 117:  0.00 118:  0.00 119:  0.00 120:  0.00
 121:  0.00 122:  0.00 123:  0.00 124:  0.00 125:  0.00 126:  0.00 127:  0.00 128:  0.00
 129:  0.00 130:  0.00 131:  0.00 132:  0.00 133:  0.00 134:  0.00 135:  0.00 136:  0.00
 137:  0.00 138:  0.00 139:  0.00 140:  0.00 141:  0.00 142:  0.00 143:  0.00 144:  0.00
 145:  0.00 146:  0.00 147:  0.00 148:  0.00 149:  0.00 150:  0.00 151:  0.00 152:  0.00
 153:  0.00 154:  0.00 155:  0.00 156:  0.00 157:  0.00 158:  0.00 159:  0.00
 output can be read by thermo (or use thermo option).
 writing <g98.out> molden fake output.
 recommended (thermochemical) frequency scaling factor: 1.0
           -------------------------------------------------
          |             Thermodynamic Functions             |
           -------------------------------------------------

c1  symmetry found (for desy threshold:  0.10E+00) used in thermo
 inverting freq            1   7.0248666529203856     

          ...................................................
          :                      SETUP                      :
          :.................................................:
          :  # frequencies                         153      :
          :  # imaginary freq.                       0      :
          :  linear?                             false      :
          :  only rotor calc.                    false      :
          :  symmetry                               c1      :
          :  rotational number                       1      :
          :  scaling factor                  1.0000000      :
          :  rotor cutoff                   50.0000000 cm⁻¹ :
          :  imag. cutoff                  -20.0000000 cm⁻¹ :
          :.................................................:

    mode    ω/cm⁻¹     T·S(HO)/kcal·mol⁻¹    T·S(FR)/kcal·mol⁻¹   T·S(vib)
   ------------------------------------------------------------------------
       1      7.02    -2.59769 (  0.04%)    -1.63769 ( 99.96%)    -1.63806
       2     22.39    -1.91105 (  3.87%)    -1.29442 ( 96.13%)    -1.31827
       3     29.53    -1.74736 ( 10.85%)    -1.21248 ( 89.15%)    -1.27051
       4     32.85    -1.68438 ( 15.70%)    -1.18094 ( 84.30%)    -1.26001
       5     37.01    -1.61386 ( 23.09%)    -1.14561 ( 76.91%)    -1.25374
       6     43.97    -1.51214 ( 37.42%)    -1.09459 ( 62.58%)    -1.25084
       7     50.93    -1.42541 ( 51.85%)    -1.05104 ( 48.15%)    -1.24514
       8     52.26    -1.41023 ( 54.41%)    -1.04341 ( 45.59%)    -1.24300
       9     57.71    -1.35177 ( 63.97%)    -1.01402 ( 36.03%)    -1.23007
      10     62.95    -1.30068 ( 71.53%)    -0.98829 ( 28.47%)    -1.21174
      11     72.06    -1.22131 ( 81.18%)    -0.94826 ( 18.82%)    -1.16992
      12     75.04    -1.19757 ( 83.53%)    -0.93627 ( 16.47%)    -1.15454
      13     87.24    -1.10942 ( 90.26%)    -0.89163 (  9.74%)    -1.08821
      14     96.05    -1.05334 ( 93.16%)    -0.86313 (  6.84%)    -1.04033
      15    107.47    -0.98809 ( 95.52%)    -0.82985 (  4.48%)    -0.98101
      16    110.52    -0.97187 ( 95.98%)    -0.82155 (  4.02%)    -0.96583
      17    114.10    -0.95349 ( 96.44%)    -0.81213 (  3.56%)    -0.94846
      18    120.52    -0.92188 ( 97.12%)    -0.79590 (  2.88%)    -0.91826
      19    131.72    -0.87084 ( 97.97%)    -0.76958 (  2.03%)    -0.86878
      20    150.80    -0.79371 ( 98.81%)    -0.72951 (  1.19%)    -0.79295
      21    151.69    -0.79039 ( 98.83%)    -0.72777 (  1.17%)    -0.78966
      22    168.03    -0.73269 ( 99.22%)    -0.69747 (  0.78%)    -0.73241
      23    172.75    -0.71715 ( 99.30%)    -0.68925 (  0.70%)    -0.71696
      24    176.50    -0.70515 ( 99.36%)    -0.68288 (  0.64%)    -0.70500
      25    198.40    -0.64040 ( 99.60%)    -0.64825 (  0.40%)    -0.64043
      26    237.95    -0.54209 ( 99.81%)    -0.59440 (  0.19%)    -0.54219
      27    252.56    -0.51062 ( 99.85%)    -0.57674 (  0.15%)    -0.51072
      28    266.11    -0.48341 ( 99.88%)    -0.56126 (  0.12%)    -0.48351
      29    284.70    -0.44880 ( 99.90%)    -0.54126 (  0.10%)    -0.44889
      30    290.46    -0.43865 ( 99.91%)    -0.53532 (  0.09%)    -0.43874
   ------------------------------------------------------------------------

   temp. (K)  partition function   enthalpy   heat capacity  entropy
                                   cal/mol     cal/K/mol   cal/K/mol   J/K/mol
 298.15  VIB  0.701E+16            18838.398    103.887    122.992
         ROT  0.107E+08              888.752      2.981     35.149
         INT  0.751E+23            19727.150    106.868    158.140
         TR   0.618E+28             1481.254      4.968     43.384
         TOT                       21208.4043   111.8363   201.5248   843.1798

       T/K    H(0)-H(T)+PV         H(T)/Eh          T*S/Eh         G(T)/Eh
   ------------------------------------------------------------------------
    298.15    0.337977E-01    0.474227E+00    0.957509E-01    0.378476E+00
   ------------------------------------------------------------------------

         :::::::::::::::::::::::::::::::::::::::::::::::::::::
         ::                  THERMODYNAMIC                  ::
         :::::::::::::::::::::::::::::::::::::::::::::::::::::
         :: total free energy         -80.559464523050 Eh   ::
         ::.................................................::
         :: total energy              -80.937940322413 Eh   ::
         :: zero point energy           0.440428990968 Eh   ::
         :: G(RRHO) w/o ZPVE           -0.061953191605 Eh   ::
         :: G(RRHO) contrib.            0.378475799363 Eh   ::
         :::::::::::::::::::::::::::::::::::::::::::::::::::::
imag cut-off (cm-1) :    5.00
 found            1  significant imaginary frequency
 writing imag mode distorted coords to xtbhess.xyz
 for further optimization.

           -------------------------------------------------
          | TOTAL ENERGY              -80.937940322413 Eh   |
          | TOTAL ENTHALPY            -80.463713587927 Eh   |
          | TOTAL FREE ENERGY         -80.559464523050 Eh   |
          | GRADIENT NORM               0.000136132818 Eh/α |
          | HOMO-LUMO GAP               5.840435046688 eV   |
           -------------------------------------------------

------------------------------------------------------------------------
 * finished run on 2024/01/10 at 15:33:57.770     
------------------------------------------------------------------------
 total:
 * wall-time:     0 d,  0 h,  0 min, 15.093 sec
 *  cpu-time:     0 d,  0 h,  0 min, 15.028 sec
 * ratio c/w:     0.996 speedup
 SCF:
 * wall-time:     0 d,  0 h,  0 min,  0.090 sec
 *  cpu-time:     0 d,  0 h,  0 min,  0.059 sec
 * ratio c/w:     0.657 speedup
 analytical hessian:
 * wall-time:     0 d,  0 h,  0 min, 14.975 sec
 *  cpu-time:     0 d,  0 h,  0 min, 14.941 sec
 * ratio c/w:     0.998 speedup

