 Entering Gaussian System
 *********************************************
 Gaussian 98:
 frequency output generated by the xtb code
 *********************************************
                         Standard orientation:
 --------------------------------------------------------------------
  Center     Atomic     Atomic              Coordinates (Angstroms)
  Number     Number      Type              X           Y           Z
 --------------------------------------------------------------------
    1          8             0        0.708692   -0.328554   -3.490259
    2          6             0       -0.651371   -0.037755   -3.382927
    3          1             0       -0.927772    0.795615   -4.042286
    4          1             0       -1.190718   -0.923289   -3.729129
    5          6             0       -1.084649    0.366930   -1.962780
    6          1             0       -2.079539    0.812441   -2.015147
    7          1             0       -0.379839    1.114526   -1.590498
    8          7             0       -1.125404   -0.718388   -0.947069
    9          6             0        0.202019   -1.334538   -0.784050
   10          1             0        0.572484   -1.686728   -1.744192
   11          1             0        0.120526   -2.162590   -0.084010
   12          1             0        0.892505   -0.592344   -0.393761
   13          6             0       -2.092584   -1.769793   -1.294292
   14          1             0       -3.079399   -1.339808   -1.453950
   15          1             0       -2.135232   -2.482800   -0.471088
   16          1             0       -1.778704   -2.295513   -2.192494
   17          6             0       -1.521618   -0.113703    0.337984
   18          1             0       -2.518760    0.313736    0.264411
   19          1             0       -0.816483    0.671817    0.607009
   20          1             0       -1.516849   -0.875868    1.113332
   21          1             0        1.212008    0.506434   -3.439584
   22          6             0        2.164986    1.622727    0.215533
   23          8             0        0.952446    1.819627    0.089277
   24          7             0        3.009785    1.738719   -0.819513
   25          1             0        2.621044    1.909932   -1.748407
   26          1             0        3.986787    1.527659   -0.734159
   27          7             0        2.689531    1.218972    1.400996
   28          1             0        3.682370    1.252134    1.549864
   29          1             0        2.092863    1.240088    2.216546
   30          6             0        0.968461    3.297005   -3.124718
   31          8             0        1.632671    2.259599   -3.197486
   32          7             0        0.348586    3.658676   -1.985746
   33          1             0        0.527241    3.108141   -1.145366
   34          1             0       -0.098404    4.552094   -1.891542
   35          7             0        0.780023    4.084335   -4.207162
   36          1             0        0.325205    4.976958   -4.147893
   37          1             0        1.277627    3.857457   -5.050208
   38          6             0       -2.185749   -3.377574    2.337135
   39          8             0       -1.296036   -3.096428    1.525219
   40          7             0       -2.534665   -2.538751    3.321266
   41          1             0       -2.018896   -1.662965    3.437668
   42          1             0       -3.244196   -2.775912    3.989736
   43          7             0       -2.891327   -4.529325    2.224764
   44          1             0       -3.531326   -4.824475    2.939626
   45          1             0       -2.576114   -5.217962    1.564456
   46          6             0        0.345441   -0.580263    3.434495
   47          8             0       -0.845690   -0.318034    3.514397
   48          7             0        1.303573    0.254337    3.969892
   49          1             0        0.939360    0.935700    4.619228
   50          1             0        2.188806   -0.147777    4.234688
   51          7             0        0.807994   -1.645851    2.756844
   52          1             0        1.785649   -1.862570    2.702062
   53          1             0        0.132686   -2.258939    2.301798
 --------------------------------------------------------------------
     1 basis functions        1 primitive gaussians
     1 alpha electrons        1 beta electrons

 Harmonic frequencies (cm**-1), IR intensities (km*mol⁻¹),
 Raman scattering activities (A**4/amu), Raman depolarization ratios,
 reduced masses (AMU), force constants (mDyne/A) and normal coordinates:
                      1                      2                      3
                        a                      a                      a 
 Frequencies --    14.9304                25.4063                30.5462
 Red. masses --    12.2759                12.5076                12.8050
 Frc consts  --     0.0000                 0.0000                 0.0000
 IR Inten    --     1.5068                 0.5617                 0.5289
 Raman Activ --     0.0000                 0.0000                 0.0000
 Depolar     --     0.0000                 0.0000                 0.0000
 Atom AN      X      Y      Z        X      Y      Z        X      Y      Z
   1   8     0.32   0.00   0.12    -0.01  -0.01  -0.09    -0.17  -0.09  -0.22
   2   6     0.24  -0.15  -0.01    -0.01  -0.04  -0.08    -0.12   0.03  -0.10
   3   1     0.05  -0.06  -0.02    -0.01  -0.02  -0.03    -0.03   0.02  -0.02
   4   1     0.10  -0.07   0.00     0.00  -0.02  -0.02    -0.06   0.02  -0.03
   5   6     0.10  -0.12  -0.05    -0.03  -0.05  -0.09    -0.01   0.02  -0.06
   6   1     0.03  -0.05  -0.04    -0.01  -0.01  -0.03    -0.00   0.01   0.00
   7   1     0.01  -0.02  -0.01    -0.01  -0.01  -0.02     0.01  -0.00  -0.03
   8   7     0.09  -0.10  -0.02    -0.04  -0.06  -0.10     0.03   0.01  -0.08
   9   6     0.08  -0.07   0.05    -0.05  -0.07  -0.10     0.05   0.05  -0.10
  10   1     0.04  -0.02   0.02    -0.02  -0.03  -0.03     0.01   0.02  -0.03
  11   1     0.02  -0.01   0.02    -0.01  -0.02  -0.02     0.03   0.01  -0.03
  12   1     0.02  -0.01   0.02    -0.01  -0.02  -0.04     0.01   0.02  -0.03
  13   6     0.11  -0.11  -0.03    -0.06  -0.04  -0.09     0.06  -0.02  -0.07
  14   1     0.03  -0.04  -0.02    -0.01  -0.01  -0.02     0.01  -0.01  -0.02
  15   1     0.03  -0.03  -0.00    -0.02  -0.01  -0.03     0.02  -0.00  -0.02
  16   1     0.04  -0.04  -0.00    -0.02  -0.01  -0.03     0.02  -0.00  -0.02
  17   6     0.02  -0.06  -0.06    -0.02  -0.05  -0.09     0.04  -0.01  -0.06
  18   1     0.01  -0.02  -0.03    -0.00  -0.00  -0.02     0.01  -0.01  -0.01
  19   1     0.00  -0.01  -0.01     0.00  -0.02  -0.02     0.01  -0.00  -0.02
  20   1    -0.00  -0.01  -0.01    -0.01  -0.02  -0.03     0.02  -0.01  -0.02
  21   1     0.05   0.02   0.02    -0.01   0.00  -0.01    -0.02  -0.04  -0.03
  22   6     0.04   0.01  -0.05     0.08  -0.20  -0.01     0.09   0.07   0.16
  23   8     0.03  -0.07  -0.02     0.08  -0.22   0.06     0.08  -0.08   0.16
  24   7     0.02   0.16  -0.06     0.02  -0.25  -0.06     0.09   0.11   0.17
  25   1    -0.00   0.05  -0.01    -0.01  -0.05  -0.01     0.02  -0.00   0.04
  26   1     0.01   0.05  -0.03     0.01  -0.06  -0.03     0.03   0.06   0.05
  27   7     0.09  -0.06  -0.10     0.14  -0.19  -0.03     0.14   0.24   0.21
  28   1     0.02  -0.00  -0.03     0.04  -0.06  -0.02     0.04   0.09   0.06
  29   1     0.03  -0.04  -0.02     0.05  -0.04   0.00     0.03   0.04   0.05
  30   6    -0.15   0.09   0.05    -0.04   0.04   0.18    -0.10  -0.20   0.12
  31   8    -0.08   0.18  -0.01    -0.10   0.02   0.07    -0.06  -0.19   0.18
  32   7    -0.18  -0.02   0.09    -0.00  -0.06   0.25    -0.05  -0.16   0.14
  33   1    -0.03  -0.01   0.02     0.01  -0.04   0.05     0.00  -0.03   0.04
  34   1    -0.07  -0.02   0.04     0.02  -0.01   0.10    -0.03  -0.05   0.03
  35   7    -0.26   0.14   0.10    -0.02   0.18   0.29    -0.25  -0.32   0.07
  36   1    -0.09   0.03   0.04    -0.00   0.05   0.11    -0.07  -0.09   0.01
  37   1    -0.07   0.06   0.02    -0.02   0.07   0.07    -0.07  -0.09   0.02
  38   6    -0.16   0.10   0.05     0.09   0.03   0.02    -0.02   0.11  -0.10
  39   8    -0.15  -0.01   0.06     0.08   0.04   0.01     0.04   0.06  -0.07
  40   7    -0.11   0.18   0.02    -0.00   0.10  -0.07    -0.02   0.14  -0.13
  41   1    -0.01   0.04  -0.00    -0.01   0.04  -0.03     0.01   0.03  -0.03
  42   1    -0.04   0.07   0.01     0.01   0.02  -0.01    -0.02   0.05  -0.04
  43   7    -0.28   0.17   0.10     0.22  -0.05   0.14    -0.09   0.16  -0.14
  44   1    -0.09   0.07   0.03     0.06  -0.01   0.04    -0.04   0.05  -0.04
  45   1    -0.09   0.03   0.03     0.07  -0.02   0.05    -0.02   0.04  -0.03
  46   6     0.06  -0.06  -0.05    -0.08   0.20  -0.06     0.07   0.01  -0.01
  47   8     0.09   0.04  -0.06    -0.10   0.20  -0.14     0.08   0.05  -0.03
  48   7     0.14  -0.11  -0.11    -0.13   0.26  -0.07     0.08  -0.04   0.05
  49   1     0.05  -0.01  -0.04    -0.05   0.08  -0.04     0.02  -0.02   0.02
  50   1     0.03  -0.04  -0.03    -0.04   0.07   0.02     0.02  -0.02   0.01
  51   7    -0.03  -0.13  -0.01    -0.03   0.18   0.02     0.06   0.04  -0.06
  52   1    -0.01  -0.06   0.00    -0.00   0.07   0.01     0.01   0.00  -0.01
  53   1    -0.02  -0.03   0.01     0.00   0.04  -0.00     0.01   0.01  -0.02
                      4                      5                      6
                        a                      a                      a 
 Frequencies --    39.0877                40.8067                45.9079
 Red. masses --    12.1015                12.4224                12.6063
 Frc consts  --     0.0000                 0.0000                 0.0000
 IR Inten    --     1.4022                 0.8163                 2.7007
 Raman Activ --     0.0000                 0.0000                 0.0000
 Depolar     --     0.0000                 0.0000                 0.0000
 Atom AN      X      Y      Z        X      Y      Z        X      Y      Z
   1   8     0.07   0.00   0.05    -0.08  -0.05  -0.14     0.09  -0.06   0.01
   2   6     0.06   0.03   0.06    -0.08  -0.09  -0.07     0.07  -0.09  -0.04
   3   1     0.02   0.01   0.02    -0.04  -0.03  -0.02     0.02  -0.04  -0.03
   4   1     0.01   0.01   0.02    -0.02  -0.03  -0.01     0.03  -0.04  -0.01
   5   6     0.10   0.05   0.07    -0.04  -0.10  -0.05     0.02  -0.04  -0.07
   6   1     0.03   0.02   0.02    -0.02  -0.04  -0.00     0.01  -0.01  -0.03
   7   1     0.04   0.01   0.01    -0.02  -0.02  -0.03     0.00  -0.01  -0.02
   8   7     0.10   0.07   0.08     0.06  -0.10  -0.05    -0.02  -0.01  -0.04
   9   6     0.07   0.01   0.05     0.09  -0.02  -0.07    -0.03  -0.04  -0.01
  10   1     0.01  -0.00   0.01     0.03  -0.00  -0.02    -0.01  -0.02  -0.00
  11   1     0.02   0.01   0.02     0.05  -0.00  -0.02    -0.02  -0.00   0.00
  12   1     0.03  -0.00   0.01     0.02   0.01  -0.03    -0.01  -0.01  -0.01
  13   6     0.05   0.09   0.10     0.11  -0.16  -0.02    -0.04   0.01  -0.02
  14   1     0.02   0.04   0.04     0.02  -0.06  -0.00    -0.01   0.01  -0.01
  15   1     0.01   0.03   0.03     0.05  -0.04  -0.00    -0.02   0.01   0.00
  16   1     0.00   0.02   0.03     0.04  -0.04  -0.00    -0.02  -0.01  -0.00
  17   6     0.13   0.08   0.08     0.05  -0.11  -0.04    -0.01   0.04  -0.06
  18   1     0.04   0.03   0.03     0.00  -0.06  -0.00     0.00   0.02  -0.02
  19   1     0.04   0.02   0.01    -0.00  -0.02  -0.02     0.00   0.00  -0.02
  20   1     0.04   0.03   0.03     0.04  -0.03  -0.01    -0.01   0.02  -0.01
  21   1     0.02   0.00  -0.00    -0.03  -0.01  -0.03     0.01  -0.01   0.00
  22   6     0.01  -0.11  -0.05    -0.19  -0.03   0.01     0.02  -0.03  -0.01
  23   8     0.05   0.15   0.04    -0.20   0.09   0.02     0.01  -0.06  -0.00
  24   7    -0.03  -0.24  -0.09    -0.23  -0.27  -0.03    -0.00  -0.07  -0.02
  25   1    -0.01  -0.02  -0.02    -0.06  -0.06  -0.01    -0.00  -0.02  -0.01
  26   1    -0.02  -0.11  -0.04    -0.06  -0.07  -0.01     0.00  -0.01  -0.01
  27   7    -0.01  -0.32  -0.10    -0.22   0.03   0.04     0.04   0.04   0.01
  28   1     0.00  -0.13  -0.04    -0.06  -0.02   0.00     0.01   0.02   0.00
  29   1     0.01  -0.05  -0.02    -0.05   0.04   0.01     0.01   0.02   0.00
  30   6    -0.12  -0.01  -0.03     0.02   0.08   0.02    -0.02  -0.01   0.03
  31   8    -0.06   0.03  -0.01    -0.14  -0.02  -0.01    -0.03  -0.01   0.01
  32   7     0.05   0.10   0.02    -0.03   0.08  -0.01    -0.04  -0.05   0.04
  33   1     0.03   0.04   0.01    -0.04   0.01  -0.01    -0.01  -0.02   0.01
  34   1    -0.02   0.01  -0.01     0.03   0.04   0.00    -0.01  -0.01   0.02
  35   7    -0.39  -0.18  -0.12     0.28   0.22   0.07     0.00   0.04   0.07
  36   1    -0.09  -0.04  -0.03     0.09   0.07   0.02    -0.00   0.01   0.02
  37   1    -0.11  -0.05  -0.04     0.07   0.05   0.02    -0.00   0.02   0.02
  38   6     0.03   0.03  -0.14     0.02   0.12  -0.04     0.01  -0.01   0.00
  39   8     0.17   0.02  -0.01     0.15   0.02   0.06    -0.07   0.13  -0.04
  40   7    -0.06  -0.00  -0.16    -0.00   0.17  -0.09     0.38  -0.35   0.42
  41   1    -0.01  -0.01  -0.01     0.02   0.03  -0.01     0.07  -0.08   0.11
  42   1    -0.05   0.00  -0.07    -0.03   0.07  -0.05     0.07  -0.09   0.08
  43   7    -0.03   0.08  -0.32    -0.11   0.21  -0.13    -0.25   0.18  -0.34
  44   1    -0.03   0.02  -0.11    -0.05   0.07  -0.05    -0.02  -0.01  -0.07
  45   1     0.01   0.02  -0.07    -0.02   0.04  -0.02    -0.10   0.08  -0.14
  46   6    -0.04   0.03   0.11     0.12  -0.01   0.12    -0.02   0.09   0.03
  47   8    -0.06  -0.01   0.05     0.15   0.02   0.11    -0.04  -0.02   0.21
  48   7    -0.10   0.12   0.10     0.13  -0.06   0.20    -0.03   0.13  -0.02
  49   1    -0.04   0.04   0.01     0.04  -0.02   0.06    -0.00   0.02   0.02
  50   1    -0.03   0.04   0.05     0.04  -0.02   0.04     0.00   0.05  -0.03
  51   7     0.03  -0.00   0.23     0.13   0.01   0.09    -0.02   0.20  -0.12
  52   1     0.01   0.02   0.07     0.03  -0.01   0.04    -0.00   0.07  -0.07
  53   1     0.02  -0.01   0.05     0.03   0.01   0.02    -0.01   0.04  -0.02
                      7                      8                      9
                        a                      a                      a 
 Frequencies --    50.1891                54.6626                60.7887
 Red. masses --    12.1384                11.8349                12.4819
 Frc consts  --     0.0000                 0.0000                 0.0000
 IR Inten    --     3.8462                 3.5249                 2.8470
 Raman Activ --     0.0000                 0.0000                 0.0000
 Depolar     --     0.0000                 0.0000                 0.0000
 Atom AN      X      Y      Z        X      Y      Z        X      Y      Z
   1   8    -0.20  -0.01   0.02     0.17  -0.10   0.26    -0.06   0.26  -0.05
   2   6    -0.17  -0.03   0.10     0.12  -0.15   0.04    -0.05   0.22  -0.01
   3   1    -0.06  -0.01   0.04     0.04  -0.07  -0.02    -0.01   0.09   0.03
   4   1    -0.05  -0.01   0.03     0.06  -0.06   0.02    -0.02   0.08  -0.04
   5   6    -0.09  -0.06   0.13    -0.07  -0.03  -0.05    -0.06   0.03   0.03
   6   1    -0.03  -0.03   0.06    -0.02  -0.00  -0.06    -0.02   0.00   0.03
   7   1    -0.03  -0.01   0.03    -0.03  -0.01  -0.01    -0.02   0.00   0.04
   8   7     0.01  -0.07   0.13    -0.22   0.05   0.02    -0.03  -0.09  -0.10
   9   6     0.05   0.00   0.06    -0.27  -0.07   0.10    -0.02  -0.08  -0.16
  10   1     0.00   0.00   0.01    -0.08  -0.05   0.04    -0.01  -0.01  -0.05
  11   1     0.04   0.00   0.02    -0.11  -0.00   0.05     0.00  -0.03  -0.05
  12   1     0.01   0.01   0.00    -0.06  -0.03   0.02    -0.00  -0.02  -0.04
  13   6     0.05  -0.12   0.16    -0.31   0.13   0.06    -0.01  -0.07  -0.19
  14   1     0.00  -0.05   0.06    -0.08   0.06   0.03    -0.01  -0.02  -0.05
  15   1     0.04  -0.04   0.04    -0.10   0.04   0.02    -0.00  -0.04  -0.08
  16   1     0.01  -0.02   0.04    -0.11   0.03   0.01     0.00   0.01  -0.07
  17   6     0.04  -0.09   0.14    -0.18   0.16  -0.02    -0.02  -0.23  -0.02
  18   1     0.01  -0.04   0.06    -0.04   0.07  -0.02    -0.01  -0.07   0.01
  19   1     0.01  -0.02   0.03    -0.03   0.04  -0.02    -0.01  -0.07   0.02
  20   1     0.03  -0.03   0.04    -0.07   0.06   0.01     0.00  -0.09  -0.03
  21   1    -0.05  -0.00   0.00     0.03  -0.02   0.05    -0.01   0.06   0.00
  22   6     0.13   0.06  -0.08    -0.02  -0.01   0.02    -0.00  -0.08  -0.02
  23   8     0.12  -0.11  -0.08    -0.04  -0.11  -0.02    -0.01  -0.20  -0.11
  24   7     0.12   0.24  -0.08     0.01   0.10   0.05     0.10   0.27   0.10
  25   1     0.02   0.03  -0.02     0.01   0.01   0.01     0.05   0.07   0.02
  26   1     0.04   0.08  -0.03     0.00   0.03   0.02     0.02   0.06   0.04
  27   7     0.19   0.12  -0.09    -0.03   0.00   0.02    -0.09  -0.32  -0.06
  28   1     0.05   0.07  -0.02    -0.01   0.02   0.01    -0.03  -0.05   0.01
  29   1     0.05   0.00  -0.03    -0.01  -0.01   0.00    -0.04  -0.11  -0.02
  30   6     0.03   0.01  -0.00    -0.01  -0.05   0.00     0.04  -0.02  -0.06
  31   8    -0.04  -0.03  -0.06     0.05  -0.01   0.00     0.26   0.12  -0.03
  32   7    -0.05  -0.07  -0.01    -0.19  -0.19  -0.05    -0.13  -0.17  -0.11
  33   1    -0.01  -0.03  -0.01    -0.04  -0.04  -0.01    -0.01  -0.04  -0.03
  34   1     0.02  -0.00   0.02    -0.04  -0.05  -0.00    -0.07  -0.06  -0.03
  35   7     0.21   0.16   0.08     0.10   0.03   0.05    -0.03  -0.04  -0.07
  36   1     0.04   0.04   0.03    -0.01  -0.01   0.01    -0.05  -0.03  -0.02
  37   1     0.05   0.05   0.02     0.04   0.02   0.02     0.02   0.02  -0.01
  38   6    -0.04  -0.05  -0.07     0.11   0.06  -0.14     0.02   0.06   0.03
  39   8     0.15  -0.16   0.09     0.20   0.05  -0.08     0.04   0.07   0.05
  40   7    -0.08  -0.05  -0.10     0.01   0.10  -0.22     0.03   0.05   0.06
  41   1    -0.01  -0.02  -0.01     0.02   0.02  -0.04     0.01   0.01   0.02
  42   1    -0.07   0.01  -0.07     0.00   0.02  -0.06     0.01   0.01   0.01
  43   7    -0.21   0.06  -0.26     0.12   0.06  -0.19    -0.00   0.09  -0.01
  44   1    -0.08   0.03  -0.09     0.02   0.02  -0.06     0.00   0.02  -0.00
  45   1    -0.04   0.00  -0.05     0.05   0.01  -0.04     0.00   0.02  -0.00
  46   6    -0.05   0.04  -0.03     0.12  -0.01   0.03     0.01   0.03   0.17
  47   8    -0.08  -0.03  -0.09     0.13  -0.01  -0.01     0.01   0.03   0.25
  48   7    -0.11   0.22  -0.20     0.11  -0.00   0.06     0.03   0.05   0.15
  49   1    -0.05   0.09  -0.09     0.02  -0.00   0.01     0.01   0.01   0.04
  50   1    -0.03   0.08  -0.02     0.03   0.00   0.02     0.01   0.01   0.04
  51   7     0.02  -0.08   0.21     0.15  -0.02   0.07    -0.00   0.04   0.18
  52   1     0.01   0.01   0.05     0.04   0.01   0.01     0.00   0.03   0.02
  53   1     0.02  -0.04   0.06     0.04   0.00  -0.00     0.00   0.02   0.03
                     10                     11                     12
                        a                      a                      a 
 Frequencies --    66.7067                68.1057                74.0438
 Red. masses --    12.5754                12.7795                12.5963
 Frc consts  --     0.0000                 0.0000                 0.0000
 IR Inten    --     2.1236                 7.8121                 0.5752
 Raman Activ --     0.0000                 0.0000                 0.0000
 Depolar     --     0.0000                 0.0000                 0.0000
 Atom AN      X      Y      Z        X      Y      Z        X      Y      Z
   1   8    -0.06  -0.10  -0.13    -0.01  -0.13  -0.20    -0.02   0.12  -0.01
   2   6    -0.05  -0.09  -0.12    -0.02  -0.17  -0.12    -0.01   0.09   0.01
   3   1    -0.02  -0.04  -0.05    -0.03  -0.07  -0.06    -0.01   0.02   0.01
   4   1    -0.01  -0.03  -0.02     0.00  -0.07   0.00    -0.00   0.02   0.01
   5   6    -0.04   0.01  -0.15     0.05  -0.04  -0.14    -0.00   0.08   0.02
   6   1    -0.02  -0.01  -0.05     0.02  -0.01  -0.04    -0.01   0.01   0.01
   7   1    -0.02   0.02  -0.06     0.02  -0.01  -0.07    -0.01   0.04  -0.00
   8   7    -0.01   0.09  -0.07     0.07   0.05  -0.04     0.08   0.11   0.04
   9   6     0.02   0.16   0.01     0.04  -0.03  -0.12     0.11   0.18   0.04
  10   1     0.02   0.03   0.01    -0.02  -0.04  -0.04     0.04   0.06   0.01
  11   1     0.01   0.06   0.02     0.02   0.01  -0.01     0.05   0.05   0.01
  12   1    -0.01   0.06  -0.01     0.04  -0.01  -0.08     0.02   0.06   0.01
  13   6     0.05   0.01  -0.00    -0.04   0.09   0.13     0.14   0.03   0.07
  14   1     0.01  -0.02  -0.02    -0.01   0.04   0.06     0.03  -0.01   0.02
  15   1     0.02   0.02   0.02     0.00   0.04   0.05     0.05   0.01   0.02
  16   1     0.03  -0.01   0.01    -0.05   0.01   0.03     0.05   0.01   0.02
  17   6    -0.06   0.16  -0.11     0.22   0.16  -0.05     0.05   0.10   0.03
  18   1    -0.02   0.03  -0.05     0.08   0.08  -0.00     0.01   0.02   0.00
  19   1    -0.03   0.06  -0.04     0.09   0.03  -0.04     0.01   0.04   0.01
  20   1    -0.01   0.06  -0.02     0.05   0.06  -0.00     0.02   0.03   0.01
  21   1    -0.01  -0.03  -0.02    -0.01  -0.03  -0.04    -0.00   0.03  -0.00
  22   6    -0.03   0.02   0.03     0.09   0.06  -0.06     0.05  -0.04   0.02
  23   8    -0.02   0.10   0.04     0.10   0.04  -0.05     0.08   0.14   0.09
  24   7     0.02   0.26   0.09     0.10   0.19  -0.05     0.01  -0.31  -0.04
  25   1     0.00   0.06   0.02     0.02   0.03  -0.01     0.00  -0.05  -0.01
  26   1    -0.01   0.01   0.01     0.02   0.04  -0.02    -0.00  -0.09  -0.02
  27   7    -0.07  -0.29  -0.05     0.10  -0.03  -0.09     0.06  -0.01   0.03
  28   1    -0.02  -0.09  -0.01     0.03   0.01  -0.02     0.02  -0.04  -0.00
  29   1    -0.02  -0.10  -0.01     0.02  -0.01  -0.02     0.03   0.03   0.01
  30   6    -0.01  -0.02   0.04    -0.06   0.01   0.01    -0.07  -0.08  -0.04
  31   8    -0.11  -0.09   0.09    -0.17  -0.04   0.02     0.13   0.04  -0.02
  32   7    -0.01   0.05   0.02    -0.15  -0.00  -0.02    -0.56  -0.43  -0.18
  33   1    -0.01   0.02   0.01    -0.03   0.00  -0.00    -0.08  -0.07  -0.03
  34   1     0.03   0.03   0.00     0.00   0.02   0.00    -0.13  -0.10  -0.03
  35   7     0.10  -0.02   0.02     0.11   0.10   0.05     0.15   0.08   0.05
  36   1     0.04   0.00  -0.01     0.02   0.02   0.01    -0.06  -0.03  -0.00
  37   1     0.02  -0.03   0.01     0.02   0.02   0.01     0.07   0.06   0.02
  38   6     0.06   0.02   0.04    -0.05   0.01  -0.01    -0.02  -0.00   0.00
  39   8    -0.03   0.09  -0.03    -0.11   0.14  -0.02    -0.06   0.03  -0.04
  40   7     0.22  -0.09   0.20    -0.22   0.00  -0.07     0.02  -0.03   0.04
  41   1     0.03  -0.00   0.02    -0.05  -0.01   0.02    -0.00   0.00  -0.00
  42   1     0.05  -0.02   0.05    -0.02  -0.05   0.01     0.01  -0.01   0.01
  43   7     0.03   0.04   0.01     0.17  -0.13   0.04     0.01  -0.02   0.03
  44   1     0.04  -0.01   0.02     0.04  -0.05  -0.00     0.01  -0.01   0.01
  45   1    -0.01   0.02  -0.02     0.06  -0.02  -0.00    -0.01  -0.00  -0.00
  46   6    -0.01  -0.05  -0.00    -0.07  -0.06   0.19    -0.03  -0.02  -0.04
  47   8     0.01   0.13  -0.33    -0.08  -0.16   0.46    -0.03   0.03  -0.12
  48   7    -0.01  -0.05  -0.00    -0.02  -0.05   0.10    -0.04  -0.06   0.03
  49   1    -0.02   0.03  -0.06     0.01  -0.03   0.06    -0.01  -0.02   0.00
  50   1    -0.03  -0.02   0.07     0.01  -0.01  -0.01    -0.01  -0.02   0.01
  51   7    -0.01  -0.30   0.39    -0.11   0.01   0.06    -0.03  -0.02  -0.04
  52   1    -0.00  -0.10   0.13    -0.03   0.03  -0.05    -0.01  -0.02   0.02
  53   1     0.00  -0.05   0.06    -0.04   0.01   0.01    -0.01  -0.00  -0.01
                     13                     14                     15
                        a                      a                      a 
 Frequencies --    76.4793                79.7087                94.9731
 Red. masses --    12.2703                10.4564                10.9792
 Frc consts  --     0.0000                 0.0000                 0.0000
 IR Inten    --     2.1520                 2.9356                11.2901
 Raman Activ --     0.0000                 0.0000                 0.0000
 Depolar     --     0.0000                 0.0000                 0.0000
 Atom AN      X      Y      Z        X      Y      Z        X      Y      Z
   1   8     0.06   0.10  -0.05     0.02  -0.00  -0.10     0.01  -0.20  -0.02
   2   6     0.05   0.06  -0.05     0.02   0.01   0.02     0.09   0.20   0.06
   3   1     0.01   0.02  -0.01    -0.01   0.00   0.02     0.09   0.11   0.06
   4   1     0.02   0.02  -0.02    -0.00   0.00   0.02    -0.05   0.12  -0.02
   5   6     0.03   0.02  -0.04     0.15  -0.01   0.06     0.26   0.13   0.13
   6   1     0.01   0.02  -0.01     0.06   0.03   0.04     0.10   0.10   0.06
   7   1     0.02  -0.01   0.00     0.07  -0.03   0.02     0.13  -0.02   0.06
   8   7    -0.03  -0.02  -0.09     0.08  -0.05   0.02     0.06   0.02  -0.00
   9   6    -0.08  -0.14  -0.16    -0.03  -0.33  -0.21    -0.01  -0.10   0.08
  10   1    -0.05  -0.07  -0.05    -0.08  -0.12  -0.08     0.02   0.01   0.02
  11   1    -0.03  -0.03  -0.03    -0.02  -0.09  -0.06    -0.05  -0.06  -0.02
  12   1     0.01  -0.05  -0.08     0.06  -0.14  -0.10    -0.00  -0.06   0.08
  13   6    -0.14   0.09  -0.07    -0.21   0.18   0.12     0.02   0.13  -0.24
  14   1    -0.03   0.06   0.00    -0.04   0.12   0.10     0.03   0.07  -0.13
  15   1    -0.05   0.02  -0.03    -0.06   0.04   0.02    -0.06   0.03  -0.08
  16   1    -0.07   0.03  -0.04    -0.14   0.05   0.00     0.05   0.04  -0.06
  17   6     0.09  -0.03  -0.04     0.38  -0.03   0.10    -0.05  -0.10   0.02
  18   1     0.04   0.02   0.01     0.13   0.05   0.08    -0.01  -0.03  -0.00
  19   1     0.05  -0.03  -0.01     0.16  -0.05   0.01    -0.02  -0.03   0.04
  20   1     0.02  -0.02  -0.02     0.10  -0.02   0.02    -0.03  -0.05  -0.02
  21   1     0.01   0.03  -0.01     0.01  -0.00  -0.01     0.06  -0.08  -0.01
  22   6     0.03   0.03  -0.02    -0.06   0.03   0.06    -0.08   0.01   0.03
  23   8     0.02  -0.09  -0.07    -0.06   0.09   0.02    -0.10   0.04   0.12
  24   7    -0.01  -0.28  -0.09    -0.02   0.12   0.11    -0.14   0.02  -0.02
  25   1     0.00  -0.06  -0.02     0.00   0.03   0.03    -0.05  -0.00  -0.00
  26   1     0.01   0.01  -0.01    -0.01   0.01   0.03    -0.04  -0.00  -0.02
  27   7     0.08   0.47   0.09    -0.13  -0.09   0.05    -0.01  -0.03  -0.02
  28   1     0.02   0.13   0.02    -0.04  -0.03   0.02    -0.00  -0.01  -0.02
  29   1     0.01   0.13   0.02    -0.04  -0.03   0.01     0.01  -0.02   0.01
  30   6     0.00   0.04  -0.04    -0.03   0.01   0.02    -0.06  -0.07   0.03
  31   8     0.08   0.10  -0.09    -0.02   0.01   0.11    -0.19  -0.15   0.07
  32   7     0.04  -0.01  -0.00    -0.15   0.02  -0.05    -0.15  -0.02  -0.03
  33   1     0.01  -0.01  -0.01    -0.04   0.02  -0.00    -0.05   0.01   0.00
  34   1    -0.02  -0.02   0.00    -0.03   0.01  -0.03     0.00   0.01  -0.01
  35   7    -0.13   0.04  -0.02     0.08  -0.01  -0.01     0.16  -0.02   0.03
  36   1    -0.04   0.01   0.01     0.01  -0.01  -0.03     0.04  -0.00  -0.01
  37   1    -0.03   0.03  -0.01     0.04  -0.01   0.01     0.04  -0.03   0.01
  38   6    -0.00  -0.01   0.03     0.01  -0.03   0.04    -0.02   0.02  -0.02
  39   8    -0.04   0.03   0.01     0.06  -0.14   0.07    -0.07   0.09  -0.04
  40   7     0.04  -0.05   0.09     0.09  -0.00   0.05    -0.06   0.00  -0.01
  41   1     0.00  -0.01   0.01     0.01   0.01  -0.01    -0.01  -0.01   0.01
  42   1     0.01  -0.02   0.03    -0.01   0.03  -0.01     0.01  -0.02   0.02
  43   7     0.01  -0.02   0.03    -0.12   0.04   0.04     0.06  -0.03  -0.00
  44   1     0.02  -0.01   0.02    -0.03   0.03   0.02     0.02  -0.02  -0.00
  45   1    -0.00   0.00   0.00    -0.04  -0.01   0.03     0.01   0.00  -0.01
  46   6    -0.02  -0.07   0.12    -0.01   0.04  -0.12     0.05   0.02  -0.03
  47   8    -0.01   0.01  -0.05    -0.01   0.09  -0.29     0.06  -0.06   0.17
  48   7    -0.03  -0.01   0.03    -0.06   0.00   0.02     0.12   0.20  -0.39
  49   1    -0.01   0.03  -0.03    -0.03   0.00  -0.01     0.04   0.08  -0.12
  50   1    -0.01   0.00   0.03    -0.02  -0.00   0.03     0.03   0.06  -0.10
  51   7    -0.03  -0.30   0.48     0.04   0.08  -0.14     0.00  -0.12   0.15
  52   1    -0.00  -0.07   0.12     0.01  -0.01   0.03     0.01   0.03  -0.07
  53   1     0.00  -0.05   0.08     0.02   0.00  -0.02    -0.00  -0.02   0.03
                     16                     17                     18
                        a                      a                      a 
 Frequencies --   102.9961               119.9932               127.3978
 Red. masses --    11.6013                13.3115                13.5508
 Frc consts  --     0.0000                 0.0000                 0.0000
 IR Inten    --     5.4092                18.3203                 4.2069
 Raman Activ --     0.0000                 0.0000                 0.0000
 Depolar     --     0.0000                 0.0000                 0.0000
 Atom AN      X      Y      Z        X      Y      Z        X      Y      Z
   1   8    -0.03  -0.20   0.01     0.05  -0.01  -0.11     0.01  -0.01  -0.01
   2   6     0.03   0.10   0.07     0.06   0.07  -0.13     0.01  -0.02  -0.03
   3   1     0.06   0.06   0.05     0.04   0.02  -0.04     0.00  -0.01  -0.01
   4   1    -0.05   0.07  -0.00     0.00   0.03  -0.04     0.00  -0.01  -0.01
   5   6     0.16   0.06   0.12     0.04   0.11  -0.14    -0.03  -0.00  -0.04
   6   1     0.07   0.07   0.06     0.02   0.05  -0.05    -0.01  -0.01  -0.02
   7   1     0.09  -0.03   0.05     0.02   0.02  -0.04    -0.02   0.01  -0.01
   8   7     0.01  -0.02   0.03    -0.05   0.14  -0.12    -0.01   0.02  -0.02
   9   6    -0.03  -0.07   0.13    -0.06   0.12  -0.00    -0.01  -0.00  -0.04
  10   1     0.03   0.02   0.04     0.00   0.03   0.01    -0.01  -0.01  -0.01
  11   1    -0.04  -0.05  -0.00    -0.03   0.04   0.01    -0.00   0.00  -0.01
  12   1    -0.02  -0.04   0.10    -0.03   0.04   0.01     0.00  -0.00  -0.02
  13   6     0.01   0.04  -0.16    -0.03   0.12  -0.16    -0.04   0.03   0.02
  14   1     0.02   0.03  -0.10    -0.00   0.04  -0.07    -0.01   0.01   0.03
  15   1    -0.05   0.01  -0.05    -0.03   0.04  -0.04     0.01  -0.00  -0.00
  16   1     0.05   0.01  -0.03     0.01   0.03  -0.03    -0.03   0.02  -0.01
  17   6    -0.11  -0.09   0.03    -0.12   0.14  -0.15     0.03   0.03  -0.02
  18   1    -0.04  -0.04  -0.01    -0.04   0.03  -0.06     0.01   0.03  -0.00
  19   1    -0.05  -0.02   0.03    -0.04   0.05  -0.04     0.02  -0.00  -0.00
  20   1    -0.04  -0.04  -0.00    -0.03   0.05  -0.03    -0.01   0.01  -0.01
  21   1     0.03  -0.07  -0.01     0.02  -0.01  -0.02     0.00  -0.00  -0.03
  22   6     0.10   0.02  -0.10     0.04  -0.01  -0.02    -0.04   0.08   0.09
  23   8     0.10  -0.07  -0.07     0.06   0.02  -0.06    -0.06   0.18   0.33
  24   7     0.06   0.09  -0.14     0.08  -0.05  -0.00    -0.20   0.11  -0.03
  25   1    -0.00   0.00  -0.03     0.02  -0.01   0.00    -0.07   0.02  -0.00
  26   1     0.02   0.03  -0.05     0.02  -0.02   0.01    -0.06   0.00  -0.04
  27   7     0.17   0.06  -0.12     0.00  -0.00  -0.00     0.13  -0.04  -0.02
  28   1     0.05   0.05  -0.03    -0.00  -0.02   0.01     0.04  -0.03  -0.05
  29   1     0.05   0.03  -0.03    -0.01  -0.00  -0.01     0.07  -0.02   0.02
  30   6    -0.09   0.01  -0.03    -0.03   0.01   0.02     0.06  -0.04  -0.06
  31   8    -0.24  -0.08  -0.06    -0.05  -0.00   0.07     0.10  -0.03  -0.24
  32   7    -0.08   0.05  -0.04    -0.08   0.03  -0.01     0.14  -0.18   0.01
  33   1    -0.02   0.01  -0.01    -0.01   0.02   0.00     0.05  -0.05  -0.00
  34   1     0.02   0.03  -0.00    -0.00   0.02  -0.01     0.03  -0.05   0.03
  35   7     0.06   0.09   0.00     0.01  -0.02  -0.00    -0.05   0.06   0.03
  36   1     0.02   0.03  -0.00     0.00  -0.01  -0.01    -0.01   0.02   0.05
  37   1    -0.00   0.01  -0.01     0.01  -0.01   0.00    -0.02   0.05  -0.01
  38   6     0.04  -0.01  -0.04     0.01  -0.16   0.17     0.08  -0.10  -0.06
  39   8     0.02  -0.06  -0.09     0.28  -0.44   0.42     0.11  -0.36  -0.14
  40   7     0.14   0.00  -0.02    -0.08  -0.04   0.04     0.25   0.05  -0.14
  41   1     0.02   0.01  -0.03     0.01  -0.03   0.02     0.08   0.01  -0.05
  42   1     0.02   0.02  -0.01    -0.08   0.04  -0.04     0.05   0.06  -0.04
  43   7    -0.02   0.02   0.00    -0.24  -0.03   0.08    -0.11  -0.00   0.10
  44   1     0.01   0.01   0.02    -0.10   0.03   0.01    -0.03   0.05   0.05
  45   1    -0.02  -0.00   0.01    -0.03  -0.05   0.08    -0.06  -0.04   0.05
  46   6    -0.07   0.01   0.11     0.03  -0.03   0.04    -0.08   0.06   0.07
  47   8    -0.07   0.16  -0.12     0.01  -0.16   0.09    -0.06   0.23   0.24
  48   7    -0.10  -0.23   0.49    -0.04   0.08   0.03     0.09  -0.04  -0.07
  49   1    -0.03  -0.08   0.14    -0.03   0.01   0.01     0.07   0.01  -0.01
  50   1    -0.04  -0.08   0.12     0.00   0.05   0.01     0.01  -0.05  -0.04
  51   7    -0.07   0.10  -0.03     0.13   0.06  -0.03    -0.29  -0.01   0.07
  52   1    -0.03  -0.04   0.10     0.03   0.01   0.03    -0.08  -0.02  -0.02
  53   1    -0.01   0.04  -0.02     0.04  -0.03   0.04    -0.09   0.01   0.02
                     19                     20                     21
                        a                      a                      a 
 Frequencies --   128.6849               131.0954               158.0369
 Red. masses --    13.1218                12.9897                12.5748
 Frc consts  --     0.0000                 0.0000                 0.0000
 IR Inten    --     4.2215                16.5446                 2.4492
 Raman Activ --     0.0000                 0.0000                 0.0000
 Depolar     --     0.0000                 0.0000                 0.0000
 Atom AN      X      Y      Z        X      Y      Z        X      Y      Z
   1   8     0.02   0.08   0.09    -0.04  -0.09  -0.14     0.07   0.02   0.25
   2   6    -0.00  -0.01   0.03    -0.00   0.02   0.01     0.07   0.14   0.02
   3   1    -0.01  -0.01   0.00    -0.00   0.00   0.00     0.07   0.06   0.02
   4   1     0.02  -0.01   0.01    -0.03   0.01   0.02     0.01   0.06  -0.04
   5   6    -0.06  -0.02   0.01     0.16   0.09   0.03    -0.10   0.05  -0.01
   6   1    -0.03  -0.02  -0.00     0.06   0.06   0.03    -0.05  -0.03  -0.02
   7   1    -0.03   0.01   0.00     0.08   0.01  -0.01    -0.07   0.04   0.01
   8   7    -0.02  -0.02   0.02     0.13   0.15   0.09     0.00   0.02  -0.05
   9   6     0.00   0.03   0.00     0.11   0.12   0.11     0.03   0.04  -0.14
  10   1    -0.00   0.00   0.00     0.04   0.05   0.03    -0.03  -0.03  -0.04
  11   1     0.01   0.01   0.01     0.02   0.02   0.02     0.03   0.04  -0.00
  12   1    -0.00   0.02  -0.02     0.03   0.02   0.05     0.02   0.03  -0.10
  13   6     0.01  -0.05   0.04     0.11   0.15   0.12     0.01   0.01  -0.03
  14   1    -0.01  -0.03   0.03     0.04   0.05   0.02    -0.01  -0.01   0.05
  15   1     0.03  -0.03   0.00     0.02   0.06   0.05     0.05  -0.03  -0.03
  16   1    -0.00  -0.00  -0.00     0.04   0.02   0.05    -0.03   0.04  -0.04
  17   6    -0.02  -0.01   0.01     0.10   0.20   0.05     0.08  -0.04   0.00
  18   1    -0.00   0.00   0.00     0.03   0.06   0.00     0.03  -0.01   0.02
  19   1    -0.00  -0.01   0.00     0.03   0.06   0.01     0.03  -0.02   0.00
  20   1    -0.01  -0.00   0.00     0.02   0.07   0.02     0.03  -0.02  -0.01
  21   1    -0.01   0.03   0.06     0.01  -0.03  -0.05     0.03  -0.00   0.07
  22   6     0.07  -0.05  -0.06    -0.15  -0.14  -0.08    -0.06   0.14  -0.24
  23   8     0.10  -0.05  -0.28    -0.22  -0.52  -0.28    -0.06   0.28  -0.25
  24   7     0.22  -0.17   0.04    -0.08   0.03   0.02    -0.04   0.07  -0.24
  25   1     0.08  -0.03   0.01    -0.00  -0.01  -0.01    -0.01   0.01  -0.07
  26   1     0.06  -0.04   0.05    -0.00   0.10   0.04    -0.02  -0.02  -0.06
  27   7    -0.11   0.04   0.04    -0.25   0.06   0.01    -0.15   0.09  -0.25
  28   1    -0.03   0.01   0.05    -0.07   0.06   0.04    -0.04  -0.02  -0.06
  29   1    -0.06   0.02  -0.01    -0.10  -0.04  -0.02    -0.04   0.04  -0.07
  30   6    -0.07   0.05   0.08     0.02  -0.03   0.02     0.03  -0.17   0.21
  31   8    -0.12   0.02   0.36     0.08   0.01  -0.11     0.02  -0.22   0.14
  32   7    -0.20   0.26  -0.04     0.09  -0.13   0.08     0.10  -0.21   0.24
  33   1    -0.06   0.09   0.00     0.00  -0.07   0.00     0.02  -0.07   0.06
  34   1    -0.03   0.08  -0.05    -0.01  -0.06   0.04     0.02  -0.06   0.06
  35   7     0.10  -0.13  -0.08    -0.09   0.06   0.10     0.04  -0.15   0.25
  36   1     0.02  -0.03  -0.09    -0.03   0.01   0.06     0.02  -0.04   0.08
  37   1     0.04  -0.09   0.00    -0.03   0.05   0.02     0.01  -0.04   0.06
  38   6     0.07  -0.03  -0.08     0.04  -0.00  -0.00     0.02   0.03   0.02
  39   8     0.04  -0.19  -0.19     0.08  -0.05   0.01     0.05   0.03   0.05
  40   7     0.22   0.07  -0.12     0.05   0.02  -0.02     0.00   0.02   0.03
  41   1     0.07   0.02  -0.04     0.01   0.01  -0.01    -0.00   0.01   0.01
  42   1     0.06   0.04  -0.02     0.00   0.01  -0.01    -0.01   0.01  -0.00
  43   7    -0.03   0.02   0.06     0.02   0.02  -0.00     0.02   0.03  -0.01
  44   1    -0.00   0.04   0.04    -0.01   0.01  -0.01     0.00   0.01  -0.01
  45   1    -0.04  -0.02   0.02     0.00   0.00   0.00     0.01   0.01  -0.00
  46   6    -0.06   0.05   0.02    -0.04  -0.01  -0.01    -0.03  -0.03   0.01
  47   8    -0.03   0.20   0.18    -0.02   0.08   0.02    -0.04  -0.02  -0.00
  48   7     0.10  -0.03  -0.16     0.03  -0.06  -0.04    -0.04  -0.06   0.03
  49   1     0.07   0.01  -0.03     0.02  -0.02  -0.00    -0.01  -0.02   0.01
  50   1     0.03  -0.03  -0.08     0.00  -0.03  -0.02    -0.00  -0.01  -0.01
  51   7    -0.26  -0.06   0.06    -0.12  -0.02  -0.03    -0.04  -0.01  -0.03
  52   1    -0.07  -0.01  -0.04    -0.04  -0.02  -0.00    -0.01  -0.02   0.02
  53   1    -0.08   0.01   0.00    -0.04  -0.00  -0.01    -0.01  -0.01   0.00
                     22                     23                     24
                        a                      a                      a 
 Frequencies --   161.0769               168.5689               183.7450
 Red. masses --    13.3689                11.8119                12.6102
 Frc consts  --     0.0000                 0.0000                 0.0000
 IR Inten    --    14.1505                32.7438                78.7555
 Raman Activ --     0.0000                 0.0000                 0.0000
 Depolar     --     0.0000                 0.0000                 0.0000
 Atom AN      X      Y      Z        X      Y      Z        X      Y      Z
   1   8     0.01  -0.00   0.06     0.13   0.07   0.34     0.01   0.05  -0.04
   2   6     0.01   0.03   0.01     0.11   0.15   0.01     0.00  -0.02   0.00
   3   1     0.02   0.02   0.01     0.09   0.06   0.00    -0.02  -0.01  -0.00
   4   1    -0.00   0.02  -0.01     0.03   0.06  -0.04     0.01  -0.02   0.01
   5   6    -0.02  -0.00   0.01    -0.17   0.09  -0.06     0.02   0.00   0.00
   6   1    -0.01  -0.00   0.00    -0.08  -0.05  -0.05     0.01   0.00   0.00
   7   1    -0.01   0.00   0.01    -0.11   0.08   0.00     0.01  -0.00  -0.00
   8   7    -0.01  -0.02  -0.01     0.03   0.09  -0.07     0.01   0.02   0.02
   9   6    -0.01  -0.02  -0.03     0.08   0.16  -0.21     0.01   0.02   0.03
  10   1    -0.01  -0.01  -0.01    -0.03  -0.03  -0.05     0.01   0.02   0.01
  11   1     0.01   0.00  -0.00     0.07   0.10   0.01    -0.00  -0.01  -0.01
  12   1     0.00  -0.00  -0.02     0.04   0.08  -0.16    -0.00  -0.00   0.03
  13   6    -0.01  -0.02  -0.03     0.06   0.02   0.03     0.01   0.01   0.04
  14   1    -0.00  -0.00  -0.00    -0.01  -0.02   0.12     0.00   0.00   0.01
  15   1    -0.00  -0.01  -0.01     0.11  -0.03  -0.02     0.01   0.01   0.01
  16   1    -0.01   0.00  -0.01    -0.04   0.07  -0.05     0.00   0.00   0.01
  17   6    -0.00  -0.04  -0.00     0.14   0.02  -0.00    -0.00   0.03   0.01
  18   1    -0.00  -0.01   0.00     0.06   0.04   0.02     0.00   0.01  -0.00
  19   1     0.00  -0.01   0.00     0.07  -0.02   0.01     0.00   0.01   0.00
  20   1     0.00  -0.01  -0.00     0.02  -0.01  -0.02    -0.01   0.01   0.00
  21   1     0.01  -0.00   0.01     0.03   0.02   0.08    -0.00   0.01  -0.01
  22   6     0.03  -0.02   0.06    -0.04  -0.13   0.07    -0.02  -0.02  -0.03
  23   8     0.03  -0.03   0.10    -0.09  -0.39   0.16    -0.04  -0.09   0.03
  24   7    -0.00  -0.02   0.03    -0.15   0.04   0.00    -0.08   0.03  -0.06
  25   1    -0.01  -0.00   0.01    -0.07  -0.02   0.01    -0.03   0.00  -0.02
  26   1     0.00   0.00  -0.00    -0.03   0.05  -0.03    -0.02   0.02  -0.03
  27   7     0.08   0.00   0.05     0.16  -0.01   0.03     0.05  -0.01  -0.05
  28   1     0.02  -0.00   0.01     0.05   0.05  -0.02     0.01   0.05  -0.02
  29   1     0.02  -0.02   0.02     0.06  -0.04   0.02     0.02   0.03  -0.01
  30   6    -0.02   0.02  -0.06    -0.08  -0.03  -0.09     0.01  -0.00   0.03
  31   8    -0.07  -0.00  -0.05    -0.29  -0.17  -0.05     0.04   0.01   0.07
  32   7    -0.02   0.04  -0.06    -0.02   0.10  -0.09    -0.01   0.02   0.01
  33   1    -0.00   0.02  -0.01    -0.02   0.03  -0.02    -0.01   0.01   0.00
  34   1     0.01   0.02  -0.01     0.05   0.05  -0.02    -0.01  -0.00  -0.01
  35   7     0.01   0.03  -0.06     0.12  -0.03  -0.12     0.03  -0.05  -0.00
  36   1     0.01   0.01  -0.02     0.05   0.00  -0.06    -0.01  -0.02  -0.02
  37   1    -0.00  -0.00  -0.02     0.00  -0.06  -0.04     0.01  -0.02   0.00
  38   6     0.19   0.19   0.13    -0.04  -0.03  -0.00     0.06   0.11  -0.05
  39   8     0.38   0.19   0.30    -0.06  -0.02  -0.00    -0.06  -0.05  -0.28
  40   7     0.06   0.15   0.11    -0.04  -0.04   0.01     0.30   0.23  -0.08
  41   1     0.01   0.05   0.05    -0.02  -0.01  -0.00     0.11   0.05  -0.04
  42   1    -0.03   0.04  -0.02    -0.01  -0.01   0.00     0.11   0.08   0.02
  43   7     0.18   0.24  -0.10    -0.03  -0.05   0.01    -0.08   0.18   0.26
  44   1     0.02   0.05  -0.06    -0.01  -0.01   0.00     0.01   0.10   0.12
  45   1     0.10   0.07  -0.01    -0.01  -0.01  -0.00    -0.09   0.01   0.08
  46   6    -0.19  -0.18  -0.10     0.03   0.03   0.01    -0.04  -0.16   0.01
  47   8    -0.20  -0.13   0.02     0.03   0.02  -0.04    -0.12  -0.48   0.05
  48   7    -0.13  -0.23  -0.17     0.01   0.02   0.07    -0.33   0.12   0.02
  49   1    -0.02  -0.07  -0.03    -0.01   0.01   0.01    -0.16   0.01  -0.01
  50   1    -0.04  -0.08  -0.06    -0.01  -0.00   0.04    -0.05   0.12   0.01
  51   7    -0.28  -0.17  -0.16     0.06   0.04   0.01     0.20  -0.06   0.01
  52   1    -0.07  -0.03  -0.07     0.02   0.01   0.01     0.07   0.07  -0.04
  53   1    -0.09  -0.04  -0.04     0.02   0.01   0.00     0.09  -0.03  -0.02
                     25                     26                     27
                        a                      a                      a 
 Frequencies --   188.7957               213.1633               259.8902
 Red. masses --    12.3119                12.8669                 5.6182
 Frc consts  --     0.0000                 0.0000                 0.0000
 IR Inten    --    37.4407                16.3774                 8.6969
 Raman Activ --     0.0000                 0.0000                 0.0000
 Depolar     --     0.0000                 0.0000                 0.0000
 Atom AN      X      Y      Z        X      Y      Z        X      Y      Z
   1   8    -0.08  -0.34   0.24     0.18   0.56  -0.12     0.09   0.05  -0.34
   2   6    -0.01   0.07   0.02     0.07  -0.03   0.03     0.14   0.22  -0.06
   3   1     0.09   0.06   0.02    -0.10  -0.07  -0.01     0.07   0.14   0.07
   4   1    -0.06   0.07  -0.04     0.11  -0.08   0.06    -0.01   0.12  -0.10
   5   6    -0.07   0.05  -0.01     0.06  -0.02   0.03     0.11  -0.09   0.04
   6   1    -0.03  -0.01  -0.01     0.02   0.00   0.01     0.03  -0.02  -0.01
   7   1    -0.04   0.03   0.00     0.02  -0.01   0.01     0.02  -0.04   0.05
   8   7     0.01   0.02  -0.04    -0.00  -0.01   0.04    -0.05  -0.09   0.07
   9   6     0.02   0.03  -0.09    -0.01  -0.03   0.05    -0.05  -0.04   0.18
  10   1    -0.03  -0.04  -0.02     0.05   0.10  -0.01    -0.09  -0.19   0.09
  11   1     0.02   0.05   0.02    -0.03  -0.08  -0.08     0.02   0.11   0.20
  12   1     0.02   0.03  -0.09    -0.03  -0.04   0.13     0.02   0.05  -0.13
  13   6     0.04  -0.00  -0.05    -0.04   0.03   0.01    -0.02  -0.14   0.18
  14   1    -0.00  -0.01   0.03     0.01   0.03  -0.05    -0.08  -0.09   0.39
  15   1     0.05  -0.03  -0.03    -0.06   0.03   0.02     0.26  -0.20  -0.07
  16   1    -0.01   0.03  -0.04     0.01  -0.03   0.03    -0.19   0.17  -0.14
  17   6     0.06  -0.04  -0.00    -0.04  -0.01   0.03    -0.19   0.05  -0.03
  18   1     0.02  -0.00   0.01    -0.02  -0.03   0.01    -0.00   0.12  -0.09
  19   1     0.02  -0.02   0.00    -0.03   0.02   0.00     0.00  -0.06   0.05
  20   1     0.02  -0.02  -0.01     0.01   0.00   0.01    -0.20   0.01  -0.01
  21   1     0.03  -0.11   0.03    -0.04   0.20  -0.05     0.05  -0.01  -0.06
  22   6     0.08   0.02   0.09     0.03  -0.00   0.03     0.01   0.01   0.00
  23   8     0.15   0.16  -0.15     0.05   0.05  -0.07     0.01   0.03  -0.01
  24   7     0.29  -0.06   0.23     0.12   0.02   0.10     0.02  -0.00   0.01
  25   1     0.12  -0.01   0.05     0.04  -0.05   0.02     0.01   0.00   0.00
  26   1     0.07  -0.04   0.10     0.02  -0.06   0.03     0.01   0.00   0.00
  27   7    -0.23  -0.05   0.20    -0.11  -0.00   0.09    -0.02  -0.01   0.01
  28   1    -0.07  -0.06   0.11    -0.03  -0.02   0.05    -0.01  -0.02   0.00
  29   1    -0.11  -0.00   0.02    -0.05   0.01   0.01    -0.01  -0.00  -0.00
  30   6    -0.05   0.01  -0.11    -0.10  -0.15  -0.07    -0.02  -0.02  -0.01
  31   8    -0.15  -0.02  -0.32    -0.38  -0.33  -0.23    -0.05  -0.04  -0.03
  32   7     0.05  -0.09  -0.02     0.09  -0.13   0.02     0.01  -0.01   0.00
  33   1     0.04  -0.04  -0.02     0.03  -0.06  -0.01    -0.00  -0.01  -0.00
  34   1     0.05  -0.01   0.03     0.11   0.01   0.05     0.01   0.00   0.00
  35   7    -0.14   0.24   0.05     0.06   0.03   0.05     0.00   0.01   0.01
  36   1    -0.01   0.08   0.09     0.05   0.02   0.04     0.01   0.01   0.01
  37   1    -0.07   0.11  -0.02    -0.06  -0.03  -0.02    -0.01   0.00  -0.00
  38   6     0.00   0.02  -0.02     0.00   0.01  -0.01    -0.01   0.01  -0.00
  39   8    -0.04  -0.02  -0.09    -0.01   0.00  -0.02    -0.01   0.02  -0.01
  40   7     0.08   0.05  -0.03     0.01   0.01  -0.01    -0.00   0.00   0.00
  41   1     0.03   0.01  -0.01     0.00   0.00  -0.00     0.01  -0.00   0.00
  42   1     0.03   0.02   0.00     0.01   0.00   0.00     0.01  -0.01   0.01
  43   7    -0.03   0.03   0.08    -0.00   0.01   0.01     0.02  -0.00   0.00
  44   1    -0.00   0.03   0.03     0.00   0.00   0.00    -0.02   0.01  -0.02
  45   1    -0.04  -0.00   0.02    -0.01   0.00   0.00    -0.01   0.01  -0.02
  46   6     0.01  -0.03  -0.00     0.00  -0.01   0.00     0.01  -0.00  -0.00
  47   8    -0.00  -0.10   0.03     0.00  -0.01   0.01     0.00  -0.01  -0.01
  48   7    -0.05   0.06  -0.04    -0.00   0.02  -0.02     0.00  -0.00   0.00
  49   1    -0.03   0.01  -0.01    -0.00   0.00  -0.00    -0.00  -0.00   0.00
  50   1    -0.00   0.04  -0.01    -0.00   0.01  -0.00     0.00   0.00  -0.00
  51   7     0.06  -0.01  -0.00     0.01  -0.01   0.01     0.01   0.01  -0.02
  52   1     0.02   0.01  -0.00     0.00  -0.00   0.00    -0.00  -0.01   0.01
  53   1     0.02  -0.01   0.00     0.00  -0.00  -0.00    -0.00  -0.00   0.01
                     28                     29                     30
                        a                      a                      a 
 Frequencies --   276.5824               294.4663               303.3897
 Red. masses --     2.2046                 7.1351                 3.8283
 Frc consts  --     0.0000                 0.0000                 0.0000
 IR Inten    --   108.8284                 1.8218                 9.5225
 Raman Activ --     0.0000                 0.0000                 0.0000
 Depolar     --     0.0000                 0.0000                 0.0000
 Atom AN      X      Y      Z        X      Y      Z        X      Y      Z
   1   8    -0.01  -0.03  -0.01    -0.12   0.15   0.15     0.06  -0.12  -0.03
   2   6    -0.00  -0.01   0.01    -0.08   0.24  -0.06     0.11   0.26  -0.12
   3   1    -0.00  -0.01   0.00     0.03   0.13   0.04     0.14   0.17   0.05
   4   1    -0.00  -0.00   0.01    -0.05   0.11  -0.09    -0.03   0.16  -0.15
   5   6     0.00   0.00   0.01    -0.05  -0.06  -0.01    -0.10  -0.08  -0.07
   6   1    -0.00  -0.00   0.00    -0.03  -0.04   0.03    -0.05  -0.07  -0.05
   7   1    -0.00   0.01   0.00    -0.03  -0.01   0.00    -0.08   0.01   0.01
   8   7    -0.00  -0.00  -0.00     0.08  -0.10  -0.04    -0.04  -0.07  -0.01
   9   6    -0.00  -0.01  -0.00    -0.06  -0.34   0.17    -0.01  -0.05  -0.03
  10   1    -0.01  -0.03   0.00    -0.06  -0.25   0.09     0.16   0.35  -0.08
  11   1     0.00   0.01   0.02    -0.09  -0.00   0.15    -0.06  -0.26  -0.31
  12   1     0.01   0.00  -0.03     0.05  -0.11  -0.06    -0.11  -0.12   0.37
  13   6     0.00  -0.00  -0.01     0.14  -0.18   0.03    -0.07  -0.13   0.25
  14   1     0.00  -0.00  -0.01     0.08  -0.06  -0.23    -0.04  -0.06   0.14
  15   1    -0.00   0.00  -0.00    -0.11   0.08   0.11     0.05  -0.03   0.08
  16   1     0.00  -0.00  -0.00     0.19  -0.20   0.14    -0.07  -0.03   0.05
  17   6    -0.01  -0.01  -0.00     0.11   0.33  -0.23     0.05   0.10  -0.06
  18   1    -0.00  -0.00  -0.00     0.07   0.16  -0.13    -0.04  -0.09   0.03
  19   1    -0.00  -0.00  -0.00     0.08   0.07  -0.12    -0.06   0.13  -0.11
  20   1    -0.00  -0.00  -0.00    -0.04   0.17   0.01     0.15   0.08   0.03
  21   1     0.00  -0.01   0.01    -0.01   0.03   0.06     0.07  -0.06   0.02
  22   6    -0.01   0.00  -0.00    -0.00  -0.01   0.01     0.00  -0.00  -0.00
  23   8    -0.01   0.00  -0.01    -0.00  -0.01   0.01     0.00  -0.01  -0.00
  24   7    -0.01  -0.01  -0.00    -0.01   0.01   0.00     0.00   0.00   0.00
  25   1     0.00   0.01  -0.00    -0.00  -0.00   0.00    -0.00  -0.00   0.00
  26   1     0.00   0.02   0.00    -0.00   0.00  -0.00    -0.00  -0.02  -0.00
  27   7    -0.03   0.00   0.00     0.00   0.01   0.01     0.01  -0.01   0.00
  28   1    -0.01   0.00   0.01     0.00  -0.01  -0.00    -0.00   0.06   0.01
  29   1    -0.01   0.00  -0.00     0.00  -0.01   0.00     0.00   0.03   0.00
  30   6    -0.01  -0.01  -0.01    -0.01  -0.01  -0.01     0.00   0.01   0.00
  31   8     0.05   0.02  -0.03    -0.03  -0.02  -0.01     0.01   0.02   0.01
  32   7    -0.03   0.01   0.01     0.01  -0.01   0.00    -0.01   0.02  -0.00
  33   1     0.10   0.05   0.01     0.00  -0.01  -0.00     0.00   0.01  -0.00
  34   1     0.29   0.14   0.08     0.01   0.00   0.01     0.02   0.01   0.00
  35   7     0.23   0.11   0.13     0.01  -0.00  -0.00    -0.00   0.01   0.00
  36   1    -0.66  -0.33  -0.20     0.01   0.00   0.00    -0.03  -0.01  -0.01
  37   1    -0.37  -0.18  -0.16    -0.00  -0.01  -0.00    -0.01   0.00  -0.01
  38   6     0.00  -0.00   0.00     0.00  -0.01  -0.01     0.00   0.00   0.01
  39   8     0.00   0.00   0.00    -0.00  -0.01  -0.01    -0.00   0.00   0.01
  40   7    -0.00  -0.00   0.00     0.01   0.00  -0.01    -0.01  -0.01   0.01
  41   1    -0.00   0.00  -0.00     0.01  -0.00  -0.00    -0.01   0.00   0.00
  42   1    -0.00   0.00  -0.00     0.01   0.00   0.00    -0.01   0.00  -0.01
  43   7    -0.00   0.00  -0.01     0.00  -0.01   0.01    -0.02   0.01  -0.02
  44   1     0.01  -0.01   0.01    -0.00   0.00  -0.00     0.04  -0.02   0.03
  45   1     0.01  -0.00   0.00    -0.01  -0.00  -0.00     0.03  -0.01   0.02
  46   6     0.00   0.00  -0.00     0.01  -0.00   0.01    -0.00   0.01  -0.01
  47   8     0.00   0.01  -0.00     0.00  -0.01   0.01    -0.00   0.01  -0.00
  48   7     0.00  -0.00   0.00    -0.00   0.01   0.00     0.01  -0.00   0.01
  49   1     0.00  -0.00   0.00    -0.00   0.00  -0.00     0.00  -0.01   0.01
  50   1     0.00  -0.00  -0.01     0.00   0.01  -0.00    -0.00  -0.01  -0.00
  51   7    -0.00  -0.00   0.00     0.00   0.01  -0.01    -0.00  -0.03   0.05
  52   1     0.00   0.00  -0.01    -0.00  -0.02   0.02     0.01   0.06  -0.08
  53   1    -0.00   0.00  -0.00    -0.00  -0.00   0.01     0.01   0.02  -0.03
                     31                     32                     33
                        a                      a                      a 
 Frequencies --   313.8148               326.4365               330.2304
 Red. masses --     2.3422                 3.3973                 5.1473
 Frc consts  --     0.0000                 0.0000                 0.0000
 IR Inten    --    99.0269               178.3553                21.3262
 Raman Activ --     0.0000                 0.0000                 0.0000
 Depolar     --     0.0000                 0.0000                 0.0000
 Atom AN      X      Y      Z        X      Y      Z        X      Y      Z
   1   8     0.00  -0.01   0.01    -0.07   0.03   0.10    -0.14   0.07   0.19
   2   6     0.00   0.01  -0.01    -0.08  -0.07   0.01    -0.16  -0.11  -0.06
   3   1     0.01   0.01  -0.00    -0.04  -0.05  -0.02    -0.07  -0.06  -0.04
   4   1    -0.00   0.01  -0.01    -0.00  -0.04   0.03    -0.00  -0.06  -0.01
   5   6    -0.02  -0.00  -0.02    -0.01   0.01  -0.01    -0.08  -0.04  -0.08
   6   1    -0.01  -0.00  -0.01    -0.01  -0.00   0.01    -0.04  -0.04   0.01
   7   1    -0.01   0.00  -0.00     0.00   0.01  -0.02    -0.03   0.01  -0.06
   8   7    -0.01   0.00  -0.01     0.07   0.01  -0.01     0.12  -0.00  -0.05
   9   6    -0.01  -0.01  -0.01     0.03  -0.05   0.05     0.04  -0.12   0.25
  10   1     0.02   0.04  -0.01     0.04   0.03   0.01     0.14   0.11   0.07
  11   1    -0.01  -0.03  -0.04    -0.03  -0.05  -0.03    -0.09  -0.13  -0.05
  12   1    -0.01  -0.02   0.05     0.01  -0.04   0.08    -0.04  -0.10   0.29
  13   6    -0.01   0.00   0.00     0.07   0.04  -0.11     0.07   0.11  -0.24
  14   1    -0.00   0.00  -0.00     0.01   0.01   0.05    -0.02   0.04   0.18
  15   1     0.00   0.01   0.01     0.07  -0.05  -0.08     0.16  -0.14  -0.21
  16   1    -0.00  -0.00   0.00    -0.02   0.08  -0.08    -0.11   0.23  -0.23
  17   6     0.01  -0.00  -0.00     0.03   0.05  -0.04     0.14   0.07  -0.08
  18   1    -0.01  -0.02   0.01     0.09   0.18  -0.08     0.10   0.16  -0.06
  19   1    -0.01   0.01  -0.01     0.11  -0.10   0.07     0.13  -0.08   0.02
  20   1     0.03   0.00   0.00    -0.18  -0.01  -0.04    -0.09   0.00  -0.04
  21   1     0.00  -0.00   0.01    -0.03   0.02   0.01    -0.06   0.03   0.06
  22   6    -0.00  -0.01   0.00    -0.01   0.03  -0.02    -0.00  -0.02   0.00
  23   8    -0.00  -0.01   0.01     0.00   0.03  -0.02    -0.01  -0.02   0.01
  24   7    -0.00   0.00  -0.00     0.00   0.01  -0.00    -0.00   0.01   0.00
  25   1    -0.00   0.00   0.00    -0.00  -0.02  -0.01    -0.00  -0.00   0.00
  26   1     0.00   0.01  -0.00    -0.02  -0.08  -0.01    -0.00  -0.01  -0.00
  27   7     0.01   0.02  -0.00    -0.01  -0.12  -0.00     0.00   0.05   0.00
  28   1     0.00  -0.05  -0.01    -0.02   0.27   0.05     0.01  -0.09  -0.02
  29   1     0.00  -0.03   0.00    -0.00   0.14  -0.00     0.00  -0.04   0.00
  30   6     0.00   0.00   0.00     0.00  -0.01  -0.00     0.00   0.01   0.00
  31   8     0.01   0.01   0.01     0.01  -0.01  -0.01     0.01   0.02   0.01
  32   7    -0.01   0.00  -0.00     0.01  -0.01   0.00    -0.01   0.00   0.00
  33   1     0.00   0.00   0.00    -0.00  -0.00   0.00     0.01  -0.00  -0.00
  34   1     0.01   0.01   0.00    -0.01  -0.01  -0.00     0.01   0.01   0.01
  35   7     0.01  -0.00  -0.00    -0.01   0.01   0.02     0.01  -0.01  -0.01
  36   1    -0.01  -0.01  -0.01    -0.01  -0.00   0.01    -0.01  -0.01  -0.01
  37   1    -0.00  -0.01  -0.00    -0.01   0.01   0.00    -0.00  -0.01  -0.00
  38   6    -0.00  -0.01  -0.00     0.02  -0.03   0.05    -0.01   0.02  -0.01
  39   8     0.02  -0.03   0.00     0.03  -0.03   0.06    -0.01   0.02   0.00
  40   7    -0.06   0.03  -0.03    -0.07   0.01  -0.02     0.02  -0.01   0.03
  41   1     0.07  -0.05   0.06     0.03  -0.03   0.03    -0.02   0.01  -0.01
  42   1     0.24  -0.15   0.21     0.09  -0.07   0.09    -0.06   0.03  -0.05
  43   7     0.24  -0.06   0.17    -0.03   0.01  -0.00     0.02   0.00  -0.00
  44   1    -0.55   0.27  -0.40    -0.07   0.03  -0.04     0.03  -0.02   0.02
  45   1    -0.33   0.13  -0.28    -0.03   0.00  -0.02     0.03  -0.00   0.01
  46   6     0.00  -0.01   0.01     0.00   0.08  -0.11     0.01  -0.04   0.06
  47   8     0.00   0.01  -0.01    -0.01   0.04  -0.09     0.01  -0.03   0.04
  48   7    -0.02   0.02   0.00     0.02  -0.05   0.09    -0.01   0.03  -0.04
  49   1    -0.01   0.02  -0.02     0.00  -0.09   0.10    -0.00   0.04  -0.04
  50   1    -0.01   0.02   0.02    -0.02  -0.08   0.01     0.01   0.04  -0.01
  51   7    -0.01   0.02  -0.03    -0.00  -0.11   0.21     0.01   0.05  -0.09
  52   1    -0.01  -0.07   0.10     0.06   0.40  -0.55    -0.03  -0.20   0.28
  53   1    -0.01  -0.01   0.02     0.02   0.07  -0.12    -0.01  -0.03   0.05
                     34                     35                     36
                        a                      a                      a 
 Frequencies --   359.1993               361.6032               369.4742
 Red. masses --     2.0381                 3.7747                 6.0881
 Frc consts  --     0.0000                 0.0000                 0.0000
 IR Inten    --    12.4686                 2.0878                 1.6609
 Raman Activ --     0.0000                 0.0000                 0.0000
 Depolar     --     0.0000                 0.0000                 0.0000
 Atom AN      X      Y      Z        X      Y      Z        X      Y      Z
   1   8     0.03  -0.03  -0.04     0.10  -0.08  -0.20     0.04   0.02  -0.14
   2   6     0.03   0.00   0.05     0.12   0.07  -0.07     0.05   0.05  -0.17
   3   1     0.01   0.00   0.02     0.07   0.07   0.03     0.04   0.07   0.01
   4   1     0.00   0.00   0.02     0.01   0.05  -0.07     0.01   0.05  -0.13
   5   6    -0.01  -0.00   0.04    -0.18  -0.08  -0.05    -0.20  -0.14  -0.13
   6   1    -0.00  -0.00  -0.01    -0.09  -0.13  -0.09    -0.11  -0.16  -0.08
   7   1    -0.01  -0.00   0.03    -0.16   0.06   0.01    -0.16   0.05  -0.05
   8   7    -0.05  -0.01   0.02    -0.07   0.01   0.07     0.02  -0.01   0.05
   9   6     0.00   0.06  -0.12    -0.02   0.12   0.08    -0.01   0.03   0.38
  10   1     0.03   0.14  -0.07     0.03   0.07   0.02     0.03  -0.11   0.17
  11   1     0.02  -0.06  -0.13     0.00   0.02   0.00    -0.04   0.09   0.21
  12   1    -0.03  -0.00   0.05    -0.03   0.04   0.06    -0.01   0.06   0.04
  13   6    -0.01  -0.07   0.06    -0.06   0.02   0.01    -0.08   0.16  -0.15
  14   1     0.01  -0.03  -0.07     0.03   0.03  -0.19     0.01   0.10  -0.08
  15   1    -0.05   0.03   0.06    -0.17   0.09   0.06    -0.11   0.02  -0.07
  16   1     0.05  -0.08   0.07     0.10  -0.10   0.10    -0.00   0.06  -0.05
  17   6    -0.04   0.01   0.01     0.10  -0.11   0.18     0.22  -0.13   0.18
  18   1     0.11   0.28  -0.09     0.16   0.27   0.02    -0.00  -0.17   0.18
  19   1     0.16  -0.19   0.14     0.22  -0.26   0.21    -0.00   0.05  -0.03
  20   1    -0.30  -0.05  -0.05    -0.25  -0.13  -0.04     0.25  -0.04   0.05
  21   1     0.02  -0.01   0.01     0.05  -0.03  -0.04     0.02  -0.00   0.01
  22   6     0.02   0.05   0.02    -0.01  -0.02  -0.02     0.01   0.03   0.01
  23   8     0.01   0.02  -0.01    -0.00   0.00   0.00     0.01   0.00  -0.01
  24   7    -0.02  -0.11  -0.02     0.02   0.06   0.01    -0.01  -0.06  -0.01
  25   1     0.02   0.08   0.01    -0.01  -0.04  -0.00     0.01   0.03   0.00
  26   1     0.09   0.43   0.07    -0.05  -0.26  -0.04     0.05   0.23   0.04
  27   7    -0.03   0.14  -0.01    -0.00  -0.07   0.01    -0.01   0.03  -0.00
  28   1     0.02  -0.49  -0.10    -0.02   0.25   0.06     0.01  -0.17  -0.04
  29   1     0.02  -0.16   0.02    -0.02   0.09  -0.01     0.01  -0.05   0.01
  30   6    -0.02  -0.01  -0.00     0.02   0.01   0.00    -0.02  -0.00  -0.01
  31   8    -0.02  -0.00   0.00     0.01   0.01   0.01    -0.02  -0.01   0.00
  32   7     0.02   0.01   0.01    -0.02   0.01  -0.01     0.02   0.00   0.01
  33   1    -0.01  -0.01  -0.00     0.00   0.01  -0.00    -0.00  -0.01  -0.00
  34   1    -0.05  -0.03  -0.01     0.04   0.02   0.01    -0.02  -0.01   0.00
  35   7     0.03   0.00  -0.01    -0.02   0.00   0.01     0.02   0.00  -0.01
  36   1    -0.01  -0.01  -0.02    -0.00   0.00   0.01     0.01   0.00  -0.01
  37   1    -0.00  -0.02  -0.00    -0.00   0.01   0.00     0.00  -0.01  -0.00
  38   6     0.02  -0.01   0.01     0.00  -0.00   0.01    -0.00   0.00  -0.01
  39   8     0.01  -0.00   0.00    -0.00   0.00   0.01    -0.00   0.00  -0.02
  40   7    -0.01   0.01  -0.01     0.00   0.02  -0.01     0.01  -0.01  -0.00
  41   1     0.01  -0.01   0.01     0.01   0.00  -0.00    -0.01   0.00  -0.00
  42   1     0.02  -0.01   0.02     0.01   0.00   0.01     0.00  -0.00  -0.00
  43   7    -0.02   0.01  -0.01     0.01  -0.00  -0.03    -0.00   0.00   0.02
  44   1     0.02  -0.01   0.01     0.01  -0.01  -0.01    -0.01   0.01   0.00
  45   1     0.01  -0.00   0.01     0.01   0.01  -0.01    -0.01  -0.00   0.00
  46   6     0.00  -0.01  -0.00     0.01  -0.01   0.02    -0.02   0.02  -0.03
  47   8     0.01  -0.02   0.01     0.01   0.00  -0.00    -0.02   0.01  -0.01
  48   7     0.03   0.01   0.02    -0.03   0.01  -0.02     0.02  -0.03   0.02
  49   1    -0.05   0.06  -0.08     0.02  -0.03   0.04    -0.01   0.01  -0.02
  50   1    -0.08  -0.06   0.21     0.06   0.06  -0.14    -0.05  -0.06   0.10
  51   7    -0.00  -0.01   0.01     0.00   0.02  -0.03    -0.00  -0.01   0.03
  52   1     0.01   0.06  -0.10    -0.02  -0.13   0.18     0.02   0.15  -0.20
  53   1    -0.00   0.03  -0.04    -0.01  -0.01   0.02     0.01  -0.01  -0.01
                     37                     38                     39
                        a                      a                      a 
 Frequencies --   399.7562               421.5118               425.4727
 Red. masses --     3.3333                 2.6155                 3.8236
 Frc consts  --     0.0000                 0.0000                 0.0000
 IR Inten    --    67.0962               330.9893               302.4365
 Raman Activ --     0.0000                 0.0000                 0.0000
 Depolar     --     0.0000                 0.0000                 0.0000
 Atom AN      X      Y      Z        X      Y      Z        X      Y      Z
   1   8    -0.01   0.02   0.02     0.01  -0.00  -0.02     0.03  -0.02  -0.06
   2   6    -0.01   0.00  -0.02     0.00  -0.01   0.02     0.03  -0.02   0.04
   3   1    -0.00   0.00  -0.01    -0.00  -0.01   0.00    -0.00  -0.02   0.00
   4   1     0.00  -0.00  -0.01     0.00  -0.01   0.01     0.01  -0.01   0.02
   5   6     0.01  -0.01  -0.01    -0.01   0.01   0.01    -0.03   0.04   0.02
   6   1     0.01   0.01   0.01    -0.01  -0.01  -0.01    -0.01   0.01  -0.02
   7   1     0.02  -0.02  -0.00    -0.02   0.02   0.00    -0.02   0.02   0.01
   8   7    -0.00  -0.01  -0.02     0.01   0.01   0.02    -0.08   0.06   0.04
   9   6     0.01   0.02   0.00    -0.01  -0.03  -0.02    -0.11  -0.03  -0.05
  10   1     0.01   0.01   0.00    -0.01  -0.01  -0.01    -0.05   0.01  -0.03
  11   1     0.00   0.00  -0.00    -0.01  -0.01  -0.01    -0.04  -0.03  -0.04
  12   1    -0.00   0.01   0.01     0.01  -0.02  -0.00    -0.01  -0.04   0.00
  13   6    -0.03   0.00   0.01     0.03   0.01  -0.01     0.08  -0.06  -0.05
  14   1    -0.01   0.01   0.00     0.01  -0.00   0.00     0.00  -0.07  -0.03
  15   1    -0.01   0.00   0.01     0.01  -0.01  -0.01     0.05  -0.03  -0.02
  16   1    -0.01  -0.01   0.00     0.01   0.01  -0.01     0.07   0.01  -0.01
  17   6     0.00  -0.00  -0.02    -0.01   0.01   0.01     0.02   0.06   0.07
  18   1    -0.00  -0.00  -0.00    -0.01  -0.01  -0.00     0.02   0.05   0.03
  19   1     0.00  -0.00  -0.01    -0.01   0.01   0.00     0.04  -0.01   0.02
  20   1     0.00   0.00  -0.00     0.00   0.01   0.01    -0.00   0.01   0.01
  21   1     0.00   0.00   0.04    -0.00  -0.00  -0.01     0.01  -0.01  -0.02
  22   6     0.05   0.09   0.02     0.03   0.01  -0.00     0.01   0.03   0.00
  23   8     0.05   0.05   0.04     0.03  -0.02   0.04     0.01   0.02  -0.00
  24   7    -0.05  -0.15  -0.04    -0.04  -0.03  -0.06    -0.02  -0.04  -0.01
  25   1     0.00   0.08   0.00    -0.02  -0.00  -0.01    -0.00   0.01  -0.00
  26   1     0.09   0.45   0.07     0.05   0.30   0.02     0.02   0.11   0.02
  27   7    -0.01  -0.20   0.01    -0.05  -0.02   0.02     0.00  -0.05  -0.00
  28   1    -0.02   0.21   0.08    -0.01  -0.16  -0.00    -0.01   0.10   0.03
  29   1    -0.04   0.08  -0.03    -0.02   0.08  -0.01    -0.01   0.00  -0.01
  30   6    -0.11  -0.05  -0.04     0.08   0.05   0.03     0.00   0.00   0.00
  31   8    -0.07  -0.04  -0.01     0.04   0.04  -0.01     0.00   0.00  -0.00
  32   7     0.19   0.06   0.04    -0.18  -0.09  -0.02    -0.01  -0.01   0.00
  33   1    -0.07  -0.03   0.00     0.05  -0.01  -0.01     0.00  -0.00  -0.00
  34   1    -0.46  -0.23  -0.12     0.50   0.24   0.16     0.03   0.01   0.01
  35   7     0.13   0.07   0.03    -0.11  -0.09  -0.05    -0.01  -0.01  -0.00
  36   1    -0.12  -0.06  -0.05     0.17   0.08   0.03     0.01   0.01   0.00
  37   1    -0.05  -0.03  -0.03     0.06   0.00   0.03     0.00  -0.00   0.00
  38   6     0.00  -0.00   0.01     0.01  -0.01   0.01    -0.09   0.07  -0.11
  39   8    -0.00  -0.00   0.01     0.01   0.00   0.00    -0.02   0.04  -0.05
  40   7    -0.01   0.01  -0.01    -0.02   0.00  -0.01     0.16  -0.15   0.15
  41   1     0.01  -0.00   0.00     0.00  -0.01   0.00    -0.06   0.03  -0.01
  42   1     0.03  -0.02   0.03     0.05  -0.04   0.04    -0.54   0.31  -0.46
  43   7    -0.00  -0.00  -0.02    -0.02   0.01  -0.00     0.17  -0.07   0.16
  44   1     0.00  -0.01  -0.00     0.02  -0.00   0.02    -0.22   0.13  -0.14
  45   1     0.01   0.00  -0.00     0.00  -0.00   0.01    -0.08   0.01  -0.04
  46   6    -0.01   0.02   0.00    -0.02   0.06  -0.02    -0.01  -0.00   0.00
  47   8    -0.02   0.01  -0.04    -0.05  -0.01  -0.07    -0.02  -0.01   0.01
  48   7    -0.05   0.00  -0.00    -0.06  -0.00   0.02     0.03  -0.01  -0.02
  49   1     0.08  -0.12   0.17     0.11  -0.19   0.26     0.02  -0.03   0.03
  50   1     0.13   0.10  -0.35     0.16   0.09  -0.45    -0.00  -0.03  -0.01
  51   7     0.02   0.01   0.03     0.04   0.01   0.09     0.03   0.01   0.04
  52   1    -0.01  -0.08   0.12     0.01  -0.00   0.03     0.02   0.08  -0.08
  53   1     0.01  -0.00   0.01     0.02   0.02  -0.01     0.02  -0.02   0.02
                     40                     41                     42
                        a                      a                      a 
 Frequencies --   431.7675               437.8321               460.7717
 Red. masses --     7.9833                 3.2411                 7.7995
 Frc consts  --     0.0000                 0.0000                 0.0000
 IR Inten    --    24.6847               174.6828                 7.4581
 Raman Activ --     0.0000                 0.0000                 0.0000
 Depolar     --     0.0000                 0.0000                 0.0000
 Atom AN      X      Y      Z        X      Y      Z        X      Y      Z
   1   8     0.10  -0.06  -0.19     0.01   0.00  -0.03     0.00   0.02   0.05
   2   6     0.09  -0.07   0.11     0.01  -0.01   0.03    -0.01   0.01   0.03
   3   1    -0.00  -0.04   0.01    -0.01  -0.01   0.01    -0.00  -0.00   0.00
   4   1     0.03  -0.03   0.05     0.01  -0.01   0.01    -0.01  -0.00   0.02
   5   6    -0.12   0.08   0.06    -0.02   0.00   0.01     0.16   0.00   0.05
   6   1    -0.05  -0.03  -0.06    -0.01  -0.02  -0.01     0.13   0.18   0.07
   7   1    -0.09   0.07   0.02    -0.02   0.02   0.00     0.18  -0.14   0.04
   8   7    -0.18   0.18   0.17    -0.00   0.02   0.03    -0.28  -0.13  -0.12
   9   6    -0.31  -0.14  -0.12    -0.02  -0.03  -0.03    -0.14   0.28   0.10
  10   1    -0.16  -0.02  -0.07    -0.02  -0.00  -0.02     0.05   0.09   0.06
  11   1    -0.12  -0.08  -0.08    -0.01  -0.02  -0.02     0.02   0.10   0.05
  12   1    -0.00  -0.13  -0.02     0.01  -0.03  -0.01    -0.13   0.16   0.04
  13   6     0.30  -0.13  -0.21     0.04   0.01  -0.02    -0.16  -0.29  -0.12
  14   1     0.02  -0.19  -0.06     0.01  -0.01  -0.01    -0.07  -0.13  -0.03
  15   1     0.17  -0.12  -0.13     0.01  -0.01  -0.02     0.00  -0.08  -0.03
  16   1     0.21   0.10  -0.10     0.02   0.02  -0.01    -0.02  -0.06  -0.04
  17   6     0.07   0.21   0.25    -0.02   0.03   0.02     0.32   0.05  -0.03
  18   1     0.00   0.03   0.15    -0.01  -0.00   0.00     0.12   0.09   0.12
  19   1     0.03   0.08  -0.01    -0.01   0.02  -0.00     0.18  -0.03  -0.12
  20   1     0.11   0.07   0.08     0.00   0.01   0.01     0.14   0.04   0.01
  21   1     0.03  -0.02  -0.06     0.01  -0.00   0.01    -0.01   0.01  -0.02
  22   6    -0.00  -0.02  -0.00     0.01   0.10   0.02     0.07   0.00   0.01
  23   8     0.00  -0.01   0.00     0.01   0.09  -0.03     0.07  -0.01   0.02
  24   7     0.01   0.03   0.01    -0.06  -0.18  -0.04    -0.06   0.02  -0.09
  25   1    -0.00  -0.00   0.00     0.01   0.03  -0.00    -0.06   0.01  -0.01
  26   1    -0.01  -0.05  -0.01     0.07   0.39   0.08    -0.01  -0.01  -0.08
  27   7     0.00   0.03   0.01     0.03  -0.21  -0.03    -0.08  -0.02   0.06
  28   1     0.01  -0.07  -0.02    -0.03   0.53   0.14    -0.03   0.05   0.09
  29   1     0.01   0.01   0.01    -0.06  -0.10  -0.05    -0.08  -0.03  -0.02
  30   6    -0.01  -0.01  -0.00     0.03   0.02   0.01    -0.02   0.04   0.02
  31   8    -0.01  -0.01   0.01     0.01   0.01  -0.01    -0.01   0.05  -0.03
  32   7     0.03   0.02   0.00    -0.08  -0.05   0.00    -0.01  -0.05   0.05
  33   1    -0.00   0.01   0.00     0.01  -0.02  -0.01     0.01  -0.03  -0.00
  34   1    -0.11  -0.05  -0.04     0.25   0.12   0.09     0.05   0.01   0.06
  35   7     0.02   0.02   0.01    -0.05  -0.05  -0.02     0.02  -0.04  -0.04
  36   1    -0.03  -0.01  -0.00     0.10   0.04   0.02     0.03   0.00  -0.05
  37   1    -0.01  -0.00  -0.00     0.02  -0.01   0.01     0.03  -0.05   0.01
  38   6     0.03  -0.01   0.02    -0.00  -0.01   0.03     0.05   0.00  -0.05
  39   8     0.02  -0.01   0.01    -0.01  -0.02   0.02     0.06   0.06  -0.03
  40   7    -0.06   0.02  -0.04    -0.01   0.05  -0.02    -0.05  -0.08  -0.02
  41   1     0.01  -0.01   0.01     0.02   0.00  -0.01    -0.05  -0.01   0.02
  42   1     0.15  -0.10   0.13     0.08  -0.03   0.07     0.04  -0.10   0.03
  43   7    -0.05   0.03  -0.03    -0.01  -0.00  -0.05    -0.05   0.05   0.05
  44   1     0.06  -0.03   0.05     0.04  -0.05   0.01    -0.02   0.09   0.04
  45   1     0.02  -0.01   0.02     0.03   0.02  -0.02    -0.00  -0.07   0.11
  46   6    -0.00   0.00  -0.00     0.05  -0.07   0.02    -0.06   0.01   0.01
  47   8    -0.00   0.01  -0.01     0.08   0.03   0.06    -0.06   0.00  -0.00
  48   7    -0.01  -0.00   0.00     0.01   0.03  -0.00     0.05  -0.06  -0.04
  49   1     0.00  -0.00   0.00    -0.12   0.15  -0.21     0.05   0.02  -0.03
  50   1     0.01   0.01  -0.02    -0.11  -0.02   0.33    -0.02  -0.07   0.02
  51   7    -0.01  -0.00  -0.00    -0.06  -0.02  -0.12     0.05   0.05   0.02
  52   1    -0.00  -0.02   0.02    -0.03  -0.09   0.07     0.02   0.04   0.03
  53   1    -0.00   0.01  -0.01    -0.04  -0.01   0.01     0.04  -0.02   0.01
                     43                     44                     45
                        a                      a                      a 
 Frequencies --   461.5660               464.0156               467.6376
 Red. masses --     8.1727                 8.4361                 8.4941
 Frc consts  --     0.0000                 0.0000                 0.0000
 IR Inten    --    18.9464                35.5437                26.0715
 Raman Activ --     0.0000                 0.0000                 0.0000
 Depolar     --     0.0000                 0.0000                 0.0000
 Atom AN      X      Y      Z        X      Y      Z        X      Y      Z
   1   8    -0.01   0.01   0.05     0.00  -0.05  -0.05    -0.02   0.01   0.07
   2   6    -0.02   0.01  -0.09     0.01  -0.01   0.07    -0.03   0.02  -0.20
   3   1    -0.00  -0.02  -0.06     0.01   0.02   0.05     0.00  -0.04  -0.12
   4   1    -0.00  -0.01   0.01    -0.01   0.02  -0.01    -0.00  -0.02  -0.00
   5   6     0.08   0.12  -0.09    -0.07  -0.10   0.07     0.04   0.24  -0.21
   6   1     0.06   0.11   0.01    -0.05  -0.10  -0.01     0.02   0.10  -0.03
   7   1     0.09  -0.03  -0.02    -0.08   0.03   0.02     0.05   0.04  -0.08
   8   7    -0.09   0.07  -0.11     0.09  -0.05   0.10     0.04   0.23  -0.13
   9   6    -0.14   0.03   0.08     0.11  -0.05  -0.08    -0.16  -0.14   0.09
  10   1    -0.00  -0.01   0.05    -0.01   0.00  -0.04    -0.03  -0.08   0.05
  11   1    -0.08   0.02   0.03     0.06  -0.02  -0.03    -0.16  -0.03   0.02
  12   1    -0.04   0.00   0.04     0.04  -0.01  -0.04     0.01  -0.11   0.07
  13   6     0.03  -0.10   0.06    -0.01   0.10  -0.05     0.17  -0.00   0.24
  14   1    -0.02  -0.09   0.03     0.02   0.08  -0.02     0.01  -0.08   0.08
  15   1     0.07  -0.00   0.05    -0.05   0.00  -0.04     0.12   0.06   0.13
  16   1     0.01  -0.05   0.03    -0.01   0.05  -0.03     0.03  -0.07   0.10
  17   6     0.10  -0.10   0.02    -0.10   0.07  -0.01    -0.05  -0.24   0.06
  18   1     0.03  -0.02   0.08    -0.04  -0.01  -0.07    -0.01  -0.06   0.05
  19   1     0.05  -0.05   0.01    -0.06   0.05  -0.01    -0.02  -0.10   0.14
  20   1     0.06  -0.07  -0.03    -0.05   0.05   0.03    -0.03  -0.17  -0.08
  21   1    -0.01   0.01  -0.01     0.00  -0.01  -0.02    -0.01   0.01   0.01
  22   6     0.05  -0.02  -0.01     0.13  -0.03  -0.00    -0.00   0.01  -0.00
  23   8     0.05  -0.03   0.03     0.13  -0.03   0.06     0.00   0.02   0.00
  24   7    -0.02   0.05  -0.06    -0.05   0.07  -0.15     0.01  -0.01  -0.00
  25   1    -0.04  -0.00  -0.01    -0.09   0.03  -0.01     0.01   0.01  -0.00
  26   1    -0.01  -0.02  -0.06    -0.02  -0.08  -0.14     0.00   0.01   0.01
  27   7    -0.07   0.01   0.05    -0.14   0.02   0.12    -0.01   0.01   0.00
  28   1    -0.02  -0.10   0.03    -0.05  -0.03   0.14    -0.01   0.04   0.02
  29   1    -0.04   0.08  -0.00    -0.13  -0.01  -0.04    -0.02  -0.05  -0.01
  30   6    -0.03   0.05   0.02    -0.13   0.21   0.05    -0.05   0.07   0.02
  31   8    -0.02   0.06  -0.03    -0.11   0.26  -0.10    -0.04   0.09  -0.05
  32   7     0.00  -0.04   0.06     0.04  -0.20   0.28     0.01  -0.08   0.10
  33   1     0.02  -0.03   0.00     0.11  -0.14   0.00     0.04  -0.06   0.00
  34   1    -0.01  -0.02   0.05    -0.08  -0.11   0.20    -0.01  -0.03   0.08
  35   7     0.04  -0.03  -0.05     0.17  -0.10  -0.23     0.06  -0.04  -0.08
  36   1     0.02  -0.00  -0.06     0.10   0.01  -0.28     0.04   0.01  -0.10
  37   1     0.02  -0.06   0.01     0.05  -0.28   0.01     0.02  -0.11   0.00
  38   6    -0.14  -0.01   0.15     0.02   0.00  -0.02     0.03  -0.00  -0.02
  39   8    -0.16  -0.16   0.09     0.02   0.02  -0.01     0.03   0.03  -0.02
  40   7     0.13   0.24   0.03    -0.02  -0.04   0.00    -0.02  -0.03  -0.02
  41   1     0.12   0.03  -0.06    -0.02  -0.01   0.01    -0.02   0.00  -0.00
  42   1    -0.01   0.20   0.01    -0.02  -0.02  -0.02     0.03  -0.05   0.02
  43   7     0.12  -0.13  -0.17    -0.01   0.01   0.03    -0.03   0.04   0.02
  44   1     0.07  -0.24  -0.10    -0.02   0.04   0.01     0.03   0.02   0.04
  45   1     0.05   0.16  -0.24    -0.00  -0.03   0.04    -0.03  -0.01   0.01
  46   6     0.15  -0.04  -0.03     0.03  -0.01   0.00    -0.15   0.03   0.02
  47   8     0.18   0.04   0.01     0.04   0.01   0.00    -0.17  -0.01   0.00
  48   7    -0.13   0.15   0.12    -0.01   0.03   0.02     0.10  -0.16  -0.11
  49   1    -0.14  -0.03   0.04    -0.03   0.01  -0.01     0.13   0.04  -0.06
  50   1     0.03   0.17   0.00    -0.00   0.02   0.03    -0.04  -0.16   0.02
  51   7    -0.14  -0.15  -0.07    -0.03  -0.03  -0.01     0.15   0.14   0.06
  52   1    -0.05  -0.07  -0.15    -0.01  -0.01  -0.03     0.06   0.10   0.11
  53   1    -0.11   0.02   0.00    -0.02   0.01  -0.01     0.12  -0.04   0.02
                     46                     47                     48
                        a                      a                      a 
 Frequencies --   475.9046               489.7050               490.5340
 Red. masses --     2.6421                 4.7985                 8.3561
 Frc consts  --     0.0000                 0.0000                 0.0000
 IR Inten    --     8.7867                 9.3833                37.9571
 Raman Activ --     0.0000                 0.0000                 0.0000
 Depolar     --     0.0000                 0.0000                 0.0000
 Atom AN      X      Y      Z        X      Y      Z        X      Y      Z
   1   8    -0.00   0.01   0.02    -0.00  -0.02  -0.02    -0.01   0.01   0.03
   2   6    -0.01   0.01  -0.05     0.00  -0.00   0.04    -0.01   0.01  -0.08
   3   1     0.00  -0.01  -0.03     0.00   0.01   0.02     0.00  -0.01  -0.04
   4   1     0.00  -0.01  -0.00    -0.00   0.01   0.00    -0.00  -0.00  -0.01
   5   6     0.01   0.06  -0.06     0.02  -0.03   0.04     0.03   0.06  -0.07
   6   1     0.01   0.02  -0.01     0.01   0.01   0.01     0.02   0.05  -0.00
   7   1     0.01   0.01  -0.02     0.01  -0.02   0.01     0.04  -0.01  -0.03
   8   7     0.01   0.06  -0.03    -0.04  -0.05   0.01    -0.01   0.05  -0.04
   9   6    -0.04  -0.03   0.03     0.01   0.06  -0.01    -0.05  -0.01   0.04
  10   1    -0.01  -0.03   0.02     0.01   0.03  -0.00    -0.01  -0.02   0.02
  11   1    -0.04  -0.00   0.01     0.03   0.01  -0.00    -0.04   0.00   0.02
  12   1     0.00  -0.03   0.01    -0.02   0.03  -0.01    -0.01  -0.02   0.02
  13   6     0.04   0.00   0.07    -0.04  -0.03  -0.05     0.03  -0.02   0.07
  14   1     0.00  -0.02   0.02    -0.01  -0.00  -0.01    -0.00  -0.03   0.02
  15   1     0.03   0.01   0.03    -0.02  -0.02  -0.02     0.03   0.01   0.04
  16   1     0.01  -0.02   0.03    -0.01   0.00  -0.02     0.01  -0.03   0.03
  17   6    -0.01  -0.07   0.02     0.05   0.05  -0.01     0.01  -0.08   0.03
  18   1    -0.01  -0.02   0.02     0.02   0.03   0.00     0.01  -0.02   0.03
  19   1    -0.01  -0.02   0.04     0.02   0.01  -0.03     0.01  -0.04   0.04
  20   1    -0.00  -0.05  -0.02     0.02   0.03   0.01     0.00  -0.05  -0.02
  21   1    -0.00   0.00   0.00     0.00  -0.01   0.02    -0.00   0.00   0.02
  22   6    -0.00  -0.00  -0.00    -0.17   0.02   0.00    -0.06   0.01   0.00
  23   8    -0.00  -0.00   0.00    -0.18   0.04  -0.08    -0.07   0.02  -0.03
  24   7     0.00   0.00   0.00     0.10  -0.07   0.22     0.04  -0.02   0.08
  25   1     0.00  -0.00  -0.00     0.14   0.00   0.02     0.05  -0.00   0.01
  26   1     0.00   0.01   0.00     0.01  -0.03   0.18     0.01   0.00   0.07
  27   7    -0.00  -0.00  -0.00     0.15   0.00  -0.15     0.06  -0.01  -0.06
  28   1     0.00  -0.02  -0.01     0.06   0.05  -0.18     0.03   0.01  -0.08
  29   1     0.01   0.03   0.00     0.16   0.01   0.05     0.07   0.05   0.02
  30   6     0.00  -0.01  -0.00     0.00   0.07   0.04    -0.00   0.02   0.01
  31   8     0.00  -0.01   0.00     0.03   0.10  -0.07     0.01   0.03  -0.02
  32   7    -0.00   0.01  -0.01    -0.07  -0.09   0.07    -0.02  -0.03   0.02
  33   1    -0.00   0.00   0.00     0.05   0.00   0.02     0.01  -0.00   0.01
  34   1     0.00   0.00  -0.01    -0.05  -0.04   0.03    -0.01  -0.01   0.01
  35   7    -0.00   0.00   0.01     0.07   0.01   0.01     0.02   0.00  -0.00
  36   1    -0.00  -0.00   0.01     0.34   0.17  -0.03     0.09   0.04  -0.01
[...]
  44   1     0.00   0.00  -0.00    -0.00  -0.00   0.00     0.00   0.00  -0.00
  45   1    -0.00   0.00   0.00     0.01  -0.01  -0.01    -0.00   0.00   0.00
  46   6    -0.00  -0.00  -0.00     0.00   0.01   0.01    -0.00   0.00   0.00
  47   8    -0.00   0.00  -0.00     0.00   0.00   0.00     0.00  -0.00  -0.00
  48   7     0.00   0.00   0.00    -0.00  -0.00  -0.00     0.00   0.00   0.00
  49   1    -0.00  -0.00   0.00     0.00  -0.01  -0.01     0.00  -0.00  -0.00
  50   1    -0.00  -0.00   0.00    -0.00   0.00  -0.00    -0.00   0.00  -0.00
  51   7    -0.05  -0.06  -0.04     0.12   0.14   0.10    -0.00  -0.00  -0.00
  52   1    -0.05   0.01   0.00     0.11  -0.02  -0.00    -0.00  -0.00   0.00
  53   1     0.23   0.21   0.16    -0.53  -0.50  -0.36     0.00   0.00   0.00
                    142                    143                    144
                        a                      a                      a 
 Frequencies --  3405.2401              3454.6254              3495.5299
 Red. masses --     1.6380                 1.4688                 1.4487
 Frc consts  --     0.0000                 0.0000                 0.0000
 IR Inten    --   158.2819                 7.1884                25.8071
 Raman Activ --     0.0000                 0.0000                 0.0000
 Depolar     --     0.0000                 0.0000                 0.0000
 Atom AN      X      Y      Z        X      Y      Z        X      Y      Z
   1   8    -0.00  -0.00  -0.00    -0.00  -0.00   0.00     0.00   0.00   0.00
   2   6     0.00  -0.00   0.00     0.00  -0.00  -0.00     0.00  -0.00  -0.00
   3   1    -0.00   0.00  -0.00     0.00   0.00   0.00    -0.00  -0.00  -0.00
   4   1    -0.00  -0.00  -0.00    -0.00  -0.00  -0.00     0.00   0.00   0.00
   5   6    -0.00  -0.00  -0.00    -0.00   0.00  -0.00     0.00   0.00   0.00
   6   1    -0.00   0.00  -0.00     0.00  -0.00   0.00    -0.00   0.00   0.00
   7   1     0.00   0.00   0.00     0.00   0.00   0.00    -0.00  -0.00   0.00
   8   7    -0.00  -0.00   0.00    -0.00  -0.00  -0.00     0.00  -0.00   0.00
   9   6    -0.00  -0.00  -0.00     0.00  -0.00   0.00     0.00   0.00  -0.00
  10   1    -0.00  -0.00   0.00     0.00   0.00   0.00     0.00  -0.00   0.00
  11   1    -0.00   0.00  -0.00    -0.00   0.00  -0.00    -0.00  -0.00   0.00
  12   1     0.00   0.00   0.00     0.00   0.00  -0.00    -0.00  -0.00   0.00
  13   6     0.00  -0.00   0.00    -0.00  -0.00   0.00    -0.00   0.00  -0.00
  14   1    -0.00   0.00  -0.00     0.00  -0.00   0.00    -0.00  -0.00   0.00
  15   1     0.00   0.00  -0.00    -0.00   0.00   0.00     0.00  -0.00   0.00
  16   1    -0.00   0.00   0.00     0.00   0.00   0.00     0.00  -0.00  -0.00
  17   6    -0.00  -0.00   0.00    -0.00  -0.00   0.00     0.00   0.00  -0.00
  18   1    -0.00   0.00  -0.00     0.00  -0.00   0.00    -0.00  -0.00   0.00
  19   1     0.00   0.00   0.00    -0.00  -0.00  -0.00    -0.00  -0.00   0.00
  20   1    -0.00   0.00  -0.00    -0.00   0.00  -0.00     0.00  -0.00   0.00
  21   1     0.00   0.00   0.00     0.00   0.00   0.00    -0.01  -0.01  -0.00
  22   6     0.00   0.00   0.01     0.00   0.00   0.00     0.00  -0.00   0.00
  23   8    -0.00   0.00  -0.00    -0.00  -0.00   0.00    -0.00   0.00  -0.00
  24   7    -0.00   0.00  -0.01    -0.00   0.00  -0.00     0.00   0.00  -0.00
  25   1     0.01  -0.01   0.03     0.00  -0.00   0.00     0.00  -0.00   0.01
  26   1    -0.00   0.00  -0.00     0.00  -0.00   0.00    -0.01   0.00  -0.00
  27   7    -0.08   0.00   0.20    -0.00   0.00   0.03    -0.00   0.00  -0.00
  28   1    -0.27  -0.00  -0.02    -0.06  -0.00  -0.01     0.00   0.00   0.00
  29   1     0.56  -0.02  -0.74     0.07  -0.00  -0.09    -0.00  -0.00   0.00
  30   6     0.00  -0.00   0.00    -0.00   0.00  -0.00    -0.00  -0.00   0.00
  31   8    -0.00   0.00  -0.00     0.00  -0.00  -0.00    -0.00   0.00   0.00
  32   7    -0.00   0.00  -0.01    -0.00   0.00  -0.00    -0.00   0.01  -0.01
  33   1     0.01  -0.02   0.03     0.00  -0.00   0.00     0.00  -0.01   0.01
  34   1    -0.00   0.01   0.00    -0.00   0.00   0.00     0.02  -0.03  -0.00
  35   7     0.00  -0.00  -0.00     0.00  -0.00   0.00    -0.01  -0.12   0.14
  36   1    -0.00   0.00   0.00    -0.00   0.00   0.00    -0.32   0.61   0.06
  37   1    -0.00   0.00   0.00     0.00   0.00  -0.00     0.34  -0.17  -0.58
  38   6     0.00  -0.00  -0.00    -0.00  -0.00  -0.00    -0.00  -0.00   0.00
  39   8     0.00   0.00   0.00     0.00   0.00   0.00     0.00   0.00  -0.00
  40   7     0.00   0.00   0.00     0.00   0.00   0.00     0.00   0.00  -0.00
  41   1    -0.01  -0.02  -0.00    -0.00  -0.01  -0.00    -0.00  -0.00  -0.00
  42   1     0.00   0.00  -0.00     0.00   0.00  -0.00    -0.00  -0.00   0.00
  43   7    -0.00  -0.00   0.00     0.00   0.00  -0.00    -0.00  -0.00   0.00
  44   1     0.00   0.00  -0.00    -0.00  -0.00   0.00     0.01   0.00  -0.01
  45   1    -0.00   0.00  -0.00     0.00  -0.00  -0.00    -0.00   0.01   0.01
  46   6    -0.00  -0.00  -0.00    -0.00   0.00  -0.01     0.00  -0.00   0.00
  47   8     0.00   0.00   0.00     0.00  -0.00   0.00    -0.00   0.00  -0.00
  48   7     0.01   0.01   0.02    -0.09  -0.05  -0.15    -0.00   0.00   0.00
  49   1     0.04  -0.07  -0.06    -0.26   0.48   0.42     0.00  -0.00  -0.00
  50   1    -0.07   0.03  -0.02     0.61  -0.28   0.16     0.00  -0.00   0.00
  51   7     0.00   0.00   0.00     0.00   0.00   0.00    -0.00   0.00   0.00
  52   1     0.00   0.00  -0.00    -0.01   0.00   0.00     0.00  -0.00   0.00
  53   1    -0.01  -0.01  -0.01    -0.01  -0.01  -0.00    -0.00  -0.00  -0.00
                    145                    146                    147
                        a                      a                      a 
 Frequencies --  3495.9037              3508.2750              3527.6855
 Red. masses --     1.4520                 2.1511                 2.0070
 Frc consts  --     0.0000                 0.0000                 0.0000
 IR Inten    --    19.8083                 8.1114                11.5568
 Raman Activ --     0.0000                 0.0000                 0.0000
 Depolar     --     0.0000                 0.0000                 0.0000
 Atom AN      X      Y      Z        X      Y      Z        X      Y      Z
   1   8     0.00   0.00  -0.00     0.00  -0.00  -0.00     0.00   0.00   0.00
   2   6    -0.00   0.00   0.00    -0.00   0.00  -0.00     0.00  -0.00   0.00
   3   1     0.00   0.00  -0.00     0.00  -0.00   0.00    -0.00   0.00  -0.00
   4   1    -0.00  -0.00   0.00     0.00   0.00  -0.00    -0.00   0.00   0.00
   5   6     0.00  -0.00   0.00     0.00   0.00   0.00     0.00   0.00   0.00
   6   1     0.00   0.00   0.00     0.00  -0.00   0.00    -0.00   0.00  -0.00
   7   1    -0.00  -0.00  -0.00    -0.00  -0.00  -0.00    -0.00  -0.00  -0.00
   8   7    -0.00   0.00  -0.00    -0.00  -0.00  -0.00    -0.00  -0.00  -0.00
   9   6     0.00   0.00  -0.00    -0.00   0.00  -0.00     0.00   0.00  -0.00
  10   1     0.00   0.00  -0.00     0.00  -0.00  -0.00     0.00   0.00   0.00
  11   1    -0.00  -0.00   0.00    -0.00  -0.00   0.00     0.00  -0.00   0.00
  12   1     0.00   0.00  -0.00    -0.00   0.00  -0.00    -0.00  -0.00  -0.00
  13   6    -0.00   0.00  -0.00    -0.00   0.00  -0.00    -0.00   0.00  -0.00
  14   1     0.00  -0.00   0.00     0.00  -0.00   0.00    -0.00   0.00   0.00
  15   1    -0.00  -0.00   0.00    -0.00   0.00   0.00     0.00  -0.00   0.00
  16   1     0.00   0.00  -0.00     0.00  -0.00  -0.00    -0.00   0.00   0.00
  17   6     0.00   0.00  -0.00    -0.00   0.00  -0.00     0.00   0.00  -0.00
  18   1    -0.00   0.00  -0.00     0.00  -0.00   0.00     0.00   0.00   0.00
  19   1    -0.00  -0.00  -0.00    -0.00  -0.00   0.00    -0.00  -0.00  -0.00
  20   1    -0.00  -0.00   0.00    -0.00   0.00   0.00     0.00  -0.00   0.00
  21   1    -0.00  -0.00   0.00    -0.00   0.00  -0.00    -0.00  -0.00  -0.00
  22   6    -0.00  -0.00   0.00    -0.00   0.00  -0.00     0.01   0.00  -0.01
  23   8     0.00   0.00  -0.00     0.00  -0.00  -0.00    -0.00  -0.00   0.00
  24   7     0.00  -0.00  -0.00     0.00  -0.00   0.00    -0.07   0.01  -0.01
  25   1    -0.00  -0.00   0.00    -0.00   0.00  -0.00     0.00  -0.00   0.02
  26   1    -0.00   0.00  -0.00    -0.00   0.00  -0.00     0.24  -0.05   0.02
  27   7    -0.00   0.00  -0.00     0.00  -0.00  -0.00     0.27   0.00  -0.02
  28   1     0.00   0.00   0.00     0.00   0.00   0.00    -0.88  -0.02  -0.13
  29   1    -0.00  -0.00   0.00    -0.01   0.00   0.01    -0.13   0.01   0.20
  30   6    -0.00   0.00   0.00    -0.00  -0.00  -0.00    -0.00   0.00  -0.00
  31   8     0.00  -0.00  -0.00     0.00   0.00   0.00     0.00  -0.00   0.00
  32   7     0.00  -0.00  -0.00     0.00  -0.00   0.00    -0.00   0.01   0.00
  33   1     0.00  -0.00   0.00    -0.00   0.00  -0.00    -0.00   0.00  -0.00
  34   1    -0.00   0.00   0.00    -0.00   0.00   0.00     0.01  -0.03  -0.00
  35   7     0.00   0.00  -0.00     0.00   0.00  -0.00     0.00  -0.00  -0.00
  36   1     0.01  -0.01  -0.00     0.00  -0.00  -0.00    -0.00   0.00   0.00
  37   1    -0.01   0.00   0.01    -0.00   0.00   0.00    -0.00   0.00   0.00
  38   6    -0.00  -0.00   0.00     0.00   0.00  -0.00     0.00   0.00   0.00
  39   8     0.00   0.00  -0.00    -0.00  -0.00   0.00    -0.00  -0.00  -0.00
  40   7     0.01   0.01  -0.00     0.00  -0.00  -0.00     0.00   0.00  -0.00
  41   1    -0.01  -0.01  -0.00     0.00   0.01   0.00     0.00   0.00   0.00
  42   1    -0.03  -0.01   0.03    -0.01  -0.00   0.01    -0.01  -0.00   0.01
  43   7    -0.07  -0.17   0.01    -0.00  -0.00  -0.00    -0.00   0.00   0.00
  44   1     0.46   0.19  -0.51     0.00   0.00  -0.00     0.00   0.00  -0.00
  45   1    -0.22   0.45   0.46    -0.00   0.00   0.00     0.00  -0.00  -0.00
  46   6    -0.00  -0.00  -0.00    -0.01   0.01   0.00     0.00   0.00   0.00
  47   8     0.00   0.00   0.00     0.00  -0.00  -0.00    -0.00   0.00  -0.00
  48   7     0.00  -0.00  -0.00    -0.22   0.19   0.07     0.00   0.00   0.00
  49   1    -0.00   0.00   0.00     0.23  -0.46  -0.44     0.01  -0.01  -0.01
  50   1     0.00  -0.00   0.00     0.59  -0.26   0.18    -0.01   0.01  -0.00
  51   7    -0.00   0.00   0.00     0.02  -0.00  -0.00    -0.00  -0.00  -0.00
  52   1     0.01  -0.00  -0.00    -0.07   0.01   0.00     0.00  -0.00  -0.00
  53   1    -0.01  -0.01  -0.00    -0.00  -0.00  -0.00     0.00   0.00   0.00
                    148                    149                    150
                        a                      a                      a 
 Frequencies --  3534.9591              3537.1132              3538.8429
 Red. masses --     1.9134                 1.9031                 1.9092
 Frc consts  --     0.0000                 0.0000                 0.0000
 IR Inten    --    17.0413                17.5750                20.6044
 Raman Activ --     0.0000                 0.0000                 0.0000
 Depolar     --     0.0000                 0.0000                 0.0000
 Atom AN      X      Y      Z        X      Y      Z        X      Y      Z
   1   8     0.00   0.00   0.00     0.00   0.00  -0.00     0.00   0.00   0.00
   2   6     0.00   0.00  -0.00     0.00   0.00   0.00     0.00   0.00   0.00
   3   1     0.00  -0.00   0.00    -0.00  -0.00   0.00    -0.00  -0.00  -0.00
   4   1    -0.00  -0.00  -0.00    -0.00  -0.00  -0.00     0.00  -0.00  -0.00
   5   6     0.00   0.00   0.00    -0.00   0.00  -0.00    -0.00  -0.00  -0.00
   6   1    -0.00  -0.00  -0.00    -0.00   0.00   0.00    -0.00  -0.00  -0.00
   7   1     0.00   0.00  -0.00     0.00   0.00   0.00     0.00   0.00   0.00
   8   7    -0.00  -0.00  -0.00    -0.00  -0.00   0.00     0.00   0.00   0.00
   9   6     0.00   0.00   0.00    -0.00   0.00  -0.00     0.00  -0.00   0.00
  10   1    -0.00   0.00   0.00     0.00  -0.00   0.00    -0.00  -0.00   0.00
  11   1    -0.00  -0.00   0.00     0.00  -0.00   0.00    -0.00  -0.00  -0.00
  12   1    -0.00  -0.00  -0.00     0.00   0.00   0.00    -0.00   0.00  -0.00
  13   6     0.00  -0.00  -0.00     0.00   0.00  -0.00     0.00   0.00   0.00
  14   1    -0.00  -0.00  -0.00    -0.00  -0.00   0.00    -0.00   0.00   0.00
  15   1    -0.00  -0.00   0.00    -0.00  -0.00   0.00    -0.00  -0.00   0.00
  16   1     0.00   0.00   0.00     0.00  -0.00  -0.00     0.00  -0.00  -0.00
  17   6     0.00   0.00  -0.00    -0.00  -0.00   0.00    -0.00  -0.00   0.00
  18   1    -0.00   0.00   0.00    -0.00  -0.00   0.00     0.00  -0.00  -0.00
  19   1    -0.00  -0.00  -0.00     0.00   0.00   0.00     0.00   0.00  -0.00
  20   1    -0.00  -0.00   0.00     0.00   0.00  -0.00    -0.00   0.00  -0.00
  21   1    -0.00  -0.00   0.00    -0.00  -0.00  -0.00    -0.00  -0.00  -0.00
  22   6     0.00  -0.00  -0.00    -0.00   0.00  -0.00    -0.01   0.00  -0.00
  23   8    -0.00   0.00  -0.00     0.00  -0.00  -0.00     0.00  -0.00   0.00
  24   7     0.00  -0.00   0.00    -0.00   0.00  -0.00    -0.24   0.05  -0.04
  25   1    -0.00   0.00  -0.00     0.00  -0.00   0.00     0.02  -0.01   0.08
  26   1    -0.02   0.00  -0.00     0.01  -0.00   0.00     0.90  -0.19   0.08
  27   7     0.01   0.00  -0.00     0.00   0.00  -0.00    -0.07  -0.00   0.00
  28   1    -0.03  -0.00  -0.01    -0.01  -0.00  -0.00     0.24   0.01   0.04
  29   1    -0.01   0.00   0.01    -0.00   0.00   0.00     0.03  -0.00  -0.05
  30   6     0.00  -0.01   0.00    -0.00   0.00  -0.00    -0.00   0.00   0.00
  31   8    -0.00   0.00  -0.00     0.00  -0.00  -0.00     0.00  -0.00  -0.00
  32   7     0.12  -0.23  -0.00    -0.00   0.00  -0.00     0.00  -0.01  -0.00
  33   1    -0.01   0.04  -0.09     0.00  -0.00   0.00     0.00  -0.00   0.00
  34   1    -0.43   0.85   0.09     0.00  -0.01  -0.00    -0.01   0.03   0.00
  35   7    -0.02   0.01   0.02     0.00  -0.00  -0.00     0.00  -0.00  -0.00
  36   1     0.02  -0.03  -0.00    -0.00   0.00   0.00    -0.00   0.01   0.00
  37   1     0.05  -0.02  -0.08    -0.00   0.00   0.00    -0.00   0.00   0.00
  38   6    -0.00  -0.00   0.00    -0.01  -0.01   0.00     0.00   0.00  -0.00
  39   8     0.00   0.00  -0.00     0.00   0.00  -0.00    -0.00  -0.00   0.00
  40   7    -0.00  -0.00   0.00    -0.19  -0.07   0.16     0.00   0.00  -0.00
  41   1     0.00   0.00   0.00     0.03   0.07   0.02    -0.00  -0.00  -0.00
  42   1     0.00   0.00  -0.00     0.68   0.22  -0.64    -0.01  -0.00   0.01
  43   7     0.00  -0.00  -0.00     0.02  -0.02  -0.03    -0.00   0.00   0.00
  44   1    -0.00  -0.00   0.00    -0.03  -0.01   0.03     0.00   0.00  -0.00
  45   1    -0.00   0.00   0.00    -0.03   0.07   0.07     0.00  -0.00  -0.00
  46   6    -0.00   0.00   0.00    -0.00   0.00   0.00    -0.00  -0.00  -0.00
  47   8     0.00   0.00  -0.00     0.00  -0.00  -0.00     0.00  -0.00   0.00
  48   7     0.00  -0.00   0.00    -0.00   0.00   0.00    -0.00   0.00  -0.00
  49   1    -0.00  -0.00   0.00     0.00  -0.01  -0.01    -0.00   0.00   0.00
  50   1    -0.00   0.00  -0.00     0.01  -0.00   0.00     0.00  -0.00   0.00
  51   7    -0.00   0.00   0.00    -0.01   0.00  -0.00     0.01  -0.00   0.00
  52   1     0.00  -0.00  -0.00     0.04  -0.01  -0.00    -0.02   0.00   0.00
  53   1    -0.00  -0.00   0.00     0.00   0.00   0.00    -0.00  -0.00  -0.00
                    151                    152                    153
                        a                      a                      a 
 Frequencies --  3541.3674              3560.0353              3561.4809
 Red. masses --     1.9177                 2.1769                 2.1838
 Frc consts  --     0.0000                 0.0000                 0.0000
 IR Inten    --    18.6650                14.4079                18.9971
 Raman Activ --     0.0000                 0.0000                 0.0000
 Depolar     --     0.0000                 0.0000                 0.0000
 Atom AN      X      Y      Z        X      Y      Z        X      Y      Z
   1   8    -0.00  -0.00   0.00    -0.00   0.00   0.00     0.00   0.00   0.00
   2   6     0.00   0.00  -0.00     0.00   0.00  -0.00    -0.00  -0.00   0.00
   3   1    -0.00   0.00  -0.00    -0.00  -0.00   0.00    -0.00  -0.00  -0.00
   4   1    -0.00  -0.00  -0.00    -0.00  -0.00  -0.00     0.00   0.00  -0.00
   5   6    -0.00  -0.00  -0.00    -0.00   0.00  -0.00    -0.00  -0.00  -0.00
   6   1     0.00  -0.00   0.00    -0.00  -0.00   0.00     0.00   0.00  -0.00
   7   1     0.00   0.00   0.00     0.00   0.00   0.00    -0.00   0.00   0.00
   8   7    -0.00  -0.00  -0.00    -0.00  -0.00   0.00    -0.00   0.00  -0.00
   9   6    -0.00  -0.00   0.00    -0.00  -0.00   0.00    -0.00  -0.00  -0.00
  10   1     0.00  -0.00   0.00     0.00  -0.00  -0.00     0.00  -0.00  -0.00
  11   1    -0.00   0.00  -0.00     0.00   0.00  -0.00     0.00   0.00  -0.00
  12   1     0.00   0.00  -0.00     0.00  -0.00   0.00     0.00   0.00   0.00
  13   6    -0.00  -0.00   0.00     0.00  -0.00   0.00    -0.00   0.00   0.00
  14   1     0.00  -0.00   0.00    -0.00  -0.00   0.00     0.00   0.00   0.00
  15   1    -0.00   0.00  -0.00    -0.00   0.00  -0.00     0.00   0.00  -0.00
  16   1     0.00  -0.00  -0.00     0.00  -0.00   0.00    -0.00  -0.00  -0.00
  17   6    -0.00  -0.00   0.00    -0.00  -0.00   0.00    -0.00  -0.00  -0.00
  18   1     0.00  -0.00  -0.00     0.00  -0.00   0.00     0.00  -0.00  -0.00
  19   1    -0.00  -0.00   0.00     0.00  -0.00   0.00     0.00   0.00   0.00
  20   1     0.00   0.00   0.00    -0.00   0.00  -0.00     0.00  -0.00  -0.00
  21   1     0.00   0.00   0.00    -0.00  -0.00  -0.00    -0.00  -0.00  -0.00
  22   6    -0.00   0.00  -0.00     0.00   0.00   0.00    -0.00   0.00   0.00
  23   8    -0.00  -0.00   0.00    -0.00  -0.00  -0.00     0.00  -0.00   0.00
  24   7    -0.01   0.00  -0.00    -0.00  -0.00   0.00    -0.00   0.00  -0.00
  25   1     0.00  -0.00   0.00    -0.00   0.00  -0.00     0.00  -0.00   0.01
  26   1     0.02  -0.00   0.00     0.00  -0.00   0.00     0.01  -0.00   0.00
  27   7    -0.00  -0.00   0.00     0.00  -0.00  -0.00    -0.00  -0.00   0.00
  28   1     0.01  -0.00   0.00    -0.00  -0.00  -0.00     0.00   0.00   0.00
  29   1     0.00   0.00  -0.00    -0.00   0.00   0.00     0.00  -0.00  -0.00
  30   6    -0.00   0.00  -0.00     0.00  -0.00  -0.00    -0.01   0.01   0.01
  31   8     0.00  -0.00  -0.00    -0.00   0.00   0.00     0.00  -0.00  -0.00
  32   7    -0.00   0.00   0.00     0.00  -0.00   0.00    -0.01   0.02  -0.00
  33   1     0.00  -0.00   0.00    -0.00   0.00  -0.00     0.00  -0.00   0.01
  34   1     0.00  -0.00  -0.00    -0.00   0.00   0.00     0.04  -0.08  -0.01
  35   7     0.00  -0.00  -0.00     0.00  -0.00  -0.00    -0.17   0.20   0.16
  36   1    -0.00   0.00   0.00    -0.00   0.00   0.00     0.31  -0.60  -0.03
  37   1    -0.00   0.00   0.00    -0.00   0.00   0.00     0.32  -0.14  -0.56
  38   6    -0.00   0.00   0.00    -0.01   0.00   0.01    -0.00   0.00   0.00
  39   8     0.00  -0.00  -0.00     0.00  -0.00  -0.00     0.00   0.00  -0.00
  40   7     0.01   0.00  -0.01    -0.02  -0.01   0.02    -0.00  -0.00   0.00
  41   1     0.00   0.00  -0.00     0.00   0.01   0.00     0.00   0.00   0.00
  42   1    -0.03  -0.01   0.03     0.07   0.02  -0.07     0.00   0.00  -0.00
  43   7     0.00   0.00  -0.00    -0.16   0.07   0.24    -0.00   0.00   0.00
  44   1    -0.01  -0.00   0.01     0.42   0.20  -0.46     0.00   0.00  -0.00
  45   1    -0.00   0.00   0.00     0.20  -0.48  -0.44     0.00  -0.00  -0.00
  46   6    -0.01  -0.00  -0.00    -0.00   0.00   0.00    -0.00   0.00  -0.00
  47   8     0.00   0.00   0.00     0.00   0.00  -0.00     0.00  -0.00   0.00
  48   7    -0.02   0.01   0.00    -0.00   0.00   0.00    -0.00   0.00   0.00
  49   1     0.01  -0.03  -0.03     0.00  -0.00  -0.00     0.00  -0.00  -0.00
  50   1     0.05  -0.02   0.02     0.00  -0.00   0.00     0.00  -0.00   0.00
  51   7    -0.26   0.04   0.00    -0.00  -0.00  -0.00    -0.00   0.00  -0.00
  52   1     0.93  -0.21  -0.05     0.01  -0.00  -0.00     0.00  -0.00  -0.00
  53   1     0.05   0.07   0.05     0.01   0.01   0.00     0.00   0.00   0.00
