 Entering Gaussian System
 *********************************************
 Gaussian 98:
 frequency output generated by the xtb code
 *********************************************
                         Standard orientation:
 --------------------------------------------------------------------
  Center     Atomic     Atomic              Coordinates (Angstroms)
  Number     Number      Type              X           Y           Z
 --------------------------------------------------------------------
    1          8             0        0.644900   -0.256976   -1.601862
    2          6             0        0.744155    0.607059   -0.492343
    3          1             0        1.743890    0.468938   -0.075924
    4          1             0        0.653528    1.651349   -0.818449
    5          6             0       -0.316716    0.402636    0.591416
    6          1             0       -1.313896    0.588231    0.186921
    7          1             0       -0.092511    1.122321    1.380848
    8          7             0       -0.363618   -0.942703    1.229724
    9          6             0       -0.944995   -1.924095    0.301750
   10          1             0       -1.947731   -1.597541    0.027382
   11          1             0       -1.001769   -2.898936    0.781959
   12          1             0       -0.324152   -1.994873   -0.588362
   13          6             0       -1.233856   -0.826534    2.412421
   14          1             0       -1.329024   -1.794544    2.899951
   15          1             0       -2.218950   -0.485423    2.096573
   16          1             0       -0.794546   -0.113965    3.107824
   17          6             0        0.969095   -1.381157    1.667725
   18          1             0        0.885075   -2.316565    2.216303
   19          1             0        1.387504   -0.611275    2.316954
   20          1             0        1.632747   -1.523403    0.819680
   21          1             0       -0.220950   -0.090331   -2.037317
   22          6             0        4.229682   -0.640393   -0.711410
   23          8             0        3.655618   -0.359617    0.333334
   24          7             0        3.555893   -0.930339   -1.850944
   25          1             0        2.563962   -0.735864   -1.883791
   26          1             0        4.043631   -0.993247   -2.726491
   27          7             0        5.583573   -0.689112   -0.793908
   28          1             0        6.048400   -1.065459   -1.600269
   29          1             0        6.107716   -0.632449    0.061496
   30          6             0        2.351445    1.866204    3.238231
   31          8             0        1.280614    1.293411    3.075667
   32          7             0        3.485064    1.496183    2.605034
   33          1             0        3.462293    0.797167    1.873110
   34          1             0        4.317411    2.051236    2.686738
   35          7             0        2.463727    2.935003    4.072931
   36          1             0        3.360260    3.298255    4.341611
   37          1             0        1.681418    3.143209    4.668169
   38          6             0       -2.278649   -0.987812   -3.270884
   39          8             0       -1.847812   -0.008478   -2.662575
   40          7             0       -3.599390   -1.211752   -3.415859
   41          1             0       -4.239059   -0.617674   -2.914025
   42          1             0       -3.952914   -2.049773   -3.839988
   43          7             0       -1.445103   -1.908760   -3.809165
   44          1             0       -1.785017   -2.624490   -4.425936
   45          1             0       -0.461629   -1.700155   -3.832118
   46          6             0       -4.216913    0.820788   -0.110576
   47          8             0       -3.489590   -0.033977    0.376744
   48          7             0       -5.234032    1.383274    0.588274
   49          1             0       -5.462911    0.997531    1.487193
   50          1             0       -5.904158    1.991072    0.153519
   51          7             0       -4.065299    1.247118   -1.392162
   52          1             0       -4.505507    2.100849   -1.688789
   53          1             0       -3.191144    0.991431   -1.850564
 --------------------------------------------------------------------
     1 basis functions        1 primitive gaussians
     1 alpha electrons        1 beta electrons

 Harmonic frequencies (cm**-1), IR intensities (km*mol⁻¹),
 Raman scattering activities (A**4/amu), Raman depolarization ratios,
 reduced masses (AMU), force constants (mDyne/A) and normal coordinates:
                      1                      2                      3
                        a                      a                      a 
 Frequencies --    13.4319                19.4714                20.2998
 Red. masses --    12.0625                12.0029                12.2658
 Frc consts  --     0.0000                 0.0000                 0.0000
 IR Inten    --     2.3817                 1.4939                 1.8431
 Raman Activ --     0.0000                 0.0000                 0.0000
 Depolar     --     0.0000                 0.0000                 0.0000
 Atom AN      X      Y      Z        X      Y      Z        X      Y      Z
   1   8    -0.02  -0.04   0.07     0.06  -0.09  -0.06     0.02   0.19   0.02
   2   6    -0.01  -0.02   0.05     0.03  -0.09  -0.04     0.02   0.07   0.09
   3   1    -0.00  -0.01   0.01     0.01  -0.02  -0.01     0.00   0.00   0.03
   4   1    -0.00  -0.01   0.01     0.01  -0.02  -0.01     0.01   0.03   0.05
   5   6     0.00  -0.00   0.06     0.02  -0.11  -0.06    -0.02   0.02   0.04
   6   1    -0.00  -0.01   0.02     0.01  -0.04  -0.02    -0.00   0.00   0.00
   7   1     0.00   0.00   0.01    -0.01  -0.03  -0.02    -0.02  -0.00   0.02
   8   7     0.02   0.01   0.10     0.05  -0.12  -0.06    -0.02  -0.01  -0.01
   9   6     0.03  -0.02   0.11     0.09  -0.13  -0.07     0.09   0.00  -0.09
  10   1     0.01  -0.01   0.03     0.03  -0.05  -0.02     0.03  -0.01  -0.04
  11   1     0.01  -0.00   0.04     0.04  -0.04  -0.02     0.03  -0.01  -0.04
  12   1     0.01  -0.01   0.03     0.03  -0.03  -0.02     0.05   0.02  -0.01
  13   6     0.01   0.03   0.09     0.02  -0.14  -0.08    -0.12  -0.08  -0.08
  14   1     0.01   0.01   0.03     0.01  -0.04  -0.02    -0.03  -0.03  -0.03
  15   1     0.00   0.00   0.02     0.00  -0.05  -0.03    -0.03  -0.03  -0.04
  16   1    -0.00   0.01   0.02    -0.01  -0.04  -0.02    -0.06  -0.02  -0.01
  17   6     0.02   0.04   0.11     0.05  -0.07  -0.02    -0.04   0.02   0.09
  18   1     0.01   0.02   0.04     0.02  -0.02  -0.01    -0.02   0.00   0.02
  19   1     0.00   0.02   0.03     0.00  -0.02  -0.01    -0.03   0.01   0.04
  20   1     0.01   0.01   0.03     0.02  -0.02  -0.00     0.01   0.02   0.04
  21   1    -0.01  -0.01   0.02     0.02  -0.02  -0.02     0.01   0.06   0.01
  22   6    -0.03  -0.13   0.04     0.06  -0.03   0.07    -0.04  -0.09  -0.02
  23   8    -0.00  -0.07   0.04     0.04   0.03   0.05    -0.05  -0.21   0.01
  24   7    -0.06  -0.17   0.07     0.10  -0.10   0.07    -0.04   0.10  -0.07
  25   1    -0.01  -0.03   0.02     0.03  -0.03   0.01    -0.01   0.04  -0.01
  26   1    -0.02  -0.07   0.02     0.03  -0.04   0.02    -0.01   0.05  -0.02
  27   7    -0.04  -0.22   0.03     0.07  -0.05   0.12    -0.04  -0.16  -0.00
  28   1    -0.02  -0.08   0.01     0.02  -0.02   0.04    -0.01  -0.02  -0.01
  29   1    -0.01  -0.05   0.01     0.01   0.00   0.03    -0.01  -0.08   0.00
  30   6     0.04   0.12  -0.07    -0.18   0.09  -0.09     0.04   0.03  -0.08
  31   8     0.05   0.12  -0.01    -0.15  -0.03  -0.05     0.01   0.06  -0.01
  32   7     0.03   0.09  -0.07    -0.16   0.18  -0.09     0.01  -0.07  -0.08
  33   1     0.01   0.01  -0.01    -0.02   0.03  -0.01    -0.01  -0.04  -0.00
  34   1     0.01   0.03  -0.04    -0.06   0.07  -0.03     0.01  -0.03  -0.04
  35   7     0.06   0.19  -0.16    -0.30   0.17  -0.18     0.10   0.11  -0.19
  36   1     0.02   0.06  -0.05    -0.09   0.07  -0.05     0.03   0.02  -0.07
  37   1     0.02   0.06  -0.04    -0.09   0.03  -0.05     0.03   0.05  -0.05
  38   6     0.04   0.15  -0.18    -0.08   0.09   0.04     0.08   0.11   0.16
  39   8     0.00   0.04   0.03     0.04   0.07   0.02     0.04   0.25   0.03
  40   7     0.05   0.16  -0.27    -0.12   0.22   0.13     0.10   0.12   0.06
  41   1     0.01   0.01  -0.04    -0.01   0.07   0.05     0.01   0.06  -0.03
  42   1     0.02   0.07  -0.13    -0.06   0.06   0.05     0.04   0.01   0.06
  43   7     0.08   0.31  -0.39    -0.21   0.02  -0.01     0.13  -0.01   0.46
  44   1     0.03   0.11  -0.14    -0.08   0.02   0.00     0.05  -0.03   0.14
  45   1     0.02   0.09  -0.08    -0.05  -0.02  -0.02     0.04  -0.01   0.14
  46   6    -0.06  -0.14   0.08     0.13   0.01   0.06    -0.06  -0.10  -0.08
  47   8    -0.01  -0.10   0.12     0.04  -0.17  -0.08    -0.03  -0.15  -0.20
  48   7    -0.12  -0.22   0.07     0.21   0.02   0.17    -0.13  -0.29  -0.04
  49   1    -0.03  -0.06   0.02     0.04  -0.03   0.03    -0.04  -0.12  -0.03
  50   1    -0.04  -0.07   0.01     0.08   0.05   0.07    -0.04  -0.07   0.01
  51   7    -0.08  -0.15   0.09     0.20   0.21   0.14    -0.05   0.09  -0.01
  52   1    -0.03  -0.05   0.02     0.08   0.08   0.07    -0.02   0.03   0.03
  53   1    -0.01  -0.03   0.03     0.04   0.05   0.03    -0.01   0.06  -0.01
                      4                      5                      6
                        a                      a                      a 
 Frequencies --    27.4905                33.7600                35.0271
 Red. masses --    11.8573                11.8432                11.8668
 Frc consts  --     0.0000                 0.0000                 0.0000
 IR Inten    --     3.6737                 2.7049                 0.8414
 Raman Activ --     0.0000                 0.0000                 0.0000
 Depolar     --     0.0000                 0.0000                 0.0000
 Atom AN      X      Y      Z        X      Y      Z        X      Y      Z
   1   8     0.04   0.21  -0.13     0.02  -0.18  -0.08    -0.08   0.02   0.02
   2   6     0.03   0.16  -0.09     0.04  -0.07  -0.13    -0.03   0.01   0.02
   3   1     0.01   0.05  -0.03     0.01  -0.01  -0.04    -0.00   0.01  -0.01
   4   1    -0.00   0.05  -0.02     0.01  -0.03  -0.06    -0.02   0.00   0.01
   5   6     0.05   0.11  -0.08     0.04   0.02  -0.11     0.01  -0.01   0.06
   6   1     0.01   0.03  -0.02     0.01  -0.00  -0.03    -0.00  -0.00   0.03
   7   1     0.01   0.03  -0.02     0.02   0.02  -0.05     0.01  -0.01   0.02
   8   7     0.08   0.10  -0.14     0.04   0.07  -0.01     0.05  -0.02   0.04
   9   6     0.06   0.11  -0.14     0.02   0.00   0.07     0.01  -0.01   0.04
  10   1     0.01   0.03  -0.03     0.01  -0.00   0.01     0.00   0.00   0.02
  11   1     0.02   0.03  -0.05     0.01   0.01   0.04     0.00  -0.00   0.01
  12   1     0.01   0.04  -0.05     0.00  -0.02   0.02    -0.00  -0.00   0.01
  13   6     0.10   0.05  -0.10     0.05   0.16  -0.01     0.09  -0.04   0.07
  14   1     0.04   0.01  -0.04     0.02   0.06   0.02     0.03  -0.02   0.02
  15   1     0.03   0.01  -0.02     0.01   0.04  -0.01     0.02  -0.01   0.03
  16   1     0.03   0.01  -0.03     0.02   0.06  -0.02     0.03  -0.02   0.02
  17   6     0.09   0.08  -0.17     0.04   0.09   0.00     0.06  -0.02  -0.02
  18   1     0.03   0.02  -0.06     0.01   0.04   0.02     0.03  -0.01  -0.01
  19   1     0.03   0.02  -0.04     0.01   0.04  -0.02     0.02  -0.01  -0.00
  20   1     0.02   0.04  -0.06     0.01   0.01   0.00     0.01   0.00  -0.01
  21   1     0.01   0.04  -0.02     0.01  -0.04  -0.02    -0.02   0.01   0.01
  22   6     0.01  -0.12   0.01     0.07   0.03   0.04    -0.05  -0.02  -0.09
  23   8     0.06   0.22  -0.05     0.06   0.12   0.01     0.02   0.17  -0.11
  24   7    -0.04  -0.27   0.07     0.10  -0.12   0.07    -0.14  -0.15  -0.02
  25   1     0.00  -0.02   0.00     0.03  -0.04   0.01    -0.03  -0.02   0.00
  26   1    -0.01  -0.14   0.02     0.03  -0.05   0.02    -0.05  -0.07  -0.01
  27   7    -0.00  -0.42   0.04     0.08   0.08   0.06    -0.07  -0.12  -0.17
  28   1    -0.02  -0.18   0.03     0.03   0.01   0.03    -0.04  -0.07  -0.04
  29   1     0.00  -0.08   0.01     0.02   0.06   0.01    -0.00  -0.00  -0.06
  30   6    -0.05   0.01   0.09     0.07   0.01   0.07    -0.08   0.02   0.06
  31   8    -0.04  -0.01   0.03     0.03   0.15  -0.09    -0.03  -0.10   0.13
  32   7    -0.04   0.12   0.06     0.10  -0.05   0.15    -0.11   0.22  -0.10
  33   1    -0.00   0.05  -0.00     0.02   0.01   0.01    -0.02   0.06  -0.03
  34   1    -0.02   0.04   0.03     0.04  -0.03   0.07    -0.04   0.08  -0.03
  35   7    -0.10  -0.08   0.22     0.12  -0.10   0.21    -0.13  -0.03   0.14
  36   1    -0.03  -0.02   0.07     0.03  -0.06   0.08    -0.04   0.02   0.02
  37   1    -0.03  -0.04   0.06     0.02  -0.02   0.04    -0.03  -0.05   0.06
  38   6    -0.00  -0.00   0.08    -0.14   0.05  -0.00     0.05  -0.01  -0.06
  39   8    -0.04   0.06   0.01    -0.01  -0.01  -0.00    -0.03   0.01  -0.04
  40   7     0.00  -0.17   0.28    -0.19   0.35  -0.15     0.08   0.14  -0.50
  41   1     0.00  -0.06   0.09    -0.03   0.13  -0.05    -0.00   0.07  -0.20
  42   1     0.01  -0.06   0.09    -0.08   0.10  -0.03     0.03   0.03  -0.13
  43   7     0.03   0.08  -0.02    -0.30  -0.15   0.13     0.12  -0.18   0.34
  44   1     0.01   0.01   0.01    -0.11  -0.03   0.03     0.06  -0.06   0.08
  45   1     0.00   0.06  -0.05    -0.07  -0.10   0.06     0.04  -0.08   0.17
  46   6    -0.05  -0.05   0.01    -0.06  -0.10  -0.05     0.06   0.03   0.04
  47   8     0.01  -0.00   0.01    -0.01  -0.08  -0.07     0.10   0.07   0.05
  48   7    -0.08  -0.12   0.03    -0.19  -0.29  -0.11     0.12   0.08   0.09
  49   1    -0.01  -0.03   0.01    -0.06  -0.10  -0.04     0.04   0.03   0.03
  50   1    -0.03  -0.04   0.01    -0.05  -0.08  -0.03     0.02   0.01   0.02
  51   7    -0.11  -0.05   0.01     0.00   0.01  -0.01    -0.01  -0.03   0.02
  52   1    -0.05  -0.02   0.00    -0.01   0.00   0.01    -0.00  -0.01   0.00
  53   1    -0.02   0.00  -0.00     0.01   0.03   0.01    -0.01  -0.01  -0.01
                      7                      8                      9
                        a                      a                      a 
 Frequencies --    40.1789                45.6373                55.1466
 Red. masses --    12.3460                12.3351                12.1847
 Frc consts  --     0.0000                 0.0000                 0.0000
 IR Inten    --     3.3821                 3.9075                 0.5814
 Raman Activ --     0.0000                 0.0000                 0.0000
 Depolar     --     0.0000                 0.0000                 0.0000
 Atom AN      X      Y      Z        X      Y      Z        X      Y      Z
   1   8     0.07  -0.06  -0.02     0.01  -0.10   0.15     0.01  -0.18  -0.04
   2   6     0.08  -0.06  -0.02     0.01  -0.06   0.11     0.03  -0.11  -0.08
   3   1     0.02  -0.03  -0.00     0.00  -0.02   0.03     0.01  -0.04  -0.01
   4   1     0.04  -0.02  -0.01     0.00  -0.02   0.03     0.02  -0.03  -0.04
   5   6     0.07  -0.01  -0.03     0.02  -0.05   0.12    -0.01  -0.02  -0.10
   6   1     0.02   0.02  -0.00     0.01  -0.01   0.04     0.00  -0.01  -0.04
   7   1     0.03  -0.01  -0.00     0.01  -0.02   0.03    -0.00   0.01  -0.04
   8   7    -0.02  -0.03  -0.06     0.01  -0.05   0.13    -0.05   0.02  -0.03
   9   6    -0.19   0.06  -0.04    -0.00  -0.04   0.12    -0.10  -0.01   0.04
  10   1    -0.05   0.05   0.02     0.00  -0.01   0.03    -0.03  -0.00   0.02
  11   1    -0.07   0.02  -0.02    -0.01  -0.01   0.03    -0.03   0.00   0.02
  12   1    -0.08   0.01  -0.03     0.00  -0.02   0.03    -0.04  -0.02   0.01
  13   6     0.10   0.03   0.02     0.01  -0.04   0.12    -0.03   0.12  -0.02
  14   1     0.01   0.01  -0.00    -0.00  -0.01   0.03    -0.02   0.04   0.01
  15   1     0.03   0.05   0.03     0.01  -0.00   0.03    -0.01   0.04  -0.01
  16   1     0.07  -0.01   0.00     0.01  -0.02   0.04     0.00   0.04  -0.02
  17   6    -0.02  -0.17  -0.19     0.01  -0.06   0.11    -0.06  -0.01  -0.02
  18   1    -0.02  -0.05  -0.06     0.00  -0.02   0.03    -0.03   0.01   0.01
  19   1     0.04  -0.07  -0.06     0.00  -0.02   0.04    -0.01   0.00  -0.02
  20   1    -0.03  -0.07  -0.07     0.00  -0.01   0.03    -0.02  -0.03  -0.01
  21   1     0.01  -0.01   0.00     0.01  -0.01   0.02     0.01  -0.03  -0.01
  22   6     0.14   0.01   0.07    -0.04  -0.00  -0.10    -0.01  -0.01  -0.06
  23   8     0.11  -0.04   0.06     0.05   0.04  -0.07     0.06   0.06  -0.06
  24   7     0.20   0.04   0.04    -0.14  -0.15  -0.01    -0.08  -0.41   0.07
  25   1     0.05   0.00   0.00    -0.04  -0.05   0.02    -0.03  -0.13   0.03
  26   1     0.06   0.02   0.01    -0.06  -0.05  -0.02    -0.04  -0.11   0.01
  27   7     0.15   0.04   0.12    -0.05   0.11  -0.26    -0.01   0.31  -0.23
  28   1     0.05   0.02   0.04    -0.03   0.02  -0.07    -0.01   0.06  -0.06
  29   1     0.03   0.00   0.04     0.01   0.06  -0.08     0.02   0.15  -0.08
  30   6    -0.01  -0.06  -0.10    -0.01   0.01   0.04    -0.07  -0.02  -0.03
  31   8     0.09  -0.30  -0.02     0.04  -0.14   0.19    -0.11   0.09  -0.19
  32   7     0.02   0.09  -0.14    -0.08   0.23  -0.21     0.00  -0.18   0.18
  33   1     0.03   0.00  -0.02    -0.02   0.05  -0.04     0.00  -0.03   0.03
  34   1    -0.02   0.06  -0.06    -0.03   0.08  -0.06     0.00  -0.06   0.07
  35   7    -0.18   0.03  -0.22    -0.02  -0.05   0.11    -0.09  -0.00  -0.06
  36   1    -0.06   0.05  -0.07    -0.01   0.02  -0.01    -0.03  -0.02   0.02
  37   1    -0.05  -0.02  -0.05     0.01  -0.05   0.07    -0.04   0.03  -0.05
  38   6     0.02   0.05   0.08     0.03   0.07   0.04     0.15   0.08   0.08
  39   8     0.00   0.03   0.14     0.16   0.10  -0.07     0.05   0.15   0.08
  40   7     0.03   0.09  -0.01     0.01   0.07   0.31     0.19  -0.06   0.08
  41   1     0.00   0.03  -0.01     0.03   0.03   0.11     0.03  -0.03   0.01
  42   1     0.01   0.03  -0.02    -0.02   0.02   0.10     0.07  -0.02   0.02
  43   7     0.04   0.03   0.14    -0.07   0.06  -0.09     0.27   0.16   0.12
  44   1     0.02   0.01   0.03    -0.05   0.01  -0.00     0.09   0.03   0.04
  45   1     0.01   0.00   0.06    -0.02   0.02  -0.08     0.07   0.07   0.04
  46   6    -0.15   0.06   0.05     0.02   0.02  -0.16    -0.04   0.00   0.06
  47   8    -0.03   0.29   0.23     0.08   0.12  -0.11    -0.09  -0.07   0.01
  48   7    -0.31  -0.03  -0.08    -0.16  -0.15  -0.31    -0.01   0.01   0.11
  49   1    -0.07   0.02  -0.01    -0.05  -0.04  -0.09    -0.01  -0.01   0.02
  50   1    -0.10  -0.05  -0.05    -0.04  -0.05  -0.10     0.00   0.02   0.04
  51   7    -0.18  -0.09  -0.00     0.13   0.07  -0.15    -0.02   0.08   0.09
  52   1    -0.07  -0.05  -0.03     0.02   0.01  -0.05     0.00   0.03   0.04
  53   1    -0.03   0.00   0.02     0.05   0.05  -0.02    -0.01   0.02   0.02
                     10                     11                     12
                        a                      a                      a 
 Frequencies --    57.6418                62.3412                67.8460
 Red. masses --    12.3885                12.8939                12.7868
 Frc consts  --     0.0000                 0.0000                 0.0000
 IR Inten    --     5.2691                 0.4758                 3.8919
 Raman Activ --     0.0000                 0.0000                 0.0000
 Depolar     --     0.0000                 0.0000                 0.0000
 Atom AN      X      Y      Z        X      Y      Z        X      Y      Z
   1   8    -0.03   0.15   0.06     0.05  -0.06  -0.03    -0.15  -0.00  -0.14
   2   6    -0.06   0.10   0.08     0.11  -0.04  -0.05     0.02  -0.08  -0.08
   3   1    -0.01   0.05   0.01     0.03  -0.02  -0.02     0.01  -0.05  -0.04
   4   1    -0.04   0.03   0.03     0.04  -0.01  -0.02     0.02  -0.01  -0.00
   5   6    -0.02  -0.01   0.10     0.13   0.03  -0.02     0.09  -0.04  -0.01
   6   1    -0.01  -0.01   0.04     0.04   0.01  -0.00     0.02  -0.00   0.02
   7   1    -0.01  -0.02   0.04     0.04   0.02  -0.01     0.05  -0.01  -0.00
   8   7     0.06  -0.06   0.00     0.11   0.07   0.06     0.09  -0.04   0.00
   9   6     0.05  -0.01  -0.04     0.10   0.03   0.09     0.15  -0.05  -0.03
  10   1     0.01  -0.00  -0.00     0.03   0.01   0.01     0.05  -0.02  -0.03
  11   1     0.02  -0.01  -0.03     0.02   0.02   0.04     0.04  -0.01  -0.01
  12   1     0.01   0.02  -0.02     0.03  -0.01   0.03     0.06  -0.02   0.00
  13   6     0.10  -0.17   0.04     0.09   0.15   0.04     0.00  -0.04  -0.05
  14   1     0.04  -0.06  -0.01     0.02   0.05   0.03    -0.01  -0.01  -0.02
  15   1     0.02  -0.05   0.03     0.03   0.04   0.00     0.01  -0.01  -0.03
  16   1     0.03  -0.06   0.03     0.02   0.05  -0.00    -0.01  -0.01  -0.01
  17   6     0.09  -0.04  -0.08     0.08   0.06   0.10     0.05  -0.01   0.10
  18   1     0.04  -0.02  -0.04     0.02   0.01   0.02     0.01  -0.00   0.03
  19   1     0.03  -0.02  -0.02     0.01   0.01   0.05    -0.00  -0.00   0.04
  20   1     0.01   0.01  -0.04     0.04   0.03   0.04     0.04   0.00   0.05
  21   1    -0.01   0.03   0.01     0.01  -0.02   0.00    -0.04   0.02  -0.01
  22   6    -0.07   0.05   0.01     0.07  -0.06  -0.16    -0.00  -0.04   0.10
  23   8     0.02   0.22   0.02     0.09  -0.21  -0.13    -0.07  -0.17   0.11
  24   7    -0.16  -0.11   0.11     0.07   0.18  -0.22     0.06  -0.20   0.10
  25   1    -0.04  -0.01   0.04     0.02   0.04  -0.05     0.01  -0.08   0.02
  26   1    -0.06  -0.05   0.02     0.02   0.07  -0.06     0.02  -0.02   0.03
  27   7    -0.08   0.01  -0.08     0.07  -0.13  -0.17     0.01   0.25   0.11
  28   1    -0.04  -0.03  -0.02     0.01  -0.01  -0.06     0.02   0.09   0.03
  29   1    -0.00   0.03  -0.04     0.02  -0.08  -0.04    -0.00   0.09   0.03
  30   6     0.05  -0.03   0.04    -0.24  -0.02   0.08     0.03   0.01   0.04
  31   8     0.09  -0.10   0.04    -0.36   0.10   0.16     0.03  -0.02   0.16
  32   7     0.20  -0.29   0.44    -0.29  -0.26   0.17    -0.02   0.03  -0.05
  33   1     0.06  -0.07   0.11    -0.09  -0.07   0.05    -0.01  -0.01   0.00
  34   1     0.02  -0.02   0.06    -0.06  -0.09   0.03    -0.00   0.01  -0.03
  35   7    -0.12   0.27  -0.31    -0.14   0.07  -0.05     0.08   0.03   0.01
  36   1    -0.04   0.08  -0.05    -0.03  -0.00  -0.02     0.02   0.02  -0.02
  37   1    -0.05   0.11  -0.12    -0.03   0.07  -0.03     0.03   0.01   0.02
  38   6    -0.06  -0.01  -0.04    -0.01   0.00   0.02    -0.11   0.06  -0.03
  39   8     0.01  -0.01  -0.10     0.02  -0.03   0.05    -0.22   0.18  -0.14
  40   7    -0.08   0.05  -0.01    -0.02   0.04   0.02    -0.10  -0.10   0.00
  41   1    -0.01   0.03  -0.00     0.00   0.01   0.01    -0.04  -0.04  -0.01
  42   1    -0.03   0.01   0.01    -0.01   0.02  -0.00    -0.00  -0.05   0.02
  43   7    -0.12  -0.09  -0.01    -0.04   0.01  -0.03    -0.03   0.10   0.05
  44   1    -0.05  -0.02   0.00    -0.02   0.01  -0.01     0.01   0.00   0.03
  45   1    -0.03  -0.03  -0.02    -0.01  -0.01  -0.00    -0.01   0.06   0.00
  46   6     0.04   0.02  -0.05     0.03   0.02   0.02     0.02   0.04  -0.07
  47   8     0.12   0.13   0.01     0.16   0.18   0.10     0.29   0.21  -0.17
  48   7    -0.02  -0.03  -0.12    -0.04  -0.05  -0.02     0.14  -0.02   0.14
  49   1     0.00   0.01  -0.02     0.01   0.01   0.01     0.11   0.01   0.06
  50   1    -0.01  -0.02  -0.04    -0.03  -0.04  -0.01    -0.02  -0.05   0.06
  51   7     0.03  -0.04  -0.08    -0.05  -0.08  -0.02    -0.37  -0.10  -0.17
  52   1    -0.01  -0.02  -0.04    -0.04  -0.04  -0.02    -0.15  -0.05  -0.04
  53   1     0.01   0.00  -0.02    -0.00  -0.00   0.00    -0.10   0.01  -0.07
                     13                     14                     15
                        a                      a                      a 
 Frequencies --    75.0324                80.2200                84.3019
 Red. masses --    12.8108                12.2015                13.5797
 Frc consts  --     0.0000                 0.0000                 0.0000
 IR Inten    --    14.6245                 4.0176                 4.0825
 Raman Activ --     0.0000                 0.0000                 0.0000
 Depolar     --     0.0000                 0.0000                 0.0000
 Atom AN      X      Y      Z        X      Y      Z        X      Y      Z
   1   8     0.19   0.27   0.03     0.06  -0.01   0.06     0.04   0.06  -0.01
   2   6     0.11   0.18   0.07     0.02  -0.08   0.11    -0.06   0.05   0.00
   3   1     0.03   0.05   0.03     0.00  -0.03   0.04    -0.02   0.04   0.01
   4   1     0.03   0.06   0.03     0.01  -0.02   0.05    -0.05   0.01   0.00
   5   6     0.07   0.12   0.02    -0.04  -0.13   0.04    -0.05  -0.06  -0.01
   6   1     0.02   0.05  -0.00    -0.00  -0.05  -0.01    -0.02  -0.04   0.00
   7   1     0.01   0.02   0.02    -0.03  -0.04   0.02    -0.03  -0.02   0.00
   8   7     0.02   0.08  -0.09    -0.02  -0.16   0.01     0.09  -0.09  -0.04
   9   6     0.11   0.13  -0.20     0.17  -0.17  -0.08     0.11  -0.10  -0.04
  10   1     0.04   0.04  -0.08     0.05  -0.07  -0.06     0.02  -0.05   0.01
  11   1     0.02   0.03  -0.07     0.05  -0.05  -0.03     0.06  -0.04  -0.02
  12   1     0.06   0.05  -0.04     0.08  -0.03  -0.00     0.02  -0.00  -0.02
  13   6    -0.08  -0.02  -0.15    -0.19  -0.24  -0.11     0.13  -0.18   0.01
  14   1    -0.02  -0.02  -0.06    -0.06  -0.07  -0.04     0.06  -0.06  -0.01
  15   1    -0.02  -0.01  -0.06    -0.05  -0.08  -0.07     0.03  -0.06   0.02
  16   1    -0.05  -0.02  -0.02    -0.10  -0.07  -0.01     0.04  -0.05   0.00
  17   6    -0.01   0.06   0.01    -0.03  -0.03   0.18     0.13  -0.00  -0.11
  18   1    -0.01  -0.00  -0.03    -0.01  -0.00   0.06     0.06   0.00  -0.02
  19   1    -0.03  -0.00   0.04    -0.05   0.01   0.05     0.03   0.01  -0.04
  20   1     0.03   0.05   0.02     0.02  -0.01   0.07     0.03   0.01  -0.04
  21   1     0.03   0.03   0.02     0.01  -0.01   0.03     0.02   0.01  -0.01
  22   6     0.00  -0.09   0.02     0.14   0.02  -0.07    -0.14  -0.04   0.08
  23   8     0.03  -0.26   0.08     0.24   0.17  -0.07    -0.17  -0.18   0.12
  24   7    -0.04  -0.30   0.09     0.06   0.01  -0.03    -0.13  -0.01   0.07
  25   1    -0.01  -0.09   0.04     0.02   0.02   0.00    -0.04  -0.01   0.02
  26   1    -0.03  -0.03   0.01     0.00  -0.02  -0.01    -0.03   0.03   0.02
  27   7     0.01   0.28  -0.12     0.14  -0.13  -0.15    -0.15   0.08   0.08
  28   1     0.00   0.09  -0.04     0.01  -0.06  -0.04    -0.03   0.05   0.01
  29   1     0.02   0.10  -0.04     0.05  -0.03  -0.05    -0.04   0.01   0.02
  30   6    -0.02  -0.02   0.03     0.02   0.09  -0.01    -0.06   0.05  -0.13
  31   8    -0.04  -0.05   0.20     0.01   0.19  -0.19    -0.15   0.29  -0.40
  32   7    -0.11   0.00  -0.12     0.07   0.08   0.09    -0.06  -0.00  -0.10
  33   1    -0.03  -0.03  -0.00     0.03   0.04   0.01    -0.02   0.01  -0.04
  34   1    -0.02  -0.01  -0.05     0.03   0.01   0.06     0.02  -0.06   0.04
  35   7     0.06   0.02  -0.03     0.00   0.00   0.12     0.04  -0.15   0.12
  36   1     0.02   0.01  -0.04    -0.00  -0.02   0.06     0.02  -0.08   0.07
  37   1     0.04   0.01   0.02    -0.02   0.00   0.01    -0.00  -0.02   0.00
  38   6    -0.03  -0.10   0.03    -0.03   0.00   0.09     0.06   0.02  -0.00
  39   8     0.04  -0.27   0.24    -0.05  -0.10   0.28     0.12   0.04  -0.06
  40   7    -0.05   0.07  -0.10    -0.03   0.04  -0.02     0.05   0.07   0.05
  41   1    -0.00   0.01  -0.01    -0.01  -0.01   0.01     0.02   0.04   0.00
  42   1    -0.03   0.05  -0.07    -0.00   0.03  -0.05    -0.00   0.02   0.02
  43   7    -0.10  -0.11  -0.07    -0.01   0.07  -0.00     0.01  -0.04   0.03
  44   1    -0.04   0.01  -0.06     0.00   0.05  -0.03    -0.01  -0.01   0.02
  45   1    -0.02  -0.06   0.00    -0.00   0.02   0.02     0.00  -0.02  -0.00
  46   6    -0.04  -0.02   0.04    -0.12   0.10  -0.05     0.05   0.07   0.09
  47   8    -0.12  -0.06   0.09    -0.11   0.16  -0.03     0.16   0.27   0.29
  48   7    -0.05   0.05  -0.02    -0.07   0.20  -0.04    -0.11  -0.02  -0.09
  49   1    -0.03   0.02  -0.01    -0.01   0.08   0.00    -0.02   0.04  -0.00
  50   1     0.00   0.02  -0.02    -0.03   0.04  -0.02    -0.04  -0.03  -0.05
  51   7     0.05  -0.03   0.05    -0.23  -0.04  -0.12     0.09  -0.08   0.04
  52   1     0.04  -0.00   0.00    -0.06  -0.01  -0.04    -0.00  -0.05  -0.03
  53   1     0.02  -0.03   0.03    -0.05  -0.01  -0.02     0.04  -0.00   0.03
                     16                     17                     18
                        a                      a                      a 
 Frequencies --    98.4826               104.8132               105.9106
 Red. masses --    12.6909                12.9557                13.6323
 Frc consts  --     0.0000                 0.0000                 0.0000
 IR Inten    --    14.9723                 4.6176                 6.8124
 Raman Activ --     0.0000                 0.0000                 0.0000
 Depolar     --     0.0000                 0.0000                 0.0000
 Atom AN      X      Y      Z        X      Y      Z        X      Y      Z
   1   8     0.04   0.14   0.14    -0.12   0.10  -0.01     0.12  -0.13   0.01
   2   6     0.03   0.09   0.14     0.01  -0.00   0.05     0.07  -0.02  -0.06
   3   1     0.00   0.01   0.05     0.00  -0.03   0.00     0.02   0.01  -0.01
   4   1     0.03   0.03   0.05     0.03   0.01   0.04     0.01  -0.01  -0.04
   5   6    -0.02   0.08   0.09     0.02   0.02   0.06     0.05   0.00  -0.08
   6   1     0.00   0.03   0.01     0.01   0.02   0.02     0.02  -0.01  -0.03
   7   1    -0.01   0.02   0.03     0.02  -0.00   0.02     0.01   0.01  -0.03
   8   7    -0.06   0.07   0.05    -0.04   0.00   0.02     0.06   0.02  -0.04
   9   6    -0.18   0.13   0.06    -0.06   0.05  -0.02    -0.01  -0.00   0.03
  10   1    -0.05   0.05   0.04    -0.01   0.03  -0.01     0.01   0.01  -0.00
  11   1    -0.06   0.03   0.01    -0.03   0.01  -0.01    -0.02   0.01   0.03
  12   1    -0.07   0.04   0.00    -0.01   0.01  -0.00    -0.00  -0.03   0.01
  13   6     0.03   0.08   0.11    -0.05   0.00   0.00     0.12   0.09  -0.00
  14   1     0.00   0.02   0.03    -0.03  -0.00  -0.01     0.03   0.03   0.01
  15   1     0.01   0.04   0.05    -0.01   0.01  -0.00     0.03   0.03   0.01
  16   1     0.03   0.01   0.03    -0.01  -0.01   0.01     0.05   0.03  -0.01
  17   6    -0.06  -0.05  -0.07    -0.06  -0.05   0.03     0.06  -0.01  -0.09
  18   1    -0.03  -0.01  -0.01    -0.03  -0.01   0.01     0.02   0.00  -0.02
  19   1     0.02  -0.02  -0.04    -0.01  -0.02   0.00     0.04  -0.00  -0.04
  20   1    -0.04  -0.04  -0.04    -0.02  -0.03   0.01     0.00  -0.02  -0.03
  21   1     0.02   0.04   0.02    -0.04   0.03   0.01     0.01  -0.07   0.03
  22   6     0.09  -0.04   0.04     0.10  -0.05   0.03    -0.19   0.03   0.04
  23   8     0.26  -0.17   0.16     0.25  -0.18   0.14    -0.17  -0.04   0.09
  24   7    -0.06   0.05   0.10    -0.02   0.05   0.07    -0.24   0.17   0.03
  25   1    -0.02   0.02   0.06    -0.00   0.01   0.04    -0.07   0.03   0.01
  26   1    -0.04   0.04   0.01    -0.03   0.04   0.01    -0.07   0.05   0.01
  27   7     0.09  -0.01  -0.19     0.10  -0.01  -0.16    -0.21  -0.02   0.00
  28   1    -0.01   0.01  -0.08    -0.00   0.01  -0.07    -0.07   0.01  -0.01
  29   1     0.06  -0.03  -0.07     0.06  -0.03  -0.06    -0.05  -0.03  -0.00
  30   6    -0.04  -0.01  -0.09    -0.00   0.04  -0.01     0.02  -0.02  -0.01
  31   8    -0.04   0.03  -0.31     0.02   0.04  -0.16     0.07  -0.08  -0.07
  32   7     0.01   0.05  -0.01     0.06   0.10   0.07     0.07   0.05   0.03
  33   1     0.03   0.01   0.00     0.04   0.02   0.02     0.03   0.01   0.01
  34   1     0.02  -0.01   0.06     0.02   0.01   0.06     0.01   0.02   0.02
  35   7    -0.14  -0.11   0.04    -0.11  -0.01   0.07    -0.09  -0.02   0.01
  36   1    -0.05  -0.03   0.04    -0.04   0.00   0.04    -0.03   0.01   0.02
  37   1    -0.06  -0.04  -0.02    -0.05  -0.01  -0.01    -0.03  -0.02  -0.01
  38   6    -0.04   0.06  -0.00    -0.07  -0.12  -0.09     0.02  -0.04   0.16
  39   8     0.04   0.08  -0.08    -0.20  -0.10  -0.09     0.00  -0.26   0.53
  40   7    -0.06   0.12   0.06    -0.05  -0.26  -0.14     0.03   0.06  -0.03
  41   1    -0.00   0.04   0.03    -0.03  -0.08  -0.05     0.00  -0.02   0.03
  42   1    -0.03   0.02   0.04     0.01  -0.08  -0.04     0.01   0.05  -0.08
  43   7    -0.12  -0.01   0.02     0.03  -0.05  -0.08     0.04   0.10  -0.05
  44   1    -0.05  -0.00   0.02     0.03  -0.02  -0.03     0.02   0.07  -0.07
  45   1    -0.03  -0.01  -0.02     0.00   0.01  -0.01     0.01   0.01   0.04
  46   6     0.05  -0.14  -0.08     0.06   0.11   0.04     0.04   0.02  -0.11
  47   8     0.07  -0.18  -0.13     0.19   0.16  -0.06     0.17   0.04  -0.29
  48   7     0.27   0.05   0.07    -0.15  -0.28   0.06     0.09  -0.10   0.04
  49   1     0.10   0.03   0.03    -0.03  -0.13  -0.00     0.06  -0.05   0.01
  50   1     0.06   0.00   0.03    -0.05  -0.06   0.04    -0.00  -0.03   0.04
  51   7    -0.14  -0.31  -0.17     0.14   0.43   0.18    -0.12   0.13  -0.11
  52   1    -0.04  -0.08  -0.03     0.00   0.10   0.06    -0.04   0.04   0.00
  53   1    -0.03  -0.06  -0.04     0.01   0.09   0.01    -0.03   0.05  -0.04
                     19                     20                     21
                        a                      a                      a 
 Frequencies --   112.4441               117.0369               138.0192
 Red. masses --    12.2295                12.4222                11.8505
 Frc consts  --     0.0000                 0.0000                 0.0000
 IR Inten    --     8.3841                17.6706                21.4776
 Raman Activ --     0.0000                 0.0000                 0.0000
 Depolar     --     0.0000                 0.0000                 0.0000
 Atom AN      X      Y      Z        X      Y      Z        X      Y      Z
   1   8     0.04  -0.13  -0.16    -0.13   0.01  -0.05     0.03   0.15  -0.06
   2   6     0.14  -0.15  -0.12    -0.07   0.02  -0.07     0.18  -0.01   0.05
   3   1     0.03  -0.08  -0.03    -0.01   0.02  -0.04     0.05  -0.06   0.00
   4   1     0.08  -0.04  -0.03    -0.04   0.00  -0.02     0.09   0.01   0.05
   5   6     0.11  -0.03  -0.12     0.02  -0.04   0.02     0.20   0.04   0.07
   6   1     0.04   0.01  -0.04    -0.01  -0.03   0.03     0.06   0.02   0.02
   7   1     0.05  -0.01  -0.04     0.01  -0.00  -0.00     0.07   0.02   0.01
   8   7    -0.01  -0.01  -0.10     0.20  -0.04   0.04     0.15   0.08   0.14
   9   6     0.04  -0.01  -0.12     0.12  -0.07   0.12     0.26   0.04   0.09
  10   1     0.02  -0.00  -0.05     0.02  -0.04   0.07     0.08   0.00  -0.01
  11   1     0.00  -0.00  -0.03     0.07  -0.02   0.04     0.07   0.01   0.03
  12   1     0.03  -0.01  -0.02     0.00  -0.01   0.01     0.10   0.01   0.05
  13   6    -0.11   0.06  -0.18     0.31  -0.06   0.14    -0.03   0.16   0.00
  14   1    -0.06   0.02  -0.05     0.12  -0.02   0.05    -0.03   0.06   0.02
  15   1    -0.02   0.03  -0.08     0.07  -0.04   0.07     0.00   0.04  -0.04
  16   1    -0.04   0.02  -0.04     0.10  -0.01   0.02    -0.03   0.06   0.00
  17   6    -0.07  -0.04   0.06     0.26   0.04  -0.11     0.06   0.03   0.34
  18   1    -0.05   0.00   0.03     0.11   0.01  -0.03    -0.02   0.01   0.11
  19   1    -0.02  -0.01   0.01     0.08   0.02  -0.04     0.00   0.01   0.10
  20   1     0.00  -0.04   0.04     0.05   0.02  -0.05     0.05  -0.01   0.13
  21   1     0.02  -0.00  -0.04    -0.04   0.00  -0.00    -0.00   0.06   0.01
  22   6    -0.12  -0.04  -0.00     0.04  -0.08   0.04    -0.08   0.05   0.01
  23   8    -0.01  -0.25   0.12     0.10  -0.28   0.12    -0.12   0.15  -0.03
  24   7    -0.21   0.18  -0.01    -0.01   0.03   0.04    -0.05  -0.00   0.00
  25   1    -0.06   0.03   0.01    -0.00  -0.00   0.02    -0.01   0.01  -0.01
  26   1    -0.07   0.08  -0.01    -0.01   0.05   0.00    -0.00  -0.03   0.01
  27   7    -0.13  -0.03  -0.15     0.04   0.02  -0.07    -0.09   0.01   0.09
  28   1    -0.06   0.03  -0.07     0.00   0.04  -0.04    -0.01  -0.00   0.03
  29   1    -0.01  -0.06  -0.05     0.03  -0.02  -0.03    -0.03   0.02   0.03
  30   6     0.08   0.10   0.14    -0.01   0.03   0.05    -0.02  -0.16  -0.16
  31   8     0.19  -0.04   0.08     0.01   0.01   0.04     0.03  -0.26  -0.32
  32   7     0.17   0.25   0.23     0.00   0.05   0.05     0.06  -0.06  -0.06
  33   1     0.07   0.05   0.08     0.01  -0.00   0.03     0.04  -0.00  -0.03
  34   1     0.03   0.09   0.07     0.01   0.00   0.03     0.00   0.00   0.01
  35   7    -0.14   0.16   0.13    -0.03   0.04   0.04    -0.24  -0.22  -0.09
  36   1    -0.06   0.07   0.06    -0.01   0.02   0.01    -0.09  -0.03   0.00
  37   1    -0.06   0.01   0.02    -0.01   0.01   0.00    -0.09  -0.09  -0.05
  38   6     0.03   0.03  -0.04    -0.04   0.02  -0.00    -0.04  -0.01  -0.03
  39   8     0.09   0.09  -0.17    -0.12   0.06  -0.01    -0.08   0.03  -0.08
  40   7     0.02   0.04   0.06    -0.02  -0.07  -0.04    -0.04  -0.05  -0.04
  41   1     0.01   0.03   0.00    -0.02  -0.03  -0.01    -0.02  -0.02  -0.01
  42   1    -0.01   0.01   0.04     0.01  -0.03  -0.00    -0.00  -0.03   0.01
  43   7    -0.02  -0.05   0.02     0.04   0.07   0.03    -0.02  -0.00  -0.00
  44   1    -0.02  -0.03   0.03     0.03   0.01   0.01     0.00  -0.01   0.00
  45   1    -0.00  -0.02  -0.01     0.01   0.04   0.02    -0.01   0.01   0.00
  46   6    -0.02  -0.04   0.08    -0.18   0.03  -0.09    -0.05   0.00   0.01
  47   8    -0.08  -0.03   0.21    -0.44  -0.18  -0.14    -0.12  -0.04   0.04
  48   7    -0.02   0.07  -0.00    -0.11   0.22  -0.11    -0.06   0.06  -0.04
  49   1    -0.02   0.04   0.01    -0.08   0.04  -0.05    -0.04   0.01  -0.02
  50   1     0.00   0.01  -0.02     0.00   0.09  -0.04    -0.01   0.01  -0.03
  51   7     0.04  -0.17   0.05    -0.04   0.14  -0.04     0.03   0.01   0.02
  52   1     0.01  -0.05  -0.01     0.04   0.07   0.01     0.02   0.01   0.00
  53   1     0.02  -0.04   0.03    -0.02   0.01  -0.01     0.00  -0.01   0.01
                     22                     23                     24
                        a                      a                      a 
 Frequencies --   139.6982               149.6881               160.0451
 Red. masses --    12.2325                10.8380                12.8764
 Frc consts  --     0.0000                 0.0000                 0.0000
 IR Inten    --    18.0656                15.7101                27.5768
 Raman Activ --     0.0000                 0.0000                 0.0000
 Depolar     --     0.0000                 0.0000                 0.0000
 Atom AN      X      Y      Z        X      Y      Z        X      Y      Z
   1   8     0.00   0.12   0.05    -0.00   0.06   0.02    -0.25   0.07  -0.18
   2   6     0.10  -0.01   0.12    -0.25   0.14  -0.04    -0.06  -0.04  -0.09
   3   1     0.03  -0.04   0.02    -0.08   0.10   0.01    -0.01  -0.04  -0.05
   4   1     0.05   0.01   0.06    -0.12   0.03  -0.03    -0.00  -0.00  -0.00
   5   6     0.12   0.01   0.15    -0.32   0.02  -0.13     0.00  -0.01  -0.02
   6   1     0.04   0.04   0.06    -0.09  -0.07  -0.07    -0.01   0.01   0.01
   7   1     0.07  -0.02   0.06    -0.17   0.04  -0.05     0.02  -0.01  -0.01
   8   7     0.01  -0.04   0.05    -0.09   0.08   0.02    -0.02  -0.00  -0.01
   9   6    -0.13   0.11  -0.03     0.10  -0.13   0.13    -0.02  -0.01  -0.01
  10   1    -0.03   0.07   0.01     0.01  -0.11   0.04    -0.00  -0.00  -0.00
  11   1    -0.07   0.02  -0.03     0.10  -0.03   0.06    -0.01  -0.00  -0.00
  12   1    -0.05   0.03  -0.01     0.03  -0.02   0.03    -0.00  -0.00  -0.00
  13   6     0.06  -0.06   0.08    -0.08   0.04   0.02    -0.04   0.02  -0.03
  14   1     0.00  -0.02   0.01     0.00   0.02   0.02    -0.01   0.01  -0.00
  15   1     0.02   0.00   0.04    -0.03  -0.02   0.00    -0.01   0.00  -0.01
  16   1     0.03  -0.04   0.03    -0.04   0.03  -0.00    -0.01   0.01  -0.01
  17   6    -0.02  -0.20  -0.03    -0.00   0.34   0.03    -0.04  -0.01   0.02
  18   1    -0.03  -0.07  -0.03     0.05   0.11   0.04    -0.02   0.00   0.01
  19   1     0.02  -0.09   0.00    -0.03   0.14  -0.02    -0.01   0.00   0.00
  20   1    -0.02  -0.05  -0.02     0.00   0.10   0.01    -0.01  -0.01   0.01
  21   1    -0.01   0.04   0.03     0.00  -0.02  -0.02    -0.08   0.03   0.00
  22   6    -0.05  -0.09  -0.15     0.06  -0.11  -0.07     0.03   0.02   0.04
  23   8    -0.32  -0.17  -0.30    -0.04  -0.26  -0.11     0.08   0.03   0.06
  24   7     0.22  -0.19  -0.31     0.16  -0.11  -0.14    -0.01   0.02   0.06
  25   1     0.06  -0.05  -0.12     0.04  -0.03  -0.04    -0.00   0.01   0.02
  26   1     0.10  -0.01  -0.06     0.06   0.03  -0.04    -0.01   0.00   0.01
  27   7    -0.02   0.08   0.14     0.08   0.05   0.00     0.03  -0.01  -0.02
  28   1     0.06   0.03   0.07     0.04   0.02   0.01    -0.00  -0.00  -0.01
  29   1    -0.06   0.03   0.07     0.00  -0.01   0.01     0.02  -0.00  -0.01
  30   6     0.01   0.14   0.06     0.04  -0.06   0.02    -0.00  -0.01  -0.01
  31   8     0.05   0.16  -0.12     0.15  -0.25  -0.05    -0.01   0.00   0.02
  32   7     0.10   0.15   0.21     0.14   0.10   0.10    -0.02  -0.02  -0.03
  33   1     0.02   0.06   0.04     0.06   0.02   0.03    -0.01  -0.01  -0.00
  34   1     0.02   0.05   0.06     0.01   0.06   0.03    -0.00  -0.01  -0.01
  35   7    -0.11   0.10   0.14    -0.23  -0.04   0.02     0.03  -0.01  -0.02
  36   1    -0.04   0.03   0.08    -0.09   0.04   0.02     0.01  -0.01  -0.01
  37   1    -0.06   0.02   0.01    -0.09  -0.05  -0.02     0.01   0.00   0.00
  38   6    -0.04  -0.00   0.02     0.03   0.01   0.03    -0.14   0.06   0.12
  39   8    -0.08  -0.02   0.07     0.05  -0.02   0.06    -0.31   0.05   0.29
  40   7    -0.04  -0.02  -0.02     0.02   0.04   0.02    -0.10  -0.05  -0.02
  41   1    -0.02  -0.02  -0.00     0.01   0.01   0.01    -0.06  -0.03  -0.02
  42   1    -0.00  -0.01  -0.01     0.00   0.02  -0.01     0.00   0.00  -0.06
  43   7    -0.01   0.04   0.01     0.01   0.01  -0.00     0.04   0.27   0.12
  44   1     0.01   0.01  -0.01    -0.00   0.01   0.00     0.07   0.05   0.03
  45   1    -0.00   0.02   0.02     0.01  -0.01   0.01     0.01   0.10   0.11
  46   6     0.03  -0.03  -0.04     0.05   0.01   0.01     0.19  -0.09  -0.06
  47   8    -0.00  -0.06  -0.04     0.12   0.08   0.04     0.12  -0.07   0.16
  48   7     0.03  -0.01  -0.06     0.03  -0.03   0.00     0.09  -0.01  -0.31
  49   1    -0.00  -0.01  -0.02     0.02  -0.00   0.01    -0.01   0.04  -0.07
  50   1     0.01  -0.00  -0.02    -0.00  -0.02  -0.00     0.06   0.00  -0.13
  51   7     0.06  -0.01  -0.03     0.02  -0.03  -0.01     0.40  -0.21  -0.06
  52   1     0.02   0.00  -0.01    -0.01  -0.02  -0.01     0.11  -0.07  -0.05
  53   1     0.01  -0.01  -0.01     0.01   0.00   0.00     0.11  -0.09  -0.00
                     25                     26                     27
                        a                      a                      a 
 Frequencies --   188.7650               238.2455               270.8813
 Red. masses --    10.6808                12.5275                 4.2789
 Frc consts  --     0.0000                 0.0000                 0.0000
 IR Inten    --     4.8207                10.3105                 2.8145
 Raman Activ --     0.0000                 0.0000                 0.0000
 Depolar     --     0.0000                 0.0000                 0.0000
 Atom AN      X      Y      Z        X      Y      Z        X      Y      Z
   1   8    -0.27  -0.46   0.31     0.40  -0.24   0.41    -0.28  -0.07   0.01
   2   6    -0.16   0.05  -0.08     0.22  -0.00   0.23     0.08  -0.19   0.09
   3   1    -0.02   0.10  -0.06     0.04   0.00   0.12     0.01  -0.18   0.03
   4   1    -0.11  -0.03  -0.13     0.09  -0.02   0.01     0.15  -0.04   0.05
   5   6     0.09   0.21   0.20    -0.06   0.04  -0.08    -0.02   0.07   0.03
   6   1     0.01   0.13   0.14     0.01  -0.03  -0.11     0.01   0.02  -0.02
   7   1     0.13   0.02   0.07    -0.11   0.03  -0.01    -0.02   0.03   0.01
   8   7     0.06   0.13  -0.02    -0.00   0.04  -0.10    -0.01   0.09   0.00
   9   6     0.14   0.25  -0.21     0.04  -0.05  -0.03     0.07   0.15  -0.12
  10   1     0.09   0.14  -0.15     0.01  -0.03  -0.01    -0.08  -0.10   0.18
  11   1    -0.08   0.08  -0.06     0.03  -0.00   0.01     0.29  -0.04  -0.17
  12   1     0.12   0.02   0.00     0.01  -0.03  -0.01    -0.12   0.29  -0.15
  13   6    -0.05  -0.13  -0.08     0.02  -0.01  -0.08     0.01  -0.11   0.02
  14   1     0.03  -0.05  -0.05    -0.00  -0.01  -0.04    -0.12  -0.09  -0.13
  15   1    -0.03  -0.09  -0.04     0.01   0.01  -0.02     0.04   0.13   0.05
  16   1    -0.07  -0.03   0.00     0.01  -0.02  -0.01     0.08  -0.17   0.10
  17   6     0.05   0.09  -0.02     0.05   0.15  -0.15     0.03   0.17  -0.02
  18   1     0.02  -0.03  -0.11     0.03   0.09   0.03    -0.01   0.21   0.26
  19   1    -0.03  -0.03   0.08     0.04   0.09  -0.11     0.11   0.19  -0.24
  20   1     0.05   0.14   0.00    -0.02  -0.03  -0.06    -0.08  -0.23  -0.03
  21   1    -0.06  -0.12   0.05     0.13  -0.05   0.06    -0.06   0.06   0.01
  22   6     0.02  -0.02   0.00    -0.03  -0.00  -0.01    -0.00   0.00  -0.00
  23   8     0.00  -0.04  -0.00    -0.04  -0.00  -0.02    -0.01   0.00  -0.01
  24   7     0.04   0.03  -0.01    -0.03   0.02  -0.02     0.01  -0.00  -0.01
  25   1     0.00  -0.03   0.01    -0.01  -0.01   0.00     0.00  -0.01  -0.01
  26   1     0.00  -0.00  -0.01    -0.01  -0.01  -0.00     0.01  -0.00  -0.00
  27   7     0.03  -0.01   0.02    -0.04  -0.00   0.00    -0.00   0.00   0.02
  28   1     0.01   0.00   0.00    -0.01   0.00   0.00     0.00   0.00   0.01
  29   1     0.00  -0.00   0.01    -0.01   0.00   0.00    -0.00   0.01   0.01
  30   6    -0.00  -0.02  -0.04    -0.01  -0.01   0.01    -0.01  -0.01   0.00
  31   8     0.01  -0.04  -0.10    -0.01  -0.01   0.03    -0.02  -0.01   0.02
  32   7     0.02   0.00  -0.01    -0.01  -0.00  -0.01    -0.02  -0.02  -0.01
  33   1     0.01  -0.00   0.00     0.00  -0.01   0.00    -0.00  -0.00  -0.01
  34   1     0.01  -0.00   0.02    -0.00  -0.01   0.00    -0.00  -0.01   0.00
  35   7    -0.08  -0.05  -0.01     0.01   0.00  -0.01    -0.01  -0.01  -0.01
  36   1    -0.03  -0.00   0.01     0.00   0.00  -0.01    -0.00   0.01  -0.01
  37   1    -0.04  -0.02  -0.02     0.01   0.00   0.00    -0.00   0.00  -0.01
  38   6     0.02   0.01   0.01    -0.18   0.07  -0.03     0.05  -0.03   0.01
  39   8     0.02   0.02   0.01    -0.29   0.15  -0.11     0.07  -0.06   0.05
  40   7     0.02   0.01   0.03    -0.15  -0.18  -0.13     0.04   0.05   0.03
  41   1     0.01   0.01   0.00    -0.08  -0.09  -0.04     0.02   0.02   0.02
  42   1     0.00   0.01  -0.00     0.02  -0.10   0.02    -0.01   0.03  -0.01
  43   7     0.02   0.02   0.01    -0.03   0.12   0.12     0.01  -0.03  -0.05
  44   1     0.01  -0.01   0.02     0.03   0.03   0.01    -0.01  -0.01  -0.00
  45   1     0.01  -0.00   0.01    -0.02   0.10  -0.00     0.01  -0.04   0.01
  46   6     0.00  -0.01   0.00     0.03  -0.01  -0.01    -0.00  -0.00  -0.01
  47   8    -0.01  -0.02   0.01     0.01  -0.01   0.04     0.00  -0.00  -0.02
  48   7     0.01   0.00   0.00    -0.01   0.00  -0.06     0.02   0.00   0.02
  49   1    -0.00  -0.00  -0.00    -0.01   0.01  -0.01    -0.00  -0.02  -0.01
  50   1     0.00  -0.00  -0.00     0.01   0.01  -0.03    -0.02  -0.03  -0.00
  51   7     0.01  -0.02   0.00     0.07  -0.01   0.02    -0.01   0.01  -0.01
  52   1     0.01  -0.00   0.00     0.01  -0.02  -0.01     0.00   0.01   0.01
  53   1     0.01  -0.00   0.01    -0.00  -0.03  -0.02     0.00   0.01   0.00
                     28                     29                     30
                        a                      a                      a 
 Frequencies --   296.8520               309.1551               312.0374
 Red. masses --     3.2698                 3.1873                 2.7436
 Frc consts  --     0.0000                 0.0000                 0.0000
 IR Inten    --   131.5645                30.9000               140.7240
 Raman Activ --     0.0000                 0.0000                 0.0000
 Depolar     --     0.0000                 0.0000                 0.0000
 Atom AN      X      Y      Z        X      Y      Z        X      Y      Z
   1   8    -0.01   0.02   0.05     0.10  -0.04  -0.07     0.04   0.01  -0.05
   2   6     0.03   0.01   0.04    -0.06   0.02  -0.08     0.03  -0.04   0.00
   3   1     0.00  -0.01   0.02    -0.01   0.05  -0.03     0.01  -0.02   0.00
   4   1     0.02   0.00   0.02    -0.06  -0.00  -0.04     0.02  -0.01   0.01
   5   6    -0.01   0.00  -0.01     0.01  -0.02   0.00     0.01  -0.01  -0.00
   6   1     0.00  -0.00  -0.01    -0.01   0.01   0.02     0.00   0.01  -0.00
   7   1    -0.02  -0.00   0.00     0.03  -0.01  -0.00     0.01  -0.00  -0.00
   8   7    -0.00  -0.01  -0.03    -0.02  -0.01   0.03    -0.02  -0.00   0.01
   9   6     0.01  -0.05   0.01    -0.03   0.04  -0.02    -0.05   0.03  -0.00
  10   1     0.03   0.01  -0.06    -0.04  -0.02   0.06    -0.00   0.04  -0.02
  11   1    -0.05   0.01   0.04     0.06  -0.01  -0.05    -0.05   0.01   0.00
  12   1     0.04  -0.07   0.03    -0.05   0.08  -0.04    -0.00  -0.01   0.01
  13   6     0.01   0.02  -0.02    -0.01  -0.03   0.04     0.01  -0.07   0.04
  14   1    -0.00   0.01  -0.00    -0.04  -0.02  -0.02     0.05  -0.02   0.02
  15   1     0.01   0.01  -0.01     0.01   0.04   0.03    -0.01  -0.06   0.02
  16   1     0.01   0.01  -0.01     0.02  -0.05   0.03    -0.02   0.00  -0.00
  17   6     0.01  -0.00  -0.04    -0.03  -0.02   0.06     0.00   0.07   0.00
  18   1     0.00   0.01   0.01    -0.01  -0.04  -0.04     0.02   0.03   0.01
  19   1     0.01   0.01  -0.03    -0.04  -0.03   0.07    -0.01   0.04  -0.01
  20   1    -0.01  -0.02  -0.01     0.02   0.06   0.03     0.00   0.02   0.00
  21   1    -0.00   0.01   0.02     0.03  -0.02  -0.03     0.01   0.01  -0.01
  22   6    -0.00   0.00  -0.00    -0.00   0.00   0.00    -0.01   0.01  -0.00
  23   8    -0.00   0.01  -0.00    -0.00   0.01   0.00    -0.01   0.03  -0.01
  24   7    -0.00  -0.02  -0.00    -0.00   0.01   0.00    -0.00  -0.01  -0.01
  25   1     0.00   0.01  -0.00    -0.00  -0.01   0.00     0.00   0.01  -0.01
  26   1     0.00   0.03  -0.00    -0.00  -0.02   0.00     0.00   0.01  -0.00
  27   7    -0.00   0.00   0.01    -0.00  -0.01  -0.01    -0.01   0.00   0.01
  28   1    -0.00  -0.01   0.00    -0.00   0.00  -0.00    -0.00  -0.01   0.01
  29   1    -0.00  -0.00   0.00     0.00   0.00  -0.01    -0.01   0.00   0.00
  30   6    -0.00   0.00   0.00     0.01   0.01   0.00     0.02   0.01   0.01
  31   8    -0.00   0.01   0.00     0.01   0.01  -0.00     0.01   0.01   0.01
  32   7    -0.00  -0.00  -0.00    -0.01   0.03  -0.03    -0.03   0.05  -0.07
  33   1    -0.00  -0.00   0.00     0.01  -0.03   0.03     0.03  -0.06   0.06
  34   1     0.00  -0.01   0.00     0.06  -0.11   0.12     0.12  -0.22   0.25
  35   7     0.01  -0.01   0.01     0.01  -0.11   0.08     0.02  -0.22   0.16
  36   1    -0.00   0.02  -0.02    -0.04   0.24  -0.21    -0.09   0.50  -0.44
  37   1    -0.00   0.02  -0.01    -0.04   0.12  -0.09    -0.07   0.24  -0.18
  38   6    -0.01   0.01  -0.04    -0.01   0.01   0.03    -0.00  -0.00  -0.01
  39   8    -0.01   0.01  -0.04    -0.02   0.01   0.02     0.00   0.00  -0.01
  40   7     0.02  -0.13   0.23    -0.03   0.07  -0.16     0.01  -0.04   0.07
  41   1    -0.04   0.16  -0.23     0.02  -0.11   0.14    -0.01   0.04  -0.07
  42   1    -0.06   0.23  -0.41     0.04  -0.18   0.31    -0.02   0.08  -0.15
  43   7    -0.02   0.09  -0.11     0.01  -0.07   0.10    -0.01   0.04  -0.05
  44   1     0.01  -0.19   0.22    -0.01   0.17  -0.19     0.01  -0.09   0.10
  45   1     0.02  -0.12   0.15    -0.02   0.11  -0.13     0.01  -0.05   0.07
  46   6    -0.02  -0.05  -0.02    -0.00  -0.04  -0.01     0.00   0.02   0.00
  47   8     0.01  -0.00  -0.01     0.02  -0.01   0.00    -0.01   0.01  -0.00
  48   7     0.11   0.20   0.10     0.12   0.20   0.08    -0.06  -0.11  -0.04
  49   1    -0.13  -0.21  -0.12    -0.13  -0.20  -0.12     0.07   0.10   0.06
  50   1    -0.27  -0.42  -0.19    -0.26  -0.41  -0.19     0.14   0.21   0.10
  51   7    -0.02   0.00  -0.01     0.02  -0.00   0.01    -0.01   0.00  -0.00
  52   1     0.08   0.07   0.07     0.03   0.02   0.03    -0.02  -0.01  -0.02
  53   1     0.01   0.00   0.02     0.02   0.03   0.01    -0.01  -0.01  -0.01
                     31                     32                     33
                        a                      a                      a 
 Frequencies --   316.4533               322.2221               324.7048
 Red. masses --     7.2614                 4.3571                 3.5549
 Frc consts  --     0.0000                 0.0000                 0.0000
 IR Inten    --     1.3041                13.2487               108.3672
 Raman Activ --     0.0000                 0.0000                 0.0000
 Depolar     --     0.0000                 0.0000                 0.0000
 Atom AN      X      Y      Z        X      Y      Z        X      Y      Z
   1   8     0.36  -0.11  -0.21     0.06  -0.07   0.13    -0.05  -0.00   0.12
   2   6    -0.02  -0.08  -0.12    -0.13   0.20  -0.08    -0.05   0.12  -0.00
   3   1    -0.01   0.04  -0.01    -0.01   0.17  -0.04    -0.00   0.07  -0.01
   4   1    -0.06  -0.03  -0.05    -0.16   0.03  -0.07    -0.06   0.02  -0.02
   5   6    -0.04  -0.04  -0.05     0.04  -0.01   0.03     0.01   0.00   0.01
   6   1    -0.02  -0.02  -0.01    -0.00  -0.02   0.03     0.00  -0.01   0.01
   7   1    -0.00   0.02  -0.05     0.02  -0.02   0.02    -0.00  -0.01   0.02
   8   7    -0.05   0.05   0.13     0.08  -0.05  -0.02     0.04  -0.03  -0.04
   9   6    -0.09   0.26  -0.07     0.09  -0.09   0.01     0.05  -0.10   0.03
  10   1    -0.10   0.01   0.16    -0.05  -0.14   0.16    -0.03  -0.10   0.09
  11   1     0.16  -0.01  -0.17     0.23  -0.07  -0.06     0.13  -0.05  -0.01
  12   1    -0.14   0.29  -0.11    -0.08   0.13  -0.08    -0.05   0.04  -0.04
  13   6     0.03  -0.22   0.22    -0.02   0.21  -0.11    -0.02   0.15  -0.10
  14   1     0.09  -0.09   0.03    -0.26   0.03  -0.14    -0.15   0.03  -0.08
  15   1    -0.02  -0.11   0.10     0.08   0.31  -0.04     0.04   0.18  -0.04
  16   1    -0.02  -0.06   0.07     0.12  -0.11   0.06     0.06  -0.04   0.02
  17   6    -0.05   0.08   0.18    -0.02  -0.25   0.06    -0.01  -0.13  -0.01
  18   1     0.01  -0.07  -0.11    -0.05  -0.11  -0.05    -0.02  -0.07  -0.07
  19   1    -0.11  -0.05   0.20    -0.00  -0.13   0.08    -0.01  -0.08   0.05
  20   1     0.06   0.21   0.08     0.02  -0.02   0.02     0.02   0.02   0.00
  21   1     0.11  -0.03  -0.10     0.02  -0.06   0.00    -0.01  -0.01   0.02
  22   6    -0.01  -0.00   0.01    -0.00  -0.01   0.02     0.03   0.02  -0.03
  23   8     0.01  -0.00   0.02    -0.01  -0.00   0.00     0.01  -0.00  -0.02
  24   7    -0.02   0.04   0.02     0.00  -0.04   0.01     0.01   0.07  -0.01
  25   1    -0.01  -0.02   0.00     0.01   0.03   0.01    -0.01  -0.07   0.01
  26   1    -0.01  -0.06   0.01     0.00   0.15  -0.01    -0.02  -0.26   0.01
  27   7    -0.02  -0.03  -0.01     0.05   0.16  -0.07    -0.06  -0.29   0.11
  28   1     0.00   0.07  -0.03    -0.07  -0.36   0.12     0.12   0.63  -0.21
  29   1     0.01   0.03  -0.02    -0.04  -0.17   0.03     0.08   0.29  -0.07
  30   6     0.01  -0.01  -0.01    -0.00   0.02  -0.00     0.01   0.01   0.01
  31   8     0.01  -0.01  -0.01    -0.00   0.02  -0.01     0.01   0.01  -0.00
  32   7     0.02  -0.00   0.01    -0.00   0.00   0.01    -0.00   0.02  -0.01
  33   1    -0.00   0.01  -0.01    -0.01   0.00   0.00     0.01  -0.01   0.02
  34   1    -0.02   0.04  -0.04     0.00  -0.00   0.00     0.03  -0.04   0.06
  35   7    -0.02   0.04  -0.03     0.02  -0.01   0.02    -0.00   0.00   0.01
  36   1     0.01  -0.10   0.09     0.00   0.04  -0.04    -0.01   0.03  -0.02
  37   1     0.00  -0.05   0.03     0.00   0.03  -0.01    -0.01   0.02  -0.01
  38   6    -0.05   0.02  -0.00    -0.03   0.02  -0.01    -0.00   0.00  -0.00
  39   8    -0.06   0.03  -0.01    -0.03   0.02  -0.01     0.00  -0.00  -0.00
  40   7    -0.03  -0.10   0.03    -0.01  -0.05   0.03     0.00  -0.01   0.02
  41   1    -0.04   0.02  -0.09    -0.02   0.01  -0.05    -0.00   0.01  -0.02
  42   1    -0.00   0.05  -0.15    -0.00   0.04  -0.10    -0.01   0.03  -0.05
  43   7    -0.02   0.08  -0.01    -0.01   0.04  -0.00    -0.00   0.01  -0.01
  44   1     0.01  -0.07   0.10     0.01  -0.04   0.06     0.00  -0.03   0.03
  45   1     0.00  -0.02   0.05     0.00  -0.01   0.02     0.00  -0.01   0.01
  46   6     0.01   0.00  -0.01    -0.00   0.00  -0.00    -0.00   0.00  -0.00
  47   8     0.01   0.00  -0.01    -0.01  -0.01  -0.00    -0.00   0.00  -0.00
  48   7    -0.00  -0.03  -0.01    -0.02  -0.04  -0.01    -0.01  -0.02  -0.00
  49   1     0.02   0.01   0.01     0.02   0.03   0.02     0.01   0.02   0.01
  50   1     0.02   0.03   0.02     0.05   0.08   0.04     0.03   0.04   0.02
  51   7    -0.01   0.01  -0.01     0.00   0.00  -0.00     0.00  -0.00  -0.00
  52   1     0.01   0.01   0.00    -0.00  -0.00  -0.01     0.00  -0.00  -0.00
  53   1    -0.01  -0.01  -0.01    -0.00  -0.01  -0.00    -0.00  -0.01   0.00
                     34                     35                     36
                        a                      a                      a 
 Frequencies --   347.8091               363.2664               372.6633
 Red. masses --     3.5220                 7.6622                 3.3476
 Frc consts  --     0.0000                 0.0000                 0.0000
 IR Inten    --     2.6497                 3.2605                 0.7447
 Raman Activ --     0.0000                 0.0000                 0.0000
 Depolar     --     0.0000                 0.0000                 0.0000
 Atom AN      X      Y      Z        X      Y      Z        X      Y      Z
   1   8     0.23   0.01  -0.16     0.01   0.04  -0.05    -0.19   0.03   0.01
   2   6    -0.13   0.07  -0.15     0.16   0.07  -0.09     0.15  -0.17   0.14
   3   1    -0.02   0.11  -0.05     0.07   0.05  -0.08     0.01  -0.17   0.06
   4   1    -0.14   0.01  -0.06    -0.00   0.02  -0.02     0.19  -0.02   0.08
   5   6     0.01  -0.04   0.03     0.32   0.05   0.13    -0.12   0.00  -0.13
   6   1    -0.01   0.01   0.05     0.09   0.13   0.10    -0.00  -0.05  -0.14
   7   1     0.04  -0.02   0.00     0.20  -0.06   0.07    -0.13   0.04  -0.04
   8   7     0.01  -0.03   0.07    -0.01  -0.02  -0.01    -0.03   0.05  -0.04
   9   6    -0.06   0.09   0.01    -0.26  -0.18   0.32     0.01  -0.02   0.01
  10   1     0.09   0.20  -0.19    -0.12  -0.09   0.21     0.04   0.04  -0.08
  11   1    -0.30   0.08   0.07     0.02  -0.03   0.15    -0.09   0.03   0.05
  12   1     0.12  -0.18   0.11    -0.20  -0.08   0.01     0.06  -0.09   0.05
  13   6     0.02  -0.14   0.09    -0.25  -0.20  -0.16     0.09  -0.03   0.05
  14   1    -0.26  -0.13  -0.20    -0.11  -0.09  -0.12    -0.19  -0.08  -0.17
  15   1     0.09   0.26   0.08    -0.05  -0.03  -0.10     0.10   0.26   0.08
  16   1     0.17  -0.30   0.19    -0.13  -0.10   0.04     0.19  -0.23   0.14
  17   6     0.02   0.06   0.13     0.12   0.28  -0.13     0.01   0.16  -0.04
  18   1    -0.01   0.13   0.23     0.14   0.05  -0.07     0.05  -0.13  -0.31
  19   1     0.06   0.13  -0.13    -0.02   0.09  -0.02    -0.15  -0.09   0.25
  20   1    -0.04  -0.17   0.03     0.02   0.18  -0.06     0.12   0.37   0.02
  21   1     0.05  -0.06  -0.05    -0.02  -0.00   0.02    -0.05   0.07   0.03
  22   6     0.00   0.00   0.00    -0.01  -0.01   0.00     0.00  -0.00  -0.00
  23   8    -0.00  -0.01   0.00    -0.00  -0.01   0.01     0.01   0.00   0.00
  24   7     0.01   0.00  -0.00    -0.01   0.02  -0.00    -0.02   0.01   0.01
  25   1     0.00  -0.00  -0.00    -0.01  -0.01  -0.01    -0.00   0.01  -0.01
  26   1     0.00  -0.01   0.00     0.00  -0.03   0.00    -0.00  -0.03   0.01
  27   7    -0.01  -0.04  -0.01    -0.01   0.03   0.00     0.00   0.03   0.01
  28   1     0.01   0.07  -0.03    -0.01  -0.04   0.02    -0.00  -0.06   0.03
  29   1     0.02   0.02  -0.02    -0.01  -0.02   0.01    -0.02  -0.02   0.02
  30   6    -0.00  -0.00   0.00     0.01  -0.01  -0.01    -0.00   0.01  -0.02
  31   8    -0.01   0.00   0.00     0.00  -0.00  -0.01    -0.00   0.01  -0.02
  32   7    -0.01  -0.01  -0.00    -0.00  -0.01  -0.02     0.03  -0.01   0.02
  33   1    -0.00   0.00  -0.01     0.00  -0.01  -0.00    -0.01   0.01  -0.00
  34   1    -0.00   0.00  -0.00     0.01  -0.01   0.01    -0.02   0.05  -0.06
  35   7    -0.01   0.01  -0.01    -0.04   0.00  -0.02     0.01  -0.03   0.02
  36   1     0.00  -0.04   0.04    -0.01  -0.03   0.05    -0.00   0.02  -0.02
  37   1    -0.00  -0.02   0.01    -0.02  -0.03  -0.00    -0.00   0.01  -0.01
  38   6    -0.02   0.02  -0.00     0.00   0.00  -0.00     0.02  -0.02  -0.00
  39   8    -0.01   0.02  -0.01     0.00  -0.00  -0.00     0.02  -0.02   0.00
  40   7    -0.01  -0.02  -0.01     0.00  -0.00   0.02     0.01   0.04   0.00
  41   1    -0.01  -0.01  -0.01     0.00   0.01  -0.01     0.02   0.01   0.02
  42   1     0.01  -0.01  -0.01    -0.00   0.02  -0.03    -0.01  -0.01   0.04
  43   7    -0.00   0.02   0.02     0.00  -0.01   0.00     0.01  -0.01  -0.03
  44   1     0.00  -0.00   0.01     0.00   0.01  -0.01     0.00  -0.01  -0.00
  45   1    -0.00   0.01  -0.00    -0.00   0.00  -0.00     0.01  -0.02   0.02
  46   6    -0.01  -0.01  -0.00    -0.00   0.00  -0.01    -0.00  -0.01   0.00
  47   8    -0.02  -0.02  -0.00     0.00   0.01  -0.01    -0.01  -0.01   0.00
  48   7    -0.00  -0.01  -0.00     0.00  -0.01   0.01    -0.00  -0.00  -0.00
  49   1     0.00   0.00   0.00     0.00  -0.01   0.00    -0.00   0.00  -0.00
  50   1     0.02   0.03   0.01    -0.01  -0.01   0.00     0.01   0.02   0.00
  51   7     0.01  -0.00   0.00    -0.00  -0.00  -0.01     0.00  -0.00   0.01
  52   1    -0.00  -0.00  -0.00     0.01   0.00  -0.00    -0.01  -0.01  -0.00
  53   1     0.00  -0.00  -0.00     0.00  -0.00   0.00     0.00   0.00  -0.00
                     37                     38                     39
                        a                      a                      a 
 Frequencies --   392.8655               395.5837               413.6132
 Red. masses --     3.7705                 3.5216                 3.2444
 Frc consts  --     0.0000                 0.0000                 0.0000
 IR Inten    --   371.4624                79.7489               517.4310
 Raman Activ --     0.0000                 0.0000                 0.0000
 Depolar     --     0.0000                 0.0000                 0.0000
 Atom AN      X      Y      Z        X      Y      Z        X      Y      Z
   1   8    -0.01   0.01   0.00     0.03   0.00   0.01     0.02  -0.02  -0.02
   2   6    -0.01   0.00  -0.00    -0.01   0.04  -0.02     0.01  -0.03  -0.01
   3   1    -0.00  -0.00  -0.00     0.00   0.02  -0.01    -0.00  -0.01   0.00
   4   1    -0.00   0.00  -0.00    -0.02   0.01  -0.01     0.01  -0.01  -0.00
   5   6    -0.01  -0.00  -0.01     0.02   0.00   0.01     0.01   0.01   0.01
   6   1    -0.00  -0.01  -0.00     0.00   0.01   0.01     0.00   0.01   0.01
   7   1    -0.01   0.00  -0.00     0.01  -0.01   0.01     0.01   0.00  -0.00
   8   7     0.00   0.00  -0.01     0.01  -0.00   0.00    -0.00   0.03   0.02
   9   6    -0.00   0.01  -0.02    -0.02  -0.00   0.02     0.01   0.01   0.03
  10   1    -0.00   0.00  -0.01    -0.01   0.00   0.02    -0.00  -0.01   0.02
  11   1    -0.01   0.00  -0.01     0.00   0.00   0.01     0.02   0.00   0.01
  12   1    -0.00  -0.00  -0.01    -0.01   0.00  -0.00    -0.00   0.01   0.00
  13   6     0.03   0.00   0.01    -0.03  -0.01  -0.02    -0.03  -0.01   0.00
  14   1     0.01   0.00   0.00     0.01   0.00   0.01    -0.01  -0.01  -0.01
  15   1     0.00  -0.00   0.01    -0.01  -0.03  -0.02    -0.01  -0.00  -0.00
  16   1     0.01   0.00  -0.00    -0.03   0.02  -0.01    -0.02  -0.01   0.01
  17   6    -0.01   0.00   0.03     0.01  -0.01  -0.00     0.01   0.02  -0.03
  18   1    -0.01   0.01   0.02    -0.00   0.02   0.04     0.01  -0.01  -0.03
  19   1    -0.00   0.01  -0.00     0.03   0.01  -0.03     0.00  -0.01   0.01
  20   1     0.00  -0.01   0.01    -0.01  -0.05  -0.01    -0.00   0.02  -0.02
  21   1    -0.02  -0.03   0.03     0.01   0.00  -0.01    -0.01  -0.03   0.01
  22   6     0.01  -0.04  -0.00     0.02  -0.04   0.01    -0.01   0.09   0.02
  23   8    -0.01  -0.04  -0.01     0.00  -0.05   0.00     0.03   0.09   0.04
  24   7    -0.01   0.12   0.01    -0.02   0.08   0.02     0.02  -0.28  -0.03
  25   1    -0.01  -0.05  -0.01    -0.01  -0.02   0.00     0.02   0.03   0.05
  26   1    -0.01  -0.30   0.03    -0.01  -0.18   0.02     0.00   0.78  -0.08
  27   7     0.03   0.06  -0.02     0.02   0.03  -0.01    -0.07  -0.18   0.05
  28   1     0.00  -0.05   0.02     0.01   0.03  -0.01     0.00   0.20  -0.09
  29   1    -0.01  -0.04   0.01     0.00  -0.03   0.00     0.04   0.10  -0.04
  30   6    -0.01   0.02  -0.03    -0.05   0.07  -0.09    -0.02   0.02  -0.03
  31   8    -0.01   0.02  -0.01    -0.05   0.06  -0.04    -0.02   0.01  -0.02
  32   7     0.04  -0.04   0.05     0.12  -0.14   0.20     0.04  -0.04   0.06
  33   1    -0.01   0.02  -0.02    -0.05   0.06  -0.04    -0.01   0.00   0.01
  34   1    -0.06   0.12  -0.14    -0.23   0.46  -0.54    -0.08   0.16  -0.19
  35   7     0.00  -0.05   0.04     0.04  -0.19   0.13     0.02  -0.07   0.04
  36   1    -0.01   0.07  -0.07    -0.02   0.21  -0.24    -0.00   0.06  -0.08
  37   1    -0.00   0.02  -0.00     0.01   0.07  -0.02     0.01   0.03  -0.01
  38   6    -0.01   0.06  -0.09     0.00  -0.02   0.03    -0.01   0.02  -0.03
  39   8    -0.03   0.04  -0.04     0.01  -0.01   0.02    -0.01   0.02  -0.02
  40   7     0.03  -0.08   0.20    -0.01   0.03  -0.08     0.01  -0.03   0.06
  41   1    -0.02   0.09  -0.12     0.00  -0.04   0.04    -0.01   0.02  -0.03
  42   1    -0.03   0.20  -0.35     0.01  -0.07   0.11    -0.00   0.04  -0.08
  43   7     0.03  -0.23   0.24    -0.01   0.08  -0.08     0.00  -0.07   0.07
  44   1     0.01   0.39  -0.47    -0.01  -0.15   0.18     0.01   0.14  -0.18
  45   1    -0.04   0.17  -0.17     0.01  -0.05   0.05    -0.01   0.03  -0.01
  46   6     0.01  -0.01   0.00    -0.00   0.00  -0.00    -0.00  -0.00  -0.00
  47   8     0.01   0.00   0.01    -0.00   0.00  -0.00    -0.00   0.00  -0.00
  48   7    -0.00  -0.03  -0.02     0.00   0.01   0.01    -0.00  -0.01  -0.00
  49   1     0.02   0.02   0.01    -0.00  -0.01  -0.00     0.01   0.01   0.00
  50   1     0.03   0.04   0.01    -0.01  -0.01  -0.00     0.01   0.01   0.01
  51   7    -0.03  -0.01  -0.03     0.02   0.01   0.01    -0.00  -0.00  -0.01
  52   1     0.08   0.06   0.05    -0.04  -0.03  -0.03     0.02   0.01   0.01
  53   1     0.00  -0.01   0.01    -0.00   0.00  -0.01    -0.00  -0.01   0.00
                     40                     41                     42
                        a                      a                      a 
 Frequencies --   425.9759               452.1716               458.0970
 Red. masses --     8.7421                 2.7725                 7.4952
 Frc consts  --     0.0000                 0.0000                 0.0000
 IR Inten    --     1.5732               206.3236                 1.8585
 Raman Activ --     0.0000                 0.0000                 0.0000
 Depolar     --     0.0000                 0.0000                 0.0000
 Atom AN      X      Y      Z        X      Y      Z        X      Y      Z
   1   8    -0.16   0.01   0.20     0.01  -0.01   0.02     0.05  -0.01  -0.00
   2   6     0.05   0.18  -0.01     0.03   0.04  -0.03    -0.04  -0.04   0.04
   3   1     0.02   0.05  -0.01     0.01   0.01  -0.01    -0.01   0.00   0.01
   4   1    -0.00   0.04  -0.02     0.01   0.01  -0.02    -0.02  -0.01   0.02
   5   6     0.02  -0.04  -0.15     0.01   0.05  -0.03    -0.03  -0.08   0.02
   6   1     0.01  -0.07  -0.09     0.01   0.01  -0.01    -0.01  -0.05   0.00
   7   1    -0.08  -0.01  -0.02    -0.00   0.01  -0.00    -0.03  -0.00  -0.01
   8   7     0.16  -0.12  -0.26    -0.02   0.04  -0.02     0.06  -0.04   0.06
   9   6    -0.34  -0.02  -0.09     0.02  -0.02   0.03    -0.02   0.08  -0.01
  10   1    -0.11   0.08   0.10     0.00  -0.03   0.00    -0.00   0.05   0.01
  11   1    -0.12   0.00  -0.02     0.02   0.00   0.03    -0.03   0.01  -0.03
  12   1    -0.21  -0.05  -0.10     0.01  -0.01   0.01    -0.02   0.03  -0.01
  13   6     0.29  -0.08  -0.19     0.01  -0.04   0.02    -0.05   0.05  -0.04
  14   1     0.13  -0.01  -0.02     0.02  -0.02  -0.01    -0.04   0.03   0.01
  15   1     0.06  -0.06  -0.01    -0.00  -0.02   0.03    -0.00   0.01  -0.06
  16   1     0.09   0.00  -0.08     0.01  -0.02   0.01    -0.04   0.03  -0.01
  17   6     0.02   0.07   0.41    -0.06  -0.03   0.01     0.11   0.01  -0.02
  18   1    -0.05   0.07   0.19    -0.04  -0.00   0.01     0.06  -0.00  -0.01
  19   1    -0.12   0.09   0.12    -0.00  -0.02   0.00     0.03   0.01  -0.01
  20   1     0.15  -0.03   0.23    -0.01  -0.03   0.01     0.02   0.02  -0.02
  21   1    -0.05   0.00   0.07     0.01   0.00  -0.00     0.01  -0.00  -0.01
  22   6     0.01   0.00  -0.02    -0.00   0.00   0.01    -0.00  -0.00   0.01
  23   8     0.01   0.01  -0.02    -0.01   0.00   0.01    -0.01  -0.00   0.00
  24   7    -0.02  -0.02  -0.00     0.02  -0.00   0.00     0.00  -0.00   0.01
  25   1    -0.01  -0.03   0.03     0.01   0.01  -0.01     0.00   0.02  -0.01
  26   1    -0.02   0.08  -0.02     0.01  -0.02   0.01     0.00  -0.03   0.01
  27   7     0.01  -0.01   0.03    -0.00   0.00  -0.02     0.00   0.01  -0.01
  28   1     0.02  -0.00   0.02    -0.01   0.01  -0.01    -0.01   0.01  -0.01
  29   1    -0.01   0.03   0.01     0.01  -0.02  -0.01     0.00  -0.03  -0.00
  30   6     0.02  -0.00  -0.01    -0.01   0.00  -0.00    -0.01  -0.00   0.00
  31   8     0.01   0.01   0.01    -0.01  -0.01  -0.01    -0.01  -0.01  -0.00
  32   7     0.01  -0.02  -0.02     0.00   0.01   0.02    -0.00   0.01   0.01
  33   1    -0.01  -0.01   0.00     0.00   0.01  -0.00     0.01   0.01  -0.00
  34   1     0.00   0.00  -0.02    -0.00   0.01   0.00    -0.00   0.00   0.01
  35   7    -0.03  -0.01   0.00     0.01   0.00  -0.01     0.01   0.00  -0.01
  36   1    -0.02  -0.00   0.03     0.01   0.01  -0.03     0.01  -0.01  -0.01
  37   1    -0.03  -0.01  -0.02     0.03  -0.02   0.04     0.01  -0.00   0.01
  38   6     0.01  -0.01  -0.01    -0.04  -0.06  -0.03    -0.11  -0.15  -0.12
  39   8    -0.00  -0.01  -0.01     0.00  -0.07  -0.05    -0.04  -0.18  -0.15
  40   7     0.00   0.02   0.01    -0.07   0.03   0.04    -0.20   0.16   0.14
  41   1     0.01   0.01   0.01     0.02   0.18  -0.15     0.07   0.18   0.03
  42   1    -0.01   0.00   0.02    -0.06  -0.11   0.28    -0.19   0.05   0.13
  43   7     0.01  -0.00  -0.01     0.07   0.08  -0.07     0.25   0.09   0.02
  44   1     0.01  -0.01   0.01     0.11   0.04  -0.09     0.27   0.06  -0.14
  45   1     0.00  -0.00   0.01     0.04  -0.05   0.26     0.06   0.08   0.32
  46   6    -0.00   0.01  -0.01     0.04  -0.01   0.03    -0.11   0.11  -0.09
  47   8    -0.01   0.00   0.00     0.03   0.01   0.07    -0.15   0.12  -0.05
  48   7     0.01  -0.00   0.01    -0.03  -0.09  -0.08     0.00  -0.05   0.22
  49   1     0.01  -0.00   0.00     0.13   0.16   0.09     0.10  -0.15   0.03
  50   1    -0.01  -0.02   0.00    -0.01  -0.04  -0.03    -0.09  -0.03   0.18
  51   7     0.01  -0.00  -0.01    -0.20  -0.04  -0.13     0.23  -0.07  -0.08
  52   1    -0.00  -0.00  -0.01     0.52   0.41   0.32    -0.07  -0.16  -0.22
  53   1     0.00   0.00  -0.00    -0.03  -0.08   0.03     0.09  -0.05   0.04
                     43                     44                     45
                        a                      a                      a 
 Frequencies --   459.3755               464.3643               465.3719
 Red. masses --     7.1812                 6.2511                 3.0356
 Frc consts  --     0.0000                 0.0000                 0.0000
 IR Inten    --     9.3598                10.8795                20.5214
 Raman Activ --     0.0000                 0.0000                 0.0000
 Depolar     --     0.0000                 0.0000                 0.0000
 Atom AN      X      Y      Z        X      Y      Z        X      Y      Z
   1   8     0.05   0.02  -0.02     0.02  -0.01   0.01     0.00   0.01  -0.01
   2   6    -0.10  -0.14   0.12     0.08   0.07  -0.06    -0.02  -0.05   0.03
   3   1    -0.01   0.00   0.01     0.02   0.01  -0.02    -0.00  -0.01   0.01
   4   1    -0.08  -0.03   0.07     0.03   0.02  -0.04    -0.01  -0.01   0.02
   5   6     0.04  -0.24   0.21     0.05   0.14  -0.03    -0.00  -0.07   0.03
   6   1     0.00   0.03   0.13     0.02   0.09   0.01    -0.00  -0.02   0.01
   7   1     0.11  -0.12   0.08     0.05   0.01   0.01    -0.00  -0.02   0.01
   8   7    -0.08  -0.26  -0.00    -0.13   0.09  -0.08     0.02  -0.05   0.02
   9   6    -0.07  -0.04  -0.27     0.08  -0.14   0.02    -0.03   0.03  -0.04
  10   1    -0.01   0.03  -0.07     0.01  -0.11  -0.03    -0.00   0.04  -0.01
  11   1    -0.05  -0.05  -0.16     0.08  -0.02   0.05    -0.03   0.00  -0.03
  12   1     0.01   0.06  -0.07     0.05  -0.04   0.02    -0.01   0.01  -0.01
  13   6     0.02   0.28   0.02     0.09  -0.08   0.11    -0.02   0.06  -0.02
  14   1    -0.07   0.14   0.11     0.08  -0.04   0.00    -0.03   0.03   0.01
  15   1     0.03   0.13  -0.01    -0.00  -0.03   0.11     0.00   0.03  -0.03
  16   1     0.08   0.11  -0.08     0.06  -0.04   0.03    -0.00   0.02  -0.01
  17   6     0.09   0.24  -0.04    -0.22  -0.03  -0.00     0.06   0.05  -0.00
  18   1     0.16   0.06  -0.00    -0.10  -0.00   0.01     0.05   0.01  -0.01
  19   1    -0.07   0.13  -0.02    -0.04  -0.02   0.00    -0.00   0.02  -0.00
  20   1     0.04   0.15  -0.02    -0.05  -0.04   0.01     0.02   0.04  -0.01
  21   1     0.02   0.01  -0.02    -0.01  -0.03   0.03    -0.01  -0.03   0.01
  22   6     0.01  -0.00  -0.02    -0.01   0.01   0.02    -0.00  -0.01  -0.02
  23   8     0.02  -0.00  -0.01    -0.02   0.02   0.02     0.02  -0.01  -0.00
  24   7    -0.03  -0.00   0.01     0.03   0.01   0.00    -0.02  -0.00  -0.01
  25   1    -0.01   0.01   0.01     0.01  -0.02  -0.01    -0.01  -0.02   0.02
  26   1    -0.02   0.01  -0.01     0.02   0.02   0.00    -0.01   0.05  -0.01
  27   7     0.01   0.00   0.02    -0.01  -0.02  -0.03    -0.00  -0.01   0.02
  28   1     0.02  -0.00   0.02    -0.02  -0.02  -0.01     0.02  -0.01   0.02
  29   1    -0.01   0.01   0.01     0.02   0.04  -0.03    -0.01   0.04   0.01
  30   6     0.11   0.01   0.00     0.08   0.00   0.01    -0.05   0.01  -0.01
  31   8     0.06   0.09   0.09     0.04   0.06   0.08    -0.02  -0.03  -0.06
  32   7     0.01  -0.09  -0.12     0.00  -0.04  -0.11     0.00   0.01   0.07
  33   1    -0.04  -0.07   0.01    -0.03  -0.07   0.03     0.01   0.05  -0.02
  34   1    -0.00  -0.00  -0.13    -0.01   0.01  -0.12     0.00  -0.01   0.06
  35   7    -0.10  -0.04   0.06    -0.04  -0.05   0.06     0.01   0.04  -0.04
  36   1    -0.08  -0.01   0.20    -0.06  -0.06   0.23     0.03   0.06  -0.17
  37   1    -0.19   0.09  -0.23    -0.21   0.21  -0.32     0.14  -0.17   0.24
  38   6     0.00   0.02   0.02    -0.06  -0.13  -0.09    -0.03  -0.08  -0.04
  39   8     0.02   0.02   0.02    -0.07  -0.15  -0.10    -0.06  -0.09  -0.03
  40   7     0.02  -0.03  -0.02    -0.14   0.18   0.06    -0.07   0.15  -0.04
  41   1    -0.02  -0.00  -0.04     0.07   0.03   0.18     0.05  -0.10   0.26
  42   1     0.03  -0.03   0.02    -0.15   0.13  -0.04    -0.08   0.14  -0.16
  43   7    -0.04   0.01  -0.01     0.23   0.02   0.06     0.17  -0.02   0.12
  44   1    -0.03  -0.00   0.01     0.15  -0.11   0.10     0.03  -0.21   0.27
  45   1    -0.01  -0.02  -0.02     0.02   0.21  -0.10    -0.03   0.32  -0.45
  46   6    -0.00   0.01  -0.01     0.03  -0.04   0.05    -0.01   0.04  -0.02
  47   8    -0.01   0.02   0.01     0.07  -0.05  -0.00    -0.05   0.03   0.02
  48   7    -0.01  -0.03   0.01    -0.00   0.04  -0.07    -0.01  -0.06   0.02
  49   1     0.04   0.02   0.02    -0.10   0.01  -0.04     0.13   0.06   0.08
  50   1    -0.01  -0.01   0.02     0.06   0.05  -0.06    -0.07  -0.08   0.03
  51   7    -0.02  -0.02  -0.04    -0.09   0.04   0.05    -0.01  -0.03  -0.08
  52   1     0.13   0.09   0.05    -0.06  -0.00   0.04     0.23   0.15   0.08
  53   1     0.00  -0.04   0.01    -0.02   0.06  -0.01     0.01  -0.05   0.02
                     46                     47                     48
                        a                      a                      a 
 Frequencies --   467.3185               468.8179               474.5065
 Red. masses --     6.0000                 5.6699                 7.5752
 Frc consts  --     0.0000                 0.0000                 0.0000
 IR Inten    --    18.5526                12.1973                25.1062
 Raman Activ --     0.0000                 0.0000                 0.0000
 Depolar     --     0.0000                 0.0000                 0.0000
 Atom AN      X      Y      Z        X      Y      Z        X      Y      Z
   1   8    -0.01   0.00   0.03     0.05  -0.00  -0.01     0.01  -0.00  -0.01
   2   6     0.00  -0.01   0.03    -0.01  -0.02   0.01     0.06   0.05  -0.06
   3   1     0.00   0.00  -0.00     0.01   0.02  -0.01     0.02   0.01  -0.03
   4   1    -0.01  -0.00   0.01    -0.04  -0.01   0.01     0.03   0.01  -0.03
   5   6     0.04  -0.03   0.05     0.06  -0.06   0.08     0.09   0.14   0.04
   6   1     0.01   0.03   0.03     0.01   0.05   0.06     0.02   0.15   0.07
   7   1     0.04  -0.03   0.03     0.08  -0.05   0.04     0.13  -0.03   0.05
   8   7    -0.04  -0.06  -0.05    -0.09  -0.09  -0.03    -0.21   0.03  -0.14
   9   6    -0.03  -0.06  -0.07    -0.02  -0.07  -0.11     0.09  -0.24  -0.07
  10   1    -0.01  -0.02  -0.02    -0.01  -0.03  -0.03     0.01  -0.16  -0.07
  11   1    -0.00  -0.02  -0.03     0.01  -0.03  -0.05     0.09  -0.05   0.03
  12   1    -0.01  -0.00  -0.02     0.01   0.02  -0.03     0.07  -0.06   0.01
  13   6     0.06   0.05   0.01     0.04   0.08   0.05     0.17  -0.03   0.15
  14   1     0.01   0.03   0.02     0.00   0.04   0.05     0.10  -0.02   0.03
  15   1     0.01   0.03   0.02     0.01   0.05   0.04     0.02   0.01   0.17
  16   1     0.05   0.02  -0.02     0.06   0.03  -0.02     0.14  -0.03   0.01
  17   6    -0.02   0.08   0.03    -0.04   0.11  -0.00    -0.29   0.06   0.01
  18   1     0.02   0.02   0.01     0.03   0.03   0.01    -0.10   0.02   0.01
  19   1    -0.05   0.04   0.01    -0.05   0.06  -0.01    -0.10   0.02   0.01
  20   1     0.01   0.05   0.02     0.00   0.05   0.01    -0.04   0.00   0.03
  21   1    -0.01  -0.01   0.02     0.01  -0.01  -0.00     0.00  -0.00   0.00
  22   6    -0.06   0.09   0.21     0.02  -0.03  -0.08     0.01  -0.00  -0.00
  23   8    -0.25   0.10   0.13     0.09  -0.04  -0.05     0.01  -0.00  -0.00
  24   7     0.32  -0.09   0.04    -0.13   0.02  -0.01    -0.01   0.01   0.00
  25   1     0.10   0.03  -0.15    -0.04   0.00   0.06    -0.01  -0.01   0.01
  26   1     0.21  -0.06   0.08    -0.08   0.02  -0.03    -0.01   0.02  -0.00
  27   7    -0.08   0.00  -0.26     0.03   0.01   0.10     0.00  -0.01   0.00
  28   1    -0.24   0.19  -0.28     0.09  -0.03   0.09     0.01  -0.03   0.02
  29   1     0.15  -0.49  -0.14    -0.06   0.11   0.06     0.00   0.07  -0.01
  30   6    -0.02   0.00  -0.01    -0.01   0.03  -0.02     0.07   0.07  -0.01
  31   8    -0.01  -0.02  -0.03     0.01  -0.00  -0.05     0.08   0.07  -0.01
  32   7    -0.00  -0.00   0.03    -0.00  -0.05   0.05    -0.01  -0.14  -0.04
  33   1     0.00   0.02  -0.01    -0.02   0.04  -0.04    -0.08  -0.01  -0.04
  34   1     0.00  -0.01   0.03     0.02  -0.04   0.04     0.03  -0.08  -0.05
  35   7     0.00   0.01  -0.02    -0.05   0.06  -0.02    -0.14   0.07   0.03
  36   1     0.02   0.02  -0.07     0.01   0.10  -0.18    -0.05   0.13  -0.07
[...]
  44   1     0.00   0.00   0.00    -0.00  -0.00  -0.00     0.02   0.05   0.04
  45   1    -0.00  -0.00   0.00     0.00  -0.00  -0.00    -0.07  -0.02   0.00
  46   6     0.00  -0.00  -0.00    -0.00   0.00   0.00    -0.00   0.00  -0.00
  47   8    -0.00   0.00   0.00     0.00  -0.00   0.00     0.00  -0.00   0.00
  48   7     0.00   0.00  -0.00    -0.00  -0.00   0.00     0.00  -0.00  -0.00
  49   1    -0.00  -0.00   0.00     0.00   0.00  -0.00    -0.00  -0.01   0.01
  50   1    -0.00   0.00  -0.00     0.00  -0.00   0.00    -0.01   0.01  -0.01
  51   7    -0.00   0.00   0.00     0.00  -0.00  -0.00     0.01  -0.01  -0.00
  52   1    -0.00   0.00  -0.00     0.00  -0.00   0.00    -0.01   0.01  -0.00
  53   1     0.00  -0.00  -0.00    -0.00   0.00   0.00    -0.04   0.01   0.02
                    142                    143                    144
                        a                      a                      a 
 Frequencies --  3490.3321              3494.6479              3494.9216
 Red. masses --     1.4588                 1.4528                 1.4537
 Frc consts  --     0.0000                 0.0000                 0.0000
 IR Inten    --    19.5927                15.1948                17.6548
 Raman Activ --     0.0000                 0.0000                 0.0000
 Depolar     --     0.0000                 0.0000                 0.0000
 Atom AN      X      Y      Z        X      Y      Z        X      Y      Z
   1   8    -0.00   0.00  -0.00    -0.00   0.00  -0.00    -0.00   0.00  -0.00
   2   6    -0.00  -0.00  -0.00    -0.00   0.00   0.00    -0.00   0.00  -0.00
   3   1     0.00  -0.00   0.00     0.00   0.00   0.00     0.00  -0.00   0.00
   4   1     0.00   0.00   0.00     0.00   0.00   0.00    -0.00   0.00  -0.00
   5   6     0.00   0.00   0.00    -0.00  -0.00  -0.00     0.00   0.00   0.00
   6   1    -0.00   0.00   0.00     0.00  -0.00  -0.00    -0.00   0.00   0.00
   7   1    -0.00  -0.00  -0.00     0.00   0.00   0.00    -0.00  -0.00  -0.00
   8   7     0.00  -0.00   0.00     0.00   0.00   0.00     0.00   0.00   0.00
   9   6    -0.00  -0.00   0.00    -0.00   0.00  -0.00    -0.00   0.00   0.00
  10   1    -0.00   0.00   0.00     0.00  -0.00   0.00    -0.00   0.00   0.00
  11   1     0.00  -0.00   0.00    -0.00  -0.00  -0.00     0.00  -0.00   0.00
  12   1     0.00   0.00  -0.00    -0.00   0.00   0.00     0.00  -0.00  -0.00
  13   6    -0.00   0.00  -0.00    -0.00  -0.00  -0.00     0.00   0.00   0.00
  14   1     0.00  -0.00   0.00    -0.00  -0.00   0.00    -0.00  -0.00   0.00
  15   1    -0.00   0.00   0.00    -0.00  -0.00  -0.00     0.00  -0.00   0.00
  16   1     0.00  -0.00  -0.00     0.00   0.00   0.00    -0.00  -0.00  -0.00
  17   6    -0.00   0.00   0.00    -0.00  -0.00  -0.00    -0.00   0.00   0.00
  18   1    -0.00  -0.00   0.00    -0.00  -0.00   0.00    -0.00  -0.00   0.00
  19   1    -0.00   0.00  -0.00     0.00   0.00   0.00    -0.00  -0.00  -0.00
  20   1     0.00   0.00  -0.00     0.00  -0.00  -0.00     0.00   0.00  -0.00
  21   1     0.02  -0.00   0.01     0.00  -0.00   0.00     0.00  -0.00   0.00
  22   6    -0.00  -0.00  -0.00     0.00  -0.00  -0.00     0.00  -0.00  -0.00
  23   8    -0.00   0.00   0.00    -0.00   0.00   0.00    -0.00   0.00   0.00
  24   7    -0.00   0.00   0.00    -0.00   0.00   0.00    -0.01   0.00   0.00
  25   1    -0.00  -0.00  -0.00     0.00  -0.00   0.00     0.02  -0.00   0.00
  26   1     0.00  -0.00  -0.00     0.00  -0.00  -0.00     0.01  -0.00  -0.02
  27   7    -0.00   0.00   0.00     0.02  -0.01  -0.00     0.17  -0.05  -0.01
  28   1     0.00  -0.00  -0.01    -0.05   0.04   0.08    -0.32   0.26   0.59
  29   1     0.00   0.00   0.01    -0.05  -0.01  -0.08    -0.33  -0.05  -0.57
  30   6     0.00  -0.00  -0.00     0.00   0.00   0.00    -0.00  -0.00  -0.00
  31   8    -0.00  -0.00   0.00    -0.00  -0.00  -0.00     0.00   0.00   0.00
  32   7    -0.00   0.00   0.00    -0.00  -0.01  -0.01    -0.00   0.00   0.00
  33   1    -0.00  -0.00  -0.00    -0.00   0.01   0.01    -0.00  -0.01  -0.01
  34   1     0.00   0.00   0.00     0.02   0.02   0.00     0.01   0.01   0.00
  35   7    -0.00  -0.00  -0.00     0.03   0.11   0.14    -0.00  -0.02  -0.02
  36   1     0.00   0.00   0.00    -0.65  -0.26  -0.17     0.09   0.04   0.02
  37   1    -0.00   0.00   0.00     0.52  -0.13  -0.37    -0.07   0.02   0.05
  38   6    -0.00   0.00   0.00     0.00   0.00   0.00     0.00   0.00   0.00
  39   8    -0.00  -0.00  -0.00    -0.00  -0.00  -0.00    -0.00  -0.00  -0.00
  40   7     0.02  -0.01  -0.01     0.00  -0.00  -0.00     0.00  -0.00  -0.00
  41   1    -0.06   0.06   0.04    -0.00   0.00   0.00    -0.00   0.00   0.00
  42   1    -0.01  -0.02  -0.01     0.00   0.00   0.00    -0.00  -0.00  -0.00
  43   7    -0.12   0.09   0.11    -0.00   0.00   0.00    -0.00   0.00   0.00
  44   1    -0.24  -0.47  -0.40    -0.00  -0.00  -0.00    -0.00  -0.01  -0.01
  45   1     0.70   0.15  -0.00     0.00   0.00   0.00     0.01   0.00   0.00
  46   6    -0.00   0.00  -0.00     0.00  -0.00  -0.00     0.00  -0.00   0.00
  47   8     0.00  -0.00  -0.00    -0.00   0.00  -0.00    -0.00  -0.00   0.00
  48   7     0.00  -0.00  -0.00     0.00  -0.00  -0.00    -0.00   0.00   0.00
  49   1    -0.00  -0.00   0.00    -0.00  -0.00   0.00     0.00   0.00  -0.00
  50   1    -0.00   0.00  -0.00    -0.00   0.00  -0.00     0.00  -0.00   0.00
  51   7     0.00   0.00  -0.00    -0.00   0.00  -0.00    -0.00   0.00  -0.00
  52   1     0.00  -0.01   0.00     0.00  -0.00   0.00     0.00  -0.00   0.00
  53   1    -0.01   0.00   0.01     0.00  -0.00  -0.00     0.00  -0.00  -0.00
                    145                    146                    147
                        a                      a                      a 
 Frequencies --  3496.3233              3514.2762              3530.9609
 Red. masses --     1.4520                 1.9127                 2.0084
 Frc consts  --     0.0000                 0.0000                 0.0000
 IR Inten    --    18.9981                12.9494                20.9942
 Raman Activ --     0.0000                 0.0000                 0.0000
 Depolar     --     0.0000                 0.0000                 0.0000
 Atom AN      X      Y      Z        X      Y      Z        X      Y      Z
   1   8     0.00  -0.00  -0.00     0.00  -0.00   0.00    -0.00   0.00  -0.00
   2   6     0.00  -0.00   0.00     0.00  -0.00  -0.00    -0.00  -0.00  -0.00
   3   1    -0.00   0.00  -0.00    -0.00   0.00   0.00    -0.00   0.00  -0.00
   4   1    -0.00   0.00   0.00    -0.00   0.00   0.00     0.00   0.00   0.00
   5   6     0.00   0.00   0.00    -0.00   0.00  -0.00    -0.00   0.00   0.00
   6   1    -0.00   0.00  -0.00     0.00   0.00   0.00     0.00  -0.00   0.00
   7   1    -0.00  -0.00  -0.00    -0.00   0.00  -0.00    -0.00  -0.00   0.00
   8   7    -0.00   0.00   0.00    -0.00   0.00   0.00    -0.00  -0.00  -0.00
   9   6     0.00  -0.00   0.00    -0.00   0.00   0.00    -0.00   0.00   0.00
  10   1    -0.00   0.00  -0.00     0.00  -0.00   0.00     0.00  -0.00   0.00
  11   1     0.00  -0.00   0.00    -0.00  -0.00  -0.00    -0.00  -0.00   0.00
  12   1     0.00  -0.00   0.00     0.00   0.00  -0.00     0.00   0.00  -0.00
  13   6     0.00  -0.00   0.00    -0.00   0.00  -0.00    -0.00   0.00  -0.00
  14   1     0.00  -0.00   0.00    -0.00  -0.00   0.00    -0.00  -0.00   0.00
  15   1    -0.00   0.00  -0.00     0.00   0.00   0.00     0.00  -0.00  -0.00
  16   1     0.00   0.00   0.00    -0.00   0.00   0.00    -0.00   0.00   0.00
  17   6     0.00   0.00  -0.00     0.00  -0.00   0.00     0.00   0.00  -0.00
  18   1     0.00  -0.00   0.00    -0.00  -0.00   0.00     0.00  -0.00  -0.00
  19   1    -0.00  -0.00  -0.00    -0.00  -0.00  -0.00     0.00   0.00   0.00
  20   1    -0.00   0.00   0.00    -0.00   0.00   0.00    -0.00  -0.00   0.00
  21   1    -0.00   0.00   0.00    -0.00   0.00  -0.00     0.01  -0.00   0.00
  22   6    -0.00   0.00   0.00    -0.00  -0.00  -0.00     0.01   0.00  -0.00
  23   8     0.00  -0.00  -0.00     0.00   0.00   0.00    -0.00  -0.00   0.00
  24   7     0.00  -0.00   0.00    -0.00   0.00   0.00     0.18  -0.03  -0.21
  25   1    -0.00   0.00   0.00    -0.00   0.00  -0.00    -0.23   0.05  -0.03
  26   1     0.00  -0.00  -0.00     0.00  -0.00  -0.00    -0.45   0.06   0.81
  27   7    -0.00   0.00  -0.00    -0.00   0.00  -0.00     0.01   0.01   0.03
  28   1     0.00  -0.00  -0.00     0.00  -0.00  -0.00     0.02  -0.01  -0.03
  29   1     0.00   0.00   0.00     0.00   0.00   0.00    -0.05  -0.01  -0.08
  30   6    -0.00  -0.00  -0.00     0.00  -0.00  -0.00    -0.00   0.00   0.00
  31   8     0.00   0.00   0.00    -0.00  -0.00   0.00     0.00  -0.00   0.00
  32   7     0.00   0.00   0.00    -0.00   0.00   0.00     0.01   0.01   0.00
  33   1    -0.00  -0.00  -0.00    -0.00  -0.00  -0.00     0.00  -0.00  -0.00
  34   1    -0.00   0.00  -0.00     0.00   0.00   0.00    -0.03  -0.02  -0.00
  35   7     0.00   0.00   0.00     0.00  -0.00  -0.00    -0.00   0.00   0.00
  36   1    -0.00  -0.00  -0.00     0.00   0.00   0.00     0.00   0.00   0.00
  37   1     0.00  -0.00  -0.00    -0.00   0.00   0.00     0.00  -0.00  -0.00
  38   6    -0.00   0.00   0.00     0.00   0.00   0.00     0.00   0.00   0.00
  39   8     0.00  -0.00  -0.00    -0.00  -0.00  -0.00    -0.00  -0.00  -0.00
  40   7     0.00   0.00  -0.00     0.00   0.00   0.00    -0.00  -0.00  -0.00
  41   1    -0.01   0.01   0.01    -0.01   0.01   0.00    -0.00  -0.00   0.00
  42   1    -0.01  -0.01  -0.01    -0.01  -0.02  -0.01     0.00   0.00   0.00
  43   7    -0.00   0.00   0.00    -0.00  -0.00  -0.00     0.00   0.00   0.00
  44   1    -0.00  -0.00  -0.00     0.00   0.01   0.01    -0.00  -0.00  -0.00
  45   1     0.00   0.00   0.00    -0.00  -0.00  -0.00    -0.00   0.00   0.00
  46   6    -0.00   0.00  -0.00    -0.01   0.01   0.00     0.00  -0.00  -0.00
  47   8     0.00  -0.00   0.00     0.00  -0.00  -0.00    -0.00   0.00   0.00
  48   7    -0.16   0.05   0.07    -0.01  -0.01   0.02    -0.00   0.00   0.00
  49   1     0.14   0.26  -0.60     0.02   0.03  -0.07     0.00   0.00  -0.00
  50   1     0.47  -0.44   0.32     0.01  -0.01   0.01     0.00  -0.00   0.00
  51   7     0.01  -0.01   0.00    -0.14   0.22  -0.06    -0.00   0.00   0.00
  52   1    -0.03   0.05  -0.02     0.42  -0.81   0.28     0.00  -0.00   0.00
  53   1    -0.01   0.00   0.01     0.10  -0.01  -0.06     0.00  -0.00  -0.00
                    148                    149                    150
                        a                      a                      a 
 Frequencies --  3534.9862              3546.7152              3554.5763
 Red. masses --     1.9806                 2.1458                 2.1674
 Frc consts  --     0.0000                 0.0000                 0.0000
 IR Inten    --    18.7600                21.5649                28.0107
 Raman Activ --     0.0000                 0.0000                 0.0000
 Depolar     --     0.0000                 0.0000                 0.0000
 Atom AN      X      Y      Z        X      Y      Z        X      Y      Z
   1   8    -0.00   0.00   0.00     0.00  -0.00   0.00    -0.00   0.00  -0.00
   2   6    -0.00  -0.00  -0.00     0.00  -0.00  -0.00     0.00  -0.00  -0.00
   3   1     0.00  -0.00   0.00     0.00  -0.00  -0.00    -0.00  -0.00  -0.00
   4   1    -0.00   0.00  -0.00    -0.00   0.00  -0.00     0.00   0.00  -0.00
   5   6    -0.00  -0.00  -0.00    -0.00   0.00   0.00     0.00   0.00   0.00
   6   1    -0.00   0.00   0.00     0.00  -0.00  -0.00    -0.00   0.00   0.00
   7   1    -0.00   0.00  -0.00     0.00  -0.00   0.00    -0.00  -0.00  -0.00
   8   7    -0.00   0.00   0.00     0.00  -0.00  -0.00     0.00  -0.00   0.00
   9   6    -0.00  -0.00   0.00    -0.00   0.00  -0.00     0.00  -0.00   0.00
  10   1     0.00  -0.00   0.00     0.00  -0.00  -0.00    -0.00   0.00   0.00
  11   1     0.00   0.00  -0.00     0.00  -0.00  -0.00     0.00   0.00  -0.00
  12   1     0.00   0.00  -0.00     0.00   0.00   0.00     0.00  -0.00  -0.00
  13   6    -0.00  -0.00  -0.00    -0.00   0.00  -0.00     0.00  -0.00   0.00
  14   1    -0.00  -0.00   0.00    -0.00   0.00  -0.00     0.00  -0.00  -0.00
  15   1    -0.00   0.00   0.00     0.00  -0.00   0.00    -0.00   0.00  -0.00
  16   1    -0.00   0.00   0.00     0.00  -0.00  -0.00     0.00  -0.00  -0.00
  17   6    -0.00   0.00   0.00     0.00   0.00   0.00    -0.00   0.00   0.00
  18   1     0.00   0.00   0.00    -0.00  -0.00   0.00    -0.00  -0.00  -0.00
  19   1    -0.00  -0.00  -0.00    -0.00  -0.00  -0.00    -0.00  -0.00  -0.00
  20   1     0.00   0.00  -0.00     0.00   0.00  -0.00     0.00  -0.00  -0.00
  21   1     0.00  -0.00   0.00    -0.00   0.00  -0.00     0.01  -0.00   0.00
  22   6    -0.00   0.00   0.00    -0.00  -0.00  -0.00    -0.00  -0.00  -0.00
  23   8     0.00  -0.00  -0.00    -0.00   0.00   0.00    -0.00   0.00   0.00
  24   7    -0.01   0.00   0.01     0.00  -0.00  -0.00     0.00   0.00  -0.00
  25   1     0.01  -0.00   0.00    -0.00   0.00  -0.00    -0.00  -0.00  -0.00
  26   1     0.02  -0.00  -0.03    -0.00   0.00   0.00    -0.00   0.00   0.00
  27   7     0.00  -0.00  -0.01     0.00   0.00   0.00     0.00   0.00   0.00
  28   1    -0.01   0.01   0.02     0.00  -0.00  -0.00     0.00  -0.00  -0.00
  29   1     0.00   0.00   0.01    -0.00  -0.00  -0.00    -0.00  -0.00  -0.00
  30   6     0.00   0.01   0.00     0.00   0.00  -0.00     0.00   0.00  -0.00
  31   8    -0.00  -0.00  -0.00    -0.00  -0.00   0.00    -0.00  -0.00   0.00
  32   7     0.20   0.17   0.06     0.00   0.00   0.00     0.00   0.00   0.00
  33   1     0.01  -0.13  -0.15     0.00  -0.00  -0.00     0.00  -0.00  -0.00
  34   1    -0.78  -0.51  -0.08    -0.00  -0.00  -0.00    -0.00  -0.00  -0.00
  35   7    -0.03   0.00   0.01     0.00   0.00   0.00    -0.00  -0.00   0.00
  36   1     0.04   0.02   0.01    -0.00  -0.00  -0.00     0.00   0.00   0.00
  37   1     0.08  -0.02  -0.06     0.00  -0.00  -0.00     0.00  -0.00  -0.00
  38   6     0.00  -0.00  -0.00    -0.01   0.01   0.00    -0.01  -0.01  -0.00
  39   8    -0.00   0.00   0.00     0.00  -0.00  -0.00     0.00   0.00   0.00
  40   7    -0.00  -0.00  -0.00     0.00   0.23   0.14    -0.00  -0.10  -0.06
  41   1    -0.00   0.00   0.00     0.27  -0.23  -0.20    -0.11   0.10   0.08
  42   1     0.00   0.00   0.00    -0.28  -0.65  -0.33     0.12   0.27   0.14
  43   7     0.00   0.00   0.00    -0.09  -0.06  -0.04    -0.21  -0.15  -0.10
  44   1    -0.00  -0.00  -0.00     0.09   0.19   0.16     0.21   0.47   0.40
  45   1    -0.00  -0.00   0.00     0.26   0.05  -0.01     0.58   0.11  -0.02
  46   6     0.00  -0.00  -0.00     0.00  -0.00   0.00    -0.00   0.00  -0.00
  47   8    -0.00   0.00   0.00    -0.00   0.00  -0.00     0.00  -0.00   0.00
  48   7     0.00  -0.00   0.00     0.00   0.00  -0.00    -0.00  -0.00   0.00
  49   1     0.00   0.00  -0.00    -0.00  -0.00   0.01     0.00   0.00  -0.00
  50   1    -0.00   0.00  -0.00     0.00  -0.00   0.00    -0.00   0.00  -0.00
  51   7    -0.00   0.00   0.00     0.00  -0.00   0.00     0.00   0.00  -0.00
  52   1     0.00  -0.00   0.00    -0.01   0.02  -0.01     0.00  -0.00   0.00
  53   1     0.00  -0.00  -0.00     0.01  -0.00  -0.00    -0.01   0.00   0.00
                    151                    152                    153
                        a                      a                      a 
 Frequencies --  3559.0880              3559.3526              3561.6055
 Red. masses --     2.1763                 2.1734                 2.1808
 Frc consts  --     0.0000                 0.0000                 0.0000
 IR Inten    --    13.7930                 8.2848                11.4923
 Raman Activ --     0.0000                 0.0000                 0.0000
 Depolar     --     0.0000                 0.0000                 0.0000
 Atom AN      X      Y      Z        X      Y      Z        X      Y      Z
   1   8     0.00  -0.00  -0.00    -0.00   0.00  -0.00    -0.00   0.00  -0.00
   2   6    -0.00   0.00   0.00     0.00  -0.00   0.00     0.00  -0.00   0.00
   3   1     0.00  -0.00   0.00    -0.00   0.00  -0.00    -0.00   0.00  -0.00
   4   1    -0.00  -0.00  -0.00     0.00  -0.00   0.00     0.00   0.00  -0.00
   5   6    -0.00  -0.00  -0.00    -0.00  -0.00  -0.00     0.00   0.00   0.00
   6   1    -0.00  -0.00  -0.00     0.00  -0.00  -0.00    -0.00  -0.00   0.00
   7   1     0.00   0.00   0.00     0.00   0.00   0.00    -0.00  -0.00  -0.00
   8   7    -0.00   0.00   0.00     0.00   0.00  -0.00    -0.00   0.00   0.00
   9   6     0.00   0.00  -0.00    -0.00   0.00   0.00     0.00  -0.00   0.00
  10   1    -0.00  -0.00  -0.00     0.00  -0.00   0.00    -0.00   0.00   0.00
  11   1     0.00   0.00  -0.00    -0.00  -0.00   0.00     0.00   0.00  -0.00
  12   1    -0.00  -0.00   0.00     0.00   0.00  -0.00     0.00  -0.00   0.00
  13   6    -0.00  -0.00  -0.00    -0.00  -0.00  -0.00     0.00  -0.00   0.00
  14   1    -0.00  -0.00  -0.00    -0.00  -0.00  -0.00     0.00  -0.00   0.00
  15   1     0.00  -0.00  -0.00     0.00  -0.00  -0.00    -0.00   0.00  -0.00
  16   1     0.00   0.00  -0.00     0.00   0.00   0.00     0.00  -0.00  -0.00
  17   6    -0.00  -0.00  -0.00    -0.00  -0.00  -0.00     0.00   0.00   0.00
  18   1    -0.00   0.00  -0.00    -0.00  -0.00  -0.00     0.00  -0.00  -0.00
  19   1     0.00   0.00   0.00     0.00   0.00   0.00    -0.00  -0.00  -0.00
  20   1     0.00   0.00   0.00    -0.00  -0.00  -0.00     0.00  -0.00   0.00
  21   1    -0.00   0.00  -0.00     0.00  -0.00   0.00     0.00  -0.00   0.00
  22   6     0.00   0.00   0.01    -0.00  -0.00  -0.00    -0.00   0.00   0.00
  23   8    -0.00  -0.00  -0.00     0.00   0.00   0.00     0.00  -0.00  -0.00
  24   7    -0.02   0.00   0.02     0.01  -0.00  -0.01    -0.00   0.00   0.00
  25   1     0.02  -0.00   0.00    -0.01   0.00  -0.00    -0.00   0.00   0.00
  26   1     0.04  -0.01  -0.07    -0.02   0.00   0.03     0.00  -0.00  -0.00
  27   7     0.02   0.07   0.27    -0.01  -0.03  -0.11     0.00   0.00   0.00
  28   1     0.28  -0.22  -0.47    -0.12   0.09   0.20     0.00  -0.00  -0.00
  29   1    -0.35  -0.04  -0.54     0.14   0.01   0.23    -0.00  -0.00  -0.00
  30   6    -0.00  -0.00   0.00    -0.01  -0.00   0.00    -0.00  -0.00   0.00
  31   8     0.00  -0.00  -0.00     0.00  -0.00  -0.00     0.00   0.00   0.00
  32   7    -0.01  -0.00  -0.00    -0.02  -0.02  -0.01    -0.00  -0.00  -0.00
  33   1    -0.00   0.00  -0.00    -0.00   0.02   0.02    -0.00   0.00   0.00
  34   1     0.02   0.02   0.00     0.09   0.06   0.01     0.00   0.00   0.00
  35   7    -0.11  -0.01   0.02    -0.27  -0.02   0.06    -0.00  -0.00   0.00
  36   1     0.22   0.09   0.07     0.52   0.22   0.16     0.01   0.00   0.00
  37   1     0.21  -0.06  -0.16     0.50  -0.14  -0.39     0.01  -0.00  -0.00
  38   6     0.00   0.00   0.00     0.00   0.00   0.00    -0.00  -0.00   0.00
  39   8     0.00  -0.00  -0.00    -0.00  -0.00  -0.00    -0.00   0.00   0.00
  40   7     0.00   0.00   0.00    -0.00   0.00   0.00    -0.00   0.00   0.00
  41   1     0.00  -0.00  -0.00     0.00  -0.00  -0.00     0.00  -0.00  -0.00
  42   1    -0.00  -0.00  -0.00    -0.00  -0.00  -0.00    -0.00  -0.00  -0.00
  43   7     0.00   0.00   0.00     0.00   0.00   0.00     0.00   0.00   0.00
  44   1    -0.00  -0.00  -0.00    -0.00  -0.00  -0.00    -0.00  -0.00  -0.00
  45   1    -0.00  -0.00   0.00    -0.00   0.00   0.00    -0.00  -0.00   0.00
  46   6     0.00   0.00  -0.00     0.00   0.00  -0.00     0.00  -0.01   0.01
  47   8    -0.00   0.00   0.00    -0.00   0.00   0.00    -0.00   0.00  -0.00
  48   7    -0.00   0.00  -0.00    -0.00   0.00  -0.00     0.07  -0.17   0.24
  49   1    -0.00  -0.00   0.01    -0.00  -0.00   0.00     0.17   0.26  -0.62
  50   1     0.00  -0.00   0.00     0.00  -0.00   0.00    -0.44   0.39  -0.27
  51   7    -0.00   0.00  -0.00    -0.00   0.00  -0.00     0.01  -0.01   0.00
  52   1     0.00  -0.00   0.00     0.00  -0.00   0.00    -0.02   0.05  -0.02
  53   1     0.00  -0.00  -0.00     0.00  -0.00  -0.00    -0.01   0.00   0.00
