      -----------------------------------------------------------      
     |                   =====================                   |     
     |                           x T B                           |     
     |                   =====================                   |     
     |                         S. Grimme                         |     
     |          Mulliken Center for Theoretical Chemistry        |     
     |                    University of Bonn                     |     
      -----------------------------------------------------------      

   * xtb version 6.6.1 (unknown-commit) compiled by '@Linux' on 12/27/2023

   xtb is free software: you can redistribute it and/or modify it under
   the terms of the GNU Lesser General Public License as published by
   the Free Software Foundation, either version 3 of the License, or
   (at your option) any later version.
   
   xtb is distributed in the hope that it will be useful,
   but WITHOUT ANY WARRANTY; without even the implied warranty of
   MERCHANTABILITY or FITNESS FOR A PARTICULAR PURPOSE.  See the
   GNU Lesser General Public License for more details.
   
   Cite this work as:
   * C. Bannwarth, E. Caldeweyher, S. Ehlert, A. Hansen, P. Pracht,
     J. Seibert, S. Spicher, S. Grimme, WIREs Comput. Mol. Sci., 2020, 11,
     e01493. DOI: 10.1002/wcms.1493
   
   for GFN2-xTB:
   * C. Bannwarth, S. Ehlert and S. Grimme., J. Chem. Theory Comput., 2019,
     15, 1652-1671. DOI: 10.1021/acs.jctc.8b01176
   for GFN1-xTB:
   * S. Grimme, C. Bannwarth, P. Shushkov, J. Chem. Theory Comput., 2017,
     13, 1989-2009. DOI: 10.1021/acs.jctc.7b00118
   for GFN0-xTB:
   * P. Pracht, E. Caldeweyher, S. Ehlert, S. Grimme, ChemRxiv, 2019, preprint.
     DOI: 10.26434/chemrxiv.8326202.v1
   for GFN-FF:
   * S. Spicher and S. Grimme, Angew. Chem. Int. Ed., 2020, 59, 15665-15673.
     DOI: 10.1002/anie.202004239
   
   for ALPB and GBSA implicit solvation:
   * S. Ehlert, M. Stahn, S. Spicher, S. Grimme, J. Chem. Theory Comput.,
     2021, 17, 4250-4261. DOI: 10.1021/acs.jctc.1c00471
   
   for DFT-D4:
   * E. Caldeweyher, C. Bannwarth and S. Grimme, J. Chem. Phys., 2017,
     147, 034112. DOI: 10.1063/1.4993215
   * E. Caldeweyher, S. Ehlert, A. Hansen, H. Neugebauer, S. Spicher,
     C. Bannwarth and S. Grimme, J. Chem. Phys., 2019, 150, 154122.
     DOI: 10.1063/1.5090222
   * E. Caldeweyher, J.-M. Mewes, S. Ehlert and S. Grimme, Phys. Chem. Chem. Phys.
     2020, 22, 8499-8512. DOI: 10.1039/D0CP00502A
   
   for sTDA-xTB:
   * S. Grimme and C. Bannwarth, J. Chem. Phys., 2016, 145, 054103.
     DOI: 10.1063/1.4959605
   
   in the mass-spec context:
   * V. Asgeirsson, C. Bauer and S. Grimme, Chem. Sci., 2017, 8, 4879.
     DOI: 10.1039/c7sc00601b
   * J. Koopman and S. Grimme, ACS Omega 2019, 4, 12, 15120-15133.
     DOI: 10.1021/acsomega.9b02011
   
   for metadynamics refer to:
   * S. Grimme, J. Chem. Theory Comput., 2019, 155, 2847-2862
     DOI: 10.1021/acs.jctc.9b00143
   
   for SPH calculations refer to:
   * S. Spicher and S. Grimme, J. Chem. Theory Comput., 2021, 17, 1701-1714
     DOI: 10.1021/acs.jctc.0c01306
   
   with help from (in alphabetical order)
   P. Atkinson, C. Bannwarth, F. Bohle, G. Brandenburg, E. Caldeweyher
   M. Checinski, S. Dohm, S. Ehlert, S. Ehrlich, I. Gerasimov, C. Hölzer
   A. Katbashev, J. Koopman, C. Lavigne, S. Lehtola, F. März, M. Müller,
   F. Musil, H. Neugebauer, J. Pisarek, C. Plett, P. Pracht, F. Pultar,
   J. Seibert, P. Shushkov, S. Spicher, M. Stahn, M. Steiner, T. Strunk,
   J. Stückrath, T. Rose, and J. Unsleber
   
 * started run on 2024/01/10 at 18:26:24.417     

           -------------------------------------------------
          |                Calculation Setup                |
           -------------------------------------------------

          program call               : xtb struc.xyz --gfn2 --hess
          hostname                   : swaroop
          coordinate file            : struc.xyz
          omp threads                :                     1

   ID    Z sym.   atoms
    1    8 O      1, 23, 31, 39, 47
    2    6 C      2, 5, 9, 13, 17, 22, 30, 38, 46
    3    1 H      3, 4, 6, 7, 10-12, 14-16, 18-21, 25, 26, 28, 29, 33, 34,
                  36, 37, 41, 42, 44, 45, 49, 50, 52, 53
    4    7 N      8, 24, 27, 32, 35, 40, 43, 48, 51

molecular fragmentation (1/2 indicates fragments):
11111111111111111111122222222222222222222222222222222
# atoms in fragment 1/2:    21    32
 fragment masses (1/2) :      104.17      240.22
CMA distance (Bohr)    :   3.726
constraining FC (au)   :  0.0500

           -------------------------------------------------
          |                 G F N 2 - x T B                 |
           -------------------------------------------------

        Reference                      10.1021/acs.jctc.8b01176
      * Hamiltonian:
        H0-scaling (s, p, d)           1.850000    2.230000    2.230000
        zeta-weighting                 0.500000
      * Dispersion:
        s8                             2.700000
        a1                             0.520000
        a2                             5.000000
        s9                             5.000000
      * Repulsion:
        kExp                           1.500000    1.000000
        rExp                           1.000000
      * Coulomb:
        alpha                          2.000000
        third order                    shell-resolved
        anisotropic                    true
        a3                             3.000000
        a5                             4.000000
        cn-shift                       1.200000
        cn-exp                         4.000000
        max-rad                        5.000000


          ...................................................
          :                      SETUP                      :
          :.................................................:
          :  # basis functions                 122          :
          :  # atomic orbitals                 122          :
          :  # shells                           76          :
          :  # electrons                       140          :
          :  max. iterations                   250          :
          :  Hamiltonian                  GFN2-xTB          :
          :  restarted?                      false          :
          :  GBSA solvation                  false          :
          :  PC potential                    false          :
          :  electronic temp.          300.0000000     K    :
          :  accuracy                    1.0000000          :
          :  -> integral cutoff          0.2500000E+02      :
          :  -> integral neglect         0.1000000E-07      :
          :  -> SCF convergence          0.1000000E-05 Eh   :
          :  -> wf. convergence          0.1000000E-03 e    :
          :  Broyden damping             0.4000000          :
          ...................................................

 iter      E             dE          RMSdq      gap      omega  full diag
   1    -81.5516862 -0.815517E+02  0.434E+00    5.18       0.0  T
   2    -81.8408326 -0.289146E+00  0.236E+00    5.93       1.0  T
   3    -81.8464684 -0.563577E-02  0.116E+00    5.52       1.0  T
   4    -81.8478122 -0.134379E-02  0.237E-01    5.51       1.0  T
   5    -81.8486926 -0.880353E-03  0.912E-02    5.43       1.0  T
   6    -81.8487162 -0.236818E-04  0.263E-02    5.46       1.0  T
   7    -81.8487209 -0.465289E-05  0.740E-03    5.46       1.9  T
   8    -81.8487211 -0.234680E-06  0.249E-03    5.45       5.5  T
   9    -81.8487211 -0.148411E-07  0.806E-04    5.45      17.0  T
  10    -81.8487211 -0.480905E-08  0.169E-04    5.45      81.1  T

   *** convergence criteria satisfied after 10 iterations ***

         #    Occupation            Energy/Eh            Energy/eV
      -------------------------------------------------------------
         1        2.0000           -0.7963142             -21.6688
       ...           ...                  ...                  ...
        64        2.0000           -0.4993019             -13.5867
        65        2.0000           -0.4958516             -13.4928
        66        2.0000           -0.4949656             -13.4687
        67        2.0000           -0.4908314             -13.3562
        68        2.0000           -0.4880298             -13.2800
        69        2.0000           -0.4831598             -13.1474
        70        2.0000           -0.4770051             -12.9800 (HOMO)
        71                         -0.2766517              -7.5281 (LUMO)
        72                         -0.2716886              -7.3930
        73                         -0.2668483              -7.2613
        74                         -0.2514138              -6.8413
        75                         -0.1496192              -4.0713
       ...                                ...                  ...
       122                          0.5627323              15.3127
      -------------------------------------------------------------
                  HL-Gap            0.2003534 Eh            5.4519 eV
             Fermi-level           -0.3768284 Eh          -10.2540 eV

 SCC (total)                   0 d,  0 h,  0 min,  0.086 sec
 SCC setup                      ...        0 min,  0.000 sec (  0.331%)
 Dispersion                     ...        0 min,  0.001 sec (  0.664%)
 classical contributions        ...        0 min,  0.000 sec (  0.215%)
 integral evaluation            ...        0 min,  0.008 sec (  9.213%)
 iterations                     ...        0 min,  0.049 sec ( 57.071%)
 molecular gradient             ...        0 min,  0.028 sec ( 32.186%)
 printout                       ...        0 min,  0.000 sec (  0.306%)

         :::::::::::::::::::::::::::::::::::::::::::::::::::::
         ::                     SUMMARY                     ::
         :::::::::::::::::::::::::::::::::::::::::::::::::::::
         :: total energy             -80.934980562221 Eh    ::
         :: gradient norm              0.000078726971 Eh/a0 ::
         :: HOMO-LUMO gap              5.451894071544 eV    ::
         ::.................................................::
         :: SCC energy               -81.848721146975 Eh    ::
         :: -> isotropic ES            0.294042394844 Eh    ::
         :: -> anisotropic ES         -0.028953299812 Eh    ::
         :: -> anisotropic XC          0.020450472649 Eh    ::
         :: -> dispersion             -0.044922908968 Eh    ::
         :: repulsion energy           0.912300383020 Eh    ::
         :: add. restraining           0.000000000000 Eh    ::
         :: total charge               1.000000000000 e     ::
         :::::::::::::::::::::::::::::::::::::::::::::::::::::

           ------------------------------------------------- 
          |                Numerical Hessian                |
           ------------------------------------------------- 
step length          :   0.00500
SCC accuracy         :   0.30000
Hessian scale factor :   1.00000
frozen atoms in %    :   0.00000    0
RMS gradient         :   0.00008
estimated CPU  time      0.24 min
estimated wall time      0.24 min

writing file <hessian>.

 projected vibrational frequencies (cm⁻¹)
eigval :       -0.00    -0.00    -0.00     0.00     0.00     0.00
eigval :       10.80    14.20    21.71    31.60    37.63    42.98
eigval :       46.32    48.10    49.55    57.10    67.14    73.80
eigval :       83.22    88.83    92.14   101.44   103.92   113.42
eigval :      115.69   125.02   148.06   153.69   174.76   179.58
eigval :      203.40   210.87   224.40   229.93   260.41   276.42
eigval :      297.82   305.44   317.61   324.81   336.89   378.94
eigval :      396.82   408.81   424.13   435.20   443.54   457.13
eigval :      463.73   466.36   470.53   476.82   479.26   484.33
eigval :      485.14   487.24   490.00   538.80   542.21   552.66
eigval :      558.16   562.28   636.32   666.67   668.31   674.39
eigval :      677.24   716.49   724.22   753.04   765.29   781.32
eigval :      914.02   928.93   961.78   965.05   965.78   970.04
eigval :      999.95  1009.97  1011.18  1013.74  1018.23  1024.64
eigval :     1026.06  1035.42  1040.96  1083.93  1087.58  1089.86
eigval :     1091.32  1093.03  1106.13  1125.18  1161.58  1223.48
eigval :     1252.18  1271.90  1313.24  1318.69  1351.72  1354.01
eigval :     1358.32  1364.40  1377.97  1381.99  1406.08  1410.28
eigval :     1424.66  1435.20  1443.59  1444.62  1447.87  1449.79
eigval :     1455.66  1457.88  1459.33  1463.45  1472.86  1475.68
eigval :     1482.73  1500.12  1504.11  1512.30  1516.52  1661.80
eigval :     1688.73  1702.04  1718.35  2887.88  2971.66  2996.35
eigval :     3030.89  3035.52  3037.89  3042.59  3043.47  3047.17
eigval :     3050.33  3054.19  3057.72  3067.92  3177.36  3218.74
eigval :     3255.53  3268.96  3393.77  3494.89  3496.64  3502.00
eigval :     3502.06  3520.94  3531.54  3533.97  3537.39  3559.64
eigval :     3562.24  3568.21  3568.47
           -------------------------------------------------
          |                Property Printout                |
           -------------------------------------------------

    * Orbital Energies and Occupations

         #    Occupation            Energy/Eh            Energy/eV
      -------------------------------------------------------------
         1        2.0000           -0.7963133             -21.6688
       ...           ...                  ...                  ...
        58        2.0000           -0.5134214             -13.9709
        59        2.0000           -0.5100929             -13.8803
        60        2.0000           -0.5068062             -13.7909
        61        2.0000           -0.5045101             -13.7284
        62        2.0000           -0.5019406             -13.6585
        63        2.0000           -0.5007086             -13.6250
        64        2.0000           -0.4993027             -13.5867
        65        2.0000           -0.4958520             -13.4928
        66        2.0000           -0.4949650             -13.4687
        67        2.0000           -0.4908322             -13.3562
        68        2.0000           -0.4880317             -13.2800
        69        2.0000           -0.4831619             -13.1475
        70        2.0000           -0.4770070             -12.9800 (HOMO)
        71                         -0.2766502              -7.5280 (LUMO)
        72                         -0.2716888              -7.3930
        73                         -0.2668505              -7.2614
        74                         -0.2514177              -6.8414
        75                         -0.1496183              -4.0713
        76                         -0.1106081              -3.0098
        77                         -0.0858494              -2.3361
        78                         -0.0843621              -2.2956
        79                         -0.0799380              -2.1752
        80                         -0.0784858              -2.1357
        81                         -0.0714539              -1.9444
       ...                                ...                  ...
       122                          0.5627288              15.3126
      -------------------------------------------------------------
                  HL-Gap            0.2003568 Eh            5.4520 eV
             Fermi-level           -0.3768286 Eh          -10.2540 eV

     #   Z          covCN         q      C6AA      α(0)
     1   8 O        1.654    -0.467    22.203     6.361
     2   6 C        3.673     0.066    19.707     6.362
     3   1 H        0.924     0.080     1.982     2.201
     4   1 H        0.923     0.042     2.423     2.434
     5   6 C        3.769    -0.075    21.961     6.678
     6   1 H        0.924     0.117     1.637     2.001
     7   1 H        0.925     0.105     1.740     2.063
     8   7 N        3.624     0.156    18.608     6.407
     9   6 C        3.721    -0.108    22.690     6.803
    10   1 H        0.925     0.098     1.804     2.100
    11   1 H        0.925     0.078     2.001     2.212
    12   1 H        0.925     0.135     1.494     1.911
    13   6 C        3.734    -0.105    22.600     6.785
    14   1 H        0.925     0.090     1.882     2.145
    15   1 H        0.925     0.111     1.686     2.031
    16   1 H        0.925     0.086     1.916     2.165
    17   6 C        3.726    -0.118    22.864     6.827
    18   1 H        0.925     0.104     1.751     2.069
    19   1 H        0.925     0.133     1.511     1.922
    20   1 H        0.925     0.084     1.934     2.175
    21   1 H        0.803     0.328     0.642     1.259
    22   6 C        2.675     0.341    21.202     7.535
    23   8 O        0.860    -0.520    24.236     6.600
    24   7 N        2.645    -0.288    27.426     7.778
    25   1 H        0.860     0.203     1.089     1.635
    26   1 H        0.861     0.186     1.178     1.700
    27   7 N        2.644    -0.311    28.000     7.859
    28   1 H        0.861     0.179     1.217     1.728
    29   1 H        0.859     0.242     0.916     1.499
    30   6 C        2.675     0.344    21.161     7.527
    31   8 O        0.860    -0.532    24.509     6.638
    32   7 N        2.644    -0.293    27.547     7.795
    33   1 H        0.860     0.200     1.107     1.648
    34   1 H        0.861     0.183     1.197     1.714
    35   7 N        2.643    -0.313    28.062     7.867
    36   1 H        0.860     0.176     1.236     1.741
    37   1 H        0.860     0.238     0.933     1.513
    38   6 C        2.675     0.344    21.162     7.528
    39   8 O        0.860    -0.525    24.346     6.615
    40   7 N        2.644    -0.306    27.878     7.842
    41   1 H        0.860     0.229     0.968     1.541
    42   1 H        0.860     0.177     1.233     1.740
    43   7 N        2.644    -0.293    27.563     7.797
    44   1 H        0.861     0.181     1.207     1.721
    45   1 H        0.860     0.198     1.118     1.656
    46   6 C        2.675     0.341    21.215     7.537
    47   8 O        0.861    -0.539    24.667     6.659
    48   7 N        2.644    -0.307    27.907     7.846
    49   1 H        0.860     0.241     0.918     1.501
    50   1 H        0.861     0.180     1.212     1.725
    51   7 N        2.645    -0.286    27.385     7.772
    52   1 H        0.861     0.186     1.178     1.700
    53   1 H        0.860     0.203     1.090     1.636

 Mol. C6AA /au·bohr⁶  :      21784.039747
 Mol. C8AA /au·bohr⁸  :     454202.185631
 Mol. α(0) /au        :        220.504389


Wiberg/Mayer (AO) data.
largest (>0.10) Wiberg bond orders for each atom

 ---------------------------------------------------------------------------
     #   Z sym  total        # sym  WBO       # sym  WBO       # sym  WBO
 ---------------------------------------------------------------------------
     1   8 O    1.963 --     2 C    1.010    21 H    0.830
     2   6 C    3.959 --     1 O    1.010     5 C    1.000     4 H    0.962
                             3 H    0.957
     3   1 H    0.993 --     2 C    0.957
     4   1 H    0.998 --     2 C    0.962
     5   6 C    3.922 --     2 C    1.000     7 H    0.952     6 H    0.946
                             8 N    0.928
     6   1 H    0.986 --     5 C    0.946
     7   1 H    0.989 --     5 C    0.952
     8   7 N    3.821 --    13 C    0.964     9 C    0.956    17 C    0.955
                             5 C    0.928
     9   6 C    3.919 --    11 H    0.978    10 H    0.975     8 N    0.956
                            12 H    0.954
    10   1 H    0.990 --     9 C    0.975
    11   1 H    0.994 --     9 C    0.978
    12   1 H    0.982 --     9 C    0.954
    13   6 C    3.936 --    14 H    0.977    16 H    0.977    15 H    0.969
                             8 N    0.964
    14   1 H    0.992 --    13 C    0.977
    15   1 H    0.988 --    13 C    0.969
    16   1 H    0.992 --    13 C    0.977
    17   6 C    3.917 --    20 H    0.978    18 H    0.970    19 H    0.956
                             8 N    0.955
    18   1 H    0.989 --    17 C    0.970
    19   1 H    0.982 --    17 C    0.956
    20   1 H    0.993 --    17 C    0.978
    21   1 H    0.892 --     1 O    0.830
    22   6 C    3.960 --    23 O    1.483    27 N    1.250    24 N    1.218
    23   8 O    1.931 --    22 C    1.483    27 N    0.139    24 N    0.133
    24   7 N    3.332 --    22 C    1.218    26 H    0.947    25 H    0.940
                            23 O    0.133
    25   1 H    0.958 --    24 N    0.940
    26   1 H    0.965 --    24 N    0.947
    27   7 N    3.334 --    22 C    1.250    28 H    0.948    29 H    0.867
                            23 O    0.139
    28   1 H    0.968 --    27 N    0.948
    29   1 H    0.942 --    27 N    0.867
    30   6 C    3.959 --    31 O    1.505    35 N    1.236    32 N    1.205
    31   8 O    1.890 --    30 C    1.505    35 N    0.141    32 N    0.135
    32   7 N    3.319 --    30 C    1.205    34 H    0.947    33 H    0.943
                            31 O    0.135
    33   1 H    0.960 --    32 N    0.943
    34   1 H    0.966 --    32 N    0.947
    35   7 N    3.323 --    30 C    1.236    36 H    0.949    37 H    0.878
                            31 O    0.141
    36   1 H    0.969 --    35 N    0.949
    37   1 H    0.944 --    35 N    0.878
    38   6 C    3.959 --    39 O    1.533    40 N    1.221    43 N    1.198
    39   8 O    1.896 --    38 C    1.533    40 N    0.146    43 N    0.139
    40   7 N    3.319 --    38 C    1.221    42 H    0.949    41 H    0.905
                            39 O    0.146
    41   1 H    0.947 --    40 N    0.905
    42   1 H    0.969 --    40 N    0.949
    43   7 N    3.312 --    38 C    1.198    44 H    0.948    45 H    0.944
                            39 O    0.139
    44   1 H    0.967 --    43 N    0.948
    45   1 H    0.961 --    43 N    0.944
    46   6 C    3.960 --    47 O    1.475    48 N    1.255    51 N    1.218
    47   8 O    1.889 --    46 C    1.475    48 N    0.143    51 N    0.130
    48   7 N    3.344 --    46 C    1.255    50 H    0.948    49 H    0.875
                            47 O    0.143
    49   1 H    0.942 --    48 N    0.875
    50   1 H    0.967 --    48 N    0.948
    51   7 N    3.333 --    46 C    1.218    52 H    0.947    53 H    0.942
                            47 O    0.130
    52   1 H    0.965 --    51 N    0.947
    53   1 H    0.959 --    51 N    0.942
 ---------------------------------------------------------------------------

Topologies differ in total number of bonds
Writing topology from bond orders to xtbtopo.mol

molecular dipole:
                 x           y           z       tot (Debye)
 q only:        0.380      -0.605      -0.041
   full:        0.808      -0.413      -0.574       2.729
molecular quadrupole (traceless):
                xx          xy          yy          xz          yz          zz
 q only:        9.422      -4.411      -4.483     -12.990      15.453      -4.938
  q+dip:       13.079      -4.674      -6.715     -15.294      19.214      -6.364
   full:       12.529      -5.059      -6.588     -14.951      19.565      -5.941

           -------------------------------------------------
          |               Frequency Printout                |
           -------------------------------------------------
 projected vibrational frequencies (cm⁻¹)
eigval :       -0.00    -0.00    -0.00     0.00     0.00     0.00
eigval :       10.80    14.20    21.71    31.60    37.63    42.98
eigval :       46.32    48.10    49.55    57.10    67.14    73.80
eigval :       83.22    88.83    92.14   101.44   103.92   113.42
eigval :      115.69   125.02   148.06   153.69   174.76   179.58
eigval :      203.40   210.87   224.40   229.93   260.41   276.42
eigval :      297.82   305.44   317.61   324.81   336.89   378.94
eigval :      396.82   408.81   424.13   435.20   443.54   457.13
eigval :      463.73   466.36   470.53   476.82   479.26   484.33
eigval :      485.14   487.24   490.00   538.80   542.21   552.66
eigval :      558.16   562.28   636.32   666.67   668.31   674.39
eigval :      677.24   716.49   724.22   753.04   765.29   781.32
eigval :      914.02   928.93   961.78   965.05   965.78   970.04
eigval :      999.95  1009.97  1011.18  1013.74  1018.23  1024.64
eigval :     1026.06  1035.42  1040.96  1083.93  1087.58  1089.86
eigval :     1091.32  1093.03  1106.13  1125.18  1161.58  1223.48
eigval :     1252.18  1271.90  1313.24  1318.69  1351.72  1354.01
eigval :     1358.32  1364.40  1377.97  1381.99  1406.08  1410.28
eigval :     1424.66  1435.20  1443.59  1444.62  1447.87  1449.79
eigval :     1455.66  1457.88  1459.33  1463.45  1472.86  1475.68
eigval :     1482.73  1500.12  1504.11  1512.30  1516.52  1661.80
eigval :     1688.73  1702.04  1718.35  2887.88  2971.66  2996.35
eigval :     3030.89  3035.52  3037.89  3042.59  3043.47  3047.17
eigval :     3050.33  3054.19  3057.72  3067.92  3177.36  3218.74
eigval :     3255.53  3268.96  3393.77  3494.89  3496.64  3502.00
eigval :     3502.06  3520.94  3531.54  3533.97  3537.39  3559.64
eigval :     3562.24  3568.21  3568.47
 reduced masses (amu)
   1: 12.29   2: 12.60   3: 12.71   4: 12.80   5: 12.65   6: 12.42   7: 11.66   8: 12.17
   9: 12.02  10: 12.20  11: 12.07  12: 12.64  13: 12.64  14: 12.28  15: 12.55  16: 11.81
  17: 13.24  18: 12.74  19: 12.00  20: 10.81  21: 13.82  22: 12.06  23: 12.98  24: 12.98
  25: 13.19  26: 12.37  27: 12.30  28: 12.36  29: 13.08  30: 11.06  31: 12.48  32:  3.68
  33: 11.52  34:  3.37  35:  2.53  36:  7.51  37:  2.94  38:  3.54  39:  3.08  40:  3.58
  41:  6.30  42:  7.65  43:  3.45  44:  3.20  45:  2.88  46:  3.04  47:  8.67  48:  8.16
  49:  8.73  50:  6.87  51:  7.57  52:  1.76  53:  3.96  54:  3.96  55:  2.35  56:  7.38
  57:  7.84  58: 10.94  59: 11.28  60: 11.65  61:  8.89  62: 11.36  63:  2.27  64: 10.36
  65: 10.01  66: 11.49  67: 11.91  68:  3.59  69:  2.84  70:  2.52  71:  9.13  72:  2.16
  73:  7.94  74:  7.33  75:  5.03  76:  5.05  77:  5.06  78:  4.98  79:  7.53  80:  8.35
  81:  8.60  82:  9.37  83:  9.14  84:  5.63  85:  9.07  86:  6.53  87:  4.17  88:  8.93
  89:  7.67  90:  8.42  91:  8.26  92:  8.12  93:  4.10  94:  7.94  95:  2.86  96:  5.10
  97:  7.67  98:  8.33  99:  6.00 100:  3.13 101:  4.98 102:  4.60 103:  5.35 104:  4.71
 105:  4.30 106:  4.52 107:  2.46 108:  2.56 109:  2.23 110:  2.36 111:  2.95 112:  1.90
 113:  2.29 114:  2.67 115:  2.75 116:  2.17 117:  2.53 118:  2.29 119:  1.65 120:  1.63
 121:  1.68 122:  7.88 123:  8.36 124:  9.51 125:  9.53 126: 12.35 127: 12.69 128: 12.69
 129: 12.72 130:  1.74 131:  1.76 132:  1.73 133:  1.78 134:  1.81 135:  1.70 136:  1.68
 137:  1.67 138:  1.58 139:  1.79 140:  1.84 141:  1.73 142:  1.74 143:  1.81 144:  1.79
 145:  1.79 146:  1.87 147:  1.66 148:  1.45 149:  1.45 150:  1.45 151:  1.45 152:  1.91
 153:  1.90 154:  1.99 155:  1.91 156:  2.18 157:  2.18 158:  2.19 159:  2.19
 IR intensities (km·mol⁻¹)
   1:  0.73   2:  1.81   3:  0.72   4:  2.47   5:  1.40   6:  1.68   7:  0.53   8:  0.80
   9:  1.34  10:  2.06  11:  2.02  12:  0.98  13:  2.61  14:  7.24  15:  1.34  16:  1.71
  17:  8.24  18:  7.06  19:  2.21  20:  5.34  21:  5.47  22:  3.88  23:  2.93  24: 17.94
  25: 13.65  26:  2.90  27: 11.36  28: 26.57  29: 24.68  30:  7.17  31: 47.65  32:220.36
  33: 12.79  34:135.36  35: 12.97  36:  3.69  37:134.72  38: 19.31  39:139.39  40: 24.08
  41:  6.44  42:  5.97  43: 66.04  44:281.15  45:312.08  46:289.06  47:  7.30  48:  0.39
  49:  5.89  50: 21.41  51: 24.11  52:  6.92  53:  9.17  54:  3.44  55:  3.72  56:  5.96
  57: 49.11  58: 12.48  59: 18.41  60:  7.86  61:  0.75  62: 50.64  63:103.07  64:  7.39
  65: 17.18  66: 39.24  67: 52.34  68:132.23  69: 33.56  70:322.60  71:  6.79  72:416.62
  73:  2.39  74:  7.09  75:  7.53  76:  3.05  77:  2.48  78:  1.32  79: 25.06  80: 13.33
  81:  7.77  82: 10.67  83:  0.77  84: 32.92  85:  0.43  86: 19.12  87:  2.53  88:  0.22
  89: 18.73  90:  4.36  91:  0.51  92:  0.13  93: 23.89  94: 17.73  95: 24.44  96:  5.69
  97:  8.96  98:  4.06  99:  6.93 100: 17.28 101:  7.41 102: 80.81 103:269.51 104: 19.13
 105:128.81 106: 31.25 107: 28.50 108: 17.22 109:  3.71 110: 13.06 111:  9.94 112:  1.19
 113:  1.53 114:  1.91 115:  2.50 116:  3.09 117: 25.97 118:  8.27 119: 16.25 120: 48.88
 121: 50.02 122:308.68 123:811.73 124:349.13 125:484.71 126:353.59 127:754.12 128:******
 129:884.01 130: 39.24 131: 20.72 132:  3.60 133: 43.45 134: 13.04 135:  8.54 136:  0.41
 137: 13.99 138:  3.70 139: 10.93 140:  1.11 141:  5.98 142: 52.24 143:152.83 144:******
 145:****** 146:491.11 147:253.45 148: 19.70 149: 17.82 150:  1.93 151: 47.54 152: 13.13
 153: 16.76 154: 19.66 155: 16.02 156: 12.50 157: 11.32 158:  7.90 159: 27.83
 Raman intensities (amu)
Molecule has no symmetry elements
It seems to be the C1 point group
   1:  0.00   2:  0.00   3:  0.00   4:  0.00   5:  0.00   6:  0.00   7:  0.00   8:  0.00
   9:  0.00  10:  0.00  11:  0.00  12:  0.00  13:  0.00  14:  0.00  15:  0.00  16:  0.00
  17:  0.00  18:  0.00  19:  0.00  20:  0.00  21:  0.00  22:  0.00  23:  0.00  24:  0.00
  25:  0.00  26:  0.00  27:  0.00  28:  0.00  29:  0.00  30:  0.00  31:  0.00  32:  0.00
  33:  0.00  34:  0.00  35:  0.00  36:  0.00  37:  0.00  38:  0.00  39:  0.00  40:  0.00
  41:  0.00  42:  0.00  43:  0.00  44:  0.00  45:  0.00  46:  0.00  47:  0.00  48:  0.00
  49:  0.00  50:  0.00  51:  0.00  52:  0.00  53:  0.00  54:  0.00  55:  0.00  56:  0.00
  57:  0.00  58:  0.00  59:  0.00  60:  0.00  61:  0.00  62:  0.00  63:  0.00  64:  0.00
  65:  0.00  66:  0.00  67:  0.00  68:  0.00  69:  0.00  70:  0.00  71:  0.00  72:  0.00
  73:  0.00  74:  0.00  75:  0.00  76:  0.00  77:  0.00  78:  0.00  79:  0.00  80:  0.00
  81:  0.00  82:  0.00  83:  0.00  84:  0.00  85:  0.00  86:  0.00  87:  0.00  88:  0.00
  89:  0.00  90:  0.00  91:  0.00  92:  0.00  93:  0.00  94:  0.00  95:  0.00  96:  0.00
  97:  0.00  98:  0.00  99:  0.00 100:  0.00 101:  0.00 102:  0.00 103:  0.00 104:  0.00
 105:  0.00 106:  0.00 107:  0.00 108:  0.00 109:  0.00 110:  0.00 111:  0.00 112:  0.00
 113:  0.00 114:  0.00 115:  0.00 116:  0.00 117:  0.00 118:  0.00 119:  0.00 120:  0.00
 121:  0.00 122:  0.00 123:  0.00 124:  0.00 125:  0.00 126:  0.00 127:  0.00 128:  0.00
 129:  0.00 130:  0.00 131:  0.00 132:  0.00 133:  0.00 134:  0.00 135:  0.00 136:  0.00
 137:  0.00 138:  0.00 139:  0.00 140:  0.00 141:  0.00 142:  0.00 143:  0.00 144:  0.00
 145:  0.00 146:  0.00 147:  0.00 148:  0.00 149:  0.00 150:  0.00 151:  0.00 152:  0.00
 153:  0.00 154:  0.00 155:  0.00 156:  0.00 157:  0.00 158:  0.00 159:  0.00
 output can be read by thermo (or use thermo option).
 writing <g98.out> molden fake output.
 recommended (thermochemical) frequency scaling factor: 1.0
           -------------------------------------------------
          |             Thermodynamic Functions             |
           -------------------------------------------------

c1  symmetry found (for desy threshold:  0.10E+00) used in thermo

          ...................................................
          :                      SETUP                      :
          :.................................................:
          :  # frequencies                         153      :
          :  # imaginary freq.                       0      :
          :  linear?                             false      :
          :  only rotor calc.                    false      :
          :  symmetry                               c1      :
          :  rotational number                       1      :
          :  scaling factor                  1.0000000      :
          :  rotor cutoff                   50.0000000 cm⁻¹ :
          :  imag. cutoff                  -20.0000000 cm⁻¹ :
          :.................................................:

    mode    ω/cm⁻¹     T·S(HO)/kcal·mol⁻¹    T·S(FR)/kcal·mol⁻¹   T·S(vib)
   ------------------------------------------------------------------------
       1     10.80    -2.34305 (  0.22%)    -1.51047 ( 99.78%)    -1.51227
       2     14.20    -2.18099 (  0.65%)    -1.42945 ( 99.35%)    -1.43430
       3     21.71    -1.92954 (  3.43%)    -1.30368 ( 96.57%)    -1.32514
       4     31.60    -1.70730 ( 13.76%)    -1.19243 ( 86.24%)    -1.26328
       5     37.63    -1.60414 ( 24.28%)    -1.14074 ( 75.72%)    -1.25326
       6     42.98    -1.52552 ( 35.32%)    -1.10131 ( 64.68%)    -1.25116
       7     46.32    -1.48133 ( 42.42%)    -1.07913 ( 57.58%)    -1.24976
       8     48.10    -1.45911 ( 46.14%)    -1.06798 ( 53.86%)    -1.24845
       9     49.55    -1.44167 ( 49.09%)    -1.05922 ( 50.91%)    -1.24696
      10     57.10    -1.35805 ( 62.98%)    -1.01718 ( 37.02%)    -1.23185
      11     67.14    -1.26278 ( 76.48%)    -0.96919 ( 23.52%)    -1.19373
      12     73.80    -1.20734 ( 82.59%)    -0.94121 ( 17.41%)    -1.16102
      13     83.22    -1.13695 ( 88.47%)    -0.90559 ( 11.53%)    -1.11029
      14     88.83    -1.09890 ( 90.88%)    -0.88629 (  9.12%)    -1.07950
      15     92.14    -1.07752 ( 92.02%)    -0.87543 (  7.98%)    -1.06139
      16    101.44    -1.02161 ( 94.43%)    -0.84697 (  5.57%)    -1.01187
      17    103.92    -1.00758 ( 94.91%)    -0.83981 (  5.09%)    -0.99905
      18    113.42    -0.95690 ( 96.36%)    -0.81388 (  3.64%)    -0.95170
      19    115.69    -0.94547 ( 96.63%)    -0.80802 (  3.37%)    -0.94083
      20    125.02    -0.90081 ( 97.51%)    -0.78506 (  2.49%)    -0.89792
      21    148.06    -0.80412 ( 98.72%)    -0.73495 (  1.28%)    -0.80323
      22    153.69    -0.78295 ( 98.89%)    -0.72389 (  1.11%)    -0.78230
      23    174.76    -0.71069 ( 99.33%)    -0.68583 (  0.67%)    -0.71053
      24    179.58    -0.69552 ( 99.40%)    -0.67777 (  0.60%)    -0.69542
      25    203.40    -0.62675 ( 99.64%)    -0.64087 (  0.36%)    -0.62680
      26    210.87    -0.60707 ( 99.68%)    -0.63018 (  0.32%)    -0.60714
      27    224.40    -0.57343 ( 99.75%)    -0.61176 (  0.25%)    -0.57353
      28    229.93    -0.56036 ( 99.78%)    -0.60455 (  0.22%)    -0.56046
      29    260.41    -0.49464 ( 99.86%)    -0.56768 (  0.14%)    -0.49474
      30    276.42    -0.46385 ( 99.89%)    -0.55001 (  0.11%)    -0.46394
      31    297.82    -0.42610 ( 99.92%)    -0.52791 (  0.08%)    -0.42618
   ------------------------------------------------------------------------

   temp. (K)  partition function   enthalpy   heat capacity  entropy
                                   cal/mol     cal/K/mol   cal/K/mol   J/K/mol
 298.15  VIB  0.537E+17            19376.448    104.633    127.376
         ROT  0.132E+08              888.752      2.981     35.569
         INT  0.711E+24            20265.200    107.614    162.946
         TR   0.618E+28             1481.254      4.968     43.384
         TOT                       21746.4543   112.5825   206.3300   863.2846

       T/K    H(0)-H(T)+PV         H(T)/Eh          T*S/Eh         G(T)/Eh
   ------------------------------------------------------------------------
    298.15    0.346552E-01    0.474059E+00    0.980340E-01    0.376025E+00
   ------------------------------------------------------------------------

         :::::::::::::::::::::::::::::::::::::::::::::::::::::
         ::                  THERMODYNAMIC                  ::
         :::::::::::::::::::::::::::::::::::::::::::::::::::::
         :: total free energy         -80.558955747566 Eh   ::
         ::.................................................::
         :: total energy              -80.934980562617 Eh   ::
         :: zero point energy           0.439403657261 Eh   ::
         :: G(RRHO) w/o ZPVE           -0.063378842211 Eh   ::
         :: G(RRHO) contrib.            0.376024815050 Eh   ::
         :::::::::::::::::::::::::::::::::::::::::::::::::::::

           -------------------------------------------------
          | TOTAL ENERGY              -80.934980562617 Eh   |
          | TOTAL ENTHALPY            -80.460921724570 Eh   |
          | TOTAL FREE ENERGY         -80.558955747566 Eh   |
          | GRADIENT NORM               0.000079178334 Eh/α |
          | HOMO-LUMO GAP               5.451985778599 eV   |
           -------------------------------------------------

------------------------------------------------------------------------
 * finished run on 2024/01/10 at 18:26:39.020     
------------------------------------------------------------------------
 total:
 * wall-time:     0 d,  0 h,  0 min, 14.603 sec
 *  cpu-time:     0 d,  0 h,  0 min, 14.507 sec
 * ratio c/w:     0.993 speedup
 SCF:
 * wall-time:     0 d,  0 h,  0 min,  0.086 sec
 *  cpu-time:     0 d,  0 h,  0 min,  0.057 sec
 * ratio c/w:     0.671 speedup
 analytical hessian:
 * wall-time:     0 d,  0 h,  0 min, 14.490 sec
 *  cpu-time:     0 d,  0 h,  0 min, 14.423 sec
 * ratio c/w:     0.995 speedup

