      -----------------------------------------------------------      
     |                   =====================                   |     
     |                           x T B                           |     
     |                   =====================                   |     
     |                         S. Grimme                         |     
     |          Mulliken Center for Theoretical Chemistry        |     
     |                    University of Bonn                     |     
      -----------------------------------------------------------      

   * xtb version 6.6.1 (unknown-commit) compiled by '@Linux' on 12/27/2023

   xtb is free software: you can redistribute it and/or modify it under
   the terms of the GNU Lesser General Public License as published by
   the Free Software Foundation, either version 3 of the License, or
   (at your option) any later version.
   
   xtb is distributed in the hope that it will be useful,
   but WITHOUT ANY WARRANTY; without even the implied warranty of
   MERCHANTABILITY or FITNESS FOR A PARTICULAR PURPOSE.  See the
   GNU Lesser General Public License for more details.
   
   Cite this work as:
   * C. Bannwarth, E. Caldeweyher, S. Ehlert, A. Hansen, P. Pracht,
     J. Seibert, S. Spicher, S. Grimme, WIREs Comput. Mol. Sci., 2020, 11,
     e01493. DOI: 10.1002/wcms.1493
   
   for GFN2-xTB:
   * C. Bannwarth, S. Ehlert and S. Grimme., J. Chem. Theory Comput., 2019,
     15, 1652-1671. DOI: 10.1021/acs.jctc.8b01176
   for GFN1-xTB:
   * S. Grimme, C. Bannwarth, P. Shushkov, J. Chem. Theory Comput., 2017,
     13, 1989-2009. DOI: 10.1021/acs.jctc.7b00118
   for GFN0-xTB:
   * P. Pracht, E. Caldeweyher, S. Ehlert, S. Grimme, ChemRxiv, 2019, preprint.
     DOI: 10.26434/chemrxiv.8326202.v1
   for GFN-FF:
   * S. Spicher and S. Grimme, Angew. Chem. Int. Ed., 2020, 59, 15665-15673.
     DOI: 10.1002/anie.202004239
   
   for ALPB and GBSA implicit solvation:
   * S. Ehlert, M. Stahn, S. Spicher, S. Grimme, J. Chem. Theory Comput.,
     2021, 17, 4250-4261. DOI: 10.1021/acs.jctc.1c00471
   
   for DFT-D4:
   * E. Caldeweyher, C. Bannwarth and S. Grimme, J. Chem. Phys., 2017,
     147, 034112. DOI: 10.1063/1.4993215
   * E. Caldeweyher, S. Ehlert, A. Hansen, H. Neugebauer, S. Spicher,
     C. Bannwarth and S. Grimme, J. Chem. Phys., 2019, 150, 154122.
     DOI: 10.1063/1.5090222
   * E. Caldeweyher, J.-M. Mewes, S. Ehlert and S. Grimme, Phys. Chem. Chem. Phys.
     2020, 22, 8499-8512. DOI: 10.1039/D0CP00502A
   
   for sTDA-xTB:
   * S. Grimme and C. Bannwarth, J. Chem. Phys., 2016, 145, 054103.
     DOI: 10.1063/1.4959605
   
   in the mass-spec context:
   * V. Asgeirsson, C. Bauer and S. Grimme, Chem. Sci., 2017, 8, 4879.
     DOI: 10.1039/c7sc00601b
   * J. Koopman and S. Grimme, ACS Omega 2019, 4, 12, 15120-15133.
     DOI: 10.1021/acsomega.9b02011
   
   for metadynamics refer to:
   * S. Grimme, J. Chem. Theory Comput., 2019, 155, 2847-2862
     DOI: 10.1021/acs.jctc.9b00143
   
   for SPH calculations refer to:
   * S. Spicher and S. Grimme, J. Chem. Theory Comput., 2021, 17, 1701-1714
     DOI: 10.1021/acs.jctc.0c01306
   
   with help from (in alphabetical order)
   P. Atkinson, C. Bannwarth, F. Bohle, G. Brandenburg, E. Caldeweyher
   M. Checinski, S. Dohm, S. Ehlert, S. Ehrlich, I. Gerasimov, C. Hölzer
   A. Katbashev, J. Koopman, C. Lavigne, S. Lehtola, F. März, M. Müller,
   F. Musil, H. Neugebauer, J. Pisarek, C. Plett, P. Pracht, F. Pultar,
   J. Seibert, P. Shushkov, S. Spicher, M. Stahn, M. Steiner, T. Strunk,
   J. Stückrath, T. Rose, and J. Unsleber
   
 * started run on 2024/01/10 at 15:37:39.157     

           -------------------------------------------------
          |                Calculation Setup                |
           -------------------------------------------------

          program call               : xtb struc.xyz --gfn2 --hess
          hostname                   : swaroop
          coordinate file            : struc.xyz
          omp threads                :                     1

   ID    Z sym.   atoms
    1    8 O      1, 23, 31, 39, 47
    2    6 C      2, 5, 9, 13, 17, 22, 30, 38, 46
    3    1 H      3, 4, 6, 7, 10-12, 14-16, 18-21, 25, 26, 28, 29, 33, 34,
                  36, 37, 41, 42, 44, 45, 49, 50, 52, 53
    4    7 N      8, 24, 27, 32, 35, 40, 43, 48, 51

molecular fragmentation (1/2 indicates fragments):
11111111111111111111122222222222222222222222222222222
# atoms in fragment 1/2:    21    32
 fragment masses (1/2) :      104.17      240.22
CMA distance (Bohr)    :   7.175
constraining FC (au)   :  0.0500

           -------------------------------------------------
          |                 G F N 2 - x T B                 |
           -------------------------------------------------

        Reference                      10.1021/acs.jctc.8b01176
      * Hamiltonian:
        H0-scaling (s, p, d)           1.850000    2.230000    2.230000
        zeta-weighting                 0.500000
      * Dispersion:
        s8                             2.700000
        a1                             0.520000
        a2                             5.000000
        s9                             5.000000
      * Repulsion:
        kExp                           1.500000    1.000000
        rExp                           1.000000
      * Coulomb:
        alpha                          2.000000
        third order                    shell-resolved
        anisotropic                    true
        a3                             3.000000
        a5                             4.000000
        cn-shift                       1.200000
        cn-exp                         4.000000
        max-rad                        5.000000


          ...................................................
          :                      SETUP                      :
          :.................................................:
          :  # basis functions                 122          :
          :  # atomic orbitals                 122          :
          :  # shells                           76          :
          :  # electrons                       140          :
          :  max. iterations                   250          :
          :  Hamiltonian                  GFN2-xTB          :
          :  restarted?                      false          :
          :  GBSA solvation                  false          :
          :  PC potential                    false          :
          :  electronic temp.          300.0000000     K    :
          :  accuracy                    1.0000000          :
          :  -> integral cutoff          0.2500000E+02      :
          :  -> integral neglect         0.1000000E-07      :
          :  -> SCF convergence          0.1000000E-05 Eh   :
          :  -> wf. convergence          0.1000000E-03 e    :
          :  Broyden damping             0.4000000          :
          ...................................................

 iter      E             dE          RMSdq      gap      omega  full diag
   1    -81.5546293 -0.815546E+02  0.434E+00    5.15       0.0  T
   2    -81.8396005 -0.284971E+00  0.238E+00    5.66       1.0  T
   3    -81.8452048 -0.560425E-02  0.116E+00    5.36       1.0  T
   4    -81.8465424 -0.133758E-02  0.240E-01    5.40       1.0  T
   5    -81.8474333 -0.890960E-03  0.918E-02    5.31       1.0  T
   6    -81.8474578 -0.245289E-04  0.260E-02    5.31       1.0  T
   7    -81.8474621 -0.426641E-05  0.756E-03    5.30       1.8  T
   8    -81.8474624 -0.282911E-06  0.266E-03    5.30       5.2  T
   9    -81.8474624 -0.155879E-07  0.919E-04    5.30      14.9  T
  10    -81.8474624 -0.614743E-08  0.181E-04    5.30      75.8  T

   *** convergence criteria satisfied after 10 iterations ***

         #    Occupation            Energy/Eh            Energy/eV
      -------------------------------------------------------------
         1        2.0000           -0.8062936             -21.9404
       ...           ...                  ...                  ...
        64        2.0000           -0.4973261             -13.5329
        65        2.0000           -0.4948992             -13.4669
        66        2.0000           -0.4936785             -13.4337
        67        2.0000           -0.4923472             -13.3974
        68        2.0000           -0.4910334             -13.3617
        69        2.0000           -0.4880909             -13.2816
        70        2.0000           -0.4806692             -13.0797 (HOMO)
        71                         -0.2858757              -7.7791 (LUMO)
        72                         -0.2656610              -7.2290
        73                         -0.2654612              -7.2236
        74                         -0.2613449              -7.1116
        75                         -0.1547680              -4.2115
       ...                                ...                  ...
       122                          0.5583115              15.1924
      -------------------------------------------------------------
                  HL-Gap            0.1947935 Eh            5.3006 eV
             Fermi-level           -0.3832725 Eh          -10.4294 eV

 SCC (total)                   0 d,  0 h,  0 min,  0.086 sec
 SCC setup                      ...        0 min,  0.000 sec (  0.332%)
 Dispersion                     ...        0 min,  0.001 sec (  0.686%)
 classical contributions        ...        0 min,  0.000 sec (  0.210%)
 integral evaluation            ...        0 min,  0.008 sec (  9.281%)
 iterations                     ...        0 min,  0.049 sec ( 56.493%)
 molecular gradient             ...        0 min,  0.028 sec ( 32.673%)
 printout                       ...        0 min,  0.000 sec (  0.310%)

         :::::::::::::::::::::::::::::::::::::::::::::::::::::
         ::                     SUMMARY                     ::
         :::::::::::::::::::::::::::::::::::::::::::::::::::::
         :: total energy             -80.933919725254 Eh    ::
         :: gradient norm              0.000081665991 Eh/a0 ::
         :: HOMO-LUMO gap              5.300600682758 eV    ::
         ::.................................................::
         :: SCC energy               -81.847462417873 Eh    ::
         :: -> isotropic ES            0.295579057357 Eh    ::
         :: -> anisotropic ES         -0.027726589275 Eh    ::
         :: -> anisotropic XC          0.020581705343 Eh    ::
         :: -> dispersion             -0.044551218013 Eh    ::
         :: repulsion energy           0.912056523706 Eh    ::
         :: add. restraining           0.000000000000 Eh    ::
         :: total charge               1.000000000000 e     ::
         :::::::::::::::::::::::::::::::::::::::::::::::::::::

           ------------------------------------------------- 
          |                Numerical Hessian                |
           ------------------------------------------------- 
step length          :   0.00500
SCC accuracy         :   0.30000
Hessian scale factor :   1.00000
frozen atoms in %    :   0.00000    0
RMS gradient         :   0.00008
estimated CPU  time      0.24 min
estimated wall time      0.24 min

writing file <hessian>.

 projected vibrational frequencies (cm⁻¹)
eigval :       -0.00    -0.00     0.00     0.00     0.00     0.00
eigval :       11.47    18.16    21.15    26.46    28.48    34.51
eigval :       38.52    45.01    47.88    55.35    57.61    63.97
eigval :       69.03    79.09    85.31    95.99   104.72   115.38
eigval :      120.08   123.21   133.54   150.23   156.98   186.78
eigval :      196.42   212.67   221.64   230.85   250.58   272.81
eigval :      289.90   304.08   330.90   355.39   358.99   379.93
eigval :      399.26   427.73   447.36   454.91   456.26   461.79
eigval :      464.05   467.05   471.17   472.98   482.67   491.78
eigval :      501.75   514.12   529.94   541.20   545.13   549.25
eigval :      558.47   563.52   618.65   650.08   666.57   673.46
eigval :      675.34   676.80   700.04   716.68   765.16   800.87
eigval :      915.27   921.31   950.16   956.61   965.78   995.71
eigval :      998.25  1001.75  1003.10  1014.29  1022.10  1024.75
eigval :     1029.80  1035.45  1038.51  1080.83  1085.66  1087.36
eigval :     1092.06  1102.62  1116.95  1124.42  1161.75  1226.19
eigval :     1244.89  1271.31  1315.51  1326.88  1342.77  1353.02
eigval :     1357.07  1361.80  1365.28  1383.65  1403.00  1412.80
eigval :     1422.02  1437.81  1440.88  1445.56  1448.26  1453.05
eigval :     1454.80  1459.52  1464.49  1468.21  1468.41  1483.10
eigval :     1487.80  1499.22  1506.84  1507.60  1515.86  1664.17
eigval :     1687.59  1704.70  1718.29  2898.14  2985.95  2992.58
eigval :     3012.12  3029.06  3035.92  3036.68  3040.41  3041.36
eigval :     3042.73  3047.08  3049.35  3060.35  3108.75  3260.98
eigval :     3314.74  3378.51  3398.31  3489.33  3493.53  3499.28
eigval :     3499.44  3500.89  3527.41  3531.33  3539.71  3557.17
eigval :     3563.20  3564.01  3568.24
           -------------------------------------------------
          |                Property Printout                |
           -------------------------------------------------

    * Orbital Energies and Occupations

         #    Occupation            Energy/Eh            Energy/eV
      -------------------------------------------------------------
         1        2.0000           -0.8062928             -21.9403
       ...           ...                  ...                  ...
        58        2.0000           -0.5235751             -14.2472
        59        2.0000           -0.5184277             -14.1071
        60        2.0000           -0.5152945             -14.0219
        61        2.0000           -0.5027583             -13.6808
        62        2.0000           -0.4989408             -13.5769
        63        2.0000           -0.4985501             -13.5662
        64        2.0000           -0.4973282             -13.5330
        65        2.0000           -0.4949008             -13.4669
        66        2.0000           -0.4936796             -13.4337
        67        2.0000           -0.4923476             -13.3975
        68        2.0000           -0.4910340             -13.3617
        69        2.0000           -0.4880918             -13.2817
        70        2.0000           -0.4806703             -13.0797 (HOMO)
        71                         -0.2858744              -7.7790 (LUMO)
        72                         -0.2656640              -7.2291
        73                         -0.2654633              -7.2236
        74                         -0.2613470              -7.1116
        75                         -0.1547674              -4.2114
        76                         -0.1166534              -3.1743
        77                         -0.0929039              -2.5280
        78                         -0.0883319              -2.4036
        79                         -0.0861617              -2.3446
        80                         -0.0764916              -2.0814
        81                         -0.0679085              -1.8479
       ...                                ...                  ...
       122                          0.5583099              15.1924
      -------------------------------------------------------------
                  HL-Gap            0.1947959 Eh            5.3007 eV
             Fermi-level           -0.3832723 Eh          -10.4294 eV

     #   Z          covCN         q      C6AA      α(0)
     1   8 O        1.654    -0.462    22.101     6.346
     2   6 C        3.673     0.073    19.592     6.343
     3   1 H        0.924     0.055     2.257     2.350
     4   1 H        0.923     0.048     2.345     2.395
     5   6 C        3.768    -0.078    22.024     6.688
     6   1 H        0.925     0.111     1.692     2.034
     7   1 H        0.924     0.117     1.641     2.004
     8   7 N        3.623     0.156    18.615     6.408
     9   6 C        3.720    -0.102    22.576     6.786
    10   1 H        0.925     0.099     1.798     2.097
    11   1 H        0.925     0.080     1.980     2.200
    12   1 H        0.925     0.117     1.636     2.000
    13   6 C        3.734    -0.118    22.846     6.822
    14   1 H        0.924     0.119     1.620     1.990
    15   1 H        0.925     0.117     1.639     2.002
    16   1 H        0.925     0.079     1.984     2.203
    17   6 C        3.724    -0.103    22.572     6.784
    18   1 H        0.925     0.093     1.853     2.129
    19   1 H        0.925     0.085     1.930     2.172
    20   1 H        0.925     0.116     1.649     2.008
    21   1 H        0.803     0.330     0.638     1.255
    22   6 C        2.675     0.344    21.157     7.527
    23   8 O        0.860    -0.521    24.247     6.602
    24   7 N        2.645    -0.284    27.329     7.764
    25   1 H        0.860     0.205     1.079     1.627
    26   1 H        0.861     0.192     1.149     1.679
    27   7 N        2.645    -0.286    27.376     7.771
    28   1 H        0.861     0.192     1.149     1.679
    29   1 H        0.860     0.210     1.055     1.609
    30   6 C        2.675     0.341    21.210     7.536
    31   8 O        0.861    -0.541    24.699     6.663
    32   7 N        2.643    -0.313    28.068     7.868
    33   1 H        0.859     0.249     0.889     1.477
    34   1 H        0.860     0.177     1.233     1.739
    35   7 N        2.644    -0.289    27.446     7.781
    36   1 H        0.861     0.185     1.188     1.707
    37   1 H        0.860     0.203     1.092     1.637
    38   6 C        2.675     0.345    21.146     7.525
    39   8 O        0.860    -0.530    24.468     6.632
    40   7 N        2.646    -0.294    27.587     7.801
    41   1 H        0.860     0.196     1.127     1.663
    42   1 H        0.861     0.182     1.203     1.718
    43   7 N        2.645    -0.301    27.755     7.824
    44   1 H        0.860     0.177     1.233     1.739
    45   1 H        0.860     0.229     0.971     1.543
    46   6 C        2.675     0.339    21.235     7.541
    47   8 O        0.860    -0.534    24.550     6.643
    48   7 N        2.646    -0.318    28.172     7.883
    49   1 H        0.860     0.227     0.976     1.548
    50   1 H        0.860     0.196     1.128     1.664
    51   7 N        2.647    -0.311    27.996     7.858
    52   1 H        0.860     0.214     1.040     1.597
    53   1 H        0.860     0.190     1.157     1.685

 Mol. C6AA /au·bohr⁶  :      21791.713723
 Mol. C8AA /au·bohr⁸  :     454275.787469
 Mol. α(0) /au        :        220.547361


Wiberg/Mayer (AO) data.
largest (>0.10) Wiberg bond orders for each atom

 ---------------------------------------------------------------------------
     #   Z sym  total        # sym  WBO       # sym  WBO       # sym  WBO
 ---------------------------------------------------------------------------
     1   8 O    1.957 --     2 C    1.021    21 H    0.834
     2   6 C    3.966 --     1 O    1.021     5 C    0.994     3 H    0.965
                             4 H    0.961
     3   1 H    0.997 --     2 C    0.965
     4   1 H    0.997 --     2 C    0.961
     5   6 C    3.920 --     2 C    0.994     6 H    0.951     7 H    0.948
                             8 N    0.928
     6   1 H    0.988 --     5 C    0.951
     7   1 H    0.986 --     5 C    0.948
     8   7 N    3.821 --    17 C    0.962     9 C    0.960    13 C    0.953
                             5 C    0.928
     9   6 C    3.929 --    11 H    0.978    10 H    0.974    12 H    0.964
                             8 N    0.960
    10   1 H    0.990 --     9 C    0.974
    11   1 H    0.994 --     9 C    0.978
    12   1 H    0.986 --     9 C    0.964
    13   6 C    3.917 --    16 H    0.978    15 H    0.964    14 H    0.956
                             8 N    0.953
    14   1 H    0.986 --    13 C    0.956
    15   1 H    0.986 --    13 C    0.964
    16   1 H    0.993 --    13 C    0.978
    17   6 C    3.932 --    19 H    0.977    18 H    0.973    20 H    0.968
                             8 N    0.962
    18   1 H    0.991 --    17 C    0.973
    19   1 H    0.993 --    17 C    0.977
    20   1 H    0.987 --    17 C    0.968
    21   1 H    0.891 --     1 O    0.834
    22   6 C    3.960 --    23 O    1.503    27 N    1.226    24 N    1.222
    23   8 O    1.916 --    22 C    1.503    27 N    0.141    24 N    0.137
    24   7 N    3.334 --    22 C    1.222    26 H    0.944    25 H    0.941
                            23 O    0.137
    25   1 H    0.958 --    24 N    0.941
    26   1 H    0.963 --    24 N    0.944
    27   7 N    3.339 --    22 C    1.226    28 H    0.945    29 H    0.937
                            23 O    0.141
    28   1 H    0.963 --    27 N    0.945
    29   1 H    0.956 --    27 N    0.937
    30   6 C    3.960 --    31 O    1.469    32 N    1.259    35 N    1.217
    31   8 O    1.889 --    30 C    1.469    32 N    0.138    35 N    0.130
    32   7 N    3.336 --    30 C    1.259    34 H    0.949    33 H    0.856
                            31 O    0.138
    33   1 H    0.938 --    32 N    0.856
    34   1 H    0.969 --    32 N    0.949
    35   7 N    3.333 --    30 C    1.217    36 H    0.947    37 H    0.942
                            31 O    0.130
    36   1 H    0.966 --    35 N    0.947
    37   1 H    0.959 --    35 N    0.942
    38   6 C    3.959 --    39 O    1.527    43 N    1.228    40 N    1.196
    39   8 O    1.888 --    38 C    1.527    43 N    0.146    40 N    0.139
    40   7 N    3.311 --    38 C    1.196    42 H    0.948    41 H    0.945
                            39 O    0.139
    41   1 H    0.962 --    40 N    0.945
    42   1 H    0.967 --    40 N    0.948
    43   7 N    3.328 --    38 C    1.228    44 H    0.950    45 H    0.906
                            39 O    0.146
    44   1 H    0.969 --    43 N    0.950
    45   1 H    0.948 --    43 N    0.906
    46   6 C    3.960 --    47 O    1.488    48 N    1.239    51 N    1.221
    47   8 O    1.912 --    46 C    1.488    48 N    0.141    51 N    0.131
    48   7 N    3.327 --    46 C    1.239    50 H    0.930    49 H    0.892
                            47 O    0.141
    49   1 H    0.948 --    48 N    0.892
    50   1 H    0.962 --    48 N    0.930
    51   7 N    3.315 --    46 C    1.221    53 H    0.946    52 H    0.904
                            47 O    0.131
    52   1 H    0.954 --    51 N    0.904
    53   1 H    0.964 --    51 N    0.946
 ---------------------------------------------------------------------------

Topologies differ in total number of bonds
Writing topology from bond orders to xtbtopo.mol

molecular dipole:
                 x           y           z       tot (Debye)
 q only:        0.209      -0.942       0.671
   full:        0.979      -0.959       1.016       4.336
molecular quadrupole (traceless):
                xx          xy          yy          xz          yz          zz
 q only:       32.760      -6.086       6.447      28.864     -19.326     -39.206
  q+dip:       34.665      -8.689      12.830      30.334     -24.027     -47.495
   full:       34.189      -8.626      12.902      30.544     -24.070     -47.092

           -------------------------------------------------
          |               Frequency Printout                |
           -------------------------------------------------
 projected vibrational frequencies (cm⁻¹)
eigval :       -0.00    -0.00     0.00     0.00     0.00     0.00
eigval :       11.47    18.16    21.15    26.46    28.48    34.51
eigval :       38.52    45.01    47.88    55.35    57.61    63.97
eigval :       69.03    79.09    85.31    95.99   104.72   115.38
eigval :      120.08   123.21   133.54   150.23   156.98   186.78
eigval :      196.42   212.67   221.64   230.85   250.58   272.81
eigval :      289.90   304.08   330.90   355.39   358.99   379.93
eigval :      399.26   427.73   447.36   454.91   456.26   461.79
eigval :      464.05   467.05   471.17   472.98   482.67   491.78
eigval :      501.75   514.12   529.94   541.20   545.13   549.25
eigval :      558.47   563.52   618.65   650.08   666.57   673.46
eigval :      675.34   676.80   700.04   716.68   765.16   800.87
eigval :      915.27   921.31   950.16   956.61   965.78   995.71
eigval :      998.25  1001.75  1003.10  1014.29  1022.10  1024.75
eigval :     1029.80  1035.45  1038.51  1080.83  1085.66  1087.36
eigval :     1092.06  1102.62  1116.95  1124.42  1161.75  1226.19
eigval :     1244.89  1271.31  1315.51  1326.88  1342.77  1353.02
eigval :     1357.07  1361.80  1365.28  1383.65  1403.00  1412.80
eigval :     1422.02  1437.81  1440.88  1445.56  1448.26  1453.05
eigval :     1454.80  1459.52  1464.49  1468.21  1468.41  1483.10
eigval :     1487.80  1499.22  1506.84  1507.60  1515.86  1664.17
eigval :     1687.59  1704.70  1718.29  2898.14  2985.95  2992.58
eigval :     3012.12  3029.06  3035.92  3036.68  3040.41  3041.36
eigval :     3042.73  3047.08  3049.35  3060.35  3108.75  3260.98
eigval :     3314.74  3378.51  3398.31  3489.33  3493.53  3499.28
eigval :     3499.44  3500.89  3527.41  3531.33  3539.71  3557.17
eigval :     3563.20  3564.01  3568.24
 reduced masses (amu)
   1: 12.33   2: 12.61   3: 12.69   4: 12.73   5: 12.14   6: 12.67   7: 11.85   8: 11.92
   9: 12.05  10: 12.36  11: 11.96  12: 12.06  13: 12.27  14: 12.62  15: 11.02  16: 12.31
  17: 12.86  18: 13.27  19: 12.81  20: 11.98  21: 12.91  22: 12.67  23: 11.91  24: 11.98
  25: 13.02  26: 13.01  27: 13.32  28: 12.60  29: 13.42  30:  9.09  31: 11.88  32:  9.20
  33:  3.64  34:  7.57  35:  4.91  36:  2.70  37:  3.29  38:  8.01  39:  6.95  40:  3.68
  41:  3.99  42:  5.39  43:  3.09  44:  8.87  45:  2.35  46:  2.91  47:  8.19  48:  6.02
  49:  4.79  50:  3.36  51:  8.49  52:  7.51  53:  8.13  54:  1.94  55:  8.87  56:  2.43
  57: 11.00  58: 10.07  59:  7.59  60: 10.46  61:  9.13  62:  6.43  63:  2.68  64:  2.64
  65:  9.61  66: 11.53  67: 11.81  68: 11.49  69:  1.97  70:  4.13  71:  9.15  72:  2.22
  73:  6.98  74:  8.33  75:  5.19  76:  4.99  77:  5.11  78:  7.44  79:  8.74  80:  7.24
  81:  6.44  82:  7.21  83:  6.71  84:  8.85  85:  9.67  86:  7.32  87:  3.20  88:  9.93
  89:  9.24  90:  7.20  91:  7.93  92:  4.05  93:  7.66  94:  8.23  95:  2.86  96:  5.60
  97:  7.13  98:  8.26  99:  5.44 100:  3.72 101:  4.86 102:  4.27 103:  6.14 104:  5.19
 105:  4.13 106:  3.80 107:  2.57 108:  2.56 109:  2.05 110:  2.44 111:  1.67 112:  3.21
 113:  3.06 114:  3.30 115:  1.60 116:  1.63 117:  2.97 118:  1.71 119:  1.74 120:  1.66
 121:  1.76 122:  7.87 123:  8.96 124:  9.14 125:  9.57 126: 12.31 127: 12.66 128: 12.75
 129: 12.81 130:  1.76 131:  1.67 132:  1.73 133:  1.78 134:  1.78 135:  1.71 136:  1.67
 137:  1.89 138:  1.67 139:  1.65 140:  1.59 141:  1.91 142:  1.71 143:  1.83 144:  1.89
 145:  1.72 146:  1.68 147:  1.67 148:  1.81 149:  1.53 150:  1.50 151:  1.46 152:  1.45
 153:  1.88 154:  1.98 155:  1.99 156:  2.19 157:  2.18 158:  2.18 159:  2.19
 IR intensities (km·mol⁻¹)
   1:  0.08   2:  2.51   3:  0.99   4:  1.72   5:  1.05   6:  2.80   7:  0.42   8:  2.52
   9:  1.37  10:  2.52  11:  0.98  12:  1.38  13:  0.71  14:  0.72  15:  2.35  16:  0.56
  17:  4.78  18:  2.73  19:  2.41  20:  0.98  21:  7.34  22:  4.70  23: 10.17  24: 11.84
  25: 21.79  26:  3.40  27:  7.13  28:  9.17  29: 30.07  30:  3.63  31: 19.84  32: 48.58
  33: 22.14  34:155.17  35:  5.14  36:134.33  37:  0.84  38:  1.02  39:  1.29  40:369.65
  41:  4.11  42:  2.60  43:337.28  44:  0.82  45: 60.46  46:174.29  47: 14.23  48:  6.00
  49:  1.89  50: 48.47  51:  7.28  52:  1.57  53: 14.62  54:  1.41  55: 73.92  56: 59.43
  57: 26.59  58: 49.30  59: 74.07  60:  7.49  61:  3.89  62:107.79  63:222.72  64:102.93
  65: 16.74  66: 48.23  67: 50.50  68:  7.25  69:177.68  70:180.38  71:  2.03  72:335.27
  73:  6.34  74:  5.58  75:  5.91  76:  1.85  77:  5.94  78: 13.71  79: 13.71  80:  5.48
  81:  4.41  82: 33.14  83: 21.01  84:  0.23  85:  3.53  86: 15.53  87:  2.36  88:  0.60
  89:  4.39  90: 14.93  91:  9.53  92: 21.65  93:  6.20  94: 37.85  95:  5.85  96:  8.24
  97:  4.12  98:  1.96  99:  1.51 100:  5.03 101:126.77 102: 50.01 103: 99.85 104: 93.47
 105: 21.60 106:100.33 107: 20.71 108: 13.22 109:  5.13 110: 22.22 111:  2.18 112: 11.53
 113: 40.92 114:  0.76 115:  7.63 116: 11.77 117: 13.72 118:  6.01 119: 11.73 120: 58.33
 121: 18.47 122:800.13 123:284.90 124:485.95 125:571.74 126:289.97 127:****** 128:344.81
 129:796.97 130: 31.27 131: 36.86 132: 49.72 133: 49.08 134: 11.33 135:  7.70 136:  5.32
 137:  4.97 138:  9.77 139: 11.33 140: 12.34 141: 13.24 142:  3.03 143:****** 144:472.21
 145:690.92 146:190.57 147:400.70 148: 93.02 149:127.02 150:  2.69 151: 18.23 152: 20.77
 153: 12.01 154: 15.74 155: 38.76 156: 16.94 157: 28.07 158:  5.89 159: 16.15
 Raman intensities (amu)
Molecule has no symmetry elements
It seems to be the C1 point group
   1:  0.00   2:  0.00   3:  0.00   4:  0.00   5:  0.00   6:  0.00   7:  0.00   8:  0.00
   9:  0.00  10:  0.00  11:  0.00  12:  0.00  13:  0.00  14:  0.00  15:  0.00  16:  0.00
  17:  0.00  18:  0.00  19:  0.00  20:  0.00  21:  0.00  22:  0.00  23:  0.00  24:  0.00
  25:  0.00  26:  0.00  27:  0.00  28:  0.00  29:  0.00  30:  0.00  31:  0.00  32:  0.00
  33:  0.00  34:  0.00  35:  0.00  36:  0.00  37:  0.00  38:  0.00  39:  0.00  40:  0.00
  41:  0.00  42:  0.00  43:  0.00  44:  0.00  45:  0.00  46:  0.00  47:  0.00  48:  0.00
  49:  0.00  50:  0.00  51:  0.00  52:  0.00  53:  0.00  54:  0.00  55:  0.00  56:  0.00
  57:  0.00  58:  0.00  59:  0.00  60:  0.00  61:  0.00  62:  0.00  63:  0.00  64:  0.00
  65:  0.00  66:  0.00  67:  0.00  68:  0.00  69:  0.00  70:  0.00  71:  0.00  72:  0.00
  73:  0.00  74:  0.00  75:  0.00  76:  0.00  77:  0.00  78:  0.00  79:  0.00  80:  0.00
  81:  0.00  82:  0.00  83:  0.00  84:  0.00  85:  0.00  86:  0.00  87:  0.00  88:  0.00
  89:  0.00  90:  0.00  91:  0.00  92:  0.00  93:  0.00  94:  0.00  95:  0.00  96:  0.00
  97:  0.00  98:  0.00  99:  0.00 100:  0.00 101:  0.00 102:  0.00 103:  0.00 104:  0.00
 105:  0.00 106:  0.00 107:  0.00 108:  0.00 109:  0.00 110:  0.00 111:  0.00 112:  0.00
 113:  0.00 114:  0.00 115:  0.00 116:  0.00 117:  0.00 118:  0.00 119:  0.00 120:  0.00
 121:  0.00 122:  0.00 123:  0.00 124:  0.00 125:  0.00 126:  0.00 127:  0.00 128:  0.00
 129:  0.00 130:  0.00 131:  0.00 132:  0.00 133:  0.00 134:  0.00 135:  0.00 136:  0.00
 137:  0.00 138:  0.00 139:  0.00 140:  0.00 141:  0.00 142:  0.00 143:  0.00 144:  0.00
 145:  0.00 146:  0.00 147:  0.00 148:  0.00 149:  0.00 150:  0.00 151:  0.00 152:  0.00
 153:  0.00 154:  0.00 155:  0.00 156:  0.00 157:  0.00 158:  0.00 159:  0.00
 output can be read by thermo (or use thermo option).
 writing <g98.out> molden fake output.
 recommended (thermochemical) frequency scaling factor: 1.0
           -------------------------------------------------
          |             Thermodynamic Functions             |
           -------------------------------------------------

c1  symmetry found (for desy threshold:  0.10E+00) used in thermo

          ...................................................
          :                      SETUP                      :
          :.................................................:
          :  # frequencies                         153      :
          :  # imaginary freq.                       0      :
          :  linear?                             false      :
          :  only rotor calc.                    false      :
          :  symmetry                               c1      :
          :  rotational number                       1      :
          :  scaling factor                  1.0000000      :
          :  rotor cutoff                   50.0000000 cm⁻¹ :
          :  imag. cutoff                  -20.0000000 cm⁻¹ :
          :.................................................:

    mode    ω/cm⁻¹     T·S(HO)/kcal·mol⁻¹    T·S(FR)/kcal·mol⁻¹   T·S(vib)
   ------------------------------------------------------------------------
       1     11.47    -2.30716 (  0.28%)    -1.49252 ( 99.72%)    -1.49478
       2     18.16    -2.03515 (  1.71%)    -1.35651 ( 98.29%)    -1.36812
       3     21.15    -1.94486 (  3.10%)    -1.31134 ( 96.90%)    -1.33100
       4     26.46    -1.81227 (  7.27%)    -1.24499 ( 92.73%)    -1.28626
       5     28.48    -1.76873 (  9.53%)    -1.22319 ( 90.47%)    -1.27517
       6     34.51    -1.65530 ( 18.49%)    -1.16638 ( 81.51%)    -1.25678
       7     38.52    -1.59026 ( 26.05%)    -1.13378 ( 73.95%)    -1.25270
       8     45.01    -1.49831 ( 39.64%)    -1.08766 ( 60.36%)    -1.25044
       9     47.88    -1.46181 ( 45.68%)    -1.06933 ( 54.32%)    -1.24864
      10     55.35    -1.37641 ( 60.03%)    -1.02641 ( 39.97%)    -1.23650
      11     57.61    -1.35287 ( 63.79%)    -1.01457 ( 36.21%)    -1.23039
      12     63.97    -1.29125 ( 72.82%)    -0.98355 ( 27.18%)    -1.20761
      13     69.03    -1.24654 ( 78.41%)    -0.96100 ( 21.59%)    -1.18490
      14     79.09    -1.16675 ( 86.23%)    -0.92068 ( 13.77%)    -1.13286
      15     85.31    -1.12246 ( 89.45%)    -0.89824 ( 10.55%)    -1.09880
      16     95.99    -1.05368 ( 93.14%)    -0.86331 (  6.86%)    -1.04063
      17    104.72    -1.00312 ( 95.06%)    -0.83753 (  4.94%)    -0.99494
      18    115.38    -0.94703 ( 96.59%)    -0.80882 (  3.41%)    -0.94232
      19    120.08    -0.92399 ( 97.08%)    -0.79699 (  2.92%)    -0.92028
      20    123.21    -0.90920 ( 97.36%)    -0.78938 (  2.64%)    -0.90603
      21    133.54    -0.86299 ( 98.07%)    -0.76553 (  1.93%)    -0.86111
      22    150.23    -0.79584 ( 98.79%)    -0.73062 (  1.21%)    -0.79505
      23    156.98    -0.77098 ( 98.98%)    -0.71761 (  1.02%)    -0.77043
      24    186.78    -0.67370 ( 99.49%)    -0.66613 (  0.51%)    -0.67366
      25    196.42    -0.64590 ( 99.58%)    -0.65121 (  0.42%)    -0.64592
      26    212.67    -0.60245 ( 99.70%)    -0.62767 (  0.30%)    -0.60253
      27    221.64    -0.58009 ( 99.74%)    -0.61543 (  0.26%)    -0.58019
      28    230.85    -0.55823 ( 99.78%)    -0.60337 (  0.22%)    -0.55833
      29    250.58    -0.51475 ( 99.84%)    -0.57907 (  0.16%)    -0.51485
      30    272.81    -0.47059 ( 99.89%)    -0.55390 (  0.11%)    -0.47068
      31    289.90    -0.43964 ( 99.91%)    -0.53590 (  0.09%)    -0.43973
   ------------------------------------------------------------------------

   temp. (K)  partition function   enthalpy   heat capacity  entropy
                                   cal/mol     cal/K/mol   cal/K/mol   J/K/mol
 298.15  VIB  0.186E+18            19437.132    103.399    128.083
         ROT  0.130E+08              888.752      2.981     35.530
         INT  0.241E+25            20325.884    106.380    163.612
         TR   0.618E+28             1481.254      4.968     43.384
         TOT                       21807.1384   111.3480   206.9967   866.0741

       T/K    H(0)-H(T)+PV         H(T)/Eh          T*S/Eh         G(T)/Eh
   ------------------------------------------------------------------------
    298.15    0.347519E-01    0.474235E+00    0.983508E-01    0.375884E+00
   ------------------------------------------------------------------------

         :::::::::::::::::::::::::::::::::::::::::::::::::::::
         ::                  THERMODYNAMIC                  ::
         :::::::::::::::::::::::::::::::::::::::::::::::::::::
         :: total free energy         -80.558036007763 Eh   ::
         ::.................................................::
         :: total energy              -80.933919725646 Eh   ::
         :: zero point energy           0.439482630682 Eh   ::
         :: G(RRHO) w/o ZPVE           -0.063598912799 Eh   ::
         :: G(RRHO) contrib.            0.375883717883 Eh   ::
         :::::::::::::::::::::::::::::::::::::::::::::::::::::

           -------------------------------------------------
          | TOTAL ENERGY              -80.933919725646 Eh   |
          | TOTAL ENTHALPY            -80.459685207861 Eh   |
          | TOTAL FREE ENERGY         -80.558036007763 Eh   |
          | GRADIENT NORM               0.000081322658 Eh/α |
          | HOMO-LUMO GAP               5.300666280710 eV   |
           -------------------------------------------------

------------------------------------------------------------------------
 * finished run on 2024/01/10 at 15:37:53.832     
------------------------------------------------------------------------
 total:
 * wall-time:     0 d,  0 h,  0 min, 14.674 sec
 *  cpu-time:     0 d,  0 h,  0 min, 14.593 sec
 * ratio c/w:     0.994 speedup
 SCF:
 * wall-time:     0 d,  0 h,  0 min,  0.086 sec
 *  cpu-time:     0 d,  0 h,  0 min,  0.058 sec
 * ratio c/w:     0.670 speedup
 analytical hessian:
 * wall-time:     0 d,  0 h,  0 min, 14.562 sec
 *  cpu-time:     0 d,  0 h,  0 min, 14.509 sec
 * ratio c/w:     0.996 speedup

