92
 energy: -113.285049488713 gnorm: 0.000498827752 xtb: 6.6.1 (8d0f1dd)
C            1.56710964190305        0.06520512608541       -0.12481107740947
O            2.25309284774392       -0.96079230238401       -0.47026359936839
N            1.50857418332696        0.59285097272743        1.05188853652754
H            2.11912975936592        0.10227071456631        1.70406991771677
H            0.84431468828394        2.58517618669234        1.42329355722176
N            0.72157769629920        0.62504921694955       -1.09996957742971
H            0.59226126207557        1.62699517077230       -0.98655151329083
H            1.03068611364704        0.41523785255166       -2.04061164396771
O            2.34933528819801       -1.64779550672467       -2.91564546279212
C            1.13226927887658       -2.25638877650764       -3.18234138115613
H            0.30741725482870       -1.80338807626280       -2.62250547745231
H            0.91822053575623       -2.12444892718571       -4.25241289370609
C            1.12155951355805       -3.78801447545440       -2.95362874264960
H            1.86953197218545       -4.24647684401450       -3.60471940683875
H            0.12951420508722       -4.14277381040275       -3.23967156967704
N            1.39816407916518       -4.24572518840114       -1.56454865762640
C            2.83827479668418       -4.14627724201593       -1.26783658296127
H            3.39299020183177       -4.87996044695093       -1.85042642769761
H            2.99610128094555       -4.30400018837213       -0.19919439388170
H            3.18546774143624       -3.14639027869346       -1.52303898113560
C            0.98036300602229       -5.65049513270179       -1.44202482207182
H            1.43619131108585       -6.25421628000737       -2.22637820857395
H           -0.10323080916447       -5.72459056363694       -1.52098105294657
H            1.29057861748902       -6.03780535717582       -0.47283456219663
C            0.65679582037813       -3.44129971900904       -0.57877131982313
H           -0.36015849304463       -3.25777579258907       -0.91285860409265
H            1.16714925743040       -2.48024617104144       -0.44246368219554
H            0.63896344921968       -3.95470880606460        0.37747094887099
H            2.34262686864387       -1.30007634547898       -1.93919088970873
O            0.81516762278096        3.58722575486861       -0.96280141062095
C            0.16665543107607        4.17839893005068        0.13612195704098
H            0.27091155710718        5.27471377515494        0.08621345112049
H           -0.89479921643472        3.93850319508544        0.01294439443113
C            0.67839605018761        3.66338341281403        1.47730789814190
H           -0.03635472822623        3.88417036742449        2.26616766481084
H            1.62295876359683        4.13983078391246        1.72778810396521
N            3.63941412761581        3.36121791536214       -0.75587173848057
C            4.08444706459330        2.89811430946440        0.54589358345559
H            3.95378314696537        3.69358906369013        1.27811210706211
H            5.14244496241292        2.59732223174768        0.54432543041562
H            3.47025802709382        2.04813721288229        0.84063043170374
C            4.27773108366284        4.60701195239470       -1.13145592904361
H            4.04895283735871        5.36859747681122       -0.38630389044732
H            3.88458923608397        4.93201899222980       -2.09401320525141
H            5.37180495559991        4.51489110875334       -1.21295123199151
C            3.85650553600497        2.33932208020819       -1.76399689496816
H            3.38630372976307        2.64764518405166       -2.69664378436988
H            3.40411122140974        1.40887733888899       -1.43175526820512
H            4.92542372877572        2.15599584062304       -1.94844372004756
H            1.78385205914708        3.58163415546376       -0.80035265249681
O           -1.62517319965332       -1.38319913838017       -1.27950529278450
C           -2.34718805744610       -1.76047968113485       -0.07643491071430
H           -3.36144934357959       -1.33952583347723       -0.15144075214461
H           -2.46708953028778       -2.85061481365745       -0.16262852941891
C           -1.71048929578367       -1.45175682348349        1.25043946163475
H           -0.62148549095551       -1.43399418793520        1.09307854222414
H           -2.00904524397947       -2.96992878558219        2.54110182448796
N           -2.05484944997303       -0.06520688864062        1.76041357210112
C           -2.01414228391499        1.02601259530265        0.76406325904190
H           -1.00469406679051        1.09202912283476        0.36480406454373
H           -2.27492544434411        1.97572304524701        1.23327572978415
H           -2.71342242191460        0.82610880570972       -0.04445288041967
C           -1.08146653847368        0.26185316308618        2.81211054011814
H           -0.09763434713018        0.38900148345407        2.35069437457750
H           -1.04823975807236       -0.54819937633718        3.53786171658629
H           -1.36375255726306        1.18926750871675        3.31018999349369
C           -3.39353270799613       -0.12335395193798        2.36081721142304
H           -3.39289602478953       -0.88387288085039        3.13773151834171
H           -4.12728891901258       -0.39963674125592        1.60686015668722
H           -3.66608851373072        0.84186819984588        2.79038439803873
H           -1.00382877542728       -0.67316120299256       -1.04868555157369
O           -0.97209673017109       -2.33289270780871        4.88167613191943
C           -2.02922054658476       -3.25370188646440        4.69844391945705
H           -1.93383396043659       -4.07212603801931        5.43082914654920
H           -2.94257128123994       -2.69999849552101        4.93303118037166
C           -2.08349304991559       -3.80431580363200        3.28142208067922
H           -3.01356928176087       -4.34376099903369        3.12720127239549
H           -1.25548977631852       -4.49282523762000        3.11539175407081
N            3.16616840987274       -3.76640110279410        1.92091078563029
C            4.04397493771732       -2.65709373721223        1.57647401481869
H            4.89107071352232       -3.03238016070104        1.00366706940965
H            4.42698207523868       -2.13887600880928        2.46645129844497
H            3.49152391019419       -1.94852313697777        0.95829760569579
C            3.88802309926847       -4.80408280094307        2.63281982617872
H            4.70145021026134       -5.17046237910986        2.00669193447054
H            3.21164687290350       -5.63235316500475        2.84747443847839
H            4.31409597153950       -4.45025878270379        3.58362332175174
C            2.04267735582798       -3.28980571726173        2.70872148547018
H            1.34905752655337       -4.11472070334362        2.87897839498255
H            1.53085260380707       -2.50065162390210        2.16269375184595
H            2.35858120610558       -2.89035347366876        3.68456817506990
H           -0.18941289473397       -2.69005667525639        4.44799586511380
