 Entering Gaussian System
 *********************************************
 Gaussian 98:
 frequency output generated by the xtb code
 *********************************************
                         Standard orientation:
 --------------------------------------------------------------------
  Center     Atomic     Atomic              Coordinates (Angstroms)
  Number     Number      Type              X           Y           Z
 --------------------------------------------------------------------
    1          8             0        1.305223   -1.088802    0.036426
    2          6             0        1.110005   -1.991336   -1.016329
    3          1             0        1.886812   -1.790986   -1.759179
    4          1             0        1.249848   -3.021265   -0.652898
    5          6             0       -0.292926   -1.941198   -1.632588
    6          1             0       -1.010693   -1.981176   -0.808277
    7          1             0       -0.422822   -2.822051   -2.264770
    8          7             0       -0.611959   -0.740274   -2.446574
    9          6             0       -0.472690    0.492221   -1.650872
   10          1             0       -1.007573    0.388084   -0.709685
   11          1             0       -0.875865    1.319801   -2.231418
   12          1             0        0.579694    0.686287   -1.459375
   13          6             0       -2.011050   -0.837512   -2.895618
   14          1             0       -2.675815   -0.870783   -2.034724
   15          1             0       -2.157253   -1.733759   -3.495826
   16          1             0       -2.245048    0.039715   -3.497663
   17          6             0        0.252753   -0.647989   -3.634266
   18          1             0        0.227137   -1.579041   -4.195659
   19          1             0        1.272236   -0.410739   -3.340597
   20          1             0       -0.113597    0.171273   -4.253134
   21          1             0        0.451586   -1.031267    0.546290
   22          6             0        3.401967    1.373958   -1.709148
   23          8             0        2.463823    1.196987   -2.480736
   24          7             0        4.412981    2.232768   -2.002646
   25          1             0        4.457952    2.608166   -2.933230
   26          1             0        5.245922    2.273221   -1.443901
   27          7             0        3.474976    0.751928   -0.517162
   28          1             0        4.227771    0.925358    0.122457
   29          1             0        2.722275    0.137773   -0.227563
   30          6             0       -0.368763    2.960311   -4.549440
   31          8             0       -1.080211    2.003780   -4.264918
   32          7             0       -0.864051    4.039124   -5.210009
   33          1             0       -1.800115    3.977884   -5.569372
   34          1             0       -0.267709    4.759642   -5.573862
   35          7             0        0.941889    3.019314   -4.226006
   36          1             0        1.466960    3.858136   -4.393119
   37          1             0        1.365219    2.310719   -3.637325
   38          6             0       -1.189932   -1.130440    2.392478
   39          8             0       -1.101380   -1.003527    1.162950
   40          7             0       -0.111189   -1.282159    3.181923
   41          1             0        0.810978   -1.294029    2.785593
   42          1             0       -0.240533   -1.359586    4.178900
   43          7             0       -2.371306   -1.156698    3.031841
   44          1             0       -2.373832   -1.197463    4.042022
   45          1             0       -3.215740   -0.960947    2.526711
   46          6             0       -1.755479   -1.595343    6.929763
   47          8             0       -1.493166   -1.377118    5.754576
   48          7             0       -2.861871   -2.281791    7.307000
   49          1             0       -3.408968   -2.732892    6.595324
   50          1             0       -3.007440   -2.565535    8.258758
   51          7             0       -0.958437   -1.166288    7.937552
   52          1             0       -1.239377   -1.232754    8.898907
   53          1             0       -0.201765   -0.545424    7.711134
 --------------------------------------------------------------------
     1 basis functions        1 primitive gaussians
     1 alpha electrons        1 beta electrons

 Harmonic frequencies (cm**-1), IR intensities (km*mol⁻¹),
 Raman scattering activities (A**4/amu), Raman depolarization ratios,
 reduced masses (AMU), force constants (mDyne/A) and normal coordinates:
                      1                      2                      3
                        a                      a                      a 
 Frequencies --     6.9275                10.1604                12.7098
 Red. masses --    11.3927                12.1193                12.2098
 Frc consts  --     0.0000                 0.0000                 0.0000
 IR Inten    --     0.0510                 1.5204                 1.1844
 Raman Activ --     0.0000                 0.0000                 0.0000
 Depolar     --     0.0000                 0.0000                 0.0000
 Atom AN      X      Y      Z        X      Y      Z        X      Y      Z
   1   8     0.01  -0.08  -0.05     0.02  -0.18  -0.08     0.17  -0.01  -0.04
   2   6    -0.00  -0.04  -0.07     0.04  -0.10  -0.12     0.11   0.00  -0.04
   3   1    -0.00  -0.01  -0.02     0.01  -0.01  -0.03     0.02   0.01  -0.02
   4   1     0.00  -0.02  -0.03     0.02  -0.03  -0.05     0.04   0.00  -0.02
   5   6    -0.01  -0.03  -0.06     0.05  -0.10  -0.13     0.08  -0.01   0.03
   6   1     0.00  -0.01  -0.01     0.01  -0.05  -0.04     0.04  -0.01   0.02
   7   1    -0.00  -0.00  -0.02     0.02  -0.02  -0.05     0.02  -0.00   0.01
   8   7    -0.01  -0.00  -0.02     0.03  -0.06  -0.07     0.03  -0.01   0.06
   9   6     0.00  -0.03   0.01    -0.01  -0.10   0.00     0.07  -0.01   0.06
  10   1     0.00  -0.01   0.00    -0.01  -0.05  -0.00     0.04  -0.01   0.03
  11   1    -0.00  -0.00   0.01    -0.01  -0.02   0.01     0.01  -0.00   0.03
  12   1     0.00  -0.01   0.00    -0.01  -0.02   0.01     0.02  -0.00  -0.00
  13   6    -0.02   0.01  -0.01     0.04  -0.07  -0.09    -0.00  -0.01   0.14
  14   1    -0.00  -0.00  -0.00     0.01  -0.04  -0.03     0.02  -0.01   0.05
  15   1    -0.01   0.01  -0.01     0.02  -0.01  -0.04    -0.01  -0.00   0.04
  16   1    -0.01   0.01   0.01     0.01  -0.01  -0.01    -0.01  -0.00   0.05
  17   6    -0.02   0.03  -0.03     0.05   0.03  -0.05    -0.05   0.01   0.00
  18   1    -0.01   0.01  -0.02     0.02   0.02  -0.03    -0.02   0.00  -0.00
  19   1    -0.01   0.00  -0.01     0.01   0.01  -0.01    -0.01   0.00  -0.02
  20   1    -0.01   0.01   0.00     0.01   0.01  -0.00    -0.03   0.00   0.01
  21   1     0.00  -0.03  -0.01     0.00  -0.05  -0.02     0.05  -0.01   0.00
  22   6     0.02  -0.06  -0.01    -0.03   0.00   0.10     0.07  -0.03  -0.17
  23   8     0.00  -0.03   0.01    -0.02   0.03   0.09     0.02  -0.01  -0.13
  24   7     0.03  -0.07  -0.00    -0.06   0.06   0.18     0.08  -0.06  -0.26
  25   1     0.00  -0.01   0.00    -0.02   0.03   0.05     0.01  -0.02  -0.07
  26   1     0.01  -0.03  -0.00    -0.02   0.01   0.05     0.03  -0.02  -0.08
  27   7     0.03  -0.10  -0.03    -0.03  -0.08   0.06     0.15  -0.03  -0.19
  28   1     0.01  -0.04  -0.01    -0.01  -0.03   0.02     0.05  -0.01  -0.06
  29   1     0.01  -0.03  -0.01    -0.00  -0.03   0.00     0.04  -0.00  -0.03
  30   6    -0.01   0.06   0.09    -0.05   0.07   0.15    -0.12   0.03   0.10
  31   8    -0.02   0.06   0.08    -0.03   0.03   0.10    -0.11   0.02   0.13
  32   7    -0.01   0.09   0.14    -0.08   0.10   0.23    -0.18   0.05   0.18
  33   1    -0.00   0.03   0.04    -0.02   0.03   0.06    -0.05   0.01   0.06
  34   1    -0.00   0.03   0.04    -0.03   0.04   0.08    -0.05   0.02   0.04
  35   7    -0.01   0.04   0.08    -0.06   0.10   0.18    -0.11   0.02   0.03
  36   1    -0.00   0.01   0.03    -0.02   0.03   0.07    -0.03   0.01   0.01
  37   1    -0.00   0.01   0.01    -0.01   0.02   0.04    -0.02   0.00  -0.01
  38   6     0.02  -0.06  -0.02    -0.00  -0.15  -0.09     0.15  -0.02   0.04
  39   8     0.01  -0.12  -0.03     0.00  -0.25  -0.11     0.20  -0.03   0.05
  40   7     0.03   0.03  -0.01    -0.00  -0.08  -0.08     0.14  -0.05   0.06
  41   1     0.01   0.02  -0.00    -0.00  -0.03  -0.02     0.04  -0.01   0.02
  42   1     0.01   0.02  -0.00    -0.00  -0.01  -0.02     0.03  -0.01   0.02
  43   7     0.02  -0.12  -0.03    -0.00  -0.13  -0.10     0.14  -0.00   0.01
  44   1     0.00  -0.02  -0.01    -0.00  -0.02  -0.03     0.03   0.01   0.00
  45   1     0.00  -0.05  -0.01    -0.00  -0.05  -0.03     0.04   0.01  -0.00
  46   6    -0.01   0.10  -0.01     0.03   0.19  -0.04    -0.19   0.03  -0.01
  47   8     0.02   0.11  -0.01    -0.01   0.05  -0.09    -0.01   0.05   0.04
  48   7     0.26  -0.36  -0.06    -0.08   0.47   0.10    -0.35   0.16  -0.20
  49   1     0.15  -0.18  -0.02    -0.06   0.14   0.05    -0.08   0.07  -0.08
  50   1     0.08  -0.09  -0.01    -0.02   0.16   0.04    -0.14   0.04  -0.06
  51   7    -0.32   0.57   0.03     0.19   0.15  -0.14    -0.30  -0.10   0.12
  52   1    -0.10   0.14   0.00     0.07   0.08  -0.03    -0.12  -0.03   0.02
  53   1    -0.15   0.24   0.01     0.08  -0.01  -0.07    -0.05  -0.05   0.07
                      4                      5                      6
                        a                      a                      a 
 Frequencies --    20.7626                25.8298                30.7694
 Red. masses --    12.2098                12.3402                11.8787
 Frc consts  --     0.0000                 0.0000                 0.0000
 IR Inten    --     1.8234                 2.8652                 0.3073
 Raman Activ --     0.0000                 0.0000                 0.0000
 Depolar     --     0.0000                 0.0000                 0.0000
 Atom AN      X      Y      Z        X      Y      Z        X      Y      Z
   1   8     0.05   0.16   0.06    -0.01  -0.03  -0.06     0.06  -0.04   0.00
   2   6     0.09   0.13   0.05    -0.07  -0.01  -0.06    -0.01  -0.06   0.03
   3   1     0.02   0.05   0.01    -0.02  -0.01  -0.02     0.00  -0.04   0.01
   4   1     0.04   0.04   0.01    -0.03  -0.00  -0.02    -0.02  -0.02   0.02
   5   6     0.08   0.06   0.05    -0.09   0.05  -0.02    -0.00   0.00   0.03
   6   1     0.03   0.01   0.02    -0.02   0.02   0.00    -0.00   0.01   0.01
   7   1     0.03   0.02   0.02    -0.04   0.02  -0.01    -0.01  -0.00   0.01
   8   7     0.03   0.05   0.05    -0.07   0.08   0.00     0.05   0.00   0.02
   9   6     0.04   0.06   0.01    -0.01   0.06   0.01     0.04   0.01   0.02
  10   1     0.02   0.02   0.01     0.00   0.02   0.01     0.01   0.00   0.00
  11   1     0.00   0.01   0.00     0.01   0.02   0.01     0.01   0.00   0.00
  12   1     0.01   0.02  -0.01     0.00   0.01   0.00     0.01   0.00   0.01
  13   6     0.01   0.01   0.10    -0.07   0.13   0.02     0.06   0.02  -0.03
  14   1     0.01   0.01   0.04    -0.02   0.04   0.01     0.01   0.01  -0.01
  15   1     0.00  -0.00   0.04    -0.03   0.04   0.00     0.02   0.01  -0.01
  16   1    -0.01  -0.00   0.02    -0.02   0.04   0.01     0.03   0.01  -0.01
  17   6    -0.02   0.03   0.01    -0.08   0.06  -0.01     0.09  -0.01   0.05
  18   1    -0.01   0.01   0.01    -0.03   0.02  -0.00     0.03  -0.01   0.02
  19   1    -0.00   0.01  -0.01    -0.02   0.01  -0.01     0.02   0.00   0.02
  20   1    -0.01   0.01   0.00    -0.02   0.02   0.00     0.03  -0.01   0.01
  21   1     0.01   0.03   0.02     0.00  -0.01  -0.00     0.02   0.01  -0.00
  22   6     0.09  -0.02  -0.13    -0.06   0.07   0.01     0.05   0.02  -0.00
  23   8     0.05  -0.02  -0.09    -0.02   0.02  -0.04     0.00   0.13   0.04
  24   7     0.15  -0.13  -0.25    -0.12   0.15   0.08     0.03   0.06   0.04
  25   1     0.04  -0.05  -0.07    -0.02   0.04   0.02    -0.01   0.05   0.02
  26   1     0.05  -0.04  -0.08    -0.04   0.05   0.03     0.02  -0.01  -0.00
  27   7     0.09   0.07  -0.09    -0.09   0.08   0.02     0.15  -0.16  -0.10
  28   1     0.04   0.01  -0.04    -0.03   0.03   0.01     0.04  -0.04  -0.03
  29   1     0.02   0.04  -0.00    -0.01   0.00  -0.01     0.03  -0.03  -0.02
  30   6    -0.01   0.02  -0.00     0.09   0.02  -0.13    -0.09  -0.03   0.00
  31   8    -0.02   0.04   0.02     0.03   0.11   0.00    -0.03  -0.09  -0.02
  32   7    -0.02   0.04   0.02     0.16  -0.03  -0.25    -0.15  -0.07  -0.01
  33   1    -0.01   0.01   0.01     0.04   0.00  -0.05    -0.04  -0.04  -0.01
  34   1    -0.00   0.01  -0.00     0.05  -0.03  -0.09    -0.05  -0.00   0.00
  35   7     0.00  -0.00  -0.05     0.11  -0.05  -0.19    -0.11   0.08   0.06
  36   1     0.00  -0.00  -0.02     0.05  -0.03  -0.08    -0.04   0.03   0.02
  37   1     0.00  -0.00  -0.02     0.02  -0.00  -0.03    -0.02   0.03   0.02
  38   6    -0.08  -0.08  -0.00     0.10  -0.19   0.06    -0.01   0.06  -0.02
  39   8     0.00  -0.02   0.01     0.06  -0.07   0.08     0.06   0.20  -0.01
  40   7    -0.14   0.05   0.09     0.14  -0.37  -0.01    -0.08  -0.51  -0.04
  41   1    -0.03   0.05   0.05     0.03  -0.09  -0.01    -0.02  -0.20  -0.01
  42   1    -0.06  -0.01   0.02     0.05  -0.11  -0.00    -0.03  -0.15  -0.01
  43   7    -0.14  -0.28  -0.11     0.14  -0.22   0.12    -0.03   0.47  -0.04
  44   1    -0.06  -0.10  -0.03     0.05  -0.08   0.03    -0.02   0.09  -0.01
  45   1    -0.04  -0.11  -0.05     0.03  -0.02   0.05     0.01   0.23  -0.01
  46   6    -0.07  -0.05   0.05    -0.02   0.01   0.08    -0.02  -0.03  -0.01
  47   8    -0.29  -0.34  -0.04     0.18  -0.28   0.08    -0.10  -0.18  -0.05
  48   7    -0.02   0.03   0.39    -0.13   0.17   0.07     0.03  -0.05   0.12
  49   1    -0.04  -0.03   0.16    -0.01   0.00   0.02     0.01  -0.05   0.05
  50   1     0.04   0.06   0.13    -0.07   0.10   0.03     0.02   0.02   0.04
  51   7     0.10   0.16  -0.17    -0.16   0.20   0.11    -0.01   0.15  -0.10
  52   1     0.07   0.10  -0.03    -0.08   0.11   0.02     0.01   0.07  -0.02
  53   1     0.02   0.03  -0.11    -0.02   0.02   0.02    -0.02   0.05  -0.06
                      7                      8                      9
                        a                      a                      a 
 Frequencies --    32.2445                37.7013                42.6021
 Red. masses --    12.0410                12.4995                13.2671
 Frc consts  --     0.0000                 0.0000                 0.0000
 IR Inten    --     0.8571                 0.4612                 4.7632
 Raman Activ --     0.0000                 0.0000                 0.0000
 Depolar     --     0.0000                 0.0000                 0.0000
 Atom AN      X      Y      Z        X      Y      Z        X      Y      Z
   1   8    -0.07   0.01  -0.03     0.15  -0.25  -0.13     0.05  -0.02   0.05
   2   6    -0.10  -0.04   0.03    -0.02  -0.18  -0.12     0.09   0.06  -0.03
   3   1    -0.02  -0.05   0.01    -0.01  -0.07  -0.05     0.02   0.05  -0.01
   4   1    -0.06  -0.01   0.03    -0.02  -0.06  -0.04     0.04   0.01  -0.03
   5   6    -0.08   0.04  -0.01    -0.05  -0.05  -0.02     0.08   0.03  -0.01
   6   1    -0.03   0.03  -0.01    -0.00  -0.01   0.01     0.03  -0.01  -0.00
   7   1    -0.03   0.01  -0.00    -0.05  -0.00  -0.01     0.03   0.02  -0.02
   8   7     0.01   0.06  -0.03    -0.02   0.00   0.05     0.02   0.07   0.07
   9   6    -0.06   0.05   0.00     0.09  -0.03   0.08     0.03   0.04   0.11
  10   1    -0.04   0.01  -0.01     0.04  -0.01   0.03     0.02  -0.00   0.03
  11   1    -0.00   0.02  -0.01     0.03   0.00   0.04    -0.00   0.02   0.05
  12   1    -0.02   0.02   0.03     0.03  -0.03   0.01     0.01   0.01   0.02
  13   6     0.06   0.08  -0.17    -0.05   0.11   0.11    -0.00   0.06   0.12
  14   1    -0.01   0.02  -0.07    -0.00   0.03   0.04     0.01   0.00   0.04
  15   1     0.03   0.03  -0.06    -0.04   0.04   0.02    -0.00   0.02   0.03
  16   1     0.04   0.03  -0.05    -0.01   0.04   0.05    -0.01   0.02   0.05
  17   6     0.13   0.07   0.06    -0.07  -0.00   0.01    -0.04   0.14   0.03
  18   1     0.07   0.02   0.02    -0.04   0.00  -0.01    -0.01   0.05  -0.00
  19   1     0.03   0.04   0.05    -0.01  -0.02  -0.01    -0.01   0.04  -0.00
  20   1     0.05   0.01   0.00    -0.02   0.01   0.01    -0.02   0.04   0.02
  21   1    -0.01   0.01   0.00     0.05  -0.05  -0.01     0.01  -0.03   0.01
  22   6     0.08  -0.03   0.04    -0.03   0.05  -0.01     0.04   0.01   0.02
  23   8    -0.07   0.29   0.17     0.02  -0.01  -0.07    -0.00   0.11   0.07
  24   7     0.13  -0.06   0.09    -0.22   0.33   0.17     0.10  -0.06  -0.00
  25   1     0.00   0.05   0.05    -0.07   0.12   0.06     0.02  -0.00   0.01
  26   1     0.06  -0.08  -0.01    -0.06   0.09   0.04     0.03  -0.03  -0.01
  27   7     0.26  -0.39  -0.16     0.09  -0.17  -0.14     0.06  -0.02   0.01
  28   1     0.08  -0.14  -0.05    -0.00  -0.01  -0.02     0.03  -0.03  -0.01
  29   1     0.04  -0.07  -0.03     0.04  -0.07  -0.05     0.01   0.00   0.01
  30   6    -0.08   0.01  -0.10     0.03  -0.01  -0.00    -0.05   0.01  -0.06
  31   8    -0.01  -0.06  -0.13    -0.02   0.08   0.18    -0.12   0.14   0.19
  32   7    -0.12  -0.11  -0.26     0.05  -0.05  -0.07     0.01  -0.10  -0.28
  33   1    -0.02  -0.06  -0.09     0.00  -0.00   0.01    -0.01  -0.02  -0.05
  34   1    -0.04  -0.01  -0.06     0.02  -0.04  -0.06     0.01  -0.05  -0.11
  35   7    -0.13   0.18   0.06     0.07  -0.09  -0.15    -0.02  -0.04  -0.15
  36   1    -0.05   0.06   0.01     0.03  -0.04  -0.08     0.01  -0.03  -0.09
  37   1    -0.03   0.07   0.03     0.02  -0.01  -0.03    -0.01   0.01  -0.01
  38   6     0.02  -0.02   0.05     0.07   0.10   0.01    -0.08  -0.18  -0.01
  39   8    -0.02  -0.02   0.05     0.20  -0.04   0.01    -0.01  -0.23  -0.00
  40   7     0.05   0.21   0.05     0.01   0.33   0.15    -0.14  -0.33   0.04
  41   1     0.01   0.10   0.01     0.01   0.05   0.06    -0.03  -0.06   0.03
  42   1     0.02   0.05   0.01    -0.03   0.08   0.03    -0.05  -0.03   0.01
  43   7     0.03  -0.24   0.07     0.01   0.12  -0.11    -0.12  -0.11  -0.06
  44   1     0.01  -0.06   0.02    -0.03   0.03  -0.03    -0.04   0.02  -0.02
  45   1    -0.00  -0.11   0.02     0.01  -0.02  -0.06    -0.02   0.01  -0.03
  46   6    -0.01  -0.01   0.06    -0.08  -0.05   0.01     0.01   0.11  -0.02
  47   8     0.05  -0.04   0.07    -0.25  -0.03  -0.02    -0.16   0.50   0.01
  48   7    -0.05   0.04   0.03    -0.01  -0.10   0.15     0.11  -0.06  -0.07
  49   1    -0.01   0.01   0.00    -0.03  -0.02   0.06     0.00   0.04  -0.03
  50   1    -0.03   0.01   0.01     0.03  -0.03   0.04     0.06  -0.08  -0.03
  51   7    -0.03  -0.03   0.09     0.03  -0.04  -0.08     0.12  -0.12  -0.00
  52   1    -0.02  -0.00   0.02     0.04  -0.01  -0.01     0.06  -0.10   0.00
  53   1     0.00  -0.02   0.03    -0.01   0.00  -0.04     0.01   0.01   0.02
                     10                     11                     12
                        a                      a                      a 
 Frequencies --    48.8773                53.3620                58.3594
 Red. masses --    13.0076                12.7732                12.1929
 Frc consts  --     0.0000                 0.0000                 0.0000
 IR Inten    --     1.1247                 1.1859                 0.9548
 Raman Activ --     0.0000                 0.0000                 0.0000
 Depolar     --     0.0000                 0.0000                 0.0000
 Atom AN      X      Y      Z        X      Y      Z        X      Y      Z
   1   8     0.06  -0.11   0.03     0.02  -0.17  -0.14     0.07   0.04  -0.06
   2   6     0.05  -0.01  -0.05    -0.03  -0.12  -0.13     0.09   0.08  -0.09
   3   1     0.01   0.02  -0.01    -0.01  -0.04  -0.04     0.01   0.06  -0.03
   4   1     0.02  -0.01  -0.04    -0.03  -0.04  -0.05     0.06   0.02  -0.04
   5   6     0.04   0.02  -0.01    -0.03  -0.02  -0.14     0.06  -0.02  -0.02
   6   1     0.02  -0.01  -0.00    -0.01   0.00  -0.04     0.03  -0.02   0.00
   7   1     0.01   0.02  -0.02    -0.02   0.00  -0.05     0.03  -0.01  -0.01
   8   7     0.01   0.06   0.07     0.05   0.02  -0.13    -0.07  -0.04  -0.01
   9   6     0.06   0.03   0.10     0.05  -0.02  -0.07    -0.07  -0.03  -0.02
  10   1     0.03  -0.00   0.04     0.01  -0.02  -0.02    -0.01  -0.01  -0.00
  11   1     0.01   0.01   0.05     0.02   0.00  -0.01    -0.03  -0.01  -0.00
  12   1     0.02   0.01   0.01     0.01  -0.01  -0.01    -0.02  -0.00  -0.01
  13   6    -0.02   0.09   0.13     0.07   0.07  -0.20    -0.09  -0.11   0.09
  14   1     0.01   0.02   0.05     0.01   0.02  -0.07    -0.01  -0.04   0.04
  15   1    -0.02   0.03   0.03     0.02   0.03  -0.07    -0.03  -0.04   0.03
  16   1    -0.01   0.03   0.05     0.04   0.03  -0.05    -0.05  -0.04   0.03
  17   6    -0.05   0.10   0.02     0.11   0.04  -0.08    -0.15   0.00  -0.07
  18   1    -0.02   0.03   0.00     0.04   0.01  -0.03    -0.05   0.01  -0.03
  19   1    -0.01   0.03  -0.01     0.03   0.01  -0.01    -0.04   0.00  -0.04
  20   1    -0.03   0.03   0.02     0.04   0.01  -0.02    -0.06   0.01  -0.00
  21   1     0.00  -0.02  -0.01     0.02  -0.06  -0.01     0.02  -0.01  -0.01
  22   6     0.03  -0.05   0.15    -0.01   0.03  -0.02    -0.05  -0.03  -0.02
  23   8     0.05   0.02   0.14     0.05   0.08  -0.11    -0.10  -0.14   0.06
  24   7     0.19  -0.27   0.11     0.19  -0.23  -0.05    -0.13   0.02  -0.14
  25   1     0.07  -0.08   0.03     0.09  -0.08  -0.02    -0.06  -0.01  -0.04
  26   1     0.04  -0.07   0.05     0.02  -0.05   0.03    -0.02   0.02  -0.06
  27   7    -0.15   0.10   0.25    -0.31   0.27   0.12     0.06   0.03   0.00
  28   1    -0.02  -0.03   0.05    -0.05   0.00   0.02     0.02   0.03  -0.01
  29   1    -0.04   0.02   0.05    -0.07   0.05   0.00     0.03   0.00   0.02
  30   6    -0.14  -0.05   0.01    -0.04   0.04  -0.05     0.07   0.05   0.03
  31   8    -0.23   0.05   0.21     0.02  -0.01  -0.10     0.04   0.04  -0.10
  32   7    -0.06  -0.17  -0.23    -0.09   0.02  -0.05     0.26  -0.11  -0.36
  33   1    -0.02  -0.04  -0.05    -0.02  -0.01  -0.02     0.10  -0.04  -0.16
  34   1    -0.01  -0.06  -0.08    -0.04   0.02  -0.00     0.08  -0.01  -0.03
  35   7    -0.15  -0.08   0.02    -0.06   0.13  -0.01    -0.08   0.24   0.59
  36   1    -0.02  -0.05  -0.05    -0.02   0.04  -0.00     0.00   0.04   0.12
  37   1    -0.05  -0.00   0.03    -0.00   0.03  -0.01    -0.03   0.04   0.14
  38   6     0.05   0.10  -0.09     0.07  -0.02   0.09     0.05  -0.00   0.01
  39   8     0.02   0.07  -0.11     0.14  -0.22   0.09     0.09  -0.09   0.00
  40   7     0.09   0.22  -0.12     0.03   0.04   0.18     0.03   0.01   0.04
  41   1     0.02   0.02  -0.04     0.01  -0.05   0.06     0.01  -0.03   0.02
  42   1     0.03   0.02  -0.03    -0.01   0.02   0.05    -0.00   0.01   0.01
  43   7     0.08   0.12  -0.06     0.05   0.20   0.06     0.04   0.11  -0.01
  44   1     0.02   0.01  -0.02    -0.00   0.06   0.02     0.00   0.03  -0.00
  45   1     0.01  -0.00  -0.01     0.02   0.03  -0.00     0.01   0.02  -0.01
  46   6     0.03  -0.06  -0.13    -0.07  -0.02   0.17    -0.02  -0.01   0.02
  47   8     0.13  -0.27  -0.16    -0.17   0.04   0.19    -0.07  -0.00   0.02
  48   7    -0.03   0.05  -0.11    -0.02  -0.08   0.23    -0.01  -0.02   0.05
  49   1     0.01  -0.02  -0.02    -0.02  -0.01   0.07    -0.01  -0.01   0.02
  50   1    -0.03   0.05  -0.02     0.01  -0.03   0.06     0.01  -0.01   0.01
  51   7    -0.04   0.08  -0.15    -0.01  -0.06   0.15    -0.00  -0.01   0.00
  52   1    -0.03   0.06  -0.04     0.01  -0.03   0.04     0.01  -0.00   0.00
  53   1     0.00  -0.00  -0.05    -0.02  -0.00   0.04    -0.00   0.00  -0.01
                     13                     14                     15
                        a                      a                      a 
 Frequencies --    61.4737                74.5326                77.7235
 Red. masses --    12.2247                12.7616                13.8422
 Frc consts  --     0.0000                 0.0000                 0.0000
 IR Inten    --     5.7988                 4.9509                 2.8990
 Raman Activ --     0.0000                 0.0000                 0.0000
 Depolar     --     0.0000                 0.0000                 0.0000
 Atom AN      X      Y      Z        X      Y      Z        X      Y      Z
   1   8    -0.05   0.12   0.02     0.05  -0.14   0.01    -0.14  -0.05   0.17
   2   6     0.15   0.15  -0.06    -0.07  -0.20   0.10     0.00  -0.03   0.10
   3   1     0.04   0.10  -0.01    -0.02  -0.10   0.02     0.02   0.00   0.05
   4   1     0.09   0.04  -0.04    -0.05  -0.05   0.06     0.00  -0.01   0.03
   5   6     0.16  -0.05  -0.10    -0.08  -0.12   0.12     0.05  -0.05  -0.01
   6   1     0.04  -0.06  -0.04    -0.02  -0.03   0.04    -0.00  -0.03  -0.02
   7   1     0.09  -0.01  -0.04    -0.03  -0.03   0.03     0.04  -0.01  -0.02
   8   7    -0.01  -0.07  -0.07    -0.04  -0.11   0.13     0.10  -0.02   0.02
   9   6    -0.19  -0.08  -0.01    -0.12  -0.11   0.15     0.14  -0.04   0.04
  10   1    -0.06  -0.05  -0.01    -0.05  -0.04   0.03     0.04  -0.01   0.01
  11   1    -0.07  -0.03  -0.00    -0.02  -0.03   0.04     0.05  -0.00   0.01
  12   1    -0.06   0.01   0.01    -0.04  -0.03   0.07     0.04  -0.02   0.01
  13   6     0.01  -0.25  -0.09     0.00  -0.13   0.02     0.09   0.04   0.04
  14   1     0.00  -0.12  -0.03    -0.02  -0.05  -0.01     0.03   0.01   0.01
  15   1     0.05  -0.07  -0.04     0.02  -0.03  -0.01     0.01   0.02   0.01
  16   1    -0.03  -0.07  -0.01     0.01  -0.03   0.01     0.03   0.02   0.02
  17   6    -0.01   0.11  -0.05     0.05  -0.05   0.19     0.08  -0.03   0.01
  18   1     0.03   0.04  -0.03     0.03  -0.01   0.04     0.01  -0.00  -0.01
  19   1    -0.01   0.06  -0.01     0.01  -0.01   0.08     0.03  -0.03  -0.00
  20   1    -0.03   0.03   0.00     0.03  -0.00   0.06     0.03   0.00   0.01
  21   1    -0.02  -0.01  -0.01     0.02  -0.00   0.01    -0.05  -0.03   0.02
  22   6    -0.04  -0.02   0.04    -0.13   0.11  -0.07     0.04   0.01  -0.18
  23   8    -0.19   0.09   0.20    -0.29   0.31   0.05     0.20  -0.06  -0.37
  24   7    -0.04  -0.06  -0.06     0.02  -0.13  -0.25     0.00   0.13   0.00
  25   1    -0.04   0.00  -0.01    -0.02  -0.01  -0.06     0.04   0.03   0.00
  26   1     0.02  -0.04  -0.05     0.01  -0.05  -0.08    -0.02   0.04   0.03
  27   7     0.14  -0.14  -0.03    -0.14   0.16  -0.05    -0.06  -0.03  -0.20
  28   1     0.05  -0.03  -0.02     0.02  -0.04  -0.06    -0.06   0.04  -0.01
  29   1     0.02  -0.00   0.02    -0.03   0.03  -0.01    -0.03   0.00  -0.06
  30   6     0.03   0.06  -0.02     0.15   0.09   0.03     0.01   0.06   0.06
  31   8    -0.06   0.18   0.12     0.27   0.08   0.19     0.08   0.08   0.27
  32   7     0.08   0.11   0.02     0.03  -0.01  -0.05    -0.05  -0.10  -0.15
  33   1     0.01   0.06   0.03     0.01  -0.03  -0.00    -0.02  -0.05  -0.01
  34   1     0.04  -0.01  -0.04    -0.01  -0.01  -0.05    -0.04  -0.02  -0.05
  35   7     0.11  -0.13  -0.29     0.18   0.22  -0.08    -0.01   0.22   0.10
  36   1     0.03  -0.04  -0.06     0.02   0.07  -0.03     0.01   0.04  -0.06
  37   1     0.00  -0.01  -0.03     0.05   0.08   0.01     0.03   0.06   0.00
  38   6    -0.02   0.02   0.01     0.02   0.02  -0.01    -0.18  -0.03  -0.02
  39   8    -0.09  -0.26  -0.02     0.05   0.08  -0.01    -0.30  -0.25  -0.05
  40   7     0.01   0.12  -0.01     0.01   0.00  -0.00    -0.13   0.11  -0.08
  41   1    -0.01  -0.06  -0.02     0.01   0.02   0.00    -0.05  -0.04  -0.05
  42   1     0.01   0.03  -0.00    -0.00  -0.00  -0.00    -0.01   0.02  -0.02
  43   7     0.02   0.34   0.09     0.01  -0.04  -0.05    -0.13   0.13   0.09
  44   1     0.01   0.08   0.02    -0.00  -0.01  -0.01    -0.01   0.04   0.03
  45   1    -0.01   0.04   0.02     0.01   0.00  -0.02    -0.05  -0.00   0.04
  46   6    -0.00  -0.06   0.08     0.01   0.00  -0.09     0.06  -0.03   0.03
  47   8     0.06  -0.17   0.08     0.00  -0.01  -0.11     0.21  -0.12   0.05
  48   7    -0.04  -0.01   0.08     0.01   0.01  -0.09    -0.01   0.04  -0.04
  49   1     0.00  -0.02   0.02     0.00   0.00  -0.02     0.02  -0.00  -0.02
  50   1    -0.02   0.01   0.03     0.00   0.01  -0.02    -0.03   0.02  -0.01
  51   7    -0.05   0.01   0.09     0.02   0.02  -0.12    -0.04   0.02   0.10
  52   1    -0.03   0.02   0.02     0.01   0.01  -0.03    -0.04   0.02   0.02
  53   1    -0.01  -0.01   0.02     0.00   0.00  -0.04     0.01  -0.01   0.04
                     16                     17                     18
                        a                      a                      a 
 Frequencies --    89.1382               100.6569               108.8269
 Red. masses --    12.4263                12.5204                12.4642
 Frc consts  --     0.0000                 0.0000                 0.0000
 IR Inten    --     8.1629                 6.2340                 7.1719
 Raman Activ --     0.0000                 0.0000                 0.0000
 Depolar     --     0.0000                 0.0000                 0.0000
 Atom AN      X      Y      Z        X      Y      Z        X      Y      Z
   1   8     0.05  -0.11   0.14     0.01   0.00   0.08     0.07  -0.14   0.21
   2   6     0.10   0.04  -0.01     0.13   0.06   0.00     0.09   0.00   0.07
   3   1     0.02   0.06  -0.00     0.04   0.06   0.01     0.04   0.02   0.04
   4   1     0.06  -0.00  -0.04     0.07   0.01  -0.02     0.01  -0.01  -0.01
   5   6     0.07  -0.00   0.05     0.14  -0.07  -0.03     0.12   0.09  -0.01
   6   1     0.03  -0.02   0.02     0.04  -0.03  -0.01     0.02   0.02  -0.01
   7   1     0.02   0.00   0.01     0.07  -0.03  -0.00     0.04   0.03  -0.01
   8   7    -0.01   0.01   0.10     0.03  -0.13  -0.06     0.21   0.14   0.01
   9   6     0.17   0.02   0.03     0.02  -0.08  -0.11     0.15   0.09   0.08
  10   1     0.09   0.02   0.04     0.02  -0.01  -0.02     0.03   0.01   0.01
  11   1     0.03   0.01   0.02    -0.01  -0.03  -0.04     0.05   0.03   0.03
  12   1     0.06   0.00  -0.04     0.01  -0.01  -0.05     0.04   0.02   0.04
  13   6    -0.09   0.06   0.34     0.01  -0.23   0.05     0.23   0.18  -0.09
  14   1     0.02   0.06   0.13     0.02  -0.07   0.03     0.05   0.05  -0.04
  15   1    -0.07  -0.00   0.14     0.01  -0.08   0.03     0.07   0.06  -0.04
  16   1    -0.04   0.00   0.08    -0.03  -0.08   0.01     0.09   0.06  -0.02
  17   6    -0.19  -0.06  -0.04    -0.06  -0.08  -0.11     0.26   0.13   0.05
  18   1    -0.11  -0.01  -0.02    -0.03  -0.02  -0.04     0.08   0.04   0.02
  19   1    -0.03  -0.05  -0.06    -0.01  -0.02  -0.05     0.07   0.03   0.03
  20   1    -0.06   0.00   0.01    -0.03  -0.02  -0.02     0.08   0.03   0.01
  21   1     0.00  -0.05   0.02    -0.02   0.02  -0.01     0.00  -0.02   0.03
  22   6    -0.05  -0.00   0.05    -0.06  -0.12   0.02    -0.25  -0.16  -0.02
  23   8    -0.09   0.13   0.07     0.04  -0.06  -0.13    -0.33  -0.27   0.04
  24   7     0.01  -0.06   0.10    -0.02  -0.11   0.24    -0.36  -0.11  -0.15
  25   1     0.00   0.00   0.04     0.04  -0.02   0.07    -0.13  -0.04  -0.05
  26   1     0.01  -0.05   0.02    -0.02  -0.06   0.09    -0.09   0.00  -0.06
  27   7    -0.06  -0.10   0.01    -0.20  -0.22  -0.02    -0.15  -0.13  -0.02
  28   1    -0.01  -0.05  -0.00    -0.09  -0.05   0.03    -0.03  -0.01  -0.02
  29   1    -0.02  -0.02   0.01    -0.08  -0.04  -0.02    -0.03  -0.04   0.02
  30   6     0.04   0.05  -0.19    -0.03   0.17  -0.04    -0.04   0.03  -0.04
  31   8     0.21  -0.14  -0.47     0.03   0.20   0.11    -0.08   0.05  -0.09
  32   7    -0.14   0.14   0.06    -0.10   0.09  -0.14     0.02   0.07  -0.03
  33   1    -0.02   0.00  -0.02    -0.04   0.01  -0.01     0.01   0.03  -0.02
  34   1    -0.06   0.07   0.04    -0.04   0.03  -0.06     0.02   0.01  -0.00
  35   7     0.03   0.19  -0.16    -0.01   0.25  -0.12    -0.04  -0.03  -0.01
  36   1    -0.04   0.10   0.04    -0.00   0.06  -0.07    -0.00  -0.01   0.02
  37   1     0.02   0.05  -0.06     0.01   0.07  -0.04    -0.03  -0.02   0.00
  38   6    -0.03  -0.06  -0.00     0.06   0.11  -0.01     0.01   0.01   0.02
  39   8    -0.04  -0.26  -0.02     0.05   0.44   0.02     0.03   0.04   0.03
  40   7    -0.02   0.06   0.01     0.07  -0.08  -0.06    -0.01   0.00   0.03
  41   1    -0.01  -0.04  -0.00     0.02   0.08  -0.01    -0.00   0.00   0.01
  42   1    -0.00   0.02   0.00     0.02  -0.03  -0.01    -0.01  -0.01   0.01
  43   7    -0.02   0.10   0.02     0.06  -0.16  -0.01    -0.01  -0.03  -0.00
  44   1    -0.00   0.03   0.00     0.02  -0.05  -0.00    -0.01  -0.01  -0.00
  45   1    -0.01  -0.01  -0.00     0.02   0.01   0.01     0.00  -0.00  -0.00
  46   6     0.02  -0.01  -0.03    -0.04   0.01   0.07     0.01   0.00  -0.02
  47   8     0.05  -0.04  -0.04    -0.10   0.07   0.08     0.02  -0.00  -0.02
  48   7     0.00   0.01  -0.05    -0.01  -0.03   0.10     0.01   0.01  -0.03
  49   1     0.01  -0.00  -0.01    -0.01   0.00   0.03     0.00   0.00  -0.01
  50   1    -0.01   0.01  -0.01     0.01  -0.02   0.03    -0.00   0.00  -0.01
  51   7    -0.00   0.01  -0.03    -0.00  -0.03   0.06     0.00   0.01  -0.02
  52   1    -0.01   0.01  -0.01     0.01  -0.02   0.02     0.00   0.00  -0.00
  53   1     0.00  -0.00  -0.01    -0.01   0.00   0.02     0.00   0.00  -0.00
                     19                     20                     21
                        a                      a                      a 
 Frequencies --   114.1144               125.8928               131.8409
 Red. masses --    12.7136                12.7116                12.0915
 Frc consts  --     0.0000                 0.0000                 0.0000
 IR Inten    --    23.2767                 5.9013                 1.8815
 Raman Activ --     0.0000                 0.0000                 0.0000
 Depolar     --     0.0000                 0.0000                 0.0000
 Atom AN      X      Y      Z        X      Y      Z        X      Y      Z
   1   8     0.06  -0.19  -0.07    -0.13   0.10   0.07     0.06  -0.21   0.05
   2   6     0.05  -0.10  -0.12    -0.03   0.08   0.05     0.01  -0.15   0.02
   3   1     0.01  -0.01  -0.03    -0.00   0.03   0.02     0.00  -0.05   0.00
   4   1     0.02  -0.03  -0.06    -0.00   0.03   0.02    -0.01  -0.05  -0.00
   5   6     0.05  -0.06  -0.11    -0.00   0.05  -0.01    -0.00  -0.08   0.05
   6   1     0.02  -0.02  -0.03    -0.01   0.00  -0.01     0.00  -0.05   0.02
   7   1     0.01  -0.01  -0.04     0.01   0.02  -0.01    -0.00  -0.01  -0.01
   8   7     0.06  -0.02  -0.06     0.02   0.06   0.00    -0.04  -0.01   0.17
   9   6     0.22  -0.04  -0.05     0.07   0.05  -0.00    -0.21  -0.06   0.26
  10   1     0.09  -0.01   0.00     0.02   0.02  -0.00    -0.09  -0.04   0.06
  11   1     0.06  -0.00   0.00     0.02   0.02  -0.00    -0.06  -0.01   0.08
  12   1     0.07  -0.03  -0.05     0.02   0.01  -0.01    -0.07  -0.00   0.12
  13   6     0.00   0.10   0.08    -0.00   0.12   0.04     0.01  -0.11   0.04
  14   1     0.03   0.05   0.05     0.01   0.06   0.02    -0.02  -0.08  -0.01
  15   1    -0.04   0.03   0.03    -0.02   0.03   0.02     0.05  -0.02  -0.02
  16   1     0.01   0.03   0.03     0.01   0.03   0.01    -0.01  -0.02   0.03
  17   6    -0.05  -0.06  -0.14    -0.00  -0.01  -0.02     0.05   0.20   0.24
  18   1    -0.06  -0.01  -0.05    -0.02  -0.00  -0.00     0.07   0.07   0.05
  19   1     0.00  -0.06  -0.07     0.00  -0.02  -0.01    -0.00   0.10   0.10
  20   1    -0.01   0.00  -0.02     0.01   0.00  -0.00    -0.01   0.05   0.08
  21   1     0.01  -0.02  -0.04    -0.05   0.02  -0.01     0.01  -0.02  -0.01
  22   6    -0.01   0.09   0.04    -0.06   0.01  -0.02     0.11  -0.01  -0.04
  23   8    -0.16   0.14   0.22    -0.10   0.08   0.01     0.20  -0.15  -0.10
  24   7    -0.00   0.01  -0.17    -0.04  -0.02  -0.03     0.05   0.08  -0.01
  25   1    -0.05   0.02  -0.04    -0.02   0.00  -0.00     0.02   0.00  -0.01
  26   1     0.02   0.02  -0.08    -0.01  -0.02  -0.01     0.00   0.05   0.01
  27   7     0.14   0.13   0.05    -0.05  -0.04  -0.05     0.08   0.09   0.01
  28   1     0.08  -0.00  -0.03    -0.01  -0.02  -0.01     0.01   0.04   0.01
  29   1     0.05   0.02   0.03    -0.02   0.01  -0.00     0.04  -0.00  -0.01
  30   6     0.01  -0.04   0.04     0.06  -0.09   0.08    -0.06   0.07  -0.14
  31   8     0.01  -0.04   0.05     0.12  -0.14   0.13    -0.12   0.08  -0.32
  32   7     0.02  -0.05   0.03    -0.03  -0.15   0.07     0.05   0.19  -0.05
  33   1     0.01  -0.01   0.01    -0.01  -0.06   0.03     0.03   0.07  -0.05
  34   1     0.01  -0.02   0.00    -0.02  -0.03   0.01     0.04   0.05   0.02
  35   7     0.03  -0.06   0.01     0.06  -0.03   0.04    -0.08  -0.00  -0.02
  36   1    -0.00  -0.01   0.02     0.00  -0.00   0.00    -0.01  -0.01   0.02
  37   1    -0.00  -0.00   0.03     0.03   0.00   0.01    -0.03  -0.02  -0.03
  38   6    -0.14   0.08  -0.15     0.11  -0.03  -0.13    -0.01   0.02  -0.15
  39   8    -0.15   0.27  -0.15    -0.17  -0.10  -0.18    -0.12   0.06  -0.17
  40   7    -0.15  -0.00  -0.18     0.33  -0.00  -0.39     0.07   0.01  -0.26
  41   1    -0.04   0.05  -0.05     0.06   0.00  -0.16     0.01   0.01  -0.09
  42   1    -0.03  -0.01  -0.05     0.15   0.01  -0.10     0.04   0.00  -0.07
  43   7    -0.14  -0.10  -0.14     0.29   0.05   0.14     0.06  -0.02  -0.04
  44   1    -0.02  -0.02  -0.04     0.13  -0.01   0.04     0.04  -0.01  -0.01
  45   1    -0.04   0.01  -0.02     0.04  -0.04   0.08     0.00  -0.01   0.01
  46   6     0.04  -0.01   0.19    -0.13   0.01   0.04    -0.03   0.00   0.09
  47   8     0.14  -0.00   0.25    -0.34   0.12   0.02    -0.07   0.05   0.10
  48   7    -0.01   0.02   0.13    -0.03  -0.08   0.18    -0.02  -0.02   0.12
  49   1     0.02  -0.00   0.02    -0.05  -0.01   0.07    -0.01  -0.00   0.03
  50   1    -0.01  -0.01   0.03     0.03  -0.04   0.05     0.01  -0.02   0.03
  51   7    -0.04  -0.04   0.30     0.01  -0.04  -0.05    -0.01  -0.03   0.10
  52   1    -0.05  -0.00   0.07     0.04  -0.02  -0.00    -0.00  -0.01   0.03
  53   1    -0.01  -0.01   0.10    -0.02   0.01  -0.04    -0.01   0.00   0.03
                     22                     23                     24
                        a                      a                      a 
 Frequencies --   136.5848               142.6071               161.9180
 Red. masses --    11.9770                12.5215                12.0143
 Frc consts  --     0.0000                 0.0000                 0.0000
 IR Inten    --     5.8279                32.5414                 9.1964
 Raman Activ --     0.0000                 0.0000                 0.0000
 Depolar     --     0.0000                 0.0000                 0.0000
 Atom AN      X      Y      Z        X      Y      Z        X      Y      Z
   1   8    -0.05   0.01   0.01     0.07   0.07  -0.13    -0.15  -0.27   0.09
   2   6    -0.12  -0.12   0.13     0.02   0.11  -0.15     0.06  -0.01  -0.15
   3   1    -0.02  -0.09   0.04    -0.01   0.05  -0.06     0.02   0.09  -0.02
   4   1    -0.07  -0.03   0.08     0.03   0.03  -0.06     0.06  -0.02  -0.12
   5   6    -0.10  -0.06   0.07    -0.02   0.08  -0.04     0.09  -0.08  -0.23
   6   1    -0.04   0.02   0.02     0.01   0.01   0.00     0.01  -0.08  -0.08
   7   1    -0.04  -0.03   0.04    -0.01   0.03  -0.02     0.06  -0.00  -0.11
   8   7     0.02  -0.10  -0.04    -0.08   0.10   0.02     0.00   0.00  -0.07
   9   6     0.15  -0.05  -0.13    -0.18   0.05   0.11    -0.00  -0.11   0.11
  10   1     0.04   0.02  -0.04    -0.07  -0.01   0.02     0.02  -0.08   0.04
  11   1     0.07  -0.01  -0.06    -0.04   0.02   0.04    -0.02  -0.01   0.08
  12   1     0.05  -0.04  -0.04    -0.06   0.02   0.06     0.00  -0.03   0.02
  13   6     0.01   0.02  -0.03    -0.05   0.04  -0.06    -0.01   0.01  -0.02
  14   1     0.00   0.04  -0.01    -0.03  -0.02  -0.03     0.01  -0.02   0.00
  15   1    -0.02  -0.00   0.01     0.01   0.02  -0.04    -0.00   0.02  -0.03
  16   1     0.03   0.00  -0.02    -0.02   0.02  -0.00    -0.01   0.02   0.02
  17   6     0.02  -0.25  -0.05    -0.01   0.17   0.07    -0.06   0.19  -0.10
  18   1    -0.02  -0.08  -0.00     0.03   0.04   0.03    -0.03   0.08  -0.07
  19   1     0.02  -0.10  -0.02    -0.02   0.08   0.04    -0.01   0.03  -0.03
  20   1     0.03  -0.07  -0.02    -0.01   0.04   0.01    -0.02   0.09   0.02
  21   1    -0.01   0.01   0.01     0.02   0.01  -0.02    -0.05  -0.08   0.00
  22   6     0.09  -0.04   0.11     0.02  -0.13   0.06     0.07   0.05  -0.02
  23   8     0.05  -0.29   0.26     0.06  -0.36   0.07     0.05  -0.01   0.03
  24   7    -0.05   0.06  -0.13    -0.11  -0.01  -0.02     0.03   0.08  -0.10
  25   1    -0.05  -0.04  -0.06    -0.03  -0.05  -0.02    -0.01   0.01  -0.03
  26   1     0.01   0.06  -0.07    -0.02   0.03  -0.01     0.01   0.04  -0.04
  27   7     0.30   0.15   0.21     0.09   0.01   0.14     0.14   0.09   0.00
  28   1     0.08   0.10   0.04     0.01   0.05   0.04     0.04   0.04  -0.00
  29   1     0.10   0.03   0.08     0.04  -0.01   0.05     0.04   0.03   0.02
  30   6    -0.09   0.19  -0.07     0.07  -0.04   0.00     0.02  -0.04  -0.01
  31   8    -0.06   0.23   0.05     0.36  -0.20   0.14     0.07  -0.09  -0.04
  32   7    -0.13   0.15  -0.14    -0.30  -0.21   0.02    -0.03  -0.06   0.02
  33   1    -0.04   0.03  -0.02    -0.09  -0.13   0.05    -0.01  -0.03   0.01
  34   1    -0.04   0.03  -0.06    -0.15  -0.01  -0.02    -0.02   0.00   0.02
  35   7    -0.06   0.20  -0.16     0.10   0.26  -0.15     0.03   0.00  -0.01
  36   1    -0.02   0.05  -0.04    -0.02   0.09  -0.05    -0.01   0.01   0.01
  37   1    -0.03   0.06  -0.03     0.06   0.08  -0.05     0.01   0.00  -0.00
  38   6     0.02  -0.03   0.03    -0.01   0.00  -0.06    -0.06   0.07   0.23
  39   8    -0.06  -0.11   0.02     0.06   0.01  -0.06    -0.21   0.24   0.27
  40   7     0.08   0.01  -0.03    -0.05   0.01  -0.01     0.04  -0.03   0.10
  41   1     0.01  -0.02  -0.03    -0.01  -0.01   0.01    -0.00   0.05  -0.00
  42   1     0.04   0.01  -0.01    -0.03  -0.00  -0.00     0.04  -0.01   0.03
  43   7     0.07   0.03   0.11    -0.04  -0.00  -0.13     0.01  -0.07   0.38
  44   1     0.03   0.01   0.03    -0.02   0.01  -0.03     0.04  -0.04   0.10
  45   1     0.01  -0.01   0.04    -0.00   0.01  -0.04    -0.01   0.00   0.13
  46   6    -0.03   0.00  -0.04     0.02  -0.00   0.04    -0.03   0.00  -0.11
  47   8    -0.08   0.02  -0.05     0.06  -0.01   0.05    -0.10   0.01  -0.13
  48   7    -0.00  -0.02  -0.00     0.00   0.01   0.01    -0.00  -0.02  -0.07
  49   1    -0.01  -0.00   0.00     0.01  -0.00  -0.00    -0.02   0.01  -0.01
  50   1     0.01  -0.00   0.00    -0.00  -0.00   0.00     0.00   0.01  -0.01
  51   7     0.01   0.00  -0.08    -0.01  -0.01   0.08     0.03   0.03  -0.18
  52   1     0.02  -0.00  -0.02    -0.02   0.00   0.02     0.04  -0.00  -0.04
  53   1    -0.00   0.00  -0.03    -0.00  -0.00   0.03     0.01   0.00  -0.07
                     25                     26                     27
                        a                      a                      a 
 Frequencies --   197.8412               239.3442               244.2082
 Red. masses --    10.7926                 9.1675                 4.6237
 Frc consts  --     0.0000                 0.0000                 0.0000
 IR Inten    --    12.0372                 9.4652                11.2745
 Raman Activ --     0.0000                 0.0000                 0.0000
 Depolar     --     0.0000                 0.0000                 0.0000
 Atom AN      X      Y      Z        X      Y      Z        X      Y      Z
   1   8    -0.23   0.46  -0.39     0.18   0.13  -0.43    -0.07  -0.08   0.19
   2   6    -0.05  -0.11   0.09     0.13  -0.02  -0.27    -0.04   0.01   0.09
   3   1     0.03  -0.15   0.04    -0.01   0.00  -0.12     0.00   0.01   0.04
   4   1    -0.06   0.01   0.17     0.08   0.01  -0.06    -0.02  -0.00   0.01
   5   6     0.07  -0.24  -0.19    -0.00  -0.01   0.10    -0.01   0.02  -0.02
   6   1    -0.02  -0.15  -0.10     0.06   0.06   0.09    -0.02  -0.01  -0.02
   7   1     0.10  -0.03  -0.12    -0.09  -0.01   0.06     0.02   0.01  -0.01
   8   7     0.09  -0.07   0.06     0.06  -0.02   0.09    -0.03   0.01  -0.04
   9   6     0.14  -0.18   0.23     0.07   0.05  -0.00    -0.04  -0.01  -0.01
  10   1     0.11  -0.11   0.10    -0.05   0.07  -0.03     0.01  -0.02   0.01
  11   1    -0.03  -0.04   0.13     0.09   0.01  -0.06    -0.03   0.00   0.01
  12   1     0.05  -0.02  -0.00     0.01  -0.02   0.06    -0.01   0.01  -0.02
  13   6     0.05   0.10   0.13     0.05   0.00   0.11    -0.02   0.00  -0.05
  14   1     0.03   0.06   0.05     0.03  -0.07   0.04    -0.01   0.03  -0.02
  15   1    -0.03   0.03   0.05     0.03   0.04  -0.03    -0.01  -0.02   0.01
  16   1     0.04   0.03   0.04    -0.01   0.04   0.09     0.00  -0.01  -0.04
  17   6     0.03   0.12   0.04     0.12  -0.13   0.12    -0.05   0.03  -0.04
  18   1    -0.08   0.10  -0.09     0.19  -0.12   0.16    -0.06   0.03  -0.05
  19   1     0.03  -0.08   0.02    -0.01   0.15   0.03     0.00  -0.05  -0.01
  20   1     0.06   0.13   0.10    -0.06  -0.17  -0.08     0.02   0.05   0.02
  21   1    -0.04   0.08  -0.05     0.07   0.01  -0.08    -0.02  -0.04   0.04
  22   6    -0.04  -0.03   0.02    -0.03  -0.03   0.00     0.02   0.00  -0.01
  23   8    -0.03  -0.05   0.01    -0.03  -0.00  -0.01     0.02  -0.01   0.01
  24   7    -0.04  -0.03   0.03    -0.02  -0.07   0.03     0.00   0.02  -0.02
  25   1    -0.00  -0.03  -0.00    -0.03   0.05   0.04    -0.01   0.02  -0.00
  26   1    -0.00  -0.03  -0.00    -0.04   0.06   0.05    -0.00   0.03   0.00
  27   7    -0.04  -0.04   0.01    -0.08  -0.01   0.01     0.02   0.03   0.01
  28   1    -0.03   0.02   0.02     0.03  -0.09  -0.04     0.04  -0.04  -0.02
  29   1    -0.03   0.01   0.00     0.01  -0.05  -0.03     0.02  -0.01  -0.01
  30   6    -0.01   0.00  -0.03    -0.01   0.01  -0.01     0.00  -0.00   0.00
  31   8    -0.01  -0.01  -0.08    -0.02   0.02  -0.00     0.01  -0.01   0.01
  32   7     0.00   0.03  -0.01     0.01   0.04   0.01    -0.01  -0.02  -0.00
  33   1     0.01   0.01  -0.02     0.01   0.01  -0.02    -0.01  -0.00   0.01
  34   1     0.01   0.00  -0.00     0.02  -0.02  -0.03    -0.01   0.01   0.01
  35   7    -0.01  -0.00  -0.01    -0.01   0.01  -0.00     0.00   0.00   0.00
  36   1    -0.01   0.00   0.01    -0.00   0.00   0.01     0.00  -0.00  -0.01
  37   1    -0.01  -0.00  -0.00    -0.01   0.00   0.00     0.00  -0.00  -0.00
  38   6     0.02   0.01   0.01    -0.14   0.02   0.06     0.05   0.03  -0.02
  39   8     0.05   0.03   0.01    -0.24   0.00   0.06     0.09  -0.03  -0.03
  40   7    -0.01  -0.04   0.04    -0.05  -0.10  -0.07    -0.02  -0.30   0.01
  41   1     0.00   0.05   0.03    -0.01   0.23  -0.02     0.04   0.59   0.08
  42   1    -0.01   0.01   0.01     0.03   0.09  -0.00    -0.01   0.23   0.03
  43   7     0.00   0.02  -0.03    -0.03   0.09   0.27     0.05   0.29  -0.09
  44   1    -0.01  -0.01  -0.01     0.02  -0.06   0.07    -0.05  -0.14  -0.04
  45   1     0.00  -0.02  -0.02    -0.06  -0.18   0.09    -0.05  -0.48  -0.12
  46   6     0.00  -0.00   0.00    -0.01  -0.01  -0.02     0.02  -0.01   0.00
  47   8     0.01  -0.01   0.00    -0.01  -0.01  -0.02     0.04  -0.03   0.00
  48   7     0.00   0.00  -0.00     0.00  -0.01  -0.01    -0.01   0.03   0.00
  49   1     0.00   0.00  -0.00    -0.01   0.01   0.00     0.02  -0.02   0.00
  50   1    -0.00   0.00  -0.00    -0.01   0.02   0.00     0.01  -0.01  -0.00
  51   7    -0.00   0.00   0.01    -0.00   0.02  -0.04    -0.01  -0.00   0.02
  52   1    -0.00  -0.00   0.00     0.02  -0.02  -0.01    -0.01   0.00   0.00
  53   1     0.00  -0.00   0.00     0.01  -0.01  -0.02     0.00  -0.01   0.02
                     28                     29                     30
                        a                      a                      a 
 Frequencies --   258.9803               265.7896               270.5034
 Red. masses --     3.5132                 4.9253                 2.9344
 Frc consts  --     0.0000                 0.0000                 0.0000
 IR Inten    --    20.1379                29.9581                84.0195
 Raman Activ --     0.0000                 0.0000                 0.0000
 Depolar     --     0.0000                 0.0000                 0.0000
 Atom AN      X      Y      Z        X      Y      Z        X      Y      Z
   1   8    -0.02   0.01  -0.01    -0.24   0.02   0.15     0.13  -0.04  -0.06
   2   6     0.00   0.01  -0.01    -0.02   0.16  -0.03     0.01  -0.07   0.00
   3   1    -0.00   0.01  -0.01    -0.03   0.14  -0.00     0.01  -0.06   0.00
   4   1     0.01   0.00  -0.01     0.08   0.04  -0.06    -0.04  -0.02   0.02
   5   6    -0.00  -0.01  -0.00    -0.03  -0.09  -0.04     0.01   0.07   0.02
   6   1     0.00  -0.00   0.00    -0.02  -0.06  -0.02     0.01   0.03   0.01
   7   1    -0.00  -0.00  -0.00     0.02  -0.03  -0.02    -0.01   0.02   0.01
   8   7     0.00  -0.01   0.01    -0.04  -0.08  -0.00     0.02   0.06  -0.01
   9   6     0.01  -0.01   0.01     0.09  -0.18   0.12    -0.07   0.10  -0.06
  10   1    -0.01   0.00  -0.00    -0.09  -0.02  -0.03     0.09  -0.02   0.04
  11   1     0.02   0.00  -0.00     0.18   0.00   0.00    -0.16  -0.00   0.03
  12   1     0.00  -0.01   0.02     0.02  -0.16   0.17    -0.01   0.12  -0.14
  13   6    -0.00   0.01   0.01    -0.05   0.16  -0.03     0.02  -0.08  -0.00
  14   1     0.00  -0.02   0.00    -0.01  -0.16  -0.02     0.00   0.13   0.00
  15   1     0.00   0.01  -0.02     0.01   0.17  -0.21    -0.01  -0.12   0.14
  16   1    -0.00   0.01   0.02    -0.03   0.17   0.18     0.03  -0.11  -0.14
  17   6     0.01  -0.01   0.01    -0.01  -0.12   0.00     0.02   0.05  -0.00
  18   1     0.02  -0.01   0.02     0.15  -0.11   0.11    -0.09   0.06  -0.06
  19   1    -0.00   0.02   0.00    -0.04   0.15  -0.01     0.03  -0.10   0.00
  20   1    -0.01  -0.02  -0.01    -0.10  -0.16  -0.11     0.07   0.09   0.06
  21   1    -0.00  -0.00  -0.00    -0.08  -0.03   0.02     0.04   0.00  -0.01
  22   6    -0.00   0.00  -0.00     0.01   0.02  -0.01     0.01  -0.02  -0.01
  23   8    -0.00   0.00  -0.00     0.01   0.02  -0.01     0.03  -0.04  -0.03
  24   7     0.00  -0.00   0.00     0.00   0.04   0.00    -0.00   0.01   0.01
  25   1    -0.00   0.01   0.00     0.03  -0.05  -0.03     0.01  -0.01  -0.00
  26   1    -0.00   0.01   0.00     0.03  -0.07  -0.04    -0.00  -0.00   0.00
  27   7    -0.00   0.00  -0.00     0.02  -0.01  -0.02    -0.02   0.00  -0.00
  28   1     0.00  -0.01  -0.00    -0.04   0.07   0.03    -0.00  -0.01   0.00
  29   1     0.00  -0.00  -0.00    -0.02   0.04   0.02    -0.00  -0.01  -0.01
  30   6    -0.00   0.00  -0.00    -0.01  -0.01  -0.02    -0.00  -0.03   0.01
  31   8    -0.00   0.00  -0.00    -0.00  -0.01  -0.02     0.00  -0.02   0.04
  32   7     0.00   0.01   0.00    -0.03   0.13   0.12    -0.07   0.14   0.19
  33   1     0.00  -0.00  -0.00     0.07  -0.11  -0.17     0.11  -0.20  -0.26
  34   1     0.00  -0.00  -0.01     0.10  -0.22  -0.31     0.14  -0.37  -0.52
  35   7    -0.00   0.00   0.00     0.00  -0.01  -0.03     0.02  -0.02  -0.04
  36   1    -0.00   0.00   0.00    -0.07   0.07   0.16    -0.10   0.12   0.25
  37   1    -0.00   0.00   0.00    -0.03   0.03   0.05    -0.03   0.05   0.08
  38   6     0.00   0.00   0.02     0.08   0.01  -0.02    -0.04  -0.00   0.01
  39   8    -0.01   0.00   0.03     0.12   0.02  -0.03    -0.06  -0.01   0.01
  40   7     0.02  -0.00   0.01     0.02  -0.01   0.04    -0.01   0.00  -0.02
  41   1     0.00  -0.00  -0.01     0.01   0.01   0.03    -0.01   0.01  -0.01
  42   1     0.02  -0.00   0.00    -0.01   0.00   0.01     0.01   0.00  -0.00
  43   7    -0.01  -0.00   0.01     0.03   0.01  -0.14    -0.01   0.00   0.07
  44   1    -0.01   0.01   0.00    -0.02   0.00  -0.04     0.01  -0.00   0.02
  45   1     0.00   0.01  -0.00     0.02   0.01  -0.06    -0.01  -0.01   0.03
  46   6     0.00   0.00  -0.03     0.01   0.00   0.01    -0.00   0.00  -0.00
  47   8    -0.01   0.00  -0.02     0.01  -0.00   0.01    -0.01   0.00  -0.00
  48   7    -0.19   0.23   0.02     0.01  -0.01   0.00    -0.01   0.00  -0.00
  49   1     0.23  -0.27  -0.01    -0.01   0.02   0.00     0.00  -0.01  -0.00
  50   1     0.33  -0.40  -0.07    -0.02   0.03   0.01     0.01  -0.01  -0.00
  51   7     0.18  -0.25   0.01    -0.02   0.01   0.02     0.01  -0.01  -0.01
  52   1    -0.30   0.44  -0.06     0.01  -0.03   0.01    -0.01   0.01  -0.00
  53   1    -0.22   0.26  -0.02     0.01  -0.02   0.01    -0.01   0.01  -0.01
                     31                     32                     33
                        a                      a                      a 
 Frequencies --   279.4672               292.3928               309.6213
 Red. masses --     2.6022                 6.2094                 5.0472
 Frc consts  --     0.0000                 0.0000                 0.0000
 IR Inten    --    24.3500                 3.2406                 2.6111
 Raman Activ --     0.0000                 0.0000                 0.0000
 Depolar     --     0.0000                 0.0000                 0.0000
 Atom AN      X      Y      Z        X      Y      Z        X      Y      Z
   1   8    -0.08   0.05   0.08    -0.02  -0.03  -0.04    -0.33  -0.09  -0.00
   2   6    -0.05   0.01   0.10    -0.08  -0.27   0.20    -0.04  -0.04  -0.06
   3   1     0.00  -0.02   0.04     0.04  -0.23   0.09     0.00   0.03   0.01
   4   1    -0.04   0.00   0.05    -0.17  -0.07   0.15     0.01  -0.02  -0.04
   5   6     0.01  -0.00  -0.05     0.07   0.07  -0.08     0.04  -0.08  -0.16
   6   1    -0.02  -0.02  -0.03    -0.01   0.02  -0.05    -0.01  -0.08  -0.07
   7   1     0.04   0.00  -0.03     0.01   0.04  -0.05     0.04   0.01  -0.10
   8   7     0.00   0.00  -0.03     0.09   0.12  -0.05     0.05   0.03   0.00
   9   6     0.02  -0.01  -0.01     0.04   0.22  -0.21    -0.07   0.12  -0.11
  10   1    -0.02   0.00  -0.02    -0.08   0.14  -0.10    -0.08   0.07  -0.06
  11   1     0.03   0.00  -0.01     0.11   0.05  -0.14     0.01   0.00  -0.10
  12   1     0.01  -0.02   0.02     0.00   0.01   0.03    -0.04   0.04   0.03
  13   6    -0.01  -0.03   0.02     0.02  -0.21   0.22    -0.03  -0.02   0.24
  14   1     0.01  -0.07   0.01     0.07  -0.33   0.10     0.03   0.34   0.11
  15   1     0.01   0.02  -0.04     0.09   0.04  -0.11    -0.12  -0.19   0.37
  16   1    -0.03   0.02   0.05    -0.16   0.02   0.25     0.04  -0.17  -0.19
  17   6    -0.04   0.06  -0.06    -0.07   0.27  -0.15     0.17   0.02   0.09
  18   1     0.01   0.01  -0.01     0.07   0.06  -0.01     0.28  -0.08   0.16
  19   1    -0.02   0.05  -0.02    -0.04   0.19  -0.06    -0.02   0.25   0.06
  20   1    -0.04   0.00  -0.02    -0.12   0.02  -0.06    -0.06  -0.16  -0.12
  21   1    -0.02   0.03   0.01    -0.01   0.03  -0.01    -0.10  -0.05  -0.02
  22   6     0.04  -0.02  -0.01    -0.00  -0.01   0.01     0.02   0.01   0.01
  23   8     0.04  -0.03  -0.02    -0.01  -0.01   0.02     0.01  -0.00   0.02
  24   7     0.05  -0.20  -0.10    -0.03   0.05   0.00    -0.01   0.01  -0.05
  25   1    -0.15   0.34   0.14     0.02  -0.08  -0.04    -0.02   0.00  -0.01
  26   1    -0.22   0.51   0.27     0.05  -0.10  -0.07    -0.00   0.03  -0.01
  27   7    -0.04   0.10   0.06     0.01  -0.01   0.01     0.02   0.00   0.00
  28   1     0.26  -0.39  -0.19    -0.04   0.06   0.03    -0.01   0.01   0.01
  29   1     0.09  -0.13  -0.06    -0.01   0.01   0.00    -0.00   0.01   0.00
  30   6     0.01  -0.01  -0.01     0.02  -0.03   0.01     0.00   0.00   0.01
  31   8     0.01  -0.01  -0.01     0.03  -0.04   0.00    -0.00   0.01   0.03
  32   7    -0.03   0.02   0.04    -0.03  -0.04   0.04     0.01  -0.01  -0.00
  33   1     0.01  -0.03  -0.03     0.00  -0.04  -0.01    -0.00   0.01   0.01
  34   1     0.01  -0.05  -0.07    -0.01  -0.03  -0.03    -0.00   0.01   0.01
  35   7     0.00   0.01   0.01     0.03  -0.01   0.01     0.01   0.01  -0.00
  36   1     0.00  -0.00  -0.02    -0.01   0.01   0.03     0.00   0.00  -0.01
  37   1     0.01  -0.00  -0.01     0.01   0.00   0.01     0.00   0.00   0.00
  38   6     0.03  -0.00  -0.00    -0.00  -0.01   0.01     0.07   0.00   0.00
  39   8     0.04  -0.01  -0.00    -0.00  -0.02   0.01     0.07   0.02   0.00
  40   7     0.01   0.03   0.02    -0.00  -0.01   0.02     0.02  -0.01   0.06
  41   1     0.00  -0.06   0.00     0.00   0.02   0.01     0.01  -0.01   0.03
  42   1    -0.00  -0.02   0.00    -0.00   0.01   0.00    -0.01  -0.01   0.01
  43   7     0.00  -0.03  -0.04     0.00   0.01   0.01     0.02  -0.00  -0.09
  44   1    -0.00   0.03  -0.01    -0.00  -0.00   0.00    -0.02   0.01  -0.03
  45   1     0.02   0.07  -0.01    -0.00  -0.02   0.00     0.02   0.01  -0.05
  46   6     0.00  -0.00   0.00    -0.00  -0.00  -0.00     0.00   0.00   0.00
  47   8     0.00  -0.00   0.00     0.00  -0.00  -0.00     0.00  -0.00   0.00
  48   7     0.00  -0.01   0.00    -0.00   0.00  -0.00     0.00   0.00   0.00
  49   1    -0.00   0.01  -0.00     0.00  -0.00  -0.00     0.00   0.00  -0.00
  50   1    -0.01   0.01   0.00    -0.00  -0.00  -0.00    -0.00   0.00   0.00
  51   7    -0.00   0.00   0.00     0.00   0.00  -0.00    -0.00   0.00   0.01
  52   1     0.00  -0.01   0.00     0.00   0.00  -0.00    -0.00  -0.01   0.00
  53   1     0.00  -0.00   0.00     0.00   0.00  -0.00     0.00  -0.00   0.01
                     34                     35                     36
                        a                      a                      a 
 Frequencies --   341.4051               356.8997               357.6149
 Red. masses --     1.9342                 6.7884                 4.1831
 Frc consts  --     0.0000                 0.0000                 0.0000
 IR Inten    --    13.6930                29.9551               402.3568
 Raman Activ --     0.0000                 0.0000                 0.0000
 Depolar     --     0.0000                 0.0000                 0.0000
 Atom AN      X      Y      Z        X      Y      Z        X      Y      Z
   1   8     0.12   0.03  -0.02    -0.36  -0.09  -0.09    -0.14  -0.03  -0.03
   2   6     0.10  -0.02   0.02    -0.01   0.05  -0.22    -0.01   0.02  -0.08
   3   1     0.04  -0.03   0.01    -0.04   0.13  -0.06    -0.01   0.05  -0.03
   4   1     0.01  -0.00   0.02     0.11   0.00  -0.13     0.04   0.00  -0.05
   5   6     0.09  -0.04  -0.02    -0.07  -0.03   0.05    -0.03  -0.01   0.02
   6   1     0.03  -0.02  -0.00     0.02   0.01   0.05     0.01   0.00   0.02
   7   1     0.04  -0.01  -0.01    -0.08   0.00   0.01    -0.03   0.00   0.00
   8   7    -0.02  -0.05  -0.01     0.04   0.02   0.14     0.01   0.01   0.05
   9   6    -0.10  -0.03  -0.06     0.07   0.20  -0.13     0.03   0.07  -0.05
  10   1    -0.43   0.16  -0.23     0.02   0.13  -0.03     0.00   0.05  -0.01
  11   1     0.39   0.04  -0.23     0.03   0.02  -0.10     0.02   0.01  -0.04
  12   1    -0.06  -0.24   0.40     0.02   0.06  -0.06     0.01   0.02  -0.02
  13   6    -0.03   0.10   0.01     0.08  -0.16   0.10     0.03  -0.06   0.04
  14   1    -0.02   0.17   0.00     0.03  -0.20   0.02     0.01  -0.07   0.01
  15   1    -0.08  -0.03   0.10     0.10   0.01  -0.07     0.04   0.00  -0.03
  16   1     0.06  -0.01  -0.09    -0.05  -0.00   0.12    -0.02  -0.00   0.04
  17   6    -0.03   0.03   0.00     0.12  -0.04   0.22     0.04  -0.01   0.08
  18   1    -0.18   0.10  -0.13    -0.15   0.07  -0.07    -0.06   0.03  -0.03
  19   1     0.03  -0.20   0.02     0.08  -0.25   0.09     0.03  -0.09   0.03
  20   1     0.12   0.15   0.12     0.19   0.14   0.17     0.07   0.06   0.07
  21   1     0.02   0.03  -0.02    -0.11  -0.07  -0.04    -0.04  -0.02  -0.01
  22   6    -0.02  -0.01  -0.02    -0.00   0.04   0.02    -0.00   0.01   0.01
  23   8    -0.02   0.00  -0.02     0.00   0.01   0.02     0.00   0.01   0.01
  24   7     0.01  -0.01   0.05     0.02  -0.05  -0.07     0.01  -0.02  -0.03
  25   1     0.03  -0.01   0.01    -0.03   0.05   0.01    -0.01   0.02   0.00
  26   1     0.00  -0.04   0.01    -0.04   0.11   0.04    -0.02   0.04   0.02
  27   7    -0.00   0.02   0.01     0.05  -0.04  -0.01     0.02  -0.02  -0.00
  28   1     0.03  -0.02  -0.03    -0.07   0.10   0.06    -0.03   0.04   0.02
  29   1     0.02  -0.02   0.01    -0.02   0.04   0.01    -0.01   0.01   0.01
  30   6     0.00   0.00  -0.01     0.00  -0.01  -0.02     0.00  -0.00  -0.01
  31   8    -0.01  -0.00  -0.01    -0.00  -0.00  -0.01     0.00  -0.00  -0.00
  32   7    -0.03   0.01   0.03    -0.02   0.02   0.03    -0.01   0.01   0.01
  33   1    -0.00  -0.03  -0.01     0.00  -0.01  -0.01     0.00  -0.01  -0.00
  34   1    -0.00  -0.03  -0.05     0.00  -0.03  -0.05     0.00  -0.01  -0.02
  35   7    -0.01  -0.03   0.02    -0.02  -0.00   0.05    -0.01   0.00   0.02
  36   1     0.01  -0.02  -0.01     0.04  -0.05  -0.10     0.02  -0.02  -0.05
  37   1    -0.00  -0.01   0.01     0.01  -0.02  -0.02     0.01  -0.01  -0.01
  38   6    -0.02   0.00   0.00     0.05   0.01   0.01     0.02  -0.02   0.00
  39   8    -0.02   0.00   0.01     0.04   0.00   0.00     0.01   0.02   0.00
  40   7    -0.02  -0.00   0.00     0.03  -0.01   0.03     0.00   0.01   0.02
  41   1    -0.00   0.00   0.00     0.01   0.02   0.01     0.00  -0.04   0.01
  42   1    -0.00   0.00   0.00    -0.00   0.02   0.01    -0.01  -0.05   0.00
  43   7    -0.01  -0.01   0.04     0.01  -0.01  -0.09     0.01   0.04  -0.03
  44   1     0.01   0.00   0.01    -0.02   0.03  -0.02    -0.01  -0.06  -0.01
  45   1    -0.01   0.01   0.02     0.02   0.04  -0.04    -0.01  -0.09  -0.03
  46   6    -0.00  -0.00  -0.00     0.03  -0.03  -0.00    -0.05   0.09   0.00
  47   8    -0.00  -0.00  -0.00     0.02  -0.02   0.00    -0.04   0.03  -0.01
  48   7    -0.00   0.00  -0.00    -0.07   0.08   0.03     0.20  -0.21  -0.06
  49   1     0.00  -0.00  -0.00     0.06  -0.07  -0.00    -0.17   0.18   0.01
  50   1     0.00  -0.00  -0.00     0.12  -0.15  -0.02    -0.31   0.42   0.06
  51   7     0.00   0.00  -0.01    -0.06   0.09  -0.02     0.16  -0.23   0.06
  52   1     0.01  -0.00  -0.00     0.11  -0.18   0.02    -0.29   0.45  -0.04
  53   1     0.00  -0.00  -0.00     0.06  -0.06   0.01    -0.14   0.16  -0.02
                     37                     38                     39
                        a                      a                      a 
 Frequencies --   367.2962               383.9558               389.8036
 Red. masses --     4.1854                 7.3053                 3.2330
 Frc consts  --     0.0000                 0.0000                 0.0000
 IR Inten    --    45.9879                 0.5223               516.2963
 Raman Activ --     0.0000                 0.0000                 0.0000
 Depolar     --     0.0000                 0.0000                 0.0000
 Atom AN      X      Y      Z        X      Y      Z        X      Y      Z
   1   8    -0.15  -0.00  -0.01     0.03  -0.04   0.02     0.03  -0.01  -0.01
   2   6    -0.03   0.05  -0.07     0.16  -0.09   0.06     0.01  -0.02   0.00
   3   1    -0.03   0.06  -0.03     0.11  -0.07   0.07     0.01  -0.01   0.00
   4   1     0.04   0.01  -0.05    -0.02  -0.03   0.05    -0.01  -0.00   0.01
   5   6    -0.04  -0.01   0.03     0.23  -0.06  -0.20     0.00   0.01   0.01
   6   1    -0.00   0.01   0.02     0.04  -0.15  -0.09     0.00   0.01   0.01
   7   1    -0.03  -0.00   0.01     0.15   0.03  -0.14    -0.01   0.00   0.01
   8   7     0.02   0.00   0.04    -0.02   0.05   0.02    -0.01   0.00  -0.00
   9   6     0.06   0.04  -0.02    -0.39   0.19  -0.10    -0.01  -0.00  -0.01
  10   1     0.01   0.04  -0.01    -0.07   0.00  -0.01    -0.03   0.01  -0.02
  11   1     0.02   0.00  -0.02    -0.23  -0.01  -0.03     0.02   0.00  -0.02
  12   1     0.02   0.01  -0.00    -0.13   0.19  -0.06    -0.00  -0.02   0.03
  13   6     0.04  -0.08   0.03    -0.08   0.28   0.09    -0.01   0.01   0.01
  14   1     0.01  -0.05   0.01     0.01  -0.05   0.04    -0.00  -0.00   0.00
  15   1     0.04  -0.02  -0.01    -0.06   0.18  -0.12    -0.00   0.01  -0.00
  16   1    -0.01  -0.02   0.02    -0.02   0.18   0.17    -0.00   0.00   0.01
  17   6     0.04   0.01   0.06     0.08  -0.34   0.08    -0.00   0.01  -0.00
  18   1    -0.04   0.03  -0.02    -0.05  -0.12   0.07    -0.01   0.01  -0.01
  19   1     0.02  -0.06   0.02     0.04  -0.19   0.05     0.00  -0.01  -0.00
  20   1     0.05   0.05   0.05     0.13  -0.10  -0.03     0.01   0.01   0.00
  21   1    -0.04  -0.01  -0.01    -0.01  -0.00  -0.02     0.01  -0.00   0.00
  22   6     0.08  -0.09  -0.05     0.02  -0.01  -0.01    -0.03   0.06   0.01
  23   8     0.05  -0.06  -0.02     0.01  -0.02   0.00    -0.00   0.03  -0.01
  24   7    -0.08   0.23   0.08     0.01   0.02   0.01     0.07  -0.16  -0.07
  25   1     0.04  -0.13  -0.06     0.01  -0.00  -0.00    -0.01   0.08   0.04
  26   1     0.12  -0.23  -0.16     0.00  -0.01   0.00    -0.13   0.26   0.17
  27   7    -0.14   0.14   0.06    -0.00   0.02   0.00     0.07  -0.10  -0.06
  28   1     0.28  -0.45  -0.22     0.04  -0.05  -0.03    -0.20   0.30   0.16
  29   1     0.04  -0.08  -0.05    -0.00   0.00  -0.01    -0.03   0.04   0.01
  30   6    -0.03   0.03   0.07    -0.01   0.01   0.00    -0.04   0.03   0.10
  31   8    -0.03   0.02   0.04    -0.00   0.01   0.01    -0.04   0.02   0.05
  32   7     0.04  -0.08  -0.11     0.01   0.00  -0.02     0.06  -0.12  -0.14
  33   1    -0.01   0.03   0.02     0.00   0.01  -0.00    -0.01   0.05   0.03
  34   1    -0.02   0.09   0.14     0.00   0.02   0.02    -0.02   0.11   0.19
  35   7     0.07  -0.06  -0.15    -0.00   0.00  -0.02     0.10  -0.06  -0.21
  36   1    -0.14   0.18   0.40    -0.01   0.01   0.03    -0.21   0.27   0.60
  37   1    -0.04   0.04   0.07    -0.01  -0.00  -0.00    -0.05   0.03   0.05
  38   6     0.02   0.01   0.01    -0.00   0.01   0.00    -0.00  -0.02  -0.00
  39   8     0.01  -0.01   0.00    -0.00   0.00   0.00     0.00   0.02  -0.00
  40   7     0.01   0.00   0.01    -0.01  -0.00   0.02    -0.00   0.01   0.00
  41   1     0.00   0.01   0.00    -0.00   0.01   0.01    -0.00  -0.04  -0.00
  42   1     0.00   0.00   0.00    -0.00   0.00   0.00    -0.00  -0.02  -0.00
  43   7    -0.00  -0.02  -0.03     0.00  -0.01   0.02     0.01   0.03   0.00
  44   1    -0.00   0.02  -0.01     0.01   0.01   0.01    -0.00  -0.03  -0.00
  45   1     0.02   0.06  -0.01     0.00   0.02   0.01    -0.01  -0.09  -0.01
  46   6    -0.00  -0.00   0.00    -0.00  -0.00   0.00     0.00   0.01  -0.00
  47   8    -0.00  -0.00   0.00    -0.00  -0.00   0.00    -0.00   0.01  -0.00
  48   7     0.00  -0.00   0.00     0.00  -0.00  -0.00     0.00   0.00  -0.00
  49   1    -0.00   0.00   0.00    -0.00   0.00  -0.00     0.00  -0.00  -0.00
  50   1    -0.01   0.01   0.00    -0.01   0.00   0.00     0.01  -0.01  -0.00
  51   7     0.00  -0.00   0.00     0.00  -0.00  -0.00    -0.00  -0.00   0.00
  52   1    -0.01   0.01  -0.00    -0.00   0.01  -0.00    -0.00  -0.00   0.00
  53   1    -0.00   0.00   0.00    -0.00   0.00  -0.00    -0.00   0.00   0.00
                     40                     41                     42
                        a                      a                      a 
 Frequencies --   439.7220               444.3376               446.3346
 Red. masses --     2.5443                 8.4738                 1.9786
 Frc consts  --     0.0000                 0.0000                 0.0000
 IR Inten    --   554.8106                26.4512                 5.0982
 Raman Activ --     0.0000                 0.0000                 0.0000
 Depolar     --     0.0000                 0.0000                 0.0000
 Atom AN      X      Y      Z        X      Y      Z        X      Y      Z
   1   8    -0.03   0.00  -0.02     0.22   0.02   0.11     0.04   0.00   0.01
   2   6     0.01  -0.03   0.01    -0.02   0.10   0.04    -0.00   0.01   0.01
   3   1     0.01  -0.01   0.01    -0.02   0.03  -0.00    -0.00   0.00  -0.00
   4   1    -0.01  -0.01   0.01     0.02   0.03   0.00     0.00   0.00   0.00
   5   6     0.01   0.03   0.03    -0.07  -0.13  -0.02    -0.01  -0.02  -0.00
   6   1     0.01   0.01   0.01    -0.03  -0.06  -0.02    -0.00  -0.00  -0.00
   7   1    -0.01   0.01   0.01     0.05  -0.05   0.00     0.00  -0.01   0.00
   8   7     0.03   0.04   0.03    -0.19  -0.22  -0.13    -0.03  -0.04  -0.03
   9   6    -0.01   0.03   0.05     0.10  -0.14  -0.34     0.01  -0.03  -0.05
  10   1    -0.02  -0.01   0.01     0.11   0.03  -0.04     0.01   0.00  -0.01
  11   1     0.00   0.01   0.02    -0.00  -0.06  -0.10    -0.00  -0.01  -0.02
  12   1    -0.00   0.00   0.03     0.05  -0.04  -0.20     0.00  -0.01  -0.03
  13   6     0.05  -0.01  -0.03    -0.30   0.10   0.07    -0.05   0.02   0.02
  14   1    -0.00   0.01  -0.02    -0.03   0.00   0.07    -0.00   0.00   0.01
  15   1     0.03  -0.02   0.01    -0.17   0.08  -0.04    -0.03   0.01  -0.01
  16   1     0.02  -0.02  -0.03    -0.08   0.08   0.10    -0.01   0.02   0.02
  17   6    -0.06  -0.02  -0.04     0.25   0.23   0.23     0.04   0.04   0.03
  18   1    -0.03  -0.02   0.01     0.19   0.13  -0.05     0.03   0.02  -0.01
  19   1    -0.01  -0.00  -0.04     0.02   0.08   0.22     0.00   0.01   0.03
  20   1    -0.03  -0.02  -0.02     0.11   0.12   0.11     0.02   0.02   0.02
  21   1     0.00  -0.07   0.02     0.06   0.02   0.04     0.01   0.01   0.00
  22   6    -0.01   0.01  -0.00     0.02  -0.01   0.03     0.00  -0.00   0.00
  23   8    -0.01   0.00   0.00     0.03   0.01   0.00     0.00   0.00   0.00
  24   7     0.01  -0.03  -0.00    -0.02   0.01  -0.04    -0.00   0.00  -0.01
  25   1     0.00   0.02   0.01    -0.03  -0.01  -0.02    -0.00  -0.00  -0.00
  26   1    -0.02   0.03   0.02     0.01   0.02  -0.03     0.00   0.00  -0.00
  27   7     0.02  -0.01  -0.01    -0.04  -0.04   0.01    -0.01  -0.01   0.00
  28   1    -0.05   0.08   0.04    -0.02  -0.01   0.02    -0.00  -0.00   0.00
  29   1     0.01  -0.01  -0.01    -0.02  -0.00  -0.01    -0.00  -0.00  -0.00
  30   6    -0.00   0.00   0.00     0.01  -0.00   0.01     0.00  -0.00   0.00
  31   8    -0.00   0.00   0.00    -0.01   0.01  -0.01    -0.00   0.00  -0.00
  32   7     0.00  -0.01  -0.01    -0.01  -0.02   0.01    -0.00  -0.00   0.00
  33   1    -0.00   0.00   0.00    -0.00  -0.02   0.01    -0.00  -0.00   0.00
  34   1    -0.00   0.01   0.02    -0.01  -0.00  -0.00    -0.00  -0.00  -0.00
  35   7     0.01  -0.00  -0.01     0.01  -0.01   0.01     0.00  -0.00   0.00
  36   1    -0.01   0.02   0.04    -0.00   0.00   0.01     0.00  -0.00  -0.00
  37   1    -0.00  -0.00  -0.01     0.01   0.00   0.00     0.00   0.00   0.00
  38   6     0.01   0.10   0.02    -0.03   0.02  -0.02    -0.01  -0.00   0.02
  39   8     0.01  -0.16   0.00     0.02  -0.03  -0.02    -0.00  -0.00   0.02
  40   7     0.03  -0.11  -0.05    -0.03  -0.02  -0.02     0.02   0.00  -0.01
  41   1     0.03   0.52   0.02    -0.00   0.10   0.01    -0.00  -0.01  -0.02
  42   1     0.04   0.24   0.01    -0.00   0.05  -0.00     0.02   0.00  -0.00
  43   7    -0.07  -0.17  -0.04    -0.00  -0.03   0.05    -0.02   0.00   0.00
  44   1     0.03   0.22   0.00     0.03   0.03   0.02    -0.02  -0.00  -0.00
  45   1     0.09   0.65   0.07     0.00   0.11   0.05    -0.00  -0.00  -0.01
  46   6    -0.02  -0.05  -0.01    -0.01  -0.01   0.02     0.01   0.02  -0.08
  47   8     0.02  -0.02   0.00     0.00  -0.01   0.03     0.01   0.02  -0.08
  48   7    -0.00  -0.03   0.04    -0.01  -0.03  -0.02    -0.02   0.13   0.05
  49   1     0.00  -0.05   0.03    -0.03   0.06  -0.02     0.26  -0.45   0.12
  50   1    -0.06   0.12   0.04    -0.00  -0.05  -0.02    -0.14   0.42   0.11
  51   7     0.00  -0.03  -0.03     0.02   0.03  -0.02     0.01  -0.15   0.01
  52   1    -0.04   0.10  -0.01    -0.00   0.09  -0.00     0.09  -0.40   0.00
  53   1     0.01  -0.02  -0.03     0.05  -0.06  -0.04    -0.30   0.38   0.14
                     43                     44                     45
                        a                      a                      a 
 Frequencies --   457.3600               460.5208               464.6789
 Red. masses --     8.4282                 2.0950                 7.3673
 Frc consts  --     0.0000                 0.0000                 0.0000
 IR Inten    --     4.0687                25.8780                 1.4179
 Raman Activ --     0.0000                 0.0000                 0.0000
 Depolar     --     0.0000                 0.0000                 0.0000
 Atom AN      X      Y      Z        X      Y      Z        X      Y      Z
   1   8    -0.01  -0.00   0.00     0.00  -0.01  -0.00    -0.00   0.01  -0.02
   2   6    -0.00  -0.00   0.00    -0.02   0.00  -0.01     0.14  -0.09   0.05
   3   1    -0.00   0.00   0.00    -0.01   0.00  -0.00     0.04  -0.02   0.02
   4   1    -0.00  -0.00  -0.00    -0.01  -0.00  -0.01     0.06  -0.02   0.03
   5   6     0.00  -0.00  -0.01    -0.02   0.02   0.00     0.11  -0.20   0.01
   6   1    -0.00  -0.02  -0.01    -0.00   0.02   0.00     0.02  -0.17  -0.02
   7   1     0.01   0.01  -0.01    -0.02  -0.00   0.01     0.11  -0.01  -0.08
   8   7    -0.01   0.02   0.03     0.01  -0.00  -0.03    -0.14  -0.03   0.27
   9   6     0.02   0.03   0.02    -0.00  -0.02  -0.00     0.16   0.19  -0.10
  10   1     0.00   0.01   0.01     0.00  -0.02   0.00     0.08   0.18   0.01
  11   1     0.01   0.01   0.00    -0.01  -0.00   0.01     0.06   0.01  -0.10
  12   1     0.01   0.00   0.00    -0.00  -0.00  -0.00     0.06   0.03  -0.11
  13   6     0.01  -0.02  -0.02    -0.00  -0.00   0.03     0.02   0.04  -0.28
  14   1    -0.01  -0.00  -0.02     0.01  -0.00   0.02    -0.13   0.05  -0.18
  15   1     0.02  -0.01  -0.00    -0.01   0.00   0.01     0.08   0.00  -0.08
  16   1     0.01  -0.01  -0.02    -0.01   0.00   0.02     0.12   0.00  -0.14
  17   6    -0.03  -0.02   0.01     0.04   0.01  -0.01    -0.30   0.05   0.18
  18   1    -0.01  -0.01   0.01     0.02   0.01  -0.01    -0.03  -0.00   0.08
  19   1    -0.01  -0.00  -0.01     0.01   0.01   0.01    -0.09   0.10  -0.00
  20   1    -0.01  -0.01  -0.00     0.01   0.01  -0.00    -0.16  -0.04   0.03
  21   1    -0.00  -0.00  -0.00     0.00  -0.01   0.00    -0.01   0.00  -0.02
  22   6    -0.00   0.00   0.00    -0.07   0.06  -0.06     0.04   0.02   0.04
  23   8     0.00   0.00  -0.00    -0.15  -0.02   0.06     0.04   0.03   0.05
  24   7     0.00  -0.00  -0.00    -0.00   0.07   0.07    -0.02   0.05  -0.07
  25   1    -0.00   0.01   0.00     0.51  -0.56  -0.19     0.04  -0.13  -0.07
  26   1     0.00  -0.00  -0.00    -0.24   0.24   0.37    -0.03   0.09   0.01
  27   7     0.00   0.00   0.00     0.12  -0.01  -0.11    -0.05  -0.07   0.00
  28   1    -0.00   0.00   0.00     0.11  -0.08  -0.09    -0.02  -0.07   0.02
  29   1     0.00  -0.00  -0.00    -0.02   0.09   0.05    -0.05   0.02  -0.02
  30   6    -0.00  -0.00  -0.00    -0.01  -0.00   0.00     0.09   0.05  -0.02
  31   8    -0.00  -0.00   0.00     0.01  -0.01   0.01    -0.01   0.11  -0.08
  32   7     0.00   0.00  -0.00    -0.00   0.02   0.02    -0.09  -0.06  -0.03
  33   1    -0.00   0.00   0.00     0.04  -0.03  -0.09    -0.12  -0.01   0.25
  34   1     0.00  -0.00  -0.00     0.01   0.02   0.05    -0.10  -0.04  -0.17
  35   7    -0.00   0.00  -0.00    -0.01   0.00  -0.01     0.07  -0.08   0.10
  36   1    -0.00   0.00   0.00     0.02  -0.02  -0.06     0.04  -0.02   0.09
  37   1     0.00  -0.00  -0.00    -0.00   0.02   0.02    -0.01  -0.06  -0.01
  38   6     0.01   0.01  -0.06     0.00   0.00  -0.00    -0.01  -0.00  -0.00
  39   8     0.01   0.00  -0.06    -0.00  -0.00   0.00     0.00   0.00  -0.00
  40   7    -0.05  -0.00   0.02     0.00  -0.00  -0.00    -0.01   0.00   0.01
  41   1     0.00   0.01   0.04     0.00   0.01   0.00    -0.00  -0.01   0.00
  42   1    -0.04  -0.01   0.00     0.00   0.01   0.00    -0.00  -0.01   0.00
  43   7     0.05  -0.00   0.01    -0.00  -0.00  -0.00     0.00   0.00   0.02
  44   1     0.04   0.01   0.00    -0.00   0.00  -0.00     0.01  -0.01   0.00
  45   1    -0.00  -0.01   0.03     0.00   0.01  -0.00    -0.01  -0.01   0.01
  46   6    -0.06  -0.05   0.30    -0.00  -0.00   0.01     0.00   0.00  -0.02
  47   8    -0.07  -0.06   0.33    -0.00  -0.00   0.01     0.00   0.00  -0.02
  48   7    -0.26  -0.09  -0.31    -0.00  -0.00  -0.00     0.01   0.01   0.02
  49   1     0.19  -0.08  -0.25     0.00  -0.00  -0.00    -0.01   0.00   0.01
  50   1    -0.31  -0.04  -0.12    -0.01  -0.00  -0.00     0.02   0.00   0.01
  51   7     0.36   0.17  -0.11     0.01   0.00  -0.00    -0.02  -0.01   0.00
  52   1     0.32   0.07   0.04     0.01   0.00   0.00    -0.01  -0.01  -0.00
  53   1    -0.06   0.16  -0.26     0.00   0.00  -0.01    -0.00  -0.00   0.01
                     46                     47                     48
                        a                      a                      a 
 Frequencies --   470.0098               472.9477               478.4737
 Red. masses --     4.2609                 8.3427                 6.9989
 Frc consts  --     0.0000                 0.0000                 0.0000
 IR Inten    --    16.2383                14.3858                 7.5716
 Raman Activ --     0.0000                 0.0000                 0.0000
 Depolar     --     0.0000                 0.0000                 0.0000
 Atom AN      X      Y      Z        X      Y      Z        X      Y      Z
   1   8    -0.03  -0.01   0.00     0.06  -0.01   0.02    -0.05  -0.00  -0.01
   2   6    -0.04   0.02  -0.02    -0.04   0.04   0.00     0.03  -0.03   0.01
   3   1    -0.02   0.02  -0.01     0.00  -0.01   0.01    -0.01   0.02  -0.01
   4   1     0.00   0.00  -0.02    -0.04   0.01  -0.00     0.04  -0.01  -0.00
   5   6    -0.05   0.06   0.05     0.00  -0.01  -0.14    -0.00  -0.06   0.08
   6   1     0.00   0.10   0.03    -0.03  -0.12  -0.08     0.01   0.02   0.03
   7   1    -0.07  -0.01   0.07     0.09   0.03  -0.12    -0.03  -0.03   0.04
   8   7     0.10  -0.03  -0.11    -0.13   0.08   0.06     0.04  -0.07   0.02
   9   6    -0.11  -0.10   0.03     0.16   0.09  -0.01    -0.04  -0.01  -0.06
  10   1    -0.03  -0.10   0.00     0.08   0.07   0.02     0.02  -0.00  -0.00
  11   1    -0.07  -0.02   0.04     0.06   0.03  -0.00    -0.06  -0.03  -0.02
  12   1    -0.04   0.02   0.03     0.06  -0.03  -0.05    -0.02   0.04  -0.04
  13   6     0.03   0.03   0.14    -0.08  -0.10  -0.08     0.04   0.06   0.00
  14   1     0.07  -0.01   0.09    -0.05  -0.04  -0.05     0.01   0.03  -0.00
  15   1    -0.04   0.02   0.03     0.04  -0.05  -0.01    -0.01   0.03  -0.01
  16   1    -0.03   0.02   0.08    -0.03  -0.05  -0.05     0.04   0.03   0.01
  17   6     0.13  -0.00  -0.11    -0.02  -0.03   0.15    -0.01   0.05  -0.02
  18   1     0.03   0.01  -0.05     0.02  -0.02   0.07     0.02   0.02  -0.01
  19   1     0.04  -0.02  -0.02    -0.02  -0.01   0.07    -0.01   0.05  -0.02
  20   1     0.04   0.02  -0.01     0.02  -0.03   0.00    -0.04   0.01   0.01
  21   1    -0.00  -0.01   0.01     0.01   0.01   0.00    -0.01  -0.01  -0.00
  22   6    -0.04   0.02  -0.05    -0.17  -0.03  -0.19    -0.06  -0.00  -0.10
  23   8    -0.08  -0.03  -0.01    -0.25  -0.11  -0.12    -0.11  -0.07  -0.04
  24   7     0.03  -0.02   0.08     0.05  -0.15   0.30     0.05  -0.06   0.13
  25   1     0.07   0.02   0.03     0.12   0.20   0.18     0.04   0.14   0.10
  26   1    -0.01  -0.06   0.06    -0.02  -0.26   0.14     0.01  -0.13   0.05
  27   7     0.06   0.06  -0.04     0.25   0.26  -0.07     0.09   0.12  -0.06
  28   1     0.04   0.03  -0.04     0.14   0.18  -0.14     0.04   0.08  -0.05
  29   1     0.03   0.01   0.02     0.18   0.00   0.11     0.07   0.00   0.02
  30   6     0.12   0.06  -0.06    -0.05  -0.06   0.01     0.13   0.19   0.00
  31   8     0.00   0.14  -0.14    -0.02  -0.08   0.04     0.08   0.24  -0.05
  32   7    -0.09  -0.07  -0.09     0.11   0.01   0.00    -0.32  -0.01  -0.02
  33   1    -0.27   0.11   0.59    -0.00   0.11   0.07     0.06  -0.37  -0.32
  34   1    -0.14  -0.11  -0.37     0.08  -0.05  -0.02    -0.23   0.18   0.13
  35   7     0.07  -0.09   0.18    -0.05   0.09  -0.04     0.14  -0.30   0.09
  36   1     0.05  -0.02   0.16    -0.06   0.05   0.00     0.16  -0.15   0.08
[...]
  44   1    -0.00  -0.00   0.01     0.01   0.04  -0.91    -0.00   0.01  -0.23
  45   1    -0.00   0.00  -0.00     0.19  -0.04   0.13     0.06  -0.01   0.04
  46   6     0.00   0.00  -0.00    -0.00  -0.00   0.01    -0.00  -0.00   0.01
  47   8    -0.00  -0.00   0.00     0.00   0.00  -0.00     0.00   0.00  -0.00
  48   7    -0.00  -0.00   0.00    -0.00  -0.00  -0.00    -0.00  -0.00  -0.00
  49   1    -0.00  -0.00  -0.00     0.01   0.01   0.01     0.01   0.01   0.02
  50   1     0.00  -0.00  -0.00     0.00   0.00  -0.01     0.00   0.00  -0.01
  51   7    -0.00  -0.00   0.00     0.00   0.00  -0.00     0.00   0.00   0.00
  52   1    -0.00  -0.00   0.00     0.00  -0.00  -0.00     0.00   0.00  -0.01
  53   1     0.00   0.00  -0.00    -0.01  -0.01   0.00    -0.02  -0.02   0.01
                    142                    143                    144
                        a                      a                      a 
 Frequencies --  3495.5449              3497.7011              3498.3629
 Red. masses --     1.4390                 1.4507                 1.4545
 Frc consts  --     0.0000                 0.0000                 0.0000
 IR Inten    --    40.5206                18.1025                15.4181
 Raman Activ --     0.0000                 0.0000                 0.0000
 Depolar     --     0.0000                 0.0000                 0.0000
 Atom AN      X      Y      Z        X      Y      Z        X      Y      Z
   1   8     0.00   0.00  -0.00    -0.00  -0.00   0.00     0.00   0.00  -0.00
   2   6    -0.00  -0.00  -0.00    -0.00   0.00  -0.00    -0.00  -0.00   0.00
   3   1     0.00   0.00   0.00    -0.00   0.00  -0.00    -0.00  -0.00   0.00
   4   1    -0.00   0.00  -0.00     0.00  -0.00   0.00     0.00   0.00  -0.00
   5   6     0.00  -0.00  -0.00    -0.00   0.00   0.00    -0.00  -0.00  -0.00
   6   1    -0.00  -0.00   0.00     0.00  -0.00  -0.00     0.00   0.00   0.00
   7   1     0.00   0.00   0.00    -0.00  -0.00  -0.00     0.00   0.00   0.00
   8   7     0.00   0.00   0.00     0.00   0.00  -0.00     0.00  -0.00   0.00
   9   6     0.00   0.00  -0.00     0.00  -0.00   0.00     0.00   0.00   0.00
  10   1    -0.00  -0.00   0.00     0.00  -0.00   0.00     0.00  -0.00   0.00
  11   1    -0.00   0.00  -0.00    -0.00   0.00  -0.00    -0.00   0.00  -0.00
  12   1    -0.00  -0.00  -0.00    -0.00  -0.00   0.00    -0.00  -0.00  -0.00
  13   6    -0.00  -0.00  -0.00     0.00  -0.00   0.00    -0.00  -0.00   0.00
  14   1    -0.00  -0.00  -0.00    -0.00  -0.00   0.00     0.00  -0.00   0.00
  15   1    -0.00   0.00   0.00    -0.00  -0.00  -0.00     0.00   0.00   0.00
  16   1    -0.00  -0.00  -0.00     0.00   0.00  -0.00     0.00   0.00  -0.00
  17   6     0.00   0.00  -0.00     0.00  -0.00   0.00     0.00  -0.00   0.00
  18   1     0.00   0.00   0.00     0.00  -0.00  -0.00     0.00   0.00   0.00
  19   1    -0.00  -0.00  -0.00    -0.00  -0.00   0.00    -0.00  -0.00  -0.00
  20   1     0.00  -0.00   0.00    -0.00   0.00  -0.00    -0.00   0.00  -0.00
  21   1    -0.00  -0.00   0.00     0.00   0.00  -0.00    -0.00  -0.00   0.00
  22   6    -0.00  -0.00  -0.00     0.00   0.00  -0.00    -0.00   0.00   0.00
  23   8     0.00   0.00   0.00    -0.00  -0.00   0.00     0.00  -0.00   0.00
  24   7     0.00   0.00  -0.00     0.01   0.00  -0.00    -0.16  -0.07   0.05
  25   1    -0.00  -0.00   0.00    -0.00  -0.01   0.02     0.01   0.25  -0.60
  26   1    -0.00  -0.00  -0.00    -0.02  -0.00  -0.02     0.60   0.03   0.43
  27   7    -0.00   0.00  -0.00    -0.00  -0.00   0.00     0.01   0.01   0.00
  28   1     0.00   0.00   0.00     0.00   0.00   0.00    -0.02  -0.01  -0.02
  29   1    -0.00  -0.00   0.00     0.00   0.00  -0.00    -0.01  -0.01   0.01
  30   6    -0.00  -0.00  -0.00     0.00   0.00  -0.00     0.00   0.00  -0.00
  31   8     0.00   0.00   0.00    -0.00  -0.00   0.00    -0.00  -0.00   0.00
  32   7    -0.00   0.00  -0.00    -0.05   0.13  -0.12    -0.00   0.00  -0.00
  33   1     0.00   0.00   0.00     0.62   0.05   0.22     0.02   0.00   0.01
  34   1    -0.00  -0.00   0.00    -0.44  -0.52   0.25    -0.02  -0.02   0.01
  35   7     0.00  -0.00   0.00     0.00  -0.01   0.00     0.00   0.00   0.00
  36   1     0.00   0.00  -0.00     0.02   0.03  -0.01    -0.01  -0.01   0.00
  37   1    -0.00   0.00  -0.00    -0.01   0.01  -0.01    -0.01   0.01  -0.01
  38   6    -0.00  -0.00   0.00     0.00   0.00  -0.00    -0.00  -0.00   0.00
  39   8     0.00   0.00  -0.00    -0.00  -0.00   0.00     0.00   0.00  -0.00
  40   7    -0.00   0.00  -0.00     0.00  -0.00   0.00    -0.00   0.00   0.00
  41   1     0.00  -0.00  -0.00    -0.00   0.00   0.00     0.00  -0.00  -0.00
  42   1    -0.00  -0.00   0.00     0.00   0.00  -0.00    -0.00  -0.00  -0.00
  43   7    -0.00   0.00   0.00    -0.00  -0.00   0.00     0.00   0.00  -0.00
  44   1    -0.00  -0.00  -0.00     0.00   0.00  -0.00    -0.00  -0.00   0.00
  45   1     0.00  -0.00   0.00    -0.00   0.00  -0.00    -0.00   0.00  -0.00
  46   6     0.00   0.00   0.00     0.00  -0.00   0.00    -0.00   0.00   0.00
  47   8     0.00   0.00  -0.00    -0.00   0.00  -0.00    -0.00  -0.00   0.00
  48   7     0.08   0.08  -0.04    -0.00  -0.00   0.00     0.00   0.00  -0.00
  49   1    -0.24  -0.20  -0.33     0.00   0.00   0.00    -0.00  -0.00  -0.00
  50   1    -0.07  -0.13   0.47     0.00   0.00  -0.00    -0.00  -0.00   0.00
  51   7     0.06   0.06   0.10     0.00   0.00   0.00    -0.00  -0.00  -0.00
  52   1     0.16   0.05  -0.51     0.00   0.00  -0.00    -0.00  -0.00   0.00
  53   1    -0.36  -0.29   0.12    -0.00  -0.00   0.00     0.00   0.00  -0.00
                    145                    146                    147
                        a                      a                      a 
 Frequencies --  3499.2940              3535.4259              3543.0270
 Red. masses --     1.4639                 1.9518                 1.9630
 Frc consts  --     0.0000                 0.0000                 0.0000
 IR Inten    --     3.5923                12.5166                20.2466
 Raman Activ --     0.0000                 0.0000                 0.0000
 Depolar     --     0.0000                 0.0000                 0.0000
 Atom AN      X      Y      Z        X      Y      Z        X      Y      Z
   1   8     0.00  -0.00  -0.00    -0.00  -0.00   0.00    -0.00   0.00   0.00
   2   6    -0.00  -0.00  -0.00     0.00   0.00   0.00    -0.00   0.00   0.00
   3   1     0.00   0.00  -0.00     0.00   0.00   0.00     0.00  -0.00  -0.00
   4   1    -0.00  -0.00  -0.00    -0.00  -0.00  -0.00     0.00  -0.00  -0.00
   5   6    -0.00   0.00   0.00     0.00  -0.00   0.00    -0.00  -0.00   0.00
   6   1     0.00  -0.00   0.00    -0.00   0.00  -0.00     0.00   0.00  -0.00
   7   1    -0.00  -0.00  -0.00    -0.00   0.00  -0.00    -0.00  -0.00  -0.00
   8   7     0.00   0.00  -0.00    -0.00  -0.00   0.00    -0.00  -0.00   0.00
   9   6     0.00  -0.00   0.00    -0.00  -0.00  -0.00     0.00   0.00   0.00
  10   1     0.00  -0.00  -0.00    -0.00   0.00  -0.00     0.00  -0.00   0.00
  11   1    -0.00   0.00  -0.00    -0.00   0.00   0.00     0.00   0.00  -0.00
  12   1    -0.00  -0.00  -0.00     0.00   0.00   0.00    -0.00  -0.00   0.00
  13   6    -0.00  -0.00   0.00     0.00  -0.00   0.00    -0.00   0.00   0.00
  14   1     0.00  -0.00  -0.00    -0.00   0.00  -0.00     0.00  -0.00  -0.00
  15   1    -0.00  -0.00  -0.00    -0.00  -0.00  -0.00     0.00   0.00   0.00
  16   1     0.00   0.00  -0.00    -0.00  -0.00  -0.00    -0.00   0.00  -0.00
  17   6    -0.00  -0.00   0.00    -0.00  -0.00  -0.00     0.00   0.00   0.00
  18   1    -0.00  -0.00  -0.00    -0.00   0.00  -0.00     0.00   0.00   0.00
  19   1     0.00   0.00   0.00     0.00   0.00   0.00    -0.00  -0.00  -0.00
  20   1    -0.00   0.00  -0.00    -0.00  -0.00  -0.00    -0.00   0.00  -0.00
  21   1    -0.00   0.00   0.00     0.00   0.00  -0.00     0.00  -0.00  -0.00
  22   6     0.00   0.00  -0.00    -0.00  -0.00  -0.00     0.01   0.01   0.00
  23   8    -0.00   0.00  -0.00     0.00   0.00   0.00    -0.00  -0.00  -0.00
  24   7     0.00   0.00  -0.00     0.00   0.00   0.00    -0.01   0.01  -0.04
  25   1    -0.00  -0.00   0.00     0.00   0.00  -0.00    -0.01  -0.05   0.11
  26   1    -0.00  -0.00  -0.00    -0.01  -0.00  -0.01     0.05   0.00   0.03
  27   7    -0.00  -0.00   0.00     0.00  -0.00   0.00     0.22   0.07   0.14
  28   1    -0.00   0.00   0.00    -0.01  -0.00  -0.01    -0.71  -0.16  -0.60
  29   1     0.00   0.00  -0.00     0.00   0.00  -0.00    -0.11  -0.10   0.06
  30   6     0.00   0.00  -0.00    -0.00   0.01  -0.00    -0.00  -0.00   0.00
  31   8    -0.00  -0.00   0.00    -0.00  -0.00   0.00     0.00   0.00  -0.00
  32   7    -0.00   0.00  -0.00    -0.03  -0.01  -0.00     0.00   0.00   0.00
  33   1     0.00   0.00   0.00     0.09   0.00   0.03    -0.00  -0.00  -0.00
  34   1    -0.00  -0.00   0.00     0.02   0.03  -0.01    -0.00  -0.00   0.00
  35   7    -0.00  -0.00   0.00     0.11   0.23  -0.07    -0.00  -0.00   0.00
  36   1     0.00   0.00  -0.00    -0.49  -0.79   0.16     0.00   0.01  -0.00
  37   1    -0.00   0.00  -0.00     0.08  -0.10   0.09    -0.00   0.00  -0.00
  38   6    -0.00   0.00  -0.00     0.00   0.00  -0.00     0.00   0.00  -0.00
  39   8     0.00   0.00  -0.00    -0.00  -0.00   0.00    -0.00   0.00   0.00
  40   7     0.00  -0.00   0.00     0.00   0.00  -0.00     0.01   0.00  -0.00
  41   1    -0.02   0.00   0.01    -0.00   0.00   0.00    -0.02   0.00   0.01
  42   1     0.00   0.00  -0.03    -0.00  -0.00   0.00    -0.00  -0.00   0.01
  43   7    -0.00   0.00   0.00     0.00  -0.00   0.00     0.00  -0.00   0.00
  44   1    -0.00   0.00  -0.02     0.00   0.00  -0.00     0.00   0.00  -0.00
  45   1     0.01  -0.00   0.01    -0.00   0.00  -0.00    -0.01   0.00  -0.00
  46   6     0.00   0.00  -0.00     0.00   0.00  -0.00    -0.00   0.00  -0.00
  47   8    -0.00  -0.00   0.00    -0.00  -0.00   0.00    -0.00   0.00   0.00
  48   7     0.09   0.09  -0.04    -0.00  -0.00   0.00    -0.00  -0.00   0.00
  49   1    -0.27  -0.21  -0.36     0.00   0.00   0.00    -0.00  -0.00  -0.00
  50   1    -0.07  -0.13   0.49     0.00  -0.00  -0.00     0.00   0.00  -0.00
  51   7    -0.06  -0.06  -0.09     0.00   0.00  -0.00    -0.00  -0.00   0.00
  52   1    -0.14  -0.04   0.46    -0.00  -0.00   0.00     0.00   0.00  -0.00
  53   1     0.35   0.28  -0.11    -0.00  -0.00  -0.00     0.00   0.00  -0.00
                    148                    149                    150
                        a                      a                      a 
 Frequencies --  3549.1272              3555.7026              3558.6942
 Red. masses --     2.0576                 2.0291                 2.1891
 Frc consts  --     0.0000                 0.0000                 0.0000
 IR Inten    --    42.0293                49.6446                14.1434
 Raman Activ --     0.0000                 0.0000                 0.0000
 Depolar     --     0.0000                 0.0000                 0.0000
 Atom AN      X      Y      Z        X      Y      Z        X      Y      Z
   1   8     0.00  -0.00  -0.00    -0.00   0.00   0.00     0.00   0.00  -0.00
   2   6    -0.00  -0.00  -0.00     0.00   0.00   0.00    -0.00  -0.00  -0.00
   3   1     0.00   0.00  -0.00    -0.00  -0.00   0.00    -0.00   0.00   0.00
   4   1    -0.00   0.00  -0.00     0.00  -0.00   0.00    -0.00   0.00  -0.00
   5   6     0.00   0.00   0.00    -0.00   0.00   0.00     0.00  -0.00  -0.00
   6   1     0.00   0.00   0.00     0.00  -0.00  -0.00    -0.00  -0.00   0.00
   7   1     0.00   0.00   0.00    -0.00   0.00   0.00    -0.00   0.00   0.00
   8   7     0.00  -0.00   0.00    -0.00  -0.00  -0.00     0.00   0.00   0.00
   9   6     0.00  -0.00   0.00    -0.00  -0.00   0.00     0.00   0.00  -0.00
  10   1     0.00  -0.00   0.00     0.00   0.00  -0.00    -0.00  -0.00  -0.00
  11   1     0.00   0.00  -0.00    -0.00  -0.00   0.00    -0.00  -0.00   0.00
  12   1    -0.00   0.00  -0.00     0.00   0.00   0.00    -0.00  -0.00  -0.00
  13   6    -0.00  -0.00   0.00     0.00   0.00  -0.00    -0.00  -0.00  -0.00
  14   1    -0.00   0.00   0.00    -0.00   0.00   0.00    -0.00  -0.00   0.00
  15   1    -0.00   0.00  -0.00    -0.00  -0.00   0.00    -0.00   0.00   0.00
  16   1    -0.00  -0.00   0.00    -0.00  -0.00   0.00    -0.00  -0.00   0.00
  17   6     0.00  -0.00   0.00    -0.00   0.00   0.00     0.00   0.00   0.00
  18   1    -0.00   0.00  -0.00    -0.00  -0.00   0.00    -0.00   0.00   0.00
  19   1    -0.00  -0.00  -0.00     0.00   0.00   0.00    -0.00  -0.00  -0.00
  20   1    -0.00   0.00  -0.00    -0.00   0.00   0.00     0.00  -0.00   0.00
  21   1    -0.01   0.00   0.00     0.01  -0.00  -0.00    -0.00  -0.00   0.00
  22   6    -0.00   0.00  -0.00     0.00  -0.00   0.00    -0.00   0.00  -0.00
  23   8     0.00   0.00   0.00    -0.00   0.00  -0.00     0.00   0.00   0.00
  24   7     0.00  -0.00   0.00    -0.00   0.00  -0.00    -0.00   0.00  -0.00
  25   1     0.00   0.00  -0.01    -0.00  -0.00   0.00    -0.00  -0.00   0.00
  26   1    -0.00  -0.00  -0.00     0.00   0.00   0.00     0.00   0.00   0.00
  27   7    -0.01  -0.00  -0.00     0.00   0.00   0.00     0.00   0.00   0.00
  28   1     0.02   0.00   0.02    -0.00  -0.00  -0.00    -0.00  -0.00  -0.00
  29   1     0.00   0.00  -0.00    -0.00  -0.00   0.00    -0.00  -0.00   0.00
  30   6    -0.00  -0.00  -0.00    -0.00  -0.00   0.00    -0.00  -0.00  -0.00
  31   8     0.00  -0.00   0.00     0.00   0.00  -0.00     0.00   0.00  -0.00
  32   7     0.00  -0.00   0.00    -0.00  -0.00  -0.00    -0.00  -0.00   0.00
  33   1    -0.00  -0.00  -0.00     0.00   0.00   0.00     0.00   0.00   0.00
  34   1     0.00   0.00  -0.00     0.00   0.00  -0.00     0.00   0.00  -0.00
  35   7    -0.00  -0.00   0.00     0.00   0.00  -0.00     0.00  -0.00   0.00
  36   1     0.00   0.00  -0.00    -0.00  -0.00   0.00     0.00   0.00  -0.00
  37   1    -0.00   0.00  -0.00     0.00  -0.00   0.00    -0.00   0.00  -0.00
  38   6     0.01  -0.00  -0.00     0.00  -0.00   0.01    -0.00  -0.00   0.00
  39   8    -0.00  -0.00   0.00    -0.00  -0.00  -0.00     0.00   0.00  -0.00
  40   7     0.20   0.00  -0.16    -0.10  -0.00   0.08     0.00   0.00  -0.00
  41   1    -0.74   0.01   0.31     0.36  -0.00  -0.15    -0.00  -0.00   0.00
  42   1    -0.02  -0.02   0.29     0.01   0.01  -0.16     0.00  -0.00   0.00
  43   7     0.09  -0.02   0.08     0.18  -0.04   0.16     0.00  -0.00   0.00
  44   1     0.01   0.00  -0.08     0.02   0.00  -0.20     0.00   0.00  -0.01
  45   1    -0.36   0.08  -0.21    -0.71   0.16  -0.42    -0.02   0.00  -0.01
  46   6    -0.00   0.00  -0.00    -0.00  -0.00   0.00     0.01   0.00   0.00
  47   8    -0.00   0.00   0.00     0.00   0.00  -0.00    -0.00  -0.00  -0.00
  48   7    -0.00  -0.00   0.00    -0.00  -0.00  -0.02     0.06   0.03   0.21
  49   1     0.00   0.00   0.00     0.02   0.01   0.02    -0.29  -0.24  -0.36
  50   1     0.00   0.00  -0.00    -0.01  -0.01   0.04     0.07   0.14  -0.45
  51   7    -0.00  -0.00   0.00     0.00   0.00  -0.01     0.12   0.08  -0.14
  52   1     0.00   0.00  -0.01    -0.01  -0.00   0.03    -0.11  -0.02   0.41
  53   1     0.01   0.00  -0.00    -0.01  -0.01   0.00    -0.36  -0.30   0.10
                    151                    152                    153
                        a                      a                      a 
 Frequencies --  3562.8787              3563.4641              3564.1874
 Red. masses --     2.1723                 2.1771                 2.1750
 Frc consts  --     0.0000                 0.0000                 0.0000
 IR Inten    --    14.2439                 8.9599                18.5226
 Raman Activ --     0.0000                 0.0000                 0.0000
 Depolar     --     0.0000                 0.0000                 0.0000
 Atom AN      X      Y      Z        X      Y      Z        X      Y      Z
   1   8     0.00  -0.00   0.00     0.00  -0.00  -0.00     0.00  -0.00  -0.00
   2   6     0.00  -0.00  -0.00     0.00  -0.00  -0.00    -0.00  -0.00   0.00
   3   1    -0.00   0.00   0.00    -0.00   0.00   0.00     0.00   0.00  -0.00
   4   1    -0.00   0.00   0.00    -0.00   0.00   0.00    -0.00   0.00  -0.00
   5   6     0.00   0.00  -0.00     0.00  -0.00  -0.00    -0.00  -0.00  -0.00
   6   1    -0.00  -0.00   0.00    -0.00   0.00   0.00     0.00   0.00   0.00
   7   1     0.00  -0.00   0.00    -0.00   0.00   0.00     0.00  -0.00  -0.00
   8   7    -0.00   0.00  -0.00    -0.00  -0.00  -0.00     0.00   0.00   0.00
   9   6    -0.00  -0.00  -0.00    -0.00   0.00  -0.00     0.00   0.00  -0.00
  10   1    -0.00  -0.00   0.00    -0.00   0.00   0.00    -0.00  -0.00   0.00
  11   1     0.00  -0.00   0.00     0.00  -0.00   0.00    -0.00   0.00  -0.00
  12   1     0.00   0.00  -0.00     0.00   0.00  -0.00    -0.00  -0.00  -0.00
  13   6     0.00   0.00   0.00     0.00   0.00  -0.00    -0.00  -0.00   0.00
  14   1    -0.00  -0.00   0.00    -0.00   0.00  -0.00     0.00   0.00  -0.00
  15   1    -0.00  -0.00  -0.00    -0.00   0.00  -0.00     0.00  -0.00  -0.00
  16   1     0.00   0.00   0.00    -0.00  -0.00   0.00     0.00   0.00  -0.00
  17   6    -0.00  -0.00  -0.00    -0.00   0.00  -0.00     0.00  -0.00   0.00
  18   1    -0.00  -0.00  -0.00    -0.00   0.00  -0.00     0.00  -0.00  -0.00
  19   1     0.00   0.00   0.00     0.00   0.00   0.00    -0.00  -0.00  -0.00
  20   1     0.00  -0.00   0.00     0.00  -0.00   0.00    -0.00   0.00  -0.00
  21   1    -0.00   0.00   0.00    -0.00   0.00   0.00    -0.00   0.00   0.00
  22   6    -0.00   0.00  -0.01    -0.00   0.00  -0.00     0.00  -0.00   0.00
  23   8     0.00  -0.00   0.00     0.00  -0.00   0.00    -0.00   0.00  -0.00
  24   7    -0.13   0.06  -0.26    -0.02   0.01  -0.05     0.00  -0.00   0.00
  25   1    -0.04  -0.27   0.64    -0.01  -0.05   0.12     0.00   0.00  -0.01
  26   1     0.52   0.03   0.34     0.09   0.01   0.06    -0.00  -0.00  -0.00
  27   7    -0.03  -0.01  -0.02    -0.01  -0.00  -0.00     0.00   0.00   0.00
  28   1     0.09   0.02   0.08     0.02   0.00   0.02    -0.00  -0.00  -0.00
  29   1     0.02   0.02  -0.01     0.00   0.00  -0.00    -0.00  -0.00   0.00
  30   6    -0.00  -0.00  -0.00     0.01   0.00   0.00    -0.00  -0.00  -0.00
  31   8     0.00   0.00  -0.00    -0.00  -0.00   0.00     0.00   0.00   0.00
  32   7    -0.05  -0.02  -0.00     0.26   0.13   0.00    -0.00  -0.00  -0.00
  33   1     0.12   0.01   0.05    -0.64  -0.03  -0.25     0.01   0.00   0.00
  34   1     0.07   0.08  -0.04    -0.37  -0.46   0.23     0.00   0.00  -0.00
  35   7    -0.00   0.00  -0.00     0.01   0.02  -0.01    -0.00  -0.00   0.00
  36   1     0.00   0.00  -0.00    -0.05  -0.08   0.02     0.00   0.00  -0.00
  37   1     0.00  -0.00   0.00     0.01  -0.01   0.01    -0.00   0.00  -0.00
  38   6    -0.00   0.00  -0.00    -0.00  -0.00   0.00     0.00   0.00  -0.00
  39   8     0.00  -0.00  -0.00     0.00   0.00  -0.00     0.00   0.00  -0.00
  40   7     0.00   0.00  -0.00     0.00   0.00  -0.00     0.01   0.00  -0.01
  41   1    -0.00   0.00   0.00    -0.00   0.00   0.00    -0.03   0.00   0.01
  42   1    -0.00  -0.00   0.00    -0.00  -0.00   0.00    -0.00  -0.00   0.02
  43   7    -0.00   0.00  -0.00     0.00   0.00  -0.00    -0.01   0.00  -0.01
  44   1    -0.00  -0.00   0.00     0.00  -0.00   0.00    -0.00  -0.00   0.02
  45   1     0.00  -0.00   0.00    -0.00   0.00  -0.00     0.03  -0.01   0.02
  46   6     0.00   0.00  -0.00     0.00   0.00  -0.00     0.00   0.00  -0.01
  47   8    -0.00  -0.00   0.00    -0.00  -0.00   0.00    -0.00  -0.00   0.00
  48   7    -0.00  -0.00  -0.00    -0.00  -0.00  -0.00    -0.05  -0.02  -0.19
  49   1     0.00   0.00   0.00     0.00   0.00   0.00     0.26   0.21   0.32
  50   1    -0.00  -0.00   0.00    -0.00  -0.00   0.00    -0.07  -0.13   0.42
  51   7     0.00   0.00  -0.00     0.00   0.00  -0.00     0.14   0.09  -0.15
  52   1    -0.00  -0.00   0.00    -0.00  -0.00   0.00    -0.13  -0.03   0.47
  53   1    -0.00  -0.00   0.00    -0.00  -0.00   0.00    -0.39  -0.32   0.11
