 Entering Gaussian System
 *********************************************
 Gaussian 98:
 frequency output generated by the xtb code
 *********************************************
                         Standard orientation:
 --------------------------------------------------------------------
  Center     Atomic     Atomic              Coordinates (Angstroms)
  Number     Number      Type              X           Y           Z
 --------------------------------------------------------------------
    1          8             0       -0.993264   -2.135013   -4.677831
    2          6             0       -0.007916   -1.348105   -4.058288
    3          1             0        0.949216   -1.751421   -4.392527
    4          1             0       -0.063899   -0.309119   -4.405454
    5          6             0       -0.101223   -1.309100   -2.528560
    6          1             0       -1.101527   -0.985254   -2.235041
    7          1             0        0.637376   -0.594638   -2.156618
    8          7             0        0.153841   -2.594240   -1.819013
    9          6             0        0.127638   -2.303077   -0.374336
   10          1             0        0.931446   -1.599889   -0.154575
   11          1             0        0.268798   -3.218739    0.195101
   12          1             0       -0.827109   -1.853168   -0.112039
   13          6             0        1.481620   -3.127310   -2.159253
   14          1             0        1.512501   -3.446982   -3.197548
   15          1             0        1.706191   -3.984385   -1.527327
   16          1             0        2.224963   -2.350168   -1.983828
   17          6             0       -0.897372   -3.574556   -2.130968
   18          1             0       -0.924709   -3.768057   -3.201625
   19          1             0       -1.859153   -3.171284   -1.816439
   20          1             0       -0.708321   -4.504994   -1.599209
   21          1             0       -1.851251   -1.701899   -4.608297
   22          6             0        2.609115    0.633156   -0.100933
   23          8             0        2.285169   -0.245236   -0.898449
   24          7             0        2.443525    0.514740    1.233785
   25          1             0        1.831719   -0.210113    1.569644
   26          1             0        2.486151    1.354837    1.803676
   27          7             0        3.156564    1.807466   -0.511224
   28          1             0        3.534709    2.436843    0.176093
   29          1             0        3.536208    1.850344   -1.441143
   30          6             0       -0.500933    1.636029    0.435224
   31          8             0       -0.620815    0.900883    1.427653
   32          7             0       -1.125059    1.340857   -0.723763
   33          1             0       -1.774587    0.558365   -0.748531
   34          1             0       -1.136269    1.999806   -1.480267
   35          7             0        0.241486    2.754558    0.465679
   36          1             0        0.420013    3.266963   -0.379027
   37          1             0        0.877710    2.909540    1.249339
   38          6             0       -3.433054   -1.070997    0.291758
   39          8             0       -2.762568   -1.005567   -0.744775
   40          7             0       -4.642792   -1.680353    0.301581
   41          1             0       -5.044444   -1.963844   -0.574357
   42          1             0       -5.241479   -1.654133    1.106692
   43          7             0       -2.975107   -0.604660    1.462938
   44          1             0       -3.547570   -0.621835    2.286851
   45          1             0       -2.085724   -0.095195    1.496887
   46          6             0        1.454926    2.796342    3.715383
   47          8             0        2.032332    2.944060    2.633038
   48          7             0        0.408825    1.962472    3.849240
   49          1             0        0.014482    1.526406    3.013393
   50          1             0       -0.104661    1.907565    4.709486
   51          7             0        1.865829    3.456829    4.819329
   52          1             0        1.442285    3.322188    5.718644
   53          1             0        2.674841    4.047851    4.750353
 --------------------------------------------------------------------
     1 basis functions        1 primitive gaussians
     1 alpha electrons        1 beta electrons

 Harmonic frequencies (cm**-1), IR intensities (km*mol⁻¹),
 Raman scattering activities (A**4/amu), Raman depolarization ratios,
 reduced masses (AMU), force constants (mDyne/A) and normal coordinates:
                      1                      2                      3
                        a                      a                      a 
 Frequencies --    16.4012                27.6351                28.9588
 Red. masses --    12.0923                11.5642                12.3845
 Frc consts  --     0.0000                 0.0000                 0.0000
 IR Inten    --     0.3069                 2.1442                 1.9935
 Raman Activ --     0.0000                 0.0000                 0.0000
 Depolar     --     0.0000                 0.0000                 0.0000
 Atom AN      X      Y      Z        X      Y      Z        X      Y      Z
   1   8     0.02  -0.31   0.07     0.21  -0.18  -0.21     0.58   0.03  -0.19
   2   6    -0.00  -0.19  -0.01     0.01  -0.02  -0.08     0.31   0.11   0.03
   3   1     0.00  -0.06   0.01     0.03   0.04  -0.01     0.12   0.06   0.06
   4   1    -0.01  -0.06  -0.03    -0.04  -0.01  -0.01     0.08   0.03   0.01
   5   6    -0.01  -0.04  -0.01    -0.10  -0.09  -0.08     0.06   0.08   0.01
   6   1    -0.00  -0.01  -0.01    -0.05  -0.07  -0.04     0.01   0.03  -0.04
   7   1    -0.01   0.00  -0.02    -0.07   0.00  -0.00     0.01   0.01   0.04
   8   7     0.02   0.03   0.12     0.05  -0.08  -0.12    -0.11   0.05   0.02
   9   6     0.01   0.16   0.08    -0.10  -0.13  -0.10    -0.10   0.05   0.02
  10   1    -0.00   0.06   0.00    -0.06  -0.01  -0.01    -0.01  -0.01   0.01
  11   1     0.01   0.06   0.05    -0.01  -0.04  -0.04    -0.06   0.01   0.01
  12   1    -0.00   0.05   0.01    -0.05  -0.07  -0.05    -0.01   0.04   0.00
  13   6     0.03   0.03   0.16     0.15   0.14  -0.04    -0.17  -0.12   0.04
  14   1     0.01  -0.02   0.06     0.08   0.05  -0.01    -0.06  -0.04   0.01
  15   1     0.01   0.03   0.07     0.07   0.04  -0.02    -0.08  -0.04   0.02
  16   1     0.00   0.02   0.03     0.01   0.07   0.01    -0.02  -0.06   0.01
  17   6     0.05  -0.02   0.20     0.22  -0.23  -0.22    -0.22   0.18  -0.00
  18   1     0.02  -0.04   0.06     0.09  -0.05  -0.07    -0.06   0.05  -0.00
  19   1     0.01  -0.00   0.04     0.04  -0.12  -0.07    -0.05   0.09  -0.00
  20   1     0.02   0.01   0.08     0.10  -0.07  -0.07    -0.10   0.04   0.00
  21   1     0.00  -0.08   0.01     0.03  -0.08  -0.08     0.13  -0.01  -0.11
  22   6     0.00   0.16  -0.14    -0.17   0.01   0.03    -0.01  -0.02  -0.04
  23   8    -0.00   0.16  -0.13    -0.25   0.06   0.01     0.05  -0.10   0.02
  24   7     0.15   0.14  -0.13    -0.09  -0.06   0.04     0.08   0.03  -0.03
  25   1     0.08   0.02  -0.02    -0.02  -0.02   0.01     0.06  -0.01   0.01
  26   1     0.03   0.04  -0.03    -0.02  -0.02   0.02     0.01   0.01  -0.02
  27   7    -0.16   0.23  -0.19    -0.22   0.04   0.06    -0.19   0.04  -0.14
  28   1    -0.03   0.07  -0.06    -0.05   0.00   0.02    -0.05   0.03  -0.05
  29   1    -0.07   0.07  -0.06    -0.07   0.02   0.01    -0.06   0.01  -0.04
  30   6     0.00  -0.00   0.01     0.03  -0.02   0.08    -0.06  -0.04   0.02
  31   8     0.02  -0.06  -0.03    -0.01   0.04   0.14    -0.02  -0.05   0.02
  32   7     0.03   0.03  -0.02     0.12  -0.13   0.07    -0.08  -0.05   0.03
  33   1     0.01   0.01  -0.01     0.04  -0.04   0.02    -0.02  -0.01   0.02
  34   1     0.01   0.02   0.00     0.04  -0.05   0.01    -0.04  -0.01   0.01
  35   7    -0.04   0.03   0.07    -0.01   0.01   0.06    -0.08  -0.02  -0.00
  36   1    -0.01   0.02   0.03     0.01  -0.02   0.01    -0.03  -0.01  -0.00
  37   1    -0.01   0.00   0.02    -0.00   0.01   0.02    -0.02  -0.00  -0.01
  38   6    -0.05   0.09  -0.08    -0.05   0.09   0.07    -0.05  -0.03   0.09
  39   8    -0.02   0.06  -0.07     0.00  -0.03   0.11    -0.08  -0.05   0.10
  40   7    -0.10   0.19  -0.13    -0.12   0.24   0.05    -0.06  -0.04   0.13
  41   1    -0.02   0.05  -0.04    -0.03   0.05   0.01    -0.02  -0.01   0.04
  42   1    -0.03   0.06  -0.04    -0.04   0.09   0.01    -0.01  -0.01   0.04
  43   7    -0.06   0.06  -0.07    -0.07   0.12   0.07    -0.04  -0.02   0.09
  44   1    -0.03   0.03  -0.03    -0.03   0.06   0.01    -0.01  -0.01   0.03
  45   1    -0.01   0.00  -0.01    -0.01   0.01   0.02    -0.01  -0.01   0.02
  46   6     0.02  -0.17   0.07     0.09   0.05   0.03     0.04  -0.01  -0.05
  47   8    -0.03  -0.02   0.07     0.08  -0.02   0.01    -0.01   0.03  -0.08
  48   7     0.07  -0.25   0.02     0.04   0.13   0.08     0.09  -0.06  -0.02
  49   1     0.02  -0.05  -0.00     0.00   0.03   0.03     0.02  -0.02  -0.00
  50   1     0.03  -0.10   0.01     0.02   0.05   0.03     0.03  -0.02   0.00
  51   7     0.04  -0.30   0.14     0.16   0.06   0.00     0.06  -0.00  -0.07
  52   1     0.02  -0.11   0.04     0.04   0.04   0.00     0.03  -0.01  -0.01
  53   1    -0.00  -0.06   0.04     0.05   0.01  -0.01     0.01   0.01  -0.03
                      4                      5                      6
                        a                      a                      a 
 Frequencies --    35.1902                38.9310                45.8686
 Red. masses --    12.2663                12.3631                12.1025
 Frc consts  --     0.0000                 0.0000                 0.0000
 IR Inten    --     1.4816                 0.5669                 0.7846
 Raman Activ --     0.0000                 0.0000                 0.0000
 Depolar     --     0.0000                 0.0000                 0.0000
 Atom AN      X      Y      Z        X      Y      Z        X      Y      Z
   1   8     0.13  -0.11  -0.07    -0.15   0.26   0.10     0.02  -0.26  -0.12
   2   6    -0.03   0.05  -0.02    -0.02   0.08   0.09    -0.02  -0.15  -0.14
   3   1     0.01   0.05   0.01    -0.02  -0.00   0.01     0.00  -0.04  -0.03
   4   1    -0.04   0.01  -0.01     0.02   0.03   0.05    -0.01  -0.05  -0.06
   5   6    -0.11   0.06  -0.02     0.04  -0.01   0.10    -0.05  -0.04  -0.14
   6   1    -0.04  -0.01  -0.02     0.01  -0.00   0.04    -0.01   0.01  -0.05
   7   1    -0.06   0.04  -0.00     0.02  -0.01   0.04    -0.01  -0.01  -0.05
   8   7    -0.02   0.11   0.01     0.04  -0.06   0.02    -0.12  -0.01  -0.06
   9   6    -0.08   0.13   0.00    -0.04  -0.15   0.04    -0.03   0.09  -0.08
  10   1    -0.04   0.06   0.00    -0.02  -0.04   0.04     0.01   0.02  -0.05
  11   1    -0.01   0.04   0.01    -0.01  -0.05  -0.00    -0.01   0.04  -0.01
  12   1    -0.03   0.02  -0.01    -0.02  -0.05   0.01     0.00   0.05  -0.02
  13   6     0.03   0.21   0.05     0.06   0.00   0.05    -0.17  -0.14  -0.08
  14   1     0.02   0.05   0.02     0.04   0.03   0.01    -0.07  -0.06  -0.02
  15   1     0.03   0.07   0.02     0.01  -0.01  -0.00    -0.06  -0.03  -0.01
  16   1    -0.01   0.08   0.01     0.01   0.00   0.04    -0.03  -0.05  -0.05
  17   6     0.07   0.00   0.00     0.07  -0.05  -0.09    -0.20   0.05   0.06
  18   1     0.03  -0.00   0.00     0.03   0.01  -0.03    -0.07  -0.01   0.02
  19   1     0.01  -0.02  -0.01     0.01  -0.03  -0.03    -0.05   0.05   0.02
  20   1     0.04   0.01   0.01     0.02  -0.03  -0.04    -0.08   0.02   0.04
  21   1     0.02  -0.06  -0.04    -0.02   0.08   0.06     0.00  -0.07  -0.06
  22   6     0.11   0.02  -0.01    -0.03  -0.05   0.04    -0.08   0.04   0.03
  23   8    -0.07   0.15  -0.07     0.03  -0.18   0.16    -0.11   0.12  -0.04
  24   7     0.05  -0.01  -0.01     0.22   0.00   0.07    -0.01  -0.09   0.03
  25   1    -0.05   0.04  -0.03     0.13  -0.04   0.06     0.01  -0.04  -0.00
  26   1     0.04  -0.01   0.00     0.03   0.01   0.01    -0.00  -0.04   0.03
  27   7     0.43  -0.10   0.07    -0.37   0.06  -0.13    -0.15   0.10   0.12
  28   1     0.14  -0.05   0.03    -0.10   0.04  -0.06    -0.03   0.01   0.04
  29   1     0.11  -0.03   0.02    -0.14   0.01  -0.05    -0.05   0.05   0.03
  30   6     0.05  -0.13  -0.07     0.06  -0.05  -0.03     0.12   0.03   0.03
  31   8     0.17  -0.23  -0.12     0.16  -0.14  -0.08     0.12   0.01   0.02
  32   7    -0.08  -0.06  -0.02     0.03  -0.01  -0.03     0.16   0.06   0.01
  33   1    -0.02  -0.01   0.00     0.01  -0.00  -0.01     0.04   0.02  -0.01
  34   1    -0.04  -0.00   0.01    -0.02   0.01   0.01     0.05   0.02   0.01
  35   7     0.08  -0.16  -0.08    -0.00  -0.02   0.00     0.10   0.05   0.09
  36   1    -0.01  -0.02  -0.01    -0.02   0.01   0.01     0.04   0.01   0.03
  37   1     0.02  -0.04  -0.02     0.01  -0.01  -0.01     0.03   0.00   0.02
  38   6    -0.07   0.03   0.12     0.02   0.05  -0.03     0.15  -0.01  -0.01
  39   8    -0.16  -0.00   0.09    -0.02   0.05  -0.06     0.04   0.17  -0.09
  40   7    -0.16   0.20   0.19    -0.09   0.29  -0.03     0.14   0.02   0.02
  41   1    -0.06   0.06   0.06    -0.04   0.10  -0.01     0.01   0.05   0.00
  42   1    -0.02   0.05   0.07    -0.01   0.06   0.01     0.06  -0.03   0.03
  43   7     0.07  -0.08   0.12     0.17  -0.15   0.00     0.33  -0.28   0.03
  44   1     0.03  -0.01   0.04     0.05  -0.02   0.00     0.10  -0.09   0.02
  45   1     0.03  -0.04   0.01     0.05  -0.05  -0.01     0.07  -0.05  -0.00
  46   6    -0.09  -0.02  -0.04    -0.03   0.01  -0.05    -0.04   0.05   0.08
  47   8    -0.04  -0.01  -0.01    -0.00   0.05  -0.03     0.08  -0.09   0.14
  48   7    -0.00  -0.15  -0.07     0.13  -0.20  -0.05    -0.06   0.07   0.07
  49   1     0.02  -0.05  -0.02     0.05  -0.06  -0.02     0.00   0.01   0.02
  50   1    -0.02  -0.04  -0.03     0.01  -0.04  -0.03    -0.05   0.06   0.00
  51   7    -0.28   0.10  -0.05    -0.25   0.20  -0.08    -0.19   0.21   0.05
  52   1    -0.07   0.00  -0.02    -0.05   0.02  -0.02    -0.06   0.06   0.01
  53   1    -0.08   0.04  -0.00    -0.08   0.07  -0.01    -0.03   0.03   0.02
                      7                      8                      9
                        a                      a                      a 
 Frequencies --    46.8286                50.2157                53.7500
 Red. masses --    12.2185                12.0971                12.5837
 Frc consts  --     0.0000                 0.0000                 0.0000
 IR Inten    --     2.0317                 4.4351                 0.4318
 Raman Activ --     0.0000                 0.0000                 0.0000
 Depolar     --     0.0000                 0.0000                 0.0000
 Atom AN      X      Y      Z        X      Y      Z        X      Y      Z
   1   8     0.14  -0.04   0.00     0.01  -0.00  -0.07     0.05  -0.05  -0.02
   2   6     0.02   0.03   0.09     0.01  -0.03  -0.03    -0.03   0.02   0.02
   3   1     0.02   0.04   0.04     0.00  -0.00  -0.01     0.00   0.03   0.01
   4   1    -0.01   0.01   0.04     0.00  -0.00   0.00    -0.03   0.01   0.01
   5   6    -0.08  -0.03   0.09     0.02  -0.09  -0.03    -0.08   0.01   0.02
   6   1    -0.03  -0.03   0.01     0.01  -0.02  -0.00    -0.03  -0.01  -0.00
   7   1    -0.04   0.00   0.04     0.01  -0.04  -0.00    -0.04   0.01   0.01
   8   7    -0.03  -0.04   0.06    -0.01  -0.14  -0.09    -0.03   0.02   0.02
   9   6    -0.13  -0.09   0.06     0.07  -0.18  -0.07    -0.09   0.01   0.01
  10   1    -0.05  -0.02   0.04     0.03  -0.06  -0.02    -0.04   0.01   0.01
  11   1    -0.04  -0.03   0.01     0.01  -0.06  -0.03    -0.02   0.00   0.00
  12   1    -0.05  -0.04   0.01     0.03  -0.04  -0.01    -0.03  -0.01  -0.01
  13   6     0.03   0.07   0.11    -0.05  -0.18  -0.16     0.02   0.10   0.05
  14   1     0.03   0.03   0.03    -0.03  -0.04  -0.05     0.02   0.03   0.02
  15   1     0.02   0.02   0.03    -0.02  -0.06  -0.06     0.01   0.03   0.02
  16   1    -0.01   0.04   0.05    -0.00  -0.06  -0.05    -0.01   0.04   0.02
  17   6     0.07  -0.11  -0.05    -0.07  -0.07  -0.08     0.05  -0.05  -0.03
  18   1     0.05  -0.02  -0.02    -0.04  -0.01  -0.02     0.03  -0.01  -0.01
  19   1     0.00  -0.06  -0.03    -0.01  -0.01  -0.00     0.00  -0.04  -0.01
  20   1     0.03  -0.03  -0.02    -0.03  -0.03  -0.04     0.03  -0.01  -0.01
  21   1     0.02  -0.03  -0.01     0.00   0.00  -0.02     0.00  -0.03  -0.02
  22   6    -0.09  -0.04   0.02     0.02   0.01  -0.11    -0.07  -0.03   0.06
  23   8    -0.16  -0.08   0.09     0.00  -0.10  -0.00    -0.10  -0.00   0.05
  24   7    -0.19   0.08   0.03    -0.10   0.25  -0.12     0.06  -0.11   0.08
  25   1    -0.09   0.06   0.01    -0.05   0.10  -0.02     0.04  -0.05   0.02
  26   1    -0.03   0.04  -0.01    -0.02   0.08  -0.06     0.01  -0.03   0.03
  27   7     0.08  -0.15  -0.04     0.17  -0.11  -0.29    -0.20   0.03   0.08
  28   1     0.03  -0.03  -0.02     0.06  -0.02  -0.10    -0.05   0.00   0.02
  29   1     0.03  -0.07  -0.01     0.06  -0.09  -0.07    -0.07   0.03   0.01
  30   6    -0.07   0.17  -0.07     0.04   0.07   0.02     0.09   0.08  -0.14
  31   8     0.01   0.12  -0.12     0.06   0.09   0.02     0.08   0.09  -0.17
  32   7    -0.13   0.24  -0.06     0.12  -0.00  -0.00     0.06   0.12  -0.14
  33   1    -0.02   0.05  -0.02     0.04  -0.01   0.00     0.00   0.04  -0.03
  34   1    -0.05   0.07  -0.01     0.02  -0.00  -0.00     0.02   0.04  -0.04
  35   7    -0.10   0.20  -0.04    -0.04   0.13   0.04     0.15   0.05  -0.14
  36   1    -0.05   0.08   0.00    -0.01   0.04   0.01     0.05   0.01  -0.03
  37   1    -0.02   0.05  -0.01    -0.03   0.05   0.02     0.04   0.00  -0.03
  38   6     0.08  -0.01  -0.03     0.08   0.08   0.11     0.04   0.06   0.08
  39   8    -0.08   0.21  -0.13     0.15  -0.03   0.15    -0.02   0.13   0.05
  40   7     0.08   0.01   0.03     0.07   0.12   0.12     0.26  -0.38   0.23
  41   1    -0.02   0.05   0.01     0.03   0.01   0.03     0.06  -0.11   0.07
  42   1     0.06  -0.04   0.04     0.01   0.06   0.02     0.06  -0.07   0.05
  43   7     0.31  -0.32   0.01     0.03   0.22   0.09    -0.08   0.41  -0.02
  44   1     0.10  -0.10   0.02    -0.00   0.08   0.02     0.01   0.05   0.02
  45   1     0.06  -0.04  -0.02     0.02   0.04   0.02    -0.02   0.10  -0.02
  46   6     0.04  -0.03  -0.02    -0.14  -0.00   0.13    -0.03  -0.11  -0.02
  47   8    -0.06   0.14  -0.05    -0.21   0.16   0.15     0.03  -0.09   0.02
  48   7     0.03  -0.03  -0.06    -0.02  -0.16   0.11     0.04  -0.23  -0.08
  49   1    -0.00   0.02  -0.02    -0.00  -0.02   0.02     0.02  -0.04  -0.04
  50   1     0.03  -0.05  -0.00    -0.01  -0.07   0.03    -0.02  -0.05  -0.04
  51   7     0.18  -0.26   0.06    -0.23  -0.00   0.17    -0.19  -0.06  -0.01
  52   1     0.05  -0.08   0.02    -0.04  -0.05   0.05    -0.05  -0.05  -0.00
  53   1     0.04  -0.05   0.02    -0.07   0.02   0.06    -0.05  -0.02   0.02
                     10                     11                     12
                        a                      a                      a 
 Frequencies --    56.4711                60.7701                69.3679
 Red. masses --    12.7581                11.9071                10.6014
 Frc consts  --     0.0000                 0.0000                 0.0000
 IR Inten    --     0.6151                 2.9048                 2.4709
 Raman Activ --     0.0000                 0.0000                 0.0000
 Depolar     --     0.0000                 0.0000                 0.0000
 Atom AN      X      Y      Z        X      Y      Z        X      Y      Z
   1   8     0.02  -0.09  -0.02    -0.01   0.02  -0.05     0.26  -0.10   0.11
   2   6    -0.01  -0.05  -0.02    -0.04   0.01   0.00    -0.12   0.24   0.23
   3   1     0.00  -0.01  -0.00    -0.01   0.00   0.01     0.02   0.20   0.07
   4   1    -0.01  -0.02  -0.01    -0.00   0.00   0.00    -0.15   0.08   0.11
   5   6    -0.01  -0.02  -0.02    -0.11   0.01   0.00    -0.19   0.02   0.23
   6   1    -0.00  -0.00  -0.01    -0.04  -0.01  -0.01    -0.07  -0.05   0.07
   7   1    -0.00  -0.00  -0.01    -0.04   0.01   0.01    -0.08   0.02   0.09
   8   7    -0.02  -0.01  -0.01    -0.09   0.03   0.02    -0.01  -0.05   0.07
   9   6    -0.01   0.00  -0.01    -0.23   0.02   0.02     0.20  -0.18   0.10
  10   1    -0.00   0.00  -0.01    -0.09   0.02   0.03     0.07  -0.06   0.01
  11   1    -0.00   0.00   0.00    -0.07   0.01   0.01     0.08  -0.07  -0.00
  12   1    -0.00   0.00  -0.00    -0.08  -0.01  -0.02     0.07  -0.06   0.08
  13   6    -0.02  -0.02  -0.01    -0.01   0.12   0.14    -0.04   0.05  -0.21
  14   1    -0.01  -0.01  -0.00     0.03   0.04   0.04    -0.06   0.04  -0.07
  15   1    -0.01  -0.00   0.00    -0.01   0.04   0.04     0.04   0.01  -0.09
  16   1    -0.00  -0.01  -0.01    -0.02   0.05   0.07    -0.02   0.02  -0.09
  17   6    -0.02  -0.01   0.01     0.02  -0.05  -0.09    -0.01  -0.07   0.13
  18   1    -0.01  -0.01   0.00     0.04  -0.01  -0.03    -0.03   0.00   0.04
  19   1    -0.01  -0.00   0.00    -0.01  -0.04  -0.05     0.00  -0.04   0.08
  20   1    -0.01  -0.00   0.01     0.01  -0.01  -0.02     0.03  -0.03   0.01
  21   1     0.00  -0.03  -0.01    -0.00   0.00  -0.02     0.02  -0.12   0.01
  22   6    -0.04  -0.00   0.05     0.07  -0.00  -0.08     0.00  -0.03  -0.12
  23   8    -0.08   0.05   0.01    -0.11  -0.09   0.08    -0.03   0.01  -0.18
  24   7    -0.17   0.00   0.04     0.25   0.18  -0.05     0.04  -0.10  -0.13
  25   1    -0.08   0.03  -0.00     0.08   0.06   0.03     0.02  -0.03  -0.04
  26   1    -0.03  -0.00   0.01     0.09   0.06  -0.03     0.02  -0.04  -0.02
  27   7     0.13  -0.06   0.12     0.11  -0.10  -0.34    -0.01  -0.01  -0.10
  28   1     0.03  -0.02   0.04     0.08  -0.02  -0.13     0.01  -0.02  -0.02
  29   1     0.05  -0.02   0.04    -0.01  -0.08  -0.11    -0.01   0.01  -0.03
  30   6    -0.08   0.05   0.10     0.07  -0.07   0.10    -0.01   0.05   0.04
  31   8    -0.04   0.01   0.09    -0.04  -0.03   0.14    -0.00  -0.01   0.01
  32   7    -0.11   0.09   0.12     0.14  -0.07   0.07    -0.11   0.18   0.07
  33   1    -0.01   0.01   0.02     0.01   0.00   0.01    -0.02   0.04   0.00
  34   1    -0.03   0.03   0.03     0.06  -0.02   0.02    -0.01   0.05   0.02
  35   7    -0.11   0.07   0.12     0.14  -0.12   0.11     0.06   0.00   0.08
  36   1    -0.05   0.03   0.03     0.05  -0.04   0.03     0.01   0.01   0.03
  37   1    -0.02   0.02   0.02     0.03  -0.03   0.04     0.03  -0.02   0.01
  38   6    -0.02  -0.02  -0.12    -0.06  -0.06  -0.11     0.02   0.02  -0.08
  39   8     0.02   0.00  -0.10    -0.15   0.13  -0.16     0.07   0.01  -0.06
  40   7     0.02  -0.11  -0.18     0.06  -0.32  -0.08     0.01   0.03  -0.14
  41   1     0.02  -0.03  -0.05     0.00  -0.05  -0.03     0.01   0.01  -0.04
  42   1    -0.01  -0.03  -0.06     0.01  -0.09  -0.02    -0.01   0.01  -0.05
  43   7    -0.12   0.04  -0.12    -0.09  -0.05  -0.11    -0.03   0.02  -0.07
  44   1    -0.04  -0.01  -0.04    -0.00  -0.08  -0.02    -0.02   0.01  -0.02
  45   1    -0.03   0.01  -0.01    -0.03  -0.01  -0.02    -0.01   0.00  -0.01
  46   6     0.16   0.02  -0.02     0.02   0.10   0.09    -0.02  -0.03   0.01
  47   8     0.09   0.13  -0.05     0.07   0.06   0.13     0.12  -0.22   0.05
  48   7     0.51  -0.39   0.11    -0.02   0.15   0.09    -0.10   0.07  -0.00
  49   1     0.11  -0.08   0.03     0.00   0.03   0.03    -0.01   0.00   0.00
  50   1     0.12  -0.08   0.02    -0.01   0.05   0.02    -0.05   0.06  -0.01
  51   7    -0.09   0.35  -0.11    -0.01   0.14   0.10    -0.11   0.11  -0.04
  52   1     0.05   0.01  -0.01    -0.02   0.05   0.02    -0.04   0.05  -0.02
  53   1    -0.04   0.11  -0.04     0.00   0.03   0.03    -0.00  -0.00  -0.00
                     13                     14                     15
                        a                      a                      a 
 Frequencies --    72.7297                86.0722                87.3370
 Red. masses --    12.6230                13.1190                12.6619
 Frc consts  --     0.0000                 0.0000                 0.0000
 IR Inten    --     1.3904                 3.1622                 5.3753
 Raman Activ --     0.0000                 0.0000                 0.0000
 Depolar     --     0.0000                 0.0000                 0.0000
 Atom AN      X      Y      Z        X      Y      Z        X      Y      Z
   1   8     0.05   0.01   0.03    -0.04   0.06  -0.03     0.01  -0.34  -0.07
   2   6    -0.09   0.12   0.09     0.09  -0.10  -0.03    -0.18  -0.01  -0.13
   3   1    -0.01   0.08   0.02     0.01  -0.07  -0.01    -0.02   0.07  -0.04
   4   1    -0.07   0.04   0.05     0.07  -0.03  -0.01    -0.13  -0.01  -0.05
   5   6    -0.12  -0.01   0.09     0.09  -0.07  -0.03    -0.11   0.03  -0.12
   6   1    -0.04  -0.02   0.03     0.03  -0.00  -0.01    -0.03  -0.00  -0.02
   7   1    -0.05   0.00   0.04     0.04  -0.03  -0.01    -0.04   0.02  -0.05
   8   7    -0.09  -0.05   0.01     0.00  -0.09  -0.02    -0.00   0.06  -0.11
   9   6     0.07  -0.12   0.02    -0.05  -0.07  -0.02     0.09   0.09  -0.11
  10   1     0.02  -0.03  -0.01    -0.02  -0.02   0.00     0.03   0.03  -0.05
  11   1     0.04  -0.04  -0.01    -0.02  -0.02  -0.00     0.04   0.03  -0.03
  12   1     0.03  -0.04   0.04    -0.02  -0.02  -0.02     0.03   0.02  -0.01
  13   6    -0.14  -0.07  -0.17    -0.00  -0.14   0.05    -0.01   0.10  -0.21
  14   1    -0.08  -0.01  -0.05     0.01  -0.04   0.02    -0.02   0.04  -0.07
  15   1    -0.03  -0.03  -0.07    -0.02  -0.04   0.02     0.01   0.02  -0.07
  16   1    -0.03  -0.03  -0.06     0.01  -0.05   0.02    -0.01   0.03  -0.06
  17   6    -0.15   0.01   0.06    -0.02  -0.04  -0.07     0.01   0.00   0.02
  18   1    -0.07   0.01   0.02     0.00  -0.01  -0.02    -0.01  -0.03   0.01
  19   1    -0.03   0.01   0.04    -0.01  -0.00  -0.03     0.00  -0.00   0.01
  20   1    -0.04  -0.01   0.01    -0.02  -0.01  -0.02     0.02   0.01   0.02
  21   1    -0.01  -0.03   0.00     0.01   0.05  -0.00    -0.03  -0.14  -0.03
  22   6    -0.06   0.16   0.16    -0.04   0.05   0.01     0.18  -0.11   0.16
  23   8    -0.24   0.23   0.20    -0.20   0.12   0.00     0.30  -0.27   0.31
  24   7     0.07   0.16   0.19     0.09   0.00   0.02     0.28   0.02   0.20
  25   1    -0.01   0.07   0.06    -0.01   0.03   0.00     0.12  -0.02   0.08
  26   1     0.04   0.05   0.04     0.05  -0.00   0.01     0.04   0.03   0.03
  27   7     0.03   0.11   0.13     0.04   0.02   0.01    -0.03  -0.07   0.01
  28   1     0.03   0.02   0.03     0.03  -0.00  -0.00    -0.02   0.02  -0.02
  29   1    -0.02   0.03   0.02    -0.02   0.01  -0.01    -0.02  -0.03  -0.00
  30   6     0.11  -0.12  -0.09    -0.01  -0.06   0.07    -0.08   0.05   0.03
  31   8     0.10  -0.10  -0.08     0.37  -0.39  -0.11     0.02  -0.02  -0.01
  32   7     0.17  -0.20  -0.11    -0.34   0.23   0.18    -0.16   0.11   0.06
  33   1     0.04  -0.04  -0.02    -0.04   0.02   0.02    -0.03   0.02   0.01
  34   1     0.05  -0.06  -0.03    -0.13   0.10   0.08    -0.07   0.05   0.03
  35   7     0.10  -0.12  -0.13    -0.12   0.01   0.20    -0.12   0.07   0.06
  36   1     0.03  -0.04  -0.04    -0.12   0.08   0.08    -0.06   0.04   0.02
  37   1     0.01  -0.00  -0.02     0.01  -0.02   0.03    -0.02   0.01   0.01
  38   6    -0.00  -0.05  -0.09     0.04   0.04  -0.03    -0.02   0.02  -0.00
  39   8     0.01  -0.16  -0.10     0.06  -0.04  -0.03    -0.03   0.01  -0.01
  40   7    -0.02  -0.02  -0.06     0.08  -0.04   0.02    -0.02   0.01   0.01
  41   1    -0.01  -0.02  -0.01     0.02  -0.02   0.01    -0.01   0.00   0.01
  42   1    -0.01   0.02  -0.02     0.01   0.03  -0.01    -0.00   0.01   0.00
  43   7    -0.00   0.02  -0.12    -0.03   0.25  -0.10    -0.02   0.05  -0.01
  44   1    -0.00   0.02  -0.03     0.01   0.04  -0.01    -0.00   0.01  -0.00
  45   1     0.01  -0.01  -0.03     0.02   0.01  -0.02    -0.00   0.00  -0.00
  46   6     0.04   0.07  -0.01     0.01   0.05  -0.02    -0.02   0.05  -0.01
  47   8    -0.05   0.31  -0.03     0.10   0.02   0.02    -0.08   0.15  -0.03
  48   7     0.09   0.01  -0.08    -0.12   0.21  -0.12    -0.02   0.05  -0.03
  49   1     0.03   0.01  -0.02     0.02   0.00  -0.03    -0.00   0.01  -0.01
  50   1     0.06  -0.06  -0.01    -0.02   0.02  -0.03     0.02  -0.02   0.00
  51   7     0.14  -0.15   0.08     0.04  -0.05   0.03     0.05  -0.06   0.03
  52   1     0.03  -0.05   0.02    -0.04   0.03  -0.01     0.01  -0.01   0.00
  53   1     0.01   0.00   0.03     0.00  -0.00   0.02    -0.00   0.00   0.00
                     16                     17                     18
                        a                      a                      a 
 Frequencies --    99.0266               118.8300               121.3278
 Red. masses --    13.1994                13.4833                12.9941
 Frc consts  --     0.0000                 0.0000                 0.0000
 IR Inten    --    17.2146                16.2028                 0.1490
 Raman Activ --     0.0000                 0.0000                 0.0000
 Depolar     --     0.0000                 0.0000                 0.0000
 Atom AN      X      Y      Z        X      Y      Z        X      Y      Z
   1   8     0.02  -0.02   0.05    -0.02  -0.01  -0.04    -0.01   0.07  -0.03
   2   6    -0.05   0.08   0.04    -0.06   0.03  -0.02    -0.01   0.01   0.04
   3   1    -0.01   0.05   0.01    -0.01   0.01   0.01    -0.00  -0.00   0.02
   4   1    -0.04   0.02   0.01    -0.02   0.00  -0.02     0.01   0.01   0.02
   5   6    -0.06   0.08   0.04    -0.11   0.09  -0.03    -0.07  -0.03   0.03
   6   1    -0.02   0.01   0.01    -0.04   0.02  -0.02    -0.03  -0.02  -0.00
   7   1    -0.03   0.03   0.01    -0.04   0.04  -0.01    -0.03  -0.00   0.02
   8   7    -0.01   0.10   0.05    -0.10   0.15   0.05    -0.08  -0.04   0.02
   9   6     0.02   0.10   0.05    -0.17   0.17   0.04    -0.10  -0.05   0.02
  10   1     0.01   0.02   0.01    -0.06   0.05   0.02    -0.04  -0.01   0.01
  11   1     0.01   0.03   0.01    -0.05   0.05   0.02    -0.02  -0.01   0.01
  12   1     0.01   0.03   0.02    -0.06   0.04  -0.01    -0.03  -0.02   0.00
  13   6    -0.00   0.13   0.02    -0.05   0.19   0.14    -0.05  -0.01   0.05
  14   1    -0.01   0.04   0.01     0.01   0.05   0.04    -0.01  -0.01   0.02
  15   1     0.01   0.04   0.00    -0.02   0.06   0.05    -0.01  -0.00   0.02
  16   1    -0.01   0.04   0.00    -0.03   0.07   0.05    -0.02   0.00   0.02
  17   6     0.01   0.06   0.09    -0.04   0.09   0.04    -0.05  -0.05  -0.03
  18   1    -0.00   0.01   0.03     0.00   0.02   0.01    -0.01   0.00  -0.01
  19   1     0.00   0.01   0.03    -0.02   0.02  -0.00    -0.02  -0.02  -0.00
  20   1     0.01   0.02   0.03    -0.01   0.03   0.02    -0.01  -0.02  -0.02
  21   1    -0.01  -0.02   0.01    -0.01  -0.01  -0.02     0.00   0.03  -0.02
  22   6    -0.07  -0.10  -0.05    -0.07  -0.09  -0.00     0.13   0.03   0.03
  23   8     0.17  -0.18  -0.08    -0.12  -0.13   0.05    -0.12   0.17  -0.01
  24   7    -0.35  -0.04  -0.08    -0.06  -0.03   0.00     0.40  -0.11   0.06
  25   1    -0.11  -0.01  -0.04    -0.01  -0.00   0.01     0.10  -0.03   0.01
  26   1    -0.10  -0.01  -0.03    -0.01  -0.00  -0.01     0.09  -0.03   0.02
  27   7    -0.09  -0.08   0.00    -0.07  -0.13  -0.09     0.21   0.01   0.08
  28   1    -0.07  -0.01   0.01    -0.00  -0.03  -0.04     0.09  -0.02   0.02
  29   1     0.03  -0.03   0.02    -0.02  -0.06  -0.03    -0.00   0.03  -0.00
  30   6     0.11  -0.13   0.03     0.04   0.04  -0.02    -0.05   0.08   0.05
  31   8     0.30  -0.29  -0.05     0.08   0.04  -0.02    -0.07   0.08   0.04
  32   7     0.33  -0.25  -0.06    -0.05   0.07   0.02     0.27  -0.12  -0.08
  33   1     0.07  -0.06  -0.01     0.03  -0.01   0.00     0.07  -0.03  -0.02
  34   1     0.01  -0.02   0.03     0.00  -0.00  -0.01     0.04  -0.02  -0.01
  35   7    -0.26   0.11   0.19     0.08   0.02  -0.05    -0.39   0.31   0.20
  36   1    -0.09   0.05   0.06     0.01   0.01  -0.01    -0.08   0.06   0.05
  37   1    -0.06   0.03   0.04     0.02   0.01  -0.01    -0.08   0.06   0.04
  38   6     0.01   0.05  -0.06     0.20  -0.15  -0.02     0.06   0.00   0.01
  39   8    -0.06   0.10  -0.11     0.46  -0.51   0.11     0.12  -0.01   0.05
  40   7     0.07  -0.07   0.03     0.08   0.13  -0.17     0.06   0.01  -0.05
  41   1     0.00  -0.00   0.01     0.08  -0.05  -0.05     0.03   0.00  -0.02
  42   1     0.02  -0.00   0.01    -0.01   0.05  -0.07     0.01   0.00  -0.02
  43   7     0.03   0.14  -0.10     0.07  -0.00  -0.03     0.01  -0.00   0.03
  44   1     0.04  -0.01  -0.01    -0.03   0.09  -0.04    -0.01   0.01   0.00
  45   1     0.03   0.00  -0.02     0.03  -0.01   0.00     0.00   0.00   0.01
  46   6    -0.01   0.04  -0.01    -0.01  -0.01   0.01    -0.07  -0.08  -0.12
  47   8    -0.09   0.06  -0.05    -0.01  -0.01   0.02    -0.12  -0.17  -0.17
  48   7    -0.03   0.07   0.03    -0.01  -0.00   0.01    -0.07  -0.06  -0.03
  49   1     0.01  -0.01   0.02    -0.00  -0.00   0.00    -0.03  -0.01  -0.00
  50   1     0.02  -0.01   0.02    -0.00  -0.00   0.00    -0.02   0.01  -0.00
  51   7     0.07   0.01  -0.03    -0.02  -0.00   0.02    -0.00  -0.01  -0.20
  52   1     0.02   0.02  -0.00    -0.00  -0.01   0.01     0.02   0.01  -0.04
  53   1     0.01   0.02  -0.02    -0.00  -0.00   0.01     0.00  -0.01  -0.08
                     19                     20                     21
                        a                      a                      a 
 Frequencies --   130.3159               140.9617               151.9554
 Red. masses --    12.7201                13.7329                12.5343
 Frc consts  --     0.0000                 0.0000                 0.0000
 IR Inten    --    23.5309                 6.3592                24.1631
 Raman Activ --     0.0000                 0.0000                 0.0000
 Depolar     --     0.0000                 0.0000                 0.0000
 Atom AN      X      Y      Z        X      Y      Z        X      Y      Z
   1   8    -0.01  -0.02  -0.01     0.00  -0.01   0.02     0.01   0.03  -0.09
   2   6    -0.00  -0.00  -0.02     0.00   0.00  -0.00    -0.06   0.00   0.06
   3   1    -0.00  -0.00  -0.00     0.00   0.00  -0.00    -0.01   0.01   0.04
   4   1    -0.00  -0.00  -0.01    -0.00  -0.00  -0.01    -0.01   0.01   0.04
   5   6     0.00   0.01  -0.02     0.01   0.03  -0.00    -0.18  -0.09   0.06
   6   1     0.00   0.00  -0.00     0.01   0.01  -0.00    -0.06  -0.04   0.00
   7   1    -0.00   0.00  -0.01     0.01   0.01  -0.00    -0.07  -0.02   0.04
   8   7     0.01   0.02  -0.01     0.02   0.03   0.01    -0.17  -0.12   0.01
   9   6     0.03   0.03  -0.01     0.04   0.03   0.01    -0.27  -0.13   0.01
  10   1     0.02  -0.00  -0.01     0.02   0.00  -0.00    -0.08  -0.04   0.03
  11   1    -0.00   0.01  -0.00     0.01   0.01   0.00    -0.09  -0.04   0.01
  12   1     0.02   0.02  -0.00     0.02   0.02   0.01    -0.08  -0.03  -0.01
  13   6     0.01   0.02  -0.03     0.01   0.02  -0.01    -0.09  -0.00   0.12
  14   1    -0.00  -0.00  -0.01    -0.00   0.00  -0.00     0.01   0.00   0.03
  15   1     0.01   0.01  -0.00     0.01   0.01   0.00    -0.02   0.00   0.04
  16   1     0.00   0.01  -0.02     0.00   0.01  -0.01    -0.05   0.01   0.05
  17   6     0.01   0.02   0.02     0.01   0.03   0.03    -0.06  -0.18  -0.13
  18   1    -0.01   0.01   0.01    -0.00   0.01   0.01     0.01  -0.02  -0.04
  19   1     0.01  -0.00   0.02     0.00   0.01   0.01    -0.03  -0.09  -0.04
  20   1     0.01   0.00   0.00     0.00   0.01   0.01     0.00  -0.06  -0.06
  21   1     0.00   0.00  -0.02     0.00  -0.00  -0.00     0.00   0.01  -0.06
  22   6    -0.06  -0.00   0.02    -0.05  -0.03  -0.00     0.17   0.06  -0.06
  23   8    -0.05  -0.05   0.07    -0.16   0.00  -0.00     0.52   0.07  -0.19
  24   7    -0.12   0.08   0.02     0.04  -0.06   0.01    -0.04  -0.06  -0.09
  25   1    -0.04   0.03   0.02    -0.00  -0.00   0.00     0.01  -0.05  -0.06
  26   1     0.00   0.03  -0.00     0.01  -0.01  -0.00    -0.05  -0.03  -0.01
  27   7    -0.03  -0.04  -0.03    -0.02  -0.06  -0.02     0.02   0.23   0.18
  28   1    -0.01  -0.00  -0.01    -0.00  -0.01  -0.01    -0.07   0.06   0.09
  29   1     0.00  -0.03  -0.00    -0.04  -0.01  -0.02     0.06   0.12   0.07
  30   6     0.03  -0.03   0.05    -0.05  -0.14   0.09     0.04  -0.01   0.03
  31   8    -0.08  -0.11  -0.01    -0.07  -0.05   0.21     0.02  -0.04   0.01
  32   7     0.15   0.02  -0.01    -0.19  -0.13   0.20    -0.03   0.07   0.05
  33   1     0.03   0.01  -0.01    -0.04  -0.05   0.04    -0.01   0.02   0.01
  34   1     0.05   0.02   0.01     0.01  -0.07   0.02     0.00   0.02   0.01
  35   7     0.02  -0.02   0.18     0.12  -0.28  -0.07     0.12  -0.07   0.02
  36   1     0.01   0.00   0.05     0.01  -0.08  -0.03     0.02  -0.01   0.01
  37   1     0.01  -0.01   0.04     0.02  -0.04  -0.01     0.02  -0.01   0.01
  38   6    -0.01   0.02   0.11     0.17   0.18   0.00     0.04  -0.00   0.01
  39   8     0.18   0.24   0.27     0.19   0.38   0.00     0.11   0.01   0.05
  40   7     0.02  -0.05  -0.23     0.25   0.05  -0.12     0.05  -0.01  -0.09
  41   1     0.06   0.02  -0.10     0.08   0.06  -0.05     0.03   0.01  -0.03
  42   1    -0.04  -0.07  -0.09     0.05  -0.01  -0.05    -0.00  -0.00  -0.04
  43   7    -0.23  -0.16   0.28     0.11   0.11   0.05    -0.02  -0.02   0.04
  44   1    -0.09  -0.07   0.05     0.03  -0.02   0.01    -0.02  -0.00   0.00
  45   1    -0.07  -0.03   0.10     0.03   0.04   0.03    -0.01  -0.00   0.02
  46   6     0.04   0.01  -0.15    -0.14  -0.01  -0.09    -0.03   0.08  -0.00
  47   8     0.27   0.14  -0.04    -0.37   0.07  -0.21    -0.12   0.23  -0.02
  48   7     0.01   0.02  -0.44    -0.06  -0.08   0.07     0.02   0.01  -0.02
  49   1     0.03   0.00  -0.13    -0.04  -0.02   0.03     0.01   0.00  -0.01
  50   1    -0.02  -0.03  -0.13     0.03  -0.05   0.05     0.03  -0.04   0.01
  51   7    -0.16  -0.14  -0.00     0.09  -0.06  -0.15     0.01  -0.04   0.05
  52   1    -0.11  -0.05  -0.03     0.05   0.01  -0.03     0.00  -0.02   0.01
  53   1    -0.05  -0.02   0.06    -0.01   0.02  -0.09    -0.02   0.02   0.01
                     22                     23                     24
                        a                      a                      a 
 Frequencies --   168.3313               173.4798               186.1810
 Red. masses --    12.9805                13.1204                 8.8297
 Frc consts  --     0.0000                 0.0000                 0.0000
 IR Inten    --     4.4867                 6.6590                 2.4891
 Raman Activ --     0.0000                 0.0000                 0.0000
 Depolar     --     0.0000                 0.0000                 0.0000
 Atom AN      X      Y      Z        X      Y      Z        X      Y      Z
   1   8    -0.01   0.03  -0.05    -0.00  -0.02  -0.01     0.04  -0.32   0.38
   2   6    -0.00  -0.01   0.00    -0.05   0.02   0.01    -0.09   0.11   0.03
   3   1    -0.00  -0.01   0.01    -0.01   0.02   0.00    -0.01   0.12  -0.05
   4   1     0.01  -0.00   0.00    -0.03   0.01   0.01    -0.15   0.02  -0.01
   5   6    -0.05  -0.02  -0.00    -0.05  -0.00   0.01     0.24   0.14   0.04
   6   1    -0.02  -0.01  -0.01    -0.02  -0.00   0.00     0.11   0.11   0.07
   7   1    -0.02   0.00   0.01    -0.01  -0.00   0.01     0.14  -0.02  -0.02
   8   7    -0.02  -0.01   0.01    -0.07  -0.01  -0.00     0.01   0.04  -0.09
   9   6     0.01   0.00   0.00    -0.09  -0.03   0.00    -0.18  -0.13  -0.05
  10   1     0.01  -0.01  -0.00    -0.03  -0.00   0.01    -0.09  -0.02   0.04
  11   1    -0.01   0.00   0.00    -0.02  -0.01  -0.00    -0.04  -0.05  -0.04
  12   1     0.01   0.02   0.00    -0.03  -0.02  -0.00    -0.08  -0.08  -0.03
  13   6    -0.01   0.00  -0.01    -0.04   0.02   0.04    -0.00  -0.05   0.03
  14   1    -0.01  -0.01   0.00     0.00   0.03   0.00     0.06   0.12  -0.03
  15   1     0.01   0.01   0.01    -0.02  -0.01  -0.00    -0.09  -0.11  -0.09
  16   1    -0.01   0.01  -0.02    -0.02   0.00   0.04     0.03  -0.07   0.16
  17   6     0.00  -0.03   0.02    -0.04  -0.02  -0.05    -0.05   0.16  -0.30
  18   1    -0.02   0.01   0.00     0.01  -0.01  -0.01     0.12  -0.05  -0.07
  19   1     0.00  -0.03   0.03    -0.02  -0.01  -0.03    -0.03   0.13  -0.25
  20   1     0.02  -0.02  -0.01    -0.02  -0.01  -0.01    -0.14   0.08   0.02
  21   1     0.00   0.02  -0.03    -0.01  -0.02  -0.01    -0.03  -0.18   0.17
  22   6     0.01   0.01   0.02     0.05   0.12   0.07    -0.00   0.05  -0.00
  23   8    -0.01   0.01   0.04     0.18   0.01   0.16     0.00   0.05   0.00
  24   7     0.06   0.02   0.03    -0.14   0.30   0.04    -0.03   0.06  -0.01
  25   1     0.00   0.01   0.00    -0.01   0.06   0.02    -0.02   0.02  -0.01
  26   1     0.00   0.01   0.00    -0.03   0.09   0.01    -0.01   0.02  -0.00
  27   7     0.00   0.01  -0.02     0.04   0.12  -0.02     0.02   0.05   0.00
  28   1     0.01   0.00  -0.01     0.01   0.03  -0.01     0.01   0.01   0.00
  29   1    -0.01  -0.00  -0.01     0.07  -0.02   0.02     0.02   0.01   0.00
  30   6    -0.06  -0.09  -0.24    -0.18  -0.12  -0.04     0.05   0.01  -0.01
  31   8     0.06  -0.19  -0.34    -0.19  -0.02   0.05     0.07  -0.02  -0.04
  32   7    -0.08  -0.00  -0.28    -0.16  -0.26  -0.00     0.05   0.03  -0.02
  33   1    -0.03  -0.00  -0.07    -0.03  -0.09  -0.00     0.00   0.02   0.00
  34   1    -0.07   0.04  -0.04    -0.01  -0.10  -0.03     0.00   0.02   0.00
  35   7    -0.16  -0.02  -0.18    -0.24  -0.09  -0.10     0.03   0.02   0.00
  36   1    -0.04   0.01  -0.04    -0.03  -0.06  -0.04     0.01   0.00  -0.00
  37   1    -0.05  -0.02  -0.05    -0.05  -0.02  -0.04     0.01   0.00  -0.00
  38   6     0.00   0.04   0.08     0.14   0.09  -0.02    -0.02  -0.02   0.03
  39   8     0.15   0.22   0.20     0.10   0.06  -0.08     0.03   0.01   0.06
  40   7     0.04  -0.04  -0.21     0.17   0.09   0.05    -0.02  -0.02  -0.05
  41   1     0.06   0.02  -0.09     0.03   0.02   0.02     0.01  -0.01  -0.02
  42   1    -0.03  -0.06  -0.08     0.06   0.03   0.02    -0.01  -0.02  -0.02
  43   7    -0.16  -0.09   0.20     0.19   0.15  -0.07    -0.06  -0.04   0.06
  44   1    -0.06  -0.05   0.04     0.06   0.03  -0.02    -0.02  -0.01   0.01
  45   1    -0.04  -0.02   0.06     0.06   0.04  -0.02    -0.02  -0.01   0.02
  46   6     0.07   0.03   0.18     0.11  -0.10  -0.00    -0.02  -0.03  -0.01
  47   8    -0.04  -0.12   0.14     0.35  -0.29   0.09    -0.06  -0.09  -0.04
  48   7     0.05   0.05   0.35     0.01   0.01  -0.11    -0.03  -0.02   0.05
  49   1     0.01   0.01   0.11     0.01   0.00  -0.03    -0.01  -0.01   0.02
  50   1     0.01   0.05   0.09    -0.05   0.06  -0.06    -0.00   0.00   0.02
  51   7     0.16   0.18   0.08    -0.09   0.02  -0.00     0.04   0.02  -0.07
  52   1     0.09   0.06   0.04    -0.05   0.00  -0.01     0.02   0.02  -0.01
  53   1     0.06   0.02  -0.01     0.02  -0.06   0.04     0.01   0.00  -0.04
                     25                     26                     27
                        a                      a                      a 
 Frequencies --   195.4180               214.5035               220.6726
 Red. masses --    12.8475                 5.4311                 9.4835
 Frc consts  --     0.0000                 0.0000                 0.0000
 IR Inten    --    11.1611               131.6963               122.0899
 Raman Activ --     0.0000                 0.0000                 0.0000
 Depolar     --     0.0000                 0.0000                 0.0000
 Atom AN      X      Y      Z        X      Y      Z        X      Y      Z
   1   8     0.01  -0.06   0.12     0.00   0.00  -0.00    -0.00  -0.00   0.01
   2   6    -0.00   0.03   0.01    -0.00   0.00  -0.00     0.00  -0.00   0.00
   3   1     0.00   0.02  -0.01    -0.00   0.00  -0.00     0.00  -0.00   0.00
   4   1    -0.03   0.01  -0.00    -0.00   0.00   0.00     0.00  -0.00  -0.00
   5   6     0.08   0.05   0.01     0.00  -0.00  -0.00    -0.01   0.00   0.00
   6   1     0.03   0.03   0.01     0.00  -0.00   0.00    -0.00   0.00  -0.00
   7   1     0.04   0.00  -0.01     0.00  -0.00  -0.00    -0.00  -0.00   0.00
   8   7     0.03   0.04  -0.01     0.01  -0.00  -0.00    -0.01   0.00   0.00
   9   6    -0.02  -0.01   0.00     0.00   0.00  -0.00    -0.00  -0.01   0.01
  10   1    -0.01  -0.00   0.01     0.00  -0.00   0.00    -0.01   0.01  -0.00
  11   1    -0.00  -0.01  -0.01    -0.01   0.00   0.00     0.02  -0.00  -0.00
  12   1    -0.01  -0.01  -0.00     0.00   0.01  -0.00    -0.01  -0.02   0.01
  13   6     0.02   0.00   0.01     0.01  -0.00  -0.00    -0.01   0.00   0.00
  14   1     0.01   0.02  -0.00     0.00  -0.00  -0.00    -0.00   0.00  -0.00
  15   1    -0.01  -0.02  -0.01     0.00  -0.00  -0.00    -0.00  -0.00  -0.00
  16   1     0.01  -0.01   0.03     0.00  -0.00  -0.00    -0.00   0.00   0.00
  17   6     0.00   0.07  -0.04     0.00  -0.00   0.00    -0.01   0.00  -0.00
  18   1     0.03  -0.01  -0.01     0.00  -0.00   0.00     0.00  -0.00  -0.00
  19   1    -0.00   0.04  -0.05     0.00   0.00   0.00    -0.00   0.00  -0.01
  20   1    -0.03   0.03   0.02     0.00   0.00   0.00    -0.01   0.00   0.00
  21   1    -0.01  -0.04   0.05    -0.00  -0.01   0.01     0.00   0.01  -0.02
  22   6     0.01  -0.14  -0.10    -0.00   0.01   0.00     0.01  -0.03  -0.02
  23   8    -0.12  -0.00  -0.24    -0.00  -0.00   0.02    -0.00  -0.00  -0.05
  24   7     0.18  -0.36  -0.08    -0.04   0.04  -0.00     0.04  -0.06  -0.02
  25   1     0.06  -0.11  -0.02     0.01  -0.00   0.00     0.03  -0.03  -0.00
  26   1     0.06  -0.11  -0.00     0.01   0.00   0.01    -0.01  -0.02  -0.00
  27   7    -0.00  -0.11   0.05    -0.00   0.01  -0.02     0.00  -0.01   0.01
  28   1    -0.01  -0.04   0.03     0.01  -0.01  -0.00     0.01  -0.02   0.01
  29   1    -0.06   0.03  -0.01     0.01  -0.01  -0.00     0.00   0.00   0.01
  30   6    -0.18  -0.06  -0.06    -0.07  -0.03  -0.03     0.06   0.07   0.01
  31   8    -0.25  -0.01  -0.03    -0.30  -0.11  -0.11     0.36   0.23   0.15
  32   7    -0.06  -0.15  -0.11     0.08   0.15  -0.16    -0.12  -0.24   0.20
  33   1    -0.02  -0.04  -0.03    -0.00   0.06  -0.08     0.00  -0.10   0.11
  34   1    -0.01  -0.05  -0.04     0.06   0.06  -0.02    -0.08  -0.11   0.01
  35   7    -0.20  -0.06  -0.02     0.03  -0.11   0.21    -0.10   0.22  -0.35
  36   1    -0.05  -0.00   0.00     0.07  -0.03   0.07    -0.06   0.01  -0.13
  37   1    -0.06  -0.00   0.00     0.00  -0.08   0.07    -0.00   0.10  -0.12
  38   6     0.07   0.05  -0.00     0.04   0.01   0.01    -0.05  -0.01  -0.01
  39   8     0.04   0.02  -0.04     0.02  -0.06  -0.01    -0.03   0.08   0.01
  40   7     0.08   0.05   0.05     0.03   0.04   0.10    -0.03  -0.04  -0.13
  41   1     0.01   0.00   0.02    -0.01  -0.00   0.04     0.02  -0.01  -0.05
  42   1     0.03   0.01   0.02     0.02   0.03   0.03    -0.02  -0.06  -0.04
  43   7     0.10   0.07  -0.03     0.07   0.04  -0.02    -0.09  -0.06   0.03
  44   1     0.03   0.02  -0.01     0.02   0.03  -0.01    -0.03  -0.03   0.01
  45   1     0.03   0.03  -0.01     0.02   0.02  -0.02    -0.03  -0.02   0.03
  46   6     0.08   0.16   0.09    -0.02   0.04   0.00    -0.00   0.01   0.03
  47   8     0.12   0.37   0.16    -0.01  -0.02  -0.00     0.09  -0.02   0.08
  48   7     0.12   0.08  -0.08     0.04  -0.02   0.04     0.01  -0.01  -0.03
  49   1     0.03   0.05  -0.03     0.04  -0.08   0.04     0.05  -0.04  -0.01
  50   1     0.01  -0.01  -0.03     0.11  -0.14   0.06     0.05  -0.09   0.01
  51   7    -0.10  -0.01   0.29     0.20  -0.15   0.00     0.02  -0.17   0.13
  52   1    -0.03  -0.10   0.06    -0.36   0.51  -0.12    -0.31   0.31  -0.06
  53   1    -0.02   0.00   0.15    -0.23   0.33  -0.11    -0.18   0.20   0.01
                     28                     29                     30
                        a                      a                      a 
 Frequencies --   259.9783               283.0984               295.2875
 Red. masses --     6.2863                 2.3578                 7.7337
 Frc consts  --     0.0000                 0.0000                 0.0000
 IR Inten    --     7.4953               137.8068                10.4041
 Raman Activ --     0.0000                 0.0000                 0.0000
 Depolar     --     0.0000                 0.0000                 0.0000
 Atom AN      X      Y      Z        X      Y      Z        X      Y      Z
   1   8    -0.02  -0.17   0.35     0.00  -0.00   0.02    -0.08  -0.12  -0.27
   2   6     0.18  -0.20   0.08     0.01   0.01  -0.01    -0.09  -0.21  -0.03
   3   1     0.03  -0.16   0.08     0.00   0.00  -0.01    -0.03  -0.09   0.02
   4   1     0.14  -0.09  -0.08    -0.00   0.00  -0.00     0.02  -0.07  -0.02
   5   6    -0.00   0.12   0.04     0.02   0.01  -0.01    -0.04  -0.00   0.03
   6   1    -0.02   0.03  -0.04     0.01   0.01  -0.00    -0.01   0.00   0.02
   7   1    -0.02   0.04   0.04     0.01   0.00  -0.00    -0.01   0.02  -0.04
   8   7    -0.06   0.09  -0.06    -0.00   0.01  -0.00     0.05   0.08   0.13
   9   6    -0.07  -0.16  -0.01    -0.02   0.01  -0.00     0.19  -0.33   0.21
  10   1     0.07  -0.17   0.06    -0.01   0.01   0.00     0.02  -0.06   0.08
  11   1    -0.18  -0.10  -0.05     0.00   0.00  -0.00     0.14  -0.14  -0.03
  12   1     0.03   0.07  -0.01    -0.01  -0.01  -0.00     0.04  -0.18   0.15
  13   6    -0.03   0.20  -0.16    -0.00   0.01   0.00     0.10   0.18   0.13
  14   1    -0.11  -0.21   0.03    -0.00   0.00   0.00     0.11   0.22  -0.01
  15   1     0.15   0.24   0.14    -0.00   0.00   0.00    -0.03  -0.06  -0.09
  16   1    -0.05   0.16  -0.32    -0.00   0.00   0.00     0.02   0.02   0.22
  17   6    -0.05   0.12  -0.20    -0.00   0.01   0.01    -0.13   0.34  -0.09
  18   1    -0.12   0.20  -0.08    -0.02   0.02  -0.00    -0.09   0.22  -0.05
  19   1     0.01  -0.05   0.11     0.00  -0.02   0.03    -0.00   0.13   0.05
  20   1     0.08  -0.04  -0.23     0.02  -0.01  -0.02    -0.08   0.03  -0.14
  21   1     0.04   0.05   0.01    -0.00  -0.01   0.03     0.01   0.07  -0.27
  22   6     0.01   0.01   0.00     0.00  -0.00  -0.00     0.00   0.00  -0.01
  23   8     0.01   0.00   0.01    -0.00  -0.00  -0.00     0.01   0.00  -0.01
  24   7     0.01   0.02   0.01    -0.01  -0.00  -0.00     0.01  -0.00  -0.01
  25   1    -0.00   0.01   0.00     0.01  -0.01   0.00    -0.01   0.00  -0.00
  26   1     0.00   0.01  -0.00    -0.00  -0.00   0.00     0.00  -0.00  -0.00
  27   7     0.00   0.02   0.00    -0.00  -0.00  -0.00     0.00   0.01   0.01
  28   1     0.00  -0.00   0.00     0.00  -0.00   0.00    -0.00   0.00   0.01
  29   1     0.01   0.00   0.00     0.00  -0.00   0.00     0.00   0.01   0.00
  30   6     0.00  -0.00   0.00    -0.01   0.01  -0.00     0.00   0.00  -0.01
  31   8     0.00   0.00   0.00    -0.01   0.03   0.00    -0.01  -0.00  -0.01
  32   7     0.00  -0.01   0.00    -0.01   0.00   0.00    -0.00   0.01  -0.01
  33   1    -0.00   0.00   0.00     0.01  -0.01   0.00     0.01  -0.00  -0.01
  34   1    -0.01   0.00   0.00     0.01  -0.01  -0.01     0.01  -0.00  -0.01
  35   7    -0.00   0.00  -0.00    -0.00   0.01  -0.03     0.01  -0.00   0.01
  36   1     0.00  -0.00  -0.00     0.00  -0.00  -0.01     0.00   0.00   0.01
  37   1     0.00  -0.00  -0.00    -0.00   0.01  -0.01    -0.00  -0.00   0.00
  38   6     0.00  -0.01  -0.01    -0.00   0.01   0.00    -0.01   0.01  -0.00
  39   8    -0.00  -0.02  -0.01     0.04  -0.04   0.03    -0.01   0.01  -0.00
  40   7    -0.01   0.01   0.00     0.06  -0.29   0.06    -0.01  -0.01   0.01
  41   1     0.00  -0.01   0.01    -0.14   0.46  -0.09    -0.01   0.01   0.00
  42   1     0.01  -0.01   0.01    -0.25   0.67  -0.20    -0.00   0.01  -0.00
  43   7     0.01   0.00  -0.01    -0.01   0.03  -0.03    -0.00  -0.01   0.00
  44   1     0.00   0.00  -0.00     0.12  -0.25   0.07    -0.00   0.01  -0.00
  45   1     0.00   0.00  -0.00     0.05  -0.08   0.03    -0.00   0.00  -0.00
  46   6     0.00  -0.00  -0.00     0.00   0.00   0.00    -0.00   0.00   0.00
  47   8     0.00  -0.01  -0.00     0.01  -0.00   0.00    -0.00   0.00   0.00
  48   7    -0.00  -0.00  -0.00     0.00  -0.00  -0.00     0.00  -0.00   0.00
  49   1     0.00  -0.00   0.00    -0.00   0.00  -0.00    -0.00   0.00   0.00
  50   1     0.00  -0.00   0.00    -0.00   0.00  -0.00    -0.00   0.00   0.00
  51   7     0.00  -0.00  -0.00    -0.00  -0.01   0.01     0.00   0.00  -0.00
  52   1    -0.00   0.00  -0.00    -0.01   0.01  -0.00     0.00   0.00   0.00
  53   1    -0.00   0.00  -0.00    -0.01   0.01   0.00     0.00   0.00  -0.00
                     31                     32                     33
                        a                      a                      a 
 Frequencies --   301.6246               330.5543               355.4400
 Red. masses --     3.3581                 4.2962                 2.4648
 Frc consts  --     0.0000                 0.0000                 0.0000
 IR Inten    --     2.4462                 2.4366                 1.2570
 Raman Activ --     0.0000                 0.0000                 0.0000
 Depolar     --     0.0000                 0.0000                 0.0000
 Atom AN      X      Y      Z        X      Y      Z        X      Y      Z
   1   8     0.00  -0.07  -0.09     0.03   0.01   0.26    -0.01   0.04   0.01
   2   6    -0.18   0.17  -0.06     0.24  -0.08  -0.01     0.10  -0.06  -0.05
   3   1    -0.03   0.16  -0.08     0.04  -0.09   0.01     0.01  -0.04  -0.02
   4   1    -0.18   0.06   0.04     0.13  -0.04  -0.05     0.06  -0.02  -0.02
   5   6     0.11  -0.01  -0.02     0.04   0.04  -0.05    -0.00  -0.03  -0.05
   6   1     0.05   0.01   0.04    -0.00   0.02  -0.06    -0.01  -0.01  -0.05
   7   1     0.06  -0.02  -0.03     0.01   0.00   0.02    -0.02  -0.01   0.02
   8   7     0.08  -0.01   0.02    -0.10   0.03  -0.05    -0.03  -0.01  -0.01
   9   6    -0.04   0.11  -0.00    -0.11   0.06  -0.07    -0.04  -0.10   0.01
  10   1     0.11  -0.12   0.04    -0.17   0.18  -0.05     0.25  -0.36   0.10
  11   1    -0.24   0.01   0.02     0.18   0.05  -0.01    -0.46  -0.11  -0.01
  12   1     0.06   0.23  -0.07    -0.12  -0.17   0.01     0.15   0.36  -0.08
  13   6     0.04  -0.21   0.20    -0.11   0.11  -0.18     0.02   0.20  -0.11
  14   1     0.04  -0.02   0.04     0.04   0.33  -0.14     0.08   0.29  -0.10
  15   1    -0.07  -0.09   0.04    -0.13  -0.17  -0.29    -0.04  -0.09  -0.21
  16   1     0.05  -0.11   0.11    -0.01  -0.06   0.23    -0.00   0.02   0.18
  17   6     0.05   0.03  -0.05    -0.00  -0.15   0.13    -0.02  -0.08   0.18
  18   1    -0.23   0.33  -0.07    -0.18   0.11   0.01     0.04  -0.16   0.08
  19   1     0.06  -0.16   0.34     0.02  -0.18   0.27    -0.01   0.03  -0.04
  20   1     0.22  -0.14  -0.35     0.20  -0.10  -0.13    -0.05   0.04   0.18
  21   1    -0.05  -0.13   0.07     0.04   0.07   0.05     0.01   0.02   0.05
  22   6    -0.01   0.00  -0.00     0.01  -0.00  -0.00    -0.01   0.01  -0.01
  23   8    -0.03   0.01  -0.00     0.01  -0.00  -0.00    -0.01   0.02  -0.00
  24   7     0.01  -0.01   0.00    -0.01  -0.00  -0.01     0.03  -0.01   0.00
  25   1    -0.01   0.01  -0.00     0.02  -0.02   0.00    -0.04   0.03  -0.01
  26   1     0.01  -0.00  -0.00    -0.01  -0.00   0.00     0.01   0.00  -0.00
  27   7     0.00  -0.00  -0.00     0.00  -0.00  -0.00     0.00   0.02   0.01
  28   1     0.01  -0.00  -0.00    -0.00   0.00  -0.00     0.00  -0.00   0.01
  29   1    -0.00   0.00  -0.00    -0.00   0.00  -0.00     0.01   0.01   0.00
  30   6     0.00  -0.00   0.01    -0.00   0.00  -0.00     0.00  -0.00   0.01
  31   8     0.01   0.01   0.01    -0.01  -0.00  -0.01     0.01   0.01   0.02
  32   7     0.00  -0.02   0.01    -0.01   0.01  -0.00     0.01  -0.01   0.00
  33   1    -0.01   0.01   0.00     0.01  -0.01  -0.00    -0.01   0.01   0.00
  34   1    -0.00  -0.00   0.00     0.01  -0.00  -0.01    -0.01   0.01   0.01
  35   7    -0.01   0.01  -0.01     0.01  -0.01   0.01    -0.01   0.01  -0.01
  36   1    -0.00  -0.00  -0.01    -0.00   0.01   0.01     0.00  -0.01  -0.01
  37   1    -0.00   0.00  -0.01    -0.00  -0.00   0.00     0.00   0.00  -0.01
  38   6    -0.00  -0.01  -0.01    -0.00   0.01  -0.00     0.00  -0.01  -0.00
  39   8    -0.01  -0.01  -0.01     0.00   0.00   0.00    -0.00  -0.01  -0.01
  40   7    -0.01   0.01   0.00     0.00   0.00  -0.01    -0.01   0.01   0.01
  41   1     0.00  -0.02   0.01     0.01  -0.02   0.00    -0.01   0.00   0.01
  42   1     0.01  -0.03   0.01     0.01  -0.03   0.01    -0.00   0.01   0.00
  43   7     0.01   0.00  -0.01     0.01  -0.01   0.00    -0.01   0.01  -0.01
  44   1     0.00   0.00  -0.00    -0.01   0.03  -0.01     0.01  -0.03   0.01
  45   1     0.00   0.00  -0.00    -0.00   0.00  -0.01    -0.00  -0.00   0.01
  46   6     0.00  -0.00  -0.00    -0.00   0.00   0.00     0.00  -0.00  -0.00
  47   8     0.00  -0.00   0.00    -0.00   0.00   0.00     0.00  -0.00  -0.00
  48   7     0.00   0.00  -0.00    -0.00   0.00  -0.00     0.00  -0.00   0.00
  49   1     0.00  -0.00  -0.00     0.00  -0.00   0.00    -0.00   0.00   0.00
  50   1     0.00  -0.00  -0.00     0.00  -0.00   0.00    -0.00   0.00  -0.00
  51   7    -0.00  -0.00   0.00     0.00   0.00  -0.00    -0.00  -0.00   0.00
  52   1    -0.00   0.00  -0.00     0.00  -0.00   0.00    -0.01   0.00  -0.00
  53   1    -0.00   0.00   0.00     0.00  -0.00  -0.00    -0.00   0.00   0.00
                     34                     35                     36
                        a                      a                      a 
 Frequencies --   362.3392               371.1075               389.9398
 Red. masses --     5.5644                 2.2563                 4.7034
 Frc consts  --     0.0000                 0.0000                 0.0000
 IR Inten    --    72.4752                83.5142                72.5182
 Raman Activ --     0.0000                 0.0000                 0.0000
 Depolar     --     0.0000                 0.0000                 0.0000
 Atom AN      X      Y      Z        X      Y      Z        X      Y      Z
   1   8     0.04   0.10  -0.24     0.01   0.01  -0.05    -0.05  -0.07   0.05
   2   6     0.03   0.02  -0.16     0.01  -0.03  -0.00    -0.11   0.15  -0.08
   3   1    -0.00   0.04  -0.12    -0.00  -0.01  -0.00    -0.01   0.12  -0.07
   4   1    -0.04   0.03   0.01     0.01  -0.00   0.01    -0.11   0.05   0.02
   5   6     0.21  -0.07  -0.11     0.00  -0.01  -0.00     0.28   0.03  -0.01
   6   1     0.09   0.07  -0.01     0.01   0.02   0.00     0.13   0.09   0.06
   7   1     0.12  -0.06  -0.06    -0.00   0.00  -0.01     0.17  -0.06  -0.05
   8   7    -0.03  -0.05   0.04    -0.01  -0.01   0.01     0.07  -0.03  -0.01
   9   6    -0.15  -0.24   0.08     0.00  -0.03   0.01    -0.27  -0.12   0.01
  10   1    -0.11  -0.01   0.07    -0.02   0.02  -0.00    -0.13  -0.01   0.09
  11   1     0.04  -0.08  -0.02     0.04  -0.00  -0.00    -0.09  -0.05  -0.01
  12   1    -0.09  -0.17   0.03    -0.01  -0.04   0.01    -0.12  -0.08  -0.06
  13   6     0.07   0.21  -0.02    -0.00   0.02   0.00     0.07   0.03  -0.10
  14   1    -0.01  -0.02   0.02     0.00   0.01   0.00    -0.04  -0.05  -0.01
  15   1     0.15   0.14   0.06     0.01   0.01   0.00     0.09   0.06   0.01
  16   1    -0.05   0.15  -0.11    -0.01   0.01  -0.00     0.00   0.04  -0.12
  17   6    -0.16   0.01   0.24    -0.02   0.00   0.01     0.01  -0.05   0.28
  18   1    -0.13  -0.00   0.07    -0.01   0.01   0.00    -0.07  -0.06   0.09
  19   1    -0.01   0.03   0.15    -0.00   0.00   0.01     0.02   0.01   0.12
  20   1    -0.03  -0.00   0.06    -0.00  -0.01  -0.01     0.03   0.01   0.11
  21   1    -0.09  -0.26   0.52    -0.01  -0.05   0.10     0.07   0.24  -0.59
  22   6     0.01   0.00  -0.01    -0.01   0.01  -0.00    -0.00  -0.00  -0.01
  23   8     0.02  -0.01  -0.00    -0.01   0.01   0.00    -0.01  -0.00  -0.00
  24   7     0.00   0.01  -0.01    -0.02   0.00  -0.00     0.00   0.00  -0.01
  25   1     0.01  -0.00  -0.00     0.01  -0.01  -0.00     0.01  -0.00   0.00
  26   1    -0.00   0.00  -0.00     0.01  -0.01   0.01     0.00  -0.00   0.00
  27   7     0.01   0.01   0.01     0.00   0.01   0.00    -0.01   0.02   0.00
  28   1    -0.01   0.01   0.01     0.04  -0.02  -0.00     0.03  -0.02   0.01
  29   1     0.01   0.01   0.01    -0.01  -0.00  -0.01     0.03  -0.01   0.01
  30   6     0.01  -0.00  -0.01    -0.07   0.02   0.07     0.01  -0.01   0.00
  31   8     0.01  -0.01  -0.01    -0.03   0.04   0.07     0.00  -0.01   0.00
  32   7    -0.02   0.01   0.02     0.18  -0.10  -0.12     0.01   0.00  -0.01
  33   1     0.01  -0.01  -0.01    -0.09   0.08   0.08    -0.01   0.01   0.00
  34   1     0.07  -0.05  -0.04    -0.67   0.41   0.35    -0.03   0.02   0.02
  35   7    -0.00   0.01   0.00     0.01  -0.02  -0.03    -0.02   0.02   0.01
  36   1    -0.02   0.02   0.01     0.20  -0.20  -0.09     0.06  -0.05  -0.02
  37   1    -0.00   0.01   0.00     0.03  -0.03  -0.02     0.00  -0.01  -0.00
  38   6    -0.01   0.03   0.01     0.04  -0.04  -0.00    -0.00  -0.00  -0.00
  39   8    -0.01   0.02   0.01     0.03  -0.02  -0.01    -0.00  -0.01  -0.00
  40   7     0.01  -0.01  -0.01     0.01   0.06  -0.02    -0.00   0.00  -0.00
  41   1    -0.00   0.00  -0.00     0.01  -0.01  -0.00     0.01  -0.01  -0.00
  42   1     0.01  -0.03   0.00     0.01  -0.02   0.00    -0.00   0.00  -0.00
  43   7     0.00  -0.02   0.02    -0.01   0.07  -0.02     0.01   0.01  -0.01
  44   1    -0.03   0.06  -0.01     0.07  -0.14   0.04     0.02  -0.01   0.00
  45   1    -0.01   0.01  -0.00     0.03  -0.04   0.02     0.01  -0.01  -0.01
  46   6     0.00  -0.00   0.00    -0.00   0.01  -0.02    -0.01   0.01  -0.01
  47   8    -0.00  -0.00   0.00     0.00   0.01  -0.01    -0.00   0.01  -0.00
  48   7    -0.00   0.00   0.00     0.01  -0.00  -0.00     0.01  -0.02   0.01
  49   1     0.00  -0.00  -0.00     0.00  -0.00   0.00    -0.00   0.01  -0.00
  50   1     0.00  -0.00   0.00    -0.01   0.03  -0.01    -0.04   0.06  -0.02
  51   7     0.00   0.00  -0.00    -0.02  -0.02   0.00     0.01  -0.02   0.00
  52   1     0.00   0.00   0.00    -0.01  -0.02  -0.00    -0.01   0.00  -0.00
  53   1     0.00  -0.00  -0.00    -0.01  -0.00   0.01    -0.00   0.00  -0.00
                     37                     38                     39
                        a                      a                      a 
 Frequencies --   395.6406               422.2301               426.9304
 Red. masses --     3.4829                 3.7606                 8.4168
 Frc consts  --     0.0000                 0.0000                 0.0000
 IR Inten    --    26.6677                22.0314                15.4898
 Raman Activ --     0.0000                 0.0000                 0.0000
 Depolar     --     0.0000                 0.0000                 0.0000
 Atom AN      X      Y      Z        X      Y      Z        X      Y      Z
   1   8     0.01   0.01  -0.01    -0.01   0.00  -0.07     0.03   0.01   0.26
   2   6     0.01  -0.02   0.01    -0.01  -0.04  -0.01     0.05   0.15  -0.02
   3   1     0.00  -0.01   0.01    -0.00  -0.02   0.00     0.02   0.06  -0.00
   4   1     0.01  -0.01  -0.00     0.01  -0.01  -0.01    -0.02   0.04  -0.00
   5   6    -0.03  -0.00   0.00     0.00   0.05   0.01    -0.11  -0.10  -0.08
   6   1    -0.01  -0.01  -0.01     0.00   0.02   0.00    -0.07  -0.10  -0.05
   7   1    -0.02   0.01   0.00     0.01   0.02  -0.01    -0.09  -0.00   0.05
   8   7    -0.01   0.01   0.00     0.01   0.09   0.08    -0.01  -0.19  -0.28
   9   6     0.03   0.01   0.00    -0.02   0.01   0.10     0.14  -0.03  -0.32
  10   1     0.01   0.01  -0.01     0.00  -0.02   0.05     0.05   0.00  -0.14
  11   1     0.01   0.01   0.00    -0.03  -0.01   0.01     0.06   0.01  -0.06
  12   1     0.01   0.00   0.01    -0.00   0.01   0.03     0.05  -0.00  -0.06
  13   6    -0.01  -0.00   0.01    -0.09  -0.05  -0.07     0.25   0.08   0.27
  14   1     0.00   0.00   0.00    -0.08  -0.00  -0.03     0.25  -0.01   0.09
  15   1    -0.01  -0.01  -0.00    -0.04  -0.03  -0.04     0.07   0.07   0.15
  16   1     0.00  -0.01   0.01     0.02  -0.05  -0.04    -0.02   0.10   0.15
  17   6     0.00   0.01  -0.03     0.13   0.01  -0.03    -0.33  -0.00   0.07
  18   1     0.01   0.01  -0.01     0.08  -0.00  -0.01    -0.20  -0.02   0.03
  19   1    -0.00  -0.00  -0.01     0.01  -0.03  -0.04    -0.03   0.10   0.10
  20   1    -0.00  -0.00  -0.01     0.05   0.01  -0.00    -0.13   0.00   0.03
  21   1    -0.01  -0.03   0.07    -0.01  -0.02   0.04     0.03   0.06  -0.05
  22   6     0.01  -0.01   0.01     0.01  -0.03   0.00     0.01   0.00   0.02
  23   8     0.01   0.00  -0.00    -0.02  -0.00  -0.00     0.00   0.01   0.01
  24   7    -0.02  -0.01  -0.01     0.00  -0.02  -0.01    -0.01  -0.02   0.01
  25   1     0.01  -0.01   0.01     0.02  -0.02   0.01     0.01  -0.02  -0.00
  26   1     0.03  -0.02   0.02    -0.00  -0.01   0.00    -0.01  -0.01   0.01
  27   7    -0.04   0.04  -0.02    -0.09   0.09  -0.03    -0.02   0.01  -0.03
  28   1     0.07  -0.05   0.00     0.16  -0.12   0.03     0.05  -0.02  -0.01
  29   1     0.07  -0.05   0.02     0.17  -0.11   0.06     0.01  -0.04  -0.00
  30   6     0.04  -0.04  -0.01     0.06  -0.05   0.01     0.01  -0.02   0.00
  31   8     0.02  -0.04  -0.02     0.02  -0.07  -0.01     0.01  -0.02  -0.00
  32   7    -0.04   0.04   0.04    -0.04   0.04   0.04    -0.01   0.02   0.01
  33   1     0.00  -0.00  -0.01     0.02  -0.01  -0.01     0.02  -0.01  -0.01
  34   1     0.09  -0.04  -0.04    -0.01   0.03   0.02    -0.02   0.02   0.02
  35   7    -0.06   0.05   0.04    -0.13   0.11   0.02    -0.03   0.03   0.01
  36   1     0.10  -0.09  -0.03     0.33  -0.29  -0.11     0.11  -0.09  -0.04
  37   1     0.04  -0.03  -0.02    -0.01  -0.02  -0.00    -0.00  -0.01   0.00
  38   6     0.01  -0.02   0.01    -0.05   0.11  -0.03    -0.02   0.04  -0.01
  39   8     0.01  -0.01   0.00    -0.02   0.04  -0.02    -0.01   0.02  -0.01
  40   7    -0.02   0.04  -0.00     0.06  -0.15   0.04     0.02  -0.05   0.01
  41   1    -0.00  -0.01   0.01    -0.02   0.07  -0.01    -0.01   0.03  -0.00
  42   1     0.02  -0.04   0.02    -0.04   0.13  -0.04    -0.01   0.04  -0.01
  43   7    -0.03   0.04  -0.01     0.08  -0.19   0.06     0.03  -0.06   0.02
  44   1     0.05  -0.11   0.03    -0.25   0.57  -0.16    -0.09   0.20  -0.05
  45   1     0.01  -0.02   0.01    -0.02   0.04  -0.03    -0.01   0.01  -0.01
  46   6    -0.08   0.12  -0.06     0.00   0.02  -0.01    -0.00   0.01  -0.01
  47   8    -0.03   0.09  -0.03    -0.01   0.02  -0.02    -0.00   0.01  -0.01
  48   7     0.15  -0.24   0.11     0.00   0.02   0.00     0.00   0.00   0.00
  49   1    -0.04   0.09  -0.02    -0.00  -0.00   0.01     0.00  -0.00   0.00
  50   1    -0.47   0.66  -0.22     0.02  -0.02   0.01    -0.00   0.01  -0.00
  51   7     0.10  -0.16   0.02    -0.02  -0.01   0.01    -0.00  -0.01   0.00
  52   1    -0.08   0.07  -0.03     0.01  -0.04   0.01     0.00  -0.01   0.00
  53   1    -0.04   0.04   0.00    -0.01   0.01   0.01    -0.00   0.00   0.00
                     40                     41                     42
                        a                      a                      a 
 Frequencies --   440.7649               456.2606               460.3543
 Red. masses --     3.1956                 5.0944                 6.3963
 Frc consts  --     0.0000                 0.0000                 0.0000
 IR Inten    --   846.3361                17.5597                28.8905
 Raman Activ --     0.0000                 0.0000                 0.0000
 Depolar     --     0.0000                 0.0000                 0.0000
 Atom AN      X      Y      Z        X      Y      Z        X      Y      Z
   1   8    -0.01  -0.01  -0.01    -0.01  -0.01   0.06    -0.01  -0.01   0.05
   2   6    -0.01   0.00  -0.00     0.03   0.10  -0.15     0.03   0.11  -0.18
   3   1    -0.00   0.01  -0.00     0.01   0.01  -0.02     0.01   0.01  -0.03
   4   1    -0.01   0.00   0.00     0.01   0.02  -0.09     0.01   0.02  -0.10
   5   6     0.03   0.01   0.00    -0.04   0.19  -0.14    -0.00   0.23  -0.15
   6   1     0.02   0.02   0.01    -0.02   0.05  -0.06     0.00   0.09  -0.05
   7   1     0.03  -0.01  -0.00    -0.02   0.05  -0.02     0.02   0.04  -0.03
   8   7    -0.03   0.01   0.01    -0.10   0.16  -0.08    -0.16   0.18  -0.06
   9   6     0.00  -0.00   0.01     0.11  -0.19  -0.00     0.16  -0.22   0.03
  10   1     0.02  -0.02   0.00     0.04  -0.07   0.02     0.08  -0.11   0.01
  11   1    -0.02  -0.01   0.00     0.08  -0.10  -0.09     0.07  -0.13  -0.10
  12   1     0.01   0.02   0.01     0.04  -0.09   0.09     0.08  -0.06   0.13
  13   6    -0.03   0.01  -0.00    -0.13  -0.06   0.18    -0.19  -0.03   0.21
  14   1    -0.01   0.00  -0.00     0.00  -0.08   0.07    -0.01  -0.07   0.08
  15   1    -0.00   0.00  -0.00    -0.11   0.01   0.11    -0.12   0.02   0.12
  16   1    -0.01   0.00  -0.01    -0.01  -0.05   0.05    -0.03  -0.04   0.05
  17   6     0.01  -0.03  -0.01     0.09  -0.09   0.08     0.10  -0.15   0.06
  18   1     0.01  -0.01  -0.00     0.03  -0.08   0.03     0.05  -0.10   0.03
  19   1    -0.00  -0.02  -0.01     0.00  -0.09   0.02    -0.01  -0.13   0.00
  20   1     0.01  -0.00   0.00     0.11   0.01   0.06     0.13   0.00   0.06
  21   1     0.00   0.02  -0.04     0.00   0.01  -0.00     0.00   0.02  -0.02
  22   6    -0.02   0.03   0.01    -0.00  -0.00  -0.04    -0.00   0.00   0.03
  23   8     0.03   0.02  -0.00    -0.03  -0.04   0.03     0.03   0.03  -0.03
  24   7    -0.05   0.05   0.01     0.17  -0.09   0.01    -0.12   0.08  -0.01
  25   1     0.01   0.00   0.01    -0.35   0.27  -0.05     0.25  -0.19   0.04
  26   1     0.02  -0.00   0.01     0.19  -0.01  -0.03    -0.14   0.01   0.01
  27   7     0.14  -0.12   0.03    -0.10   0.08  -0.05     0.09  -0.07   0.05
  28   1    -0.18   0.16  -0.06    -0.23   0.07   0.06     0.17  -0.05  -0.05
  29   1    -0.29   0.16  -0.11     0.39  -0.10   0.15    -0.33   0.11  -0.12
  30   6    -0.05   0.04   0.00    -0.04   0.04  -0.01     0.03  -0.03   0.00
  31   8    -0.01   0.07   0.02    -0.01   0.04  -0.00    -0.00  -0.04  -0.01
  32   7     0.07  -0.10  -0.06     0.02  -0.05  -0.03    -0.02   0.03   0.03
  33   1     0.01  -0.03   0.03     0.01  -0.02   0.01     0.01  -0.00  -0.00
  34   1    -0.22   0.08   0.08    -0.07   0.01   0.02     0.04  -0.01  -0.01
  35   7     0.14  -0.13   0.00     0.05  -0.04   0.02    -0.04   0.04  -0.01
  36   1    -0.34   0.29   0.12    -0.10   0.10   0.05     0.09  -0.09  -0.04
  37   1     0.03  -0.01  -0.00     0.00  -0.01   0.01    -0.00   0.01  -0.01
  38   6    -0.03   0.07  -0.01     0.01  -0.00  -0.02     0.02  -0.02  -0.05
  39   8    -0.03   0.02  -0.01     0.01   0.01  -0.01     0.06   0.01  -0.02
  40   7     0.05  -0.12   0.01     0.00   0.00   0.02    -0.01   0.03   0.06
  41   1    -0.00   0.06  -0.02    -0.01  -0.00   0.01    -0.06   0.01   0.04
  42   1    -0.05   0.11  -0.05     0.01   0.01   0.01     0.05  -0.01   0.06
  43   7     0.08  -0.13   0.05    -0.02  -0.01   0.00    -0.08  -0.01  -0.01
  44   1    -0.19   0.45  -0.12    -0.01   0.00  -0.01    -0.01  -0.08   0.00
  45   1     0.00   0.00  -0.02    -0.01   0.00   0.01    -0.02  -0.01   0.03
  46   6    -0.01   0.00  -0.01     0.02  -0.00  -0.03    -0.03  -0.01   0.04
  47   8     0.01  -0.00   0.01     0.01  -0.01  -0.04    -0.01   0.01   0.06
  48   7     0.03  -0.07   0.03     0.01   0.01   0.05    -0.02  -0.03  -0.07
  49   1     0.02  -0.01  -0.00    -0.02   0.01   0.03     0.02  -0.00  -0.04
  50   1    -0.16   0.21  -0.08     0.01   0.03   0.02    -0.02  -0.04  -0.03
  51   7     0.03  -0.04  -0.01    -0.04  -0.03   0.00     0.05   0.04  -0.01
  52   1    -0.05   0.06  -0.02    -0.05  -0.01  -0.02     0.06   0.02   0.02
  53   1    -0.01   0.01  -0.01    -0.01  -0.00   0.03     0.02   0.00  -0.05
                     43                     44                     45
                        a                      a                      a 
 Frequencies --   468.6778               470.5032               473.1633
 Red. masses --     7.7621                 5.8877                 6.0288
 Frc consts  --     0.0000                 0.0000                 0.0000
 IR Inten    --     6.7372                24.8930                12.6402
 Raman Activ --     0.0000                 0.0000                 0.0000
 Depolar     --     0.0000                 0.0000                 0.0000
 Atom AN      X      Y      Z        X      Y      Z        X      Y      Z
   1   8    -0.00   0.01   0.02     0.00  -0.00  -0.01    -0.00   0.00   0.01
   2   6     0.01   0.01  -0.01     0.00   0.00  -0.01     0.01   0.02  -0.03
   3   1     0.00  -0.02   0.03    -0.00   0.00  -0.01     0.00  -0.01   0.01
   4   1     0.02  -0.00  -0.03    -0.00   0.00  -0.00     0.02  -0.00  -0.03
   5   6    -0.14   0.04  -0.04     0.02   0.01  -0.01    -0.06   0.06  -0.04
   6   1    -0.08  -0.08  -0.04     0.01   0.02   0.00    -0.04  -0.02  -0.02
   7   1    -0.12   0.07   0.02     0.01  -0.00  -0.01    -0.05   0.04   0.01
   8   7     0.14   0.07  -0.06    -0.03   0.01   0.00     0.04   0.06  -0.04
   9   6    -0.08  -0.07  -0.04     0.02  -0.02   0.01    -0.02  -0.08  -0.01
  10   1    -0.05  -0.02   0.06     0.01  -0.01  -0.00    -0.01  -0.03   0.03
  11   1    -0.05  -0.04  -0.04     0.01  -0.01  -0.00    -0.01  -0.04  -0.03
  12   1    -0.04  -0.04  -0.05     0.01  -0.00   0.02    -0.01  -0.03  -0.00
  13   6     0.08  -0.13  -0.01    -0.02   0.01   0.02     0.01  -0.06   0.02
  14   1     0.02  -0.05  -0.00    -0.00   0.00   0.01     0.00  -0.03   0.01
  15   1    -0.03  -0.04   0.01    -0.01   0.00   0.01    -0.03  -0.02   0.02
  16   1     0.06  -0.07   0.00    -0.01   0.00   0.00     0.02  -0.04   0.01
  17   6     0.07   0.12   0.09     0.00  -0.03  -0.00     0.05   0.03   0.05
  18   1    -0.02   0.00   0.03     0.01  -0.01  -0.00     0.00  -0.01   0.02
  19   1     0.04   0.06   0.04    -0.00  -0.02  -0.00     0.02   0.01   0.02
  20   1     0.01   0.04   0.04     0.01  -0.00   0.00     0.03   0.02   0.03
  21   1    -0.01  -0.01   0.05    -0.00  -0.00   0.01    -0.00  -0.01   0.03
  22   6    -0.04  -0.07  -0.14     0.03   0.05   0.13     0.00   0.00  -0.00
  23   8    -0.13  -0.17  -0.02     0.15   0.15   0.01     0.00  -0.01   0.01
  24   7     0.05   0.19  -0.14    -0.05  -0.21   0.12    -0.04   0.06  -0.01
  25   1     0.24  -0.09   0.07    -0.18   0.03  -0.07     0.06  -0.04   0.01
  26   1    -0.03   0.06  -0.05    -0.02  -0.06   0.04    -0.02   0.01  -0.00
  27   7     0.03   0.03   0.17    -0.17   0.11  -0.18     0.07  -0.04   0.04
  28   1    -0.13  -0.05   0.17     0.50  -0.21  -0.12    -0.05   0.05  -0.01
  29   1     0.20   0.09   0.13    -0.05  -0.22  -0.07    -0.13   0.08  -0.04
  30   6    -0.00   0.03  -0.04    -0.03   0.07  -0.04     0.02  -0.04   0.01
  31   8    -0.00   0.04  -0.03    -0.02   0.06  -0.04     0.02  -0.02   0.02
  32   7    -0.04  -0.07   0.01    -0.02  -0.12  -0.01     0.00   0.06  -0.01
  33   1     0.01  -0.04   0.03    -0.01  -0.03   0.05    -0.01   0.03  -0.03
  34   1    -0.07  -0.02   0.00    -0.08  -0.04  -0.01     0.07   0.01  -0.01
  35   7     0.04  -0.01   0.06     0.08  -0.04   0.08    -0.04   0.01   0.01
  36   1     0.01   0.04   0.04    -0.13   0.16   0.09     0.06  -0.06  -0.02
  37   1    -0.01  -0.01   0.04     0.04  -0.03   0.02    -0.00  -0.01   0.00
  38   6    -0.04   0.02   0.09    -0.04   0.02   0.10    -0.06   0.04   0.14
  39   8    -0.11  -0.02   0.04    -0.14  -0.02   0.04    -0.20  -0.03   0.05
  40   7    -0.01  -0.02  -0.11    -0.02  -0.01  -0.11    -0.03  -0.00  -0.15
  41   1     0.13  -0.08  -0.07     0.18  -0.16  -0.06     0.32  -0.38  -0.07
  42   1    -0.10   0.01  -0.10    -0.14   0.05  -0.13    -0.24   0.15  -0.22
  43   7     0.13   0.04   0.02     0.15   0.04   0.02     0.21   0.04   0.04
  44   1     0.07   0.04   0.03     0.08   0.02   0.04     0.13  -0.01   0.06
  45   1     0.04   0.02  -0.04     0.03   0.04  -0.05     0.04   0.05  -0.07
  46   6    -0.10  -0.04   0.14    -0.05  -0.01   0.07     0.10   0.04  -0.14
  47   8    -0.02   0.05   0.21    -0.01   0.03   0.11     0.02  -0.04  -0.22
  48   7    -0.08  -0.12  -0.20    -0.04  -0.06  -0.12     0.08   0.12   0.21
  49   1     0.06  -0.00  -0.11     0.02   0.01  -0.07    -0.05  -0.01   0.12
  50   1    -0.12  -0.06  -0.11    -0.05  -0.06  -0.06     0.11   0.08   0.11
  51   7     0.17   0.11  -0.05     0.09   0.06  -0.02    -0.17  -0.12   0.04
  52   1     0.17   0.10   0.06     0.10   0.05   0.03    -0.17  -0.11  -0.06
  53   1     0.03   0.04  -0.19     0.01   0.03  -0.10    -0.03  -0.04   0.19
                     46                     47                     48
                        a                      a                      a 
 Frequencies --   476.5885               482.2786               485.7926
 Red. masses --     4.9400                 5.2161                 6.4982
 Frc consts  --     0.0000                 0.0000                 0.0000
 IR Inten    --    13.5053                 7.7452                67.1503
 Raman Activ --     0.0000                 0.0000                 0.0000
 Depolar     --     0.0000                 0.0000                 0.0000
 Atom AN      X      Y      Z        X      Y      Z        X      Y      Z
   1   8     0.01  -0.01  -0.01     0.00  -0.00   0.00    -0.01   0.01   0.00
   2   6    -0.01  -0.00   0.01     0.00   0.00   0.01     0.00  -0.01   0.01
   3   1    -0.00   0.03  -0.04     0.00   0.01  -0.01     0.00  -0.03   0.04
   4   1    -0.03   0.01   0.04    -0.01   0.00   0.01     0.03  -0.01  -0.03
   5   6     0.17  -0.06   0.03     0.02  -0.02   0.00    -0.18   0.03  -0.02
   6   1     0.10   0.10   0.05     0.01   0.00   0.00    -0.10  -0.12  -0.05
   7   1     0.15  -0.10  -0.03     0.01  -0.01  -0.00    -0.15   0.09   0.04
   8   7    -0.18  -0.10   0.07    -0.01  -0.03   0.01     0.20   0.08  -0.05
   9   6     0.14   0.11   0.04     0.01   0.02  -0.00    -0.19  -0.08  -0.04
  10   1     0.08   0.02  -0.08     0.00   0.01  -0.01    -0.11   0.00   0.09
  11   1     0.06   0.06   0.05     0.01   0.01   0.01    -0.07  -0.04  -0.03
  12   1     0.07   0.07   0.07     0.01   0.01   0.00    -0.10  -0.08  -0.08
  13   6    -0.10   0.16   0.03     0.00   0.02   0.00     0.12  -0.16  -0.07
  14   1    -0.02   0.06   0.01     0.00   0.01  -0.00     0.01  -0.06  -0.02
  15   1     0.04   0.06  -0.00     0.01   0.01  -0.00    -0.02  -0.06  -0.02
  16   1    -0.08   0.09   0.01    -0.01   0.02   0.00     0.08  -0.09  -0.02
  17   6    -0.10  -0.15  -0.13    -0.02  -0.01  -0.02     0.09   0.18   0.12
  18   1     0.02  -0.01  -0.04    -0.01   0.01  -0.01    -0.03   0.02   0.04
  19   1    -0.05  -0.07  -0.06    -0.00   0.00  -0.00     0.05   0.09   0.06
  20   1    -0.02  -0.06  -0.06    -0.01  -0.01  -0.01     0.01   0.06   0.05
  21   1     0.01   0.02  -0.05     0.00   0.00  -0.00    -0.01  -0.03   0.07
  22   6     0.00   0.00   0.01    -0.04  -0.02  -0.06     0.05   0.02   0.08
  23   8    -0.03   0.02  -0.01    -0.06  -0.09   0.01     0.12   0.11  -0.03
  24   7     0.02  -0.02   0.01     0.04   0.07  -0.07    -0.02  -0.11   0.11
  25   1    -0.07   0.06  -0.00     0.16  -0.09   0.03    -0.26   0.15  -0.04
  26   1     0.10  -0.02   0.02    -0.10   0.04  -0.04     0.10  -0.03   0.03
  27   7     0.07  -0.10  -0.02    -0.07   0.10   0.07     0.03  -0.08  -0.08
  28   1    -0.32   0.20  -0.03     0.20  -0.19   0.11    -0.08   0.14  -0.13
  29   1     0.01   0.04  -0.00     0.19  -0.05   0.09    -0.25   0.04  -0.12
  30   6     0.03   0.00  -0.04    -0.02  -0.04   0.08     0.02   0.00  -0.01
  31   8     0.02   0.01  -0.05    -0.01  -0.05   0.08     0.01  -0.02  -0.02
  32   7    -0.07  -0.04   0.03     0.10   0.08  -0.03    -0.03  -0.01   0.04
  33   1     0.00  -0.03   0.03    -0.00   0.05  -0.05     0.03  -0.03   0.01
  34   1    -0.00  -0.05  -0.03     0.01   0.09   0.05     0.00  -0.03  -0.01
  35   7    -0.04   0.08   0.07     0.01  -0.09  -0.15    -0.03   0.06  -0.00
  36   1     0.24  -0.14  -0.03    -0.29   0.14  -0.00     0.12  -0.10  -0.04
[...]
  44   1    -0.01  -0.00   0.01    -0.01  -0.00   0.02    -0.00  -0.00   0.01
  45   1     0.10   0.06   0.00     0.17   0.10   0.01     0.04   0.02   0.00
  46   6     0.00   0.00   0.01     0.00   0.00  -0.00    -0.01  -0.00   0.02
  47   8    -0.00   0.00  -0.00    -0.00   0.00   0.00     0.01   0.00  -0.01
  48   7     0.07   0.07   0.11     0.02   0.02   0.03     0.02   0.02   0.03
  49   1    -0.23  -0.26  -0.48    -0.06  -0.06  -0.12    -0.06  -0.07  -0.13
  50   1    -0.03  -0.00   0.07    -0.01  -0.00   0.02    -0.01  -0.00   0.02
  51   7     0.00  -0.00  -0.00    -0.00  -0.00   0.00     0.00   0.00  -0.00
  52   1     0.00   0.00  -0.01     0.00  -0.00   0.00     0.00   0.00  -0.01
  53   1    -0.01  -0.01   0.00    -0.00   0.00  -0.00    -0.02  -0.01   0.00
                    142                    143                    144
                        a                      a                      a 
 Frequencies --  3480.7688              3498.6931              3500.8912
 Red. masses --     1.4591                 1.4522                 1.4456
 Frc consts  --     0.0000                 0.0000                 0.0000
 IR Inten    --    23.7709                20.3731                24.4325
 Raman Activ --     0.0000                 0.0000                 0.0000
 Depolar     --     0.0000                 0.0000                 0.0000
 Atom AN      X      Y      Z        X      Y      Z        X      Y      Z
   1   8     0.00  -0.00  -0.00    -0.00   0.00   0.00    -0.00   0.00  -0.00
   2   6    -0.00  -0.00   0.00    -0.00  -0.00  -0.00    -0.00   0.00   0.00
   3   1     0.00  -0.00  -0.00     0.00  -0.00   0.00     0.00  -0.00  -0.00
   4   1    -0.00   0.00  -0.00     0.00   0.00   0.00    -0.00   0.00  -0.00
   5   6    -0.00  -0.00  -0.00    -0.00   0.00   0.00    -0.00  -0.00  -0.00
   6   1     0.00  -0.00  -0.00     0.00  -0.00  -0.00    -0.00   0.00   0.00
   7   1     0.00   0.00   0.00    -0.00   0.00   0.00     0.00   0.00   0.00
   8   7     0.00   0.00  -0.00     0.00   0.00  -0.00     0.00   0.00   0.00
   9   6    -0.00  -0.00  -0.00    -0.00   0.00   0.00     0.00   0.00   0.00
  10   1     0.00   0.00   0.00     0.00   0.00   0.00    -0.00  -0.00   0.00
  11   1    -0.00  -0.00   0.00    -0.00   0.00   0.00     0.00   0.00  -0.00
  12   1     0.00  -0.00  -0.00     0.00  -0.00  -0.00     0.00   0.00   0.00
  13   6    -0.00  -0.00  -0.00    -0.00  -0.00  -0.00    -0.00  -0.00  -0.00
  14   1    -0.00  -0.00  -0.00    -0.00   0.00   0.00     0.00  -0.00  -0.00
  15   1     0.00  -0.00   0.00     0.00  -0.00   0.00    -0.00   0.00   0.00
  16   1     0.00   0.00   0.00     0.00   0.00   0.00     0.00   0.00   0.00
  17   6    -0.00   0.00  -0.00    -0.00   0.00   0.00     0.00  -0.00  -0.00
  18   1    -0.00  -0.00   0.00    -0.00   0.00   0.00    -0.00  -0.00   0.00
  19   1     0.00  -0.00  -0.00     0.00  -0.00  -0.00    -0.00   0.00   0.00
  20   1    -0.00  -0.00   0.00    -0.00  -0.00  -0.00    -0.00   0.00   0.00
  21   1    -0.00   0.00   0.00     0.00  -0.00  -0.00     0.00  -0.00   0.00
  22   6     0.00   0.00   0.00     0.00   0.00   0.00     0.00   0.00   0.00
  23   8    -0.00  -0.00  -0.00    -0.00  -0.00   0.00    -0.00  -0.00  -0.00
  24   7    -0.00  -0.00   0.01     0.00   0.00  -0.00     0.00   0.00  -0.00
  25   1     0.02   0.03  -0.01    -0.00  -0.00   0.00    -0.02  -0.02   0.01
  26   1    -0.00  -0.02  -0.01     0.00  -0.00  -0.00     0.00   0.01   0.01
  27   7     0.13   0.13  -0.01     0.00  -0.00  -0.00    -0.00  -0.00  -0.00
  28   1    -0.27  -0.48  -0.53     0.00  -0.00  -0.00     0.00   0.00   0.00
  29   1    -0.21  -0.02   0.58    -0.00  -0.00   0.00    -0.00   0.00  -0.00
  30   6     0.00   0.00   0.00     0.00   0.00   0.00     0.00   0.00   0.00
  31   8    -0.00  -0.00   0.00    -0.00  -0.00  -0.00    -0.00  -0.00  -0.00
  32   7    -0.00  -0.00   0.00    -0.00  -0.00  -0.00    -0.00   0.00  -0.00
  33   1     0.00   0.00   0.00     0.01   0.01  -0.00     0.00   0.00  -0.00
  34   1     0.00   0.00  -0.00    -0.00  -0.01   0.01    -0.00  -0.00   0.00
  35   7     0.00   0.00   0.00    -0.00  -0.00   0.00    -0.00  -0.00  -0.00
  36   1     0.00   0.00  -0.00     0.00   0.00  -0.00     0.00   0.01  -0.01
  37   1    -0.01  -0.00  -0.01     0.00   0.00   0.00     0.01   0.00   0.01
  38   6     0.00   0.00  -0.00     0.00  -0.00  -0.00     0.00   0.00   0.00
  39   8    -0.00  -0.00   0.00    -0.00   0.00   0.00    -0.00  -0.00  -0.00
  40   7    -0.00  -0.00   0.00     0.18   0.05   0.00    -0.00  -0.00   0.00
  41   1    -0.00  -0.00  -0.00    -0.25  -0.19  -0.59     0.00   0.00   0.00
  42   1     0.00  -0.00  -0.00    -0.41   0.02   0.59     0.00  -0.00  -0.00
  43   7    -0.00  -0.00  -0.00    -0.01  -0.00   0.01    -0.00  -0.00  -0.00
  44   1    -0.00  -0.00   0.00     0.03   0.00  -0.04    -0.00   0.00   0.00
  45   1     0.00   0.00  -0.00     0.01   0.01   0.00     0.00   0.00   0.00
  46   6    -0.00  -0.00   0.00     0.00   0.00   0.00     0.00   0.00   0.00
  47   8     0.00   0.00  -0.00    -0.00  -0.00  -0.00     0.00   0.00  -0.00
  48   7     0.00   0.00   0.00    -0.00  -0.00  -0.00     0.00  -0.00  -0.01
  49   1    -0.00  -0.00  -0.00     0.00   0.00   0.00     0.01   0.01   0.01
  50   1    -0.00  -0.00   0.00     0.00   0.00  -0.00    -0.02  -0.00   0.04
  51   7     0.00   0.00   0.00     0.00   0.00   0.00     0.06   0.08   0.15
  52   1     0.00   0.00  -0.00     0.00   0.00  -0.00     0.31   0.10  -0.63
  53   1    -0.00  -0.00   0.00    -0.00  -0.00   0.00    -0.55  -0.40   0.06
                    145                    146                    147
                        a                      a                      a 
 Frequencies --  3514.7848              3529.8597              3534.8754
 Red. masses --     1.9065                 1.8976                 1.8891
 Frc consts  --     0.0000                 0.0000                 0.0000
 IR Inten    --    15.6108                 7.9296                 9.3588
 Raman Activ --     0.0000                 0.0000                 0.0000
 Depolar     --     0.0000                 0.0000                 0.0000
 Atom AN      X      Y      Z        X      Y      Z        X      Y      Z
   1   8     0.00   0.00  -0.00     0.00   0.00   0.00    -0.00   0.00   0.00
   2   6     0.00   0.00   0.00    -0.00   0.00   0.00    -0.00   0.00   0.00
   3   1     0.00  -0.00  -0.00    -0.00   0.00   0.00    -0.00   0.00   0.00
   4   1    -0.00   0.00  -0.00     0.00  -0.00   0.00     0.00  -0.00  -0.00
   5   6     0.00   0.00   0.00     0.00   0.00   0.00     0.00  -0.00  -0.00
   6   1     0.00   0.00   0.00    -0.00   0.00   0.00    -0.00   0.00  -0.00
   7   1    -0.00  -0.00  -0.00    -0.00  -0.00  -0.00     0.00   0.00   0.00
   8   7     0.00   0.00  -0.00     0.00  -0.00  -0.00    -0.00   0.00   0.00
   9   6     0.00   0.00   0.00     0.00  -0.00  -0.00    -0.00   0.00   0.00
  10   1    -0.01  -0.01  -0.00     0.00  -0.00   0.00     0.00   0.00   0.00
  11   1     0.00   0.00  -0.00    -0.00   0.00  -0.00    -0.00   0.00   0.00
  12   1     0.00  -0.00   0.00    -0.00   0.00   0.00     0.00  -0.00  -0.00
  13   6     0.00   0.00   0.00     0.00  -0.00  -0.00     0.00  -0.00  -0.00
  14   1     0.00   0.00  -0.00    -0.00   0.00   0.00    -0.00   0.00   0.00
  15   1    -0.00   0.00   0.00    -0.00   0.00   0.00    -0.00   0.00  -0.00
  16   1    -0.00  -0.00  -0.00    -0.00  -0.00  -0.00     0.00   0.00   0.00
  17   6     0.00   0.00   0.00     0.00  -0.00  -0.00     0.00  -0.00  -0.00
  18   1     0.00  -0.00  -0.00     0.00   0.00   0.00     0.00  -0.00  -0.00
  19   1     0.00   0.00   0.00    -0.00   0.00   0.00    -0.00   0.00   0.00
  20   1     0.00   0.00   0.00     0.00   0.00   0.00    -0.00   0.00   0.00
  21   1    -0.00  -0.00   0.00    -0.00   0.00   0.00     0.00  -0.00  -0.00
  22   6     0.01   0.01   0.00     0.00  -0.00   0.00    -0.00   0.00   0.00
  23   8    -0.00  -0.00   0.00    -0.00   0.00  -0.00    -0.00  -0.00  -0.00
  24   7     0.15   0.21  -0.07    -0.00   0.00   0.00    -0.00  -0.00   0.00
  25   1    -0.57  -0.70   0.32     0.00   0.00  -0.00     0.00   0.00  -0.00
  26   1     0.01  -0.09  -0.07    -0.00  -0.01  -0.00    -0.00  -0.00  -0.00
  27   7     0.00  -0.00  -0.01    -0.00   0.00   0.00     0.00  -0.00  -0.00
  28   1     0.00   0.00   0.00    -0.00  -0.00  -0.00     0.00   0.00   0.00
  29   1    -0.02  -0.00   0.05     0.00   0.00  -0.01    -0.00  -0.00   0.00
  30   6    -0.00  -0.00   0.00     0.00   0.00   0.01     0.00  -0.00   0.00
  31   8     0.00   0.00  -0.00    -0.00  -0.00  -0.00     0.00   0.00  -0.00
  32   7     0.00  -0.00   0.00     0.01   0.06  -0.06    -0.00  -0.00   0.00
  33   1    -0.00  -0.00   0.00    -0.03  -0.03  -0.01     0.00   0.00  -0.00
  34   1    -0.00   0.00  -0.00     0.00  -0.21   0.24    -0.00   0.01  -0.01
  35   7     0.00   0.00   0.00    -0.03  -0.12   0.21    -0.00  -0.01   0.01
  36   1     0.00   0.00  -0.00     0.16   0.47  -0.76     0.01   0.02  -0.04
  37   1    -0.01  -0.00  -0.01    -0.06  -0.02  -0.05    -0.00  -0.00  -0.00
  38   6     0.00   0.00   0.00     0.00   0.00  -0.00    -0.01  -0.00   0.00
  39   8    -0.00   0.00  -0.00    -0.00  -0.00   0.00     0.00   0.00  -0.00
  40   7    -0.00  -0.00   0.00    -0.00   0.00   0.00    -0.01  -0.01  -0.03
  41   1     0.00   0.00   0.00    -0.00  -0.00  -0.00     0.04   0.03   0.08
  42   1     0.00  -0.00  -0.00     0.00  -0.00  -0.00    -0.02   0.00   0.02
  43   7     0.00   0.00  -0.00     0.00   0.00  -0.01    -0.15  -0.01   0.20
  44   1    -0.00  -0.00   0.00    -0.02  -0.00   0.02     0.53   0.02  -0.77
  45   1    -0.00  -0.00   0.00    -0.00  -0.00  -0.00     0.05   0.04   0.02
  46   6    -0.00  -0.00   0.00    -0.00  -0.00   0.00     0.00  -0.00  -0.00
  47   8     0.00  -0.00  -0.00     0.00   0.00  -0.00    -0.00   0.00   0.00
  48   7     0.00   0.00  -0.00    -0.00   0.00   0.01     0.03   0.00  -0.05
  49   1    -0.00  -0.00  -0.00    -0.00  -0.00  -0.00     0.01   0.01   0.01
  50   1    -0.01  -0.00   0.01     0.02   0.00  -0.03    -0.11  -0.01   0.19
  51   7    -0.00  -0.00  -0.01     0.00   0.00  -0.00    -0.00  -0.00   0.00
  52   1    -0.01  -0.00   0.02    -0.00  -0.00   0.01     0.00   0.00  -0.00
  53   1     0.01   0.01  -0.00    -0.00  -0.00  -0.00     0.01   0.01  -0.00
                    148                    149                    150
                        a                      a                      a 
 Frequencies --  3535.9598              3538.6717              3547.6302
 Red. masses --     1.9036                 1.9169                 2.1721
 Frc consts  --     0.0000                 0.0000                 0.0000
 IR Inten    --    17.8721                24.3993                15.9757
 Raman Activ --     0.0000                 0.0000                 0.0000
 Depolar     --     0.0000                 0.0000                 0.0000
 Atom AN      X      Y      Z        X      Y      Z        X      Y      Z
   1   8     0.00  -0.00  -0.00    -0.00   0.00  -0.00    -0.00   0.00   0.00
   2   6     0.00  -0.00  -0.00    -0.00  -0.00   0.00    -0.00   0.00  -0.00
   3   1    -0.00   0.00   0.00     0.00  -0.00  -0.00     0.00  -0.00  -0.00
   4   1    -0.00   0.00  -0.00     0.00  -0.00   0.00     0.00   0.00  -0.00
   5   6    -0.00   0.00   0.00     0.00  -0.00  -0.00     0.00   0.00   0.00
   6   1     0.00  -0.00  -0.00    -0.00   0.00   0.00     0.00   0.00   0.00
   7   1     0.00  -0.00  -0.00    -0.00   0.00  -0.00    -0.00  -0.00  -0.00
   8   7     0.00  -0.00  -0.00     0.00  -0.00  -0.00    -0.00  -0.00  -0.00
   9   6     0.00  -0.00   0.00     0.00  -0.00  -0.00     0.00   0.00   0.00
  10   1     0.00   0.00  -0.00     0.00   0.00  -0.00    -0.00  -0.00   0.00
  11   1     0.00  -0.00  -0.00    -0.00  -0.00   0.00     0.00   0.00  -0.00
  12   1    -0.00   0.00   0.00    -0.00   0.00  -0.00     0.00   0.00   0.00
  13   6     0.00  -0.00   0.00     0.00   0.00  -0.00     0.00   0.00   0.00
  14   1    -0.00  -0.00  -0.00    -0.00   0.00   0.00     0.00   0.00  -0.00
  15   1    -0.00   0.00  -0.00     0.00  -0.00  -0.00     0.00   0.00   0.00
  16   1     0.00   0.00   0.00    -0.00  -0.00  -0.00    -0.00  -0.00  -0.00
  17   6    -0.00   0.00   0.00     0.00  -0.00  -0.00     0.00   0.00   0.00
  18   1     0.00  -0.00  -0.00     0.00   0.00   0.00    -0.00   0.00  -0.00
  19   1     0.00  -0.00  -0.00    -0.00   0.00   0.00     0.00   0.00   0.00
  20   1     0.00   0.00  -0.00     0.00  -0.00   0.00     0.00   0.00   0.00
  21   1    -0.00   0.00   0.00     0.00  -0.00   0.00     0.00  -0.00  -0.00
  22   6    -0.00  -0.00   0.00    -0.00   0.00  -0.00     0.00   0.00   0.01
  23   8    -0.00  -0.00  -0.00     0.00  -0.00   0.00    -0.00  -0.00  -0.00
  24   7    -0.00  -0.00   0.00     0.00   0.00  -0.00     0.01   0.01  -0.00
  25   1     0.01   0.01  -0.01    -0.00  -0.00   0.00    -0.03  -0.03   0.02
  26   1    -0.00   0.00   0.00     0.00   0.00   0.00    -0.00  -0.02  -0.01
  27   7    -0.00  -0.00  -0.00     0.00   0.00   0.00    -0.01   0.09   0.29
  28   1     0.00   0.00   0.00    -0.00  -0.00  -0.00    -0.23  -0.38  -0.40
  29   1    -0.00  -0.00   0.00     0.00   0.00  -0.00     0.28   0.04  -0.69
  30   6     0.00   0.00  -0.00     0.00   0.01  -0.01     0.00  -0.00   0.00
  31   8    -0.00  -0.00   0.00    -0.00  -0.00   0.00    -0.00   0.00  -0.00
  32   7     0.00  -0.00   0.01     0.02   0.17  -0.18    -0.00  -0.00   0.00
  33   1     0.00  -0.00   0.00    -0.08  -0.08  -0.02     0.00   0.00   0.00
  34   1    -0.00   0.02  -0.02     0.01  -0.59   0.68    -0.00   0.01  -0.01
  35   7    -0.00  -0.01   0.01     0.01   0.04  -0.07     0.00   0.00  -0.00
  36   1     0.01   0.02  -0.03    -0.06  -0.16   0.26    -0.00  -0.00   0.00
  37   1    -0.00  -0.00   0.00     0.02   0.01   0.02    -0.00  -0.00  -0.00
  38   6     0.00   0.00  -0.00     0.00  -0.00  -0.00    -0.00  -0.00   0.00
  39   8    -0.00  -0.00   0.00    -0.00  -0.00   0.00     0.00   0.00  -0.00
  40   7     0.00   0.00   0.01    -0.00   0.00   0.00     0.00  -0.00  -0.00
  41   1    -0.01  -0.01  -0.02    -0.00  -0.00  -0.00     0.00   0.00   0.00
  42   1     0.00  -0.00  -0.00     0.01  -0.00  -0.01    -0.00   0.00   0.00
  43   7     0.04   0.00  -0.05    -0.00   0.00   0.01    -0.00  -0.00   0.00
  44   1    -0.12  -0.00   0.18     0.01   0.00  -0.02     0.00   0.00  -0.00
  45   1    -0.02  -0.01  -0.00    -0.00  -0.00   0.00     0.00   0.00   0.00
  46   6     0.00  -0.00  -0.01     0.00   0.00  -0.00    -0.00  -0.00   0.00
  47   8    -0.00   0.00   0.00    -0.00  -0.00   0.00     0.00   0.00  -0.00
  48   7     0.12   0.01  -0.23     0.00  -0.00  -0.01     0.00   0.00  -0.00
  49   1     0.05   0.04   0.06     0.00   0.00   0.01    -0.00  -0.00  -0.00
  50   1    -0.47  -0.05   0.80    -0.02  -0.00   0.04    -0.00  -0.00   0.00
  51   7    -0.02  -0.01   0.01    -0.00  -0.00   0.00    -0.00  -0.00  -0.00
  52   1     0.01   0.00  -0.02     0.00   0.00  -0.00    -0.00  -0.00   0.00
  53   1     0.07   0.05  -0.01     0.00   0.00  -0.00     0.00   0.00   0.00
                    151                    152                    153
                        a                      a                      a 
 Frequencies --  3550.2339              3562.9871              3568.1236
 Red. masses --     1.8759                 2.1788                 2.1879
 Frc consts  --     0.0000                 0.0000                 0.0000
 IR Inten    --    20.4205                14.0958                17.4599
 Raman Activ --     0.0000                 0.0000                 0.0000
 Depolar     --     0.0000                 0.0000                 0.0000
 Atom AN      X      Y      Z        X      Y      Z        X      Y      Z
   1   8     0.21  -0.11  -0.02     0.00  -0.00  -0.00    -0.00   0.00  -0.00
   2   6     0.01  -0.00  -0.00     0.00  -0.00  -0.00     0.00   0.00   0.00
   3   1    -0.01   0.01   0.00    -0.00   0.00   0.00    -0.00   0.00   0.00
   4   1    -0.00   0.00   0.00    -0.00   0.00   0.00     0.00  -0.00   0.00
   5   6    -0.00  -0.00  -0.00    -0.00   0.00   0.00    -0.00  -0.00  -0.00
   6   1    -0.00   0.00   0.00     0.00  -0.00  -0.00    -0.00  -0.00  -0.00
   7   1    -0.00  -0.00  -0.00    -0.00   0.00   0.00     0.00   0.00   0.00
   8   7     0.00  -0.00  -0.00     0.00  -0.00  -0.00    -0.00  -0.00  -0.00
   9   6     0.00  -0.00  -0.00    -0.00   0.00   0.00    -0.00  -0.00  -0.00
  10   1     0.00   0.00  -0.00    -0.00   0.00   0.00     0.00   0.00   0.00
  11   1    -0.00   0.00  -0.00    -0.00   0.00   0.00    -0.00  -0.00  -0.00
  12   1    -0.00   0.00   0.00     0.00  -0.00   0.00    -0.00  -0.00  -0.00
  13   6     0.00  -0.00  -0.00    -0.00  -0.00  -0.00    -0.00  -0.00   0.00
  14   1    -0.00   0.00   0.00    -0.00   0.00  -0.00    -0.00  -0.00  -0.00
  15   1    -0.00   0.00   0.00    -0.00   0.00   0.00    -0.00  -0.00  -0.00
  16   1    -0.00  -0.00  -0.00     0.00   0.00   0.00     0.00   0.00   0.00
  17   6     0.00  -0.00  -0.00    -0.00   0.00   0.00     0.00  -0.00  -0.00
  18   1     0.00  -0.00   0.00    -0.00   0.00  -0.00    -0.00  -0.00   0.00
  19   1    -0.00   0.00   0.00     0.00  -0.00  -0.00    -0.00   0.00   0.00
  20   1    -0.00   0.00  -0.00    -0.00  -0.00   0.00     0.00  -0.00   0.00
  21   1    -0.86   0.44   0.06    -0.01   0.00   0.00     0.00  -0.00  -0.00
  22   6     0.00   0.00   0.00     0.00   0.00   0.00    -0.00  -0.00   0.00
  23   8    -0.00  -0.00  -0.00    -0.00  -0.00  -0.00    -0.00  -0.00  -0.00
  24   7     0.00  -0.00  -0.00     0.00   0.00  -0.00    -0.00  -0.00  -0.00
  25   1    -0.00  -0.00   0.00    -0.00  -0.00   0.00     0.00   0.00  -0.00
  26   1     0.00   0.00   0.00    -0.00  -0.00  -0.00     0.00   0.01   0.00
  27   7    -0.00   0.00   0.00    -0.00   0.00   0.00    -0.00  -0.00   0.00
  28   1    -0.00  -0.00  -0.00    -0.00  -0.00  -0.00    -0.00   0.00   0.00
  29   1     0.00   0.00  -0.00     0.00   0.00  -0.00     0.00  -0.00  -0.00
  30   6    -0.00   0.00  -0.00    -0.00  -0.00   0.00     0.00   0.00  -0.00
  31   8     0.00  -0.00   0.00     0.00   0.00  -0.00    -0.00  -0.00   0.00
  32   7     0.00   0.00  -0.00    -0.00  -0.00   0.00     0.00   0.00  -0.00
  33   1    -0.00  -0.00  -0.00     0.01   0.01   0.00    -0.00  -0.00  -0.00
  34   1    -0.00  -0.00   0.00    -0.00   0.01  -0.01     0.00  -0.00   0.00
  35   7     0.00   0.00  -0.00    -0.00  -0.00   0.00    -0.00   0.00  -0.00
  36   1    -0.00  -0.00   0.00     0.00   0.00  -0.00    -0.00  -0.00   0.00
  37   1    -0.00   0.00  -0.00    -0.00  -0.00  -0.00     0.01   0.00   0.01
  38   6    -0.00  -0.00  -0.00    -0.00   0.00   0.01     0.00  -0.00  -0.00
  39   8     0.00  -0.00   0.00     0.00  -0.00  -0.00    -0.00   0.00   0.00
  40   7     0.00  -0.00  -0.00    -0.03   0.06   0.29     0.00  -0.00  -0.00
  41   1     0.00   0.00   0.01    -0.29  -0.20  -0.60     0.00   0.00   0.00
  42   1    -0.00   0.00   0.00     0.40  -0.01  -0.52    -0.00   0.00   0.00
  43   7    -0.00   0.00   0.00    -0.01  -0.00   0.02     0.00   0.00  -0.00
  44   1     0.00   0.00  -0.00     0.05   0.00  -0.07    -0.00  -0.00   0.00
  45   1    -0.00  -0.00   0.00     0.01   0.00   0.00    -0.00  -0.00  -0.00
  46   6    -0.00   0.00   0.00     0.00   0.00  -0.00     0.01   0.01  -0.01
  47   8     0.00  -0.00  -0.00     0.00  -0.00   0.00    -0.00  -0.00   0.00
  48   7    -0.00  -0.00   0.00    -0.00   0.00   0.00     0.01  -0.00  -0.02
  49   1    -0.00  -0.00  -0.00    -0.00  -0.00  -0.00     0.00   0.00   0.01
  50   1     0.00   0.00  -0.00     0.00   0.00  -0.00    -0.04  -0.01   0.06
  51   7     0.00   0.00   0.00     0.00   0.00  -0.00     0.22   0.13  -0.17
  52   1     0.00   0.00  -0.00    -0.00  -0.00   0.00    -0.27  -0.08   0.60
  53   1    -0.00  -0.00   0.00    -0.00  -0.00   0.00    -0.55  -0.40   0.03
