      -----------------------------------------------------------      
     |                   =====================                   |     
     |                           x T B                           |     
     |                   =====================                   |     
     |                         S. Grimme                         |     
     |          Mulliken Center for Theoretical Chemistry        |     
     |                    University of Bonn                     |     
      -----------------------------------------------------------      

   * xtb version 6.6.1 (unknown-commit) compiled by '@Linux' on 12/27/2023

   xtb is free software: you can redistribute it and/or modify it under
   the terms of the GNU Lesser General Public License as published by
   the Free Software Foundation, either version 3 of the License, or
   (at your option) any later version.
   
   xtb is distributed in the hope that it will be useful,
   but WITHOUT ANY WARRANTY; without even the implied warranty of
   MERCHANTABILITY or FITNESS FOR A PARTICULAR PURPOSE.  See the
   GNU Lesser General Public License for more details.
   
   Cite this work as:
   * C. Bannwarth, E. Caldeweyher, S. Ehlert, A. Hansen, P. Pracht,
     J. Seibert, S. Spicher, S. Grimme, WIREs Comput. Mol. Sci., 2020, 11,
     e01493. DOI: 10.1002/wcms.1493
   
   for GFN2-xTB:
   * C. Bannwarth, S. Ehlert and S. Grimme., J. Chem. Theory Comput., 2019,
     15, 1652-1671. DOI: 10.1021/acs.jctc.8b01176
   for GFN1-xTB:
   * S. Grimme, C. Bannwarth, P. Shushkov, J. Chem. Theory Comput., 2017,
     13, 1989-2009. DOI: 10.1021/acs.jctc.7b00118
   for GFN0-xTB:
   * P. Pracht, E. Caldeweyher, S. Ehlert, S. Grimme, ChemRxiv, 2019, preprint.
     DOI: 10.26434/chemrxiv.8326202.v1
   for GFN-FF:
   * S. Spicher and S. Grimme, Angew. Chem. Int. Ed., 2020, 59, 15665-15673.
     DOI: 10.1002/anie.202004239
   
   for ALPB and GBSA implicit solvation:
   * S. Ehlert, M. Stahn, S. Spicher, S. Grimme, J. Chem. Theory Comput.,
     2021, 17, 4250-4261. DOI: 10.1021/acs.jctc.1c00471
   
   for DFT-D4:
   * E. Caldeweyher, C. Bannwarth and S. Grimme, J. Chem. Phys., 2017,
     147, 034112. DOI: 10.1063/1.4993215
   * E. Caldeweyher, S. Ehlert, A. Hansen, H. Neugebauer, S. Spicher,
     C. Bannwarth and S. Grimme, J. Chem. Phys., 2019, 150, 154122.
     DOI: 10.1063/1.5090222
   * E. Caldeweyher, J.-M. Mewes, S. Ehlert and S. Grimme, Phys. Chem. Chem. Phys.
     2020, 22, 8499-8512. DOI: 10.1039/D0CP00502A
   
   for sTDA-xTB:
   * S. Grimme and C. Bannwarth, J. Chem. Phys., 2016, 145, 054103.
     DOI: 10.1063/1.4959605
   
   in the mass-spec context:
   * V. Asgeirsson, C. Bauer and S. Grimme, Chem. Sci., 2017, 8, 4879.
     DOI: 10.1039/c7sc00601b
   * J. Koopman and S. Grimme, ACS Omega 2019, 4, 12, 15120-15133.
     DOI: 10.1021/acsomega.9b02011
   
   for metadynamics refer to:
   * S. Grimme, J. Chem. Theory Comput., 2019, 155, 2847-2862
     DOI: 10.1021/acs.jctc.9b00143
   
   for SPH calculations refer to:
   * S. Spicher and S. Grimme, J. Chem. Theory Comput., 2021, 17, 1701-1714
     DOI: 10.1021/acs.jctc.0c01306
   
   with help from (in alphabetical order)
   P. Atkinson, C. Bannwarth, F. Bohle, G. Brandenburg, E. Caldeweyher
   M. Checinski, S. Dohm, S. Ehlert, S. Ehrlich, I. Gerasimov, C. Hölzer
   A. Katbashev, J. Koopman, C. Lavigne, S. Lehtola, F. März, M. Müller,
   F. Musil, H. Neugebauer, J. Pisarek, C. Plett, P. Pracht, F. Pultar,
   J. Seibert, P. Shushkov, S. Spicher, M. Stahn, M. Steiner, T. Strunk,
   J. Stückrath, T. Rose, and J. Unsleber
   
 * started run on 2024/01/10 at 15:41:34.584     

           -------------------------------------------------
          |                Calculation Setup                |
           -------------------------------------------------

          program call               : xtb struc.xyz --gfn2 --hess
          hostname                   : swaroop
          coordinate file            : struc.xyz
          omp threads                :                     1

   ID    Z sym.   atoms
    1    8 O      1, 23, 31, 39, 47
    2    6 C      2, 5, 9, 13, 17, 22, 30, 38, 46
    3    1 H      3, 4, 6, 7, 10-12, 14-16, 18-21, 25, 26, 28, 29, 33, 34,
                  36, 37, 41, 42, 44, 45, 49, 50, 52, 53
    4    7 N      8, 24, 27, 32, 35, 40, 43, 48, 51

molecular fragmentation (1/2 indicates fragments):
11111111111111111111122222222222222222222222222222222
# atoms in fragment 1/2:    21    32
 fragment masses (1/2) :      104.17      240.22
CMA distance (Bohr)    :   2.888
constraining FC (au)   :  0.0500

           -------------------------------------------------
          |                 G F N 2 - x T B                 |
           -------------------------------------------------

        Reference                      10.1021/acs.jctc.8b01176
      * Hamiltonian:
        H0-scaling (s, p, d)           1.850000    2.230000    2.230000
        zeta-weighting                 0.500000
      * Dispersion:
        s8                             2.700000
        a1                             0.520000
        a2                             5.000000
        s9                             5.000000
      * Repulsion:
        kExp                           1.500000    1.000000
        rExp                           1.000000
      * Coulomb:
        alpha                          2.000000
        third order                    shell-resolved
        anisotropic                    true
        a3                             3.000000
        a5                             4.000000
        cn-shift                       1.200000
        cn-exp                         4.000000
        max-rad                        5.000000


          ...................................................
          :                      SETUP                      :
          :.................................................:
          :  # basis functions                 122          :
          :  # atomic orbitals                 122          :
          :  # shells                           76          :
          :  # electrons                       140          :
          :  max. iterations                   250          :
          :  Hamiltonian                  GFN2-xTB          :
          :  restarted?                      false          :
          :  GBSA solvation                  false          :
          :  PC potential                    false          :
          :  electronic temp.          300.0000000     K    :
          :  accuracy                    1.0000000          :
          :  -> integral cutoff          0.2500000E+02      :
          :  -> integral neglect         0.1000000E-07      :
          :  -> SCF convergence          0.1000000E-05 Eh   :
          :  -> wf. convergence          0.1000000E-03 e    :
          :  Broyden damping             0.4000000          :
          ...................................................

 iter      E             dE          RMSdq      gap      omega  full diag
   1    -81.5476278 -0.815476E+02  0.440E+00    5.14       0.0  T
   2    -81.8402360 -0.292608E+00  0.242E+00    5.84       1.0  T
   3    -81.8459302 -0.569415E-02  0.118E+00    5.49       1.0  T
   4    -81.8473199 -0.138974E-02  0.239E-01    5.53       1.0  T
   5    -81.8482192 -0.899245E-03  0.928E-02    5.44       1.0  T
   6    -81.8482435 -0.243608E-04  0.269E-02    5.47       1.0  T
   7    -81.8482487 -0.516215E-05  0.741E-03    5.46       1.9  T
   8    -81.8482489 -0.185487E-06  0.230E-03    5.46       6.0  T
   9    -81.8482489 -0.212904E-07  0.711E-04    5.46      19.3  T
  10    -81.8482489 -0.397561E-08  0.179E-04    5.46      76.8  T

   *** convergence criteria satisfied after 10 iterations ***

         #    Occupation            Energy/Eh            Energy/eV
      -------------------------------------------------------------
         1        2.0000           -0.7927870             -21.5728
       ...           ...                  ...                  ...
        64        2.0000           -0.4993673             -13.5885
        65        2.0000           -0.4991268             -13.5819
        66        2.0000           -0.4957541             -13.4902
        67        2.0000           -0.4926317             -13.4052
        68        2.0000           -0.4884845             -13.2923
        69        2.0000           -0.4843067             -13.1787
        70        2.0000           -0.4783990             -13.0179 (HOMO)
        71                         -0.2777507              -7.5580 (LUMO)
        72                         -0.2678488              -7.2885
        73                         -0.2669621              -7.2644
        74                         -0.2521919              -6.8625
        75                         -0.1474940              -4.0135
       ...                                ...                  ...
       122                          0.5654387              15.3864
      -------------------------------------------------------------
                  HL-Gap            0.2006483 Eh            5.4599 eV
             Fermi-level           -0.3780748 Eh          -10.2879 eV

 SCC (total)                   0 d,  0 h,  0 min,  0.092 sec
 SCC setup                      ...        0 min,  0.000 sec (  0.311%)
 Dispersion                     ...        0 min,  0.001 sec (  0.646%)
 classical contributions        ...        0 min,  0.000 sec (  0.198%)
 integral evaluation            ...        0 min,  0.008 sec (  8.742%)
 iterations                     ...        0 min,  0.054 sec ( 59.245%)
 molecular gradient             ...        0 min,  0.028 sec ( 30.535%)
 printout                       ...        0 min,  0.000 sec (  0.310%)

         :::::::::::::::::::::::::::::::::::::::::::::::::::::
         ::                     SUMMARY                     ::
         :::::::::::::::::::::::::::::::::::::::::::::::::::::
         :: total energy             -80.932200258319 Eh    ::
         :: gradient norm              0.000173793646 Eh/a0 ::
         :: HOMO-LUMO gap              5.459918546658 eV    ::
         ::.................................................::
         :: SCC energy               -81.848248898055 Eh    ::
         :: -> isotropic ES            0.293124551054 Eh    ::
         :: -> anisotropic ES         -0.029533717234 Eh    ::
         :: -> anisotropic XC          0.021022035531 Eh    ::
         :: -> dispersion             -0.045265191899 Eh    ::
         :: repulsion energy           0.914881104708 Eh    ::
         :: add. restraining           0.000000000000 Eh    ::
         :: total charge               1.000000000000 e     ::
         :::::::::::::::::::::::::::::::::::::::::::::::::::::

           ------------------------------------------------- 
          |                Numerical Hessian                |
           ------------------------------------------------- 
step length          :   0.00500
SCC accuracy         :   0.30000
Hessian scale factor :   1.00000
frozen atoms in %    :   0.00000    0
RMS gradient         :   0.00017
estimated CPU  time      0.24 min
estimated wall time      0.24 min

writing file <hessian>.

 projected vibrational frequencies (cm⁻¹)
eigval :       -0.00    -0.00    -0.00    -0.00     0.00     0.00
eigval :        7.64    21.74    23.38    28.48    32.75    37.55
eigval :       42.20    49.89    62.42    63.00    65.71    70.58
eigval :       77.10    79.37    93.65    96.30   103.30   109.45
eigval :      116.90   125.40   139.51   141.55   150.14   163.10
eigval :      171.16   195.34   260.05   271.71   273.62   277.78
eigval :      290.73   314.03   327.48   344.20   357.60   365.72
eigval :      382.33   391.98   435.01   444.18   456.54   459.58
eigval :      461.38   465.03   470.73   472.78   476.41   479.40
eigval :      487.69   495.56   499.66   532.08   532.80   535.19
eigval :      542.38   546.38   590.37   632.59   646.84   669.08
eigval :      674.44   676.69   679.45   710.71   758.64   771.32
eigval :      910.59   936.86   958.97   959.66   962.21   965.69
eigval :      998.58  1001.53  1007.56  1010.01  1013.00  1014.50
eigval :     1024.35  1039.15  1040.01  1084.30  1084.93  1086.38
eigval :     1089.37  1092.62  1109.18  1129.26  1174.53  1225.73
eigval :     1252.93  1281.35  1313.05  1330.46  1349.91  1353.12
eigval :     1357.08  1364.10  1367.94  1385.27  1400.54  1409.29
eigval :     1424.87  1429.80  1433.82  1447.26  1449.87  1452.85
eigval :     1455.36  1459.61  1463.41  1463.89  1474.16  1477.05
eigval :     1489.47  1498.25  1499.79  1504.26  1509.67  1688.89
eigval :     1704.59  1710.61  1719.16  2932.56  2981.11  2993.96
eigval :     2997.21  3018.99  3034.48  3039.32  3042.35  3048.62
eigval :     3049.87  3069.09  3076.52  3088.00  3162.68  3332.99
eigval :     3367.64  3384.16  3418.56  3494.29  3496.93  3498.37
eigval :     3501.51  3522.88  3525.47  3534.74  3543.67  3559.06
eigval :     3562.28  3562.86  3569.19
           -------------------------------------------------
          |                Property Printout                |
           -------------------------------------------------

    * Orbital Energies and Occupations

         #    Occupation            Energy/Eh            Energy/eV
      -------------------------------------------------------------
         1        2.0000           -0.7927878             -21.5729
       ...           ...                  ...                  ...
        58        2.0000           -0.5132839             -13.9672
        59        2.0000           -0.5114272             -13.9166
        60        2.0000           -0.5062576             -13.7760
        61        2.0000           -0.5051741             -13.7465
        62        2.0000           -0.5014346             -13.6447
        63        2.0000           -0.5002436             -13.6123
        64        2.0000           -0.4993685             -13.5885
        65        2.0000           -0.4991275             -13.5819
        66        2.0000           -0.4957554             -13.4902
        67        2.0000           -0.4926327             -13.4052
        68        2.0000           -0.4884866             -13.2924
        69        2.0000           -0.4843087             -13.1787
        70        2.0000           -0.4784012             -13.0180 (HOMO)
        71                         -0.2777521              -7.5580 (LUMO)
        72                         -0.2678486              -7.2885
        73                         -0.2669634              -7.2644
        74                         -0.2521938              -6.8625
        75                         -0.1474941              -4.0135
        76                         -0.1053958              -2.8680
        77                         -0.0951474              -2.5891
        78                         -0.0832737              -2.2660
        79                         -0.0786406              -2.1399
        80                         -0.0743565              -2.0233
        81                         -0.0681782              -1.8552
       ...                                ...                  ...
       122                          0.5654372              15.3863
      -------------------------------------------------------------
                  HL-Gap            0.2006491 Eh            5.4599 eV
             Fermi-level           -0.3780767 Eh          -10.2880 eV

     #   Z          covCN         q      C6AA      α(0)
     1   8 O        1.653    -0.477    22.406     6.390
     2   6 C        3.673     0.067    19.689     6.359
     3   1 H        0.924     0.075     2.034     2.230
     4   1 H        0.924     0.043     2.415     2.430
     5   6 C        3.764    -0.063    21.761     6.649
     6   1 H        0.924     0.124     1.582     1.967
     7   1 H        0.924     0.068     2.106     2.270
     8   7 N        3.624     0.158    18.581     6.402
     9   6 C        3.729    -0.124    22.984     6.844
    10   1 H        0.925     0.095     1.828     2.114
    11   1 H        0.925     0.120     1.611     1.985
    12   1 H        0.925     0.118     1.627     1.994
    13   6 C        3.736    -0.108    22.655     6.793
    14   1 H        0.925     0.081     1.973     2.196
    15   1 H        0.925     0.110     1.694     2.035
    16   1 H        0.925     0.111     1.689     2.032
    17   6 C        3.724    -0.119    22.901     6.833
    18   1 H        0.925     0.073     2.052     2.240
    19   1 H        0.925     0.113     1.672     2.022
    20   1 H        0.924     0.130     1.531     1.935
    21   1 H        0.802     0.345     0.600     1.217
    22   6 C        2.675     0.343    21.174     7.530
    23   8 O        0.860    -0.528    24.421     6.626
    24   7 N        2.645    -0.294    27.585     7.800
    25   1 H        0.860     0.197     1.121     1.658
    26   1 H        0.861     0.184     1.194     1.711
    27   7 N        2.645    -0.298    27.688     7.815
    28   1 H        0.861     0.181     1.210     1.723
    29   1 H        0.860     0.231     0.959     1.534
    30   6 C        2.675     0.345    21.142     7.524
    31   8 O        0.860    -0.525    24.341     6.615
    32   7 N        2.645    -0.288    27.429     7.778
    33   1 H        0.860     0.203     1.093     1.638
    34   1 H        0.861     0.185     1.186     1.706
    35   7 N        2.644    -0.313    28.061     7.867
    36   1 H        0.860     0.178     1.225     1.733
    37   1 H        0.860     0.228     0.975     1.547
    38   6 C        2.675     0.343    21.174     7.530
    39   8 O        0.860    -0.520    24.236     6.601
    40   7 N        2.644    -0.305    27.857     7.839
    41   1 H        0.860     0.229     0.971     1.544
    42   1 H        0.861     0.173     1.257     1.756
    43   7 N        2.645    -0.293    27.565     7.798
    44   1 H        0.861     0.179     1.217     1.728
    45   1 H        0.860     0.199     1.112     1.652
    46   6 C        2.675     0.346    21.128     7.522
    47   8 O        0.860    -0.530    24.450     6.630
    48   7 N        2.645    -0.288    27.423     7.777
    49   1 H        0.860     0.202     1.094     1.638
    50   1 H        0.861     0.187     1.172     1.696
    51   7 N        2.644    -0.301    27.751     7.824
    52   1 H        0.860     0.183     1.195     1.713
    53   1 H        0.860     0.229     0.969     1.542

 Mol. C6AA /au·bohr⁶  :      21789.182779
 Mol. C8AA /au·bohr⁸  :     454211.538495
 Mol. α(0) /au        :        220.532551


Wiberg/Mayer (AO) data.
largest (>0.10) Wiberg bond orders for each atom

 ---------------------------------------------------------------------------
     #   Z sym  total        # sym  WBO       # sym  WBO       # sym  WBO
 ---------------------------------------------------------------------------
     1   8 O    1.970 --     2 C    1.009    21 H    0.806
     2   6 C    3.960 --     1 O    1.009     5 C    0.994     4 H    0.968
                             3 H    0.957
     3   1 H    0.994 --     2 C    0.957
     4   1 H    0.998 --     2 C    0.968
     5   6 C    3.937 --     2 C    0.994     7 H    0.971     6 H    0.944
                             8 N    0.940
     6   1 H    0.985 --     5 C    0.944
     7   1 H    0.995 --     5 C    0.971
     8   7 N    3.822 --    13 C    0.959    17 C    0.956     9 C    0.950
                             5 C    0.940
     9   6 C    3.908 --    10 H    0.971    12 H    0.960    11 H    0.957
                             8 N    0.950
    10   1 H    0.991 --     9 C    0.971
    11   1 H    0.986 --     9 C    0.957
    12   1 H    0.986 --     9 C    0.960
    13   6 C    3.929 --    14 H    0.979    15 H    0.972    16 H    0.969
                             8 N    0.959
    14   1 H    0.993 --    13 C    0.979
    15   1 H    0.988 --    13 C    0.972
    16   1 H    0.988 --    13 C    0.969
    17   6 C    3.917 --    18 H    0.980    19 H    0.963     8 N    0.956
                            20 H    0.952
    18   1 H    0.995 --    17 C    0.980
    19   1 H    0.987 --    17 C    0.963
    20   1 H    0.983 --    17 C    0.952
    21   1 H    0.881 --     1 O    0.806
    22   6 C    3.959 --    23 O    1.512    27 N    1.240    24 N    1.198
    23   8 O    1.895 --    22 C    1.512    27 N    0.146    24 N    0.135
    24   7 N    3.312 --    22 C    1.198    26 H    0.947    25 H    0.944
                            23 O    0.135
    25   1 H    0.961 --    24 N    0.944
    26   1 H    0.966 --    24 N    0.947
    27   7 N    3.342 --    22 C    1.240    28 H    0.948    29 H    0.902
                            23 O    0.146
    28   1 H    0.967 --    27 N    0.948
    29   1 H    0.946 --    27 N    0.902
    30   6 C    3.959 --    31 O    1.518    35 N    1.216    32 N    1.214
    31   8 O    1.906 --    30 C    1.518    32 N    0.141    35 N    0.140
    32   7 N    3.332 --    30 C    1.214    34 H    0.947    33 H    0.942
                            31 O    0.141
    33   1 H    0.959 --    32 N    0.942
    34   1 H    0.965 --    32 N    0.947
    35   7 N    3.308 --    30 C    1.216    36 H    0.949    37 H    0.892
                            31 O    0.140
    36   1 H    0.968 --    35 N    0.949
    37   1 H    0.948 --    35 N    0.892
    38   6 C    3.959 --    39 O    1.535    40 N    1.220    43 N    1.197
    39   8 O    1.902 --    38 C    1.535    40 N    0.147    43 N    0.139
    40   7 N    3.322 --    38 C    1.220    42 H    0.951    41 H    0.904
                            39 O    0.147
    41   1 H    0.948 --    40 N    0.904
    42   1 H    0.970 --    40 N    0.951
    43   7 N    3.311 --    38 C    1.197    44 H    0.948    45 H    0.943
                            39 O    0.139
    44   1 H    0.968 --    43 N    0.948
    45   1 H    0.960 --    43 N    0.943
    46   6 C    3.959 --    47 O    1.503    51 N    1.224    48 N    1.218
    47   8 O    1.890 --    46 C    1.503    48 N    0.137    51 N    0.137
    48   7 N    3.331 --    46 C    1.218    50 H    0.946    49 H    0.942
                            47 O    0.137
    49   1 H    0.959 --    48 N    0.942
    50   1 H    0.965 --    48 N    0.946
    51   7 N    3.319 --    46 C    1.224    52 H    0.946    53 H    0.908
                            47 O    0.137
    52   1 H    0.966 --    51 N    0.946
    53   1 H    0.947 --    51 N    0.908
 ---------------------------------------------------------------------------

Topologies differ in total number of bonds
Writing topology from bond orders to xtbtopo.mol

molecular dipole:
                 x           y           z       tot (Debye)
 q only:        0.183       0.153      -0.062
   full:        0.517       0.551      -0.387       2.156
molecular quadrupole (traceless):
                xx          xy          yy          xz          yz          zz
 q only:       -7.828     -26.673      30.590       1.507      -7.819     -22.762
  q+dip:       -9.133     -33.174      39.732       4.287     -10.773     -30.599
   full:       -9.683     -33.057      39.168       4.241     -10.773     -29.485

           -------------------------------------------------
          |               Frequency Printout                |
           -------------------------------------------------
 projected vibrational frequencies (cm⁻¹)
eigval :       -0.00    -0.00    -0.00    -0.00     0.00     0.00
eigval :        7.64    21.74    23.38    28.48    32.75    37.55
eigval :       42.20    49.89    62.42    63.00    65.71    70.58
eigval :       77.10    79.37    93.65    96.30   103.30   109.45
eigval :      116.90   125.40   139.51   141.55   150.14   163.10
eigval :      171.16   195.34   260.05   271.71   273.62   277.78
eigval :      290.73   314.03   327.48   344.20   357.60   365.72
eigval :      382.33   391.98   435.01   444.18   456.54   459.58
eigval :      461.38   465.03   470.73   472.78   476.41   479.40
eigval :      487.69   495.56   499.66   532.08   532.80   535.19
eigval :      542.38   546.38   590.37   632.59   646.84   669.08
eigval :      674.44   676.69   679.45   710.71   758.64   771.32
eigval :      910.59   936.86   958.97   959.66   962.21   965.69
eigval :      998.58  1001.53  1007.56  1010.01  1013.00  1014.50
eigval :     1024.35  1039.15  1040.01  1084.30  1084.93  1086.38
eigval :     1089.37  1092.62  1109.18  1129.26  1174.53  1225.73
eigval :     1252.93  1281.35  1313.05  1330.46  1349.91  1353.12
eigval :     1357.08  1364.10  1367.94  1385.27  1400.54  1409.29
eigval :     1424.87  1429.80  1433.82  1447.26  1449.87  1452.85
eigval :     1455.36  1459.61  1463.41  1463.89  1474.16  1477.05
eigval :     1489.47  1498.25  1499.79  1504.26  1509.67  1688.89
eigval :     1704.59  1710.61  1719.16  2932.56  2981.11  2993.96
eigval :     2997.21  3018.99  3034.48  3039.32  3042.35  3048.62
eigval :     3049.87  3069.09  3076.52  3088.00  3162.68  3332.99
eigval :     3367.64  3384.16  3418.56  3494.29  3496.93  3498.37
eigval :     3501.51  3522.88  3525.47  3534.74  3543.67  3559.06
eigval :     3562.28  3562.86  3569.19
 reduced masses (amu)
   1: 12.55   2: 12.50   3: 12.45   4: 12.81   5: 12.45   6: 12.73   7: 12.36   8: 12.42
   9: 12.05  10: 12.36  11: 12.09  12: 12.24  13: 12.72  14: 12.37  15: 12.43  16: 12.65
  17: 12.18  18: 12.33  19: 12.70  20: 13.15  21: 11.89  22: 13.00  23: 12.95  24: 12.67
  25: 12.92  26: 12.68  27: 11.22  28: 12.49  29: 11.09  30: 11.47  31: 12.83  32:  2.38
  33:  6.56  34:  4.22  35:  4.59  36:  5.12  37:  8.20  38:  4.96  39:  3.31  40:  2.67
  41:  5.41  42:  3.95  43:  7.19  44:  3.35  45:  8.63  46:  2.64  47:  6.63  48:  5.07
  49:  2.02  50:  6.94  51:  4.84  52:  8.60  53:  8.42  54:  5.86  55:  8.27  56:  2.22
  57:  2.75  58: 10.37  59:  9.59  60: 11.02  61: 11.30  62: 11.29  63:  2.34  64:  2.18
  65:  2.19  66:  8.96  67: 12.02  68: 11.79  69: 11.03  70:  5.25  71:  4.56  72:  7.05
  73:  7.80  74:  7.40  75:  5.34  76:  4.90  77:  4.92  78:  5.10  79:  9.09  80:  7.98
  81:  9.12  82:  9.26  83:  8.67  84:  8.25  85:  5.68  86:  3.11  87:  7.49  88:  8.86
  89:  9.08  90:  8.96  91:  8.62  92:  8.47  93:  4.39  94:  6.63  95:  3.09  96:  4.81
  97:  6.78  98:  7.97  99:  6.41 100:  3.34 101:  5.41 102:  5.76 103:  5.66 104:  5.18
 105:  5.08 106:  3.20 107:  2.50 108:  2.51 109:  2.06 110:  1.65 111:  2.30 112:  2.05
 113:  1.78 114:  3.19 115:  2.43 116:  2.85 117:  2.94 118:  2.69 119:  1.70 120:  1.66
 121:  1.97 122:  7.49 123:  7.99 124:  8.41 125:  8.27 126: 12.61 127: 12.70 128: 12.75
 129: 12.81 130:  1.77 131:  1.70 132:  1.69 133:  1.80 134:  1.76 135:  1.76 136:  1.62
 137:  1.73 138:  1.75 139:  1.80 140:  1.65 141:  1.66 142:  1.86 143:  1.90 144:  1.72
 145:  1.70 146:  1.69 147:  1.64 148:  1.45 149:  1.45 150:  1.45 151:  1.45 152:  1.94
 153:  2.00 154:  1.96 155:  1.98 156:  2.18 157:  2.18 158:  2.17 159:  2.19
 IR intensities (km·mol⁻¹)
   1:  0.56   2:  0.13   3:  2.10   4:  2.73   5:  0.28   6:  2.98   7:  0.45   8:  0.26
   9:  0.53  10:  3.07  11:  1.07  12:  2.59  13:  2.29  14:  1.55  15:  2.62  16:  3.24
  17:  7.99  18:  5.46  19:  8.32  20:  4.10  21:  9.65  22:  4.55  23:  0.64  24:  2.18
  25:  5.81  26:  4.92  27: 20.75  28: 19.09  29: 31.87  30:  5.60  31: 38.26  32:188.73
  33: 12.83  34: 92.13  35: 17.41  36: 11.06  37:  0.93  38:  3.40  39:181.25  40: 27.71
  41:  3.36  42: 45.55  43:  9.77  44:579.81  45:  2.09  46:211.09  47: 25.69  48: 49.07
  49: 18.96  50: 67.01  51: 24.35  52: 17.42  53: 20.76  54:  7.37  55: 25.99  56:  1.04
  57:  7.50  58:  1.56  59:  4.14  60: 17.89  61: 52.75  62: 10.70  63:175.90  64: 47.09
  65:260.08  66: 30.98  67: 22.30  68: 41.82  69:157.37  70:307.61  71:156.49  72: 67.55
  73:  7.73  74:  9.31  75:  4.38  76:  1.41  77:  2.53  78:  1.04  79: 14.16  80: 27.56
  81:  2.36  82:  0.38  83:  8.77  84: 27.36  85: 25.69  86:  0.66  87:  7.87  88: 35.94
  89:  5.72  90:  1.62  91:  2.55  92:  1.51  93:  6.91  94: 31.82  95: 23.35  96:  1.18
  97:  4.56  98: 20.21  99:  3.79 100:  4.60 101: 16.17 102:234.08 103:142.37 104: 43.57
 105: 55.18 106: 81.77 107: 34.83 108:  7.91 109:  6.83 110:  2.67 111: 15.98 112:  8.39
 113:  8.81 114: 33.31 115: 23.33 116:  3.94 117: 16.72 118:  9.76 119:  9.24 120: 16.00
 121: 72.05 122:733.82 123: 76.24 124:869.73 125:198.13 126:509.32 127:432.04 128:******
 129:709.68 130: 27.62 131: 42.76 132:  0.39 133: 16.89 134: 30.80 135: 73.28 136:  5.59
 137:  5.59 138:  6.84 139: 17.73 140:  8.01 141: 12.59 142:  4.88 143:916.89 144:486.43
 145:437.04 146:356.59 147:175.71 148: 23.95 149: 18.61 150: 16.93 151: 22.59 152: 17.99
 153: 23.37 154: 12.50 155: 21.55 156: 15.71 157: 13.27 158: 11.47 159: 16.15
 Raman intensities (amu)
Molecule has no symmetry elements
It seems to be the C1 point group
   1:  0.00   2:  0.00   3:  0.00   4:  0.00   5:  0.00   6:  0.00   7:  0.00   8:  0.00
   9:  0.00  10:  0.00  11:  0.00  12:  0.00  13:  0.00  14:  0.00  15:  0.00  16:  0.00
  17:  0.00  18:  0.00  19:  0.00  20:  0.00  21:  0.00  22:  0.00  23:  0.00  24:  0.00
  25:  0.00  26:  0.00  27:  0.00  28:  0.00  29:  0.00  30:  0.00  31:  0.00  32:  0.00
  33:  0.00  34:  0.00  35:  0.00  36:  0.00  37:  0.00  38:  0.00  39:  0.00  40:  0.00
  41:  0.00  42:  0.00  43:  0.00  44:  0.00  45:  0.00  46:  0.00  47:  0.00  48:  0.00
  49:  0.00  50:  0.00  51:  0.00  52:  0.00  53:  0.00  54:  0.00  55:  0.00  56:  0.00
  57:  0.00  58:  0.00  59:  0.00  60:  0.00  61:  0.00  62:  0.00  63:  0.00  64:  0.00
  65:  0.00  66:  0.00  67:  0.00  68:  0.00  69:  0.00  70:  0.00  71:  0.00  72:  0.00
  73:  0.00  74:  0.00  75:  0.00  76:  0.00  77:  0.00  78:  0.00  79:  0.00  80:  0.00
  81:  0.00  82:  0.00  83:  0.00  84:  0.00  85:  0.00  86:  0.00  87:  0.00  88:  0.00
  89:  0.00  90:  0.00  91:  0.00  92:  0.00  93:  0.00  94:  0.00  95:  0.00  96:  0.00
  97:  0.00  98:  0.00  99:  0.00 100:  0.00 101:  0.00 102:  0.00 103:  0.00 104:  0.00
 105:  0.00 106:  0.00 107:  0.00 108:  0.00 109:  0.00 110:  0.00 111:  0.00 112:  0.00
 113:  0.00 114:  0.00 115:  0.00 116:  0.00 117:  0.00 118:  0.00 119:  0.00 120:  0.00
 121:  0.00 122:  0.00 123:  0.00 124:  0.00 125:  0.00 126:  0.00 127:  0.00 128:  0.00
 129:  0.00 130:  0.00 131:  0.00 132:  0.00 133:  0.00 134:  0.00 135:  0.00 136:  0.00
 137:  0.00 138:  0.00 139:  0.00 140:  0.00 141:  0.00 142:  0.00 143:  0.00 144:  0.00
 145:  0.00 146:  0.00 147:  0.00 148:  0.00 149:  0.00 150:  0.00 151:  0.00 152:  0.00
 153:  0.00 154:  0.00 155:  0.00 156:  0.00 157:  0.00 158:  0.00 159:  0.00
 output can be read by thermo (or use thermo option).
 writing <g98.out> molden fake output.
 recommended (thermochemical) frequency scaling factor: 1.0
           -------------------------------------------------
          |             Thermodynamic Functions             |
           -------------------------------------------------

c1  symmetry found (for desy threshold:  0.10E+00) used in thermo

          ...................................................
          :                      SETUP                      :
          :.................................................:
          :  # frequencies                         153      :
          :  # imaginary freq.                       0      :
          :  linear?                             false      :
          :  only rotor calc.                    false      :
          :  symmetry                               c1      :
          :  rotational number                       1      :
          :  scaling factor                  1.0000000      :
          :  rotor cutoff                   50.0000000 cm⁻¹ :
          :  imag. cutoff                  -20.0000000 cm⁻¹ :
          :.................................................:

    mode    ω/cm⁻¹     T·S(HO)/kcal·mol⁻¹    T·S(FR)/kcal·mol⁻¹   T·S(vib)
   ------------------------------------------------------------------------
       1      7.64    -2.54784 (  0.05%)    -1.61283 ( 99.95%)    -1.61334
       2     21.74    -1.92871 (  3.45%)    -1.30327 ( 96.55%)    -1.32484
       3     23.38    -1.88567 (  4.56%)    -1.28173 ( 95.44%)    -1.30927
       4     28.48    -1.76879 (  9.52%)    -1.22323 ( 90.48%)    -1.27519
       5     32.75    -1.68621 ( 15.54%)    -1.18187 ( 84.46%)    -1.26025
       6     37.55    -1.60534 ( 24.13%)    -1.14134 ( 75.87%)    -1.25332
       7     42.20    -1.53634 ( 33.67%)    -1.10674 ( 66.33%)    -1.25137
       8     49.89    -1.43763 ( 49.77%)    -1.05719 ( 50.23%)    -1.24655
       9     62.42    -1.30565 ( 70.84%)    -0.99080 ( 29.16%)    -1.21383
      10     63.00    -1.30019 ( 71.60%)    -0.98805 ( 28.40%)    -1.21154
      11     65.71    -1.27542 ( 74.90%)    -0.97557 ( 25.10%)    -1.20015
      12     70.58    -1.23352 ( 79.88%)    -0.95443 ( 20.12%)    -1.17736
      13     77.10    -1.18166 ( 84.97%)    -0.92823 ( 15.03%)    -1.14358
      14     79.37    -1.16472 ( 86.39%)    -0.91965 ( 13.61%)    -1.13137
      15     93.65    -1.06807 ( 92.49%)    -0.87063 (  7.51%)    -1.05323
      16     96.30    -1.05182 ( 93.23%)    -0.86236 (  6.77%)    -1.03898
      17    103.30    -1.01104 ( 94.80%)    -0.84158 (  5.20%)    -1.00222
      18    109.45    -0.97750 ( 95.83%)    -0.82444 (  4.17%)    -0.97111
      19    116.90    -0.93948 ( 96.76%)    -0.80495 (  3.24%)    -0.93512
      20    125.40    -0.89902 ( 97.54%)    -0.78414 (  2.46%)    -0.89619
      21    139.51    -0.83796 ( 98.38%)    -0.75255 (  1.62%)    -0.83657
      22    141.55    -0.82969 ( 98.47%)    -0.74826 (  1.53%)    -0.82845
      23    150.14    -0.79620 ( 98.78%)    -0.73081 (  1.22%)    -0.79540
      24    163.10    -0.74942 ( 99.12%)    -0.70629 (  0.88%)    -0.74904
      25    171.16    -0.72232 ( 99.28%)    -0.69199 (  0.72%)    -0.72210
      26    195.34    -0.64893 ( 99.57%)    -0.65284 (  0.43%)    -0.64894
      27    260.05    -0.49535 ( 99.86%)    -0.56808 (  0.14%)    -0.49545
      28    271.71    -0.47266 ( 99.89%)    -0.55509 (  0.11%)    -0.47275
      29    273.62    -0.46906 ( 99.89%)    -0.55302 (  0.11%)    -0.46915
      30    277.78    -0.46133 ( 99.90%)    -0.54855 (  0.10%)    -0.46142
      31    290.73    -0.43820 ( 99.91%)    -0.53505 (  0.09%)    -0.43829
   ------------------------------------------------------------------------

   temp. (K)  partition function   enthalpy   heat capacity  entropy
                                   cal/mol     cal/K/mol   cal/K/mol   J/K/mol
 298.15  VIB  0.867E+17            19498.296    105.094    128.484
         ROT  0.135E+08              888.752      2.981     35.607
         INT  0.117E+25            20387.048    108.075    164.091
         TR   0.618E+28             1481.254      4.968     43.384
         TOT                       21868.3022   113.0430   207.4753   868.0766

       T/K    H(0)-H(T)+PV         H(T)/Eh          T*S/Eh         G(T)/Eh
   ------------------------------------------------------------------------
    298.15    0.348494E-01    0.474485E+00    0.985782E-01    0.375907E+00
   ------------------------------------------------------------------------

         :::::::::::::::::::::::::::::::::::::::::::::::::::::
         ::                  THERMODYNAMIC                  ::
         :::::::::::::::::::::::::::::::::::::::::::::::::::::
         :: total free energy         -80.556293411047 Eh   ::
         ::.................................................::
         :: total energy              -80.932200258587 Eh   ::
         :: zero point energy           0.439635696732 Eh   ::
         :: G(RRHO) w/o ZPVE           -0.063728849193 Eh   ::
         :: G(RRHO) contrib.            0.375906847539 Eh   ::
         :::::::::::::::::::::::::::::::::::::::::::::::::::::

           -------------------------------------------------
          | TOTAL ENERGY              -80.932200258587 Eh   |
          | TOTAL ENTHALPY            -80.457715204072 Eh   |
          | TOTAL FREE ENERGY         -80.556293411047 Eh   |
          | GRADIENT NORM               0.000173551719 Eh/α |
          | HOMO-LUMO GAP               5.459939236963 eV   |
           -------------------------------------------------

------------------------------------------------------------------------
 * finished run on 2024/01/10 at 15:41:49.114     
------------------------------------------------------------------------
 total:
 * wall-time:     0 d,  0 h,  0 min, 14.530 sec
 *  cpu-time:     0 d,  0 h,  0 min, 14.473 sec
 * ratio c/w:     0.996 speedup
 SCF:
 * wall-time:     0 d,  0 h,  0 min,  0.092 sec
 *  cpu-time:     0 d,  0 h,  0 min,  0.058 sec
 * ratio c/w:     0.634 speedup
 analytical hessian:
 * wall-time:     0 d,  0 h,  0 min, 14.411 sec
 *  cpu-time:     0 d,  0 h,  0 min, 14.388 sec
 * ratio c/w:     0.998 speedup

