      -----------------------------------------------------------      
     |                   =====================                   |     
     |                           x T B                           |     
     |                   =====================                   |     
     |                         S. Grimme                         |     
     |          Mulliken Center for Theoretical Chemistry        |     
     |                    University of Bonn                     |     
      -----------------------------------------------------------      

   * xtb version 6.6.1 (unknown-commit) compiled by '@Linux' on 12/27/2023

   xtb is free software: you can redistribute it and/or modify it under
   the terms of the GNU Lesser General Public License as published by
   the Free Software Foundation, either version 3 of the License, or
   (at your option) any later version.
   
   xtb is distributed in the hope that it will be useful,
   but WITHOUT ANY WARRANTY; without even the implied warranty of
   MERCHANTABILITY or FITNESS FOR A PARTICULAR PURPOSE.  See the
   GNU Lesser General Public License for more details.
   
   Cite this work as:
   * C. Bannwarth, E. Caldeweyher, S. Ehlert, A. Hansen, P. Pracht,
     J. Seibert, S. Spicher, S. Grimme, WIREs Comput. Mol. Sci., 2020, 11,
     e01493. DOI: 10.1002/wcms.1493
   
   for GFN2-xTB:
   * C. Bannwarth, S. Ehlert and S. Grimme., J. Chem. Theory Comput., 2019,
     15, 1652-1671. DOI: 10.1021/acs.jctc.8b01176
   for GFN1-xTB:
   * S. Grimme, C. Bannwarth, P. Shushkov, J. Chem. Theory Comput., 2017,
     13, 1989-2009. DOI: 10.1021/acs.jctc.7b00118
   for GFN0-xTB:
   * P. Pracht, E. Caldeweyher, S. Ehlert, S. Grimme, ChemRxiv, 2019, preprint.
     DOI: 10.26434/chemrxiv.8326202.v1
   for GFN-FF:
   * S. Spicher and S. Grimme, Angew. Chem. Int. Ed., 2020, 59, 15665-15673.
     DOI: 10.1002/anie.202004239
   
   for ALPB and GBSA implicit solvation:
   * S. Ehlert, M. Stahn, S. Spicher, S. Grimme, J. Chem. Theory Comput.,
     2021, 17, 4250-4261. DOI: 10.1021/acs.jctc.1c00471
   
   for DFT-D4:
   * E. Caldeweyher, C. Bannwarth and S. Grimme, J. Chem. Phys., 2017,
     147, 034112. DOI: 10.1063/1.4993215
   * E. Caldeweyher, S. Ehlert, A. Hansen, H. Neugebauer, S. Spicher,
     C. Bannwarth and S. Grimme, J. Chem. Phys., 2019, 150, 154122.
     DOI: 10.1063/1.5090222
   * E. Caldeweyher, J.-M. Mewes, S. Ehlert and S. Grimme, Phys. Chem. Chem. Phys.
     2020, 22, 8499-8512. DOI: 10.1039/D0CP00502A
   
   for sTDA-xTB:
   * S. Grimme and C. Bannwarth, J. Chem. Phys., 2016, 145, 054103.
     DOI: 10.1063/1.4959605
   
   in the mass-spec context:
   * V. Asgeirsson, C. Bauer and S. Grimme, Chem. Sci., 2017, 8, 4879.
     DOI: 10.1039/c7sc00601b
   * J. Koopman and S. Grimme, ACS Omega 2019, 4, 12, 15120-15133.
     DOI: 10.1021/acsomega.9b02011
   
   for metadynamics refer to:
   * S. Grimme, J. Chem. Theory Comput., 2019, 155, 2847-2862
     DOI: 10.1021/acs.jctc.9b00143
   
   for SPH calculations refer to:
   * S. Spicher and S. Grimme, J. Chem. Theory Comput., 2021, 17, 1701-1714
     DOI: 10.1021/acs.jctc.0c01306
   
   with help from (in alphabetical order)
   P. Atkinson, C. Bannwarth, F. Bohle, G. Brandenburg, E. Caldeweyher
   M. Checinski, S. Dohm, S. Ehlert, S. Ehrlich, I. Gerasimov, C. Hölzer
   A. Katbashev, J. Koopman, C. Lavigne, S. Lehtola, F. März, M. Müller,
   F. Musil, H. Neugebauer, J. Pisarek, C. Plett, P. Pracht, F. Pultar,
   J. Seibert, P. Shushkov, S. Spicher, M. Stahn, M. Steiner, T. Strunk,
   J. Stückrath, T. Rose, and J. Unsleber
   
 * started run on 2024/01/10 at 15:35:56.522     

           -------------------------------------------------
          |                Calculation Setup                |
           -------------------------------------------------

          program call               : xtb struc.xyz --gfn2 --hess
          hostname                   : swaroop
          coordinate file            : struc.xyz
          omp threads                :                     1

   ID    Z sym.   atoms
    1    8 O      1, 23, 31, 39, 47
    2    6 C      2, 5, 9, 13, 17, 22, 30, 38, 46
    3    1 H      3, 4, 6, 7, 10-12, 14-16, 18-21, 25, 26, 28, 29, 33, 34,
                  36, 37, 41, 42, 44, 45, 49, 50, 52, 53
    4    7 N      8, 24, 27, 32, 35, 40, 43, 48, 51

molecular fragmentation (1/2 indicates fragments):
11111111111111111111122222222222222222222222222222222
# atoms in fragment 1/2:    21    32
 fragment masses (1/2) :      104.17      240.22
CMA distance (Bohr)    :   5.700
constraining FC (au)   :  0.0500

           -------------------------------------------------
          |                 G F N 2 - x T B                 |
           -------------------------------------------------

        Reference                      10.1021/acs.jctc.8b01176
      * Hamiltonian:
        H0-scaling (s, p, d)           1.850000    2.230000    2.230000
        zeta-weighting                 0.500000
      * Dispersion:
        s8                             2.700000
        a1                             0.520000
        a2                             5.000000
        s9                             5.000000
      * Repulsion:
        kExp                           1.500000    1.000000
        rExp                           1.000000
      * Coulomb:
        alpha                          2.000000
        third order                    shell-resolved
        anisotropic                    true
        a3                             3.000000
        a5                             4.000000
        cn-shift                       1.200000
        cn-exp                         4.000000
        max-rad                        5.000000


          ...................................................
          :                      SETUP                      :
          :.................................................:
          :  # basis functions                 122          :
          :  # atomic orbitals                 122          :
          :  # shells                           76          :
          :  # electrons                       140          :
          :  max. iterations                   250          :
          :  Hamiltonian                  GFN2-xTB          :
          :  restarted?                      false          :
          :  GBSA solvation                  false          :
          :  PC potential                    false          :
          :  electronic temp.          300.0000000     K    :
          :  accuracy                    1.0000000          :
          :  -> integral cutoff          0.2500000E+02      :
          :  -> integral neglect         0.1000000E-07      :
          :  -> SCF convergence          0.1000000E-05 Eh   :
          :  -> wf. convergence          0.1000000E-03 e    :
          :  Broyden damping             0.4000000          :
          ...................................................

 iter      E             dE          RMSdq      gap      omega  full diag
   1    -81.5527310 -0.815527E+02  0.435E+00    5.02       0.0  T
   2    -81.8393751 -0.286644E+00  0.237E+00    6.02       1.0  T
   3    -81.8449949 -0.561981E-02  0.116E+00    5.70       1.0  T
   4    -81.8463024 -0.130745E-02  0.240E-01    5.74       1.0  T
   5    -81.8472202 -0.917849E-03  0.924E-02    5.67       1.0  T
   6    -81.8472460 -0.257552E-04  0.281E-02    5.69       1.0  T
   7    -81.8472506 -0.464666E-05  0.779E-03    5.69       1.8  T
   8    -81.8472509 -0.304011E-06  0.298E-03    5.69       4.6  T
   9    -81.8472510 -0.401216E-07  0.115E-03    5.69      11.9  T
  10    -81.8472510 -0.768738E-08  0.199E-04    5.69      69.0  T
  11    -81.8472510 -0.416577E-09  0.887E-05    5.69     154.8  T

   *** convergence criteria satisfied after 11 iterations ***

         #    Occupation            Energy/Eh            Energy/eV
      -------------------------------------------------------------
         1        2.0000           -0.7934887             -21.5919
       ...           ...                  ...                  ...
        64        2.0000           -0.4982304             -13.5575
        65        2.0000           -0.4971717             -13.5287
        66        2.0000           -0.4944689             -13.4552
        67        2.0000           -0.4922242             -13.3941
        68        2.0000           -0.4899723             -13.3328
        69        2.0000           -0.4859541             -13.2235
        70        2.0000           -0.4817672             -13.1096 (HOMO)
        71                         -0.2726738              -7.4198 (LUMO)
        72                         -0.2689841              -7.3194
        73                         -0.2645323              -7.1983
        74                         -0.2588801              -7.0445
        75                         -0.1498514              -4.0777
       ...                                ...                  ...
       122                          0.5528307              15.0433
      -------------------------------------------------------------
                  HL-Gap            0.2090934 Eh            5.6897 eV
             Fermi-level           -0.3772205 Eh          -10.2647 eV

 SCC (total)                   0 d,  0 h,  0 min,  0.098 sec
 SCC setup                      ...        0 min,  0.000 sec (  0.301%)
 Dispersion                     ...        0 min,  0.001 sec (  0.609%)
 classical contributions        ...        0 min,  0.000 sec (  0.189%)
 integral evaluation            ...        0 min,  0.008 sec (  7.924%)
 iterations                     ...        0 min,  0.062 sec ( 62.936%)
 molecular gradient             ...        0 min,  0.027 sec ( 27.762%)
 printout                       ...        0 min,  0.000 sec (  0.267%)

         :::::::::::::::::::::::::::::::::::::::::::::::::::::
         ::                     SUMMARY                     ::
         :::::::::::::::::::::::::::::::::::::::::::::::::::::
         :: total energy             -80.935138443547 Eh    ::
         :: gradient norm              0.000081957254 Eh/a0 ::
         :: HOMO-LUMO gap              5.689721356175 eV    ::
         ::.................................................::
         :: SCC energy               -81.847250990700 Eh    ::
         :: -> isotropic ES            0.293088014597 Eh    ::
         :: -> anisotropic ES         -0.028398550454 Eh    ::
         :: -> anisotropic XC          0.020842376835 Eh    ::
         :: -> dispersion             -0.044038887246 Eh    ::
         :: repulsion energy           0.911010611185 Eh    ::
         :: add. restraining           0.000000000000 Eh    ::
         :: total charge               1.000000000000 e     ::
         :::::::::::::::::::::::::::::::::::::::::::::::::::::

           ------------------------------------------------- 
          |                Numerical Hessian                |
           ------------------------------------------------- 
step length          :   0.00500
SCC accuracy         :   0.30000
Hessian scale factor :   1.00000
frozen atoms in %    :   0.00000    0
RMS gradient         :   0.00008
estimated CPU  time      0.23 min
estimated wall time      0.23 min

writing file <hessian>.

 projected vibrational frequencies (cm⁻¹)
eigval :       -0.00    -0.00    -0.00     0.00     0.00     0.00
eigval :       -6.57    11.00    14.24    21.03    28.57    33.99
eigval :       42.06    49.22    52.56    53.81    60.05    74.11
eigval :       77.71    80.47    88.50    93.78   102.20   110.47
eigval :      119.11   123.00   138.49   146.24   148.80   170.53
eigval :      183.70   197.72   256.44   272.63   291.17   302.08
eigval :      313.78   319.45   322.18   346.75   357.32   366.33
eigval :      373.24   406.54   425.55   443.49   443.71   453.11
eigval :      455.09   459.78   466.24   468.99   477.72   487.73
eigval :      493.18   504.97   506.02   508.33   529.36   543.64
eigval :      556.56   572.05   583.43   646.98   668.25   673.07
eigval :      674.17   689.30   754.70   767.03   795.79   841.36
eigval :      901.58   929.11   944.66   973.31   974.19   977.99
eigval :      995.01  1002.28  1011.73  1016.73  1021.42  1029.00
eigval :     1033.51  1039.56  1042.39  1080.63  1084.97  1092.02
eigval :     1098.03  1107.34  1108.70  1131.58  1175.97  1230.69
eigval :     1249.48  1275.28  1318.32  1337.36  1350.66  1351.91
eigval :     1354.45  1364.54  1375.83  1392.13  1402.74  1403.19
eigval :     1418.50  1435.18  1441.18  1444.20  1452.06  1454.32
eigval :     1456.27  1458.62  1468.07  1470.71  1472.23  1479.69
eigval :     1493.90  1498.01  1500.12  1506.45  1535.41  1642.53
eigval :     1692.55  1716.48  1726.23  2883.85  2973.15  2987.84
eigval :     3004.46  3031.75  3035.82  3040.18  3042.35  3043.37
eigval :     3046.44  3050.22  3051.56  3059.54  3062.68  3095.99
eigval :     3315.27  3362.04  3475.08  3479.56  3488.98  3496.38
eigval :     3501.28  3505.65  3533.77  3535.72  3552.45  3553.49
eigval :     3563.65  3565.82  3571.40
           -------------------------------------------------
          |                Property Printout                |
           -------------------------------------------------

    * Orbital Energies and Occupations

         #    Occupation            Energy/Eh            Energy/eV
      -------------------------------------------------------------
         1        2.0000           -0.7934886             -21.5919
       ...           ...                  ...                  ...
        58        2.0000           -0.5106709             -13.8961
        59        2.0000           -0.5069180             -13.7939
        60        2.0000           -0.5044160             -13.7259
        61        2.0000           -0.5037034             -13.7065
        62        2.0000           -0.5002842             -13.6134
        63        2.0000           -0.4997843             -13.5998
        64        2.0000           -0.4982305             -13.5575
        65        2.0000           -0.4971707             -13.5287
        66        2.0000           -0.4944697             -13.4552
        67        2.0000           -0.4922247             -13.3941
        68        2.0000           -0.4899729             -13.3328
        69        2.0000           -0.4859550             -13.2235
        70        2.0000           -0.4817681             -13.1096 (HOMO)
        71                         -0.2726739              -7.4198 (LUMO)
        72                         -0.2689848              -7.3194
        73                         -0.2645326              -7.1983
        74                         -0.2588804              -7.0445
        75                         -0.1498512              -4.0777
        76                         -0.1022918              -2.7835
        77                         -0.0996136              -2.7106
        78                         -0.0835625              -2.2739
        79                         -0.0750696              -2.0427
        80                         -0.0707885              -1.9263
        81                         -0.0686203              -1.8673
       ...                                ...                  ...
       122                          0.5528305              15.0433
      -------------------------------------------------------------
                  HL-Gap            0.2090942 Eh            5.6897 eV
             Fermi-level           -0.3772210 Eh          -10.2647 eV

     #   Z          covCN         q      C6AA      α(0)
     1   8 O        1.652    -0.484    22.549     6.410
     2   6 C        3.673     0.075    19.547     6.336
     3   1 H        0.924     0.055     2.259     2.351
     4   1 H        0.923     0.039     2.461     2.453
     5   6 C        3.769    -0.073    21.930     6.674
     6   1 H        0.924     0.114     1.663     2.017
     7   1 H        0.924     0.106     1.732     2.058
     8   7 N        3.623     0.161    18.538     6.395
     9   6 C        3.736    -0.117    22.830     6.819
    10   1 H        0.925     0.113     1.672     2.022
    11   1 H        0.925     0.080     1.974     2.197
    12   1 H        0.925     0.123     1.588     1.971
    13   6 C        3.721    -0.106    22.641     6.796
    14   1 H        0.925     0.095     1.829     2.115
    15   1 H        0.925     0.081     1.968     2.194
    16   1 H        0.925     0.119     1.620     1.990
    17   6 C        3.723    -0.112    22.756     6.812
    18   1 H        0.925     0.111     1.685     2.030
    19   1 H        0.925     0.121     1.607     1.982
    20   1 H        0.925     0.076     2.025     2.225
    21   1 H        0.802     0.333     0.629     1.246
    22   6 C        2.675     0.342    21.183     7.531
    23   8 O        0.860    -0.534    24.545     6.642
    24   7 N        2.644    -0.295    27.600     7.802
    25   1 H        0.860     0.195     1.132     1.667
    26   1 H        0.861     0.186     1.182     1.703
    27   7 N        2.643    -0.319    28.203     7.887
    28   1 H        0.860     0.194     1.138     1.671
    29   1 H        0.860     0.222     0.999     1.566
    30   6 C        2.675     0.343    21.178     7.530
    31   8 O        0.860    -0.510    24.005     6.569
    32   7 N        2.644    -0.307    27.915     7.847
    33   1 H        0.860     0.232     0.955     1.531
    34   1 H        0.861     0.178     1.224     1.733
    35   7 N        2.644    -0.293    27.563     7.797
    36   1 H        0.860     0.183     1.198     1.714
    37   1 H        0.860     0.202     1.098     1.641
    38   6 C        2.675     0.339    21.237     7.541
    39   8 O        0.861    -0.545    24.798     6.677
    40   7 N        2.644    -0.289    27.450     7.781
    41   1 H        0.860     0.214     1.037     1.595
    42   1 H        0.861     0.187     1.173     1.696
    43   7 N        2.643    -0.296    27.632     7.807
    44   1 H        0.861     0.184     1.191     1.710
    45   1 H        0.859     0.257     0.858     1.451
    46   6 C        2.675     0.346    21.128     7.522
    47   8 O        0.860    -0.523    24.294     6.608
    48   7 N        2.646    -0.289    27.458     7.782
    49   1 H        0.860     0.199     1.110     1.650
    50   1 H        0.861     0.187     1.177     1.699
    51   7 N        2.646    -0.288    27.436     7.779
    52   1 H        0.861     0.187     1.176     1.699
    53   1 H        0.860     0.200     1.108     1.649

 Mol. C6AA /au·bohr⁶  :      21796.738822
 Mol. C8AA /au·bohr⁸  :     454305.410926
 Mol. α(0) /au        :        220.574022


Wiberg/Mayer (AO) data.
largest (>0.10) Wiberg bond orders for each atom

 ---------------------------------------------------------------------------
     #   Z sym  total        # sym  WBO       # sym  WBO       # sym  WBO
 ---------------------------------------------------------------------------
     1   8 O    1.944 --     2 C    1.021    21 H    0.803
     2   6 C    3.966 --     1 O    1.021     5 C    0.993     3 H    0.968
                             4 H    0.962
     3   1 H    0.997 --     2 C    0.968
     4   1 H    0.998 --     2 C    0.962
     5   6 C    3.926 --     2 C    0.993     7 H    0.957     6 H    0.952
                             8 N    0.933
     6   1 H    0.987 --     5 C    0.952
     7   1 H    0.989 --     5 C    0.957
     8   7 N    3.823 --    13 C    0.962    17 C    0.958     9 C    0.955
                             5 C    0.933
     9   6 C    3.920 --    11 H    0.978    10 H    0.966    12 H    0.962
                             8 N    0.955
    10   1 H    0.987 --     9 C    0.966
    11   1 H    0.993 --     9 C    0.978
    12   1 H    0.985 --     9 C    0.962
    13   6 C    3.930 --    15 H    0.978    14 H    0.974    16 H    0.963
                             8 N    0.962
    14   1 H    0.991 --    13 C    0.974
    15   1 H    0.993 --    13 C    0.978
    16   1 H    0.986 --    13 C    0.963
    17   6 C    3.922 --    20 H    0.979    18 H    0.965    19 H    0.962
                             8 N    0.958
    18   1 H    0.988 --    17 C    0.965
    19   1 H    0.985 --    17 C    0.962
    20   1 H    0.994 --    17 C    0.979
    21   1 H    0.889 --     1 O    0.803
    22   6 C    3.959 --    23 O    1.528    27 N    1.216    24 N    1.204
    23   8 O    1.884 --    22 C    1.528    24 N    0.141    27 N    0.138
    24   7 N    3.319 --    22 C    1.204    26 H    0.947    25 H    0.945
                            23 O    0.141
    25   1 H    0.962 --    24 N    0.945
    26   1 H    0.965 --    24 N    0.947
    27   7 N    3.296 --    22 C    1.216    28 H    0.935    29 H    0.897
                            23 O    0.138
    28   1 H    0.962 --    27 N    0.935
    29   1 H    0.951 --    27 N    0.897
    30   6 C    3.960 --    31 O    1.519    32 N    1.234    35 N    1.199
    31   8 O    1.935 --    30 C    1.519    32 N    0.146    35 N    0.133
    32   7 N    3.328 --    30 C    1.234    34 H    0.949    33 H    0.890
                            31 O    0.146
    33   1 H    0.946 --    32 N    0.890
    34   1 H    0.968 --    32 N    0.949
    35   7 N    3.309 --    30 C    1.199    36 H    0.947    37 H    0.942
                            31 O    0.133
    36   1 H    0.966 --    35 N    0.947
    37   1 H    0.959 --    35 N    0.942
    38   6 C    3.960 --    39 O    1.424    43 N    1.297    40 N    1.229
    39   8 O    1.910 --    38 C    1.424    43 N    0.135    40 N    0.121
    40   7 N    3.337 --    38 C    1.229    42 H    0.946    41 H    0.932
                            39 O    0.121
    41   1 H    0.954 --    40 N    0.932
    42   1 H    0.965 --    40 N    0.946
    43   7 N    3.370 --    38 C    1.297    44 H    0.946    45 H    0.851
                            39 O    0.135
    44   1 H    0.966 --    43 N    0.946
    45   1 H    0.934 --    43 N    0.851
    46   6 C    3.959 --    47 O    1.537    51 N    1.208    48 N    1.207
    47   8 O    1.895 --    46 C    1.537    48 N    0.144    51 N    0.144
    48   7 N    3.323 --    46 C    1.207    50 H    0.946    49 H    0.943
                            47 O    0.144
    49   1 H    0.960 --    48 N    0.943
    50   1 H    0.965 --    48 N    0.946
    51   7 N    3.324 --    46 C    1.208    52 H    0.946    53 H    0.943
                            47 O    0.144
    52   1 H    0.965 --    51 N    0.946
    53   1 H    0.960 --    51 N    0.943
 ---------------------------------------------------------------------------

Topologies differ in total number of bonds
Writing topology from bond orders to xtbtopo.mol

molecular dipole:
                 x           y           z       tot (Debye)
 q only:        1.251      -1.168       1.196
   full:        1.277      -0.929       0.891       4.609
molecular quadrupole (traceless):
                xx          xy          yy          xz          yz          zz
 q only:       12.463     -36.433      10.511      17.661      -9.781     -22.975
  q+dip:       15.046     -43.780      14.102      20.346     -10.064     -29.149
   full:       16.242     -44.048      13.300      20.248      -9.629     -29.542

           -------------------------------------------------
          |               Frequency Printout                |
           -------------------------------------------------
 projected vibrational frequencies (cm⁻¹)
eigval :       -0.00    -0.00    -0.00     0.00     0.00     0.00
eigval :       -6.57    11.00    14.24    21.03    28.57    33.99
eigval :       42.06    49.22    52.56    53.81    60.05    74.11
eigval :       77.71    80.47    88.50    93.78   102.20   110.47
eigval :      119.11   123.00   138.49   146.24   148.80   170.53
eigval :      183.70   197.72   256.44   272.63   291.17   302.08
eigval :      313.78   319.45   322.18   346.75   357.32   366.33
eigval :      373.24   406.54   425.55   443.49   443.71   453.11
eigval :      455.09   459.78   466.24   468.99   477.72   487.73
eigval :      493.18   504.97   506.02   508.33   529.36   543.64
eigval :      556.56   572.05   583.43   646.98   668.25   673.07
eigval :      674.17   689.30   754.70   767.03   795.79   841.36
eigval :      901.58   929.11   944.66   973.31   974.19   977.99
eigval :      995.01  1002.28  1011.73  1016.73  1021.42  1029.00
eigval :     1033.51  1039.56  1042.39  1080.63  1084.97  1092.02
eigval :     1098.03  1107.34  1108.70  1131.58  1175.97  1230.69
eigval :     1249.48  1275.28  1318.32  1337.36  1350.66  1351.91
eigval :     1354.45  1364.54  1375.83  1392.13  1402.74  1403.19
eigval :     1418.50  1435.18  1441.18  1444.20  1452.06  1454.32
eigval :     1456.27  1458.62  1468.07  1470.71  1472.23  1479.69
eigval :     1493.90  1498.01  1500.12  1506.45  1535.41  1642.53
eigval :     1692.55  1716.48  1726.23  2883.85  2973.15  2987.84
eigval :     3004.46  3031.75  3035.82  3040.18  3042.35  3043.37
eigval :     3046.44  3050.22  3051.56  3059.54  3062.68  3095.99
eigval :     3315.27  3362.04  3475.08  3479.56  3488.98  3496.38
eigval :     3501.28  3505.65  3533.77  3535.72  3552.45  3553.49
eigval :     3563.65  3565.82  3571.40
 reduced masses (amu)
   1: 12.52   2: 12.46   3: 12.90   4: 12.58   5: 12.41   6: 12.45   7: 11.22   8: 12.17
   9: 12.17  10: 12.15  11: 12.39  12: 11.89  13: 12.24  14: 12.58  15: 12.17  16: 12.62
  17: 12.81  18: 12.98  19: 13.06  20: 12.50  21: 12.83  22: 12.39  23: 11.94  24: 11.98
  25: 11.38  26: 12.65  27: 12.78  28:  8.90  29:  7.94  30: 12.50  31: 12.57  32: 10.40
  33: 12.16  34:  5.47  35:  3.64  36:  2.56  37:  9.30  38:  3.84  39:  4.44  40:  2.65
  41:  2.30  42:  6.04  43:  3.76  44:  3.86  45:  8.88  46:  2.37  47:  2.47  48:  3.60
  49:  8.22  50:  8.28  51:  7.58  52:  7.31  53:  7.97  54:  3.24  55:  7.33  56:  3.13
  57:  4.08  58:  1.70  59:  9.80  60: 11.49  61: 11.24  62:  8.61  63: 12.28  64:  5.57
  65: 10.45  66: 11.54  67: 11.95  68:  7.82  69:  4.90  70:  9.20  71:  1.84  72:  1.99
  73:  6.50  74:  8.79  75:  5.29  76:  4.79  77:  5.36  78:  4.66  79:  8.70  80:  7.58
  81:  9.65  82:  7.49  83:  9.75  84:  8.04  85:  9.04  86:  3.99  87:  4.04  88:  9.81
  89:  8.83  90:  8.24  91:  6.72  92:  6.66  93:  4.89  94:  8.77  95:  2.99  96:  4.74
  97:  6.64  98:  8.12  99:  6.41 100:  3.41 101:  5.59 102:  5.56 103:  4.93 104:  5.85
 105:  3.74 106:  3.56 107:  2.53 108:  2.57 109:  2.10 110:  2.37 111:  3.47 112:  1.72
 113:  2.64 114:  2.03 115:  3.05 116:  1.91 117:  2.27 118:  3.40 119:  1.63 120:  1.73
 121:  1.69 122:  8.28 123:  7.04 124:  7.68 125: 10.42 126: 12.17 127: 12.78 128: 12.71
 129: 12.80 130:  1.76 131:  1.67 132:  1.70 133:  1.83 134:  1.64 135:  1.70 136:  1.74
 137:  1.83 138:  1.29 139:  1.90 140:  1.87 141:  1.90 142:  1.80 143:  1.84 144:  1.84
 145:  1.74 146:  1.70 147:  1.92 148:  1.50 149:  1.45 150:  1.45 151:  1.44 152:  1.46
 153:  1.89 154:  1.94 155:  2.17 156:  2.15 157:  2.19 158:  2.19 159:  2.18
 IR intensities (km·mol⁻¹)
   1:  1.44   2:  1.37   3:  0.61   4:  2.78   5:  1.37   6:  1.52   7:  0.04   8:  0.90
   9:  1.13  10:  0.71  11:  1.45  12:  0.88  13:  4.93  14:  3.20  15:  2.24  16: 14.05
  17:  0.22  18:  9.48  19:  2.32  20:  5.43  21: 10.46  22:  1.14  23:  8.61  24: 12.23
  25: 10.12  26:  3.52  27:  0.32  28: 23.59  29:  3.48  30: 22.30  31: 31.04  32:  4.51
  33: 15.24  34:  1.64  35:206.62  36:215.44  37: 28.16  38:495.88  39: 24.99  40:  1.12
  41: 70.17  42:  2.23  43:  1.01  44:156.67  45:  0.33  46:105.04  47:169.22  48: 14.38
  49:  7.14  50:  1.73  51: 37.26  52: 37.52  53: 15.35  54: 31.68  55: 55.51  56: 18.13
  57: 42.77  58:  9.76  59: 30.51  60: 23.35  61: 25.28  62:  9.03  63: 47.04  64: 69.19
  65: 16.85  66: 29.45  67: 35.34  68:179.34  69:273.64  70:  5.10  71:268.40  72:217.62
  73:  3.11  74:  5.54  75:  2.13  76:  6.40  77:  2.88  78: 11.82  79:  0.10  80: 23.13
  81:  1.84  82: 38.15  83:  2.34  84: 15.59  85:  4.30  86: 11.63  87: 11.30  88:  1.84
  89:  5.03  90:  1.19  91: 24.14  92:  6.42  93: 23.07  94: 48.51  95: 19.53  96:  5.13
  97:  4.24  98:  2.27  99: 14.34 100:  1.05 101: 26.68 102:125.32 103: 20.12 104:251.82
 105: 79.31 106: 52.46 107: 31.04 108:  8.02 109: 11.27 110: 17.49 111:  5.72 112:  3.18
 113:  7.15 114:  6.63 115:  7.23 116:  6.28 117:  3.19 118: 45.44 119:  3.53 120: 66.93
 121:  8.41 122:462.52 123:136.67 124:854.36 125:402.61 126:626.40 127:415.39 128:******
 129:907.03 130: 37.66 131: 99.23 132: 14.78 133:  4.24 134: 29.37 135:  6.05 136:  3.76
 137: 23.38 138: 39.77 139:166.38 140: 61.41 141: 11.99 142:413.00 143:812.30 144:720.26
 145:386.73 146:617.12 147: 34.48 148: 33.59 149: 16.31 150: 23.79 151: 38.97 152:  8.58
 153: 14.96 154: 14.80 155: 11.00 156: 31.67 157: 10.22 158: 13.78 159: 12.05
 Raman intensities (amu)
Molecule has no symmetry elements
It seems to be the C1 point group
   1:  0.00   2:  0.00   3:  0.00   4:  0.00   5:  0.00   6:  0.00   7:  0.00   8:  0.00
   9:  0.00  10:  0.00  11:  0.00  12:  0.00  13:  0.00  14:  0.00  15:  0.00  16:  0.00
  17:  0.00  18:  0.00  19:  0.00  20:  0.00  21:  0.00  22:  0.00  23:  0.00  24:  0.00
  25:  0.00  26:  0.00  27:  0.00  28:  0.00  29:  0.00  30:  0.00  31:  0.00  32:  0.00
  33:  0.00  34:  0.00  35:  0.00  36:  0.00  37:  0.00  38:  0.00  39:  0.00  40:  0.00
  41:  0.00  42:  0.00  43:  0.00  44:  0.00  45:  0.00  46:  0.00  47:  0.00  48:  0.00
  49:  0.00  50:  0.00  51:  0.00  52:  0.00  53:  0.00  54:  0.00  55:  0.00  56:  0.00
  57:  0.00  58:  0.00  59:  0.00  60:  0.00  61:  0.00  62:  0.00  63:  0.00  64:  0.00
  65:  0.00  66:  0.00  67:  0.00  68:  0.00  69:  0.00  70:  0.00  71:  0.00  72:  0.00
  73:  0.00  74:  0.00  75:  0.00  76:  0.00  77:  0.00  78:  0.00  79:  0.00  80:  0.00
  81:  0.00  82:  0.00  83:  0.00  84:  0.00  85:  0.00  86:  0.00  87:  0.00  88:  0.00
  89:  0.00  90:  0.00  91:  0.00  92:  0.00  93:  0.00  94:  0.00  95:  0.00  96:  0.00
  97:  0.00  98:  0.00  99:  0.00 100:  0.00 101:  0.00 102:  0.00 103:  0.00 104:  0.00
 105:  0.00 106:  0.00 107:  0.00 108:  0.00 109:  0.00 110:  0.00 111:  0.00 112:  0.00
 113:  0.00 114:  0.00 115:  0.00 116:  0.00 117:  0.00 118:  0.00 119:  0.00 120:  0.00
 121:  0.00 122:  0.00 123:  0.00 124:  0.00 125:  0.00 126:  0.00 127:  0.00 128:  0.00
 129:  0.00 130:  0.00 131:  0.00 132:  0.00 133:  0.00 134:  0.00 135:  0.00 136:  0.00
 137:  0.00 138:  0.00 139:  0.00 140:  0.00 141:  0.00 142:  0.00 143:  0.00 144:  0.00
 145:  0.00 146:  0.00 147:  0.00 148:  0.00 149:  0.00 150:  0.00 151:  0.00 152:  0.00
 153:  0.00 154:  0.00 155:  0.00 156:  0.00 157:  0.00 158:  0.00 159:  0.00
 output can be read by thermo (or use thermo option).
 writing <g98.out> molden fake output.
 recommended (thermochemical) frequency scaling factor: 1.0
           -------------------------------------------------
          |             Thermodynamic Functions             |
           -------------------------------------------------

c1  symmetry found (for desy threshold:  0.10E+00) used in thermo
 inverting freq            1   6.5733774487033063     

          ...................................................
          :                      SETUP                      :
          :.................................................:
          :  # frequencies                         153      :
          :  # imaginary freq.                       0      :
          :  linear?                             false      :
          :  only rotor calc.                    false      :
          :  symmetry                               c1      :
          :  rotational number                       1      :
          :  scaling factor                  1.0000000      :
          :  rotor cutoff                   50.0000000 cm⁻¹ :
          :  imag. cutoff                  -20.0000000 cm⁻¹ :
          :.................................................:

    mode    ω/cm⁻¹     T·S(HO)/kcal·mol⁻¹    T·S(FR)/kcal·mol⁻¹   T·S(vib)
   ------------------------------------------------------------------------
       1      6.57    -2.63704 (  0.03%)    -1.65742 ( 99.97%)    -1.65772
       2     11.00    -2.33185 (  0.23%)    -1.50489 ( 99.77%)    -1.50682
       3     14.24    -2.17901 (  0.65%)    -1.42847 ( 99.35%)    -1.43338
       4     21.03    -1.94834 (  3.03%)    -1.31310 ( 96.97%)    -1.33236
       5     28.57    -1.76683 (  9.64%)    -1.22225 ( 90.36%)    -1.27474
       6     33.99    -1.66424 ( 17.59%)    -1.17087 ( 82.41%)    -1.25767
       7     42.06    -1.53832 ( 33.37%)    -1.10774 ( 66.63%)    -1.25142
       8     49.22    -1.44563 ( 48.42%)    -1.06121 ( 51.58%)    -1.24734
       9     52.56    -1.40691 ( 54.97%)    -1.04176 ( 45.03%)    -1.24248
      10     53.81    -1.39303 ( 57.29%)    -1.03478 ( 42.71%)    -1.24002
      11     60.05    -1.32841 ( 67.54%)    -1.00227 ( 32.46%)    -1.22254
      12     74.11    -1.20487 ( 82.84%)    -0.93996 ( 17.16%)    -1.15940
      13     77.71    -1.17707 ( 85.37%)    -0.92591 ( 14.63%)    -1.14032
      14     80.47    -1.15663 ( 87.03%)    -0.91556 ( 12.97%)    -1.12536
      15     88.50    -1.10105 ( 90.75%)    -0.88738 (  9.25%)    -1.08129
      16     93.78    -1.06727 ( 92.52%)    -0.87022 (  7.48%)    -1.05254
      17    102.20    -1.01728 ( 94.58%)    -0.84476 (  5.42%)    -1.00793
      18    110.47    -0.97213 ( 95.97%)    -0.82169 (  4.03%)    -0.96608
      19    119.11    -0.92865 ( 96.99%)    -0.79939 (  3.01%)    -0.92476
      20    123.00    -0.91013 ( 97.34%)    -0.78986 (  2.66%)    -0.90694
      21    138.49    -0.84215 ( 98.33%)    -0.75473 (  1.67%)    -0.84069
      22    146.24    -0.81116 ( 98.65%)    -0.73862 (  1.35%)    -0.81018
      23    148.80    -0.80127 ( 98.74%)    -0.73346 (  1.26%)    -0.80042
      24    170.53    -0.72438 ( 99.27%)    -0.69308 (  0.73%)    -0.72415
      25    183.70    -0.68290 ( 99.45%)    -0.67105 (  0.55%)    -0.68284
      26    197.72    -0.64229 ( 99.59%)    -0.64927 (  0.41%)    -0.64232
      27    256.44    -0.50264 ( 99.86%)    -0.57223 (  0.14%)    -0.50274
      28    272.63    -0.47092 ( 99.89%)    -0.55409 (  0.11%)    -0.47101
      29    291.17    -0.43744 ( 99.91%)    -0.53460 (  0.09%)    -0.43752
   ------------------------------------------------------------------------

   temp. (K)  partition function   enthalpy   heat capacity  entropy
                                   cal/mol     cal/K/mol   cal/K/mol   J/K/mol
 298.15  VIB  0.602E+18            19438.981    103.715    129.296
         ROT  0.146E+08              888.752      2.981     35.767
         INT  0.881E+25            20327.733    106.695    165.063
         TR   0.618E+28             1481.254      4.968     43.384
         TOT                       21808.9873   111.6636   208.4472   872.1430

       T/K    H(0)-H(T)+PV         H(T)/Eh          T*S/Eh         G(T)/Eh
   ------------------------------------------------------------------------
    298.15    0.347548E-01    0.474205E+00    0.990400E-01    0.375165E+00
   ------------------------------------------------------------------------

         :::::::::::::::::::::::::::::::::::::::::::::::::::::
         ::                  THERMODYNAMIC                  ::
         :::::::::::::::::::::::::::::::::::::::::::::::::::::
         :: total free energy         -80.559973726584 Eh   ::
         ::.................................................::
         :: total energy              -80.935138443588 Eh   ::
         :: zero point energy           0.439449865802 Eh   ::
         :: G(RRHO) w/o ZPVE           -0.064285148798 Eh   ::
         :: G(RRHO) contrib.            0.375164717004 Eh   ::
         :::::::::::::::::::::::::::::::::::::::::::::::::::::
imag cut-off (cm-1) :    5.00
 found            1  significant imaginary frequency
 writing imag mode distorted coords to xtbhess.xyz
 for further optimization.

           -------------------------------------------------
          | TOTAL ENERGY              -80.935138443588 Eh   |
          | TOTAL ENTHALPY            -80.460933744338 Eh   |
          | TOTAL FREE ENERGY         -80.559973726584 Eh   |
          | GRADIENT NORM               0.000081856111 Eh/α |
          | HOMO-LUMO GAP               5.689742794935 eV   |
           -------------------------------------------------

------------------------------------------------------------------------
 * finished run on 2024/01/10 at 15:36:10.817     
------------------------------------------------------------------------
 total:
 * wall-time:     0 d,  0 h,  0 min, 14.295 sec
 *  cpu-time:     0 d,  0 h,  0 min, 14.216 sec
 * ratio c/w:     0.994 speedup
 SCF:
 * wall-time:     0 d,  0 h,  0 min,  0.099 sec
 *  cpu-time:     0 d,  0 h,  0 min,  0.059 sec
 * ratio c/w:     0.595 speedup
 analytical hessian:
 * wall-time:     0 d,  0 h,  0 min, 14.170 sec
 *  cpu-time:     0 d,  0 h,  0 min, 14.131 sec
 * ratio c/w:     0.997 speedup

