      -----------------------------------------------------------      
     |                   =====================                   |     
     |                           x T B                           |     
     |                   =====================                   |     
     |                         S. Grimme                         |     
     |          Mulliken Center for Theoretical Chemistry        |     
     |                    University of Bonn                     |     
      -----------------------------------------------------------      

   * xtb version 6.6.1 (unknown-commit) compiled by '@Linux' on 12/27/2023

   xtb is free software: you can redistribute it and/or modify it under
   the terms of the GNU Lesser General Public License as published by
   the Free Software Foundation, either version 3 of the License, or
   (at your option) any later version.
   
   xtb is distributed in the hope that it will be useful,
   but WITHOUT ANY WARRANTY; without even the implied warranty of
   MERCHANTABILITY or FITNESS FOR A PARTICULAR PURPOSE.  See the
   GNU Lesser General Public License for more details.
   
   Cite this work as:
   * C. Bannwarth, E. Caldeweyher, S. Ehlert, A. Hansen, P. Pracht,
     J. Seibert, S. Spicher, S. Grimme, WIREs Comput. Mol. Sci., 2020, 11,
     e01493. DOI: 10.1002/wcms.1493
   
   for GFN2-xTB:
   * C. Bannwarth, S. Ehlert and S. Grimme., J. Chem. Theory Comput., 2019,
     15, 1652-1671. DOI: 10.1021/acs.jctc.8b01176
   for GFN1-xTB:
   * S. Grimme, C. Bannwarth, P. Shushkov, J. Chem. Theory Comput., 2017,
     13, 1989-2009. DOI: 10.1021/acs.jctc.7b00118
   for GFN0-xTB:
   * P. Pracht, E. Caldeweyher, S. Ehlert, S. Grimme, ChemRxiv, 2019, preprint.
     DOI: 10.26434/chemrxiv.8326202.v1
   for GFN-FF:
   * S. Spicher and S. Grimme, Angew. Chem. Int. Ed., 2020, 59, 15665-15673.
     DOI: 10.1002/anie.202004239
   
   for ALPB and GBSA implicit solvation:
   * S. Ehlert, M. Stahn, S. Spicher, S. Grimme, J. Chem. Theory Comput.,
     2021, 17, 4250-4261. DOI: 10.1021/acs.jctc.1c00471
   
   for DFT-D4:
   * E. Caldeweyher, C. Bannwarth and S. Grimme, J. Chem. Phys., 2017,
     147, 034112. DOI: 10.1063/1.4993215
   * E. Caldeweyher, S. Ehlert, A. Hansen, H. Neugebauer, S. Spicher,
     C. Bannwarth and S. Grimme, J. Chem. Phys., 2019, 150, 154122.
     DOI: 10.1063/1.5090222
   * E. Caldeweyher, J.-M. Mewes, S. Ehlert and S. Grimme, Phys. Chem. Chem. Phys.
     2020, 22, 8499-8512. DOI: 10.1039/D0CP00502A
   
   for sTDA-xTB:
   * S. Grimme and C. Bannwarth, J. Chem. Phys., 2016, 145, 054103.
     DOI: 10.1063/1.4959605
   
   in the mass-spec context:
   * V. Asgeirsson, C. Bauer and S. Grimme, Chem. Sci., 2017, 8, 4879.
     DOI: 10.1039/c7sc00601b
   * J. Koopman and S. Grimme, ACS Omega 2019, 4, 12, 15120-15133.
     DOI: 10.1021/acsomega.9b02011
   
   for metadynamics refer to:
   * S. Grimme, J. Chem. Theory Comput., 2019, 155, 2847-2862
     DOI: 10.1021/acs.jctc.9b00143
   
   for SPH calculations refer to:
   * S. Spicher and S. Grimme, J. Chem. Theory Comput., 2021, 17, 1701-1714
     DOI: 10.1021/acs.jctc.0c01306
   
   with help from (in alphabetical order)
   P. Atkinson, C. Bannwarth, F. Bohle, G. Brandenburg, E. Caldeweyher
   M. Checinski, S. Dohm, S. Ehlert, S. Ehrlich, I. Gerasimov, C. Hölzer
   A. Katbashev, J. Koopman, C. Lavigne, S. Lehtola, F. März, M. Müller,
   F. Musil, H. Neugebauer, J. Pisarek, C. Plett, P. Pracht, F. Pultar,
   J. Seibert, P. Shushkov, S. Spicher, M. Stahn, M. Steiner, T. Strunk,
   J. Stückrath, T. Rose, and J. Unsleber
   
 * started run on 2024/01/10 at 18:30:45.986     

           -------------------------------------------------
          |                Calculation Setup                |
           -------------------------------------------------

          program call               : xtb struc.xyz --gfn2 --hess
          hostname                   : swaroop
          coordinate file            : struc.xyz
          omp threads                :                     1

   ID    Z sym.   atoms
    1    8 O      1, 23, 31, 39, 47
    2    6 C      2, 5, 9, 13, 17, 22, 30, 38, 46
    3    1 H      3, 4, 6, 7, 10-12, 14-16, 18-21, 25, 26, 28, 29, 33, 34,
                  36, 37, 41, 42, 44, 45, 49, 50, 52, 53
    4    7 N      8, 24, 27, 32, 35, 40, 43, 48, 51

molecular fragmentation (1/2 indicates fragments):
11111111111111111111122222222222222222222222222222222
# atoms in fragment 1/2:    21    32
 fragment masses (1/2) :      104.17      240.22
CMA distance (Bohr)    :   5.878
constraining FC (au)   :  0.0500

           -------------------------------------------------
          |                 G F N 2 - x T B                 |
           -------------------------------------------------

        Reference                      10.1021/acs.jctc.8b01176
      * Hamiltonian:
        H0-scaling (s, p, d)           1.850000    2.230000    2.230000
        zeta-weighting                 0.500000
      * Dispersion:
        s8                             2.700000
        a1                             0.520000
        a2                             5.000000
        s9                             5.000000
      * Repulsion:
        kExp                           1.500000    1.000000
        rExp                           1.000000
      * Coulomb:
        alpha                          2.000000
        third order                    shell-resolved
        anisotropic                    true
        a3                             3.000000
        a5                             4.000000
        cn-shift                       1.200000
        cn-exp                         4.000000
        max-rad                        5.000000


          ...................................................
          :                      SETUP                      :
          :.................................................:
          :  # basis functions                 122          :
          :  # atomic orbitals                 122          :
          :  # shells                           76          :
          :  # electrons                       140          :
          :  max. iterations                   250          :
          :  Hamiltonian                  GFN2-xTB          :
          :  restarted?                      false          :
          :  GBSA solvation                  false          :
          :  PC potential                    false          :
          :  electronic temp.          300.0000000     K    :
          :  accuracy                    1.0000000          :
          :  -> integral cutoff          0.2500000E+02      :
          :  -> integral neglect         0.1000000E-07      :
          :  -> SCF convergence          0.1000000E-05 Eh   :
          :  -> wf. convergence          0.1000000E-03 e    :
          :  Broyden damping             0.4000000          :
          ...................................................

 iter      E             dE          RMSdq      gap      omega  full diag
   1    -81.5501641 -0.815502E+02  0.432E+00    5.12       0.0  T
   2    -81.8309687 -0.280805E+00  0.238E+00    5.89       1.0  T
   3    -81.8367859 -0.581727E-02  0.115E+00    5.66       1.0  T
   4    -81.8382383 -0.145236E-02  0.246E-01    5.76       1.0  T
   5    -81.8391732 -0.934930E-03  0.922E-02    5.70       1.0  T
   6    -81.8391979 -0.247135E-04  0.260E-02    5.71       1.0  T
   7    -81.8392020 -0.407177E-05  0.764E-03    5.71       1.8  T
   8    -81.8392023 -0.296365E-06  0.263E-03    5.70       5.2  T
   9    -81.8392023 -0.142657E-07  0.923E-04    5.70      14.9  T
  10    -81.8392023 -0.643335E-08  0.184E-04    5.70      74.5  T

   *** convergence criteria satisfied after 10 iterations ***

         #    Occupation            Energy/Eh            Energy/eV
      -------------------------------------------------------------
         1        2.0000           -0.8115165             -22.0825
       ...           ...                  ...                  ...
        64        2.0000           -0.4924180             -13.3994
        65        2.0000           -0.4911786             -13.3657
        66        2.0000           -0.4909628             -13.3598
        67        2.0000           -0.4875912             -13.2680
        68        2.0000           -0.4864465             -13.2369
        69        2.0000           -0.4813563             -13.0984
        70        2.0000           -0.4756597             -12.9434 (HOMO)
        71                         -0.2660754              -7.2403 (LUMO)
        72                         -0.2610370              -7.1032
        73                         -0.2591547              -7.0520
        74                         -0.2561795              -6.9710
        75                         -0.1676539              -4.5621
       ...                                ...                  ...
       122                          0.5660252              15.4023
      -------------------------------------------------------------
                  HL-Gap            0.2095844 Eh            5.7031 eV
             Fermi-level           -0.3708675 Eh          -10.0918 eV

 SCC (total)                   0 d,  0 h,  0 min,  0.102 sec
 SCC setup                      ...        0 min,  0.000 sec (  0.277%)
 Dispersion                     ...        0 min,  0.001 sec (  0.566%)
 classical contributions        ...        0 min,  0.000 sec (  0.177%)
 integral evaluation            ...        0 min,  0.008 sec (  7.914%)
 iterations                     ...        0 min,  0.064 sec ( 63.232%)
 molecular gradient             ...        0 min,  0.028 sec ( 27.538%)
 printout                       ...        0 min,  0.000 sec (  0.284%)

         :::::::::::::::::::::::::::::::::::::::::::::::::::::
         ::                     SUMMARY                     ::
         :::::::::::::::::::::::::::::::::::::::::::::::::::::
         :: total energy             -80.932813706295 Eh    ::
         :: gradient norm              0.000069907362 Eh/a0 ::
         :: HOMO-LUMO gap              5.703081216439 eV    ::
         ::.................................................::
         :: SCC energy               -81.839202336237 Eh    ::
         :: -> isotropic ES            0.297388359095 Eh    ::
         :: -> anisotropic ES         -0.028786366272 Eh    ::
         :: -> anisotropic XC          0.020039250986 Eh    ::
         :: -> dispersion             -0.046488831327 Eh    ::
         :: repulsion energy           0.905030575421 Eh    ::
         :: add. restraining           0.000000000000 Eh    ::
         :: total charge               1.000000000000 e     ::
         :::::::::::::::::::::::::::::::::::::::::::::::::::::

           ------------------------------------------------- 
          |                Numerical Hessian                |
           ------------------------------------------------- 
step length          :   0.00500
SCC accuracy         :   0.30000
Hessian scale factor :   1.00000
frozen atoms in %    :   0.00000    0
RMS gradient         :   0.00007
estimated CPU  time      0.24 min
estimated wall time      0.24 min

writing file <hessian>.

 projected vibrational frequencies (cm⁻¹)
eigval :       -0.00    -0.00     0.00     0.00     0.00     0.00
eigval :        8.70    20.18    27.84    30.59    42.32    45.37
eigval :       46.01    52.35    54.15    60.36    71.13    76.10
eigval :       86.25    88.03   104.21   105.41   109.24   118.29
eigval :      128.87   145.17   147.77   169.18   186.89   207.84
eigval :      218.96   223.73   243.81   263.67   298.56   309.05
eigval :      317.73   321.38   333.35   338.94   365.30   377.15
eigval :      399.72   416.20   423.03   433.24   453.99   458.60
eigval :      464.49   468.62   473.88   476.36   481.20   484.43
eigval :      500.00   511.69   553.18   555.74   560.39   578.30
eigval :      581.20   611.13   653.31   664.82   673.24   678.53
eigval :      687.93   707.88   732.56   762.76   767.17   794.71
eigval :      886.99   928.22   953.96   971.66   972.60   997.96
eigval :      998.29  1002.33  1008.56  1015.56  1021.62  1022.61
eigval :     1034.27  1036.45  1047.02  1082.28  1088.91  1089.33
eigval :     1089.91  1106.72  1109.29  1130.42  1181.81  1230.38
eigval :     1257.29  1268.45  1301.21  1337.52  1350.22  1353.40
eigval :     1354.43  1367.85  1375.03  1397.84  1400.53  1411.40
eigval :     1425.06  1431.68  1441.38  1452.75  1453.56  1456.06
eigval :     1457.73  1461.08  1467.87  1471.88  1472.55  1477.56
eigval :     1493.91  1505.80  1510.60  1515.17  1523.96  1640.94
eigval :     1676.93  1691.88  1706.43  2917.11  2945.49  2997.12
eigval :     2999.61  3025.46  3031.68  3037.29  3039.79  3041.09
eigval :     3043.40  3045.43  3049.00  3055.59  3061.64  3090.86
eigval :     3141.79  3244.96  3326.99  3371.70  3494.18  3495.60
eigval :     3502.52  3514.92  3534.77  3535.88  3536.24  3542.22
eigval :     3557.64  3559.58  3569.01
           -------------------------------------------------
          |                Property Printout                |
           -------------------------------------------------

    * Orbital Energies and Occupations

         #    Occupation            Energy/Eh            Energy/eV
      -------------------------------------------------------------
         1        2.0000           -0.8115165             -22.0825
       ...           ...                  ...                  ...
        58        2.0000           -0.5037958             -13.7090
        59        2.0000           -0.4993967             -13.5893
        60        2.0000           -0.4979965             -13.5512
        61        2.0000           -0.4970382             -13.5251
        62        2.0000           -0.4953382             -13.4788
        63        2.0000           -0.4927189             -13.4076
        64        2.0000           -0.4924190             -13.3994
        65        2.0000           -0.4911797             -13.3657
        66        2.0000           -0.4909635             -13.3598
        67        2.0000           -0.4875918             -13.2680
        68        2.0000           -0.4864470             -13.2369
        69        2.0000           -0.4813569             -13.0984
        70        2.0000           -0.4756602             -12.9434 (HOMO)
        71                         -0.2660767              -7.2403 (LUMO)
        72                         -0.2610367              -7.1032
        73                         -0.2591560              -7.0520
        74                         -0.2561819              -6.9711
        75                         -0.1676540              -4.5621
        76                         -0.1038674              -2.8264
        77                         -0.0948757              -2.5817
        78                         -0.0922786              -2.5110
        79                         -0.0883962              -2.4054
        80                         -0.0796738              -2.1680
        81                         -0.0744052              -2.0247
       ...                                ...                  ...
       122                          0.5660243              15.4023
      -------------------------------------------------------------
                  HL-Gap            0.2095835 Eh            5.7031 eV
             Fermi-level           -0.3708684 Eh          -10.0918 eV

     #   Z          covCN         q      C6AA      α(0)
     1   8 O        1.652    -0.486    22.598     6.417
     2   6 C        3.673     0.072    19.599     6.345
     3   1 H        0.924     0.066     2.134     2.284
     4   1 H        0.924     0.040     2.449     2.447
     5   6 C        3.766    -0.059    21.678     6.636
     6   1 H        0.924     0.069     2.098     2.265
     7   1 H        0.924     0.127     1.554     1.950
     8   7 N        3.623     0.155    18.624     6.410
     9   6 C        3.717    -0.101    22.555     6.784
    10   1 H        0.925     0.085     1.925     2.170
    11   1 H        0.925     0.085     1.924     2.169
    12   1 H        0.925     0.126     1.567     1.957
    13   6 C        3.732    -0.103    22.555     6.779
    14   1 H        0.925     0.083     1.945     2.181
    15   1 H        0.924     0.118     1.630     1.997
    16   1 H        0.925     0.089     1.890     2.150
    17   6 C        3.727    -0.117    22.845     6.824
    18   1 H        0.925     0.080     1.981     2.201
    19   1 H        0.925     0.120     1.612     1.985
    20   1 H        0.925     0.126     1.563     1.955
    21   1 H        0.802     0.341     0.610     1.227
    22   6 C        2.675     0.349    21.075     7.512
    23   8 O        0.860    -0.528    24.409     6.624
    24   7 N        2.644    -0.301    27.760     7.825
    25   1 H        0.860     0.222     0.998     1.565
    26   1 H        0.861     0.177     1.234     1.740
    27   7 N        2.643    -0.300    27.719     7.819
    28   1 H        0.860     0.177     1.230     1.737
    29   1 H        0.860     0.243     0.912     1.496
    30   6 C        2.675     0.342    21.190     7.533
    31   8 O        0.860    -0.522    24.277     6.606
    32   7 N        2.644    -0.308    27.923     7.848
    33   1 H        0.859     0.248     0.891     1.479
    34   1 H        0.861     0.176     1.237     1.742
    35   7 N        2.644    -0.297    27.661     7.811
    36   1 H        0.860     0.181     1.209     1.723
    37   1 H        0.860     0.194     1.135     1.669
    38   6 C        2.675     0.340    21.220     7.538
    39   8 O        0.860    -0.552    24.961     6.698
    40   7 N        2.643    -0.309    27.944     7.851
    41   1 H        0.859     0.249     0.886     1.475
    42   1 H        0.861     0.177     1.229     1.737
    43   7 N        2.644    -0.295    27.597     7.802
    44   1 H        0.860     0.183     1.198     1.715
    45   1 H        0.860     0.197     1.124     1.661
    46   6 C        2.675     0.343    21.173     7.530
    47   8 O        0.861    -0.529    24.445     6.629
    48   7 N        2.645    -0.296    27.630     7.807
    49   1 H        0.860     0.244     0.907     1.492
    50   1 H        0.861     0.180     1.214     1.726
    51   7 N        2.646    -0.288    27.428     7.778
    52   1 H        0.861     0.184     1.192     1.710
    53   1 H        0.860     0.200     1.104     1.646

 Mol. C6AA /au·bohr⁶  :      21813.712683
 Mol. C8AA /au·bohr⁸  :     454577.906503
 Mol. α(0) /au        :        220.657321


Wiberg/Mayer (AO) data.
largest (>0.10) Wiberg bond orders for each atom

 ---------------------------------------------------------------------------
     #   Z sym  total        # sym  WBO       # sym  WBO       # sym  WBO
 ---------------------------------------------------------------------------
     1   8 O    1.938 --     2 C    1.017    21 H    0.790
     2   6 C    3.965 --     1 O    1.017     5 C    0.995     4 H    0.970
                             3 H    0.954
     3   1 H    0.995 --     2 C    0.954
     4   1 H    0.998 --     2 C    0.970
     5   6 C    3.925 --     2 C    0.995     6 H    0.971     7 H    0.946
                             8 N    0.929
     6   1 H    0.995 --     5 C    0.971
     7   1 H    0.984 --     5 C    0.946
     8   7 N    3.821 --     9 C    0.961    13 C    0.961    17 C    0.951
                             5 C    0.929
     9   6 C    3.930 --    10 H    0.978    11 H    0.977    12 H    0.965
                             8 N    0.961
    10   1 H    0.993 --     9 C    0.978
    11   1 H    0.993 --     9 C    0.977
    12   1 H    0.984 --     9 C    0.965
    13   6 C    3.932 --    14 H    0.978    16 H    0.977    15 H    0.966
                             8 N    0.961
    14   1 H    0.993 --    13 C    0.978
    15   1 H    0.986 --    13 C    0.966
    16   1 H    0.992 --    13 C    0.977
    17   6 C    3.912 --    18 H    0.979    19 H    0.965    20 H    0.956
                             8 N    0.951
    18   1 H    0.994 --    17 C    0.979
    19   1 H    0.986 --    17 C    0.965
    20   1 H    0.984 --    17 C    0.956
    21   1 H    0.884 --     1 O    0.790
    22   6 C    3.958 --    23 O    1.459    27 N    1.253    24 N    1.233
    23   8 O    1.942 --    22 C    1.459    24 N    0.129    27 N    0.127
    24   7 N    3.329 --    22 C    1.233    26 H    0.950    25 H    0.900
                            23 O    0.129
    25   1 H    0.950 --    24 N    0.900
    26   1 H    0.968 --    24 N    0.950
    27   7 N    3.323 --    22 C    1.253    28 H    0.948    29 H    0.872
                            23 O    0.127
    28   1 H    0.968 --    27 N    0.948
    29   1 H    0.941 --    27 N    0.872
    30   6 C    3.960 --    31 O    1.495    32 N    1.265    35 N    1.189
    31   8 O    1.921 --    30 C    1.495    32 N    0.148    35 N    0.128
    32   7 N    3.349 --    30 C    1.265    34 H    0.949    33 H    0.859
                            31 O    0.148
    33   1 H    0.939 --    32 N    0.859
    34   1 H    0.969 --    32 N    0.949
    35   7 N    3.301 --    30 C    1.189    36 H    0.948    37 H    0.945
                            31 O    0.128
    36   1 H    0.967 --    35 N    0.948
    37   1 H    0.962 --    35 N    0.945
    38   6 C    3.959 --    39 O    1.477    40 N    1.272    43 N    1.199
    39   8 O    1.867 --    38 C    1.477    40 N    0.147    43 N    0.127
    40   7 N    3.352 --    38 C    1.272    42 H    0.949    41 H    0.855
                            39 O    0.147
    41   1 H    0.938 --    40 N    0.855
    42   1 H    0.968 --    40 N    0.949
    43   7 N    3.312 --    38 C    1.199    44 H    0.948    45 H    0.944
                            39 O    0.127
    44   1 H    0.966 --    43 N    0.948
    45   1 H    0.961 --    43 N    0.944
    46   6 C    3.960 --    47 O    1.489    48 N    1.256    51 N    1.208
    47   8 O    1.914 --    46 C    1.489    48 N    0.145    51 N    0.130
    48   7 N    3.350 --    46 C    1.256    50 H    0.948    49 H    0.889
                            47 O    0.145
    49   1 H    0.940 --    48 N    0.889
    50   1 H    0.968 --    48 N    0.948
    51   7 N    3.322 --    46 C    1.208    52 H    0.947    53 H    0.943
                            47 O    0.130
    52   1 H    0.966 --    51 N    0.947
    53   1 H    0.960 --    51 N    0.943
 ---------------------------------------------------------------------------

Topologies differ in total number of bonds
Writing topology from bond orders to xtbtopo.mol

molecular dipole:
                 x           y           z       tot (Debye)
 q only:       -0.340      -1.698       1.209
   full:       -0.283      -1.297       1.382       4.871
molecular quadrupole (traceless):
                xx          xy          yy          xz          yz          zz
 q only:        9.917     -15.051      23.147      -7.443       9.104     -33.064
  q+dip:       15.451     -19.875      25.276      -9.764      14.323     -40.727
   full:       15.153     -19.963      24.645      -9.362      13.791     -39.798

           -------------------------------------------------
          |               Frequency Printout                |
           -------------------------------------------------
 projected vibrational frequencies (cm⁻¹)
eigval :       -0.00    -0.00     0.00     0.00     0.00     0.00
eigval :        8.70    20.18    27.84    30.59    42.32    45.37
eigval :       46.01    52.35    54.15    60.36    71.13    76.10
eigval :       86.25    88.03   104.21   105.41   109.24   118.29
eigval :      128.87   145.17   147.77   169.18   186.89   207.84
eigval :      218.96   223.73   243.81   263.67   298.56   309.05
eigval :      317.73   321.38   333.35   338.94   365.30   377.15
eigval :      399.72   416.20   423.03   433.24   453.99   458.60
eigval :      464.49   468.62   473.88   476.36   481.20   484.43
eigval :      500.00   511.69   553.18   555.74   560.39   578.30
eigval :      581.20   611.13   653.31   664.82   673.24   678.53
eigval :      687.93   707.88   732.56   762.76   767.17   794.71
eigval :      886.99   928.22   953.96   971.66   972.60   997.96
eigval :      998.29  1002.33  1008.56  1015.56  1021.62  1022.61
eigval :     1034.27  1036.45  1047.02  1082.28  1088.91  1089.33
eigval :     1089.91  1106.72  1109.29  1130.42  1181.81  1230.38
eigval :     1257.29  1268.45  1301.21  1337.52  1350.22  1353.40
eigval :     1354.43  1367.85  1375.03  1397.84  1400.53  1411.40
eigval :     1425.06  1431.68  1441.38  1452.75  1453.56  1456.06
eigval :     1457.73  1461.08  1467.87  1471.88  1472.55  1477.56
eigval :     1493.91  1505.80  1510.60  1515.17  1523.96  1640.94
eigval :     1676.93  1691.88  1706.43  2917.11  2945.49  2997.12
eigval :     2999.61  3025.46  3031.68  3037.29  3039.79  3041.09
eigval :     3043.40  3045.43  3049.00  3055.59  3061.64  3090.86
eigval :     3141.79  3244.96  3326.99  3371.70  3494.18  3495.60
eigval :     3502.52  3514.92  3534.77  3535.88  3536.24  3542.22
eigval :     3557.64  3559.58  3569.01
 reduced masses (amu)
   1: 12.44   2: 12.01   3: 12.67   4: 12.66   5: 12.55   6: 12.55   7: 12.36   8: 11.73
   9: 12.53  10: 12.00  11: 12.41  12: 12.07  13: 12.62  14: 12.31  15: 12.80  16: 12.63
  17: 12.98  18: 12.36  19: 11.87  20: 12.22  21: 13.54  22: 13.18  23: 12.85  24: 12.96
  25: 12.95  26: 11.40  27: 12.56  28: 12.76  29: 12.55  30:  2.74  31: 10.11  32: 12.11
  33: 10.39  34:  4.49  35:  7.26  36:  6.06  37:  2.35  38:  2.25  39:  5.10  40:  3.79
  41:  4.53  42:  6.13  43:  3.53  44:  3.23  45:  8.77  46:  3.23  47:  8.27  48:  2.28
  49:  6.54  50:  4.64  51:  3.71  52:  6.28  53:  8.25  54:  8.02  55:  4.14  56:  7.83
  57: 11.49  58: 11.52  59: 11.57  60:  9.19  61: 10.95  62:  3.13  63:  6.65  64: 10.01
  65: 11.78  66: 11.63  67:  5.97  68:  4.26  69:  1.83  70:  1.96  71:  9.08  72:  2.52
  73:  6.48  74:  8.75  75:  5.07  76:  4.70  77:  4.71  78:  5.95  79:  5.92  80:  8.36
  81:  7.43  82:  9.54  83:  7.71  84:  9.35  85:  4.52  86:  9.39  87:  4.51  88: 10.04
  89:  7.28  90:  8.36  91:  7.72  92:  7.05  93:  5.29  94:  8.39  95:  4.54  96:  5.67
  97:  5.25  98:  7.51  99:  7.00 100:  4.24 101:  4.40 102:  2.89 103:  4.08 104:  5.19
 105:  5.23 106:  4.70 107:  2.80 108:  2.59 109:  2.37 110:  1.76 111:  2.08 112:  2.78
 113:  2.64 114:  2.67 115:  1.76 116:  3.11 117:  1.71 118:  2.64 119:  2.31 120:  1.69
 121:  1.67 122:  8.66 123:  8.94 124:  9.10 125:  8.75 126: 12.17 127: 12.64 128: 12.65
 129: 12.60 130:  1.89 131:  1.55 132:  1.70 133:  1.82 134:  1.73 135:  1.75 136:  1.83
 137:  1.89 138:  1.85 139:  1.31 140:  1.69 141:  1.78 142:  1.90 143:  1.77 144:  1.83
 145:  1.83 146:  1.78 147:  1.75 148:  1.70 149:  1.46 150:  1.45 151:  1.45 152:  1.88
 153:  1.91 154:  1.89 155:  1.89 156:  1.96 157:  2.17 158:  2.17 159:  2.18
 IR intensities (km·mol⁻¹)
   1:  0.80   2:  2.12   3:  2.19   4:  0.68   5:  2.75   6:  0.74   7:  4.06   8:  0.31
   9:  1.68  10:  2.83  11:  0.10  12:  6.36  13:  0.31  14:  1.29  15:  3.50  16:  0.75
  17:  5.06  18:  0.47  19:  0.53  20:  1.16  21:  4.47  22: 14.72  23: 13.54  24: 18.01
  25: 14.66  26: 17.76  27:  9.66  28: 11.63  29: 43.83  30:144.54  31:  8.40  32: 87.22
  33: 20.14  34:  0.56  35:  3.59  36:  0.65  37: 60.44  38: 82.46  39:  2.45  40:  0.69
  41: 60.64  42: 21.66  43: 82.00  44:213.63  45:  5.65  46:490.53  47:  0.85  48: 87.52
  49:  3.12  50: 27.08  51: 15.05  52: 15.00  53: 52.04  54:  2.89  55: 72.41  56: 82.33
  57: 37.60  58: 18.22  59: 20.56  60: 22.26  61: 38.11  62: 47.88  63:105.02  64: 11.94
  65: 35.94  66: 39.29  67: 46.91  68:258.91  69: 72.20  70: 55.73  71:  3.20  72:642.91
  73:  1.64  74: 14.78  75:  0.52  76:  6.90  77:  0.74  78:  1.82  79:  9.31  80: 21.55
  81: 15.54  82:  8.06  83:  7.13  84:  5.58  85:  3.33  86:  7.60  87:  4.58  88:  0.61
  89: 15.72  90:  2.33  91: 13.28  92:  1.82  93: 18.19  94: 36.63  95: 16.40  96:  3.10
  97:  4.09  98:  0.85  99:  7.16 100:  0.69 101: 59.63 102:262.09 103:148.86 104: 71.30
 105: 31.98 106:  7.70 107: 17.05 108:  8.09 109: 18.03 110:  1.44 111:  0.27 112: 10.62
 113:  7.35 114: 16.01 115: 13.40 116:  4.90 117:  7.30 118: 22.88 119: 27.29 120: 34.55
 121: 30.40 122:783.78 123:631.63 124:219.64 125:460.33 126:190.83 127:410.83 128:777.70
 129:****** 130: 20.94 131: 27.26 132: 34.77 133: 22.27 134: 16.04 135:307.66 136: 18.21
 137:  3.88 138: 47.20 139: 26.85 140: 52.52 141: 60.83 142:762.43 143:  7.81 144:******
 145:231.79 146:****** 147:669.27 148:395.21 149: 12.85 150: 17.30 151: 19.03 152:  8.43
 153: 12.43 154:  4.59 155: 19.24 156: 22.29 157: 11.71 158: 12.41 159: 13.05
 Raman intensities (amu)
Molecule has no symmetry elements
It seems to be the C1 point group
   1:  0.00   2:  0.00   3:  0.00   4:  0.00   5:  0.00   6:  0.00   7:  0.00   8:  0.00
   9:  0.00  10:  0.00  11:  0.00  12:  0.00  13:  0.00  14:  0.00  15:  0.00  16:  0.00
  17:  0.00  18:  0.00  19:  0.00  20:  0.00  21:  0.00  22:  0.00  23:  0.00  24:  0.00
  25:  0.00  26:  0.00  27:  0.00  28:  0.00  29:  0.00  30:  0.00  31:  0.00  32:  0.00
  33:  0.00  34:  0.00  35:  0.00  36:  0.00  37:  0.00  38:  0.00  39:  0.00  40:  0.00
  41:  0.00  42:  0.00  43:  0.00  44:  0.00  45:  0.00  46:  0.00  47:  0.00  48:  0.00
  49:  0.00  50:  0.00  51:  0.00  52:  0.00  53:  0.00  54:  0.00  55:  0.00  56:  0.00
  57:  0.00  58:  0.00  59:  0.00  60:  0.00  61:  0.00  62:  0.00  63:  0.00  64:  0.00
  65:  0.00  66:  0.00  67:  0.00  68:  0.00  69:  0.00  70:  0.00  71:  0.00  72:  0.00
  73:  0.00  74:  0.00  75:  0.00  76:  0.00  77:  0.00  78:  0.00  79:  0.00  80:  0.00
  81:  0.00  82:  0.00  83:  0.00  84:  0.00  85:  0.00  86:  0.00  87:  0.00  88:  0.00
  89:  0.00  90:  0.00  91:  0.00  92:  0.00  93:  0.00  94:  0.00  95:  0.00  96:  0.00
  97:  0.00  98:  0.00  99:  0.00 100:  0.00 101:  0.00 102:  0.00 103:  0.00 104:  0.00
 105:  0.00 106:  0.00 107:  0.00 108:  0.00 109:  0.00 110:  0.00 111:  0.00 112:  0.00
 113:  0.00 114:  0.00 115:  0.00 116:  0.00 117:  0.00 118:  0.00 119:  0.00 120:  0.00
 121:  0.00 122:  0.00 123:  0.00 124:  0.00 125:  0.00 126:  0.00 127:  0.00 128:  0.00
 129:  0.00 130:  0.00 131:  0.00 132:  0.00 133:  0.00 134:  0.00 135:  0.00 136:  0.00
 137:  0.00 138:  0.00 139:  0.00 140:  0.00 141:  0.00 142:  0.00 143:  0.00 144:  0.00
 145:  0.00 146:  0.00 147:  0.00 148:  0.00 149:  0.00 150:  0.00 151:  0.00 152:  0.00
 153:  0.00 154:  0.00 155:  0.00 156:  0.00 157:  0.00 158:  0.00 159:  0.00
 output can be read by thermo (or use thermo option).
 writing <g98.out> molden fake output.
 recommended (thermochemical) frequency scaling factor: 1.0
           -------------------------------------------------
          |             Thermodynamic Functions             |
           -------------------------------------------------

c1  symmetry found (for desy threshold:  0.10E+00) used in thermo

          ...................................................
          :                      SETUP                      :
          :.................................................:
          :  # frequencies                         153      :
          :  # imaginary freq.                       0      :
          :  linear?                             false      :
          :  only rotor calc.                    false      :
          :  symmetry                               c1      :
          :  rotational number                       1      :
          :  scaling factor                  1.0000000      :
          :  rotor cutoff                   50.0000000 cm⁻¹ :
          :  imag. cutoff                  -20.0000000 cm⁻¹ :
          :.................................................:

    mode    ω/cm⁻¹     T·S(HO)/kcal·mol⁻¹    T·S(FR)/kcal·mol⁻¹   T·S(vib)
   ------------------------------------------------------------------------
       1      8.70    -2.47123 (  0.09%)    -1.57453 ( 99.91%)    -1.57535
       2     20.18    -1.97281 (  2.58%)    -1.32533 ( 97.42%)    -1.34205
       3     27.84    -1.78220 (  8.77%)    -1.22994 ( 91.23%)    -1.27838
       4     30.59    -1.72645 ( 12.29%)    -1.20202 ( 87.71%)    -1.26649
       5     42.32    -1.53465 ( 33.92%)    -1.10589 ( 66.08%)    -1.25134
       6     45.37    -1.49357 ( 40.41%)    -1.08528 ( 59.59%)    -1.25027
       7     46.01    -1.48531 ( 41.77%)    -1.08113 ( 58.23%)    -1.24994
       8     52.35    -1.40925 ( 54.58%)    -1.04292 ( 45.42%)    -1.24285
       9     54.15    -1.38926 ( 57.91%)    -1.03288 ( 42.09%)    -1.23927
      10     60.36    -1.32540 ( 67.99%)    -1.00075 ( 32.01%)    -1.22147
      11     71.13    -1.22893 ( 80.38%)    -0.95211 ( 19.62%)    -1.17460
      12     76.10    -1.18936 ( 84.29%)    -0.93212 ( 15.71%)    -1.14895
      13     86.25    -1.11606 ( 89.85%)    -0.89500 ( 10.15%)    -1.09363
      14     88.03    -1.10414 ( 90.57%)    -0.88895 (  9.43%)    -1.08386
      15    104.21    -1.00595 ( 94.97%)    -0.83897 (  5.03%)    -0.99754
      16    105.41    -0.99929 ( 95.18%)    -0.83558 (  4.82%)    -0.99141
      17    109.24    -0.97862 ( 95.80%)    -0.82500 (  4.20%)    -0.97216
      18    118.29    -0.93267 ( 96.91%)    -0.80145 (  3.09%)    -0.92861
      19    128.87    -0.88339 ( 97.78%)    -0.77607 (  2.22%)    -0.88101
      20    145.17    -0.81531 ( 98.61%)    -0.74078 (  1.39%)    -0.81427
      21    147.77    -0.80524 ( 98.71%)    -0.73553 (  1.29%)    -0.80434
      22    169.18    -0.72883 ( 99.24%)    -0.69543 (  0.76%)    -0.72858
      23    186.89    -0.67335 ( 99.49%)    -0.66594 (  0.51%)    -0.67331
      24    207.84    -0.61496 ( 99.67%)    -0.63448 (  0.33%)    -0.61503
      25    218.96    -0.58667 ( 99.73%)    -0.61904 (  0.27%)    -0.58676
      26    223.73    -0.57505 ( 99.75%)    -0.61266 (  0.25%)    -0.57515
      27    243.81    -0.52918 ( 99.82%)    -0.58718 (  0.18%)    -0.52928
      28    263.67    -0.48818 ( 99.87%)    -0.56400 (  0.13%)    -0.48828
      29    298.56    -0.42485 ( 99.92%)    -0.52717 (  0.08%)    -0.42493
   ------------------------------------------------------------------------

   temp. (K)  partition function   enthalpy   heat capacity  entropy
                                   cal/mol     cal/K/mol   cal/K/mol   J/K/mol
 298.15  VIB  0.809E+16            18873.241    103.878    123.213
         ROT  0.121E+08              888.752      2.981     35.394
         INT  0.981E+23            19761.993    106.859    158.607
         TR   0.618E+28             1481.254      4.968     43.384
         TOT                       21243.2468   111.8275   201.9919   845.1340

       T/K    H(0)-H(T)+PV         H(T)/Eh          T*S/Eh         G(T)/Eh
   ------------------------------------------------------------------------
    298.15    0.338533E-01    0.473489E+00    0.959729E-01    0.377516E+00
   ------------------------------------------------------------------------

         :::::::::::::::::::::::::::::::::::::::::::::::::::::
         ::                  THERMODYNAMIC                  ::
         :::::::::::::::::::::::::::::::::::::::::::::::::::::
         :: total free energy         -80.555297384847 Eh   ::
         ::.................................................::
         :: total energy              -80.932813706694 Eh   ::
         :: zero point energy           0.439635906634 Eh   ::
         :: G(RRHO) w/o ZPVE           -0.062119584786 Eh   ::
         :: G(RRHO) contrib.            0.377516321847 Eh   ::
         :::::::::::::::::::::::::::::::::::::::::::::::::::::

           -------------------------------------------------
          | TOTAL ENERGY              -80.932813706694 Eh   |
          | TOTAL ENTHALPY            -80.459324531429 Eh   |
          | TOTAL FREE ENERGY         -80.555297384847 Eh   |
          | GRADIENT NORM               0.000069506164 Eh/α |
          | HOMO-LUMO GAP               5.703056499526 eV   |
           -------------------------------------------------

------------------------------------------------------------------------
 * finished run on 2024/01/10 at 18:31:00.640     
------------------------------------------------------------------------
 total:
 * wall-time:     0 d,  0 h,  0 min, 14.654 sec
 *  cpu-time:     0 d,  0 h,  0 min, 14.561 sec
 * ratio c/w:     0.994 speedup
 SCF:
 * wall-time:     0 d,  0 h,  0 min,  0.102 sec
 *  cpu-time:     0 d,  0 h,  0 min,  0.058 sec
 * ratio c/w:     0.564 speedup
 analytical hessian:
 * wall-time:     0 d,  0 h,  0 min, 14.525 sec
 *  cpu-time:     0 d,  0 h,  0 min, 14.477 sec
 * ratio c/w:     0.997 speedup

