 Entering Gaussian System
 *********************************************
 Gaussian 98:
 frequency output generated by the xtb code
 *********************************************
                         Standard orientation:
 --------------------------------------------------------------------
  Center     Atomic     Atomic              Coordinates (Angstroms)
  Number     Number      Type              X           Y           Z
 --------------------------------------------------------------------
    1          8             0       -0.717582   -3.054614   -2.249155
    2          6             0        0.586990   -3.008682   -1.688720
    3          1             0        0.915380   -4.017655   -1.414916
    4          1             0        1.295345   -2.614687   -2.427538
    5          6             0        0.642470   -2.062310   -0.496152
    6          1             0        0.256210   -1.085710   -0.789399
    7          1             0        1.691270   -1.946596   -0.206386
    8          7             0       -0.085419   -2.481078    0.731514
    9          6             0        0.206147   -1.467307    1.760119
   10          1             0        1.276445   -1.475350    1.962317
   11          1             0       -0.343379   -1.690757    2.671538
   12          1             0       -0.072823   -0.481509    1.397413
   13          6             0        0.405985   -3.780084    1.216780
   14          1             0        0.124384   -4.577730    0.534306
   15          1             0       -0.027364   -3.993851    2.191784
   16          1             0        1.490590   -3.731853    1.309871
   17          6             0       -1.536604   -2.532444    0.500050
   18          1             0       -1.769905   -3.271125   -0.262056
   19          1             0       -1.879602   -1.554073    0.157201
   20          1             0       -2.049955   -2.793470    1.423061
   21          1             0       -0.697476   -3.579657   -3.055981
   22          6             0        1.199978    1.980600    0.219430
   23          8             0        1.644312    0.846092    0.054218
   24          7             0        1.999303    3.075981    0.195062
   25          1             0        2.991440    2.960817    0.099245
   26          1             0        1.637267    3.992176    0.384704
   27          7             0       -0.104541    2.206642    0.483718
   28          1             0       -0.502229    3.128022    0.372244
   29          1             0       -0.749746    1.454567    0.263020
   30          6             0       -3.305280    3.469343    0.547067
   31          8             0       -2.400266    3.790439   -0.222809
   32          7             0       -3.620862    2.180542    0.780013
   33          1             0       -3.078918    1.449613    0.327261
   34          1             0       -4.347804    1.923129    1.421002
   35          7             0       -4.017121    4.401600    1.222956
   36          1             0       -4.819130    4.165351    1.777621
   37          1             0       -3.856417    5.368751    1.004457
   38          6             0       -1.890128    0.639121   -1.852340
   39          8             0       -1.932865    0.318600   -0.652378
   40          7             0       -1.695529   -0.293675   -2.807712
   41          1             0       -1.565913   -1.261186   -2.548354
   42          1             0       -1.683738   -0.047881   -3.780150
   43          7             0       -2.018297    1.911172   -2.244538
   44          1             0       -1.979787    2.166966   -3.213879
   45          1             0       -2.135054    2.651180   -1.544702
   46          6             0        4.145157   -1.607769    1.188754
   47          8             0        3.152064   -2.331417    1.199587
   48          7             0        4.111035   -0.345445    0.723137
   49          1             0        3.220847    0.070827    0.448505
   50          1             0        4.919995    0.244856    0.787177
   51          7             0        5.341644   -2.046334    1.656571
   52          1             0        6.183127   -1.508627    1.559930
   53          1             0        5.423286   -3.010081    1.926014
 --------------------------------------------------------------------
     1 basis functions        1 primitive gaussians
     1 alpha electrons        1 beta electrons

 Harmonic frequencies (cm**-1), IR intensities (km*mol⁻¹),
 Raman scattering activities (A**4/amu), Raman depolarization ratios,
 reduced masses (AMU), force constants (mDyne/A) and normal coordinates:
                      1                      2                      3
                        a                      a                      a 
 Frequencies --    14.5933                19.6554                26.7586
 Red. masses --    12.2606                12.1734                11.8861
 Frc consts  --     0.0000                 0.0000                 0.0000
 IR Inten    --     0.4558                 0.6804                 0.8866
 Raman Activ --     0.0000                 0.0000                 0.0000
 Depolar     --     0.0000                 0.0000                 0.0000
 Atom AN      X      Y      Z        X      Y      Z        X      Y      Z
   1   8    -0.07  -0.05   0.11     0.00  -0.03   0.06    -0.06   0.05   0.07
   2   6    -0.04  -0.04   0.04     0.02   0.15  -0.00    -0.08  -0.03   0.12
   3   1    -0.01  -0.01   0.01     0.05   0.06  -0.01    -0.05  -0.01   0.05
   4   1    -0.02  -0.01   0.00    -0.02   0.07  -0.01    -0.00  -0.03   0.04
   5   6     0.03  -0.04   0.03    -0.06   0.14   0.01    -0.07   0.03   0.08
   6   1     0.01  -0.01   0.01    -0.05   0.03   0.01    -0.02   0.01   0.01
   7   1     0.01  -0.02  -0.00    -0.02   0.07  -0.00    -0.02   0.01   0.03
   8   7     0.06  -0.02   0.06    -0.00   0.06   0.01    -0.11   0.11   0.09
   9   6     0.15  -0.06   0.06    -0.01   0.03   0.05    -0.14   0.18   0.02
  10   1     0.04  -0.04   0.01    -0.00   0.02   0.00    -0.04   0.07   0.00
  11   1     0.04  -0.01   0.02     0.01  -0.01   0.02    -0.04   0.06   0.01
  12   1     0.06  -0.01   0.02    -0.02   0.01   0.03    -0.06   0.04  -0.01
  13   6     0.01  -0.06   0.02     0.05   0.05  -0.06    -0.09   0.14   0.19
  14   1    -0.02  -0.01   0.01     0.01   0.02  -0.02    -0.01   0.03   0.07
  15   1     0.01  -0.01   0.01     0.03   0.00  -0.01    -0.03   0.06   0.06
  16   1     0.00  -0.03  -0.01     0.02   0.02  -0.03    -0.03   0.05   0.07
  17   6     0.04   0.06   0.11    -0.01   0.02   0.05    -0.09   0.06   0.05
  18   1    -0.01   0.02   0.03    -0.00   0.01   0.01    -0.02  -0.00   0.03
  19   1     0.02   0.02   0.04    -0.01   0.00   0.02    -0.03   0.01  -0.01
  20   1     0.02   0.02   0.04     0.01  -0.01   0.02    -0.03   0.04   0.02
  21   1    -0.03  -0.02   0.03     0.01  -0.01   0.02    -0.02  -0.00   0.03
  22   6    -0.10  -0.00   0.18     0.07   0.07   0.17     0.08   0.03   0.02
  23   8    -0.11  -0.00   0.19     0.14   0.08   0.33     0.08   0.05  -0.11
  24   7    -0.12   0.00   0.17     0.06   0.09   0.34     0.10   0.03   0.20
  25   1    -0.03   0.00   0.05     0.02   0.03   0.17     0.03   0.01   0.07
  26   1    -0.03  -0.00   0.06     0.00   0.02   0.08     0.03   0.00   0.09
  27   7    -0.11  -0.02   0.21     0.01   0.05  -0.14     0.08   0.02  -0.01
  28   1    -0.03  -0.01   0.05     0.00   0.01  -0.06     0.02   0.01   0.02
  29   1    -0.03  -0.01   0.05     0.02   0.01  -0.06     0.02   0.01  -0.03
  30   6    -0.10   0.09  -0.14     0.03  -0.02  -0.08    -0.04  -0.19   0.03
  31   8     0.03   0.07  -0.01    -0.06  -0.03  -0.21    -0.06  -0.11   0.06
  32   7    -0.18   0.10  -0.20     0.09  -0.02   0.01     0.02  -0.23  -0.05
  33   1    -0.04   0.02  -0.03     0.02  -0.01   0.00     0.02  -0.05  -0.02
  34   1    -0.08   0.03  -0.08     0.05  -0.00   0.03     0.01  -0.08  -0.02
  35   7    -0.19   0.12  -0.27     0.08  -0.01  -0.05    -0.10  -0.28   0.09
  36   1    -0.07   0.04  -0.11     0.03  -0.00   0.01    -0.03  -0.10   0.01
  37   1    -0.03   0.03  -0.07     0.00  -0.00  -0.04    -0.04  -0.07   0.04
  38   6     0.10   0.03   0.05    -0.14  -0.08  -0.09     0.14   0.04  -0.10
  39   8    -0.05   0.04   0.05     0.04  -0.02  -0.07     0.16   0.00  -0.13
  40   7     0.20   0.03   0.07    -0.28  -0.14  -0.07     0.17   0.08  -0.14
  41   1     0.02   0.01   0.02    -0.05  -0.03  -0.01     0.04   0.02  -0.04
  42   1     0.07   0.01   0.02    -0.11  -0.05  -0.02     0.05   0.03  -0.03
  43   7     0.20   0.04   0.04    -0.25  -0.11  -0.14     0.14   0.06  -0.06
  44   1     0.09   0.01   0.01    -0.11  -0.04  -0.04     0.03   0.03  -0.01
  45   1     0.04   0.01   0.01    -0.05  -0.02  -0.04     0.02   0.01  -0.01
  46   6     0.07  -0.07  -0.17     0.05  -0.06  -0.03    -0.03  -0.00  -0.09
  47   8     0.11  -0.12  -0.15     0.00   0.00  -0.09    -0.12   0.12   0.14
  48   7    -0.03  -0.03  -0.07     0.12   0.01   0.17     0.05  -0.07  -0.28
  49   1    -0.02  -0.01   0.01     0.04   0.02   0.06     0.02  -0.00  -0.06
  50   1    -0.01  -0.00  -0.03     0.05  -0.02   0.04     0.04  -0.04  -0.13
  51   7     0.14  -0.07  -0.35     0.06  -0.23  -0.19    -0.02  -0.08  -0.21
  52   1     0.03  -0.00  -0.10     0.02  -0.07  -0.03     0.01  -0.05  -0.09
  53   1     0.05  -0.02  -0.11    -0.00  -0.07  -0.08    -0.03  -0.01  -0.01
                      4                      5                      6
                        a                      a                      a 
 Frequencies --    37.3232                40.6210                42.0961
 Red. masses --    12.3608                12.7161                12.4976
 Frc consts  --     0.0000                 0.0000                 0.0000
 IR Inten    --     0.7586                 2.8238                 2.4473
 Raman Activ --     0.0000                 0.0000                 0.0000
 Depolar     --     0.0000                 0.0000                 0.0000
 Atom AN      X      Y      Z        X      Y      Z        X      Y      Z
   1   8    -0.11   0.02   0.06    -0.08   0.04  -0.01     0.38   0.07  -0.09
   2   6    -0.07  -0.07   0.02    -0.06   0.08  -0.05     0.27   0.09   0.07
   3   1    -0.04  -0.03   0.01    -0.00   0.03  -0.02     0.08   0.03   0.02
   4   1    -0.02  -0.04  -0.00    -0.03   0.04  -0.02     0.10   0.04   0.05
   5   6     0.04  -0.05  -0.01    -0.06   0.06  -0.03     0.09   0.04   0.11
   6   1     0.03  -0.01  -0.01    -0.03   0.01   0.00     0.03   0.01   0.03
   7   1     0.02  -0.04  -0.01    -0.02   0.03  -0.02     0.02   0.02   0.07
   8   7     0.04   0.05   0.02    -0.01   0.00  -0.02    -0.04  -0.02   0.02
   9   6     0.15   0.04  -0.01    -0.01  -0.01  -0.01    -0.15  -0.06   0.09
  10   1     0.04  -0.02  -0.00    -0.00   0.01  -0.01    -0.05  -0.02   0.06
  11   1     0.03   0.04  -0.00     0.01  -0.02   0.00    -0.07  -0.03   0.01
  12   1     0.08   0.02  -0.01    -0.02  -0.00   0.01    -0.03  -0.01   0.03
  13   6    -0.05   0.01   0.04     0.04   0.00  -0.07    -0.07  -0.04   0.01
  14   1    -0.04   0.01   0.02     0.01   0.00  -0.02     0.00  -0.00  -0.01
  15   1    -0.01   0.02   0.02     0.02  -0.01  -0.02    -0.05  -0.02  -0.01
  16   1    -0.01  -0.02  -0.00     0.01   0.01  -0.03    -0.02  -0.01   0.04
  17   6     0.03   0.15   0.06    -0.02  -0.03   0.02    -0.01  -0.04  -0.14
  18   1    -0.01   0.04   0.03    -0.01  -0.01   0.00     0.03   0.00  -0.06
  19   1     0.03   0.05   0.01    -0.01  -0.01   0.01     0.00  -0.00  -0.03
  20   1     0.01   0.06   0.03     0.00  -0.02   0.01    -0.03  -0.03  -0.06
  21   1    -0.05  -0.00   0.02    -0.02   0.01  -0.01     0.13   0.03  -0.03
  22   6     0.00   0.09  -0.11     0.13   0.03  -0.04    -0.03   0.04  -0.04
  23   8    -0.00   0.07   0.10     0.14   0.03  -0.06    -0.05   0.01   0.16
  24   7     0.00   0.09  -0.35     0.15   0.03  -0.10    -0.04   0.04  -0.29
  25   1     0.00   0.02  -0.08     0.04   0.00  -0.04    -0.01   0.00  -0.04
  26   1     0.00   0.03  -0.12     0.05   0.01  -0.03    -0.00   0.01  -0.08
  27   7     0.01   0.14  -0.15     0.16   0.04   0.01    -0.03   0.09  -0.06
  28   1     0.00   0.04  -0.06     0.04   0.01   0.01    -0.01   0.02  -0.05
  29   1    -0.00   0.03  -0.01     0.04   0.01   0.02    -0.01   0.02   0.02
  30   6    -0.08  -0.08   0.05    -0.09  -0.03  -0.02    -0.05   0.06   0.02
  31   8    -0.19  -0.01  -0.02     0.00  -0.01   0.12    -0.10   0.06  -0.04
  32   7    -0.01  -0.11   0.02     0.20  -0.06   0.27     0.03   0.06   0.14
  33   1     0.00  -0.02  -0.01     0.06  -0.01   0.07     0.00   0.02   0.03
  34   1     0.02  -0.05   0.02    -0.03  -0.02  -0.02     0.01   0.02   0.03
  35   7    -0.08  -0.15   0.16    -0.51  -0.04  -0.47    -0.09   0.07  -0.04
  36   1    -0.01  -0.06   0.05    -0.11  -0.03  -0.09    -0.00   0.02   0.02
  37   1    -0.04  -0.04   0.05    -0.14  -0.01  -0.12    -0.03   0.02  -0.02
  38   6     0.06   0.07  -0.05     0.02   0.01   0.10    -0.02   0.01   0.06
  39   8     0.04   0.07  -0.06     0.11   0.00   0.12    -0.04   0.02   0.07
  40   7     0.22   0.11  -0.05    -0.15   0.01   0.08     0.09   0.02   0.08
  41   1     0.04   0.03  -0.01    -0.03   0.00   0.02     0.04   0.01   0.02
  42   1     0.04   0.02  -0.01    -0.04   0.01   0.02     0.02   0.00   0.02
  43   7    -0.05   0.07  -0.05     0.08   0.03   0.14    -0.14  -0.01   0.03
  44   1    -0.00   0.02  -0.01    -0.01   0.01   0.04    -0.02  -0.01   0.01
  45   1    -0.03   0.01  -0.01     0.03   0.01   0.04    -0.04   0.00   0.00
  46   6     0.01  -0.12   0.06     0.00  -0.04   0.01    -0.02  -0.11  -0.01
  47   8     0.07  -0.21  -0.12    -0.02  -0.02  -0.09    -0.09  -0.03   0.32
  48   7    -0.08   0.01   0.47     0.07  -0.03   0.03    -0.01  -0.17  -0.16
  49   1    -0.02  -0.00   0.10     0.03  -0.00  -0.00    -0.01  -0.03  -0.00
  50   1    -0.02   0.00   0.13     0.02  -0.01   0.04     0.02  -0.06  -0.11
  51   7     0.06  -0.20  -0.10    -0.05  -0.08   0.11     0.06  -0.19  -0.28
  52   1     0.00  -0.02   0.04    -0.01  -0.03   0.04     0.02  -0.06  -0.11
  53   1     0.03  -0.06  -0.07    -0.03  -0.03   0.02     0.00  -0.04  -0.02
                      7                      8                      9
                        a                      a                      a 
 Frequencies --    48.7137                50.5885                52.0089
 Red. masses --    11.8861                12.1769                13.3665
 Frc consts  --     0.0000                 0.0000                 0.0000
 IR Inten    --     0.1755                 0.5107                 0.5938
 Raman Activ --     0.0000                 0.0000                 0.0000
 Depolar     --     0.0000                 0.0000                 0.0000
 Atom AN      X      Y      Z        X      Y      Z        X      Y      Z
   1   8     0.02   0.17  -0.03     0.06  -0.02  -0.12     0.08   0.21  -0.01
   2   6     0.00  -0.15   0.02     0.01  -0.25   0.02     0.05   0.10   0.04
   3   1    -0.07  -0.06   0.02    -0.06  -0.09   0.03    -0.00   0.02   0.00
   4   1     0.04  -0.10   0.01     0.05  -0.13   0.02     0.03   0.03   0.02
   5   6     0.18  -0.13   0.00     0.08  -0.18  -0.04     0.06   0.07   0.06
   6   1     0.10  -0.02  -0.01     0.06  -0.05  -0.03     0.02   0.02   0.02
   7   1     0.06  -0.09   0.00     0.02  -0.08  -0.00     0.02   0.01   0.02
   8   7     0.12   0.03   0.02    -0.00  -0.03  -0.04     0.04   0.05   0.05
   9   6     0.21   0.04  -0.03    -0.06   0.09  -0.14     0.02   0.04   0.07
  10   1     0.06  -0.03   0.00    -0.02   0.04  -0.03     0.00   0.02   0.02
  11   1     0.04   0.05  -0.01    -0.03   0.05  -0.04     0.01   0.00   0.02
  12   1     0.11   0.02  -0.03    -0.03   0.01  -0.07    -0.00   0.01   0.03
  13   6    -0.05  -0.00   0.10    -0.03   0.03   0.15     0.04   0.05   0.04
  14   1    -0.03  -0.00   0.04     0.01  -0.02   0.06     0.02   0.02   0.01
  15   1    -0.03   0.03   0.03    -0.03   0.04   0.04     0.00   0.01   0.01
  16   1    -0.01  -0.04   0.03    -0.01   0.01   0.07     0.01   0.02   0.02
  17   6     0.11   0.18  -0.00     0.01  -0.06  -0.11     0.04   0.03   0.02
  18   1     0.01   0.05   0.01     0.02  -0.03  -0.02     0.02   0.01   0.01
  19   1     0.06   0.06  -0.02     0.01  -0.02  -0.06     0.01   0.01   0.00
  20   1     0.02   0.08   0.00    -0.01   0.00  -0.04     0.01   0.01   0.00
  21   1    -0.02   0.04  -0.01     0.01  -0.01  -0.03     0.02   0.06  -0.00
  22   6     0.01  -0.06   0.03    -0.03  -0.04  -0.01     0.05  -0.10  -0.11
  23   8    -0.05  -0.10   0.03    -0.11  -0.05  -0.23     0.12  -0.07  -0.28
  24   7     0.10  -0.12   0.19     0.05  -0.10   0.26    -0.01  -0.07  -0.07
  25   1     0.03  -0.05   0.07     0.01  -0.04   0.05    -0.00   0.00  -0.05
  26   1     0.04  -0.03   0.04     0.03  -0.03   0.09    -0.01  -0.03   0.00
  27   7     0.00   0.01  -0.12    -0.02  -0.01  -0.00     0.06  -0.20   0.01
  28   1     0.02   0.01  -0.02     0.01   0.00   0.03     0.01  -0.05   0.03
  29   1    -0.01   0.02  -0.05    -0.01   0.01  -0.03     0.02  -0.05  -0.01
  30   6    -0.09   0.02   0.00     0.06   0.05   0.03    -0.05  -0.02  -0.01
  31   8    -0.12   0.04  -0.01     0.03   0.04  -0.03     0.15  -0.04   0.21
  32   7    -0.03   0.02   0.06     0.24   0.06   0.27    -0.32  -0.01  -0.30
  33   1    -0.01   0.01   0.01     0.04   0.01   0.05    -0.06  -0.00  -0.04
  34   1    -0.02  -0.00   0.00     0.03   0.02   0.04    -0.10  -0.00  -0.09
  35   7    -0.16   0.01  -0.04    -0.04   0.09  -0.13    -0.03  -0.02   0.00
  36   1    -0.03  -0.00   0.00     0.02   0.03   0.01    -0.06   0.00  -0.07
  37   1    -0.05   0.00  -0.01    -0.02   0.02  -0.05     0.03  -0.00   0.03
  38   6    -0.14   0.10  -0.08    -0.02  -0.00   0.00    -0.11   0.03  -0.01
  39   8    -0.06   0.12  -0.09    -0.02  -0.01  -0.00    -0.08  -0.00  -0.02
  40   7    -0.15   0.11  -0.09    -0.02  -0.00  -0.00    -0.41   0.02  -0.05
  41   1    -0.00   0.04  -0.02     0.01   0.00  -0.00    -0.06   0.01  -0.02
  42   1    -0.05   0.03  -0.02     0.01   0.00   0.00    -0.05   0.02  -0.01
  43   7    -0.29   0.09  -0.08    -0.04  -0.01   0.00     0.07   0.07   0.05
  44   1    -0.09   0.03  -0.02    -0.01  -0.00   0.00    -0.02   0.03   0.01
  45   1    -0.06   0.02  -0.02    -0.00   0.00   0.00     0.03   0.01   0.02
  46   6     0.08  -0.10   0.03    -0.03   0.09   0.03     0.05  -0.03   0.08
  47   8     0.16  -0.20   0.11    -0.01   0.06   0.10     0.02   0.01   0.17
  48   7     0.04  -0.21  -0.25    -0.20   0.20   0.35     0.03   0.02   0.26
  49   1    -0.00  -0.07  -0.05    -0.05   0.03   0.05     0.02   0.00   0.03
  50   1    -0.01  -0.03  -0.04    -0.03   0.04  -0.01     0.03  -0.02  -0.01
  51   7     0.09   0.09   0.24     0.08   0.03  -0.36     0.10  -0.16  -0.18
  52   1     0.02   0.02   0.01     0.00   0.05  -0.02     0.02  -0.03   0.00
  53   1     0.04   0.03   0.08     0.03   0.02  -0.08     0.02  -0.03  -0.02
                     10                     11                     12
                        a                      a                      a 
 Frequencies --    56.3771                66.8838                68.5140
 Red. masses --    12.7315                12.5777                12.0777
 Frc consts  --     0.0000                 0.0000                 0.0000
 IR Inten    --     1.1195                 1.2434                 1.3123
 Raman Activ --     0.0000                 0.0000                 0.0000
 Depolar     --     0.0000                 0.0000                 0.0000
 Atom AN      X      Y      Z        X      Y      Z        X      Y      Z
   1   8    -0.05   0.10   0.09    -0.00  -0.17  -0.05    -0.03  -0.02   0.11
   2   6    -0.02   0.14   0.03    -0.01  -0.15  -0.03     0.01   0.21  -0.00
   3   1     0.01   0.04  -0.00    -0.02  -0.04   0.02     0.07   0.08  -0.03
   4   1    -0.02   0.06   0.01     0.00  -0.07  -0.01    -0.04   0.12  -0.01
   5   6    -0.03   0.10   0.06     0.00  -0.06  -0.10    -0.08   0.14   0.06
   6   1    -0.02   0.03   0.03    -0.00  -0.02  -0.05    -0.05   0.04   0.04
   7   1    -0.01   0.04   0.01     0.00  -0.01  -0.03    -0.02   0.06   0.01
   8   7     0.01   0.04   0.07     0.01   0.03  -0.07    -0.03  -0.01   0.04
   9   6     0.06  -0.03   0.12    -0.05   0.15  -0.17    -0.01  -0.12   0.14
  10   1     0.02  -0.02   0.02    -0.01   0.07  -0.05    -0.00  -0.04   0.03
  11   1     0.03  -0.02   0.04    -0.00   0.05  -0.04     0.01  -0.07   0.04
  12   1     0.02   0.00   0.06    -0.04   0.03  -0.07    -0.01  -0.03   0.07
  13   6     0.02   0.01  -0.03     0.06   0.10   0.07     0.01  -0.06  -0.13
  14   1    -0.00   0.01  -0.02     0.03   0.01   0.04    -0.00   0.01  -0.06
  15   1     0.01  -0.01  -0.01     0.02   0.05   0.02     0.01  -0.05  -0.04
  16   1     0.01  -0.00  -0.02     0.02   0.05   0.02     0.00  -0.02  -0.05
  17   6     0.00   0.06   0.10     0.01  -0.06  -0.07    -0.04   0.00   0.08
  18   1    -0.01   0.02   0.03     0.02  -0.03  -0.01    -0.01   0.02   0.01
  19   1     0.00   0.02   0.03    -0.01  -0.03  -0.03    -0.01   0.01   0.05
  20   1     0.01   0.02   0.03     0.01  -0.01  -0.02    -0.00  -0.02   0.02
  21   1    -0.01   0.02   0.03    -0.00  -0.05  -0.01     0.01   0.01   0.02
  22   6    -0.12  -0.10  -0.02     0.09   0.06  -0.01     0.09  -0.16  -0.06
  23   8     0.06  -0.03  -0.09     0.25   0.14  -0.10    -0.10  -0.25  -0.15
  24   7    -0.32   0.03  -0.05    -0.04   0.17   0.07     0.31  -0.32   0.10
  25   1    -0.08   0.06  -0.03    -0.01   0.08   0.02     0.08  -0.13   0.02
  26   1    -0.13  -0.01  -0.00    -0.04   0.03   0.04     0.13  -0.07   0.03
  27   7    -0.15  -0.33   0.08     0.06  -0.09  -0.01     0.12   0.03  -0.14
  28   1    -0.08  -0.10   0.02    -0.01  -0.03   0.01     0.07   0.02  -0.02
  29   1    -0.01  -0.11   0.01     0.03  -0.04  -0.01     0.01   0.03  -0.03
  30   6     0.13  -0.01   0.05    -0.05   0.06   0.02    -0.06   0.01  -0.02
  31   8     0.18  -0.04   0.07     0.09  -0.02   0.16    -0.04  -0.01   0.00
  32   7     0.30  -0.01   0.26    -0.24   0.09  -0.09    -0.11   0.01  -0.05
  33   1     0.03  -0.01   0.02    -0.05   0.01   0.00    -0.02   0.00  -0.01
  34   1     0.00   0.00  -0.02    -0.08   0.04  -0.04    -0.03   0.01  -0.01
  35   7    -0.00   0.02  -0.16    -0.03   0.12  -0.04    -0.05   0.02  -0.02
  36   1     0.04   0.01   0.02    -0.04   0.05  -0.05    -0.02   0.01  -0.02
  37   1     0.02   0.00  -0.03     0.02   0.03   0.00    -0.01   0.00  -0.00
  38   6    -0.05   0.02  -0.16    -0.06  -0.03   0.09     0.00   0.03   0.02
  39   8    -0.19  -0.07  -0.22    -0.10  -0.05   0.09     0.00   0.05   0.02
  40   7     0.21   0.12  -0.21     0.36   0.04   0.11     0.37   0.07   0.05
  41   1     0.03   0.03  -0.06     0.05   0.00   0.02     0.06   0.01   0.02
  42   1     0.04   0.04  -0.05     0.01  -0.00   0.03     0.02   0.00   0.01
  43   7    -0.17   0.04  -0.10    -0.42  -0.07   0.08    -0.32  -0.01  -0.02
  44   1     0.03   0.04  -0.02    -0.03  -0.01   0.03    -0.03  -0.00  -0.00
  45   1    -0.02   0.00  -0.01    -0.07  -0.02   0.02    -0.07   0.00  -0.01
  46   6     0.03  -0.01   0.02     0.03  -0.05   0.01    -0.01   0.09  -0.01
  47   8     0.02   0.02   0.03    -0.05   0.05  -0.05     0.01   0.07  -0.01
  48   7     0.06  -0.01   0.02     0.18  -0.05   0.01    -0.08   0.12   0.08
  49   1     0.02  -0.00  -0.00     0.06   0.01  -0.01    -0.02   0.01   0.00
  50   1     0.02  -0.01  -0.00     0.06  -0.03   0.01    -0.02   0.03  -0.00
  51   7     0.03  -0.04   0.02    -0.04  -0.18   0.08     0.02   0.10  -0.08
  52   1     0.01  -0.01   0.01     0.00  -0.07   0.04    -0.00   0.04  -0.01
  53   1    -0.00  -0.01   0.01    -0.04  -0.05   0.02     0.01   0.03  -0.02
                     13                     14                     15
                        a                      a                      a 
 Frequencies --    79.2014                84.7756                91.3724
 Red. masses --    12.8434                12.8230                12.8149
 Frc consts  --     0.0000                 0.0000                 0.0000
 IR Inten    --     1.5300                10.0759                 6.5195
 Raman Activ --     0.0000                 0.0000                 0.0000
 Depolar     --     0.0000                 0.0000                 0.0000
 Atom AN      X      Y      Z        X      Y      Z        X      Y      Z
   1   8     0.12  -0.15   0.10     0.28  -0.03  -0.03    -0.11  -0.17   0.06
   2   6     0.13   0.09   0.00     0.18   0.04   0.12    -0.03   0.04  -0.11
   3   1     0.09   0.04  -0.01     0.05   0.02   0.07     0.04   0.03  -0.03
   4   1     0.01   0.07  -0.01     0.07   0.00   0.05    -0.05   0.04  -0.06
   5   6     0.06   0.08   0.01     0.01   0.13   0.05    -0.01   0.08  -0.13
   6   1     0.02   0.03   0.01    -0.01   0.03  -0.01    -0.02   0.02  -0.04
   7   1     0.02   0.02   0.01    -0.00   0.06   0.04    -0.00   0.04  -0.05
   8   7     0.03   0.06  -0.01    -0.06   0.19   0.03     0.07   0.09  -0.10
   9   6     0.16  -0.05   0.06    -0.16   0.24  -0.01     0.10   0.09  -0.11
  10   1     0.04  -0.08   0.04    -0.05   0.09   0.02     0.03   0.03  -0.05
  11   1     0.02  -0.00   0.01    -0.06   0.08  -0.01     0.04   0.02  -0.02
  12   1     0.10   0.01   0.03    -0.05   0.06  -0.02     0.02   0.02  -0.03
  13   6    -0.11  -0.04  -0.13    -0.04   0.22   0.14     0.10   0.09  -0.11
  14   1    -0.07   0.02  -0.05    -0.01   0.05   0.06     0.03   0.03  -0.03
  15   1    -0.03  -0.02  -0.04    -0.01   0.09   0.05     0.03   0.02  -0.03
  16   1    -0.03  -0.05  -0.05    -0.01   0.07   0.03     0.03   0.04  -0.03
  17   6     0.02   0.22   0.01    -0.04   0.10  -0.06     0.05   0.06  -0.00
  18   1    -0.02   0.09  -0.01     0.02   0.03  -0.03     0.00   0.01   0.01
  19   1     0.03   0.08   0.03    -0.02   0.02  -0.02     0.00   0.01   0.00
  20   1     0.01   0.05  -0.00    -0.02   0.02  -0.03     0.03   0.02   0.01
  21   1     0.04  -0.04   0.03     0.10  -0.02   0.00    -0.04  -0.06   0.02
  22   6    -0.00   0.14  -0.09    -0.03  -0.13  -0.00    -0.01  -0.09  -0.05
  23   8     0.03   0.23  -0.52    -0.08  -0.16   0.01     0.02  -0.10   0.00
  24   7    -0.04   0.18   0.25     0.01  -0.17   0.01     0.00  -0.10   0.07
  25   1    -0.02   0.07  -0.04    -0.00  -0.06  -0.03     0.00  -0.03   0.07
  26   1    -0.02   0.04   0.08     0.01  -0.04  -0.03    -0.00  -0.03   0.02
  27   7     0.01   0.02   0.11    -0.03  -0.08  -0.01    -0.04  -0.08  -0.26
  28   1    -0.01   0.01   0.08     0.00  -0.02   0.00    -0.01  -0.02  -0.06
  29   1     0.01   0.01  -0.01    -0.02  -0.01  -0.00    -0.02  -0.02  -0.06
  30   6    -0.01  -0.03  -0.01    -0.03  -0.02   0.04    -0.13   0.04   0.06
  31   8    -0.08  -0.06  -0.09    -0.04  -0.07   0.02    -0.26  -0.02  -0.09
  32   7     0.00  -0.02   0.06    -0.04  -0.00   0.11    -0.09   0.06   0.22
  33   1     0.00  -0.01   0.02    -0.03  -0.01   0.02    -0.05   0.01   0.04
  34   1     0.02  -0.00   0.04    -0.02   0.01   0.02    -0.01   0.03   0.08
  35   7     0.04  -0.00   0.02    -0.00   0.03   0.01    -0.04   0.10   0.09
  36   1     0.01   0.00   0.01     0.01   0.02   0.02     0.01   0.04   0.06
  37   1    -0.00  -0.00  -0.02     0.01   0.00  -0.00    -0.02   0.02  -0.00
  38   6     0.02  -0.04   0.04    -0.01  -0.02   0.01     0.01  -0.01   0.01
  39   8     0.04   0.06   0.07    -0.15   0.00   0.02    -0.33  -0.01   0.00
  40   7     0.01  -0.13   0.12    -0.01  -0.05   0.04     0.07  -0.04   0.05
  41   1     0.00  -0.03   0.05     0.01  -0.01   0.01    -0.04  -0.02   0.02
  42   1     0.00  -0.05   0.03     0.05  -0.01   0.01     0.08  -0.01   0.01
  43   7     0.03  -0.08  -0.05     0.13  -0.01  -0.01     0.40   0.02   0.01
  44   1    -0.00  -0.04  -0.02     0.04  -0.01  -0.00     0.13   0.00   0.00
  45   1    -0.00  -0.01  -0.02     0.01  -0.01  -0.00     0.03   0.00  -0.00
  46   6    -0.11  -0.12   0.00     0.02  -0.07  -0.15     0.05  -0.02   0.10
  47   8    -0.07  -0.21   0.01     0.09  -0.17  -0.53    -0.04   0.11   0.28
  48   7    -0.20  -0.13   0.00     0.02  -0.01   0.01     0.14  -0.05   0.01
  49   1    -0.05  -0.04  -0.04     0.00  -0.01  -0.01     0.04  -0.00   0.01
  50   1    -0.05  -0.03  -0.03    -0.02   0.02   0.11     0.06  -0.04  -0.05
  51   7    -0.09  -0.04   0.01    -0.06  -0.01   0.13     0.05  -0.13  -0.01
  52   1    -0.04   0.01   0.03    -0.02  -0.00   0.04     0.02  -0.05  -0.00
  53   1    -0.01  -0.00   0.03    -0.00  -0.03  -0.05    -0.01  -0.02   0.05
                     16                     17                     18
                        a                      a                      a 
 Frequencies --    98.3695               106.5142               120.3073
 Red. masses --    12.2976                11.3822                13.1619
 Frc consts  --     0.0000                 0.0000                 0.0000
 IR Inten    --    10.7908                 2.3112                 8.9691
 Raman Activ --     0.0000                 0.0000                 0.0000
 Depolar     --     0.0000                 0.0000                 0.0000
 Atom AN      X      Y      Z        X      Y      Z        X      Y      Z
   1   8     0.05   0.16  -0.00    -0.11   0.25  -0.03     0.09  -0.31   0.10
   2   6     0.00  -0.02   0.10    -0.08   0.15  -0.07     0.10  -0.03   0.02
   3   1    -0.03  -0.02   0.02    -0.03   0.04  -0.03     0.08   0.01   0.02
   4   1     0.03  -0.01   0.05    -0.03   0.04  -0.02    -0.00   0.01  -0.01
   5   6    -0.01  -0.10   0.16    -0.00   0.12  -0.04     0.00   0.04  -0.04
   6   1    -0.01  -0.03   0.06    -0.02   0.03   0.01    -0.04  -0.01  -0.02
   7   1    -0.00  -0.03   0.05     0.00   0.04  -0.04    -0.00   0.05  -0.02
   8   7    -0.01  -0.20   0.14     0.15   0.05   0.02     0.09   0.02   0.00
   9   6    -0.10  -0.19   0.16    -0.03   0.17  -0.06     0.08   0.04  -0.02
  10   1    -0.03  -0.02   0.04    -0.01   0.12  -0.03     0.02   0.00   0.00
  11   1    -0.01  -0.08   0.05     0.02   0.03  -0.00     0.01   0.02  -0.01
  12   1    -0.06  -0.06   0.06    -0.08   0.03  -0.03     0.03   0.01  -0.01
  13   6     0.07  -0.17   0.10     0.40   0.17   0.08     0.15   0.04  -0.01
  14   1     0.04  -0.05   0.02     0.17   0.02   0.03     0.04   0.01   0.01
  15   1     0.02  -0.06   0.03     0.13   0.04   0.03     0.06   0.01   0.01
  16   1     0.02  -0.03   0.03     0.11   0.11   0.03     0.04   0.02  -0.02
  17   6    -0.00  -0.26   0.08     0.14  -0.24   0.07     0.08  -0.05   0.06
  18   1     0.02  -0.08   0.02     0.07  -0.10   0.04     0.02  -0.01   0.02
  19   1    -0.01  -0.08   0.02    -0.01  -0.09   0.00     0.00  -0.02   0.03
  20   1    -0.01  -0.09   0.02     0.06  -0.07   0.03     0.04  -0.03   0.02
  21   1     0.01   0.05  -0.01    -0.04   0.07  -0.01     0.03  -0.11   0.05
  22   6     0.04   0.09  -0.13    -0.09  -0.02  -0.01    -0.02   0.10  -0.02
  23   8     0.14   0.14  -0.18    -0.17  -0.03  -0.10    -0.11   0.05   0.15
  24   7    -0.01   0.14   0.19    -0.05  -0.06   0.03     0.07   0.04   0.02
  25   1     0.00   0.06   0.06    -0.02  -0.02  -0.04     0.02  -0.02   0.08
  26   1    -0.03   0.03   0.02    -0.00  -0.01  -0.00     0.03   0.02  -0.00
  27   7    -0.02   0.00  -0.39    -0.08   0.03   0.09    -0.04   0.20  -0.29
  28   1    -0.02  -0.00  -0.09    -0.01   0.01   0.03    -0.01   0.05  -0.09
  29   1     0.01  -0.01  -0.11    -0.03   0.02   0.01    -0.01   0.04  -0.04
  30   6    -0.07   0.11   0.02     0.00   0.04  -0.07     0.10  -0.01   0.10
  31   8    -0.15   0.17  -0.04    -0.08   0.10  -0.15     0.34   0.00   0.38
  32   7    -0.02   0.10   0.02     0.07   0.02  -0.07     0.02  -0.02  -0.03
  33   1    -0.01   0.03  -0.00     0.03   0.01  -0.01     0.00  -0.00  -0.02
  34   1     0.01   0.02   0.02     0.05  -0.00   0.01    -0.08  -0.01  -0.10
  35   7    -0.05   0.08   0.09     0.03  -0.00   0.02    -0.06  -0.04  -0.06
  36   1    -0.01   0.01   0.03     0.01  -0.01   0.01    -0.03  -0.01  -0.03
  37   1    -0.03   0.02   0.02    -0.02   0.00  -0.01     0.03  -0.00   0.05
  38   6     0.01   0.01  -0.02     0.06  -0.04   0.04    -0.05   0.01  -0.07
  39   8    -0.12  -0.09  -0.06     0.17  -0.08   0.05    -0.13  -0.07  -0.11
  40   7     0.03   0.08  -0.09     0.07  -0.00   0.01    -0.06   0.06  -0.13
  41   1     0.02   0.02  -0.04     0.03  -0.00  -0.00    -0.05   0.01  -0.04
  42   1     0.07   0.05  -0.02    -0.01   0.01   0.00    -0.02   0.02  -0.03
  43   7     0.15   0.06   0.06    -0.06  -0.05   0.06     0.02   0.05   0.01
  44   1     0.05   0.03   0.02    -0.03  -0.02   0.02     0.04   0.04   0.01
  45   1     0.01   0.01   0.02    -0.01  -0.01   0.01     0.04   0.00   0.02
  46   6     0.02  -0.02  -0.07    -0.08  -0.15   0.03    -0.16  -0.03  -0.01
  47   8     0.04  -0.06  -0.24    -0.04  -0.24   0.08    -0.12  -0.12   0.04
  48   7     0.04   0.00  -0.00    -0.19  -0.18  -0.01    -0.27  -0.05  -0.05
  49   1     0.02   0.00  -0.02    -0.05  -0.06  -0.01    -0.08  -0.02   0.01
  50   1     0.01   0.00   0.03    -0.06  -0.04  -0.02    -0.08  -0.00  -0.02
  51   7    -0.03  -0.01   0.06    -0.05  -0.07   0.02    -0.12   0.07  -0.04
  52   1    -0.01  -0.00   0.03    -0.03  -0.00   0.01    -0.04   0.03  -0.03
  53   1    -0.01  -0.01  -0.02     0.00  -0.01   0.02    -0.01   0.02  -0.01
                     19                     20                     21
                        a                      a                      a 
 Frequencies --   125.6027               132.5672               144.9726
 Red. masses --    13.0254                12.6416                12.7124
 Frc consts  --     0.0000                 0.0000                 0.0000
 IR Inten    --     2.6615                25.5329                13.4993
 Raman Activ --     0.0000                 0.0000                 0.0000
 Depolar     --     0.0000                 0.0000                 0.0000
 Atom AN      X      Y      Z        X      Y      Z        X      Y      Z
   1   8     0.13  -0.42   0.12    -0.08  -0.27   0.10     0.03  -0.12   0.02
   2   6     0.12  -0.11   0.06    -0.04   0.06  -0.02     0.03  -0.01   0.00
   3   1     0.09  -0.01   0.04     0.06   0.04  -0.01     0.03   0.00   0.01
   4   1     0.01  -0.01   0.00    -0.05   0.06  -0.02     0.00   0.00  -0.00
   5   6    -0.02  -0.01  -0.01    -0.13   0.06  -0.01    -0.01   0.02  -0.02
   6   1    -0.06  -0.03  -0.02    -0.05   0.01  -0.00    -0.00   0.00  -0.02
   7   1    -0.01   0.05  -0.01    -0.04   0.03   0.00    -0.00   0.01  -0.00
   8   7     0.06  -0.05   0.03    -0.17   0.01  -0.05    -0.03   0.04  -0.03
   9   6     0.05  -0.03   0.01    -0.27   0.03  -0.04    -0.01   0.03  -0.02
  10   1     0.01  -0.00   0.00    -0.08   0.04   0.00    -0.00  -0.01  -0.00
  11   1     0.02  -0.01   0.00    -0.08  -0.01  -0.01    -0.01   0.02  -0.01
  12   1     0.01  -0.01  -0.00    -0.10   0.00  -0.01     0.01   0.01  -0.01
  13   6     0.13  -0.02   0.01    -0.07   0.05  -0.04    -0.06   0.02  -0.03
  14   1     0.03  -0.01   0.01     0.01   0.01  -0.02    -0.03   0.01  -0.01
  15   1     0.06  -0.00   0.01    -0.03  -0.00  -0.02    -0.02   0.01  -0.01
  16   1     0.04   0.00  -0.02    -0.02   0.04   0.01    -0.02  -0.00  -0.01
  17   6     0.05  -0.09   0.07    -0.15  -0.11  -0.10    -0.03   0.06  -0.02
  18   1     0.02  -0.02   0.01    -0.02  -0.04  -0.03    -0.01   0.03  -0.02
  19   1     0.00  -0.03   0.03    -0.06  -0.04  -0.04    -0.01   0.02   0.01
  20   1     0.02  -0.04   0.02    -0.05  -0.04  -0.03    -0.01   0.00  -0.01
  21   1     0.05  -0.14   0.05    -0.01  -0.08   0.03     0.01  -0.04   0.01
  22   6    -0.00  -0.08   0.03     0.00   0.04  -0.01    -0.05  -0.04  -0.03
  23   8    -0.01  -0.07  -0.08     0.00   0.06  -0.08    -0.04  -0.03  -0.06
  24   7    -0.02  -0.08  -0.06    -0.02   0.06  -0.00    -0.06  -0.04   0.08
  25   1    -0.01  -0.02  -0.07    -0.00   0.02  -0.01    -0.02  -0.00  -0.00
  26   1     0.00  -0.02  -0.00    -0.00   0.01   0.02    -0.03  -0.01  -0.01
  27   7     0.02  -0.10   0.26     0.01   0.03   0.05    -0.06  -0.04  -0.10
  28   1     0.02  -0.02   0.08     0.00   0.01   0.02    -0.02  -0.01  -0.03
  29   1     0.00  -0.02   0.04     0.00   0.01  -0.00    -0.01  -0.02   0.00
  30   6    -0.09   0.14   0.02    -0.02   0.05   0.04     0.11  -0.00  -0.13
  31   8    -0.21   0.25  -0.05    -0.01   0.05   0.06     0.04   0.37  -0.13
  32   7     0.01   0.10  -0.01    -0.03   0.05   0.02     0.38  -0.09  -0.35
  33   1     0.02   0.04  -0.00    -0.00   0.01   0.01     0.13  -0.00  -0.11
  34   1     0.05   0.00   0.04    -0.01   0.01   0.00     0.12  -0.07  -0.09
  35   7    -0.13   0.05   0.14    -0.04   0.04   0.03    -0.07  -0.30   0.06
  36   1    -0.03  -0.02   0.03    -0.01   0.01   0.01    -0.00  -0.16   0.00
  37   1    -0.08   0.02   0.03    -0.01   0.01   0.02    -0.09  -0.06   0.06
  38   6     0.02   0.13  -0.11     0.01   0.01  -0.05    -0.11   0.05   0.16
  39   8     0.26   0.12  -0.13     0.09  -0.02  -0.07    -0.25  -0.02   0.17
  40   7    -0.14   0.15  -0.17    -0.03   0.03  -0.09    -0.01   0.09   0.17
  41   1    -0.03   0.04  -0.05    -0.04   0.00  -0.03    -0.03   0.02   0.04
  42   1    -0.09   0.04  -0.05    -0.05   0.01  -0.03     0.01   0.03   0.05
  43   7    -0.05   0.15  -0.07    -0.00   0.03  -0.01    -0.06   0.07   0.22
  44   1    -0.08   0.05  -0.02    -0.01   0.02  -0.00     0.02   0.02   0.06
  45   1    -0.01   0.04  -0.01     0.01   0.00   0.00    -0.01   0.03   0.05
  46   6    -0.04   0.01  -0.01     0.23  -0.09   0.07     0.06  -0.01   0.01
  47   8    -0.12   0.13  -0.06     0.40  -0.29   0.15     0.04   0.02   0.01
  48   7     0.09   0.03   0.01    -0.00  -0.11   0.05     0.09  -0.00   0.01
  49   1     0.03   0.02  -0.01    -0.01  -0.06   0.02     0.03  -0.00   0.00
  50   1     0.04  -0.01   0.00    -0.03   0.01   0.00     0.02  -0.00   0.00
  51   7    -0.11  -0.13   0.01     0.38   0.19   0.04     0.05  -0.03   0.02
  52   1    -0.01  -0.06   0.03     0.07   0.09  -0.05     0.02  -0.01   0.01
  53   1    -0.07  -0.04   0.01     0.17   0.05  -0.01     0.01  -0.01   0.01
                     22                     23                     24
                        a                      a                      a 
 Frequencies --   151.2766               181.0750               183.5359
 Red. masses --    13.1594                 9.8147                12.0866
 Frc consts  --     0.0000                 0.0000                 0.0000
 IR Inten    --    20.7349                13.7898                38.0950
 Raman Activ --     0.0000                 0.0000                 0.0000
 Depolar     --     0.0000                 0.0000                 0.0000
 Atom AN      X      Y      Z        X      Y      Z        X      Y      Z
   1   8     0.02   0.05  -0.07    -0.14  -0.03   0.41     0.09  -0.08  -0.19
   2   6    -0.00   0.02  -0.01     0.05   0.08  -0.04    -0.00  -0.07   0.03
   3   1    -0.01   0.01   0.00     0.07   0.03  -0.07    -0.02  -0.02   0.05
   4   1     0.01  -0.00   0.00    -0.06   0.07  -0.06     0.03  -0.04   0.03
   5   6    -0.01   0.04  -0.03     0.26  -0.06   0.05    -0.15   0.04  -0.05
   6   1     0.00   0.01  -0.01     0.16   0.02   0.05    -0.10  -0.02  -0.04
   7   1    -0.00   0.01  -0.00     0.08  -0.11   0.04    -0.05   0.07  -0.03
   8   7    -0.04   0.09  -0.03     0.07  -0.03  -0.06    -0.03   0.02   0.02
   9   6     0.08   0.05  -0.02    -0.15  -0.00  -0.03     0.06   0.02   0.00
  10   1     0.02  -0.03  -0.00    -0.04   0.08  -0.02     0.02  -0.02  -0.00
  11   1     0.01   0.04  -0.01    -0.01  -0.05  -0.00     0.01   0.02   0.00
  12   1     0.07   0.02  -0.01    -0.12  -0.02   0.01     0.04   0.01  -0.00
  13   6    -0.15   0.03  -0.05    -0.00  -0.02   0.03     0.04   0.03  -0.01
  14   1    -0.08   0.02  -0.01     0.10   0.00  -0.04    -0.04  -0.00   0.03
  15   1    -0.04   0.02  -0.01    -0.10  -0.04  -0.05     0.07   0.03   0.03
  16   1    -0.04  -0.02  -0.02    -0.01   0.02   0.12     0.02   0.00  -0.06
  17   6    -0.04   0.19   0.01     0.09  -0.03  -0.25    -0.04  -0.01   0.12
  18   1    -0.03   0.06   0.00     0.04  -0.06  -0.02    -0.01   0.04  -0.00
  19   1     0.01   0.06   0.00     0.05  -0.03  -0.15    -0.03   0.01   0.09
  20   1    -0.01   0.06   0.01    -0.01   0.07  -0.07     0.01  -0.06   0.03
  21   1     0.01  -0.00  -0.01    -0.09   0.01   0.09     0.06  -0.03  -0.04
  22   6    -0.08  -0.09  -0.05    -0.02  -0.07  -0.00     0.12  -0.09   0.02
  23   8     0.00  -0.09   0.05     0.08  -0.05   0.04     0.33  -0.04   0.14
  24   7    -0.15  -0.04   0.03    -0.14   0.02  -0.12    -0.07   0.05  -0.05
  25   1    -0.03   0.00   0.09    -0.01   0.01   0.24    -0.00   0.05   0.09
  26   1    -0.06  -0.02   0.02    -0.04  -0.04   0.21    -0.06  -0.01   0.03
  27   7    -0.13  -0.16  -0.30    -0.06  -0.15  -0.16     0.08  -0.30  -0.11
  28   1    -0.04  -0.05  -0.08    -0.02  -0.04  -0.05    -0.01  -0.09  -0.04
  29   1    -0.01  -0.06  -0.08    -0.00  -0.04  -0.07     0.05  -0.10  -0.04
  30   6    -0.02   0.15   0.08     0.02  -0.04  -0.01    -0.02  -0.08  -0.08
  31   8     0.02   0.23   0.17     0.03  -0.06  -0.00    -0.10  -0.16  -0.21
  32   7    -0.02   0.12  -0.04    -0.00  -0.04  -0.01    -0.05  -0.06   0.01
  33   1     0.04   0.04   0.03     0.02  -0.01   0.02    -0.00  -0.02   0.03
  34   1     0.03   0.01   0.02     0.03  -0.01   0.03     0.04   0.00   0.06
  35   7    -0.12   0.07   0.09     0.03  -0.03  -0.02     0.12   0.01  -0.07
  36   1    -0.06  -0.00  -0.02    -0.02  -0.00  -0.04     0.03   0.03  -0.01
  37   1    -0.05   0.02   0.03    -0.01  -0.01  -0.03     0.03  -0.01  -0.07
  38   6     0.18  -0.18   0.03     0.04   0.13   0.04    -0.00   0.15   0.10
  39   8     0.51  -0.26   0.03     0.16   0.24   0.08     0.08   0.09   0.11
  40   7     0.02  -0.13  -0.05    -0.04   0.03   0.15    -0.02   0.21   0.06
  41   1     0.06  -0.03  -0.03     0.00   0.02   0.07    -0.03   0.05  -0.01
  42   1    -0.05  -0.02  -0.01    -0.03  -0.03   0.03    -0.05   0.06   0.02
  43   7     0.00  -0.17   0.15    -0.01   0.10  -0.05    -0.00   0.16   0.16
  44   1    -0.07  -0.03   0.04    -0.02   0.01  -0.02    -0.02   0.04   0.04
  45   1     0.02  -0.05   0.04     0.01   0.04  -0.02    -0.01   0.04   0.05
  46   6    -0.01   0.02  -0.00    -0.05   0.01  -0.04    -0.11   0.01  -0.01
  47   8    -0.01   0.02   0.02    -0.04  -0.02  -0.10    -0.02  -0.14   0.07
  48   7    -0.01   0.02  -0.01    -0.07   0.02   0.00    -0.28  -0.00  -0.01
  49   1    -0.00   0.01   0.00    -0.01   0.00  -0.03    -0.08  -0.00   0.01
  50   1    -0.00   0.00  -0.00    -0.00  -0.01  -0.04    -0.08   0.01  -0.01
  51   7    -0.00   0.03  -0.00    -0.07   0.02  -0.01    -0.02   0.23  -0.05
  52   1    -0.00   0.00  -0.02    -0.02   0.02   0.05    -0.02   0.08  -0.11
  53   1     0.00   0.01  -0.01    -0.02   0.01   0.02     0.05   0.05  -0.06
                     25                     26                     27
                        a                      a                      a 
 Frequencies --   188.6981               189.6246               204.4515
 Red. masses --    12.3453                 5.0749                11.8337
 Frc consts  --     0.0000                 0.0000                 0.0000
 IR Inten    --    23.8405               170.9474                84.9018
 Raman Activ --     0.0000                 0.0000                 0.0000
 Depolar     --     0.0000                 0.0000                 0.0000
 Atom AN      X      Y      Z        X      Y      Z        X      Y      Z
   1   8     0.06  -0.06  -0.13    -0.05  -0.04   0.15    -0.01  -0.03   0.18
   2   6    -0.01  -0.05   0.03     0.02   0.02  -0.01     0.05   0.03   0.00
   3   1    -0.01  -0.01   0.03     0.03   0.01  -0.02     0.04   0.01  -0.02
   4   1     0.02  -0.03   0.02    -0.02   0.02  -0.02    -0.01   0.03  -0.02
   5   6    -0.12   0.01  -0.01     0.08  -0.02   0.01     0.10   0.00   0.02
   6   1    -0.07  -0.01  -0.01     0.05   0.01   0.01     0.05   0.01   0.01
   7   1    -0.04   0.05  -0.01     0.02  -0.03   0.01     0.03  -0.02   0.01
   8   7    -0.03  -0.03   0.03     0.02  -0.01  -0.03     0.02   0.03  -0.03
   9   6     0.02  -0.02   0.02    -0.05   0.00  -0.02     0.02   0.01  -0.01
  10   1     0.00  -0.04   0.02    -0.02   0.01   0.01     0.01   0.01  -0.01
  11   1    -0.02   0.02  -0.00    -0.02  -0.00  -0.01     0.01  -0.00  -0.00
  12   1     0.04  -0.00  -0.01    -0.02  -0.00  -0.01    -0.00   0.00  -0.00
  13   6     0.03  -0.02  -0.01    -0.01  -0.01   0.00    -0.09  -0.01  -0.01
  14   1    -0.03  -0.01   0.02     0.03   0.00  -0.02    -0.01   0.01  -0.02
  15   1     0.06   0.01   0.02    -0.04  -0.01  -0.02    -0.07  -0.01  -0.02
  16   1     0.01  -0.01  -0.06    -0.01   0.00   0.04    -0.03  -0.01   0.04
  17   6    -0.04  -0.05   0.10     0.03  -0.00  -0.10     0.02   0.08  -0.07
  18   1    -0.01   0.03  -0.01     0.01  -0.02  -0.01    -0.00  -0.02   0.03
  19   1    -0.03   0.00   0.09     0.02  -0.01  -0.06     0.03   0.01  -0.09
  20   1     0.00  -0.07   0.02    -0.01   0.03  -0.03    -0.01   0.10  -0.01
  21   1     0.04  -0.01  -0.04    -0.03  -0.02   0.04    -0.03  -0.06   0.07
  22   6    -0.22   0.02  -0.09    -0.05  -0.00  -0.08     0.01   0.04   0.03
  23   8    -0.33   0.01  -0.16     0.00  -0.01   0.06    -0.08   0.03  -0.03
  24   7    -0.14  -0.02   0.02    -0.02  -0.06   0.35     0.08   0.00  -0.07
  25   1    -0.03  -0.04   0.13    -0.06   0.06  -0.48     0.03  -0.04   0.07
  26   1    -0.01  -0.02   0.14    -0.09   0.09  -0.59     0.06  -0.01   0.11
  27   7    -0.22   0.16  -0.19    -0.06  -0.03  -0.14     0.02   0.11   0.09
  28   1    -0.03   0.06  -0.06    -0.03  -0.01  -0.01     0.02   0.03   0.01
  29   1    -0.07   0.06  -0.06    -0.01  -0.03   0.01     0.00   0.03   0.02
  30   6     0.05  -0.12  -0.02     0.01  -0.05  -0.00    -0.02  -0.05  -0.08
  31   8     0.11  -0.25  -0.02     0.02  -0.12  -0.03    -0.08  -0.12  -0.20
  32   7    -0.06  -0.08   0.04    -0.06  -0.03   0.02    -0.05  -0.02   0.03
  33   1    -0.01  -0.03   0.04    -0.01  -0.02   0.02    -0.05  -0.03   0.00
  34   1    -0.01   0.00   0.02    -0.01   0.00   0.01    -0.02   0.02   0.01
  35   7     0.14   0.01  -0.14     0.04   0.01  -0.09     0.14   0.07  -0.10
  36   1     0.03   0.04  -0.02     0.06   0.03   0.05     0.07   0.06   0.04
  37   1     0.08  -0.01  -0.06     0.06   0.00   0.01     0.07   0.01  -0.04
  38   6     0.07   0.15   0.08     0.03   0.07   0.04    -0.03  -0.07   0.06
  39   8     0.23   0.19   0.10     0.14   0.04   0.04    -0.02  -0.46  -0.03
  40   7    -0.05   0.14   0.09    -0.02   0.10   0.01    -0.05   0.25  -0.27
  41   1     0.00   0.04   0.02    -0.00   0.02  -0.00     0.00   0.05  -0.15
  42   1    -0.04   0.03   0.02    -0.04   0.03   0.00     0.00   0.16  -0.05
  43   7    -0.03   0.14   0.05    -0.00   0.08   0.08    -0.04   0.03   0.45
  44   1    -0.02   0.03   0.01    -0.06   0.02   0.02    -0.01   0.07   0.14
  45   1     0.01   0.04   0.02    -0.01   0.01   0.03    -0.01  -0.02   0.16
  46   6     0.13  -0.03   0.03    -0.01   0.01   0.01     0.00   0.00  -0.01
  47   8     0.06   0.09  -0.01    -0.03   0.04   0.04    -0.01   0.02  -0.05
  48   7     0.25  -0.02   0.03     0.03  -0.00  -0.05     0.02   0.01   0.01
  49   1     0.07  -0.01  -0.01    -0.01   0.02   0.07     0.01  -0.00  -0.02
  50   1     0.08  -0.02  -0.01    -0.03   0.04   0.13     0.02  -0.01  -0.03
  51   7     0.07  -0.17   0.08    -0.01  -0.02  -0.00    -0.02  -0.04  -0.00
  52   1     0.04  -0.07   0.06     0.02  -0.05  -0.13    -0.01   0.00   0.07
  53   1    -0.02  -0.04   0.04     0.00  -0.03  -0.09    -0.02  -0.00   0.04
                     28                     29                     30
                        a                      a                      a 
 Frequencies --   212.6211               234.1087               251.8657
 Red. masses --     2.4878                 2.0385                 3.8815
 Frc consts  --     0.0000                 0.0000                 0.0000
 IR Inten    --    98.6551                82.3954                 0.8580
 Raman Activ --     0.0000                 0.0000                 0.0000
 Depolar     --     0.0000                 0.0000                 0.0000
 Atom AN      X      Y      Z        X      Y      Z        X      Y      Z
   1   8    -0.01   0.01   0.02    -0.00   0.00   0.02     0.10  -0.13  -0.26
   2   6     0.00   0.01  -0.01     0.00   0.00   0.01     0.03   0.07  -0.13
   3   1     0.00   0.00  -0.01     0.00   0.00   0.00     0.06   0.02  -0.08
   4   1    -0.00   0.00  -0.01    -0.00   0.00   0.00     0.00   0.09  -0.01
   5   6     0.03  -0.01  -0.00     0.00   0.01   0.00    -0.05  -0.08   0.01
   6   1     0.01  -0.00   0.00    -0.00   0.00  -0.00     0.01  -0.00   0.03
   7   1     0.01  -0.00  -0.00     0.00   0.00   0.00    -0.01  -0.05  -0.01
   8   7     0.03  -0.00  -0.00    -0.00   0.00  -0.00    -0.03  -0.02   0.07
   9   6     0.01  -0.00   0.00    -0.00  -0.00   0.00     0.11   0.02  -0.02
  10   1     0.00  -0.01   0.02    -0.00  -0.02   0.02     0.09   0.25  -0.29
  11   1    -0.01   0.01  -0.01    -0.02   0.01  -0.01     0.34  -0.19   0.14
  12   1     0.02   0.00  -0.01     0.03   0.00  -0.01    -0.32  -0.04   0.13
  13   6     0.00  -0.01   0.01    -0.00   0.00   0.00    -0.09  -0.02   0.10
  14   1     0.02  -0.00  -0.00    -0.01  -0.00   0.00     0.18   0.03  -0.10
  15   1    -0.02  -0.01  -0.01     0.00   0.00   0.00    -0.23  -0.12  -0.08
  16   1    -0.00  -0.00   0.03    -0.00  -0.00  -0.00    -0.05   0.06   0.26
  17   6     0.03   0.00  -0.02     0.00  -0.00  -0.01    -0.05   0.09   0.20
  18   1     0.01  -0.00   0.00     0.00  -0.01  -0.00    -0.07  -0.09   0.18
  19   1     0.01  -0.00  -0.01    -0.00  -0.00  -0.01     0.02  -0.01  -0.08
  20   1     0.00   0.01  -0.00    -0.00   0.00  -0.00    -0.01   0.20   0.11
  21   1    -0.01   0.01   0.00    -0.00  -0.00   0.01     0.07  -0.02  -0.07
  22   6    -0.01   0.01  -0.01    -0.01   0.01  -0.00    -0.02   0.01  -0.00
  23   8    -0.04   0.01  -0.11    -0.03   0.00   0.01    -0.03   0.00  -0.00
  24   7     0.01   0.00  -0.07     0.01  -0.01   0.02    -0.01   0.00   0.01
  25   1     0.01  -0.02   0.10    -0.00   0.00  -0.06    -0.01   0.00  -0.02
  26   1     0.03  -0.02   0.16    -0.00   0.01  -0.06    -0.00   0.00  -0.02
  27   7     0.00   0.02   0.04    -0.01   0.02   0.00    -0.02   0.03  -0.01
  28   1     0.01   0.01   0.01    -0.00   0.01   0.01    -0.00   0.01  -0.00
  29   1    -0.00   0.01  -0.00     0.00   0.00  -0.01    -0.00   0.01  -0.00
  30   6    -0.00   0.00  -0.00     0.02  -0.02  -0.00     0.01  -0.00   0.00
  31   8    -0.00   0.01  -0.00     0.06  -0.05   0.03     0.01  -0.00   0.01
  32   7     0.01   0.00  -0.00    -0.02  -0.01  -0.01     0.00  -0.00  -0.00
  33   1     0.00   0.00  -0.00     0.10  -0.01   0.13     0.00  -0.00   0.00
  34   1     0.00   0.00  -0.00     0.27   0.01   0.32     0.01  -0.00   0.01
  35   7     0.00  -0.00   0.01     0.13   0.03   0.17     0.01  -0.00   0.00
  36   1    -0.01  -0.00  -0.01    -0.41   0.01  -0.59    -0.02  -0.00  -0.03
  37   1    -0.01  -0.00  -0.01    -0.25  -0.03  -0.36    -0.01  -0.00  -0.01
  38   6    -0.01  -0.01  -0.00    -0.04  -0.00  -0.01    -0.00   0.02   0.00
  39   8    -0.02  -0.03  -0.01    -0.08  -0.04  -0.03     0.00   0.03   0.01
  40   7     0.00  -0.01  -0.01     0.03   0.05  -0.05    -0.00   0.01   0.01
  41   1    -0.00  -0.00  -0.00    -0.02   0.01  -0.03    -0.01  -0.00   0.00
  42   1     0.00   0.00  -0.00    -0.02   0.02  -0.01    -0.02  -0.00   0.00
  43   7    -0.00  -0.01   0.01     0.00   0.01   0.02    -0.00   0.02  -0.01
  44   1     0.01   0.00   0.00     0.01   0.01   0.01     0.00   0.00  -0.00
  45   1     0.00  -0.00   0.00     0.00  -0.01   0.01     0.00   0.01  -0.00
  46   6    -0.01  -0.01  -0.02     0.00   0.00   0.00     0.01  -0.01  -0.00
  47   8    -0.05   0.05   0.05     0.00   0.01   0.00     0.01  -0.02  -0.00
  48   7     0.02   0.01   0.03     0.01  -0.00  -0.01    -0.01  -0.01   0.01
  49   1    -0.01   0.03   0.09     0.00   0.00   0.01    -0.00  -0.00  -0.00
  50   1    -0.04   0.05   0.21    -0.00   0.00   0.01    -0.00  -0.00  -0.00
  51   7    -0.02   0.04   0.27     0.00  -0.01  -0.01     0.00  -0.00   0.02
  52   1     0.09  -0.27  -0.70     0.00   0.00   0.01     0.00  -0.01  -0.01
  53   1     0.05  -0.14  -0.45    -0.00  -0.00   0.00     0.00  -0.00  -0.01
                     31                     32                     33
                        a                      a                      a 
 Frequencies --   278.8775               292.3684               303.8141
 Red. masses --     4.7584                 5.0719                 6.2655
 Frc consts  --     0.0000                 0.0000                 0.0000
 IR Inten    --    28.5752                30.5069                38.0812
 Raman Activ --     0.0000                 0.0000                 0.0000
 Depolar     --     0.0000                 0.0000                 0.0000
 Atom AN      X      Y      Z        X      Y      Z        X      Y      Z
   1   8    -0.07  -0.16  -0.16    -0.07  -0.06  -0.05    -0.15  -0.22  -0.26
   2   6    -0.03   0.22  -0.20    -0.13  -0.18   0.17    -0.19   0.02  -0.05
   3   1     0.10   0.07  -0.15    -0.12  -0.06   0.12    -0.03   0.02  -0.01
   4   1    -0.07   0.20  -0.05     0.01  -0.15   0.05    -0.06   0.02  -0.01
   5   6    -0.00  -0.07   0.05     0.03   0.06  -0.00    -0.02   0.02   0.01
   6   1     0.03   0.00   0.06     0.02   0.01  -0.03     0.02   0.03   0.04
   7   1     0.01  -0.06   0.01     0.02   0.01  -0.03     0.01  -0.03  -0.04
   8   7     0.03  -0.05   0.10     0.08   0.11   0.02     0.09   0.07   0.09
   9   6     0.08   0.04   0.01    -0.09  -0.10   0.26    -0.02  -0.09   0.28
  10   1    -0.01  -0.15   0.16    -0.01   0.10  -0.03    -0.01  -0.05   0.12
  11   1    -0.15   0.17  -0.07     0.09  -0.21   0.10    -0.05  -0.07   0.04
  12   1     0.26   0.04  -0.11    -0.21  -0.03   0.20     0.02  -0.00   0.12
  13   6    -0.08  -0.01   0.31     0.12   0.07  -0.11     0.09   0.09   0.14
  14   1     0.09  -0.00   0.04     0.01   0.03  -0.03     0.16   0.03  -0.02
  15   1    -0.15  -0.01   0.03     0.07   0.00  -0.02    -0.09  -0.03  -0.03
  16   1    -0.04   0.02   0.22     0.04   0.02  -0.07     0.01   0.08   0.18
  17   6     0.06  -0.05  -0.01     0.12   0.17  -0.23     0.13   0.13  -0.20
  18   1     0.05   0.04  -0.07     0.08   0.12  -0.15     0.10   0.17  -0.21
  19   1     0.01   0.01   0.06     0.06   0.08  -0.00     0.05   0.09   0.08
  20   1    -0.01  -0.09  -0.04    -0.02  -0.03  -0.12    -0.02  -0.13  -0.14
  21   1     0.08   0.16  -0.17     0.05   0.13  -0.10    -0.00  -0.14  -0.01
  22   6     0.01  -0.00  -0.00    -0.01   0.01  -0.01     0.01   0.00   0.00
  23   8     0.01  -0.00   0.00    -0.03   0.01  -0.02     0.01   0.00   0.00
  24   7     0.01  -0.00  -0.00     0.00   0.00   0.00     0.00   0.01   0.00
  25   1     0.00  -0.00   0.01    -0.00  -0.00  -0.01     0.00   0.00   0.00
  26   1     0.00  -0.00   0.01     0.00   0.00   0.00    -0.00   0.00  -0.00
  27   7     0.00  -0.01   0.00    -0.01   0.02  -0.00     0.01  -0.00  -0.00
  28   1     0.00  -0.00   0.01    -0.00   0.01  -0.00    -0.00  -0.00  -0.01
  29   1     0.00  -0.00  -0.00     0.00   0.00  -0.00     0.00  -0.00   0.01
  30   6    -0.00   0.00   0.00    -0.00   0.00   0.00    -0.00   0.00  -0.00
  31   8    -0.01   0.00  -0.01    -0.01   0.00  -0.00     0.00  -0.00  -0.00
  32   7    -0.01  -0.00  -0.00    -0.01  -0.00  -0.00     0.01   0.00   0.00
  33   1     0.00   0.00   0.01     0.00   0.00   0.01    -0.00  -0.00  -0.01
  34   1     0.01   0.00   0.01     0.01   0.00   0.02    -0.02  -0.00  -0.02
  35   7    -0.01  -0.00  -0.01    -0.01  -0.01  -0.00     0.02   0.01   0.01
  36   1     0.02  -0.00   0.03     0.01  -0.00   0.02    -0.02   0.00  -0.03
  37   1     0.01   0.00   0.01     0.00  -0.00   0.01    -0.00  -0.00  -0.01
  38   6    -0.04  -0.00  -0.01    -0.04  -0.03  -0.01     0.04  -0.01   0.01
  39   8    -0.01  -0.02  -0.02     0.00  -0.04  -0.01     0.01  -0.00   0.01
  40   7     0.12   0.02  -0.01     0.13   0.01  -0.02    -0.12  -0.01  -0.02
  41   1    -0.21  -0.03  -0.01    -0.22  -0.03  -0.01     0.19   0.02  -0.01
  42   1    -0.41  -0.07  -0.03    -0.47  -0.07  -0.03     0.46   0.09   0.02
  43   7     0.04   0.01   0.01     0.04  -0.01   0.03    -0.03  -0.01   0.02
  44   1     0.12   0.02   0.01     0.15   0.02   0.02    -0.16  -0.01  -0.00
  45   1     0.05   0.00   0.01     0.06  -0.00   0.02    -0.05  -0.01   0.01
  46   6    -0.00   0.01  -0.02     0.00  -0.01  -0.00     0.00   0.00  -0.00
  47   8    -0.00   0.01  -0.03     0.00  -0.00  -0.00     0.00   0.00  -0.01
  48   7     0.01   0.02   0.01    -0.01  -0.00   0.00     0.00  -0.00  -0.00
  49   1     0.00   0.00  -0.01    -0.00  -0.00  -0.01    -0.00  -0.00   0.01
  50   1     0.01  -0.00  -0.02     0.00  -0.00  -0.01    -0.00   0.00   0.01
  51   7    -0.01  -0.01  -0.01    -0.00  -0.01   0.01    -0.00  -0.00  -0.00
  52   1    -0.00   0.00   0.03     0.00  -0.01  -0.00    -0.00   0.00   0.01
  53   1    -0.01   0.00   0.01    -0.00  -0.00  -0.00     0.00  -0.00   0.00
                     34                     35                     36
                        a                      a                      a 
 Frequencies --   331.7875               338.9433               346.7492
 Red. masses --     2.7085                 3.6985                 3.9091
 Frc consts  --     0.0000                 0.0000                 0.0000
 IR Inten    --     8.0055                 6.3722               202.3280
 Raman Activ --     0.0000                 0.0000                 0.0000
 Depolar     --     0.0000                 0.0000                 0.0000
 Atom AN      X      Y      Z        X      Y      Z        X      Y      Z
   1   8    -0.02  -0.01   0.13    -0.06  -0.14  -0.16     0.00   0.00   0.04
   2   6     0.06   0.10  -0.08    -0.07   0.19  -0.09     0.00  -0.01   0.02
   3   1     0.06   0.03  -0.07     0.04   0.07  -0.04    -0.00  -0.00   0.01
   4   1    -0.03   0.09  -0.03    -0.05   0.12  -0.02     0.00  -0.01   0.00
   5   6     0.10  -0.07   0.04    -0.02   0.04   0.04    -0.00   0.00  -0.00
   6   1     0.07   0.01   0.04     0.01   0.03   0.07    -0.01  -0.00  -0.01
   7   1     0.03  -0.07   0.02     0.00  -0.02  -0.01    -0.00   0.01   0.00
   8   7     0.01  -0.04  -0.00     0.04  -0.04   0.05    -0.00   0.01  -0.00
   9   6     0.04   0.11  -0.16     0.05  -0.07   0.08     0.02   0.01  -0.01
  10   1     0.05   0.20  -0.23     0.03   0.02  -0.04     0.01   0.01  -0.02
  11   1     0.21  -0.06   0.05     0.08  -0.07   0.05     0.02  -0.00   0.00
  12   1    -0.22  -0.01   0.00    -0.06  -0.02   0.07    -0.01   0.00  -0.00
  13   6    -0.16  -0.06   0.10    -0.04  -0.02   0.23    -0.01   0.00  -0.01
  14   1    -0.22  -0.03   0.11    -0.35  -0.08   0.29     0.01   0.01  -0.02
  15   1     0.07   0.09   0.10     0.28   0.23   0.25    -0.02  -0.01  -0.01
  16   1    -0.03  -0.11  -0.11     0.02  -0.14  -0.28    -0.01   0.00   0.02
  17   6     0.00  -0.06   0.04     0.08  -0.01  -0.20    -0.00  -0.01   0.00
  18   1     0.04   0.27  -0.28     0.04  -0.17   0.10     0.01   0.03  -0.03
  19   1    -0.08   0.08   0.38     0.09  -0.06  -0.30    -0.01   0.01   0.04
  20   1     0.04  -0.42  -0.08    -0.05   0.24  -0.03     0.00  -0.05  -0.01
  21   1    -0.00   0.11  -0.04     0.04  -0.03  -0.05     0.01   0.06  -0.03
  22   6    -0.00  -0.00   0.01    -0.00   0.00  -0.00     0.00   0.01  -0.00
  23   8    -0.00   0.00   0.01    -0.00  -0.00  -0.00    -0.02   0.01  -0.01
  24   7    -0.00  -0.00  -0.00    -0.00   0.00   0.00     0.02  -0.00  -0.01
  25   1    -0.00  -0.00  -0.01    -0.00   0.00   0.00     0.01  -0.01   0.02
  26   1    -0.00   0.00  -0.01    -0.00  -0.00   0.00     0.01  -0.00   0.02
  27   7    -0.00   0.01   0.01    -0.00   0.00  -0.00    -0.01   0.01   0.06
  28   1     0.00   0.00   0.01    -0.00  -0.00  -0.01    -0.01  -0.01  -0.07
  29   1    -0.00   0.01  -0.01     0.00  -0.00   0.00     0.02  -0.00  -0.04
  30   6    -0.01  -0.00  -0.01     0.01   0.00   0.01     0.12   0.00   0.13
  31   8    -0.01  -0.01  -0.01     0.01   0.00   0.01     0.07   0.01   0.07
  32   7     0.02  -0.00   0.02    -0.01   0.00  -0.02    -0.18  -0.00  -0.19
  33   1    -0.01   0.00  -0.02     0.01  -0.00   0.01     0.10   0.00   0.12
  34   1    -0.04  -0.00  -0.04     0.03   0.00   0.04     0.48  -0.00   0.55
  35   7     0.02   0.01   0.02    -0.01  -0.00  -0.02    -0.16  -0.01  -0.23
  36   1    -0.02   0.01  -0.03     0.01  -0.00   0.02     0.19  -0.02   0.27
  37   1    -0.01  -0.00  -0.02     0.00   0.00   0.01     0.06   0.01   0.10
  38   6     0.01  -0.01  -0.01    -0.00   0.01   0.00    -0.08  -0.01  -0.02
  39   8     0.01  -0.03  -0.03    -0.01   0.02   0.01    -0.07  -0.02  -0.02
  40   7    -0.02   0.01  -0.04    -0.01  -0.00   0.02     0.06   0.01  -0.02
  41   1     0.02   0.01  -0.00     0.01  -0.00   0.00     0.01   0.00  -0.01
  42   1     0.06   0.01  -0.01     0.06   0.01   0.01     0.05   0.01  -0.00
  43   7    -0.01   0.00   0.01     0.00   0.01   0.00     0.10   0.00  -0.01
  44   1    -0.01   0.00   0.00    -0.04  -0.00  -0.00    -0.23  -0.03  -0.02
  45   1    -0.00  -0.00   0.01    -0.01   0.00  -0.00    -0.08  -0.01  -0.01
  46   6    -0.00  -0.00   0.01    -0.00   0.00   0.01     0.01  -0.01  -0.01
  47   8    -0.00   0.00   0.02    -0.01   0.01   0.02     0.00  -0.00  -0.01
  48   7    -0.00  -0.00  -0.00     0.00  -0.00  -0.00    -0.01   0.00   0.02
  49   1    -0.00   0.00   0.00    -0.00   0.00   0.00     0.00  -0.00  -0.01
  50   1    -0.00   0.00   0.01    -0.00   0.00   0.01     0.02  -0.02  -0.07
  51   7    -0.00   0.00   0.00     0.00   0.00  -0.00    -0.00   0.01   0.02
  52   1     0.00  -0.01  -0.02     0.00  -0.00  -0.01     0.00  -0.01  -0.01
  53   1    -0.00  -0.00  -0.00    -0.00   0.00   0.00     0.00  -0.00  -0.01
                     37                     38                     39
                        a                      a                      a 
 Frequencies --   362.1663               371.4166               377.0981
 Red. masses --     3.6531                 6.5988                 3.1033
 Frc consts  --     0.0000                 0.0000                 0.0000
 IR Inten    --   115.6194                19.0098               377.3620
 Raman Activ --     0.0000                 0.0000                 0.0000
 Depolar     --     0.0000                 0.0000                 0.0000
 Atom AN      X      Y      Z        X      Y      Z        X      Y      Z
   1   8    -0.05  -0.23   0.07     0.01   0.02  -0.20     0.01   0.04  -0.03
   2   6    -0.01  -0.07  -0.01     0.03   0.02  -0.21     0.01   0.01  -0.03
   3   1     0.03  -0.03  -0.05     0.04  -0.01  -0.14     0.00   0.00  -0.01
   4   1    -0.03   0.03   0.00    -0.02   0.08  -0.05     0.00   0.01  -0.01
   5   6     0.08  -0.12   0.05     0.19  -0.24   0.04     0.02  -0.02  -0.01
   6   1     0.10  -0.01   0.01     0.19  -0.00   0.04     0.01  -0.00  -0.00
   7   1     0.03  -0.10   0.03     0.06  -0.21   0.05     0.01  -0.01  -0.01
   8   7    -0.01   0.04   0.03    -0.00  -0.03   0.04     0.01  -0.01   0.00
   9   6    -0.15   0.08   0.03    -0.34   0.04   0.08    -0.03  -0.01   0.01
  10   1    -0.06   0.02   0.07    -0.12   0.06   0.12    -0.01   0.01   0.00
  11   1    -0.10   0.04  -0.02    -0.18  -0.00  -0.03    -0.01  -0.01   0.00
  12   1    -0.02   0.02  -0.02    -0.11  -0.00  -0.01    -0.02  -0.00   0.00
  13   6     0.11   0.01  -0.18     0.18  -0.01  -0.08     0.01  -0.00   0.02
  14   1    -0.00   0.03  -0.07    -0.03  -0.00   0.01     0.01  -0.00   0.01
  15   1     0.10  -0.04  -0.03     0.18  -0.01   0.03    -0.00  -0.00   0.01
  16   1     0.04   0.01  -0.12     0.06   0.01  -0.15     0.00  -0.00   0.01
  17   6    -0.03   0.10   0.15    -0.05   0.24   0.28     0.00   0.02   0.03
  18   1    -0.05  -0.02   0.10    -0.11   0.12   0.06    -0.01   0.02  -0.00
  19   1     0.01   0.02  -0.01     0.03   0.11   0.14     0.00   0.01   0.03
  20   1     0.01   0.11   0.08     0.03   0.06   0.10     0.01  -0.01   0.01
  21   1     0.16   0.62  -0.42    -0.08  -0.32   0.16    -0.03  -0.12   0.07
  22   6     0.01   0.00   0.00     0.00   0.00   0.00     0.00   0.00  -0.02
  23   8     0.01  -0.00   0.00     0.00   0.00   0.01     0.00   0.01  -0.04
  24   7     0.00   0.00  -0.01    -0.00   0.00   0.00     0.01   0.01  -0.04
  25   1     0.00   0.00   0.00     0.00   0.00  -0.00     0.00  -0.01   0.02
  26   1     0.00  -0.00   0.01    -0.01   0.00  -0.02     0.03  -0.02   0.16
  27   7     0.00  -0.01  -0.00     0.00   0.00   0.01    -0.00  -0.02   0.01
  28   1    -0.00  -0.00   0.00     0.00   0.00   0.00    -0.00  -0.01  -0.02
  29   1     0.00  -0.00   0.00     0.00   0.00  -0.01     0.01  -0.01  -0.02
  30   6    -0.01   0.00  -0.01     0.01  -0.00   0.01     0.01  -0.00   0.01
  31   8    -0.00   0.00  -0.00     0.00  -0.00   0.00     0.00   0.00   0.00
  32   7     0.02  -0.00   0.01    -0.02  -0.00  -0.01    -0.02  -0.00  -0.02
  33   1    -0.00  -0.00  -0.01     0.00   0.00   0.00     0.01   0.00   0.01
  34   1    -0.03  -0.00  -0.04     0.04  -0.00   0.05     0.06  -0.00   0.06
  35   7     0.02   0.01   0.01    -0.01  -0.00  -0.02    -0.02  -0.00  -0.02
  36   1    -0.02   0.01  -0.03     0.01  -0.00   0.02     0.03  -0.00   0.04
  37   1    -0.00  -0.00  -0.01     0.00   0.00   0.01     0.01   0.00   0.01
  38   6     0.01   0.02  -0.02    -0.01  -0.02  -0.00    -0.00  -0.00   0.00
  39   8     0.01  -0.04  -0.04    -0.01   0.00   0.01    -0.01   0.00   0.01
  40   7    -0.04  -0.01  -0.01     0.02   0.01  -0.02     0.01   0.01  -0.00
  41   1     0.04   0.01   0.03    -0.01  -0.00  -0.02    -0.01  -0.00  -0.01
  42   1     0.21   0.02   0.00    -0.11  -0.00  -0.01    -0.05  -0.00  -0.00
  43   7     0.00   0.03   0.04     0.00  -0.02   0.00    -0.01  -0.01  -0.01
  44   1    -0.14   0.01   0.01     0.06   0.00   0.00     0.06   0.00   0.00
  45   1    -0.02  -0.00   0.02     0.01  -0.00  -0.00     0.00   0.00  -0.00
  46   6    -0.01   0.01   0.02     0.01   0.01  -0.02    -0.05   0.03   0.13
  47   8    -0.00   0.00   0.01     0.01   0.01  -0.01    -0.02  -0.01   0.08
  48   7     0.01  -0.01  -0.04    -0.01   0.01   0.03     0.10  -0.05  -0.25
  49   1    -0.01  -0.00   0.02     0.00  -0.01  -0.02    -0.02   0.01   0.09
  50   1    -0.03   0.04   0.11     0.03  -0.03  -0.11    -0.21   0.23   0.79
  51   7    -0.00  -0.01  -0.03    -0.01  -0.00   0.03     0.02  -0.05  -0.21
  52   1    -0.00   0.01   0.02     0.01  -0.02  -0.03    -0.03   0.08   0.15
  53   1    -0.00   0.00   0.01    -0.01  -0.01  -0.01     0.01   0.02   0.07
                     40                     41                     42
                        a                      a                      a 
 Frequencies --   421.7813               428.0660               459.7213
 Red. masses --     3.2204                 8.4851                 8.1956
 Frc consts  --     0.0000                 0.0000                 0.0000
 IR Inten    --   356.3509                12.6285                 4.2167
 Raman Activ --     0.0000                 0.0000                 0.0000
 Depolar     --     0.0000                 0.0000                 0.0000
 Atom AN      X      Y      Z        X      Y      Z        X      Y      Z
   1   8    -0.01  -0.03   0.03    -0.07  -0.11  -0.22    -0.01   0.01  -0.02
   2   6     0.00  -0.00  -0.01    -0.16   0.03   0.12    -0.08   0.07   0.15
   3   1     0.01   0.00  -0.01    -0.06   0.01   0.06    -0.01   0.02   0.03
   4   1    -0.00   0.01  -0.00    -0.02  -0.03   0.04    -0.01   0.04   0.06
   5   6    -0.01  -0.01   0.00     0.16   0.07   0.11    -0.18   0.00   0.16
   6   1    -0.01  -0.00   0.00     0.16   0.07   0.06    -0.16  -0.04   0.06
   7   1    -0.00   0.00   0.00     0.07  -0.11   0.02    -0.05   0.10  -0.01
   8   7    -0.01   0.00  -0.00     0.15   0.21   0.14     0.10  -0.23   0.18
   9   6     0.01  -0.01  -0.00     0.00   0.30   0.11    -0.06   0.20  -0.21
  10   1     0.00  -0.01  -0.00    -0.01   0.10   0.06    -0.02   0.14  -0.05
  11   1     0.01  -0.00   0.00    -0.03   0.11   0.02    -0.02   0.17  -0.03
  12   1     0.01   0.00   0.00    -0.00   0.07  -0.02    -0.06  -0.01  -0.21
  13   6     0.02   0.02   0.01    -0.27  -0.09  -0.29     0.12  -0.33  -0.05
  14   1     0.01   0.00   0.01    -0.18   0.09  -0.17     0.04  -0.05  -0.07
  15   1     0.01   0.00   0.00    -0.11  -0.09  -0.11     0.03  -0.16  -0.03
  16   1     0.01   0.01  -0.00    -0.07  -0.18  -0.07     0.03  -0.09  -0.02
  17   6    -0.02   0.01  -0.01     0.20  -0.31   0.08     0.14   0.21  -0.11
  18   1    -0.00   0.01  -0.01     0.15  -0.16   0.06     0.02   0.10  -0.07
  19   1    -0.00   0.00  -0.00    -0.06  -0.15  -0.04     0.16   0.10  -0.04
  20   1    -0.01   0.00  -0.01     0.08  -0.10   0.03    -0.06   0.10  -0.08
  21   1     0.01   0.08  -0.05     0.05  -0.14   0.02     0.04  -0.03   0.01
  22   6     0.00   0.00   0.02    -0.00   0.00   0.00     0.05  -0.09  -0.02
  23   8     0.01   0.00   0.01     0.01   0.01   0.00     0.01  -0.12  -0.02
  24   7     0.01  -0.00   0.00     0.01  -0.01  -0.01    -0.13   0.04   0.02
  25   1     0.00  -0.00  -0.02     0.00  -0.01   0.01    -0.01   0.11   0.10
  26   1     0.01   0.01  -0.04     0.01   0.00  -0.01    -0.14  -0.02  -0.07
  27   7     0.00  -0.01  -0.03    -0.01  -0.01   0.00     0.10   0.11   0.01
  28   1    -0.01  -0.00   0.05    -0.00  -0.00   0.01     0.10   0.07   0.05
  29   1    -0.01  -0.01   0.02    -0.00   0.00  -0.01    -0.04   0.09  -0.01
  30   6     0.01   0.00   0.00     0.00  -0.00   0.00     0.06   0.03  -0.05
  31   8     0.01   0.00  -0.01     0.00  -0.00   0.00     0.07  -0.01  -0.06
  32   7    -0.07   0.02  -0.03    -0.01   0.00  -0.00    -0.06   0.08   0.05
  33   1    -0.03  -0.00  -0.01    -0.00  -0.00   0.00    -0.05  -0.01   0.03
  34   1     0.15   0.02   0.19     0.01   0.00   0.01    -0.02   0.07   0.02
  35   7    -0.05  -0.02  -0.03    -0.00  -0.00  -0.00    -0.03  -0.09   0.03
  36   1     0.06  -0.03   0.08     0.01  -0.00   0.01     0.02  -0.10   0.01
  37   1    -0.01   0.00   0.03    -0.00   0.00   0.00    -0.09  -0.01   0.03
  38   6     0.16   0.02   0.01     0.01   0.01   0.01    -0.01  -0.03   0.01
  39   8     0.06   0.00   0.00     0.00   0.01   0.02    -0.02   0.02   0.03
  40   7    -0.20  -0.03  -0.02    -0.01   0.02   0.00     0.01   0.02  -0.03
  41   1     0.04   0.01   0.00     0.00   0.00  -0.01    -0.01  -0.01  -0.04
  42   1     0.21   0.04   0.01    -0.00   0.01   0.00     0.01   0.03  -0.00
  43   7    -0.29  -0.03  -0.03    -0.01  -0.00  -0.03     0.00  -0.04   0.01
  44   1     0.82   0.09   0.05     0.05  -0.01  -0.01    -0.01  -0.01   0.00
  45   1     0.06   0.00   0.00     0.00   0.01  -0.02     0.01  -0.01   0.00
  46   6     0.00  -0.01  -0.00    -0.01   0.00  -0.00    -0.04  -0.05   0.01
  47   8    -0.00   0.00  -0.00    -0.01  -0.00   0.00    -0.07  -0.01  -0.01
  48   7    -0.01  -0.00   0.01     0.02   0.01   0.00     0.07  -0.04   0.03
  49   1    -0.00  -0.00   0.00     0.01   0.00  -0.00     0.03   0.01  -0.01
  50   1     0.01  -0.01  -0.03     0.01  -0.00   0.01     0.03  -0.03   0.03
  51   7    -0.00   0.01   0.01    -0.00   0.01  -0.01     0.02   0.07  -0.02
  52   1    -0.00   0.00  -0.01    -0.00   0.00  -0.01    -0.03   0.07  -0.01
  53   1     0.00   0.00  -0.00     0.00   0.00   0.00     0.07   0.02  -0.01
                     43                     44                     45
                        a                      a                      a 
 Frequencies --   463.6345               465.9415               470.4568
 Red. masses --     7.8107                 7.6597                 6.2401
 Frc consts  --     0.0000                 0.0000                 0.0000
 IR Inten    --     2.3182                20.1158                17.1083
 Raman Activ --     0.0000                 0.0000                 0.0000
 Depolar     --     0.0000                 0.0000                 0.0000
 Atom AN      X      Y      Z        X      Y      Z        X      Y      Z
   1   8     0.00  -0.03  -0.06    -0.00   0.02  -0.01     0.00   0.00  -0.00
   2   6    -0.09   0.08   0.17    -0.02   0.01   0.03     0.01  -0.01  -0.02
   3   1    -0.00   0.02   0.00    -0.01   0.01   0.02    -0.00  -0.00   0.00
   4   1    -0.02   0.08   0.08    -0.00  -0.00   0.01     0.00  -0.01  -0.01
   5   6    -0.04  -0.12   0.29    -0.08   0.04  -0.00     0.02   0.01  -0.03
   6   1     0.12   0.02   0.11    -0.11  -0.02   0.00     0.01   0.00  -0.01
   7   1    -0.00  -0.17   0.11    -0.02   0.09  -0.03     0.00  -0.00  -0.01
   8   7    -0.24  -0.04   0.13     0.11  -0.10   0.05     0.01   0.03  -0.02
   9   6     0.21   0.10  -0.12    -0.09   0.07  -0.07     0.00  -0.02   0.03
  10   1     0.08  -0.03  -0.13    -0.03   0.08   0.01    -0.00  -0.01   0.01
  11   1     0.13   0.12   0.03    -0.04   0.05  -0.02    -0.00  -0.02   0.00
  12   1     0.10   0.03  -0.07    -0.06  -0.01  -0.08     0.00  -0.00   0.02
  13   6     0.20   0.02  -0.14     0.01  -0.17   0.02    -0.03   0.03   0.01
  14   1     0.11   0.02  -0.07    -0.01  -0.03  -0.01    -0.01   0.00   0.01
  15   1     0.14  -0.10  -0.03    -0.02  -0.05  -0.01    -0.01   0.02   0.00
  16   1     0.06   0.11  -0.10     0.00  -0.07   0.02    -0.01   0.00   0.01
  17   6    -0.21   0.00  -0.20     0.13   0.10  -0.00     0.00  -0.03   0.02
  18   1     0.00   0.02  -0.09     0.01   0.04  -0.01     0.00  -0.02   0.01
  19   1    -0.02   0.01  -0.07     0.08   0.05  -0.00    -0.01  -0.01   0.00
  20   1    -0.14  -0.01  -0.10     0.01   0.05  -0.01     0.01  -0.01   0.01
  21   1     0.05  -0.09   0.04     0.00  -0.01   0.01    -0.01  -0.00   0.00
  22   6    -0.02   0.06   0.02    -0.08   0.09   0.03     0.12  -0.12  -0.04
  23   8     0.00   0.08   0.02     0.03   0.15   0.03    -0.06  -0.21  -0.06
  24   7     0.08  -0.02  -0.02     0.13  -0.07  -0.02    -0.16   0.09   0.02
  25   1     0.01  -0.07  -0.03     0.01  -0.14  -0.18     0.01   0.19   0.37
  26   1     0.08   0.01   0.02     0.18   0.01   0.12    -0.26  -0.00  -0.28
  27   7    -0.05  -0.09  -0.01    -0.14  -0.12  -0.02     0.20   0.15   0.05
  28   1    -0.06  -0.04   0.00    -0.11  -0.06  -0.04     0.14   0.09   0.11
  29   1     0.02  -0.06  -0.01     0.03  -0.09   0.00    -0.03   0.12  -0.01
  30   6    -0.04  -0.02   0.03    -0.15  -0.08   0.12    -0.12  -0.07   0.10
  31   8    -0.05   0.01   0.04    -0.19   0.05   0.15    -0.16   0.05   0.13
  32   7     0.04  -0.05  -0.04     0.17  -0.20  -0.13     0.13  -0.18  -0.12
  33   1     0.03   0.01  -0.02     0.11   0.03  -0.11     0.09   0.02  -0.10
  34   1     0.02  -0.05  -0.02     0.09  -0.18  -0.03     0.09  -0.15  -0.01
  35   7     0.02   0.06  -0.02     0.07   0.22  -0.08     0.06   0.19  -0.07
  36   1    -0.01   0.06  -0.00    -0.06   0.25  -0.05    -0.03   0.22  -0.02
  37   1     0.06   0.00  -0.02     0.26   0.02  -0.04     0.21   0.01  -0.05
  38   6    -0.00   0.00  -0.02     0.00   0.03  -0.07    -0.00  -0.00  -0.06
  39   8    -0.00   0.01  -0.01     0.01  -0.01  -0.08    -0.01   0.00  -0.06
  40   7     0.00  -0.02   0.01     0.00  -0.10   0.07     0.00  -0.08   0.02
  41   1     0.02  -0.00   0.01    -0.01  -0.01   0.08     0.00  -0.01   0.04
  42   1    -0.03  -0.02  -0.00     0.03  -0.09   0.00     0.01  -0.06  -0.00
  43   7     0.00   0.01   0.02    -0.02   0.07   0.06    -0.02   0.03   0.06
  44   1     0.01   0.02   0.01     0.03   0.06   0.03     0.03   0.05   0.03
  45   1    -0.01  -0.00   0.01    -0.01  -0.00   0.04    -0.01  -0.01   0.04
  46   6     0.08   0.10  -0.03    -0.04  -0.06   0.02     0.01   0.02  -0.02
  47   8     0.15  -0.00   0.02    -0.09   0.00  -0.01     0.04  -0.01  -0.01
  48   7    -0.15   0.08  -0.05     0.09  -0.05   0.02    -0.03   0.03   0.01
  49   1    -0.07  -0.03  -0.01     0.04   0.03   0.02    -0.01  -0.02  -0.04
  50   1    -0.08   0.08   0.00     0.06  -0.06  -0.03    -0.04   0.04   0.07
  51   7    -0.04  -0.14   0.02     0.02   0.08  -0.00    -0.00  -0.02  -0.02
  52   1     0.07  -0.18  -0.04    -0.05   0.12   0.05     0.04  -0.08  -0.10
  53   1    -0.18  -0.02   0.14     0.12  -0.00  -0.12    -0.08   0.04   0.18
                     46                     47                     48
                        a                      a                      a 
 Frequencies --   474.9668               477.1397               483.2446
 Red. masses --     3.7322                 3.6007                 2.2857
 Frc consts  --     0.0000                 0.0000                 0.0000
 IR Inten    --    19.9184                 6.2364                13.4615
 Raman Activ --     0.0000                 0.0000                 0.0000
 Depolar     --     0.0000                 0.0000                 0.0000
 Atom AN      X      Y      Z        X      Y      Z        X      Y      Z
   1   8     0.00  -0.01  -0.02    -0.00  -0.00   0.00    -0.00   0.00  -0.00
   2   6    -0.02   0.02   0.03     0.00  -0.00  -0.01    -0.00   0.00  -0.00
   3   1     0.00   0.00  -0.02     0.00  -0.00  -0.00    -0.00   0.00   0.00
   4   1    -0.01   0.03   0.02    -0.00   0.00  -0.00     0.00  -0.00  -0.00
   5   6     0.04  -0.07   0.09     0.00   0.00  -0.00    -0.01   0.01  -0.01
   6   1     0.11   0.02   0.03    -0.00  -0.00  -0.00    -0.01  -0.00  -0.00
   7   1     0.02  -0.11   0.05     0.00   0.00  -0.00    -0.00   0.01  -0.00
   8   7    -0.13   0.05   0.02     0.01   0.01   0.00     0.01  -0.01   0.00
   9   6     0.12  -0.01   0.01    -0.00   0.01   0.01    -0.01   0.01  -0.00
  10   1     0.05  -0.05  -0.05    -0.00   0.00   0.01    -0.00   0.01   0.00
  11   1     0.07   0.01   0.03    -0.01   0.00  -0.00    -0.01   0.00  -0.00
  12   1     0.07   0.01   0.03     0.00   0.00  -0.00    -0.01  -0.00  -0.00
  13   6     0.06   0.11  -0.06    -0.01   0.00  -0.00    -0.01  -0.01   0.00
  14   1     0.03   0.03  -0.02    -0.01   0.00  -0.00    -0.00  -0.00  -0.00
  15   1     0.06   0.00  -0.00    -0.01   0.00  -0.00    -0.01  -0.00  -0.00
  16   1     0.02   0.07  -0.05    -0.00  -0.00   0.00    -0.00  -0.01   0.00
  17   6    -0.13  -0.06  -0.06     0.01  -0.01   0.01     0.02   0.01   0.01
  18   1     0.00  -0.02  -0.02     0.00  -0.00   0.00     0.00   0.00   0.00
  19   1    -0.05  -0.02  -0.02    -0.00  -0.00   0.00     0.01   0.00   0.00
  20   1    -0.05  -0.03  -0.03     0.00  -0.00   0.00     0.00   0.00   0.00
  21   1     0.01  -0.03   0.01     0.00   0.01  -0.01    -0.00  -0.00   0.00
  22   6     0.06  -0.09  -0.02     0.10  -0.13   0.01     0.03  -0.01   0.01
  23   8    -0.01  -0.13  -0.01     0.01  -0.20   0.06    -0.03  -0.04   0.02
  24   7    -0.12   0.05   0.03    -0.19   0.08   0.07    -0.03   0.02   0.01
  25   1    -0.02   0.12  -0.04    -0.09   0.20  -0.55    -0.01   0.04  -0.11
  26   1    -0.12  -0.03   0.07    -0.09  -0.09   0.49    -0.02  -0.01   0.09
  27   7     0.11   0.12  -0.01     0.14   0.19  -0.09     0.03   0.02  -0.02
  28   1     0.08   0.05  -0.03     0.07   0.04  -0.22     0.01   0.01  -0.00
  29   1    -0.02   0.06   0.04     0.00   0.04   0.14     0.01   0.00   0.00
  30   6    -0.02  -0.01   0.02    -0.02  -0.01   0.02    -0.01  -0.00   0.10
  31   8    -0.04   0.01   0.03    -0.04   0.01   0.02    -0.01  -0.05   0.11
  32   7     0.03  -0.04  -0.02     0.03  -0.03  -0.00    -0.01  -0.05  -0.16
  33   1     0.01   0.00  -0.02    -0.00   0.00  -0.03     0.12   0.03   0.04
  34   1     0.02  -0.03   0.00     0.03  -0.02   0.02    -0.06  -0.08  -0.13
  35   7     0.01   0.04  -0.02    -0.01   0.02  -0.02     0.08   0.14   0.05
  36   1    -0.01   0.05  -0.01    -0.05   0.05  -0.06     0.28  -0.01   0.37
[...]
  44   1    -0.00   0.00  -0.02     0.00   0.00  -0.01    -0.00  -0.00   0.00
  45   1    -0.02   0.09   0.09    -0.01   0.05   0.05    -0.00   0.03   0.03
  46   6     0.00   0.00   0.00     0.00   0.00   0.00    -0.00  -0.00  -0.00
  47   8    -0.00  -0.00  -0.00    -0.00  -0.00  -0.00     0.00   0.00   0.00
  48   7    -0.01   0.01  -0.00     0.01  -0.01   0.00    -0.00   0.00  -0.00
  49   1     0.04  -0.02   0.01    -0.06   0.03  -0.02     0.00  -0.00   0.00
  50   1    -0.01  -0.00  -0.00     0.01   0.01   0.00    -0.00  -0.00  -0.00
  51   7    -0.00  -0.00   0.00    -0.00  -0.00  -0.00     0.00   0.00   0.00
  52   1     0.00   0.00   0.00    -0.00   0.00   0.00     0.00   0.00  -0.00
  53   1     0.00  -0.00   0.00    -0.00   0.00  -0.00    -0.00  -0.00   0.00
                    142                    143                    144
                        a                      a                      a 
 Frequencies --  3443.4224              3499.2717              3501.8150
 Red. masses --     1.9399                 1.4476                 1.4496
 Frc consts  --     0.0000                 0.0000                 0.0000
 IR Inten    --   114.0702                20.5416                17.4066
 Raman Activ --     0.0000                 0.0000                 0.0000
 Depolar     --     0.0000                 0.0000                 0.0000
 Atom AN      X      Y      Z        X      Y      Z        X      Y      Z
   1   8     0.00   0.00   0.00     0.00   0.00   0.00     0.00  -0.00  -0.00
   2   6    -0.00  -0.00  -0.00    -0.00   0.00   0.00    -0.00  -0.00  -0.00
   3   1     0.00   0.00   0.00    -0.00   0.00  -0.00    -0.00   0.00   0.00
   4   1     0.00  -0.00  -0.00     0.00  -0.00  -0.00    -0.00   0.00  -0.00
   5   6    -0.00   0.00  -0.00     0.00  -0.00   0.00     0.00   0.00   0.00
   6   1     0.00  -0.00   0.00    -0.00   0.00   0.00     0.00   0.00   0.00
   7   1    -0.00   0.00   0.00    -0.00   0.00  -0.00    -0.00  -0.00  -0.00
   8   7     0.00   0.00  -0.00    -0.00   0.00   0.00    -0.00   0.00   0.00
   9   6     0.00  -0.00   0.00     0.00  -0.00   0.00     0.00  -0.00   0.00
  10   1    -0.00  -0.00  -0.00    -0.00   0.00  -0.00    -0.00   0.00  -0.00
  11   1     0.00  -0.00  -0.00    -0.00   0.00  -0.00     0.00   0.00  -0.00
  12   1     0.00   0.00  -0.00    -0.00   0.00  -0.00     0.00   0.00  -0.00
  13   6    -0.00  -0.00   0.00     0.00   0.00   0.00     0.00  -0.00   0.00
  14   1     0.00  -0.00   0.00     0.00  -0.00   0.00     0.00   0.00   0.00
  15   1     0.00   0.00  -0.00     0.00   0.00  -0.00     0.00   0.00  -0.00
  16   1     0.00   0.00   0.00    -0.00  -0.00  -0.00    -0.00  -0.00   0.00
  17   6    -0.00   0.00  -0.00     0.00  -0.00   0.00    -0.00  -0.00   0.00
  18   1    -0.00  -0.00  -0.00    -0.00  -0.00  -0.00     0.00  -0.00   0.00
  19   1     0.00  -0.00   0.00    -0.00   0.00  -0.00    -0.00   0.00  -0.00
  20   1     0.00   0.00  -0.00    -0.00   0.00   0.00     0.00  -0.00  -0.00
  21   1     0.00  -0.00  -0.00    -0.00  -0.00  -0.00    -0.00   0.00   0.00
  22   6     0.00  -0.01   0.00    -0.00  -0.00   0.00    -0.00   0.00  -0.00
  23   8    -0.00   0.00  -0.00     0.00  -0.00  -0.00     0.00  -0.00   0.00
  24   7    -0.00   0.01   0.00    -0.00  -0.00  -0.00    -0.00  -0.00  -0.00
  25   1    -0.01   0.00   0.00     0.00  -0.00  -0.00     0.01  -0.00  -0.00
  26   1     0.02  -0.04  -0.01    -0.00   0.00   0.00    -0.00   0.01   0.00
  27   7     0.07  -0.26   0.01     0.00  -0.01   0.00     0.00  -0.00   0.00
  28   1    -0.36   0.87  -0.09    -0.01   0.02  -0.00    -0.00   0.00  -0.00
  29   1     0.11   0.10   0.04     0.00   0.00   0.00    -0.00  -0.00  -0.00
  30   6     0.00   0.00  -0.00    -0.00   0.00   0.00    -0.00   0.00   0.00
  31   8    -0.00  -0.00   0.00     0.00   0.00  -0.00     0.00  -0.00  -0.00
  32   7     0.00  -0.01  -0.00     0.01  -0.00  -0.01    -0.00  -0.00   0.00
  33   1    -0.02   0.03   0.02    -0.01   0.01   0.01    -0.00   0.00   0.00
  34   1     0.01   0.00  -0.01    -0.02  -0.01   0.02     0.00   0.00  -0.00
  35   7     0.00  -0.00   0.00    -0.12   0.13   0.07     0.00  -0.00  -0.00
  36   1    -0.01  -0.00   0.01     0.56   0.18  -0.40    -0.00  -0.00   0.00
  37   1     0.00   0.02  -0.00    -0.12  -0.65   0.15     0.00   0.00  -0.00
  38   6    -0.00   0.00  -0.00    -0.00   0.00   0.00    -0.00   0.00  -0.00
  39   8     0.00  -0.00   0.00     0.00  -0.00  -0.00     0.00  -0.00   0.00
  40   7    -0.00   0.01   0.00     0.00  -0.00  -0.00     0.00  -0.00   0.00
  41   1     0.01  -0.04   0.01    -0.00   0.00  -0.00    -0.00   0.00  -0.00
  42   1    -0.00   0.00  -0.01    -0.00  -0.00   0.00    -0.00  -0.00   0.00
  43   7     0.00  -0.01  -0.00     0.00  -0.00   0.00     0.00  -0.00   0.00
  44   1     0.00   0.00  -0.01     0.00   0.00  -0.01    -0.00   0.00  -0.00
  45   1    -0.00   0.03   0.02    -0.00   0.01   0.01    -0.00   0.00   0.00
  46   6     0.00  -0.00   0.00    -0.00   0.00  -0.00    -0.00  -0.00   0.00
  47   8    -0.00   0.00  -0.00     0.00   0.00  -0.00     0.00   0.00  -0.00
  48   7    -0.00   0.00  -0.00     0.00  -0.00   0.00     0.01   0.00   0.00
  49   1     0.01  -0.00   0.00    -0.00   0.00  -0.00    -0.01   0.01  -0.00
  50   1    -0.00  -0.00  -0.00     0.00   0.00   0.00    -0.04  -0.03  -0.00
  51   7     0.00  -0.00   0.00    -0.00   0.00  -0.00    -0.17   0.06  -0.03
  52   1    -0.00  -0.00   0.00     0.00   0.00  -0.00     0.60   0.41  -0.07
  53   1    -0.00   0.00  -0.00     0.00  -0.00   0.00     0.04  -0.63   0.18
                    145                    146                    147
                        a                      a                      a 
 Frequencies --  3505.0316              3533.4781              3536.5282
 Red. masses --     1.4454                 1.9103                 1.9031
 Frc consts  --     0.0000                 0.0000                 0.0000
 IR Inten    --    18.7679                10.1716                 9.5142
 Raman Activ --     0.0000                 0.0000                 0.0000
 Depolar     --     0.0000                 0.0000                 0.0000
 Atom AN      X      Y      Z        X      Y      Z        X      Y      Z
   1   8    -0.00   0.00   0.00     0.00   0.00   0.00     0.00   0.00   0.00
   2   6    -0.00   0.00   0.00    -0.00   0.00   0.00    -0.00  -0.00  -0.00
   3   1     0.00  -0.00   0.00     0.00  -0.00   0.00     0.00  -0.00   0.00
   4   1     0.00   0.00  -0.00     0.00   0.00  -0.00     0.00   0.00  -0.00
   5   6     0.00  -0.00   0.00     0.00  -0.00   0.00     0.00   0.00  -0.00
   6   1     0.00   0.00  -0.00    -0.00   0.00  -0.00     0.00  -0.00   0.00
   7   1    -0.00   0.00  -0.00    -0.00  -0.00  -0.00    -0.00   0.00  -0.00
   8   7     0.00   0.00  -0.00     0.00  -0.00  -0.00     0.00   0.00   0.00
   9   6     0.00  -0.00   0.00     0.00  -0.00   0.00     0.00  -0.00   0.00
  10   1    -0.00   0.00  -0.00    -0.00  -0.00   0.00    -0.00  -0.00  -0.00
  11   1    -0.00  -0.00   0.00     0.00   0.00   0.00    -0.00  -0.00  -0.00
  12   1     0.00   0.00  -0.00    -0.00   0.00  -0.00    -0.00   0.00   0.00
  13   6     0.00   0.00  -0.00     0.00   0.00  -0.00     0.00  -0.00  -0.00
  14   1     0.00  -0.00  -0.00     0.00  -0.00  -0.00     0.00   0.00  -0.00
  15   1     0.00  -0.00   0.00     0.00  -0.00   0.00    -0.00   0.00   0.00
  16   1    -0.00  -0.00  -0.00    -0.00  -0.00   0.00    -0.00  -0.00  -0.00
  17   6     0.00  -0.00   0.00     0.00  -0.00   0.00    -0.00  -0.00   0.00
  18   1    -0.00  -0.00  -0.00     0.00   0.00   0.00     0.00  -0.00  -0.00
  19   1    -0.00   0.00  -0.00    -0.00   0.00  -0.00     0.00  -0.00   0.00
  20   1    -0.00  -0.00   0.00     0.00   0.00  -0.00     0.00   0.00  -0.00
  21   1     0.00  -0.00  -0.00     0.00  -0.00  -0.00     0.00  -0.01  -0.01
  22   6     0.00   0.00   0.00     0.00  -0.00  -0.00     0.00   0.00   0.00
  23   8     0.00  -0.00  -0.00    -0.00   0.00   0.00     0.00   0.00  -0.00
  24   7     0.10   0.16   0.02    -0.00   0.00   0.00     0.00  -0.00  -0.00
  25   1    -0.64   0.09   0.07    -0.00  -0.00   0.00    -0.00   0.00   0.00
  26   1     0.28  -0.67  -0.14     0.01  -0.01  -0.00    -0.00   0.00   0.00
  27   7    -0.01   0.01   0.00    -0.00   0.00  -0.00    -0.00   0.00  -0.00
  28   1     0.01  -0.03   0.00     0.00  -0.00   0.00     0.00  -0.01   0.00
  29   1     0.00   0.01  -0.00     0.00   0.00   0.00     0.00   0.00  -0.00
  30   6    -0.00  -0.00   0.00     0.00  -0.00  -0.00    -0.00  -0.00   0.00
  31   8    -0.00   0.00  -0.00    -0.00   0.00   0.00     0.00   0.00  -0.00
  32   7    -0.00   0.00   0.00     0.00  -0.00  -0.00    -0.01  -0.00   0.01
  33   1     0.00  -0.00  -0.00     0.00   0.00   0.00     0.00  -0.00  -0.00
  34   1    -0.00  -0.00   0.00    -0.00  -0.00   0.00     0.02   0.01  -0.02
  35   7    -0.00   0.00   0.00    -0.00   0.00   0.00     0.00   0.00  -0.00
  36   1     0.00   0.00  -0.00     0.00   0.00  -0.00    -0.01  -0.00   0.01
  37   1    -0.00  -0.00   0.00    -0.00  -0.00   0.00    -0.00  -0.00   0.00
  38   6     0.00   0.00   0.00     0.00   0.00   0.00    -0.00   0.01   0.01
  39   8    -0.00  -0.00  -0.00    -0.00  -0.00  -0.00     0.00  -0.00  -0.00
  40   7     0.00  -0.00  -0.00     0.00  -0.00  -0.00    -0.00   0.04  -0.07
  41   1    -0.00   0.00  -0.00    -0.00   0.00  -0.00     0.01  -0.08   0.02
  42   1     0.00  -0.00   0.00     0.00  -0.00   0.00    -0.00  -0.07   0.26
  43   7    -0.00   0.00   0.00    -0.00  -0.00   0.00    -0.01  -0.05   0.24
  44   1     0.00  -0.00   0.00     0.00   0.00  -0.00     0.03   0.24  -0.89
  45   1     0.00  -0.00  -0.00     0.00  -0.00  -0.00     0.01  -0.06  -0.03
  46   6    -0.00  -0.00   0.00     0.01   0.00   0.00    -0.00  -0.00  -0.00
  47   8     0.00   0.00  -0.00    -0.00  -0.00  -0.00     0.00   0.00   0.00
  48   7    -0.00  -0.00   0.00     0.22   0.14   0.02    -0.00  -0.00  -0.00
  49   1    -0.01   0.01  -0.00    -0.08   0.06  -0.03     0.00  -0.00   0.00
  50   1     0.01   0.01   0.00    -0.77  -0.56  -0.06     0.00   0.00   0.00
  51   7    -0.00   0.00  -0.00    -0.00  -0.02   0.01     0.00   0.00  -0.00
  52   1     0.01   0.00  -0.00     0.01   0.01  -0.00    -0.00  -0.00   0.00
  53   1     0.00  -0.01   0.00    -0.01   0.08  -0.02     0.00  -0.00   0.00
                    148                    149                    150
                        a                      a                      a 
 Frequencies --  3543.2281              3546.6492              3562.1024
 Red. masses --     1.9351                 2.0015                 1.8771
 Frc consts  --     0.0000                 0.0000                 0.0000
 IR Inten    --    16.9452                27.1320                26.6715
 Raman Activ --     0.0000                 0.0000                 0.0000
 Depolar     --     0.0000                 0.0000                 0.0000
 Atom AN      X      Y      Z        X      Y      Z        X      Y      Z
   1   8    -0.00  -0.00  -0.00     0.00  -0.01  -0.02     0.01  -0.13  -0.20
   2   6     0.00  -0.00   0.00     0.00   0.00   0.00    -0.00  -0.00  -0.00
   3   1    -0.00   0.00  -0.00    -0.00   0.00  -0.00    -0.00   0.00   0.00
   4   1    -0.00  -0.00   0.00    -0.00  -0.00   0.00    -0.00   0.00   0.00
   5   6    -0.00   0.00  -0.00    -0.00  -0.00   0.00    -0.00  -0.00   0.00
   6   1     0.00  -0.00   0.00    -0.00   0.00  -0.00    -0.00   0.00  -0.00
   7   1     0.00   0.00   0.00     0.00  -0.00   0.00     0.00  -0.00  -0.00
   8   7     0.00  -0.00  -0.00     0.00  -0.00   0.00     0.00   0.00   0.00
   9   6    -0.00  -0.00   0.00    -0.00   0.00   0.00     0.00  -0.00   0.00
  10   1     0.00   0.00   0.00     0.00  -0.00   0.00    -0.00  -0.00   0.00
  11   1     0.00  -0.00   0.00     0.00   0.00  -0.00    -0.00  -0.00  -0.00
  12   1     0.00   0.00   0.00    -0.00  -0.00  -0.00    -0.00   0.00  -0.00
  13   6    -0.00  -0.00   0.00    -0.00   0.00   0.00     0.00   0.00   0.00
  14   1    -0.00  -0.00  -0.00    -0.00  -0.00  -0.00    -0.00  -0.00  -0.00
  15   1     0.00  -0.00   0.00     0.00   0.00  -0.00    -0.00   0.00   0.00
  16   1     0.00   0.00   0.00     0.00  -0.00   0.00    -0.00   0.00  -0.00
  17   6    -0.00   0.00  -0.00     0.00  -0.00   0.00     0.00   0.00   0.00
  18   1    -0.00  -0.00  -0.00    -0.00  -0.00   0.00    -0.00  -0.00  -0.00
  19   1     0.00  -0.00   0.00    -0.00   0.00  -0.00    -0.00   0.00  -0.00
  20   1    -0.00   0.00   0.00     0.00  -0.00  -0.00    -0.00  -0.00   0.00
  21   1    -0.00   0.00   0.00    -0.00   0.05   0.07    -0.02   0.53   0.81
  22   6    -0.00   0.00   0.00    -0.00   0.00   0.00    -0.00  -0.00  -0.00
  23   8     0.00  -0.00  -0.00     0.00  -0.00  -0.00    -0.00   0.00   0.00
  24   7     0.00  -0.00  -0.00     0.00  -0.00  -0.00    -0.00   0.00   0.00
  25   1    -0.00   0.00   0.00    -0.00   0.00   0.00    -0.00   0.00   0.00
  26   1    -0.00   0.00   0.00    -0.00   0.00   0.00     0.00  -0.00  -0.00
  27   7    -0.00  -0.00  -0.00     0.00   0.00   0.00    -0.00   0.00  -0.00
  28   1     0.00  -0.00   0.00     0.00  -0.00   0.00     0.00  -0.00   0.00
  29   1     0.01   0.01   0.00    -0.00  -0.00  -0.00     0.00   0.00   0.00
  30   6     0.01  -0.00  -0.01    -0.00  -0.00   0.00     0.00  -0.00  -0.00
  31   8    -0.00   0.00   0.00     0.00   0.00  -0.00    -0.00   0.00   0.00
  32   7     0.20   0.04  -0.17    -0.01  -0.00   0.01    -0.00  -0.00   0.00
  33   1    -0.06   0.10   0.05     0.01  -0.01  -0.01    -0.00  -0.00   0.00
  34   1    -0.69  -0.24   0.61     0.03   0.01  -0.03     0.00   0.00  -0.00
  35   7    -0.02  -0.03   0.01     0.00   0.00  -0.00    -0.00  -0.00   0.00
  36   1     0.04   0.01  -0.03    -0.01  -0.00   0.00     0.00   0.00  -0.00
  37   1     0.02   0.10  -0.02    -0.00  -0.01   0.00     0.00   0.00  -0.00
  38   6    -0.00   0.00  -0.00     0.00  -0.01   0.01    -0.00   0.00  -0.00
  39   8    -0.00  -0.00   0.00     0.00   0.00  -0.00     0.00  -0.00   0.00
  40   7    -0.00  -0.00   0.01     0.00  -0.11   0.24    -0.00   0.01  -0.02
  41   1    -0.00   0.00  -0.00    -0.03   0.23  -0.04     0.01  -0.04   0.01
  42   1     0.00   0.01  -0.03     0.01   0.21  -0.86    -0.00  -0.02   0.07
  43   7    -0.00  -0.00   0.01    -0.00  -0.02   0.07     0.00   0.00  -0.00
  44   1     0.00   0.01  -0.04     0.01   0.07  -0.27    -0.00  -0.00   0.01
  45   1    -0.00  -0.00   0.00     0.00  -0.02  -0.01    -0.00   0.00   0.00
  46   6     0.00   0.00   0.00     0.00   0.00   0.00    -0.00  -0.00  -0.00
  47   8    -0.00  -0.00  -0.00    -0.00  -0.00  -0.00     0.00   0.00   0.00
  48   7    -0.00  -0.00  -0.00     0.00   0.00   0.00     0.00   0.00   0.00
  49   1     0.00  -0.00   0.00    -0.00   0.00  -0.00    -0.00   0.00  -0.00
  50   1     0.00   0.00   0.00    -0.00  -0.00  -0.00    -0.00  -0.00  -0.00
  51   7    -0.00  -0.00   0.00    -0.00  -0.00   0.00     0.00   0.00   0.00
  52   1     0.00   0.00  -0.00     0.00   0.00  -0.00    -0.00  -0.00   0.00
  53   1    -0.00   0.00  -0.00    -0.00   0.00  -0.00     0.00   0.00  -0.00
                    151                    152                    153
                        a                      a                      a 
 Frequencies --  3565.7826              3568.4705              3574.0161
 Red. masses --     2.1821                 2.1803                 2.1862
 Frc consts  --     0.0000                 0.0000                 0.0000
 IR Inten    --    15.7443                10.4975                11.4088
 Raman Activ --     0.0000                 0.0000                 0.0000
 Depolar     --     0.0000                 0.0000                 0.0000
 Atom AN      X      Y      Z        X      Y      Z        X      Y      Z
   1   8    -0.00   0.00   0.00     0.00   0.00   0.00    -0.00  -0.00  -0.00
   2   6     0.00   0.00   0.00    -0.00   0.00  -0.00     0.00   0.00   0.00
   3   1     0.00   0.00  -0.00     0.00  -0.00   0.00    -0.00  -0.00  -0.00
   4   1     0.00  -0.00  -0.00     0.00   0.00  -0.00    -0.00   0.00   0.00
   5   6     0.00  -0.00   0.00     0.00   0.00   0.00     0.00   0.00   0.00
   6   1    -0.00  -0.00   0.00     0.00   0.00   0.00     0.00  -0.00   0.00
   7   1     0.00  -0.00   0.00    -0.00   0.00  -0.00    -0.00   0.00  -0.00
   8   7    -0.00   0.00   0.00    -0.00   0.00  -0.00     0.00   0.00  -0.00
   9   6    -0.00   0.00  -0.00     0.00  -0.00   0.00     0.00   0.00  -0.00
  10   1     0.00  -0.00   0.00    -0.00   0.00   0.00    -0.00   0.00  -0.00
  11   1     0.00   0.00  -0.00     0.00  -0.00   0.00    -0.00  -0.00   0.00
  12   1    -0.00  -0.00   0.00     0.00   0.00   0.00     0.00  -0.00   0.00
  13   6     0.00  -0.00   0.00     0.00   0.00  -0.00     0.00   0.00   0.00
  14   1     0.00   0.00   0.00     0.00   0.00   0.00    -0.00  -0.00  -0.00
  15   1     0.00   0.00  -0.00     0.00  -0.00   0.00    -0.00  -0.00   0.00
  16   1     0.00  -0.00   0.00    -0.00  -0.00  -0.00    -0.00  -0.00  -0.00
  17   6     0.00  -0.00   0.00    -0.00  -0.00   0.00    -0.00   0.00  -0.00
  18   1     0.00   0.00   0.00     0.00  -0.00  -0.00    -0.00   0.00  -0.00
  19   1    -0.00   0.00  -0.00    -0.00   0.00  -0.00     0.00  -0.00   0.00
  20   1     0.00   0.00  -0.00     0.00  -0.00  -0.00    -0.00  -0.00   0.00
  21   1     0.00  -0.00  -0.00     0.00  -0.00  -0.00    -0.00   0.00   0.00
  22   6     0.00   0.00  -0.00    -0.00  -0.00  -0.00     0.01  -0.01  -0.00
  23   8    -0.00   0.00   0.00    -0.00   0.00  -0.00    -0.00   0.00   0.00
  24   7    -0.00   0.00   0.00    -0.00   0.00   0.00     0.24  -0.17  -0.05
  25   1     0.00  -0.00  -0.00     0.01  -0.00  -0.00    -0.71   0.07   0.07
  26   1     0.00  -0.00  -0.00     0.00  -0.01  -0.00    -0.21   0.57   0.12
  27   7    -0.00   0.00  -0.00    -0.00  -0.00  -0.00    -0.00  -0.00   0.00
  28   1     0.00  -0.01   0.00     0.00  -0.00   0.00    -0.01   0.02  -0.00
  29   1    -0.00  -0.00  -0.00     0.00   0.00   0.00     0.00   0.00   0.00
  30   6    -0.01  -0.01   0.00     0.00   0.00  -0.00     0.00   0.00  -0.00
  31   8     0.00   0.00  -0.00    -0.00  -0.00   0.00    -0.00  -0.00   0.00
  32   7    -0.02  -0.00   0.02     0.00   0.00  -0.00    -0.00  -0.00   0.00
  33   1     0.01  -0.01  -0.01    -0.00   0.00   0.00    -0.00   0.00   0.00
  34   1     0.08   0.03  -0.07    -0.00  -0.00   0.00     0.00   0.00  -0.00
  35   7    -0.17  -0.21   0.13     0.00   0.00  -0.00    -0.00  -0.00   0.00
  36   1     0.53   0.14  -0.36    -0.00  -0.00   0.00     0.00   0.00  -0.00
  37   1     0.10   0.66  -0.14    -0.00  -0.00   0.00     0.00   0.00  -0.00
  38   6    -0.00  -0.00   0.00    -0.00   0.00  -0.00     0.00  -0.00  -0.00
  39   8     0.00   0.00  -0.00     0.00  -0.00   0.00     0.00   0.00   0.00
  40   7     0.00  -0.00   0.00     0.00  -0.00   0.00    -0.00   0.00  -0.00
  41   1    -0.00   0.00  -0.00    -0.00   0.00  -0.00     0.00  -0.00   0.00
  42   1     0.00   0.00  -0.00     0.00   0.00  -0.00     0.00  -0.00   0.00
  43   7    -0.00   0.00   0.00    -0.00  -0.00   0.00     0.00  -0.00  -0.00
  44   1     0.00   0.00  -0.01     0.00   0.00  -0.00    -0.00  -0.00   0.00
  45   1     0.00  -0.01  -0.01    -0.00   0.00   0.00    -0.00   0.00   0.00
  46   6     0.00   0.00  -0.00     0.00   0.01  -0.00     0.00   0.00   0.00
  47   8    -0.00  -0.00   0.00    -0.00  -0.00   0.00     0.00   0.00   0.00
  48   7    -0.00   0.00  -0.00     0.02   0.01   0.00     0.00   0.00   0.00
  49   1     0.00  -0.00   0.00    -0.01   0.01  -0.00    -0.01   0.00  -0.00
  50   1    -0.00  -0.00  -0.00    -0.06  -0.04  -0.00    -0.01  -0.01  -0.00
  51   7     0.00   0.00  -0.00     0.12   0.27  -0.07     0.00   0.00  -0.00
  52   1    -0.00  -0.00   0.00    -0.54  -0.33   0.06    -0.01  -0.00   0.00
  53   1     0.00  -0.00   0.00     0.07  -0.68   0.19     0.00  -0.01   0.00
