      -----------------------------------------------------------      
     |                   =====================                   |     
     |                           x T B                           |     
     |                   =====================                   |     
     |                         S. Grimme                         |     
     |          Mulliken Center for Theoretical Chemistry        |     
     |                    University of Bonn                     |     
      -----------------------------------------------------------      

   * xtb version 6.6.1 (unknown-commit) compiled by '@Linux' on 12/27/2023

   xtb is free software: you can redistribute it and/or modify it under
   the terms of the GNU Lesser General Public License as published by
   the Free Software Foundation, either version 3 of the License, or
   (at your option) any later version.
   
   xtb is distributed in the hope that it will be useful,
   but WITHOUT ANY WARRANTY; without even the implied warranty of
   MERCHANTABILITY or FITNESS FOR A PARTICULAR PURPOSE.  See the
   GNU Lesser General Public License for more details.
   
   Cite this work as:
   * C. Bannwarth, E. Caldeweyher, S. Ehlert, A. Hansen, P. Pracht,
     J. Seibert, S. Spicher, S. Grimme, WIREs Comput. Mol. Sci., 2020, 11,
     e01493. DOI: 10.1002/wcms.1493
   
   for GFN2-xTB:
   * C. Bannwarth, S. Ehlert and S. Grimme., J. Chem. Theory Comput., 2019,
     15, 1652-1671. DOI: 10.1021/acs.jctc.8b01176
   for GFN1-xTB:
   * S. Grimme, C. Bannwarth, P. Shushkov, J. Chem. Theory Comput., 2017,
     13, 1989-2009. DOI: 10.1021/acs.jctc.7b00118
   for GFN0-xTB:
   * P. Pracht, E. Caldeweyher, S. Ehlert, S. Grimme, ChemRxiv, 2019, preprint.
     DOI: 10.26434/chemrxiv.8326202.v1
   for GFN-FF:
   * S. Spicher and S. Grimme, Angew. Chem. Int. Ed., 2020, 59, 15665-15673.
     DOI: 10.1002/anie.202004239
   
   for ALPB and GBSA implicit solvation:
   * S. Ehlert, M. Stahn, S. Spicher, S. Grimme, J. Chem. Theory Comput.,
     2021, 17, 4250-4261. DOI: 10.1021/acs.jctc.1c00471
   
   for DFT-D4:
   * E. Caldeweyher, C. Bannwarth and S. Grimme, J. Chem. Phys., 2017,
     147, 034112. DOI: 10.1063/1.4993215
   * E. Caldeweyher, S. Ehlert, A. Hansen, H. Neugebauer, S. Spicher,
     C. Bannwarth and S. Grimme, J. Chem. Phys., 2019, 150, 154122.
     DOI: 10.1063/1.5090222
   * E. Caldeweyher, J.-M. Mewes, S. Ehlert and S. Grimme, Phys. Chem. Chem. Phys.
     2020, 22, 8499-8512. DOI: 10.1039/D0CP00502A
   
   for sTDA-xTB:
   * S. Grimme and C. Bannwarth, J. Chem. Phys., 2016, 145, 054103.
     DOI: 10.1063/1.4959605
   
   in the mass-spec context:
   * V. Asgeirsson, C. Bauer and S. Grimme, Chem. Sci., 2017, 8, 4879.
     DOI: 10.1039/c7sc00601b
   * J. Koopman and S. Grimme, ACS Omega 2019, 4, 12, 15120-15133.
     DOI: 10.1021/acsomega.9b02011
   
   for metadynamics refer to:
   * S. Grimme, J. Chem. Theory Comput., 2019, 155, 2847-2862
     DOI: 10.1021/acs.jctc.9b00143
   
   for SPH calculations refer to:
   * S. Spicher and S. Grimme, J. Chem. Theory Comput., 2021, 17, 1701-1714
     DOI: 10.1021/acs.jctc.0c01306
   
   with help from (in alphabetical order)
   P. Atkinson, C. Bannwarth, F. Bohle, G. Brandenburg, E. Caldeweyher
   M. Checinski, S. Dohm, S. Ehlert, S. Ehrlich, I. Gerasimov, C. Hölzer
   A. Katbashev, J. Koopman, C. Lavigne, S. Lehtola, F. März, M. Müller,
   F. Musil, H. Neugebauer, J. Pisarek, C. Plett, P. Pracht, F. Pultar,
   J. Seibert, P. Shushkov, S. Spicher, M. Stahn, M. Steiner, T. Strunk,
   J. Stückrath, T. Rose, and J. Unsleber
   
 * started run on 2024/01/10 at 15:32:59.612     

           -------------------------------------------------
          |                Calculation Setup                |
           -------------------------------------------------

          program call               : xtb struc.xyz --gfn2 --hess
          hostname                   : swaroop
          coordinate file            : struc.xyz
          omp threads                :                     1

   ID    Z sym.   atoms
    1    8 O      1, 23, 31, 39, 47
    2    6 C      2, 5, 9, 13, 17, 22, 30, 38, 46
    3    1 H      3, 4, 6, 7, 10-12, 14-16, 18-21, 25, 26, 28, 29, 33, 34,
                  36, 37, 41, 42, 44, 45, 49, 50, 52, 53
    4    7 N      8, 24, 27, 32, 35, 40, 43, 48, 51

molecular fragmentation (1/2 indicates fragments):
11111111111111111111122222222222222222222222222222222
# atoms in fragment 1/2:    21    32
 fragment masses (1/2) :      104.17      240.22
CMA distance (Bohr)    :   7.160
constraining FC (au)   :  0.0500

           -------------------------------------------------
          |                 G F N 2 - x T B                 |
           -------------------------------------------------

        Reference                      10.1021/acs.jctc.8b01176
      * Hamiltonian:
        H0-scaling (s, p, d)           1.850000    2.230000    2.230000
        zeta-weighting                 0.500000
      * Dispersion:
        s8                             2.700000
        a1                             0.520000
        a2                             5.000000
        s9                             5.000000
      * Repulsion:
        kExp                           1.500000    1.000000
        rExp                           1.000000
      * Coulomb:
        alpha                          2.000000
        third order                    shell-resolved
        anisotropic                    true
        a3                             3.000000
        a5                             4.000000
        cn-shift                       1.200000
        cn-exp                         4.000000
        max-rad                        5.000000


          ...................................................
          :                      SETUP                      :
          :.................................................:
          :  # basis functions                 122          :
          :  # atomic orbitals                 122          :
          :  # shells                           76          :
          :  # electrons                       140          :
          :  max. iterations                   250          :
          :  Hamiltonian                  GFN2-xTB          :
          :  restarted?                      false          :
          :  GBSA solvation                  false          :
          :  PC potential                    false          :
          :  electronic temp.          300.0000000     K    :
          :  accuracy                    1.0000000          :
          :  -> integral cutoff          0.2500000E+02      :
          :  -> integral neglect         0.1000000E-07      :
          :  -> SCF convergence          0.1000000E-05 Eh   :
          :  -> wf. convergence          0.1000000E-03 e    :
          :  Broyden damping             0.4000000          :
          ...................................................

 iter      E             dE          RMSdq      gap      omega  full diag
   1    -81.5527613 -0.815528E+02  0.438E+00    5.11       0.0  T
   2    -81.8371563 -0.284395E+00  0.241E+00    6.05       1.0  T
   3    -81.8429243 -0.576794E-02  0.117E+00    5.76       1.0  T
   4    -81.8444042 -0.147996E-02  0.243E-01    5.85       1.0  T
   5    -81.8453112 -0.906991E-03  0.917E-02    5.77       1.0  T
   6    -81.8453354 -0.241612E-04  0.264E-02    5.79       1.0  T
   7    -81.8453399 -0.455548E-05  0.761E-03    5.79       1.8  T
   8    -81.8453402 -0.247259E-06  0.300E-03    5.79       4.6  T
   9    -81.8453402 -0.377505E-07  0.914E-04    5.79      15.0  T
  10    -81.8453402 -0.398114E-08  0.191E-04    5.79      71.8  T

   *** convergence criteria satisfied after 10 iterations ***

         #    Occupation            Energy/Eh            Energy/eV
      -------------------------------------------------------------
         1        2.0000           -0.8076933             -21.9785
       ...           ...                  ...                  ...
        64        2.0000           -0.4916290             -13.3779
        65        2.0000           -0.4906690             -13.3518
        66        2.0000           -0.4885389             -13.2938
        67        2.0000           -0.4854804             -13.2106
        68        2.0000           -0.4840437             -13.1715
        69        2.0000           -0.4825156             -13.1299
        70        2.0000           -0.4795566             -13.0494 (HOMO)
        71                         -0.2668764              -7.2621 (LUMO)
        72                         -0.2605278              -7.0893
        73                         -0.2561964              -6.9715
        74                         -0.2523457              -6.8667
        75                         -0.1554551              -4.2301
       ...                                ...                  ...
       122                          0.5676937              15.4477
      -------------------------------------------------------------
                  HL-Gap            0.2126803 Eh            5.7873 eV
             Fermi-level           -0.3732165 Eh          -10.1557 eV

 SCC (total)                   0 d,  0 h,  0 min,  0.071 sec
 SCC setup                      ...        0 min,  0.000 sec (  0.404%)
 Dispersion                     ...        0 min,  0.001 sec (  0.821%)
 classical contributions        ...        0 min,  0.000 sec (  0.250%)
 integral evaluation            ...        0 min,  0.008 sec ( 10.987%)
 iterations                     ...        0 min,  0.034 sec ( 48.706%)
 molecular gradient             ...        0 min,  0.027 sec ( 38.479%)
 printout                       ...        0 min,  0.000 sec (  0.335%)

         :::::::::::::::::::::::::::::::::::::::::::::::::::::
         ::                     SUMMARY                     ::
         :::::::::::::::::::::::::::::::::::::::::::::::::::::
         :: total energy             -80.931071132874 Eh    ::
         :: gradient norm              0.000038591628 Eh/a0 ::
         :: HOMO-LUMO gap              5.787324952670 eV    ::
         ::.................................................::
         :: SCC energy               -81.845340235385 Eh    ::
         :: -> isotropic ES            0.295105790831 Eh    ::
         :: -> anisotropic ES         -0.027147447898 Eh    ::
         :: -> anisotropic XC          0.020208780282 Eh    ::
         :: -> dispersion             -0.045133170714 Eh    ::
         :: repulsion energy           0.912911517766 Eh    ::
         :: add. restraining           0.000000000000 Eh    ::
         :: total charge               1.000000000000 e     ::
         :::::::::::::::::::::::::::::::::::::::::::::::::::::

           ------------------------------------------------- 
          |                Numerical Hessian                |
           ------------------------------------------------- 
step length          :   0.00500
SCC accuracy         :   0.30000
Hessian scale factor :   1.00000
frozen atoms in %    :   0.00000    0
RMS gradient         :   0.00004
estimated CPU  time      0.23 min
estimated wall time      0.24 min

writing file <hessian>.

 projected vibrational frequencies (cm⁻¹)
eigval :       -0.00    -0.00    -0.00     0.00     0.00     0.00
eigval :       14.59    19.66    26.76    37.32    40.62    42.10
eigval :       48.71    50.59    52.01    56.38    66.88    68.51
eigval :       79.20    84.78    91.37    98.37   106.51   120.31
eigval :      125.60   132.57   144.97   151.28   181.07   183.54
eigval :      188.70   189.62   204.45   212.62   234.11   251.87
eigval :      278.88   292.37   303.81   331.79   338.94   346.75
eigval :      362.17   371.42   377.10   421.78   428.07   459.72
eigval :      463.63   465.94   470.46   474.97   477.14   483.24
eigval :      485.39   500.88   539.51   543.64   549.46   554.33
eigval :      559.63   565.35   573.77   645.69   670.54   674.51
eigval :      676.34   694.58   720.93   750.45   763.60   790.04
eigval :      887.89   921.89   960.70   963.06   965.68   976.46
eigval :      998.30  1010.98  1011.03  1013.55  1017.70  1022.82
eigval :     1031.56  1033.28  1039.37  1083.11  1086.48  1089.28
eigval :     1090.80  1091.93  1112.63  1122.57  1176.57  1214.43
eigval :     1238.64  1250.63  1275.50  1318.23  1347.51  1354.23
eigval :     1361.80  1367.79  1374.10  1384.46  1402.00  1408.18
eigval :     1412.71  1435.88  1440.17  1445.74  1447.36  1450.35
eigval :     1457.47  1461.93  1465.90  1467.19  1471.80  1479.90
eigval :     1490.06  1500.45  1506.88  1509.99  1529.13  1649.81
eigval :     1690.64  1704.01  1708.88  2912.56  2939.04  2966.69
eigval :     3006.60  3023.97  3036.18  3042.78  3045.17  3045.96
eigval :     3050.88  3058.73  3067.31  3070.44  3138.40  3237.81
eigval :     3294.38  3349.60  3418.22  3443.42  3499.27  3501.82
eigval :     3505.03  3533.48  3536.53  3543.23  3546.65  3562.10
eigval :     3565.78  3568.47  3574.02
           -------------------------------------------------
          |                Property Printout                |
           -------------------------------------------------

    * Orbital Energies and Occupations

         #    Occupation            Energy/Eh            Energy/eV
      -------------------------------------------------------------
         1        2.0000           -0.8076929             -21.9784
       ...           ...                  ...                  ...
        58        2.0000           -0.5277607             -14.3611
        59        2.0000           -0.5043361             -13.7237
        60        2.0000           -0.5006598             -13.6236
        61        2.0000           -0.4973675             -13.5341
        62        2.0000           -0.4938986             -13.4397
        63        2.0000           -0.4930839             -13.4175
        64        2.0000           -0.4916310             -13.3780
        65        2.0000           -0.4906711             -13.3518
        66        2.0000           -0.4885406             -13.2939
        67        2.0000           -0.4854825             -13.2107
        68        2.0000           -0.4840457             -13.1716
        69        2.0000           -0.4825176             -13.1300
        70        2.0000           -0.4795587             -13.0495 (HOMO)
        71                         -0.2668776              -7.2621 (LUMO)
        72                         -0.2605294              -7.0894
        73                         -0.2561989              -6.9715
        74                         -0.2523486              -6.8668
        75                         -0.1554543              -4.2301
        76                         -0.1065044              -2.8981
        77                         -0.0906712              -2.4673
        78                         -0.0855975              -2.3292
        79                         -0.0820086              -2.2316
        80                         -0.0766584              -2.0860
        81                         -0.0713877              -1.9426
       ...                                ...                  ...
       122                          0.5676912              15.4477
      -------------------------------------------------------------
                  HL-Gap            0.2126810 Eh            5.7873 eV
             Fermi-level           -0.3732181 Eh          -10.1558 eV

     #   Z          covCN         q      C6AA      α(0)
     1   8 O        1.654    -0.445    21.743     6.295
     2   6 C        3.672     0.070    19.630     6.350
     3   1 H        0.924     0.046     2.367     2.406
     4   1 H        0.924     0.055     2.260     2.351
     5   6 C        3.772    -0.068    21.835     6.659
     6   1 H        0.924     0.121     1.606     1.982
     7   1 H        0.924     0.138     1.479     1.902
     8   7 N        3.624     0.160    18.546     6.396
     9   6 C        3.741    -0.115    22.786     6.811
    10   1 H        0.925     0.126     1.566     1.957
    11   1 H        0.925     0.081     1.964     2.192
    12   1 H        0.925     0.113     1.667     2.019
    13   6 C        3.724    -0.108    22.685     6.801
    14   1 H        0.925     0.085     1.930     2.173
    15   1 H        0.925     0.086     1.917     2.165
    16   1 H        0.925     0.130     1.532     1.936
    17   6 C        3.719    -0.113    22.789     6.819
    18   1 H        0.925     0.099     1.790     2.092
    19   1 H        0.924     0.129     1.544     1.943
    20   1 H        0.925     0.077     2.015     2.220
    21   1 H        0.805     0.301     0.718     1.331
    22   6 C        2.675     0.341    21.208     7.536
    23   8 O        0.860    -0.528    24.423     6.626
    24   7 N        2.645    -0.294    27.569     7.798
    25   1 H        0.861     0.191     1.150     1.680
    26   1 H        0.861     0.187     1.177     1.699
    27   7 N        2.645    -0.320    28.247     7.893
    28   1 H        0.860     0.203     1.089     1.635
    29   1 H        0.860     0.221     1.004     1.570
    30   6 C        2.675     0.342    21.189     7.533
    31   8 O        0.861    -0.518    24.191     6.594
    32   7 N        2.644    -0.305    27.853     7.838
    33   1 H        0.860     0.233     0.954     1.530
    34   1 H        0.861     0.177     1.230     1.737
    35   7 N        2.645    -0.287    27.417     7.777
    36   1 H        0.861     0.183     1.195     1.712
    37   1 H        0.860     0.203     1.091     1.636
    38   6 C        2.675     0.341    21.213     7.537
    39   8 O        0.861    -0.552    24.958     6.698
    40   7 N        2.645    -0.301    27.750     7.824
    41   1 H        0.860     0.222     1.002     1.568
    42   1 H        0.861     0.178     1.223     1.732
    43   7 N        2.644    -0.304    27.834     7.836
    44   1 H        0.861     0.179     1.222     1.732
    45   1 H        0.859     0.250     0.885     1.474
    46   6 C        2.675     0.342    21.183     7.531
    47   8 O        0.860    -0.538    24.652     6.657
    48   7 N        2.644    -0.309    27.963     7.854
    49   1 H        0.860     0.242     0.915     1.498
    50   1 H        0.861     0.172     1.262     1.760
    51   7 N        2.645    -0.294    27.571     7.798
    52   1 H        0.861     0.180     1.216     1.727
    53   1 H        0.860     0.196     1.124     1.661

 Mol. C6AA /au·bohr⁶  :      21779.646206
 Mol. C8AA /au·bohr⁸  :     454172.624668
 Mol. α(0) /au        :        220.479538


Wiberg/Mayer (AO) data.
largest (>0.10) Wiberg bond orders for each atom

 ---------------------------------------------------------------------------
     #   Z sym  total        # sym  WBO       # sym  WBO       # sym  WBO
 ---------------------------------------------------------------------------
     1   8 O    1.974 --     2 C    0.985    21 H    0.894
     2   6 C    3.953 --     5 C    1.013     1 O    0.985     4 H    0.966
                             3 H    0.965
     3   1 H    0.998 --     2 C    0.965
     4   1 H    0.997 --     2 C    0.966
     5   6 C    3.923 --     2 C    1.013     6 H    0.954     7 H    0.936
                             8 N    0.935
     6   1 H    0.985 --     5 C    0.954
     7   1 H    0.981 --     5 C    0.936
     8   7 N    3.823 --    13 C    0.960    17 C    0.957     9 C    0.953
                             5 C    0.935
     9   6 C    3.916 --    11 H    0.978    12 H    0.968    10 H    0.960
                             8 N    0.953
    10   1 H    0.984 --     9 C    0.960
    11   1 H    0.993 --     9 C    0.978
    12   1 H    0.987 --     9 C    0.968
    13   6 C    3.928 --    15 H    0.977    14 H    0.975    16 H    0.961
                             8 N    0.960
    14   1 H    0.993 --    13 C    0.975
    15   1 H    0.993 --    13 C    0.977
    16   1 H    0.983 --    13 C    0.961
    17   6 C    3.921 --    20 H    0.979    18 H    0.971     8 N    0.957
                            19 H    0.951
    18   1 H    0.990 --    17 C    0.971
    19   1 H    0.983 --    17 C    0.951
    20   1 H    0.994 --    17 C    0.979
    21   1 H    0.909 --     1 O    0.894
    22   6 C    3.959 --    23 O    1.515    27 N    1.233    24 N    1.202
    23   8 O    1.905 --    22 C    1.515    24 N    0.139    27 N    0.139
    24   7 N    3.320 --    22 C    1.202    26 H    0.947    25 H    0.946
                            23 O    0.139
    25   1 H    0.963 --    24 N    0.946
    26   1 H    0.965 --    24 N    0.947
    27   7 N    3.312 --    22 C    1.233    28 H    0.923    29 H    0.892
                            23 O    0.139
    28   1 H    0.958 --    27 N    0.923
    29   1 H    0.951 --    27 N    0.892
    30   6 C    3.960 --    31 O    1.501    32 N    1.240    35 N    1.210
    31   8 O    1.922 --    30 C    1.501    32 N    0.144    35 N    0.133
    32   7 N    3.336 --    30 C    1.240    34 H    0.949    33 H    0.888
                            31 O    0.144
    33   1 H    0.946 --    32 N    0.888
    34   1 H    0.969 --    32 N    0.949
    35   7 N    3.324 --    30 C    1.210    36 H    0.947    37 H    0.942
                            31 O    0.133
    36   1 H    0.966 --    35 N    0.947
    37   1 H    0.959 --    35 N    0.942
    38   6 C    3.960 --    39 O    1.441    43 N    1.278    40 N    1.229
    39   8 O    1.884 --    38 C    1.441    43 N    0.138    40 N    0.125
    40   7 N    3.332 --    38 C    1.229    42 H    0.949    41 H    0.910
                            39 O    0.125
    41   1 H    0.951 --    40 N    0.910
    42   1 H    0.968 --    40 N    0.949
    43   7 N    3.358 --    38 C    1.278    44 H    0.948    45 H    0.859
                            39 O    0.138
    44   1 H    0.968 --    43 N    0.948
    45   1 H    0.938 --    43 N    0.859
    46   6 C    3.959 --    47 O    1.510    48 N    1.244    51 N    1.197
    47   8 O    1.881 --    46 C    1.510    48 N    0.147    51 N    0.135
    48   7 N    3.334 --    46 C    1.244    50 H    0.951    49 H    0.876
                            47 O    0.147
    49   1 H    0.941 --    48 N    0.876
    50   1 H    0.970 --    48 N    0.951
    51   7 N    3.313 --    46 C    1.197    52 H    0.949    53 H    0.945
                            47 O    0.135
    52   1 H    0.967 --    51 N    0.949
    53   1 H    0.961 --    51 N    0.945
 ---------------------------------------------------------------------------

Topologies differ in total number of bonds
Writing topology from bond orders to xtbtopo.mol

molecular dipole:
                 x           y           z       tot (Debye)
 q only:       -0.301      -1.429       0.322
   full:       -0.214      -1.035      -0.093       2.695
molecular quadrupole (traceless):
                xx          xy          yy          xz          yz          zz
 q only:       12.755     -12.632       7.202       0.799       6.815     -19.957
  q+dip:       17.500     -16.055       6.525       0.356       9.454     -24.025
   full:       17.835     -15.846       5.448       0.900       9.927     -23.283

           -------------------------------------------------
          |               Frequency Printout                |
           -------------------------------------------------
 projected vibrational frequencies (cm⁻¹)
eigval :       -0.00    -0.00    -0.00     0.00     0.00     0.00
eigval :       14.59    19.66    26.76    37.32    40.62    42.10
eigval :       48.71    50.59    52.01    56.38    66.88    68.51
eigval :       79.20    84.78    91.37    98.37   106.51   120.31
eigval :      125.60   132.57   144.97   151.28   181.07   183.54
eigval :      188.70   189.62   204.45   212.62   234.11   251.87
eigval :      278.88   292.37   303.81   331.79   338.94   346.75
eigval :      362.17   371.42   377.10   421.78   428.07   459.72
eigval :      463.63   465.94   470.46   474.97   477.14   483.24
eigval :      485.39   500.88   539.51   543.64   549.46   554.33
eigval :      559.63   565.35   573.77   645.69   670.54   674.51
eigval :      676.34   694.58   720.93   750.45   763.60   790.04
eigval :      887.89   921.89   960.70   963.06   965.68   976.46
eigval :      998.30  1010.98  1011.03  1013.55  1017.70  1022.82
eigval :     1031.56  1033.28  1039.37  1083.11  1086.48  1089.28
eigval :     1090.80  1091.93  1112.63  1122.57  1176.57  1214.43
eigval :     1238.64  1250.63  1275.50  1318.23  1347.51  1354.23
eigval :     1361.80  1367.79  1374.10  1384.46  1402.00  1408.18
eigval :     1412.71  1435.88  1440.17  1445.74  1447.36  1450.35
eigval :     1457.47  1461.93  1465.90  1467.19  1471.80  1479.90
eigval :     1490.06  1500.45  1506.88  1509.99  1529.13  1649.81
eigval :     1690.64  1704.01  1708.88  2912.56  2939.04  2966.69
eigval :     3006.60  3023.97  3036.18  3042.78  3045.17  3045.96
eigval :     3050.88  3058.73  3067.31  3070.44  3138.40  3237.81
eigval :     3294.38  3349.60  3418.22  3443.42  3499.27  3501.82
eigval :     3505.03  3533.48  3536.53  3543.23  3546.65  3562.10
eigval :     3565.78  3568.47  3574.02
 reduced masses (amu)
   1: 12.51   2: 12.35   3: 12.75   4: 12.84   5: 12.03   6: 12.79   7: 12.26   8: 12.17
   9: 11.89  10: 12.36  11: 12.72  12: 12.50  13: 11.89  14: 12.18  15: 13.37  16: 12.73
  17: 12.58  18: 12.08  19: 12.84  20: 12.82  21: 12.81  22: 12.30  23: 11.38  24: 13.16
  25: 13.03  26: 12.64  27: 12.71  28: 13.16  29:  9.81  30: 12.09  31: 12.35  32:  5.07
  33: 11.83  34:  2.49  35:  2.04  36:  3.88  37:  4.76  38:  5.07  39:  6.27  40:  2.71
  41:  3.70  42:  3.91  43:  3.65  44:  6.60  45:  3.10  46:  3.22  47:  8.49  48:  8.20
  49:  7.81  50:  7.66  51:  6.24  52:  3.73  53:  3.60  54:  2.29  55:  8.19  56:  8.62
  57:  7.99  58:  8.41  59:  9.47  60: 10.83  61:  9.02  62:  7.60  63:  5.68  64:  5.40
  65: 11.13  66: 11.32  67: 11.82  68:  7.43  69:  2.04  70:  3.07  71:  9.18  72:  1.88
  73:  7.34  74:  8.21  75:  4.97  76:  5.02  77:  5.04  78:  4.49  79:  7.69  80:  9.05
  81:  8.50  82:  8.57  83:  9.16  84:  6.93  85:  9.33  86:  3.75  87:  4.39  88:  8.97
  89:  8.56  90:  8.60  91:  8.43  92:  7.38  93:  4.56  94:  7.86  95:  3.54  96:  3.07
  97:  6.41  98:  5.69  99:  8.24 100:  5.85 101:  3.79 102:  4.90 103:  5.52 104:  5.46
 105:  4.80 106:  4.49 107:  2.46 108:  2.21 109:  2.55 110:  2.65 111:  1.71 112:  3.03
 113:  3.08 114:  2.08 115:  1.91 116:  2.32 117:  2.28 118:  1.70 119:  3.81 120:  1.69
 121:  1.74 122:  7.41 123:  8.68 124:  8.74 125: 10.07 126: 12.27 127: 12.73 128: 12.64
 129: 12.69 130:  1.98 131:  1.46 132:  1.79 133:  1.75 134:  1.73 135:  1.68 136:  1.86
 137:  1.82 138:  1.48 139:  1.77 140:  1.76 141:  1.76 142:  1.70 143:  1.83 144:  1.78
 145:  1.76 146:  1.71 147:  1.63 148:  1.94 149:  1.45 150:  1.45 151:  1.45 152:  1.91
 153:  1.90 154:  1.94 155:  2.00 156:  1.88 157:  2.18 158:  2.18 159:  2.19
 IR intensities (km·mol⁻¹)
   1:  0.45   2:  1.47   3:  1.68   4:  2.10   5:  0.80   6:  2.32   7:  0.46   8:  0.68
   9:  0.89  10:  0.76  11:  2.82  12:  2.45  13:  0.18  14:  0.51  15:  0.59  16:  1.12
  17:  1.24  18:  1.31  19:  1.53  20: 10.08  21:  6.52  22: 10.79  23:  2.31  24:  8.97
  25:  2.66  26: 25.53  27: 13.50  28: 20.73  29: 13.79  30: 38.10  31: 23.84  32:170.95
  33: 84.90  34: 98.66  35: 82.40  36:  0.86  37: 28.58  38: 30.51  39: 38.08  40:  8.01
  41:  6.37  42:202.33  43:115.62  44: 19.01  45:377.36  46:356.35  47: 12.63  48:  4.22
  49:  2.32  50: 20.12  51: 17.11  52: 19.92  53:  6.24  54: 13.46  55: 22.81  56: 35.14
  57:  1.66  58: 33.71  59: 27.40  60: 13.32  61: 12.41  62: 49.97  63: 36.66  64:  4.88
  65: 16.51  66: 19.02  67: 28.30  68: 53.98  69: 57.31  70:550.46  71:  5.46  72:300.26
  73:  6.98  74:  8.53  75:  3.84  76:  8.67  77: 12.47  78:  1.96  79: 31.44  80:  3.22
  81: 29.49  82:  4.47  83:  1.31  84: 19.61  85:  1.03  86:  0.56  87:  2.72  88:  1.31
  89:  1.06  90:  0.68  91:  8.68  92: 72.67  93:  2.44  94: 33.18  95:  3.86  96: 53.47
  97: 48.14  98: 10.87  99:  1.72 100:  5.57 101: 23.66 102:175.20 103: 44.47 104: 69.40
 105: 52.25 106: 22.76 107: 39.87 108:  6.51 109:  5.51 110: 25.08 111:  0.22 112: 11.06
 113: 13.88 114: 19.71 115:  2.49 116:  5.17 117: 22.77 118:  4.65 119: 43.09 120: 61.56
 121:  5.19 122:745.88 123:127.36 124:828.74 125:456.13 126:503.71 127:899.55 128:******
 129:485.96 130: 26.17 131: 39.20 132: 77.48 133:110.41 134:  8.22 135:  7.53 136: 27.12
 137:  8.50 138: 17.83 139: 20.17 140:  5.35 141:  1.77 142:  0.11 143:837.91 144:******
 145:687.73 146:581.30 147:226.66 148:114.07 149: 20.54 150: 17.41 151: 18.77 152: 10.17
 153:  9.51 154: 16.95 155: 27.13 156: 26.67 157: 15.74 158: 10.50 159: 11.41
 Raman intensities (amu)
Molecule has no symmetry elements
It seems to be the C1 point group
   1:  0.00   2:  0.00   3:  0.00   4:  0.00   5:  0.00   6:  0.00   7:  0.00   8:  0.00
   9:  0.00  10:  0.00  11:  0.00  12:  0.00  13:  0.00  14:  0.00  15:  0.00  16:  0.00
  17:  0.00  18:  0.00  19:  0.00  20:  0.00  21:  0.00  22:  0.00  23:  0.00  24:  0.00
  25:  0.00  26:  0.00  27:  0.00  28:  0.00  29:  0.00  30:  0.00  31:  0.00  32:  0.00
  33:  0.00  34:  0.00  35:  0.00  36:  0.00  37:  0.00  38:  0.00  39:  0.00  40:  0.00
  41:  0.00  42:  0.00  43:  0.00  44:  0.00  45:  0.00  46:  0.00  47:  0.00  48:  0.00
  49:  0.00  50:  0.00  51:  0.00  52:  0.00  53:  0.00  54:  0.00  55:  0.00  56:  0.00
  57:  0.00  58:  0.00  59:  0.00  60:  0.00  61:  0.00  62:  0.00  63:  0.00  64:  0.00
  65:  0.00  66:  0.00  67:  0.00  68:  0.00  69:  0.00  70:  0.00  71:  0.00  72:  0.00
  73:  0.00  74:  0.00  75:  0.00  76:  0.00  77:  0.00  78:  0.00  79:  0.00  80:  0.00
  81:  0.00  82:  0.00  83:  0.00  84:  0.00  85:  0.00  86:  0.00  87:  0.00  88:  0.00
  89:  0.00  90:  0.00  91:  0.00  92:  0.00  93:  0.00  94:  0.00  95:  0.00  96:  0.00
  97:  0.00  98:  0.00  99:  0.00 100:  0.00 101:  0.00 102:  0.00 103:  0.00 104:  0.00
 105:  0.00 106:  0.00 107:  0.00 108:  0.00 109:  0.00 110:  0.00 111:  0.00 112:  0.00
 113:  0.00 114:  0.00 115:  0.00 116:  0.00 117:  0.00 118:  0.00 119:  0.00 120:  0.00
 121:  0.00 122:  0.00 123:  0.00 124:  0.00 125:  0.00 126:  0.00 127:  0.00 128:  0.00
 129:  0.00 130:  0.00 131:  0.00 132:  0.00 133:  0.00 134:  0.00 135:  0.00 136:  0.00
 137:  0.00 138:  0.00 139:  0.00 140:  0.00 141:  0.00 142:  0.00 143:  0.00 144:  0.00
 145:  0.00 146:  0.00 147:  0.00 148:  0.00 149:  0.00 150:  0.00 151:  0.00 152:  0.00
 153:  0.00 154:  0.00 155:  0.00 156:  0.00 157:  0.00 158:  0.00 159:  0.00
 output can be read by thermo (or use thermo option).
 writing <g98.out> molden fake output.
 recommended (thermochemical) frequency scaling factor: 1.0
           -------------------------------------------------
          |             Thermodynamic Functions             |
           -------------------------------------------------

c1  symmetry found (for desy threshold:  0.10E+00) used in thermo

          ...................................................
          :                      SETUP                      :
          :.................................................:
          :  # frequencies                         153      :
          :  # imaginary freq.                       0      :
          :  linear?                             false      :
          :  only rotor calc.                    false      :
          :  symmetry                               c1      :
          :  rotational number                       1      :
          :  scaling factor                  1.0000000      :
          :  rotor cutoff                   50.0000000 cm⁻¹ :
          :  imag. cutoff                  -20.0000000 cm⁻¹ :
          :.................................................:

    mode    ω/cm⁻¹     T·S(HO)/kcal·mol⁻¹    T·S(FR)/kcal·mol⁻¹   T·S(vib)
   ------------------------------------------------------------------------
       1     14.59    -2.16461 (  0.72%)    -1.42126 ( 99.28%)    -1.42661
       2     19.66    -1.98827 (  2.33%)    -1.33307 ( 97.67%)    -1.34835
       3     26.76    -1.80568 (  7.58%)    -1.24170 ( 92.42%)    -1.28445
       4     37.32    -1.60891 ( 23.69%)    -1.14313 ( 76.31%)    -1.25349
       5     40.62    -1.55890 ( 30.34%)    -1.11805 ( 69.66%)    -1.25182
       6     42.10    -1.53783 ( 33.44%)    -1.10749 ( 66.56%)    -1.25140
       7     48.71    -1.45167 ( 47.40%)    -1.06424 ( 52.60%)    -1.24787
       8     50.59    -1.42940 ( 51.17%)    -1.05305 ( 48.83%)    -1.24563
       9     52.01    -1.41308 ( 53.93%)    -1.04485 ( 46.07%)    -1.24344
      10     56.38    -1.36557 ( 61.78%)    -1.02096 ( 38.22%)    -1.23386
      11     66.88    -1.26506 ( 76.20%)    -0.97034 ( 23.80%)    -1.19492
      12     68.51    -1.25092 ( 77.90%)    -0.96321 ( 22.10%)    -1.18734
      13     79.20    -1.16593 ( 86.29%)    -0.92027 ( 13.71%)    -1.13226
      14     84.78    -1.12616 ( 89.21%)    -0.90012 ( 10.79%)    -1.10176
      15     91.37    -1.08242 ( 91.77%)    -0.87792 (  8.23%)    -1.06559
      16     98.37    -1.03946 ( 93.74%)    -0.85607 (  6.26%)    -1.02798
      17    106.51    -0.99328 ( 95.37%)    -0.83250 (  4.63%)    -0.98583
      18    120.31    -0.92290 ( 97.10%)    -0.79643 (  2.90%)    -0.91924
      19    125.60    -0.89812 ( 97.55%)    -0.78367 (  2.45%)    -0.89531
      20    132.57    -0.86716 ( 98.02%)    -0.76768 (  1.98%)    -0.86518
      21    144.97    -0.81609 ( 98.60%)    -0.74118 (  1.40%)    -0.81505
      22    151.28    -0.79192 ( 98.82%)    -0.72857 (  1.18%)    -0.79117
      23    181.07    -0.69090 ( 99.42%)    -0.67531 (  0.58%)    -0.69081
      24    183.54    -0.68340 ( 99.45%)    -0.67131 (  0.55%)    -0.68333
      25    188.70    -0.66803 ( 99.51%)    -0.66310 (  0.49%)    -0.66800
      26    189.62    -0.66532 ( 99.52%)    -0.66164 (  0.48%)    -0.66530
      27    204.45    -0.62393 ( 99.64%)    -0.63934 (  0.36%)    -0.62398
      28    212.62    -0.60258 ( 99.70%)    -0.62774 (  0.30%)    -0.60265
      29    234.11    -0.55075 ( 99.79%)    -0.59922 (  0.21%)    -0.55085
      30    251.87    -0.51207 ( 99.84%)    -0.57756 (  0.16%)    -0.51217
      31    278.88    -0.45931 ( 99.90%)    -0.54738 (  0.10%)    -0.45940
      32    292.37    -0.43536 ( 99.91%)    -0.53338 (  0.09%)    -0.43545
   ------------------------------------------------------------------------

   temp. (K)  partition function   enthalpy   heat capacity  entropy
                                   cal/mol     cal/K/mol   cal/K/mol   J/K/mol
 298.15  VIB  0.290E+17            19583.817    105.629    128.356
         ROT  0.130E+08              888.752      2.981     35.531
         INT  0.376E+24            20472.569    108.610    163.887
         TR   0.618E+28             1481.254      4.968     43.384
         TOT                       21953.8228   113.5777   207.2712   867.2225

       T/K    H(0)-H(T)+PV         H(T)/Eh          T*S/Eh         G(T)/Eh
   ------------------------------------------------------------------------
    298.15    0.349856E-01    0.473596E+00    0.984812E-01    0.375115E+00
   ------------------------------------------------------------------------

         :::::::::::::::::::::::::::::::::::::::::::::::::::::
         ::                  THERMODYNAMIC                  ::
         :::::::::::::::::::::::::::::::::::::::::::::::::::::
         :: total free energy         -80.555956138487 Eh   ::
         ::.................................................::
         :: total energy              -80.931071133136 Eh   ::
         :: zero point energy           0.438610567790 Eh   ::
         :: G(RRHO) w/o ZPVE           -0.063495573141 Eh   ::
         :: G(RRHO) contrib.            0.375114994649 Eh   ::
         :::::::::::::::::::::::::::::::::::::::::::::::::::::

           -------------------------------------------------
          | TOTAL ENERGY              -80.931071133136 Eh   |
          | TOTAL ENTHALPY            -80.457474921783 Eh   |
          | TOTAL FREE ENERGY         -80.555956138487 Eh   |
          | GRADIENT NORM               0.000038360945 Eh/α |
          | HOMO-LUMO GAP               5.787345633840 eV   |
           -------------------------------------------------

------------------------------------------------------------------------
 * finished run on 2024/01/10 at 15:33:13.771     
------------------------------------------------------------------------
 total:
 * wall-time:     0 d,  0 h,  0 min, 14.159 sec
 *  cpu-time:     0 d,  0 h,  0 min, 14.123 sec
 * ratio c/w:     0.997 speedup
 SCF:
 * wall-time:     0 d,  0 h,  0 min,  0.071 sec
 *  cpu-time:     0 d,  0 h,  0 min,  0.058 sec
 * ratio c/w:     0.819 speedup
 analytical hessian:
 * wall-time:     0 d,  0 h,  0 min, 14.061 sec
 *  cpu-time:     0 d,  0 h,  0 min, 14.038 sec
 * ratio c/w:     0.998 speedup

