      -----------------------------------------------------------      
     |                   =====================                   |     
     |                           x T B                           |     
     |                   =====================                   |     
     |                         S. Grimme                         |     
     |          Mulliken Center for Theoretical Chemistry        |     
     |                    University of Bonn                     |     
      -----------------------------------------------------------      

   * xtb version 6.6.1 (unknown-commit) compiled by '@Linux' on 12/27/2023

   xtb is free software: you can redistribute it and/or modify it under
   the terms of the GNU Lesser General Public License as published by
   the Free Software Foundation, either version 3 of the License, or
   (at your option) any later version.
   
   xtb is distributed in the hope that it will be useful,
   but WITHOUT ANY WARRANTY; without even the implied warranty of
   MERCHANTABILITY or FITNESS FOR A PARTICULAR PURPOSE.  See the
   GNU Lesser General Public License for more details.
   
   Cite this work as:
   * C. Bannwarth, E. Caldeweyher, S. Ehlert, A. Hansen, P. Pracht,
     J. Seibert, S. Spicher, S. Grimme, WIREs Comput. Mol. Sci., 2020, 11,
     e01493. DOI: 10.1002/wcms.1493
   
   for GFN2-xTB:
   * C. Bannwarth, S. Ehlert and S. Grimme., J. Chem. Theory Comput., 2019,
     15, 1652-1671. DOI: 10.1021/acs.jctc.8b01176
   for GFN1-xTB:
   * S. Grimme, C. Bannwarth, P. Shushkov, J. Chem. Theory Comput., 2017,
     13, 1989-2009. DOI: 10.1021/acs.jctc.7b00118
   for GFN0-xTB:
   * P. Pracht, E. Caldeweyher, S. Ehlert, S. Grimme, ChemRxiv, 2019, preprint.
     DOI: 10.26434/chemrxiv.8326202.v1
   for GFN-FF:
   * S. Spicher and S. Grimme, Angew. Chem. Int. Ed., 2020, 59, 15665-15673.
     DOI: 10.1002/anie.202004239
   
   for ALPB and GBSA implicit solvation:
   * S. Ehlert, M. Stahn, S. Spicher, S. Grimme, J. Chem. Theory Comput.,
     2021, 17, 4250-4261. DOI: 10.1021/acs.jctc.1c00471
   
   for DFT-D4:
   * E. Caldeweyher, C. Bannwarth and S. Grimme, J. Chem. Phys., 2017,
     147, 034112. DOI: 10.1063/1.4993215
   * E. Caldeweyher, S. Ehlert, A. Hansen, H. Neugebauer, S. Spicher,
     C. Bannwarth and S. Grimme, J. Chem. Phys., 2019, 150, 154122.
     DOI: 10.1063/1.5090222
   * E. Caldeweyher, J.-M. Mewes, S. Ehlert and S. Grimme, Phys. Chem. Chem. Phys.
     2020, 22, 8499-8512. DOI: 10.1039/D0CP00502A
   
   for sTDA-xTB:
   * S. Grimme and C. Bannwarth, J. Chem. Phys., 2016, 145, 054103.
     DOI: 10.1063/1.4959605
   
   in the mass-spec context:
   * V. Asgeirsson, C. Bauer and S. Grimme, Chem. Sci., 2017, 8, 4879.
     DOI: 10.1039/c7sc00601b
   * J. Koopman and S. Grimme, ACS Omega 2019, 4, 12, 15120-15133.
     DOI: 10.1021/acsomega.9b02011
   
   for metadynamics refer to:
   * S. Grimme, J. Chem. Theory Comput., 2019, 155, 2847-2862
     DOI: 10.1021/acs.jctc.9b00143
   
   for SPH calculations refer to:
   * S. Spicher and S. Grimme, J. Chem. Theory Comput., 2021, 17, 1701-1714
     DOI: 10.1021/acs.jctc.0c01306
   
   with help from (in alphabetical order)
   P. Atkinson, C. Bannwarth, F. Bohle, G. Brandenburg, E. Caldeweyher
   M. Checinski, S. Dohm, S. Ehlert, S. Ehrlich, I. Gerasimov, C. Hölzer
   A. Katbashev, J. Koopman, C. Lavigne, S. Lehtola, F. März, M. Müller,
   F. Musil, H. Neugebauer, J. Pisarek, C. Plett, P. Pracht, F. Pultar,
   J. Seibert, P. Shushkov, S. Spicher, M. Stahn, M. Steiner, T. Strunk,
   J. Stückrath, T. Rose, and J. Unsleber
   
 * started run on 2024/01/10 at 15:36:54.761     

           -------------------------------------------------
          |                Calculation Setup                |
           -------------------------------------------------

          program call               : xtb struc.xyz --gfn2 --hess
          hostname                   : swaroop
          coordinate file            : struc.xyz
          omp threads                :                     1

   ID    Z sym.   atoms
    1    8 O      1, 23, 31, 39, 47
    2    6 C      2, 5, 9, 13, 17, 22, 30, 38, 46
    3    1 H      3, 4, 6, 7, 10-12, 14-16, 18-21, 25, 26, 28, 29, 33, 34,
                  36, 37, 41, 42, 44, 45, 49, 50, 52, 53
    4    7 N      8, 24, 27, 32, 35, 40, 43, 48, 51

molecular fragmentation (1/2 indicates fragments):
11111111111111111111122222222222222222222222222222222
# atoms in fragment 1/2:    21    32
 fragment masses (1/2) :      104.17      240.22
CMA distance (Bohr)    :   5.254
constraining FC (au)   :  0.0500

           -------------------------------------------------
          |                 G F N 2 - x T B                 |
           -------------------------------------------------

        Reference                      10.1021/acs.jctc.8b01176
      * Hamiltonian:
        H0-scaling (s, p, d)           1.850000    2.230000    2.230000
        zeta-weighting                 0.500000
      * Dispersion:
        s8                             2.700000
        a1                             0.520000
        a2                             5.000000
        s9                             5.000000
      * Repulsion:
        kExp                           1.500000    1.000000
        rExp                           1.000000
      * Coulomb:
        alpha                          2.000000
        third order                    shell-resolved
        anisotropic                    true
        a3                             3.000000
        a5                             4.000000
        cn-shift                       1.200000
        cn-exp                         4.000000
        max-rad                        5.000000


          ...................................................
          :                      SETUP                      :
          :.................................................:
          :  # basis functions                 122          :
          :  # atomic orbitals                 122          :
          :  # shells                           76          :
          :  # electrons                       140          :
          :  max. iterations                   250          :
          :  Hamiltonian                  GFN2-xTB          :
          :  restarted?                      false          :
          :  GBSA solvation                  false          :
          :  PC potential                    false          :
          :  electronic temp.          300.0000000     K    :
          :  accuracy                    1.0000000          :
          :  -> integral cutoff          0.2500000E+02      :
          :  -> integral neglect         0.1000000E-07      :
          :  -> SCF convergence          0.1000000E-05 Eh   :
          :  -> wf. convergence          0.1000000E-03 e    :
          :  Broyden damping             0.4000000          :
          ...................................................

 iter      E             dE          RMSdq      gap      omega  full diag
   1    -81.5442041 -0.815442E+02  0.428E+00    5.05       0.0  T
   2    -81.8340931 -0.289889E+00  0.229E+00    5.88       1.0  T
   3    -81.8400019 -0.590888E-02  0.113E+00    5.66       1.0  T
   4    -81.8413926 -0.139064E-02  0.237E-01    5.74       1.0  T
   5    -81.8422665 -0.873884E-03  0.909E-02    5.68       1.0  T
   6    -81.8422906 -0.241051E-04  0.277E-02    5.69       1.0  T
   7    -81.8422954 -0.486618E-05  0.742E-03    5.68       1.9  T
   8    -81.8422957 -0.239174E-06  0.283E-03    5.68       4.9  T
   9    -81.8422957 -0.364532E-07  0.107E-03    5.68      12.9  T
  10    -81.8422957 -0.634441E-08  0.205E-04    5.68      67.1  T
  11    -81.8422957 -0.478025E-09  0.864E-05    5.68     158.9  T

   *** convergence criteria satisfied after 11 iterations ***

         #    Occupation            Energy/Eh            Energy/eV
      -------------------------------------------------------------
         1        2.0000           -0.7983880             -21.7252
       ...           ...                  ...                  ...
        64        2.0000           -0.4988339             -13.5740
        65        2.0000           -0.4961740             -13.5016
        66        2.0000           -0.4957489             -13.4900
        67        2.0000           -0.4947312             -13.4623
        68        2.0000           -0.4935731             -13.4308
        69        2.0000           -0.4904802             -13.3466
        70        2.0000           -0.4854329             -13.2093 (HOMO)
        71                         -0.2766006              -7.5267 (LUMO)
        72                         -0.2671618              -7.2698
        73                         -0.2670676              -7.2673
        74                         -0.2622876              -7.1372
        75                         -0.1545790              -4.2063
       ...                                ...                  ...
       122                          0.5534763              15.0609
      -------------------------------------------------------------
                  HL-Gap            0.2088323 Eh            5.6826 eV
             Fermi-level           -0.3810167 Eh          -10.3680 eV

 SCC (total)                   0 d,  0 h,  0 min,  0.071 sec
 SCC setup                      ...        0 min,  0.000 sec (  0.402%)
 Dispersion                     ...        0 min,  0.001 sec (  0.822%)
 classical contributions        ...        0 min,  0.000 sec (  0.257%)
 integral evaluation            ...        0 min,  0.008 sec ( 11.516%)
 iterations                     ...        0 min,  0.033 sec ( 46.824%)
 molecular gradient             ...        0 min,  0.028 sec ( 39.796%)
 printout                       ...        0 min,  0.000 sec (  0.366%)

         :::::::::::::::::::::::::::::::::::::::::::::::::::::
         ::                     SUMMARY                     ::
         :::::::::::::::::::::::::::::::::::::::::::::::::::::
         :: total energy             -80.934423082275 Eh    ::
         :: gradient norm              0.000175693285 Eh/a0 ::
         :: HOMO-LUMO gap              5.682616010407 eV    ::
         ::.................................................::
         :: SCC energy               -81.842295716423 Eh    ::
         :: -> isotropic ES            0.292299747831 Eh    ::
         :: -> anisotropic ES         -0.028444472502 Eh    ::
         :: -> anisotropic XC          0.020973305502 Eh    ::
         :: -> dispersion             -0.046406417295 Eh    ::
         :: repulsion energy           0.906174218699 Eh    ::
         :: add. restraining           0.000000000000 Eh    ::
         :: total charge               1.000000000000 e     ::
         :::::::::::::::::::::::::::::::::::::::::::::::::::::

           ------------------------------------------------- 
          |                Numerical Hessian                |
           ------------------------------------------------- 
step length          :   0.00500
SCC accuracy         :   0.30000
Hessian scale factor :   1.00000
frozen atoms in %    :   0.00000    0
RMS gradient         :   0.00018
estimated CPU  time      0.24 min
estimated wall time      0.24 min

writing file <hessian>.

 projected vibrational frequencies (cm⁻¹)
eigval :       -0.00    -0.00    -0.00    -0.00     0.00     0.00
eigval :       19.21    27.65    32.64    40.76    51.00    55.37
eigval :       59.10    60.09    65.30    73.21    75.11    80.67
eigval :       88.67    94.23   103.50   105.76   108.82   117.07
eigval :      125.24   128.64   136.94   163.15   174.30   179.19
eigval :      205.38   213.54   252.32   257.14   292.90   309.64
eigval :      320.92   330.33   349.10   354.03   367.96   373.76
eigval :      396.26   426.84   439.08   449.56   454.92   462.87
eigval :      463.60   467.94   473.99   477.47   480.73   483.64
eigval :      489.53   500.17   531.79   552.46   557.37   563.25
eigval :      573.98   617.56   637.62   666.40   671.96   675.26
eigval :      703.12   731.94   736.10   766.20   777.22   798.91
eigval :      906.73   927.18   956.87   969.49   982.23   987.20
eigval :     1001.17  1002.60  1009.37  1012.08  1013.11  1025.94
eigval :     1030.83  1033.83  1038.89  1086.48  1089.03  1094.45
eigval :     1096.88  1100.44  1108.84  1135.74  1166.75  1228.98
eigval :     1248.11  1280.12  1314.01  1329.52  1345.03  1354.89
eigval :     1359.79  1361.61  1383.62  1396.49  1406.78  1408.45
eigval :     1429.12  1437.65  1441.55  1445.23  1455.41  1455.60
eigval :     1458.26  1460.39  1461.27  1467.06  1473.22  1479.97
eigval :     1486.46  1490.33  1503.42  1507.62  1521.07  1654.82
eigval :     1691.38  1715.48  1728.50  2858.49  2967.98  2987.54
eigval :     2989.56  3028.93  3038.33  3041.41  3044.18  3047.91
eigval :     3054.16  3056.71  3062.90  3069.48  3107.49  3125.92
eigval :     3174.50  3257.65  3350.69  3446.81  3493.44  3494.61
eigval :     3498.57  3500.29  3521.69  3532.69  3533.77  3534.85
eigval :     3555.78  3559.12  3565.17
           -------------------------------------------------
          |                Property Printout                |
           -------------------------------------------------

    * Orbital Energies and Occupations

         #    Occupation            Energy/Eh            Energy/eV
      -------------------------------------------------------------
         1        2.0000           -0.7983879             -21.7252
       ...           ...                  ...                  ...
        58        2.0000           -0.5142756             -13.9942
        59        2.0000           -0.5045713             -13.7301
        60        2.0000           -0.5028682             -13.6837
        61        2.0000           -0.5012332             -13.6392
        62        2.0000           -0.5004928             -13.6191
        63        2.0000           -0.4996103             -13.5951
        64        2.0000           -0.4988338             -13.5740
        65        2.0000           -0.4961743             -13.5016
        66        2.0000           -0.4957490             -13.4900
        67        2.0000           -0.4947302             -13.4623
        68        2.0000           -0.4935733             -13.4308
        69        2.0000           -0.4904799             -13.3466
        70        2.0000           -0.4854325             -13.2093 (HOMO)
        71                         -0.2765999              -7.5267 (LUMO)
        72                         -0.2671623              -7.2699
        73                         -0.2670679              -7.2673
        74                         -0.2622874              -7.1372
        75                         -0.1545789              -4.2063
        76                         -0.1045769              -2.8457
        77                         -0.0947492              -2.5783
        78                         -0.0821843              -2.2363
        79                         -0.0807214              -2.1965
        80                         -0.0735360              -2.0010
        81                         -0.0702019              -1.9103
       ...                                ...                  ...
       122                          0.5534767              15.0609
      -------------------------------------------------------------
                  HL-Gap            0.2088326 Eh            5.6826 eV
             Fermi-level           -0.3810162 Eh          -10.3680 eV

     #   Z          covCN         q      C6AA      α(0)
     1   8 O        1.653    -0.476    22.378     6.386
     2   6 C        3.673     0.076    19.538     6.335
     3   1 H        0.923     0.044     2.399     2.422
     4   1 H        0.924     0.058     2.224     2.332
     5   6 C        3.763    -0.057    21.647     6.632
     6   1 H        0.924     0.071     2.079     2.255
     7   1 H        0.924     0.109     1.703     2.041
     8   7 N        3.623     0.156    18.605     6.406
     9   6 C        3.726    -0.114    22.787     6.816
    10   1 H        0.925     0.076     2.022     2.224
    11   1 H        0.925     0.121     1.604     1.981
    12   1 H        0.925     0.120     1.611     1.985
    13   6 C        3.737    -0.110    22.684     6.797
    14   1 H        0.925     0.086     1.916     2.165
    15   1 H        0.925     0.131     1.525     1.931
    16   1 H        0.925     0.080     1.976     2.198
    17   6 C        3.729    -0.118    22.860     6.826
    18   1 H        0.925     0.111     1.687     2.031
    19   1 H        0.925     0.097     1.811     2.104
    20   1 H        0.925     0.127     1.561     1.954
    21   1 H        0.802     0.337     0.619     1.236
    22   6 C        2.675     0.342    21.187     7.532
    23   8 O        0.860    -0.506    23.926     6.558
    24   7 N        2.642    -0.302    27.781     7.828
    25   1 H        0.859     0.252     0.876     1.466
    26   1 H        0.861     0.180     1.213     1.725
    27   7 N        2.641    -0.321    28.251     7.894
    28   1 H        0.860     0.179     1.218     1.729
    29   1 H        0.860     0.196     1.125     1.662
    30   6 C        2.675     0.349    21.073     7.512
    31   8 O        0.860    -0.525    24.349     6.616
    32   7 N        2.644    -0.294    27.591     7.801
    33   1 H        0.860     0.240     0.921     1.504
    34   1 H        0.861     0.182     1.201     1.717
    35   7 N        2.645    -0.286    27.384     7.772
    36   1 H        0.860     0.187     1.173     1.696
    37   1 H        0.860     0.200     1.106     1.647
    38   6 C        2.675     0.344    21.152     7.526
    39   8 O        0.860    -0.527    24.380     6.620
    40   7 N        2.645    -0.292    27.519     7.791
    41   1 H        0.860     0.198     1.117     1.655
    42   1 H        0.861     0.184     1.192     1.710
    43   7 N        2.645    -0.304    27.832     7.835
    44   1 H        0.861     0.179     1.222     1.731
    45   1 H        0.860     0.211     1.052     1.606
    46   6 C        2.675     0.342    21.192     7.533
    47   8 O        0.860    -0.534    24.542     6.642
    48   7 N        2.643    -0.317    28.149     7.880
    49   1 H        0.859     0.245     0.902     1.488
    50   1 H        0.860     0.177     1.231     1.738
    51   7 N        2.645    -0.292    27.518     7.791
    52   1 H        0.860     0.183     1.195     1.712
    53   1 H        0.860     0.200     1.108     1.649

 Mol. C6AA /au·bohr⁶  :      21804.753173
 Mol. C8AA /au·bohr⁸  :     454392.752311
 Mol. α(0) /au        :        220.623010


Wiberg/Mayer (AO) data.
largest (>0.10) Wiberg bond orders for each atom

 ---------------------------------------------------------------------------
     #   Z sym  total        # sym  WBO       # sym  WBO       # sym  WBO
 ---------------------------------------------------------------------------
     1   8 O    1.944 --     2 C    1.023    21 H    0.811
     2   6 C    3.967 --     1 O    1.023     5 C    0.994     4 H    0.966
                             3 H    0.959
     3   1 H    0.998 --     2 C    0.959
     4   1 H    0.996 --     2 C    0.966
     5   6 C    3.941 --     2 C    0.994     6 H    0.970     7 H    0.958
                             8 N    0.940
     6   1 H    0.995 --     5 C    0.970
     7   1 H    0.988 --     5 C    0.958
     8   7 N    3.821 --    13 C    0.958     9 C    0.955    17 C    0.950
                             5 C    0.940
     9   6 C    3.919 --    10 H    0.980    12 H    0.962    11 H    0.961
                             8 N    0.955
    10   1 H    0.994 --     9 C    0.980
    11   1 H    0.985 --     9 C    0.961
    12   1 H    0.986 --     9 C    0.962
    13   6 C    3.927 --    16 H    0.979    14 H    0.978     8 N    0.958
                            15 H    0.956
    14   1 H    0.993 --    13 C    0.978
    15   1 H    0.982 --    13 C    0.956
    16   1 H    0.994 --    13 C    0.979
    17   6 C    3.909 --    19 H    0.971    18 H    0.967    20 H    0.959
                             8 N    0.950
    18   1 H    0.988 --    17 C    0.967
    19   1 H    0.991 --    17 C    0.971
    20   1 H    0.984 --    17 C    0.959
    21   1 H    0.886 --     1 O    0.811
    22   6 C    3.959 --    23 O    1.537    24 N    1.284    27 N    1.124
    23   8 O    1.935 --    22 C    1.537    24 N    0.164    27 N    0.115
    24   7 N    3.366 --    22 C    1.284    26 H    0.948    25 H    0.856
                            23 O    0.164
    25   1 H    0.936 --    24 N    0.856
    26   1 H    0.967 --    24 N    0.948
    27   7 N    3.260 --    22 C    1.124    28 H    0.947    29 H    0.944
                            23 O    0.115
    28   1 H    0.968 --    27 N    0.947
    29   1 H    0.961 --    27 N    0.944
    30   6 C    3.958 --    31 O    1.461    32 N    1.267    35 N    1.215
    31   8 O    1.934 --    30 C    1.461    32 N    0.135    35 N    0.122
    32   7 N    3.347 --    30 C    1.267    34 H    0.947    33 H    0.874
                            31 O    0.135
    33   1 H    0.942 --    32 N    0.874
    34   1 H    0.966 --    32 N    0.947
    35   7 N    3.319 --    30 C    1.215    36 H    0.946    37 H    0.939
                            31 O    0.122
    36   1 H    0.965 --    35 N    0.946
    37   1 H    0.960 --    35 N    0.939
    38   6 C    3.959 --    39 O    1.531    43 N    1.217    40 N    1.203
    39   8 O    1.892 --    38 C    1.531    43 N    0.144    40 N    0.141
    40   7 N    3.318 --    38 C    1.203    42 H    0.947    41 H    0.944
                            39 O    0.141
    41   1 H    0.961 --    40 N    0.944
    42   1 H    0.966 --    40 N    0.947
    43   7 N    3.321 --    38 C    1.217    44 H    0.949    45 H    0.906
                            39 O    0.144
    44   1 H    0.968 --    43 N    0.949
    45   1 H    0.955 --    43 N    0.906
    46   6 C    3.959 --    47 O    1.498    48 N    1.247    51 N    1.205
    47   8 O    1.899 --    46 C    1.498    48 N    0.144    51 N    0.132
    48   7 N    3.328 --    46 C    1.247    50 H    0.949    49 H    0.865
                            47 O    0.144
    49   1 H    0.940 --    48 N    0.865
    50   1 H    0.969 --    48 N    0.949
    51   7 N    3.318 --    46 C    1.205    52 H    0.947    53 H    0.943
                            47 O    0.132
    52   1 H    0.966 --    51 N    0.947
    53   1 H    0.960 --    51 N    0.943
 ---------------------------------------------------------------------------

Topologies differ in total number of bonds
Writing topology from bond orders to xtbtopo.mol

molecular dipole:
                 x           y           z       tot (Debye)
 q only:       -0.488      -1.231       0.624
   full:       -0.448      -1.181       0.971       4.049
molecular quadrupole (traceless):
                xx          xy          yy          xz          yz          zz
 q only:       -8.522     -12.120      25.717       8.122     -12.218     -17.195
  q+dip:       -7.739     -20.477      27.676       9.785     -16.773     -19.937
   full:       -7.980     -19.771      27.770       9.823     -16.296     -19.790

           -------------------------------------------------
          |               Frequency Printout                |
           -------------------------------------------------
 projected vibrational frequencies (cm⁻¹)
eigval :       -0.00    -0.00    -0.00    -0.00     0.00     0.00
eigval :       19.21    27.65    32.64    40.76    51.00    55.37
eigval :       59.10    60.09    65.30    73.21    75.11    80.67
eigval :       88.67    94.23   103.50   105.76   108.82   117.07
eigval :      125.24   128.64   136.94   163.15   174.30   179.19
eigval :      205.38   213.54   252.32   257.14   292.90   309.64
eigval :      320.92   330.33   349.10   354.03   367.96   373.76
eigval :      396.26   426.84   439.08   449.56   454.92   462.87
eigval :      463.60   467.94   473.99   477.47   480.73   483.64
eigval :      489.53   500.17   531.79   552.46   557.37   563.25
eigval :      573.98   617.56   637.62   666.40   671.96   675.26
eigval :      703.12   731.94   736.10   766.20   777.22   798.91
eigval :      906.73   927.18   956.87   969.49   982.23   987.20
eigval :     1001.17  1002.60  1009.37  1012.08  1013.11  1025.94
eigval :     1030.83  1033.83  1038.89  1086.48  1089.03  1094.45
eigval :     1096.88  1100.44  1108.84  1135.74  1166.75  1228.98
eigval :     1248.11  1280.12  1314.01  1329.52  1345.03  1354.89
eigval :     1359.79  1361.61  1383.62  1396.49  1406.78  1408.45
eigval :     1429.12  1437.65  1441.55  1445.23  1455.41  1455.60
eigval :     1458.26  1460.39  1461.27  1467.06  1473.22  1479.97
eigval :     1486.46  1490.33  1503.42  1507.62  1521.07  1654.82
eigval :     1691.38  1715.48  1728.50  2858.49  2967.98  2987.54
eigval :     2989.56  3028.93  3038.33  3041.41  3044.18  3047.91
eigval :     3054.16  3056.71  3062.90  3069.48  3107.49  3125.92
eigval :     3174.50  3257.65  3350.69  3446.81  3493.44  3494.61
eigval :     3498.57  3500.29  3521.69  3532.69  3533.77  3534.85
eigval :     3555.78  3559.12  3565.17
 reduced masses (amu)
   1: 12.44   2: 12.45   3: 12.55   4: 12.74   5: 12.41   6: 12.54   7: 12.02   8: 12.15
   9: 12.23  10: 12.43  11: 12.13  12: 12.25  13: 12.33  14: 12.20  15: 12.17  16: 13.42
  17: 11.44  18: 12.68  19: 13.02  20: 12.85  21: 12.33  22: 11.73  23: 12.31  24: 12.45
  25: 12.97  26: 12.12  27: 12.09  28: 12.51  29: 11.74  30: 12.89  31: 12.39  32: 12.37
  33:  3.27  34:  4.20  35:  5.59  36:  5.55  37:  2.71  38:  2.10  39:  6.60  40:  3.88
  41:  3.11  42:  6.74  43:  2.55  44:  2.52  45:  8.78  46:  2.42  47:  2.78  48:  7.88
  49:  5.81  50:  6.96  51:  5.18  52:  5.71  53:  6.18  54:  5.22  55:  6.92  56:  8.84
  57: 11.06  58: 10.85  59: 11.62  60:  9.17  61: 11.92  62:  2.34  63:  6.68  64: 11.78
  65: 11.26  66: 12.00  67:  3.33  68:  2.71  69:  6.53  70:  9.38  71:  2.17  72:  2.05
  73:  7.32  74:  7.91  75:  5.03  76:  4.86  77:  6.25  78:  5.31  79:  7.84  80:  8.54
  81:  7.84  82:  8.98  83:  8.01  84:  9.91  85:  6.55  86:  3.22  87:  6.13  88:  9.24
  89:  8.55  90:  7.92  91:  6.50  92:  7.04  93:  4.18  94:  8.86  95:  2.95  96:  6.60
  97:  6.44  98:  8.11  99:  5.91 100:  3.04 101:  6.37 102:  4.36 103:  5.58 104:  5.26
 105:  5.11 106:  3.37 107:  2.56 108:  2.59 109:  2.17 110:  1.67 111:  2.04 112:  1.95
 113:  2.07 114:  3.63 115:  3.12 116:  3.46 117:  2.81 118:  1.78 119:  1.64 120:  1.81
 121:  4.69 122:  3.35 123:  7.90 124:  8.54 125:  9.35 126: 12.32 127: 12.68 128: 12.79
 129: 12.73 130:  1.75 131:  1.67 132:  1.53 133:  1.97 134:  1.73 135:  1.86 136:  1.68
 137:  1.57 138:  1.71 139:  1.71 140:  1.75 141:  1.91 142:  1.67 143:  1.84 144:  1.89
 145:  1.83 146:  1.78 147:  1.70 148:  1.47 149:  1.46 150:  1.45 151:  2.15 152:  1.45
 153:  1.88 154:  1.96 155:  1.91 156:  1.89 157:  2.17 158:  2.18 159:  2.18
 IR intensities (km·mol⁻¹)
   1:  0.83   2:  2.34   3:  1.07   4:  1.34   5:  1.31   6:  2.20   7:  0.33   8:  0.06
   9:  0.53  10:  3.02  11:  0.27  12:  0.69  13:  5.56  14:  2.98  15:  5.63  16:  7.82
  17:  3.12  18:  3.54  19:  6.37  20:  3.82  21: 11.47  22:  7.68  23:  1.26  24:  3.38
  25: 29.73  26:  6.06  27:  3.45  28:  1.27  29:  1.51  30: 48.68  31: 23.87  32: 64.42
  33: 64.27  34: 17.28  35:  0.64  36:  0.89  37:175.46  38:  7.61  39: 37.46  40:308.24
  41: 79.31  42:  2.54  43: 51.16  44: 65.95  45:  3.31  46: 65.46  47:167.57  48:  1.32
  49:  3.29  50: 16.71  51: 58.74  52: 22.30  53:184.84  54:119.17  55: 28.61  56: 39.81
  57: 36.20  58: 21.29  59:  7.88  60: 11.92  61: 62.35  62: 89.21  63:117.90  64: 52.30
  65:  6.16  66: 43.37  67:122.67  68:188.90  69:237.89  70:  2.48  71:102.59  72:573.22
  73:  2.59  74:  8.53  75:  0.83  76:  0.77  77:  2.12  78: 10.44  79: 17.35  80:  0.74
  81: 19.91  82: 26.84  83:  9.35  84:  4.81  85: 15.38  86:  1.86  87:  5.99  88:  0.71
  89:  3.23  90:  1.89  91:  8.91  92:  4.18  93: 13.98  94: 50.23  95: 15.24  96:  4.70
  97:  6.11  98: 14.76  99:  1.96 100:  1.27 101:335.35 102: 12.98 103: 57.97 104: 75.46
 105: 18.20 106: 65.12 107: 49.08 108: 21.44 109:  4.64 110:  6.40 111:  5.71 112:  0.13
 113: 12.27 114: 31.03 115:  5.02 116: 20.82 117:  7.33 118: 16.29 119: 21.33 120: 70.55
 121:185.11 122:126.97 123:532.22 124:504.54 125:458.18 126:464.70 127:630.28 128:350.25
 129:****** 130: 46.43 131: 30.50 132: 15.60 133:  9.47 134: 17.78 135: 27.90 136: 11.62
 137: 13.11 138: 11.22 139:  4.84 140: 10.03 141: 12.75 142:  7.80 143:874.38 144:659.40
 145:****** 146:****** 147:378.22 148:  6.79 149: 33.14 150: 10.47 151:  6.62 152: 18.59
 153: 10.00 154: 18.68 155: 18.99 156: 13.44 157: 19.31 158: 12.39 159: 11.60
 Raman intensities (amu)
Molecule has no symmetry elements
It seems to be the C1 point group
   1:  0.00   2:  0.00   3:  0.00   4:  0.00   5:  0.00   6:  0.00   7:  0.00   8:  0.00
   9:  0.00  10:  0.00  11:  0.00  12:  0.00  13:  0.00  14:  0.00  15:  0.00  16:  0.00
  17:  0.00  18:  0.00  19:  0.00  20:  0.00  21:  0.00  22:  0.00  23:  0.00  24:  0.00
  25:  0.00  26:  0.00  27:  0.00  28:  0.00  29:  0.00  30:  0.00  31:  0.00  32:  0.00
  33:  0.00  34:  0.00  35:  0.00  36:  0.00  37:  0.00  38:  0.00  39:  0.00  40:  0.00
  41:  0.00  42:  0.00  43:  0.00  44:  0.00  45:  0.00  46:  0.00  47:  0.00  48:  0.00
  49:  0.00  50:  0.00  51:  0.00  52:  0.00  53:  0.00  54:  0.00  55:  0.00  56:  0.00
  57:  0.00  58:  0.00  59:  0.00  60:  0.00  61:  0.00  62:  0.00  63:  0.00  64:  0.00
  65:  0.00  66:  0.00  67:  0.00  68:  0.00  69:  0.00  70:  0.00  71:  0.00  72:  0.00
  73:  0.00  74:  0.00  75:  0.00  76:  0.00  77:  0.00  78:  0.00  79:  0.00  80:  0.00
  81:  0.00  82:  0.00  83:  0.00  84:  0.00  85:  0.00  86:  0.00  87:  0.00  88:  0.00
  89:  0.00  90:  0.00  91:  0.00  92:  0.00  93:  0.00  94:  0.00  95:  0.00  96:  0.00
  97:  0.00  98:  0.00  99:  0.00 100:  0.00 101:  0.00 102:  0.00 103:  0.00 104:  0.00
 105:  0.00 106:  0.00 107:  0.00 108:  0.00 109:  0.00 110:  0.00 111:  0.00 112:  0.00
 113:  0.00 114:  0.00 115:  0.00 116:  0.00 117:  0.00 118:  0.00 119:  0.00 120:  0.00
 121:  0.00 122:  0.00 123:  0.00 124:  0.00 125:  0.00 126:  0.00 127:  0.00 128:  0.00
 129:  0.00 130:  0.00 131:  0.00 132:  0.00 133:  0.00 134:  0.00 135:  0.00 136:  0.00
 137:  0.00 138:  0.00 139:  0.00 140:  0.00 141:  0.00 142:  0.00 143:  0.00 144:  0.00
 145:  0.00 146:  0.00 147:  0.00 148:  0.00 149:  0.00 150:  0.00 151:  0.00 152:  0.00
 153:  0.00 154:  0.00 155:  0.00 156:  0.00 157:  0.00 158:  0.00 159:  0.00
 output can be read by thermo (or use thermo option).
 writing <g98.out> molden fake output.
 recommended (thermochemical) frequency scaling factor: 1.0
           -------------------------------------------------
          |             Thermodynamic Functions             |
           -------------------------------------------------

c1  symmetry found (for desy threshold:  0.10E+00) used in thermo

          ...................................................
          :                      SETUP                      :
          :.................................................:
          :  # frequencies                         153      :
          :  # imaginary freq.                       0      :
          :  linear?                             false      :
          :  only rotor calc.                    false      :
          :  symmetry                               c1      :
          :  rotational number                       1      :
          :  scaling factor                  1.0000000      :
          :  rotor cutoff                   50.0000000 cm⁻¹ :
          :  imag. cutoff                  -20.0000000 cm⁻¹ :
          :.................................................:

    mode    ω/cm⁻¹     T·S(HO)/kcal·mol⁻¹    T·S(FR)/kcal·mol⁻¹   T·S(vib)
   ------------------------------------------------------------------------
       1     19.21    -2.00199 (  2.13%)    -1.33992 ( 97.87%)    -1.35403
       2     27.65    -1.78635 (  8.55%)    -1.23201 ( 91.45%)    -1.27940
       3     32.64    -1.68811 ( 15.37%)    -1.18281 ( 84.63%)    -1.26050
       4     40.76    -1.55685 ( 30.64%)    -1.11703 ( 69.36%)    -1.25178
       5     51.00    -1.42463 ( 51.98%)    -1.05066 ( 48.02%)    -1.24504
       6     55.37    -1.37621 ( 60.06%)    -1.02631 ( 39.94%)    -1.23645
       7     59.10    -1.33778 ( 66.13%)    -1.00698 ( 33.87%)    -1.22573
       8     60.09    -1.32803 ( 67.60%)    -1.00207 ( 32.40%)    -1.22240
       9     65.30    -1.27915 ( 74.42%)    -0.97745 ( 25.58%)    -1.20197
      10     73.21    -1.21206 ( 82.13%)    -0.94359 ( 17.87%)    -1.16407
      11     75.11    -1.19697 ( 83.59%)    -0.93596 ( 16.41%)    -1.15413
      12     80.67    -1.15521 ( 87.14%)    -0.91484 ( 12.86%)    -1.12429
      13     88.67    -1.09990 ( 90.82%)    -0.88680 (  9.18%)    -1.08034
      14     94.23    -1.06449 ( 92.65%)    -0.86881 (  7.35%)    -1.05012
      15    103.50    -1.00992 ( 94.84%)    -0.84100 (  5.16%)    -1.00119
      16    105.76    -0.99739 ( 95.24%)    -0.83460 (  4.76%)    -0.98965
      17    108.82    -0.98085 ( 95.73%)    -0.82614 (  4.27%)    -0.97425
      18    117.07    -0.93864 ( 96.78%)    -0.80452 (  3.22%)    -0.93433
      19    125.24    -0.89978 ( 97.52%)    -0.78453 (  2.48%)    -0.89692
      20    128.64    -0.88438 ( 97.77%)    -0.77658 (  2.23%)    -0.88197
      21    136.94    -0.84860 ( 98.25%)    -0.75807 (  1.75%)    -0.84701
      22    163.15    -0.74925 ( 99.13%)    -0.70620 (  0.87%)    -0.74887
      23    174.30    -0.71215 ( 99.33%)    -0.68660 (  0.67%)    -0.71198
      24    179.19    -0.69673 ( 99.40%)    -0.67841 (  0.60%)    -0.69662
      25    205.38    -0.62145 ( 99.65%)    -0.63800 (  0.35%)    -0.62151
      26    213.54    -0.60024 ( 99.70%)    -0.62646 (  0.30%)    -0.60031
      27    252.32    -0.51112 ( 99.85%)    -0.57702 (  0.15%)    -0.51122
      28    257.14    -0.50122 ( 99.86%)    -0.57142 (  0.14%)    -0.50132
      29    292.90    -0.43444 ( 99.92%)    -0.53284 (  0.08%)    -0.43453
   ------------------------------------------------------------------------

   temp. (K)  partition function   enthalpy   heat capacity  entropy
                                   cal/mol     cal/K/mol   cal/K/mol   J/K/mol
 298.15  VIB  0.798E+15            18797.574    105.297    122.211
         ROT  0.118E+08              888.752      2.981     35.342
         INT  0.943E+22            19686.326    108.278    157.554
         TR   0.618E+28             1481.254      4.968     43.384
         TOT                       21167.5804   113.2462   200.9382   840.7253

       T/K    H(0)-H(T)+PV         H(T)/Eh          T*S/Eh         G(T)/Eh
   ------------------------------------------------------------------------
    298.15    0.337327E-01    0.474053E+00    0.954722E-01    0.378581E+00
   ------------------------------------------------------------------------

         :::::::::::::::::::::::::::::::::::::::::::::::::::::
         ::                  THERMODYNAMIC                  ::
         :::::::::::::::::::::::::::::::::::::::::::::::::::::
         :: total free energy         -80.555842047475 Eh   ::
         ::.................................................::
         :: total energy              -80.934423082306 Eh   ::
         :: zero point energy           0.440320555158 Eh   ::
         :: G(RRHO) w/o ZPVE           -0.061739520327 Eh   ::
         :: G(RRHO) contrib.            0.378581034831 Eh   ::
         :::::::::::::::::::::::::::::::::::::::::::::::::::::

           -------------------------------------------------
          | TOTAL ENERGY              -80.934423082306 Eh   |
          | TOTAL ENTHALPY            -80.460369840619 Eh   |
          | TOTAL FREE ENERGY         -80.555842047475 Eh   |
          | GRADIENT NORM               0.000175738920 Eh/α |
          | HOMO-LUMO GAP               5.682625421095 eV   |
           -------------------------------------------------

------------------------------------------------------------------------
 * finished run on 2024/01/10 at 15:37:09.877     
------------------------------------------------------------------------
 total:
 * wall-time:     0 d,  0 h,  0 min, 15.116 sec
 *  cpu-time:     0 d,  0 h,  0 min, 14.951 sec
 * ratio c/w:     0.989 speedup
 SCF:
 * wall-time:     0 d,  0 h,  0 min,  0.071 sec
 *  cpu-time:     0 d,  0 h,  0 min,  0.060 sec
 * ratio c/w:     0.851 speedup
 analytical hessian:
 * wall-time:     0 d,  0 h,  0 min, 15.018 sec
 *  cpu-time:     0 d,  0 h,  0 min, 14.864 sec
 * ratio c/w:     0.990 speedup

