 Entering Gaussian System
 *********************************************
 Gaussian 98:
 frequency output generated by the xtb code
 *********************************************
                         Standard orientation:
 --------------------------------------------------------------------
  Center     Atomic     Atomic              Coordinates (Angstroms)
  Number     Number      Type              X           Y           Z
 --------------------------------------------------------------------
    1          8             0       -0.087587    1.666467    2.493691
    2          6             0       -0.520130    2.608256    1.560017
    3          1             0       -1.240842    3.250818    2.073771
    4          1             0        0.313262    3.244334    1.229244
    5          6             0       -1.132368    2.010073    0.281680
    6          1             0       -0.376170    1.432245   -0.257130
    7          1             0       -1.449097    2.843373   -0.348670
    8          7             0       -2.297762    1.106722    0.477777
    9          6             0       -1.855446   -0.198015    1.001064
   10          1             0       -1.168216   -0.647539    0.286902
   11          1             0       -2.729362   -0.834126    1.126246
   12          1             0       -1.353583   -0.059814    1.955594
   13          6             0       -2.930421    0.874802   -0.832572
   14          1             0       -2.190718    0.458816   -1.514262
   15          1             0       -3.315258    1.808513   -1.237111
   16          1             0       -3.753026    0.173897   -0.700349
   17          6             0       -3.294747    1.673113    1.397712
   18          1             0       -3.599835    2.662129    1.061067
   19          1             0       -2.880709    1.739282    2.400767
   20          1             0       -4.158525    1.008718    1.412526
   21          1             0        0.676964    1.179295    2.097123
   22          6             0        4.824305   -0.302163   -2.425356
   23          8             0        4.447588   -0.879224   -1.409800
   24          7             0        6.094704    0.156670   -2.551260
   25          1             0        6.765228   -0.125663   -1.857967
   26          1             0        6.448270    0.488671   -3.430461
   27          7             0        4.003320   -0.069938   -3.471905
   28          1             0        4.305415    0.468607   -4.262908
   29          1             0        3.022224   -0.307595   -3.397570
   30          6             0        3.113024    0.519695    1.898906
   31          8             0        2.014966    0.496396    1.333317
   32          7             0        3.233271    1.031356    3.145598
   33          1             0        2.404868    1.343756    3.622179
   34          1             0        4.101185    1.021575    3.648514
   35          7             0        4.232078    0.064606    1.317642
   36          1             0        5.110190    0.080430    1.803176
   37          1             0        4.216650   -0.306580    0.372945
   38          6             0        0.857790   -0.892433   -1.886401
   39          8             0       -0.175322   -0.251435   -1.743036
   40          7             0        1.255861   -1.347078   -3.135415
   41          1             0        0.530341   -1.330185   -3.837137
   42          1             0        1.824044   -2.180747   -3.148456
   43          7             0        1.690128   -1.204831   -0.880640
   44          1             0        2.644782   -1.466611   -1.103807
   45          1             0        1.608090   -0.663837   -0.021864
   46          6             0       -5.917895   -1.678847    0.841446
   47          8             0       -4.989364   -0.885417    0.779613
   48          7             0       -5.981783   -2.776447    0.049003
   49          1             0       -5.195636   -2.990751   -0.537760
   50          1             0       -6.688628   -3.478588    0.167557
   51          7             0       -6.950462   -1.518603    1.702780
   52          1             0       -7.754445   -2.118653    1.689793
   53          1             0       -6.995574   -0.678211    2.250293
 --------------------------------------------------------------------
     1 basis functions        1 primitive gaussians
     1 alpha electrons        1 beta electrons

 Harmonic frequencies (cm**-1), IR intensities (km*mol⁻¹),
 Raman scattering activities (A**4/amu), Raman depolarization ratios,
 reduced masses (AMU), force constants (mDyne/A) and normal coordinates:
                      1                      2                      3
                        a                      a                      a 
 Frequencies --    -5.6938                12.0947                14.6526
 Red. masses --    11.0719                12.4799                11.9508
 Frc consts  --     0.0000                 0.0000                 0.0000
 IR Inten    --     0.0123                 2.2549                 1.8461
 Raman Activ --     0.0000                 0.0000                 0.0000
 Depolar     --     0.0000                 0.0000                 0.0000
 Atom AN      X      Y      Z        X      Y      Z        X      Y      Z
   1   8    -0.01   0.04  -0.02     0.03  -0.13   0.02     0.02  -0.05   0.16
   2   6    -0.01   0.02  -0.03     0.05  -0.12   0.01    -0.01  -0.01   0.18
   3   1    -0.01   0.01  -0.01     0.01  -0.03  -0.00    -0.01  -0.01   0.06
   4   1    -0.00   0.01  -0.01     0.02  -0.04   0.00    -0.01   0.01   0.06
   5   6    -0.01  -0.00  -0.03     0.06  -0.13   0.01    -0.01   0.03   0.16
   6   1    -0.00  -0.00  -0.01     0.01  -0.05   0.01    -0.00   0.01   0.04
   7   1    -0.00  -0.00  -0.01     0.03  -0.04  -0.01    -0.00   0.01   0.05
   8   7    -0.00  -0.01  -0.02     0.03  -0.10   0.00    -0.01   0.02   0.14
   9   6     0.01   0.00  -0.01    -0.03  -0.09   0.05    -0.01   0.01   0.10
  10   1     0.00  -0.00  -0.00    -0.01  -0.04   0.02    -0.00   0.01   0.03
  11   1     0.00  -0.00  -0.00    -0.01  -0.02   0.02    -0.00   0.00   0.02
  12   1     0.00   0.00  -0.00    -0.01  -0.02   0.02    -0.00  -0.00   0.03
  13   6    -0.00  -0.02  -0.01     0.05  -0.11  -0.00     0.00   0.06   0.12
  14   1     0.00  -0.01  -0.00     0.02  -0.05   0.01     0.00   0.02   0.03
  15   1    -0.00  -0.01  -0.01     0.03  -0.03  -0.01     0.00   0.02   0.04
  16   1     0.00  -0.01  -0.00     0.01  -0.02  -0.00     0.00   0.02   0.03
  17   6    -0.00  -0.01  -0.02     0.02  -0.03  -0.04    -0.02  -0.00   0.13
  18   1    -0.00  -0.00  -0.01     0.02  -0.01  -0.02    -0.00   0.00   0.05
  19   1    -0.00   0.00  -0.01    -0.00  -0.01  -0.01    -0.01  -0.01   0.04
  20   1     0.00  -0.00  -0.00    -0.00  -0.00  -0.01    -0.01  -0.00   0.03
  21   1    -0.00   0.01  -0.00     0.01  -0.03   0.01     0.01  -0.00   0.03
  22   6     0.01  -0.02   0.02    -0.04   0.17  -0.05    -0.03  -0.14  -0.09
  23   8     0.01  -0.01   0.03     0.07   0.15  -0.04    -0.03  -0.04  -0.03
  24   7     0.01  -0.02   0.02    -0.11   0.37  -0.10    -0.01  -0.25  -0.19
  25   1     0.00  -0.00   0.01    -0.01   0.12  -0.03     0.00  -0.06  -0.05
  26   1     0.01  -0.01   0.01    -0.05   0.11  -0.03    -0.01  -0.09  -0.06
  27   7     0.02  -0.04   0.01    -0.11   0.07  -0.03    -0.06  -0.19  -0.08
  28   1     0.01  -0.01   0.00    -0.05   0.03  -0.01    -0.02  -0.07  -0.04
  29   1     0.01  -0.01   0.00    -0.02  -0.02   0.00    -0.02  -0.03  -0.00
  30   6    -0.01   0.03   0.00     0.09   0.04  -0.00     0.07   0.16  -0.04
  31   8    -0.00   0.03  -0.00     0.09  -0.03   0.03     0.04   0.10   0.03
  32   7    -0.01   0.05  -0.00     0.10   0.05  -0.00     0.13   0.26  -0.08
  33   1    -0.00   0.02  -0.00     0.03  -0.00   0.01     0.04   0.06  -0.01
  34   1    -0.00   0.01   0.00     0.03   0.03  -0.01     0.04   0.08  -0.03
  35   7    -0.00   0.03   0.01     0.12   0.12  -0.03     0.06   0.19  -0.09
  36   1    -0.00   0.01   0.01     0.03   0.05  -0.02     0.02   0.07  -0.04
  37   1    -0.00   0.00   0.01     0.03   0.03  -0.01     0.00   0.03  -0.02
  38   6     0.01  -0.01   0.01     0.06  -0.19   0.10    -0.04   0.01   0.10
  39   8     0.01  -0.01  -0.01     0.04  -0.28   0.13    -0.03   0.03   0.13
  40   7     0.02  -0.04   0.02     0.06  -0.22   0.11    -0.10  -0.05   0.11
  41   1     0.01  -0.01   0.00     0.01  -0.08   0.04    -0.03  -0.02   0.04
  42   1     0.00  -0.01   0.01     0.03  -0.05   0.03    -0.03  -0.02   0.03
  43   7     0.00   0.00   0.02     0.12  -0.11   0.09    -0.02   0.03   0.09
  44   1     0.00  -0.00   0.01     0.04  -0.01   0.02    -0.01   0.00   0.02
  45   1    -0.00   0.00   0.00     0.03  -0.03   0.02     0.00   0.02   0.02
  46   6    -0.01  -0.00   0.00    -0.16   0.13  -0.05     0.01  -0.04  -0.19
  47   8     0.01  -0.03  -0.00    -0.10   0.06  -0.03    -0.01  -0.00  -0.03
  48   7    -0.34   0.32  -0.42    -0.26   0.16  -0.07     0.13   0.04  -0.32
  49   1    -0.15   0.14  -0.21    -0.07   0.02  -0.01     0.06   0.03  -0.07
  50   1    -0.09   0.08  -0.12    -0.09   0.06  -0.02     0.04  -0.00  -0.12
  51   7     0.30  -0.30   0.43    -0.18   0.23  -0.08    -0.09  -0.16  -0.30
  52   1     0.07  -0.07   0.12    -0.06   0.08  -0.03    -0.02  -0.05  -0.12
  53   1     0.14  -0.14   0.21    -0.03   0.06  -0.02    -0.05  -0.06  -0.06
                      4                      5                      6
                        a                      a                      a 
 Frequencies --    19.3013                31.3187                32.6728
 Red. masses --    11.9637                12.4458                12.3950
 Frc consts  --     0.0000                 0.0000                 0.0000
 IR Inten    --     0.1990                 4.3450                 1.4901
 Raman Activ --     0.0000                 0.0000                 0.0000
 Depolar     --     0.0000                 0.0000                 0.0000
 Atom AN      X      Y      Z        X      Y      Z        X      Y      Z
   1   8     0.07   0.15  -0.05    -0.07   0.07  -0.03     0.14   0.26  -0.15
   2   6     0.08   0.10  -0.08    -0.08   0.05  -0.03    -0.03   0.13  -0.15
   3   1     0.03   0.04  -0.03    -0.03   0.01  -0.01    -0.01   0.03  -0.04
   4   1     0.03   0.02  -0.03    -0.03   0.02  -0.01    -0.03   0.05  -0.07
   5   6     0.06   0.07  -0.05    -0.07   0.04  -0.03    -0.09   0.01  -0.07
   6   1     0.01   0.01  -0.01    -0.02   0.01  -0.00    -0.02   0.02  -0.03
   7   1     0.02   0.02  -0.02    -0.02   0.01  -0.01    -0.06  -0.01  -0.02
   8   7     0.04   0.12  -0.01    -0.07   0.03  -0.04     0.01  -0.09   0.08
   9   6     0.01   0.12   0.04    -0.06   0.05   0.01     0.17  -0.02   0.10
  10   1    -0.00   0.02   0.01    -0.01   0.01   0.01     0.04   0.00   0.02
  11   1    -0.00   0.04   0.02    -0.02   0.01   0.00     0.07  -0.03   0.06
  12   1     0.00   0.04   0.01    -0.02   0.02   0.00     0.07   0.02   0.01
  13   6     0.02   0.08  -0.00    -0.03  -0.01  -0.04    -0.08  -0.20   0.14
  14   1     0.00   0.01   0.00    -0.00  -0.01  -0.00    -0.03  -0.05   0.03
  15   1     0.01   0.02  -0.01    -0.01  -0.01  -0.02    -0.06  -0.07   0.04
  16   1     0.00   0.03   0.01    -0.01  -0.00  -0.01    -0.00  -0.08   0.07
  17   6     0.05   0.17  -0.03    -0.09   0.04  -0.07     0.04  -0.13   0.13
  18   1     0.02   0.05  -0.02    -0.03   0.01  -0.03    -0.02  -0.05   0.03
  19   1     0.02   0.06  -0.01    -0.03   0.02  -0.02     0.03  -0.01   0.03
  20   1     0.01   0.05   0.00    -0.02   0.01  -0.02     0.03  -0.06   0.07
  21   1     0.01   0.03  -0.01    -0.00   0.04   0.00     0.04   0.08  -0.04
  22   6    -0.17   0.07   0.03     0.07  -0.00  -0.15    -0.01  -0.02   0.06
  23   8    -0.11  -0.03   0.00     0.11   0.22  -0.04    -0.01  -0.11   0.02
  24   7    -0.25   0.28   0.06     0.09  -0.10  -0.32    -0.02   0.03   0.12
  25   1    -0.06   0.09   0.01     0.03   0.01  -0.08    -0.01  -0.00   0.03
  26   1    -0.08   0.10   0.02     0.02  -0.07  -0.11    -0.00   0.03   0.04
  27   7    -0.21  -0.01   0.04     0.03  -0.17  -0.17     0.00   0.03   0.07
  28   1    -0.08   0.02   0.02     0.00  -0.08  -0.07     0.00   0.03   0.03
  29   1    -0.05  -0.04   0.01     0.01  -0.02  -0.02     0.00   0.00   0.01
  30   6    -0.01  -0.10   0.02     0.04  -0.04   0.13     0.08   0.00  -0.03
  31   8     0.01   0.00  -0.02     0.09   0.24   0.06     0.14   0.24  -0.14
  32   7    -0.01  -0.19   0.05    -0.01  -0.48   0.32     0.07  -0.09   0.00
  33   1    -0.00  -0.03   0.01     0.00  -0.11   0.08     0.03   0.02  -0.02
  34   1    -0.01  -0.07   0.02    -0.00  -0.14   0.09     0.01  -0.06   0.01
  35   7    -0.02  -0.16   0.04     0.05   0.05   0.08     0.05  -0.17   0.03
  36   1    -0.01  -0.07   0.02     0.00  -0.07   0.05     0.00  -0.10   0.03
  37   1    -0.01  -0.03   0.00     0.02   0.06   0.00     0.02  -0.04   0.01
  38   6    -0.07  -0.13   0.06     0.03   0.04   0.07    -0.03   0.06  -0.03
  39   8    -0.07  -0.13   0.04    -0.01  -0.02   0.06    -0.03   0.07  -0.07
  40   7    -0.09  -0.21   0.08    -0.01  -0.08   0.11    -0.03   0.01  -0.01
  41   1    -0.03  -0.07   0.02    -0.01  -0.06   0.04    -0.01  -0.01  -0.00
  42   1    -0.02  -0.06   0.03     0.01  -0.01   0.05    -0.01   0.00   0.01
  43   7    -0.07  -0.10   0.07     0.12   0.24   0.06    -0.03   0.11  -0.02
  44   1    -0.02  -0.03   0.02     0.03   0.07   0.01    -0.01   0.02  -0.00
  45   1    -0.01  -0.01   0.01     0.03   0.08   0.00    -0.00   0.05  -0.01
  46   6     0.16  -0.02  -0.06    -0.03  -0.02   0.00    -0.07  -0.04  -0.00
  47   8     0.07   0.12   0.03    -0.06  -0.00  -0.03     0.11  -0.24   0.29
  48   7     0.36   0.03  -0.15    -0.02  -0.04   0.03    -0.15   0.08  -0.17
  49   1     0.11   0.05  -0.04    -0.01  -0.01   0.00    -0.02  -0.01   0.00
  50   1     0.12  -0.02  -0.06     0.00  -0.02   0.01    -0.08   0.05  -0.09
  51   7     0.13  -0.23  -0.09    -0.02  -0.04   0.03    -0.22   0.07  -0.20
  52   1     0.05  -0.09  -0.05    -0.00  -0.02   0.01    -0.08   0.06  -0.11
  53   1    -0.00  -0.07  -0.01    -0.01  -0.01   0.00    -0.03  -0.00  -0.02
                      7                      8                      9
                        a                      a                      a 
 Frequencies --    37.4812                40.4223                51.7969
 Red. masses --    12.4939                12.7509                12.5136
 Frc consts  --     0.0000                 0.0000                 0.0000
 IR Inten    --     7.2947                 0.1922                 1.7737
 Raman Activ --     0.0000                 0.0000                 0.0000
 Depolar     --     0.0000                 0.0000                 0.0000
 Atom AN      X      Y      Z        X      Y      Z        X      Y      Z
   1   8    -0.00   0.15  -0.05    -0.04   0.16   0.14     0.02  -0.18  -0.05
   2   6     0.06   0.04  -0.16     0.02   0.10   0.05     0.09  -0.12  -0.04
   3   1     0.03   0.04  -0.07    -0.00   0.04  -0.00     0.04  -0.02  -0.01
   4   1     0.03  -0.02  -0.07     0.01   0.02   0.02     0.04  -0.05  -0.02
   5   6     0.02  -0.08  -0.09     0.09   0.02   0.06     0.02  -0.07  -0.03
   6   1    -0.00  -0.05  -0.01     0.04   0.02   0.03    -0.01  -0.03  -0.02
   7   1     0.01  -0.04  -0.05     0.02  -0.00   0.01     0.01  -0.01  -0.00
   8   7    -0.01  -0.02   0.04     0.14  -0.04   0.06    -0.02  -0.02   0.01
   9   6    -0.05   0.02   0.15     0.20  -0.03   0.01    -0.06  -0.06  -0.07
  10   1    -0.02  -0.02   0.05     0.06   0.01  -0.00    -0.04  -0.02  -0.04
  11   1    -0.02   0.02   0.07     0.07  -0.02  -0.00    -0.02  -0.00  -0.01
  12   1    -0.01   0.03   0.04     0.06  -0.01   0.00     0.01  -0.04  -0.03
  13   6    -0.05  -0.12   0.07     0.11  -0.03   0.07    -0.12   0.06   0.05
  14   1    -0.03  -0.06   0.03     0.03   0.01   0.01    -0.05   0.01  -0.01
  15   1    -0.01  -0.04  -0.00     0.02  -0.01   0.03    -0.03   0.03   0.03
  16   1    -0.02  -0.02   0.05     0.04  -0.02   0.02    -0.04   0.03   0.02
  17   6     0.03   0.12   0.01     0.13  -0.10   0.10     0.08  -0.00   0.11
  18   1     0.02   0.03  -0.03     0.02  -0.03   0.04     0.03   0.01   0.05
  19   1     0.02   0.06  -0.00     0.05  -0.03   0.03     0.05  -0.02   0.02
  20   1     0.00   0.04   0.03     0.05  -0.04   0.03     0.01   0.01   0.04
  21   1    -0.02   0.00   0.00    -0.03   0.01   0.03     0.01  -0.04  -0.01
  22   6     0.11   0.06  -0.06    -0.02   0.01  -0.07     0.07  -0.03   0.08
  23   8     0.10   0.13  -0.05    -0.04   0.18   0.01     0.00   0.04   0.10
  24   7     0.20  -0.19  -0.17    -0.05   0.08  -0.09     0.02   0.17   0.25
  25   1     0.05  -0.09  -0.06    -0.02   0.07  -0.00    -0.01   0.09   0.10
  26   1     0.05  -0.06  -0.05    -0.01  -0.02  -0.03     0.03   0.02   0.07
  27   7     0.07   0.26   0.01     0.03  -0.25  -0.17     0.22  -0.33  -0.10
  28   1     0.03   0.05  -0.01     0.01  -0.09  -0.06     0.07  -0.08  -0.02
  29   1     0.01   0.10   0.02     0.01  -0.07  -0.04     0.06  -0.09  -0.04
  30   6    -0.11  -0.07   0.04    -0.24  -0.01   0.04     0.04   0.06  -0.02
  31   8    -0.15  -0.26   0.10    -0.29  -0.14   0.06     0.07   0.01  -0.07
  32   7    -0.12   0.03  -0.00    -0.32  -0.06   0.07    -0.08  -0.09   0.06
  33   1    -0.04  -0.01   0.00    -0.09  -0.03   0.02    -0.03  -0.03   0.00
  34   1    -0.03   0.04  -0.01    -0.08   0.03   0.01    -0.02   0.02   0.01
  35   7    -0.09   0.00   0.03    -0.21   0.17   0.00     0.12   0.30  -0.05
  36   1    -0.02   0.05  -0.01    -0.06   0.06   0.00     0.02   0.05   0.01
  37   1    -0.02   0.00   0.01    -0.05   0.05  -0.00     0.04   0.06  -0.00
  38   6     0.02  -0.07   0.00     0.02  -0.04  -0.06    -0.06   0.01  -0.13
  39   8    -0.07  -0.25   0.13     0.06   0.02  -0.11    -0.11  -0.04  -0.18
  40   7     0.06   0.16  -0.07     0.02  -0.09  -0.05    -0.04  -0.03  -0.12
  41   1     0.01   0.04  -0.01     0.01  -0.01  -0.02    -0.01  -0.02  -0.03
  42   1     0.05   0.07  -0.05    -0.01  -0.04  -0.01    -0.02  -0.01  -0.02
  43   7     0.09  -0.09  -0.06    -0.02  -0.07  -0.04    -0.05   0.11  -0.13
  44   1     0.03   0.01  -0.03    -0.00  -0.02  -0.00    -0.01   0.03  -0.03
  45   1     0.01  -0.06   0.01    -0.01  -0.02  -0.01    -0.02   0.03  -0.04
  46   6    -0.03   0.04   0.05     0.10   0.02  -0.01    -0.06   0.06   0.08
  47   8    -0.09   0.13   0.28     0.26  -0.14   0.06    -0.17   0.20   0.23
  48   7     0.14   0.14  -0.09    -0.04   0.06  -0.05     0.15   0.11  -0.00
  49   1     0.07   0.07  -0.00    -0.01  -0.02   0.00     0.06   0.07   0.01
  50   1     0.05   0.01  -0.06    -0.04   0.05  -0.02     0.06   0.00  -0.03
  51   7    -0.15  -0.14  -0.05     0.08   0.19  -0.08    -0.15  -0.15   0.02
  52   1    -0.03  -0.05  -0.06    -0.00   0.08  -0.03    -0.02  -0.07  -0.03
  53   1    -0.07  -0.06   0.01     0.06   0.05  -0.01    -0.08  -0.05   0.02
                     10                     11                     12
                        a                      a                      a 
 Frequencies --    57.2535                61.7587                63.3526
 Red. masses --    13.0282                12.1016                13.1271
 Frc consts  --     0.0000                 0.0000                 0.0000
 IR Inten    --     0.9160                 3.0919                 1.6209
 Raman Activ --     0.0000                 0.0000                 0.0000
 Depolar     --     0.0000                 0.0000                 0.0000
 Atom AN      X      Y      Z        X      Y      Z        X      Y      Z
   1   8     0.00  -0.02  -0.00     0.14   0.05   0.06     0.04  -0.12   0.06
   2   6     0.03  -0.01  -0.01    -0.09   0.06   0.17    -0.01  -0.04   0.14
   3   1     0.01  -0.00  -0.01    -0.04  -0.03   0.08    -0.01  -0.03   0.06
   4   1     0.01  -0.01  -0.00    -0.06   0.06   0.05    -0.01   0.01   0.05
   5   6     0.04  -0.02  -0.02    -0.06   0.08   0.15     0.02   0.02   0.10
   6   1     0.01  -0.00  -0.00    -0.01   0.03   0.05     0.01   0.02   0.03
   7   1     0.01  -0.00  -0.01    -0.02   0.02   0.04     0.01   0.02   0.04
   8   7     0.04  -0.02  -0.02    -0.05   0.05   0.10     0.03   0.00   0.04
   9   6     0.05  -0.03  -0.07    -0.05   0.11   0.26     0.04  -0.05  -0.09
  10   1     0.01  -0.01  -0.03     0.01   0.02   0.11     0.00   0.00  -0.05
  11   1     0.01  -0.01  -0.02    -0.01   0.03   0.06     0.01  -0.01  -0.03
  12   1     0.02  -0.02  -0.02    -0.05   0.06   0.09     0.03  -0.04  -0.03
  13   6     0.01   0.02  -0.01     0.12  -0.09   0.04     0.00   0.12   0.03
  14   1    -0.00   0.01  -0.01     0.06  -0.04   0.05    -0.01   0.04  -0.00
  15   1     0.00   0.01   0.01     0.04  -0.04  -0.03     0.01   0.05   0.03
  16   1     0.00   0.01  -0.00     0.04  -0.03   0.00    -0.00   0.04  -0.00
  17   6     0.07  -0.04   0.02    -0.19   0.10  -0.09     0.05  -0.09   0.12
  18   1     0.02  -0.01   0.02    -0.05   0.02  -0.06     0.01  -0.01   0.06
  19   1     0.03  -0.02   0.00    -0.10   0.05  -0.01     0.02  -0.06   0.03
  20   1     0.02  -0.01   0.01    -0.05   0.02  -0.05     0.01  -0.02   0.02
  21   1     0.00  -0.00   0.00     0.02   0.02  -0.04     0.01  -0.01  -0.01
  22   6    -0.07  -0.02   0.09     0.10  -0.02   0.01     0.07   0.05   0.03
  23   8    -0.09  -0.14   0.03     0.11  -0.13  -0.05     0.12   0.11   0.08
  24   7    -0.01  -0.25   0.05     0.07   0.12   0.12     0.11  -0.09  -0.11
  25   1     0.00  -0.12  -0.01     0.02   0.03   0.04     0.04  -0.03  -0.04
  26   1    -0.01  -0.03   0.03     0.03   0.05   0.04     0.01  -0.02  -0.03
  27   7    -0.15   0.35   0.24     0.15  -0.07  -0.04    -0.01   0.15   0.12
  28   1    -0.03   0.09   0.06     0.03   0.02   0.01    -0.01   0.02   0.01
  29   1    -0.04   0.09   0.06     0.04  -0.02  -0.01    -0.00   0.05   0.04
  30   6     0.01   0.09  -0.06    -0.08   0.01  -0.21    -0.08   0.08  -0.05
  31   8     0.01   0.10  -0.07    -0.04   0.14  -0.35     0.03   0.34  -0.30
  32   7    -0.08  -0.34   0.11    -0.20  -0.21  -0.13    -0.22   0.14  -0.06
  33   1    -0.02  -0.08   0.03    -0.06  -0.03  -0.06    -0.07   0.07  -0.05
  34   1     0.00   0.00  -0.01    -0.06  -0.04  -0.03    -0.09  -0.04   0.04
  35   7     0.09   0.53  -0.25    -0.04   0.07  -0.19    -0.08  -0.25   0.22
  36   1     0.01   0.05  -0.03    -0.03  -0.04  -0.01    -0.04  -0.08   0.09
  37   1     0.01   0.10  -0.05     0.00   0.01  -0.05     0.01  -0.03   0.05
  38   6    -0.04  -0.06   0.01     0.08  -0.05   0.03    -0.06  -0.14  -0.08
  39   8    -0.08  -0.11  -0.05     0.14  -0.00   0.16    -0.18  -0.34  -0.08
  40   7     0.03  -0.05   0.03     0.00   0.06  -0.04    -0.06  -0.19  -0.07
  41   1     0.02  -0.03  -0.00    -0.01   0.05  -0.00    -0.03  -0.10  -0.01
  42   1     0.03   0.00   0.01    -0.01   0.01  -0.04     0.03  -0.02  -0.01
  43   7    -0.08  -0.04   0.05     0.09  -0.23  -0.03     0.05   0.10  -0.11
  44   1    -0.02  -0.01   0.02     0.02  -0.07  -0.02     0.02   0.05  -0.03
  45   1    -0.03  -0.00   0.01     0.04  -0.06  -0.01     0.00   0.04  -0.04
  46   6     0.05   0.01  -0.01    -0.05  -0.01  -0.00     0.03   0.05  -0.01
  47   8     0.09  -0.03  -0.03    -0.09   0.04  -0.04     0.01   0.08  -0.05
  48   7     0.00   0.01  -0.00    -0.02  -0.02   0.02     0.05   0.03   0.03
  49   1    -0.00  -0.01  -0.00    -0.01   0.00  -0.00     0.01   0.02  -0.00
  50   1    -0.01   0.01   0.00     0.00  -0.01   0.01     0.02   0.01   0.01
  51   7     0.06   0.07  -0.01    -0.03  -0.05   0.03     0.05   0.04   0.02
  52   1     0.01   0.03   0.00    -0.00  -0.02   0.01     0.02   0.01   0.01
  53   1     0.03   0.02  -0.00    -0.02  -0.01   0.00     0.01   0.02  -0.00
                     13                     14                     15
                        a                      a                      a 
 Frequencies --    79.0177                82.7997                83.6420
 Red. masses --    13.0145                12.2908                13.3810
 Frc consts  --     0.0000                 0.0000                 0.0000
 IR Inten    --     5.5881                 3.3439                13.4264
 Raman Activ --     0.0000                 0.0000                 0.0000
 Depolar     --     0.0000                 0.0000                 0.0000
 Atom AN      X      Y      Z        X      Y      Z        X      Y      Z
   1   8    -0.23   0.10   0.21    -0.10  -0.25   0.08     0.11  -0.10  -0.06
   2   6    -0.11   0.04   0.09    -0.05  -0.17   0.09     0.05  -0.07  -0.02
   3   1    -0.05   0.02  -0.01    -0.02  -0.05   0.03     0.01  -0.03   0.00
   4   1    -0.02   0.01   0.04    -0.01  -0.05   0.05     0.01  -0.01  -0.00
   5   6     0.04  -0.04   0.05     0.00  -0.10   0.03     0.06  -0.05  -0.03
   6   1     0.03  -0.01   0.04     0.00  -0.04   0.02     0.02  -0.00  -0.01
   7   1     0.02  -0.02  -0.00     0.03  -0.02   0.01     0.01  -0.01  -0.00
   8   7     0.06  -0.08  -0.01    -0.07  -0.02  -0.07     0.09  -0.08  -0.05
   9   6     0.07  -0.07  -0.03    -0.21   0.01   0.13     0.10  -0.07  -0.03
  10   1     0.02  -0.02  -0.01    -0.04  -0.03   0.08     0.04  -0.02  -0.00
  11   1     0.02  -0.02  -0.01    -0.07   0.02   0.03     0.03  -0.02  -0.01
  12   1     0.02  -0.02  -0.01    -0.09   0.03   0.05     0.02  -0.01  -0.01
  13   6     0.09  -0.05  -0.03     0.11  -0.12  -0.14     0.11  -0.10  -0.06
  14   1     0.03  -0.01  -0.01     0.06  -0.05  -0.00     0.04  -0.02  -0.01
  15   1     0.03  -0.01  -0.01     0.05  -0.04  -0.08     0.03  -0.03  -0.02
  16   1     0.03  -0.02  -0.02     0.03  -0.03  -0.05     0.03  -0.03  -0.02
  17   6     0.02  -0.11  -0.02    -0.18   0.13  -0.28     0.06  -0.09  -0.07
  18   1     0.01  -0.03   0.00    -0.03   0.03  -0.13     0.02  -0.03  -0.02
  19   1    -0.00  -0.04  -0.00    -0.09   0.07  -0.07     0.01  -0.03  -0.02
  20   1     0.01  -0.03  -0.02    -0.06   0.04  -0.09     0.02  -0.02  -0.02
  21   1    -0.04   0.03   0.08    -0.02  -0.05   0.02     0.02  -0.02  -0.03
  22   6     0.01  -0.04  -0.06    -0.03  -0.01   0.01    -0.13   0.01   0.01
  23   8    -0.00  -0.23  -0.18     0.00  -0.03   0.02    -0.06   0.14   0.12
  24   7    -0.01   0.04   0.05    -0.03  -0.02  -0.02    -0.11  -0.12  -0.19
  25   1    -0.01  -0.01   0.01    -0.00  -0.01  -0.01    -0.01  -0.02  -0.06
  26   1     0.00   0.05   0.03    -0.01   0.00  -0.00    -0.05  -0.05  -0.07
  27   7     0.03   0.11  -0.04    -0.06   0.01   0.04    -0.24   0.01   0.10
  28   1     0.01   0.05   0.00    -0.02  -0.00   0.01    -0.07  -0.04  -0.00
  29   1     0.01  -0.01  -0.04    -0.01  -0.00   0.01    -0.06  -0.00   0.04
  30   6    -0.08   0.02  -0.04     0.01   0.02   0.01    -0.02   0.04   0.01
  31   8    -0.18   0.19   0.13     0.02   0.06  -0.01     0.06   0.07  -0.18
  32   7     0.17  -0.03  -0.04    -0.00   0.04   0.01    -0.22   0.03   0.03
  33   1     0.08   0.01   0.03    -0.00   0.01   0.00    -0.08   0.02  -0.03
  34   1     0.07  -0.05  -0.05    -0.01  -0.01   0.01    -0.08   0.01   0.04
  35   7    -0.22  -0.11  -0.20     0.00  -0.02   0.04     0.04  -0.01   0.18
  36   1    -0.04  -0.06  -0.08    -0.00  -0.01   0.01    -0.00   0.00   0.07
  37   1    -0.09  -0.02  -0.05     0.00  -0.00   0.01     0.04   0.01   0.04
  38   6     0.11   0.01  -0.04    -0.02   0.05  -0.07     0.13   0.09   0.01
  39   8     0.10  -0.00  -0.24    -0.03   0.06  -0.11     0.32   0.40  -0.07
  40   7     0.27  -0.16   0.07    -0.03  -0.03  -0.05     0.08   0.00   0.03
  41   1     0.09  -0.09  -0.00    -0.01  -0.02  -0.01     0.04   0.05  -0.01
  42   1     0.09  -0.04   0.07    -0.01  -0.01   0.00    -0.03  -0.03   0.01
  43   7     0.04   0.18   0.08    -0.01   0.14  -0.07    -0.03  -0.15   0.07
  44   1     0.01   0.03   0.04    -0.00   0.03  -0.01    -0.01  -0.07   0.03
  45   1    -0.01   0.07   0.00    -0.00   0.04  -0.02     0.02  -0.02   0.01
  46   6    -0.06   0.07   0.05     0.17   0.04   0.10    -0.09   0.04   0.05
  47   8    -0.17   0.21   0.11     0.36  -0.13   0.39    -0.21   0.17   0.12
  48   7     0.11   0.09   0.03     0.11   0.17  -0.06     0.07   0.06   0.02
  49   1     0.04   0.06   0.01     0.05   0.02   0.02     0.03   0.05   0.01
  50   1     0.05   0.00  -0.01    -0.01   0.07  -0.07     0.04  -0.01  -0.01
  51   7    -0.10  -0.09   0.04     0.06   0.15  -0.07    -0.14  -0.14   0.04
  52   1    -0.01  -0.05  -0.00     0.00   0.06  -0.05    -0.02  -0.06  -0.01
  53   1    -0.06  -0.03   0.01     0.05   0.00   0.04    -0.08  -0.04   0.01
                     16                     17                     18
                        a                      a                      a 
 Frequencies --    85.8559                90.7224               100.8270
 Red. masses --    11.9512                13.0280                12.4022
 Frc consts  --     0.0000                 0.0000                 0.0000
 IR Inten    --     3.8882                11.5549                 6.5302
 Raman Activ --     0.0000                 0.0000                 0.0000
 Depolar     --     0.0000                 0.0000                 0.0000
 Atom AN      X      Y      Z        X      Y      Z        X      Y      Z
   1   8     0.13   0.14   0.10    -0.05   0.01  -0.02    -0.10  -0.01  -0.08
   2   6     0.09   0.01  -0.01    -0.02   0.04  -0.00    -0.13  -0.06  -0.11
   3   1     0.02   0.01  -0.02    -0.00   0.01   0.01    -0.04  -0.02  -0.04
   4   1     0.02   0.00  -0.02    -0.00   0.01   0.00    -0.04  -0.02  -0.05
   5   6     0.13  -0.13   0.04    -0.05   0.09  -0.01    -0.13  -0.15  -0.06
   6   1     0.04  -0.06   0.04    -0.02   0.03  -0.02    -0.04  -0.04  -0.02
   7   1     0.05  -0.06  -0.02    -0.02   0.03   0.01    -0.06  -0.06  -0.03
   8   7     0.11  -0.09   0.09    -0.03   0.07  -0.02    -0.08  -0.22   0.03
   9   6     0.03  -0.00   0.32     0.01   0.04  -0.11     0.01  -0.18   0.02
  10   1     0.02  -0.04   0.13     0.01   0.03  -0.04     0.00  -0.04  -0.00
  11   1     0.00   0.01   0.10     0.01   0.00  -0.04     0.01  -0.06   0.02
  12   1    -0.01   0.04   0.10     0.00  -0.00  -0.03     0.01  -0.04  -0.00
  13   6     0.19  -0.26   0.07    -0.07   0.13  -0.01    -0.14  -0.23   0.06
  14   1     0.07  -0.10   0.05    -0.02   0.05  -0.01    -0.05  -0.06   0.01
  15   1     0.06  -0.09  -0.02    -0.03   0.04   0.01    -0.05  -0.07   0.02
  16   1     0.05  -0.07   0.03    -0.02   0.03  -0.01    -0.03  -0.07   0.03
  17   6     0.03   0.08  -0.09    -0.00  -0.01   0.06    -0.03  -0.21   0.09
  18   1     0.03   0.01  -0.07    -0.02  -0.00   0.03    -0.01  -0.06   0.04
  19   1    -0.02   0.06  -0.02     0.01  -0.01   0.01     0.01  -0.07   0.02
  20   1    -0.00   0.04  -0.03     0.01  -0.01   0.02    -0.01  -0.06   0.03
  21   1     0.02   0.02   0.03    -0.02  -0.01  -0.01    -0.02   0.00  -0.02
  22   6    -0.04  -0.03   0.05     0.08  -0.09   0.04     0.00  -0.04  -0.01
  23   8     0.01  -0.05   0.07     0.43  -0.34   0.04     0.06  -0.12  -0.03
  24   7    -0.06  -0.02   0.00    -0.02   0.15  -0.16    -0.03   0.06  -0.01
  25   1    -0.01  -0.00  -0.01     0.05   0.04  -0.10    -0.00   0.02  -0.01
  26   1    -0.03   0.00  -0.00    -0.07   0.09  -0.05    -0.02   0.02  -0.00
  27   7    -0.09  -0.01   0.09    -0.18  -0.03   0.26    -0.02  -0.08  -0.00
  28   1    -0.03  -0.01   0.02    -0.10   0.02   0.07    -0.02   0.01   0.01
  29   1    -0.02  -0.01   0.02    -0.03  -0.07   0.09    -0.01  -0.02   0.01
  30   6     0.02   0.01   0.07    -0.05  -0.04   0.01    -0.03   0.02  -0.02
  31   8     0.01  -0.05   0.10    -0.08  -0.19   0.07    -0.02   0.06  -0.04
  32   7     0.01   0.04   0.07    -0.07   0.00  -0.01    -0.04  -0.02  -0.00
  33   1     0.00   0.02   0.02    -0.02  -0.01  -0.00    -0.01   0.02  -0.01
  34   1     0.01   0.04   0.01    -0.01   0.05  -0.02    -0.01   0.01  -0.00
  35   7     0.03   0.07   0.07    -0.01   0.10  -0.03    -0.03  -0.00  -0.01
  36   1     0.01   0.02   0.02    -0.01   0.03  -0.00    -0.01  -0.02   0.01
  37   1     0.01  -0.00   0.03     0.00  -0.02   0.01    -0.01  -0.01   0.00
  38   6    -0.10   0.07  -0.16     0.08   0.04  -0.04    -0.00   0.08   0.10
  39   8    -0.15   0.01  -0.18     0.15   0.10   0.09    -0.01   0.06   0.24
  40   7    -0.16  -0.04  -0.16    -0.19  -0.15  -0.07    -0.10   0.18   0.04
  41   1    -0.06  -0.04  -0.03    -0.09  -0.04   0.02    -0.04   0.07   0.03
  42   1    -0.04  -0.01  -0.03    -0.08  -0.06  -0.02    -0.04   0.04  -0.02
  43   7    -0.00   0.28  -0.21     0.29   0.18  -0.18     0.07   0.03   0.02
  44   1     0.00   0.07  -0.05     0.06   0.01  -0.07     0.01   0.01  -0.01
  45   1    -0.00   0.07  -0.06     0.09   0.04  -0.04     0.03  -0.00   0.01
  46   6    -0.06  -0.00  -0.10    -0.03  -0.03   0.03     0.17   0.20  -0.07
  47   8    -0.16   0.10  -0.33    -0.01  -0.06   0.10     0.11   0.32  -0.19
  48   7    -0.04  -0.10   0.04    -0.03  -0.00  -0.01     0.26   0.16   0.01
  49   1    -0.03  -0.02  -0.02     0.00  -0.01   0.01     0.05   0.07  -0.04
  50   1     0.01  -0.04   0.05    -0.01  -0.00  -0.01     0.07   0.04  -0.01
  51   7     0.05  -0.03   0.04    -0.07  -0.04  -0.01     0.24   0.19  -0.00
  52   1     0.02  -0.02   0.04    -0.02  -0.01  -0.02     0.09   0.02   0.05
  53   1    -0.00   0.02  -0.03    -0.02  -0.02   0.01     0.06   0.05  -0.00
                     19                     20                     21
                        a                      a                      a 
 Frequencies --   112.4368               120.6590               123.4911
 Red. masses --    11.3189                11.4479                12.7641
 Frc consts  --     0.0000                 0.0000                 0.0000
 IR Inten    --     5.2932                23.3694                16.7536
 Raman Activ --     0.0000                 0.0000                 0.0000
 Depolar     --     0.0000                 0.0000                 0.0000
 Atom AN      X      Y      Z        X      Y      Z        X      Y      Z
   1   8     0.11   0.08  -0.08    -0.01  -0.08  -0.07     0.06   0.02  -0.00
   2   6    -0.25   0.11   0.14     0.10  -0.07  -0.11    -0.03   0.03   0.05
   3   1    -0.10  -0.05   0.10     0.07   0.03  -0.04    -0.01  -0.01   0.03
   4   1    -0.13   0.11   0.04     0.05  -0.07  -0.06    -0.02   0.03   0.01
   5   6    -0.26   0.20   0.10    -0.09  -0.08  -0.01    -0.03   0.05   0.04
   6   1    -0.06   0.11  -0.01    -0.06  -0.05  -0.02    -0.01   0.02   0.01
   7   1    -0.12   0.07   0.07    -0.02  -0.02  -0.01    -0.01   0.02   0.02
   8   7    -0.12   0.00   0.03    -0.17   0.05   0.18    -0.02   0.04   0.01
   9   6     0.10   0.07   0.01    -0.23   0.04   0.20    -0.01   0.03  -0.01
  10   1     0.05   0.05  -0.00    -0.08  -0.01   0.06    -0.01   0.01  -0.01
  11   1     0.06  -0.02   0.00    -0.08   0.03   0.07    -0.00   0.01   0.00
  12   1     0.03   0.04   0.00    -0.06   0.01   0.05     0.00   0.01  -0.01
  13   6    -0.02  -0.07  -0.01    -0.28   0.03   0.23    -0.01   0.05   0.00
  14   1     0.02   0.00   0.01    -0.10  -0.00   0.05    -0.00   0.01   0.00
  15   1    -0.03  -0.03  -0.01    -0.08   0.01   0.07     0.00   0.01   0.00
  16   1     0.02  -0.05  -0.01    -0.08   0.01   0.09    -0.00   0.01  -0.00
  17   6    -0.25  -0.18   0.00    -0.02   0.20   0.22    -0.04   0.01   0.01
  18   1    -0.11  -0.06   0.01     0.01   0.06   0.06    -0.01   0.00   0.01
  19   1    -0.09  -0.05   0.01     0.02   0.06   0.05    -0.02  -0.00   0.01
  20   1    -0.04  -0.09  -0.02    -0.02   0.08   0.10    -0.01  -0.00  -0.00
  21   1     0.03   0.05  -0.06    -0.01  -0.03  -0.00     0.02   0.01  -0.01
  22   6     0.00   0.04   0.03     0.02   0.01   0.00    -0.15  -0.13  -0.05
  23   8    -0.02   0.14   0.08     0.07   0.04   0.04    -0.05  -0.25  -0.06
  24   7     0.03  -0.06  -0.02     0.02  -0.01  -0.08    -0.22   0.03  -0.05
  25   1     0.01  -0.01  -0.00     0.01   0.01  -0.03    -0.05   0.01  -0.03
  26   1     0.01  -0.03  -0.01    -0.01  -0.00  -0.03    -0.08   0.02  -0.02
  27   7    -0.01   0.05   0.04    -0.04   0.03   0.06    -0.20  -0.18  -0.03
  28   1     0.01  -0.02  -0.01    -0.02  -0.02  -0.00    -0.06  -0.02   0.01
  29   1    -0.00   0.01   0.01    -0.00  -0.03   0.02    -0.05  -0.06  -0.01
  30   6     0.11  -0.08   0.05    -0.03  -0.01  -0.04     0.02   0.05   0.09
  31   8     0.10  -0.29   0.12    -0.03   0.00  -0.05     0.07   0.05   0.01
  32   7     0.11   0.02   0.02    -0.03  -0.01  -0.05    -0.08   0.05   0.11
  33   1     0.02  -0.05   0.02    -0.01   0.00  -0.01    -0.03   0.03   0.01
  34   1     0.03   0.02   0.00    -0.01  -0.00  -0.01    -0.03   0.03   0.04
  35   7     0.16   0.05   0.03    -0.04  -0.04  -0.04     0.07   0.06   0.17
  36   1     0.05   0.06  -0.01    -0.01  -0.00  -0.01     0.01  -0.00   0.07
  37   1     0.04   0.01   0.01    -0.00   0.00  -0.01     0.02  -0.00   0.05
  38   6     0.00  -0.10  -0.14     0.13   0.00  -0.07     0.13   0.01  -0.05
  39   8     0.03  -0.05  -0.25     0.20   0.12  -0.32    -0.06  -0.34  -0.05
  40   7     0.06  -0.19  -0.10     0.30  -0.18   0.03     0.45   0.41  -0.14
  41   1     0.03  -0.06  -0.04     0.11  -0.06  -0.03     0.14   0.13  -0.06
  42   1     0.02  -0.05  -0.01     0.06  -0.06   0.06     0.10   0.09  -0.05
  43   7    -0.07  -0.12  -0.08    -0.02  -0.01   0.06     0.13   0.02  -0.05
  44   1    -0.02  -0.03  -0.01    -0.01  -0.02   0.05     0.06   0.08  -0.01
  45   1    -0.02  -0.03  -0.02    -0.02   0.02   0.00    -0.02  -0.05   0.01
  46   6     0.03   0.09   0.01     0.05  -0.01  -0.06    -0.00  -0.01   0.00
  47   8    -0.00   0.16   0.00     0.07  -0.03  -0.16     0.00  -0.02   0.01
  48   7     0.11   0.09   0.02    -0.01  -0.05   0.00    -0.02  -0.01   0.00
  49   1     0.03   0.05  -0.01    -0.02  -0.02  -0.03    -0.01  -0.00   0.00
  50   1     0.03   0.02  -0.02    -0.02   0.01  -0.00    -0.01   0.00  -0.00
  51   7     0.03   0.05   0.01     0.10   0.07  -0.03    -0.01   0.00  -0.00
  52   1     0.03  -0.01   0.02     0.03   0.02   0.03    -0.00   0.00   0.00
  53   1     0.00   0.00   0.01     0.05   0.02  -0.01     0.00  -0.00   0.00
                     22                     23                     24
                        a                      a                      a 
 Frequencies --   143.2076               167.8230               170.2367
 Red. masses --    12.9880                 3.7366                12.3983
 Frc consts  --     0.0000                 0.0000                 0.0000
 IR Inten    --    20.0535                10.7037                17.1965
 Raman Activ --     0.0000                 0.0000                 0.0000
 Depolar     --     0.0000                 0.0000                 0.0000
 Atom AN      X      Y      Z        X      Y      Z        X      Y      Z
   1   8     0.05  -0.05  -0.05    -0.01  -0.05  -0.03    -0.24   0.16   0.15
   2   6     0.02  -0.02  -0.01    -0.01  -0.02  -0.00    -0.08   0.06  -0.01
   3   1     0.01  -0.01   0.01     0.00  -0.00   0.00    -0.03   0.04  -0.05
   4   1     0.01  -0.01  -0.01    -0.00  -0.01  -0.00    -0.01  -0.00  -0.00
   5   6    -0.03   0.01  -0.00    -0.03   0.01  -0.00     0.04  -0.10   0.00
   6   1    -0.02   0.01  -0.01    -0.01   0.01  -0.01     0.02  -0.06   0.05
   7   1    -0.01   0.01   0.01    -0.02   0.01   0.01     0.04  -0.05  -0.04
   8   7    -0.03   0.01   0.02    -0.02  -0.00   0.01    -0.03  -0.01   0.02
   9   6    -0.01   0.02   0.02     0.02   0.01   0.02    -0.12  -0.05  -0.01
  10   1     0.00   0.01   0.01     0.01   0.01   0.01    -0.05  -0.03  -0.01
  11   1    -0.00   0.00   0.00     0.01  -0.00   0.01    -0.05   0.00   0.00
  12   1    -0.01   0.00   0.01     0.01   0.01   0.01    -0.02  -0.03  -0.01
  13   6    -0.03   0.00   0.03    -0.01  -0.03   0.01    -0.06   0.06   0.02
  14   1    -0.01   0.00   0.01     0.00  -0.00   0.00    -0.02   0.02  -0.00
  15   1    -0.01  -0.00   0.01    -0.01  -0.01   0.00    -0.01   0.02   0.02
  16   1    -0.01  -0.00   0.01     0.00  -0.01  -0.00    -0.02   0.02   0.00
  17   6    -0.02   0.01   0.03    -0.01  -0.01   0.01     0.04   0.04   0.05
  18   1    -0.01   0.00   0.01    -0.01  -0.00  -0.00     0.03   0.02   0.03
  19   1    -0.00   0.01   0.01    -0.00   0.01   0.00     0.02  -0.01   0.01
  20   1    -0.00   0.00   0.01    -0.00  -0.01   0.01    -0.00   0.03   0.01
  21   1     0.01  -0.01  -0.02    -0.00  -0.01  -0.01    -0.04   0.05   0.08
  22   6     0.00  -0.04  -0.19    -0.01  -0.00  -0.00    -0.05   0.01   0.04
  23   8    -0.13  -0.33  -0.44    -0.01   0.00  -0.00    -0.08   0.08   0.07
  24   7     0.02   0.02   0.10    -0.00  -0.00   0.01    -0.03  -0.06   0.03
  25   1    -0.02  -0.07   0.02    -0.00  -0.00   0.00    -0.02  -0.00   0.02
  26   1     0.04   0.05   0.06     0.00   0.00   0.00    -0.00  -0.01   0.01
  27   7     0.15   0.23  -0.27    -0.00   0.00  -0.00    -0.03  -0.00   0.02
  28   1     0.06   0.15  -0.01     0.00  -0.00  -0.00     0.00  -0.01   0.00
  29   1     0.04   0.06  -0.11    -0.00  -0.00  -0.00    -0.01   0.01   0.00
  30   6    -0.01   0.07   0.18    -0.00  -0.01  -0.01     0.06   0.10   0.08
  31   8     0.09  -0.00   0.05    -0.01  -0.02  -0.00     0.06   0.29   0.11
  32   7    -0.21   0.11   0.20    -0.01   0.00  -0.01     0.22  -0.01   0.13
  33   1    -0.08   0.05   0.01    -0.00  -0.00  -0.00     0.08   0.01   0.07
  34   1    -0.07   0.08   0.08    -0.00  -0.00  -0.00     0.06  -0.07   0.02
  35   7     0.09   0.12   0.31    -0.00  -0.00  -0.01     0.00   0.01   0.04
  36   1     0.01   0.01   0.11    -0.00   0.00  -0.00     0.00  -0.03   0.01
  37   1     0.02  -0.00   0.10    -0.00  -0.00  -0.00    -0.02   0.02   0.00
  38   6     0.01  -0.04  -0.01     0.01   0.01   0.00     0.08  -0.13  -0.17
  39   8     0.11   0.11  -0.01    -0.00  -0.00  -0.01     0.23   0.01   0.03
  40   7    -0.12  -0.21   0.03     0.02  -0.01   0.01    -0.16  -0.01  -0.31
  41   1    -0.04  -0.09   0.02     0.01  -0.01   0.00    -0.07   0.06  -0.05
  42   1     0.00  -0.03   0.02     0.01  -0.00   0.01    -0.07  -0.02  -0.15
  43   7     0.02  -0.06  -0.02     0.01   0.03   0.01     0.13  -0.40  -0.28
  44   1    -0.00  -0.03  -0.02     0.00   0.01   0.00     0.04  -0.10  -0.09
  45   1     0.02   0.00  -0.02     0.00   0.01   0.00     0.05  -0.11  -0.07
  46   6     0.00   0.00  -0.00     0.03   0.03  -0.01     0.01  -0.00  -0.00
  47   8     0.00   0.00  -0.01     0.03   0.02  -0.01     0.02  -0.01   0.00
  48   7     0.00  -0.00   0.00    -0.14   0.14  -0.23    -0.01   0.01  -0.02
  49   1    -0.00  -0.00  -0.00     0.17  -0.16   0.29     0.01  -0.01   0.02
  50   1    -0.00   0.00  -0.00     0.26  -0.19   0.36     0.01  -0.01   0.02
  51   7     0.01   0.01  -0.00     0.16  -0.15   0.24     0.01  -0.00   0.01
  52   1     0.00   0.00   0.00    -0.19   0.28  -0.38    -0.01   0.02  -0.02
  53   1     0.00   0.00  -0.00    -0.16   0.19  -0.30    -0.01   0.01  -0.02
                     25                     26                     27
                        a                      a                      a 
 Frequencies --   180.9540               191.8094               231.1564
 Red. masses --    12.5695                10.8833                 2.2907
 Frc consts  --     0.0000                 0.0000                 0.0000
 IR Inten    --    19.5010                 3.1867               106.6195
 Raman Activ --     0.0000                 0.0000                 0.0000
 Depolar     --     0.0000                 0.0000                 0.0000
 Atom AN      X      Y      Z        X      Y      Z        X      Y      Z
   1   8    -0.02  -0.14  -0.09     0.37   0.39   0.13    -0.01  -0.04   0.02
   2   6     0.05  -0.03  -0.02    -0.11   0.06   0.04     0.04  -0.03   0.00
   3   1     0.03   0.00   0.01    -0.09  -0.05   0.01     0.03   0.01   0.00
   4   1     0.03  -0.03  -0.00    -0.11   0.10  -0.02     0.02  -0.02  -0.01
   5   6    -0.06   0.09  -0.03     0.09  -0.27   0.10    -0.03   0.03   0.00
   6   1    -0.03   0.04  -0.04     0.05  -0.14   0.12    -0.02   0.02  -0.02
   7   1    -0.04   0.04   0.02     0.10  -0.12  -0.06    -0.02   0.02   0.02
   8   7    -0.01   0.04   0.02    -0.09  -0.10  -0.02    -0.01   0.01  -0.00
   9   6     0.07   0.07   0.02    -0.30  -0.20  -0.12     0.03   0.02  -0.01
  10   1     0.05   0.04   0.02    -0.15  -0.10  -0.07     0.02   0.02   0.00
  11   1     0.03  -0.00  -0.02    -0.12  -0.00   0.01     0.01  -0.01  -0.02
  12   1    -0.00   0.02   0.02    -0.02  -0.09  -0.06    -0.01   0.01   0.01
  13   6    -0.01  -0.03   0.04    -0.05   0.18  -0.09     0.00  -0.00  -0.01
  14   1    -0.00  -0.02   0.02    -0.01   0.08  -0.04     0.00  -0.01   0.00
  15   1    -0.00  -0.01  -0.00    -0.00   0.08   0.03     0.00  -0.00  -0.01
  16   1    -0.00  -0.01   0.02    -0.02   0.05  -0.07    -0.00   0.00  -0.00
  17   6    -0.01   0.01   0.03    -0.05  -0.05  -0.01    -0.03  -0.02  -0.01
  18   1    -0.03  -0.01   0.00     0.05   0.02   0.04    -0.03  -0.01  -0.01
  19   1     0.01   0.02   0.00    -0.04  -0.09   0.01    -0.01   0.02  -0.01
  20   1     0.01  -0.01   0.03    -0.05   0.03  -0.06     0.00  -0.02   0.01
  21   1    -0.01  -0.04  -0.03     0.06   0.08  -0.01    -0.02  -0.04   0.01
  22   6    -0.18   0.03   0.03    -0.04   0.01   0.00    -0.00   0.03   0.01
  23   8    -0.39   0.17   0.06    -0.09   0.05   0.00    -0.01   0.07   0.03
  24   7    -0.11  -0.20   0.22    -0.02  -0.05   0.05     0.01  -0.01  -0.02
  25   1    -0.08  -0.04   0.12    -0.02  -0.01   0.03    -0.00   0.02   0.00
  26   1     0.03  -0.04   0.09     0.01  -0.01   0.02     0.00  -0.01  -0.01
  27   7    -0.04   0.06  -0.06    -0.00   0.02  -0.02     0.00  -0.01  -0.00
  28   1     0.05  -0.07  -0.05     0.01  -0.01  -0.01     0.00  -0.01  -0.01
  29   1    -0.01   0.00  -0.06    -0.00   0.00  -0.02     0.00   0.00   0.00
  30   6    -0.03  -0.04  -0.06     0.02  -0.06  -0.05     0.01   0.04  -0.00
  31   8    -0.05  -0.07  -0.04     0.03  -0.16  -0.07    -0.02   0.02   0.05
  32   7    -0.01  -0.00  -0.08    -0.08  -0.04  -0.06    -0.01  -0.26   0.08
  33   1    -0.01  -0.03  -0.01    -0.03   0.03  -0.05     0.10   0.45  -0.15
  34   1    -0.01  -0.03  -0.01    -0.01   0.09  -0.03     0.17   0.67  -0.26
  35   7    -0.04  -0.03  -0.09     0.07  -0.01  -0.00    -0.02  -0.03  -0.01
  36   1    -0.01   0.00  -0.03     0.01  -0.00   0.02    -0.05  -0.27   0.09
  37   1    -0.02  -0.00  -0.03     0.03  -0.02   0.01    -0.04  -0.13   0.05
  38   6     0.20   0.03   0.02     0.05   0.05   0.03     0.00  -0.01  -0.01
  39   8     0.18  -0.09   0.19     0.05   0.04   0.02     0.01  -0.01  -0.01
  40   7    -0.01  -0.10  -0.03     0.03  -0.06   0.06    -0.00  -0.00  -0.02
  41   1    -0.05  -0.08   0.05     0.00  -0.04   0.02    -0.00   0.00  -0.00
  42   1    -0.00  -0.03   0.00     0.01  -0.01   0.04    -0.00  -0.00  -0.01
  43   7     0.46   0.28  -0.14     0.10   0.14   0.01     0.00  -0.02  -0.01
  44   1     0.12   0.10  -0.07     0.02   0.04  -0.00     0.00  -0.00  -0.01
  45   1     0.12   0.07  -0.04     0.03   0.04   0.00     0.00  -0.01   0.00
  46   6    -0.00   0.00  -0.00     0.02  -0.00   0.01     0.00  -0.00   0.00
  47   8    -0.01   0.00  -0.01     0.03  -0.02   0.03    -0.00   0.00   0.00
  48   7     0.01  -0.01   0.01    -0.00   0.02  -0.02    -0.00   0.00  -0.00
  49   1    -0.01   0.01  -0.01     0.01  -0.01   0.02     0.00  -0.00   0.00
  50   1    -0.01   0.01  -0.02     0.01  -0.00   0.01     0.00  -0.00   0.01
  51   7    -0.01   0.01  -0.01     0.02   0.01   0.01    -0.00   0.00  -0.00
  52   1     0.01  -0.02   0.02    -0.01   0.02  -0.02     0.00  -0.00   0.01
  53   1     0.01  -0.01   0.02    -0.00   0.01  -0.01     0.00  -0.00   0.00
                     28                     29                     30
                        a                      a                      a 
 Frequencies --   257.9428               279.3694               291.0587
 Red. masses --    12.4750                 5.2667                 2.7079
 Frc consts  --     0.0000                 0.0000                 0.0000
 IR Inten    --    19.8027                 8.2365                 5.6535
 Raman Activ --     0.0000                 0.0000                 0.0000
 Depolar     --     0.0000                 0.0000                 0.0000
 Atom AN      X      Y      Z        X      Y      Z        X      Y      Z
   1   8    -0.57   0.05   0.07     0.11  -0.20  -0.22    -0.02   0.01   0.01
   2   6    -0.26   0.15   0.03    -0.26  -0.05   0.10     0.01   0.01  -0.01
   3   1    -0.11   0.03  -0.03    -0.16  -0.15   0.08     0.01   0.01  -0.01
   4   1    -0.05   0.05   0.08    -0.15   0.12   0.10     0.01  -0.01  -0.01
   5   6     0.07   0.02  -0.03     0.05   0.01  -0.06     0.00  -0.00   0.00
   6   1     0.06  -0.01   0.06     0.05   0.00   0.03     0.00   0.00   0.00
   7   1     0.04  -0.03  -0.07     0.03  -0.01  -0.04    -0.00  -0.00   0.00
   8   7     0.10   0.02   0.03     0.07   0.02  -0.05     0.00  -0.01   0.00
   9   6    -0.00  -0.01   0.06     0.10   0.06   0.03    -0.01  -0.01   0.00
  10   1     0.02  -0.01   0.04    -0.14  -0.08  -0.09     0.01   0.00   0.01
  11   1    -0.01   0.01  -0.02     0.01   0.09   0.22    -0.00  -0.01  -0.02
  12   1    -0.04  -0.02   0.04     0.22   0.06  -0.10    -0.02  -0.01   0.01
  13   6     0.06  -0.03   0.06    -0.07  -0.11   0.05     0.01   0.01  -0.00
  14   1     0.01  -0.02   0.02    -0.01   0.08  -0.04     0.00  -0.01   0.00
  15   1     0.02  -0.01   0.01    -0.17  -0.07   0.07     0.01   0.01  -0.00
  16   1     0.01  -0.00   0.03     0.08  -0.14   0.04    -0.01   0.01  -0.00
  17   6     0.18   0.11   0.06     0.18   0.20  -0.02    -0.01  -0.02   0.00
  18   1     0.11   0.06   0.05     0.30   0.18   0.14    -0.02  -0.02  -0.01
  19   1     0.04  -0.03   0.03    -0.03  -0.22   0.05     0.00   0.02  -0.00
  20   1     0.01   0.08  -0.01    -0.09   0.24  -0.19     0.01  -0.02   0.02
  21   1    -0.14   0.01   0.04     0.06   0.03  -0.09    -0.01   0.00   0.01
  22   6    -0.01   0.00  -0.00     0.01  -0.00  -0.00     0.05  -0.03  -0.06
  23   8    -0.02   0.01  -0.01     0.01  -0.00  -0.00     0.03  -0.03  -0.05
  24   7    -0.01  -0.01   0.01     0.01  -0.01  -0.00     0.04  -0.18  -0.06
  25   1    -0.00  -0.01   0.00    -0.00   0.02   0.01    -0.01   0.27   0.13
  26   1     0.00  -0.01  -0.00    -0.00   0.03   0.01    -0.05   0.47   0.16
  27   7     0.00   0.00  -0.02    -0.00   0.02   0.01    -0.04   0.24   0.12
  28   1     0.00   0.01   0.00     0.01  -0.04  -0.02     0.15  -0.53  -0.31
  29   1    -0.00   0.01  -0.00     0.01  -0.02  -0.01     0.06  -0.26  -0.14
  30   6     0.13  -0.11  -0.13    -0.05   0.03   0.06     0.01  -0.00   0.01
  31   8     0.19  -0.21  -0.22    -0.07   0.03   0.09     0.02  -0.00  -0.00
  32   7    -0.12  -0.05  -0.14     0.03   0.01   0.05    -0.02   0.02   0.00
  33   1    -0.06   0.00  -0.09     0.02   0.03   0.02    -0.01  -0.00  -0.00
  34   1    -0.04   0.09  -0.02     0.03   0.04  -0.02    -0.01  -0.00   0.01
  35   7     0.32  -0.02   0.10    -0.12   0.01  -0.04     0.02   0.01   0.02
  36   1     0.05   0.01   0.09    -0.02  -0.03  -0.02    -0.00  -0.03   0.02
  37   1     0.14  -0.03   0.04    -0.06  -0.00  -0.01     0.01  -0.00   0.00
  38   6    -0.01   0.02   0.02     0.00  -0.00   0.00    -0.03   0.03   0.02
  39   8    -0.03   0.00  -0.02     0.01   0.00   0.01    -0.04  -0.00   0.01
  40   7     0.04  -0.01   0.05    -0.01  -0.00  -0.01     0.01   0.02  -0.00
  41   1     0.01  -0.02   0.01    -0.01   0.01   0.00     0.01   0.08  -0.01
  42   1     0.02   0.00   0.03    -0.02  -0.01  -0.00    -0.13  -0.09   0.03
  43   7    -0.01   0.06   0.03     0.01  -0.01  -0.01    -0.05  -0.04   0.01
  44   1    -0.01   0.01   0.00     0.01   0.01  -0.00     0.00   0.04  -0.01
  45   1     0.02   0.03   0.00    -0.01  -0.01   0.00    -0.02  -0.02   0.01
  46   6    -0.00  -0.01  -0.00     0.01  -0.01  -0.00    -0.00   0.00  -0.00
  47   8    -0.00  -0.01  -0.00     0.00  -0.01  -0.00    -0.00   0.00  -0.00
  48   7    -0.01  -0.01   0.00    -0.02  -0.01  -0.01     0.00   0.00   0.00
  49   1    -0.01  -0.01  -0.00    -0.00  -0.01   0.01    -0.00   0.00  -0.00
  50   1    -0.01  -0.00   0.00     0.00  -0.01   0.02    -0.00   0.00  -0.00
  51   7    -0.00  -0.01  -0.00    -0.01   0.00  -0.02     0.00  -0.00   0.00
  52   1    -0.00  -0.00  -0.00     0.01  -0.01   0.02    -0.00   0.00  -0.00
  53   1    -0.00  -0.00  -0.00     0.01  -0.01   0.01    -0.00   0.00  -0.00
                     31                     32                     33
                        a                      a                      a 
 Frequencies --   313.4907               323.0392               328.9434
 Red. masses --     9.5943                 3.5272                 4.2377
 Frc consts  --     0.0000                 0.0000                 0.0000
 IR Inten    --     2.8137               505.7705                 9.9750
 Raman Activ --     0.0000                 0.0000                 0.0000
 Depolar     --     0.0000                 0.0000                 0.0000
 Atom AN      X      Y      Z        X      Y      Z        X      Y      Z
   1   8     0.03   0.11   0.47    -0.01  -0.00   0.03    -0.17   0.04   0.05
   2   6     0.07  -0.13   0.11     0.01  -0.01   0.00     0.23   0.03  -0.15
   3   1     0.04   0.01  -0.01     0.01   0.00  -0.00     0.14   0.12  -0.08
   4   1     0.04  -0.08   0.01     0.01  -0.01  -0.00     0.14  -0.12  -0.09
   5   6     0.01  -0.06   0.02     0.00  -0.00  -0.00    -0.05   0.01   0.01
   6   1    -0.01  -0.02  -0.01    -0.00  -0.00   0.00    -0.05  -0.01  -0.03
   7   1     0.04   0.02   0.03     0.01   0.00  -0.00    -0.03   0.00   0.01
   8   7    -0.08   0.02  -0.14    -0.01   0.01  -0.01    -0.04   0.02   0.09
   9   6     0.26   0.13  -0.17     0.01   0.02  -0.01    -0.02   0.03   0.11
  10   1    -0.01   0.04  -0.14    -0.04  -0.02  -0.03    -0.14  -0.07  -0.05
  11   1     0.12   0.01   0.11     0.00   0.02   0.06    -0.02   0.07   0.20
  12   1     0.21   0.09  -0.13     0.06   0.02  -0.03     0.14   0.04  -0.05
  13   6    -0.39  -0.17   0.04    -0.02  -0.00  -0.00     0.19   0.11  -0.05
  14   1    -0.15  -0.01  -0.05     0.01   0.06  -0.02     0.18   0.38  -0.09
  15   1    -0.22  -0.08   0.04    -0.07  -0.01   0.03    -0.26  -0.02   0.17
  16   1    -0.05  -0.11   0.11     0.04  -0.06  -0.00     0.28  -0.25  -0.14
  17   6    -0.05   0.14  -0.19    -0.02   0.01  -0.02    -0.22  -0.18   0.02
  18   1    -0.05   0.00  -0.13    -0.02  -0.00  -0.02     0.00  -0.00   0.09
  19   1    -0.00   0.14  -0.07    -0.00   0.02  -0.01    -0.13  -0.17   0.04
  20   1     0.00   0.02   0.02     0.00  -0.01   0.00    -0.09  -0.02  -0.14
  21   1     0.00   0.00   0.14    -0.00  -0.00   0.01    -0.04  -0.03   0.06
  22   6    -0.00  -0.00  -0.00    -0.00   0.00   0.00    -0.00  -0.00  -0.00
  23   8    -0.01  -0.00  -0.00    -0.00   0.00   0.00    -0.00  -0.00  -0.00
  24   7    -0.00  -0.00   0.00    -0.00  -0.00  -0.00    -0.00  -0.00   0.00
  25   1    -0.00  -0.00   0.00    -0.00   0.00   0.00    -0.00  -0.00   0.00
  26   1     0.00   0.00   0.00     0.00   0.00   0.00     0.00   0.00   0.00
  27   7    -0.00   0.01  -0.00    -0.00  -0.00  -0.00    -0.00   0.00  -0.00
  28   1     0.00  -0.00  -0.00    -0.00   0.00   0.00     0.00  -0.00  -0.00
  29   1     0.00  -0.00  -0.00    -0.00   0.00   0.00    -0.00  -0.00  -0.00
  30   6     0.03  -0.03  -0.05     0.00  -0.01  -0.00     0.02  -0.01  -0.04
  31   8     0.04  -0.04  -0.07     0.00  -0.01  -0.01     0.02  -0.01  -0.04
  32   7    -0.05  -0.01  -0.05    -0.00  -0.00  -0.01    -0.02  -0.01  -0.03
  33   1    -0.02  -0.01  -0.02    -0.00   0.00  -0.00    -0.01  -0.01  -0.01
  34   1    -0.02  -0.01   0.01     0.00   0.01  -0.00    -0.01  -0.01   0.00
  35   7     0.10  -0.01   0.03     0.01   0.01   0.00     0.06  -0.01   0.02
  36   1     0.02   0.02   0.03    -0.00  -0.02   0.01     0.01   0.02   0.02
  37   1     0.05  -0.00   0.01     0.00  -0.01   0.00     0.03  -0.00   0.01
  38   6     0.01   0.01   0.01     0.00  -0.00   0.00    -0.00  -0.01   0.01
  39   8     0.01   0.01   0.01     0.00  -0.00   0.01    -0.01  -0.02   0.01
  40   7     0.01  -0.01   0.01    -0.00   0.00  -0.00     0.00   0.01   0.00
  41   1     0.00  -0.00   0.00    -0.00  -0.00   0.00    -0.00  -0.00   0.00
  42   1     0.00  -0.00   0.01    -0.00   0.00  -0.00     0.00   0.00  -0.00
  43   7     0.01  -0.00   0.00     0.01  -0.00  -0.00     0.00   0.00   0.00
  44   1     0.00  -0.00  -0.00     0.00  -0.00  -0.00     0.00   0.01   0.00
  45   1     0.01   0.00  -0.00     0.00  -0.00   0.00    -0.00   0.00  -0.00
  46   6     0.00  -0.00  -0.00    -0.05   0.06  -0.08     0.00   0.00   0.02
  47   8    -0.01   0.01  -0.02     0.00  -0.01  -0.02    -0.01   0.01   0.01
  48   7    -0.02   0.01  -0.03     0.17  -0.11   0.23    -0.01   0.02  -0.02
  49   1     0.01  -0.01   0.02    -0.13   0.11  -0.22     0.02  -0.01   0.03
  50   1     0.03  -0.03   0.04    -0.31   0.25  -0.41     0.04  -0.03   0.05
  51   7    -0.00   0.02  -0.02     0.10  -0.16   0.22    -0.02   0.02  -0.02
  52   1     0.03  -0.03   0.04    -0.23   0.30  -0.39     0.03  -0.04   0.05
  53   1     0.01  -0.01   0.02    -0.11   0.13  -0.21     0.01  -0.02   0.03
                     34                     35                     36
                        a                      a                      a 
 Frequencies --   358.6659               365.2459               374.2545
 Red. masses --     5.7444                 3.7983                 3.5760
 Frc consts  --     0.0000                 0.0000                 0.0000
 IR Inten    --     4.0069               136.4531                 3.8614
 Raman Activ --     0.0000                 0.0000                 0.0000
 Depolar     --     0.0000                 0.0000                 0.0000
 Atom AN      X      Y      Z        X      Y      Z        X      Y      Z
   1   8     0.05   0.13   0.18     0.00  -0.00  -0.00    -0.05  -0.04  -0.08
   2   6     0.19   0.04   0.03     0.00   0.00   0.00    -0.00   0.13   0.08
   3   1     0.14   0.10   0.02    -0.00  -0.00  -0.00     0.03   0.05   0.05
   4   1     0.10  -0.09  -0.07     0.00   0.00   0.00     0.01   0.02   0.02
   5   6    -0.24   0.21   0.08     0.00  -0.00   0.00    -0.08   0.16   0.09
   6   1    -0.09   0.16  -0.11     0.00  -0.00   0.00    -0.01   0.08   0.00
   7   1    -0.17   0.11   0.15     0.00  -0.00  -0.00    -0.07   0.05   0.05
   8   7    -0.07  -0.04  -0.02    -0.00   0.00   0.01     0.03  -0.01   0.03
   9   6    -0.15  -0.14  -0.21     0.00  -0.00  -0.00    -0.20  -0.16  -0.11
  10   1    -0.01   0.01  -0.05    -0.01  -0.00  -0.01    -0.37  -0.22  -0.22
  11   1    -0.06  -0.04  -0.15    -0.00   0.00   0.01    -0.14   0.12   0.28
  12   1    -0.09  -0.12  -0.02     0.01  -0.00  -0.00     0.27  -0.08  -0.20
  13   6     0.07  -0.29  -0.06     0.00   0.00   0.00     0.17  -0.14  -0.01
  14   1     0.03  -0.18   0.05     0.00   0.01  -0.00     0.07  -0.08   0.04
  15   1     0.08  -0.10  -0.13    -0.01  -0.00   0.00     0.08  -0.06  -0.07
  16   1    -0.02  -0.04   0.01     0.01  -0.01  -0.00     0.03  -0.02   0.01
  17   6     0.09   0.12   0.04    -0.00   0.00   0.00     0.12   0.09   0.05
  18   1     0.29   0.17   0.17    -0.01  -0.00  -0.01    -0.16  -0.09  -0.16
  19   1    -0.01  -0.24   0.05     0.00   0.01  -0.00     0.15   0.29  -0.05
  20   1    -0.13   0.23  -0.15     0.00  -0.01   0.01     0.13  -0.09   0.25
  21   1    -0.02  -0.02   0.06     0.00   0.00  -0.00    -0.00   0.01  -0.03
  22   6    -0.00   0.00   0.00    -0.03   0.08   0.07     0.00  -0.00  -0.00
  23   8     0.00   0.00   0.00     0.00   0.05   0.07    -0.00   0.00  -0.00
  24   7    -0.00  -0.01  -0.01    -0.01  -0.27  -0.13     0.00   0.01   0.01
  25   1     0.00   0.01   0.00     0.01   0.22   0.06    -0.00  -0.01   0.00
  26   1    -0.01   0.02   0.01    -0.12   0.50   0.14     0.01  -0.02  -0.01
  27   7     0.00  -0.01  -0.00     0.06  -0.17  -0.12    -0.00   0.01   0.00
  28   1    -0.00   0.00   0.00    -0.07   0.31   0.18     0.00  -0.01  -0.00
  29   1    -0.00   0.01   0.00    -0.02   0.17   0.06     0.00  -0.01  -0.00
  30   6     0.01  -0.00  -0.01    -0.02  -0.09   0.03     0.00  -0.01  -0.00
  31   8     0.01   0.01  -0.01    -0.01  -0.04   0.02     0.00  -0.01   0.00
  32   7    -0.00  -0.00  -0.01     0.02   0.12  -0.05    -0.00   0.00  -0.00
  33   1    -0.00   0.00  -0.01    -0.01  -0.04   0.01    -0.00  -0.00  -0.00
  34   1    -0.01  -0.02   0.01    -0.02  -0.10   0.04     0.00   0.01  -0.00
  35   7     0.02  -0.00   0.01     0.02   0.15  -0.07     0.00   0.00  -0.00
  36   1     0.00   0.01   0.00    -0.08  -0.41   0.16    -0.00  -0.02   0.01
  37   1     0.01   0.00   0.00    -0.02  -0.09   0.03    -0.00  -0.00   0.00
  38   6     0.01  -0.00  -0.00    -0.00  -0.01  -0.02     0.01   0.00   0.00
  39   8     0.00  -0.00  -0.00     0.02   0.03  -0.00     0.01   0.01   0.01
  40   7    -0.01   0.00  -0.00    -0.02   0.01   0.02    -0.01  -0.00  -0.00
  41   1    -0.00   0.00   0.00    -0.01  -0.11   0.01    -0.00   0.01   0.00
  42   1     0.01   0.01  -0.01     0.18   0.13  -0.01    -0.01  -0.01  -0.00
  43   7    -0.00  -0.00   0.01    -0.00  -0.01  -0.00     0.01   0.00   0.00
  44   1    -0.00  -0.00   0.00    -0.00  -0.01  -0.00     0.01   0.01   0.00
  45   1    -0.00   0.01  -0.00     0.00   0.01  -0.01    -0.02  -0.01   0.00
  46   6     0.00  -0.00   0.00     0.00  -0.00   0.00     0.00  -0.00  -0.01
  47   8     0.01  -0.01   0.01    -0.00   0.00  -0.00    -0.01   0.00  -0.01
  48   7     0.01  -0.00   0.01    -0.00   0.00  -0.00    -0.01  -0.01  -0.01
  49   1    -0.01  -0.00  -0.01     0.00  -0.00   0.00     0.00  -0.01   0.01
  50   1    -0.02   0.01  -0.02     0.01  -0.00   0.01     0.01  -0.01   0.02
  51   7     0.00  -0.01   0.01    -0.00   0.00  -0.00     0.01   0.01  -0.01
  52   1    -0.02   0.02  -0.03     0.00  -0.01   0.01     0.02  -0.02   0.04
  53   1     0.00   0.00  -0.00     0.00  -0.00   0.00     0.01   0.00  -0.00
                     37                     38                     39
                        a                      a                      a 
 Frequencies --   380.4099               396.8999               428.5539
 Red. masses --     3.1140                 3.0951                 8.5683
 Frc consts  --     0.0000                 0.0000                 0.0000
 IR Inten    --     0.9843               454.3965                 0.1362
 Raman Activ --     0.0000                 0.0000                 0.0000
 Depolar     --     0.0000                 0.0000                 0.0000
 Atom AN      X      Y      Z        X      Y      Z        X      Y      Z
   1   8     0.08  -0.01  -0.07     0.00  -0.01  -0.01     0.10   0.03   0.20
   2   6    -0.04   0.07   0.08    -0.02  -0.00   0.00    -0.09  -0.15   0.04
   3   1    -0.01  -0.00   0.05    -0.01  -0.01   0.00    -0.04  -0.06   0.01
   4   1    -0.03   0.05   0.03    -0.01   0.01   0.00    -0.05  -0.01   0.02
   5   6    -0.00   0.05   0.06    -0.00   0.00  -0.00    -0.04   0.03  -0.12
   6   1     0.02   0.05   0.02    -0.00  -0.00   0.00    -0.02   0.03  -0.06
   7   1    -0.03   0.00   0.02    -0.00  -0.00  -0.00     0.00   0.05   0.02
   8   7     0.06  -0.06   0.02     0.00   0.01   0.00    -0.10   0.09  -0.31
   9   6    -0.12  -0.18  -0.13     0.00   0.00  -0.00    -0.19   0.27   0.18
  10   1     0.15   0.07   0.07    -0.01  -0.00  -0.01    -0.01  -0.01   0.15
  11   1    -0.04  -0.11  -0.32    -0.00   0.00   0.01    -0.06   0.09   0.07
  12   1    -0.27  -0.15   0.10     0.01  -0.00  -0.01    -0.12   0.18   0.07
  13   6    -0.03  -0.10   0.07     0.01   0.00   0.00    -0.00  -0.10  -0.34
  14   1     0.07   0.30  -0.10     0.01   0.00   0.00     0.06   0.04  -0.08
  15   1    -0.37  -0.10   0.20     0.00  -0.00   0.00    -0.09  -0.06  -0.10
  16   1     0.23  -0.31  -0.01     0.01  -0.00  -0.00     0.07  -0.11  -0.11
  17   6     0.14   0.20  -0.06     0.01   0.01   0.01     0.29  -0.15   0.25
  18   1    -0.03  -0.01  -0.16    -0.01  -0.00  -0.01    -0.04  -0.05   0.18
  19   1     0.09   0.23  -0.05     0.01   0.02  -0.00     0.26  -0.07  -0.00
  20   1     0.07   0.02   0.12     0.01  -0.00   0.01     0.13  -0.09   0.20
  21   1    -0.00  -0.01  -0.05    -0.01  -0.01  -0.01     0.02   0.01   0.05
  22   6     0.00  -0.00   0.00    -0.02   0.02   0.03    -0.00  -0.00  -0.00
  23   8     0.00  -0.00   0.00     0.01   0.01   0.03     0.00  -0.00   0.00
  24   7     0.00   0.01   0.00    -0.01  -0.15  -0.03    -0.00  -0.00   0.00
  25   1    -0.00  -0.00  -0.00     0.03   0.04  -0.01    -0.00  -0.00   0.00
  26   1     0.00  -0.01  -0.00    -0.10   0.39   0.12     0.00  -0.00   0.00
  27   7    -0.00   0.00   0.00     0.03  -0.10  -0.06    -0.00   0.00  -0.00
  28   1     0.00  -0.01  -0.00    -0.03   0.14   0.08     0.00  -0.00  -0.00
  29   1     0.00  -0.00  -0.00    -0.02   0.10   0.04    -0.00   0.00  -0.00
  30   6    -0.01   0.01   0.02     0.02   0.12  -0.05    -0.00  -0.00  -0.01
  31   8    -0.00   0.01   0.01     0.01   0.05  -0.02    -0.00  -0.00  -0.00
  32   7     0.02   0.01   0.02    -0.03  -0.18   0.07    -0.01  -0.00  -0.01
  33   1     0.01   0.00   0.01     0.02   0.07  -0.02    -0.00   0.00  -0.00
  34   1     0.01  -0.00   0.00     0.04   0.15  -0.06    -0.00  -0.01   0.00
  35   7    -0.03   0.00  -0.01    -0.05  -0.22   0.09     0.01   0.00   0.01
  36   1    -0.00  -0.01  -0.01     0.13   0.67  -0.26    -0.00  -0.00   0.01
  37   1    -0.02   0.00  -0.00     0.02   0.07  -0.03     0.01  -0.00   0.00
  38   6    -0.01  -0.01  -0.00     0.00  -0.01  -0.02    -0.00  -0.00   0.00
  39   8    -0.01  -0.02   0.00     0.01   0.01   0.01    -0.00  -0.00   0.00
  40   7     0.01   0.00  -0.00    -0.02   0.01  -0.01     0.00   0.00  -0.00
  41   1     0.00  -0.01  -0.00    -0.02  -0.10   0.01    -0.00  -0.01   0.00
  42   1     0.00   0.00   0.00     0.13   0.10  -0.01     0.01   0.00   0.00
  43   7     0.00  -0.00  -0.00     0.00   0.01  -0.02     0.00  -0.00  -0.00
  44   1    -0.00   0.00  -0.00    -0.01  -0.06   0.02     0.00   0.00  -0.00
  45   1     0.00  -0.00  -0.00     0.00  -0.01   0.00    -0.00  -0.00  -0.00
  46   6    -0.00   0.01   0.00     0.00  -0.00  -0.00     0.01   0.01  -0.00
  47   8    -0.01   0.01  -0.00     0.00   0.00  -0.00     0.00   0.01  -0.00
  48   7    -0.00   0.01  -0.00    -0.00  -0.00   0.00    -0.02   0.00   0.00
  49   1     0.00  -0.00   0.00    -0.00  -0.00  -0.00     0.00  -0.02   0.02
  50   1     0.01  -0.01   0.02    -0.01   0.00  -0.01    -0.02   0.02  -0.01
  51   7    -0.01  -0.01  -0.01     0.00  -0.00   0.00     0.00  -0.01  -0.00
  52   1     0.01  -0.02   0.01    -0.00   0.00  -0.00     0.03  -0.04   0.03
  53   1    -0.01  -0.01   0.00    -0.00   0.00  -0.00    -0.03   0.01  -0.02
                     40                     41                     42
                        a                      a                      a 
 Frequencies --   433.5444               443.9796               454.5467
 Red. masses --     2.4948                 1.6058                 8.3925
 Frc consts  --     0.0000                 0.0000                 0.0000
 IR Inten    --   114.9495                 4.6077                 2.8219
 Raman Activ --     0.0000                 0.0000                 0.0000
 Depolar     --     0.0000                 0.0000                 0.0000
 Atom AN      X      Y      Z        X      Y      Z        X      Y      Z
   1   8    -0.00   0.00   0.00     0.01  -0.00   0.01    -0.01  -0.02  -0.03
   2   6     0.00   0.00   0.00     0.00   0.00   0.01     0.07   0.08   0.04
   3   1    -0.00  -0.00   0.00    -0.00  -0.00   0.00     0.01   0.01   0.01
   4   1     0.00   0.00   0.00    -0.00   0.00   0.01     0.03   0.03   0.04
   5   6     0.00   0.01  -0.00     0.01   0.02  -0.01     0.15   0.07  -0.01
   6   1     0.00   0.00  -0.00     0.00   0.00  -0.00     0.05  -0.01   0.04
   7   1     0.00   0.00   0.00     0.01   0.01  -0.00     0.07   0.01  -0.04
   8   7     0.00   0.00  -0.00     0.01   0.02  -0.03     0.07   0.11  -0.04
   9   6    -0.01   0.00   0.00    -0.03   0.02   0.01    -0.11   0.05  -0.04
  10   1     0.00  -0.00   0.01    -0.01  -0.01   0.01    -0.03  -0.01   0.00
  11   1    -0.00   0.00  -0.01    -0.01   0.01   0.01    -0.06   0.05  -0.03
  12   1    -0.01   0.00   0.00    -0.01   0.01   0.00    -0.05  -0.02   0.00
  13   6    -0.00  -0.00  -0.00    -0.01  -0.02  -0.02    -0.07  -0.10   0.06
  14   1    -0.00   0.00  -0.00    -0.00   0.00  -0.01    -0.04  -0.05   0.01
  15   1    -0.01  -0.00   0.00    -0.02  -0.01  -0.01    -0.06  -0.06  -0.01
  16   1     0.00  -0.00   0.00     0.01  -0.01   0.00    -0.00  -0.04   0.08
  17   6     0.00  -0.01  -0.00     0.02  -0.03   0.01    -0.04  -0.11  -0.01
  18   1    -0.00  -0.00   0.00    -0.01  -0.01   0.01    -0.04  -0.02   0.04
  19   1    -0.00  -0.00  -0.00     0.02  -0.01  -0.00    -0.03  -0.07   0.01
  20   1     0.00  -0.00  -0.00     0.01  -0.02   0.01     0.01  -0.06  -0.05
  21   1     0.00  -0.00   0.00     0.00   0.00   0.00    -0.00  -0.01  -0.01
  22   6     0.03   0.09  -0.07     0.00   0.00  -0.00     0.00   0.00  -0.00
  23   8     0.02   0.08  -0.08     0.00   0.00  -0.00     0.00   0.00  -0.00
  24   7     0.11  -0.16   0.04     0.00  -0.00   0.00     0.00  -0.00   0.00
  25   1    -0.05   0.09   0.14    -0.00   0.00   0.00    -0.00   0.00   0.00
  26   1     0.09   0.06   0.08     0.00   0.00   0.00     0.00   0.00   0.00
  27   7    -0.07  -0.05  -0.04    -0.00  -0.00  -0.00    -0.00  -0.00   0.00
  28   1    -0.22   0.37   0.17    -0.00   0.00   0.00    -0.00   0.00   0.00
  29   1     0.03  -0.23   0.02     0.00  -0.00   0.00    -0.00  -0.00   0.00
  30   6     0.02   0.01  -0.00    -0.00   0.00  -0.00    -0.00   0.00   0.00
  31   8     0.01   0.01   0.01    -0.00   0.00  -0.00     0.00   0.00  -0.00
  32   7    -0.03  -0.01   0.01    -0.00  -0.00  -0.00     0.00   0.00   0.00
  33   1    -0.01   0.00  -0.01     0.00  -0.00   0.00     0.00  -0.00   0.00
  34   1    -0.01   0.02   0.01     0.00   0.00  -0.00     0.00   0.01  -0.00
  35   7     0.01  -0.03  -0.00     0.00  -0.00   0.00    -0.01  -0.00  -0.00
  36   1     0.01   0.05  -0.03     0.00   0.00  -0.00     0.00   0.00  -0.00
  37   1     0.00   0.00  -0.01     0.00  -0.00   0.00    -0.00   0.00  -0.00
  38   6     0.01  -0.05   0.06    -0.00   0.00   0.00    -0.01   0.01  -0.00
  39   8    -0.01  -0.07  -0.08    -0.00   0.00   0.00    -0.01   0.01   0.01
  40   7     0.03  -0.05   0.01     0.00  -0.00   0.00     0.01  -0.01   0.01
  41   1     0.07   0.46  -0.06     0.00   0.00  -0.00     0.01  -0.01  -0.00
  42   1    -0.48  -0.34  -0.05    -0.00  -0.00   0.00     0.00  -0.00   0.01
  43   7     0.03   0.09   0.07     0.00  -0.00  -0.00     0.00  -0.01  -0.01
  44   1     0.01   0.05   0.01     0.00   0.00  -0.00     0.00   0.00  -0.01
  45   1    -0.01   0.01   0.03    -0.00  -0.00   0.00     0.00  -0.01  -0.00
  46   6     0.00   0.00   0.00    -0.05  -0.04   0.00    -0.22  -0.18   0.01
  47   8     0.00   0.00  -0.00    -0.05  -0.05   0.00    -0.24  -0.20   0.02
  48   7    -0.00   0.00   0.00     0.09  -0.07   0.04     0.28  -0.02  -0.26
  49   1    -0.00  -0.00   0.00    -0.16   0.32  -0.36     0.24   0.12   0.10
  50   1    -0.00   0.00   0.00     0.30  -0.26   0.24     0.11  -0.08  -0.28
  51   7    -0.00  -0.00  -0.00    -0.06   0.10  -0.04     0.04   0.29   0.24
  52   1     0.00  -0.00  -0.00    -0.23   0.32  -0.25    -0.05   0.15   0.28
  53   1    -0.00   0.00  -0.00     0.31  -0.19   0.35     0.15   0.21  -0.12
                     43                     44                     45
                        a                      a                      a 
 Frequencies --   464.2248               467.8794               471.6159
 Red. masses --     7.6727                 5.1736                 6.7623
 Frc consts  --     0.0000                 0.0000                 0.0000
 IR Inten    --     5.9481                 9.7530                25.4031
 Raman Activ --     0.0000                 0.0000                 0.0000
 Depolar     --     0.0000                 0.0000                 0.0000
 Atom AN      X      Y      Z        X      Y      Z        X      Y      Z
   1   8    -0.01  -0.05  -0.07     0.01   0.03   0.04    -0.02  -0.01  -0.01
   2   6     0.06   0.07   0.02    -0.08  -0.10  -0.05     0.09   0.10   0.06
   3   1    -0.01  -0.00  -0.01    -0.01  -0.02  -0.01     0.02   0.02   0.02
   4   1     0.02   0.04   0.04    -0.03  -0.03  -0.04     0.04   0.02   0.04
   5   6     0.24  -0.06   0.02    -0.15  -0.07  -0.00     0.10   0.13  -0.00
   6   1     0.07  -0.16   0.16    -0.05   0.01  -0.05     0.04   0.06  -0.01
   7   1     0.22  -0.07  -0.14    -0.07  -0.00   0.04     0.00   0.04   0.01
   8   7    -0.10   0.30   0.05    -0.07  -0.09   0.04     0.13  -0.00  -0.08
   9   6    -0.10   0.19  -0.28     0.11  -0.04   0.04    -0.12  -0.03   0.07
  10   1    -0.02   0.11  -0.11     0.04   0.02   0.00    -0.04  -0.07   0.05
  11   1    -0.02   0.03  -0.14     0.06  -0.04   0.03    -0.07   0.05   0.02
  12   1    -0.03  -0.04  -0.06     0.04   0.02   0.00    -0.05  -0.01   0.03
  13   6     0.07  -0.29   0.07     0.08   0.11  -0.06    -0.15  -0.02   0.05
  14   1     0.07  -0.12   0.10     0.05   0.06  -0.01    -0.10  -0.03  -0.03
  15   1    -0.04  -0.17  -0.12     0.05   0.06   0.02    -0.05  -0.00   0.03
  16   1     0.07  -0.13   0.08     0.01   0.03  -0.08    -0.05   0.01   0.08
  17   6    -0.20  -0.04   0.20     0.05   0.13   0.03     0.02  -0.16  -0.12
  18   1    -0.12  -0.01   0.14     0.04   0.03  -0.04    -0.01  -0.04  -0.00
  19   1    -0.06  -0.07   0.06     0.04   0.07  -0.01    -0.03  -0.07  -0.02
  20   1    -0.01  -0.07   0.01    -0.00   0.06   0.06     0.01  -0.06  -0.08
  21   1     0.00  -0.00  -0.02     0.01   0.01   0.02    -0.01  -0.00  -0.01
  22   6    -0.00  -0.01   0.03     0.00   0.02   0.06     0.05   0.12  -0.14
  23   8    -0.04  -0.01   0.02    -0.12   0.02   0.02     0.07   0.13  -0.16
  24   7    -0.01   0.03  -0.01     0.00   0.09   0.02     0.15   0.02   0.25
  25   1     0.05  -0.11  -0.10     0.16  -0.42  -0.33     0.03  -0.47  -0.11
  26   1    -0.06   0.07  -0.01    -0.17   0.26   0.02     0.07   0.23   0.16
  27   7     0.04  -0.01  -0.00     0.09  -0.06  -0.01    -0.24  -0.17   0.02
  28   1     0.04  -0.04  -0.02     0.07  -0.12  -0.06    -0.17  -0.13  -0.09
  29   1     0.00   0.04   0.00    -0.00   0.10   0.04    -0.07   0.03   0.19
  30   6     0.03  -0.00   0.02     0.05  -0.03   0.01    -0.01   0.00   0.01
  31   8     0.02   0.00   0.02     0.02   0.00   0.05    -0.00  -0.00  -0.01
  32   7    -0.03   0.02   0.01    -0.06   0.03  -0.01     0.01   0.02   0.00
  33   1    -0.03  -0.02  -0.01    -0.04  -0.03  -0.03     0.00  -0.05   0.03
  34   1    -0.01   0.03   0.02    -0.03   0.02   0.03     0.02   0.03  -0.02
  35   7    -0.01  -0.01  -0.04     0.02  -0.01  -0.06    -0.00   0.01   0.01
  36   1     0.00  -0.03  -0.02    -0.00  -0.09  -0.00    -0.02  -0.07   0.03
  37   1    -0.02   0.01  -0.02    -0.01   0.02  -0.02     0.01   0.03  -0.01
  38   6     0.06  -0.05   0.01     0.11  -0.10   0.04    -0.06   0.03  -0.00
  39   8     0.05  -0.05  -0.06     0.10  -0.11  -0.13    -0.05   0.06   0.03
  40   7    -0.07   0.03  -0.04    -0.12   0.04  -0.08     0.06  -0.03   0.05
  41   1    -0.04   0.08   0.02    -0.07   0.20   0.03     0.05  -0.04  -0.03
  42   1    -0.04  -0.00  -0.09    -0.12  -0.05  -0.17     0.03   0.00   0.07
  43   7    -0.02   0.06   0.10    -0.00   0.11   0.19     0.03  -0.06  -0.09
  44   1    -0.02  -0.05   0.06    -0.03  -0.09   0.10     0.02   0.05  -0.06
  45   1     0.00   0.05   0.01     0.01   0.11   0.00     0.00  -0.06  -0.00
  46   6     0.06   0.06  -0.00    -0.05  -0.05   0.00     0.04   0.04  -0.00
  47   8     0.07   0.06  -0.01    -0.06  -0.05   0.01     0.05   0.04  -0.00
  48   7    -0.07   0.02   0.07     0.06  -0.02  -0.06    -0.05   0.01   0.05
  49   1    -0.06  -0.04  -0.02     0.05   0.04   0.01    -0.04  -0.03  -0.01
  50   1    -0.03   0.03   0.07     0.03  -0.03  -0.06    -0.03   0.02   0.05
  51   7    -0.01  -0.08  -0.06     0.00   0.07   0.05     0.00  -0.06  -0.04
  52   1     0.02  -0.05  -0.07    -0.02   0.04   0.06     0.02  -0.03  -0.05
  53   1    -0.05  -0.05   0.02     0.05   0.04  -0.02    -0.04  -0.03   0.01
                     46                     47                     48
                        a                      a                      a 
 Frequencies --   474.7555               478.9834               487.5378
 Red. masses --     8.1629                 8.0492                 7.8128
 Frc consts  --     0.0000                 0.0000                 0.0000
 IR Inten    --     4.0547                 8.2190                24.6223
 Raman Activ --     0.0000                 0.0000                 0.0000
 Depolar     --     0.0000                 0.0000                 0.0000
 Atom AN      X      Y      Z        X      Y      Z        X      Y      Z
   1   8     0.01   0.01   0.01    -0.03   0.01   0.02    -0.02   0.01   0.01
   2   6    -0.10  -0.12  -0.07     0.03   0.05   0.03    -0.03  -0.03  -0.02
   3   1    -0.03  -0.03  -0.03     0.01   0.02   0.01    -0.00   0.01  -0.01
   4   1    -0.04  -0.03  -0.05     0.02   0.01   0.02    -0.01  -0.02  -0.02
   5   6    -0.11  -0.18   0.01     0.03   0.08  -0.01    -0.03  -0.06   0.02
   6   1    -0.04  -0.09   0.03     0.01   0.05  -0.03    -0.01  -0.04   0.03
   7   1     0.02  -0.06  -0.03    -0.02   0.03   0.02     0.02  -0.03  -0.02
   8   7    -0.18   0.03   0.10     0.09  -0.03  -0.05    -0.07   0.01   0.03
   9   6     0.15   0.06  -0.13    -0.06  -0.03   0.08     0.06   0.02  -0.06
  10   1     0.06   0.11  -0.08    -0.02  -0.06   0.04     0.02   0.04  -0.03
  11   1     0.10  -0.06  -0.04    -0.04   0.03   0.03     0.04  -0.02  -0.01
  12   1     0.07   0.00  -0.05    -0.03   0.00   0.02     0.03   0.00  -0.02
  13   6     0.21  -0.01  -0.07    -0.10   0.02   0.03     0.08  -0.02  -0.04
  14   1     0.14   0.03   0.05    -0.07  -0.00  -0.03     0.05   0.00   0.02
  15   1     0.07  -0.01  -0.06    -0.03   0.02   0.03     0.03  -0.01  -0.03
  16   1     0.07  -0.03  -0.10    -0.04   0.02   0.04     0.03  -0.01  -0.04
  17   6    -0.04   0.20   0.18     0.03  -0.09  -0.09    -0.02   0.07   0.07
  18   1    -0.00   0.05   0.02     0.01  -0.02  -0.02    -0.00   0.02   0.01
  19   1     0.04   0.09   0.03    -0.01  -0.03  -0.02     0.01   0.02   0.01
  20   1    -0.02   0.07   0.11     0.01  -0.03  -0.05    -0.01   0.02   0.04
  21   1     0.01   0.01   0.01    -0.01  -0.01   0.01    -0.01  -0.01   0.00
  22   6     0.04   0.08  -0.19     0.01   0.00  -0.03     0.02   0.02   0.08
  23   8     0.18   0.09  -0.16     0.05   0.00  -0.02    -0.12   0.01   0.03
  24   7     0.13  -0.06   0.21     0.01  -0.02   0.01     0.01   0.04  -0.06
  25   1    -0.13  -0.01   0.22    -0.06   0.15   0.13     0.10  -0.13  -0.17
  26   1     0.23  -0.04   0.12     0.08  -0.09   0.00    -0.11   0.07  -0.04
  27   7    -0.30  -0.10   0.03    -0.06  -0.00   0.02     0.10  -0.02   0.03
  28   1    -0.19  -0.07  -0.07    -0.02  -0.04  -0.02     0.02   0.04   0.04
  29   1    -0.07  -0.01   0.16    -0.02   0.04   0.04     0.04  -0.07  -0.03
  30   6     0.02   0.00   0.02     0.25  -0.01   0.09     0.13  -0.00   0.07
  31   8     0.03   0.00   0.02     0.22   0.03   0.20     0.14   0.00   0.09
  32   7    -0.03   0.02   0.02    -0.29   0.09   0.11    -0.13   0.04   0.09
  33   1    -0.02  -0.01  -0.01    -0.20   0.04  -0.19    -0.07   0.23  -0.17
  34   1    -0.02   0.02   0.02    -0.19   0.09   0.22    -0.13  -0.09   0.18
  35   7    -0.01  -0.02  -0.03    -0.02  -0.14  -0.34    -0.03  -0.04  -0.21
  36   1     0.00  -0.02  -0.02     0.08  -0.08  -0.24     0.05  -0.04  -0.16
[...]
  44   1    -0.42   0.14   0.10    -0.57   0.17   0.13    -0.54   0.16   0.12
  45   1     0.03  -0.12  -0.20    -0.01   0.13   0.22     0.00   0.03   0.06
  46   6     0.00  -0.00  -0.00     0.00   0.00   0.00     0.00   0.00  -0.00
  47   8    -0.00   0.00   0.00    -0.00  -0.00  -0.00    -0.00  -0.00   0.00
  48   7     0.00  -0.00  -0.00    -0.00   0.00   0.00     0.00  -0.00  -0.00
  49   1    -0.00   0.00   0.00     0.00  -0.00  -0.00    -0.00   0.00   0.00
  50   1     0.00   0.00  -0.00    -0.00  -0.00   0.00     0.00  -0.00   0.00
  51   7    -0.00  -0.00   0.00    -0.00   0.00  -0.00    -0.00  -0.00   0.00
  52   1    -0.00  -0.00  -0.00     0.00   0.00   0.00    -0.00  -0.00  -0.00
  53   1    -0.00   0.00   0.00     0.00  -0.00  -0.00     0.00   0.00   0.00
                    142                    143                    144
                        a                      a                      a 
 Frequencies --  3446.1446              3491.6498              3493.7106
 Red. masses --     1.4732                 1.4610                 1.4552
 Frc consts  --     0.0000                 0.0000                 0.0000
 IR Inten    --     8.3982                28.8087                17.7325
 Raman Activ --     0.0000                 0.0000                 0.0000
 Depolar     --     0.0000                 0.0000                 0.0000
 Atom AN      X      Y      Z        X      Y      Z        X      Y      Z
   1   8    -0.00   0.00   0.00    -0.00   0.00   0.00    -0.00  -0.00   0.00
   2   6    -0.00  -0.00  -0.00    -0.00   0.00  -0.00     0.00  -0.00  -0.00
   3   1    -0.00   0.00   0.00    -0.00   0.00   0.00    -0.00   0.00   0.00
   4   1     0.00   0.00  -0.00    -0.00  -0.00   0.00     0.00  -0.00  -0.00
   5   6    -0.00   0.00   0.00    -0.00   0.00   0.00    -0.00   0.00   0.00
   6   1     0.00  -0.00  -0.00     0.00  -0.00  -0.00     0.00  -0.00  -0.00
   7   1    -0.00   0.00  -0.00     0.00  -0.00   0.00    -0.00   0.00  -0.00
   8   7     0.00  -0.00  -0.00     0.00   0.00   0.00     0.00   0.00  -0.00
   9   6    -0.00   0.00   0.00     0.00   0.00   0.00    -0.00   0.00   0.00
  10   1     0.00  -0.00  -0.00     0.00  -0.00   0.00     0.00  -0.00  -0.00
  11   1     0.00   0.00   0.00    -0.00  -0.00   0.00    -0.00  -0.00   0.00
  12   1     0.00   0.00   0.00    -0.00  -0.00  -0.00    -0.00   0.00   0.00
  13   6    -0.00   0.00   0.00    -0.00   0.00   0.00    -0.00   0.00   0.00
  14   1     0.00  -0.00  -0.00     0.00  -0.00  -0.00     0.00  -0.00  -0.00
  15   1    -0.00   0.00  -0.00    -0.00  -0.00  -0.00    -0.00  -0.00   0.00
  16   1    -0.00  -0.00   0.00     0.00   0.00  -0.00     0.00   0.00  -0.00
  17   6    -0.00  -0.00   0.00     0.00   0.00   0.00    -0.00  -0.00   0.00
  18   1    -0.00   0.00   0.00    -0.00   0.00   0.00    -0.00  -0.00   0.00
  19   1    -0.00   0.00  -0.00    -0.00  -0.00  -0.00    -0.00   0.00  -0.00
  20   1     0.00   0.00   0.00    -0.00  -0.00   0.00     0.00   0.00   0.00
  21   1     0.00  -0.00  -0.00     0.02  -0.01  -0.01    -0.00   0.00  -0.00
  22   6     0.00   0.00  -0.00     0.00   0.00   0.00     0.00  -0.00  -0.00
  23   8     0.00   0.00  -0.00    -0.00  -0.00  -0.00    -0.00  -0.00   0.00
  24   7     0.00  -0.00   0.00     0.00   0.00  -0.00     0.18   0.02  -0.04
  25   1    -0.00   0.00  -0.00    -0.00   0.00  -0.00    -0.43   0.18  -0.47
  26   1    -0.00  -0.00   0.00    -0.00  -0.00   0.01    -0.24  -0.25   0.63
  27   7     0.02   0.00   0.01    -0.00  -0.00  -0.00    -0.01  -0.01   0.00
  28   1     0.01   0.02  -0.03     0.00   0.00  -0.00     0.01   0.02  -0.02
  29   1    -0.10  -0.03   0.01     0.00   0.00   0.00     0.02   0.01  -0.00
  30   6    -0.00  -0.00  -0.00    -0.00   0.00   0.00    -0.00   0.00  -0.00
  31   8     0.00   0.00   0.00    -0.00   0.00  -0.00     0.00   0.00   0.00
  32   7     0.00  -0.00   0.00    -0.03   0.06   0.17     0.00  -0.00  -0.00
  33   1    -0.00   0.00   0.00     0.64  -0.24  -0.36    -0.01   0.00   0.00
  34   1     0.00  -0.00   0.00    -0.53   0.01  -0.29     0.00  -0.00   0.00
  35   7     0.00  -0.00  -0.00    -0.00  -0.00  -0.01    -0.00   0.00   0.00
  36   1    -0.00  -0.00  -0.00     0.02   0.00   0.01     0.01   0.00   0.01
  37   1    -0.00   0.00   0.00     0.00   0.01   0.02    -0.00  -0.01  -0.01
  38   6    -0.00  -0.01  -0.00     0.00  -0.00   0.00     0.00   0.00   0.00
  39   8    -0.00   0.00   0.00    -0.00   0.00  -0.00    -0.00   0.00   0.00
  40   7    -0.01  -0.14  -0.12    -0.00   0.00  -0.00     0.00  -0.00   0.00
  41   1     0.46  -0.04   0.45     0.00  -0.00   0.00    -0.01   0.00  -0.01
  42   1    -0.43   0.59  -0.00     0.00  -0.00  -0.00    -0.00   0.00   0.00
  43   7     0.01  -0.00   0.00     0.00  -0.00  -0.00    -0.00   0.00   0.00
  44   1    -0.02   0.01   0.00    -0.00   0.00   0.00     0.01  -0.00  -0.00
  45   1     0.00   0.00  -0.00    -0.00   0.01   0.01     0.00  -0.00  -0.00
  46   6     0.00   0.00   0.00    -0.00  -0.00  -0.00     0.00   0.00  -0.00
  47   8    -0.00  -0.00   0.00     0.00   0.00   0.00    -0.00  -0.00   0.00
  48   7     0.00  -0.00  -0.00     0.00  -0.00  -0.00    -0.00  -0.00  -0.00
  49   1    -0.00   0.00   0.00    -0.00   0.00   0.00    -0.00   0.00   0.00
  50   1     0.00   0.00  -0.00     0.00   0.00  -0.00     0.00   0.00  -0.00
  51   7    -0.00   0.00   0.00     0.00  -0.00  -0.00    -0.00   0.00   0.00
  52   1     0.00   0.00   0.00    -0.00  -0.00  -0.00     0.00   0.00   0.00
  53   1     0.00  -0.00  -0.00    -0.00   0.00   0.00     0.00  -0.00  -0.00
                    145                    146                    147
                        a                      a                      a 
 Frequencies --  3499.6571              3500.5223              3504.7815
 Red. masses --     2.1426                 1.4382                 1.4617
 Frc consts  --     0.0000                 0.0000                 0.0000
 IR Inten    --     5.6183                38.2641                 8.2266
 Raman Activ --     0.0000                 0.0000                 0.0000
 Depolar     --     0.0000                 0.0000                 0.0000
 Atom AN      X      Y      Z        X      Y      Z        X      Y      Z
   1   8     0.00  -0.00  -0.00    -0.00   0.00   0.00     0.00  -0.00  -0.00
   2   6    -0.00   0.00  -0.00     0.00  -0.00  -0.00     0.00  -0.00  -0.00
   3   1     0.00   0.00   0.00    -0.00   0.00   0.00    -0.00   0.00  -0.00
   4   1    -0.00  -0.00   0.00    -0.00  -0.00   0.00     0.00   0.00   0.00
   5   6    -0.00   0.00   0.00    -0.00   0.00   0.00     0.00  -0.00   0.00
   6   1     0.00  -0.00  -0.00     0.00  -0.00  -0.00    -0.00   0.00   0.00
   7   1     0.00  -0.00   0.00    -0.00   0.00  -0.00     0.00   0.00  -0.00
   8   7     0.00  -0.00  -0.00    -0.00  -0.00   0.00    -0.00  -0.00   0.00
   9   6    -0.00   0.00   0.00    -0.00  -0.00   0.00     0.00   0.00  -0.00
  10   1     0.00  -0.00  -0.00    -0.00  -0.00   0.00     0.00   0.00   0.00
  11   1     0.00   0.00   0.00     0.00   0.00  -0.00    -0.00  -0.00   0.00
  12   1    -0.00   0.00   0.00     0.00  -0.00   0.00     0.00  -0.00  -0.00
  13   6    -0.00   0.00   0.00    -0.00  -0.00   0.00     0.00   0.00  -0.00
  14   1     0.00  -0.00  -0.00    -0.00  -0.00   0.00     0.00   0.00   0.00
  15   1    -0.00   0.00   0.00    -0.00   0.00  -0.00     0.00   0.00  -0.00
  16   1     0.00   0.00   0.00     0.00   0.00  -0.00    -0.00  -0.00   0.00
  17   6    -0.00  -0.00  -0.00     0.00  -0.00  -0.00     0.00   0.00   0.00
  18   1     0.00  -0.00   0.00    -0.00   0.00  -0.00     0.00   0.00  -0.00
  19   1    -0.00   0.00   0.00     0.00   0.00   0.00     0.00   0.00   0.00
  20   1     0.00   0.00   0.00     0.00  -0.00  -0.00    -0.00  -0.00  -0.00
  21   1    -0.00   0.00   0.00     0.00  -0.00  -0.00    -0.00   0.00   0.00
  22   6     0.00  -0.00   0.00    -0.00  -0.00   0.00    -0.00   0.00   0.00
  23   8    -0.00   0.00  -0.00     0.00   0.00  -0.00     0.00   0.00  -0.00
  24   7     0.00   0.00  -0.00     0.00   0.00  -0.00    -0.00  -0.00   0.00
  25   1    -0.00   0.00  -0.00    -0.00   0.00  -0.00     0.00  -0.00   0.00
  26   1    -0.00  -0.00   0.01    -0.00  -0.00   0.00     0.00   0.00  -0.00
  27   7    -0.00  -0.00   0.00     0.00  -0.00   0.00     0.00   0.00  -0.00
  28   1     0.00   0.01  -0.01     0.00   0.00  -0.00    -0.00  -0.00   0.00
  29   1     0.00   0.00  -0.00    -0.00  -0.00   0.00    -0.00  -0.00   0.00
  30   6     0.00   0.00   0.00    -0.00  -0.00  -0.00    -0.00   0.00  -0.00
  31   8    -0.00  -0.00  -0.00    -0.00   0.00   0.00     0.00  -0.00   0.00
  32   7     0.00  -0.00  -0.00    -0.00   0.00   0.00     0.00  -0.00  -0.00
  33   1    -0.00   0.00   0.00     0.00  -0.00  -0.00    -0.00   0.00   0.00
  34   1     0.00  -0.00   0.00    -0.00   0.00  -0.00     0.00  -0.00   0.00
  35   7    -0.00  -0.00  -0.00    -0.00   0.00   0.00     0.00  -0.00   0.00
  36   1     0.00  -0.00   0.00     0.00  -0.00   0.00    -0.00  -0.00  -0.00
  37   1     0.00   0.00   0.00    -0.00  -0.00  -0.00     0.00   0.00   0.00
  38   6    -0.01   0.00  -0.00     0.00  -0.00   0.00    -0.00   0.00   0.00
  39   8     0.00  -0.00   0.00     0.00   0.00   0.00     0.00  -0.00  -0.00
  40   7    -0.23   0.14  -0.13     0.00  -0.00   0.00     0.00  -0.00   0.00
  41   1     0.51  -0.01   0.51    -0.01   0.00  -0.01    -0.00   0.00  -0.00
  42   1     0.35  -0.52  -0.02    -0.00   0.01   0.00     0.00  -0.00   0.00
  43   7    -0.00   0.00   0.00     0.00   0.00   0.00     0.00  -0.00  -0.00
  44   1     0.02  -0.01  -0.00    -0.00   0.00   0.00    -0.00   0.00   0.00
  45   1     0.00  -0.00  -0.00     0.00  -0.00  -0.00    -0.00   0.00   0.00
  46   6    -0.00   0.00   0.00    -0.00   0.00   0.00    -0.00  -0.00   0.00
  47   8    -0.00  -0.00   0.00    -0.00  -0.00   0.00     0.00   0.00  -0.00
  48   7    -0.00   0.00   0.00     0.00   0.13   0.06     0.00  -0.10  -0.05
  49   1     0.01  -0.00  -0.00     0.40  -0.10  -0.30    -0.33   0.08   0.25
  50   1    -0.01  -0.00   0.00    -0.41  -0.39   0.07     0.32   0.31  -0.06
  51   7    -0.00   0.00   0.00    -0.10   0.01   0.06    -0.12   0.02   0.07
  52   1     0.00   0.00   0.00     0.37   0.29   0.01     0.44   0.35   0.01
  53   1     0.00  -0.00  -0.00     0.01  -0.34  -0.22     0.01  -0.43  -0.28
                    148                    149                    150
                        a                      a                      a 
 Frequencies --  3535.9490              3537.4178              3557.2266
 Red. masses --     1.9392                 1.9702                 2.1731
 Frc consts  --     0.0000                 0.0000                 0.0000
 IR Inten    --    15.5872                21.3501                15.8213
 Raman Activ --     0.0000                 0.0000                 0.0000
 Depolar     --     0.0000                 0.0000                 0.0000
 Atom AN      X      Y      Z        X      Y      Z        X      Y      Z
   1   8     0.00  -0.00  -0.00     0.00   0.00   0.00     0.00  -0.00  -0.00
   2   6    -0.00   0.00  -0.00    -0.00  -0.00  -0.00    -0.00  -0.00   0.00
   3   1     0.00  -0.00  -0.00    -0.00   0.00   0.00     0.00  -0.00  -0.00
   4   1    -0.00  -0.00   0.00     0.00   0.00  -0.00     0.00   0.00  -0.00
   5   6    -0.00   0.00   0.00    -0.00   0.00   0.00    -0.00   0.00   0.00
   6   1     0.00  -0.00  -0.00     0.00  -0.00  -0.00    -0.00  -0.00  -0.00
   7   1     0.00  -0.00   0.00    -0.00   0.00  -0.00     0.00  -0.00  -0.00
   8   7     0.00  -0.00  -0.00     0.00   0.00  -0.00     0.00   0.00  -0.00
   9   6    -0.00   0.00   0.00    -0.00   0.00   0.00    -0.00   0.00  -0.00
  10   1     0.00  -0.00  -0.00     0.00  -0.00  -0.00     0.00  -0.00  -0.00
  11   1     0.00  -0.00  -0.00     0.00   0.00  -0.00     0.00  -0.00   0.00
  12   1     0.00  -0.00   0.00    -0.00  -0.00   0.00     0.00   0.00   0.00
  13   6    -0.00   0.00   0.00    -0.00   0.00   0.00    -0.00   0.00   0.00
  14   1     0.00  -0.00  -0.00     0.00  -0.00  -0.00     0.00  -0.00  -0.00
  15   1     0.00  -0.00   0.00    -0.00   0.00   0.00     0.00  -0.00   0.00
  16   1     0.00   0.00  -0.00     0.00   0.00  -0.00    -0.00  -0.00   0.00
  17   6    -0.00   0.00  -0.00    -0.00  -0.00  -0.00    -0.00   0.00  -0.00
  18   1    -0.00  -0.00   0.00    -0.00   0.00   0.00     0.00  -0.00   0.00
  19   1    -0.00   0.00   0.00    -0.00  -0.00   0.00     0.00   0.00   0.00
  20   1     0.00   0.00  -0.00     0.00   0.00   0.00     0.00   0.00   0.00
  21   1    -0.00   0.00   0.00    -0.00   0.00  -0.00    -0.00   0.00   0.00
  22   6    -0.00  -0.00   0.00     0.01   0.00  -0.00    -0.00   0.00  -0.01
  23   8     0.00   0.00  -0.00    -0.00  -0.00   0.00     0.00  -0.00   0.00
  24   7     0.00   0.00  -0.01     0.01  -0.01   0.04    -0.06   0.11  -0.27
  25   1     0.00  -0.00   0.00    -0.08   0.03  -0.08     0.47  -0.19   0.47
  26   1    -0.01  -0.01   0.02     0.02   0.02  -0.05    -0.24  -0.21   0.56
  27   7    -0.00  -0.00   0.00     0.12   0.14  -0.20     0.02   0.02  -0.03
  28   1     0.00   0.00  -0.00    -0.28  -0.50   0.74    -0.04  -0.07   0.10
  29   1     0.01   0.00  -0.00    -0.17  -0.03  -0.00    -0.03  -0.01  -0.00
  30   6     0.00   0.00   0.01    -0.00   0.00   0.00     0.00  -0.00  -0.00
  31   8    -0.00  -0.00  -0.00     0.00   0.00   0.00    -0.00   0.00  -0.00
  32   7    -0.04   0.01   0.00     0.00   0.00   0.00     0.01  -0.00   0.00
  33   1     0.07  -0.03  -0.04     0.00  -0.00  -0.00    -0.02   0.01   0.01
  34   1     0.06  -0.00   0.04    -0.00  -0.00   0.00    -0.02   0.00  -0.01
  35   7     0.22   0.02   0.15     0.00  -0.00   0.00    -0.00  -0.00  -0.00
  36   1    -0.83  -0.01  -0.46    -0.01  -0.00  -0.00     0.01   0.00   0.01
  37   1     0.01  -0.05  -0.12     0.00   0.00   0.00    -0.00   0.00   0.01
  38   6     0.00  -0.00  -0.00     0.00  -0.00  -0.00    -0.00  -0.00  -0.00
  39   8    -0.00   0.00   0.00    -0.00   0.00   0.00     0.00   0.00   0.00
  40   7    -0.00   0.00   0.00    -0.00  -0.00  -0.00    -0.00  -0.00  -0.00
  41   1     0.00   0.00   0.00     0.01  -0.00   0.01     0.00  -0.00   0.00
  42   1     0.00  -0.00  -0.00    -0.00   0.00  -0.00    -0.00   0.00  -0.00
  43   7    -0.00   0.00   0.00     0.00   0.00   0.00     0.00  -0.00  -0.00
  44   1     0.01  -0.00  -0.00    -0.00   0.00   0.00    -0.01   0.00   0.00
  45   1    -0.00  -0.00  -0.00     0.00  -0.00  -0.00     0.00   0.00   0.00
  46   6    -0.00  -0.00  -0.00     0.00   0.00  -0.00     0.00   0.00   0.00
  47   8     0.00   0.00   0.00    -0.00  -0.00   0.00    -0.00   0.00  -0.00
  48   7     0.00   0.00  -0.00     0.00   0.00  -0.00     0.00   0.00  -0.00
  49   1     0.00   0.00  -0.00    -0.00   0.00   0.00    -0.00   0.00   0.00
  50   1    -0.00  -0.00   0.00    -0.00  -0.00   0.00    -0.00  -0.00   0.00
  51   7     0.00  -0.00  -0.00    -0.00  -0.00   0.00     0.00   0.00   0.00
  52   1    -0.00  -0.00  -0.00     0.00   0.00   0.00    -0.00  -0.00   0.00
  53   1    -0.00   0.00   0.00    -0.00   0.00   0.00     0.00  -0.00  -0.00
                    151                    152                    153
                        a                      a                      a 
 Frequencies --  3560.2440              3565.1061              3570.6326
 Red. masses --     2.1735                 2.1909                 2.1774
 Frc consts  --     0.0000                 0.0000                 0.0000
 IR Inten    --    20.1883                13.4845                11.3603
 Raman Activ --     0.0000                 0.0000                 0.0000
 Depolar     --     0.0000                 0.0000                 0.0000
 Atom AN      X      Y      Z        X      Y      Z        X      Y      Z
   1   8    -0.00   0.00   0.00     0.00  -0.00  -0.00    -0.00   0.00   0.00
   2   6     0.00   0.00  -0.00    -0.00   0.00   0.00     0.00   0.00   0.00
   3   1    -0.00   0.00   0.00     0.00  -0.00  -0.00    -0.00   0.00   0.00
   4   1    -0.00  -0.00   0.00     0.00  -0.00   0.00    -0.00  -0.00   0.00
   5   6     0.00  -0.00   0.00     0.00  -0.00  -0.00     0.00   0.00   0.00
   6   1     0.00   0.00   0.00    -0.00   0.00   0.00     0.00  -0.00  -0.00
   7   1    -0.00   0.00   0.00     0.00  -0.00   0.00    -0.00  -0.00   0.00
   8   7    -0.00  -0.00   0.00     0.00   0.00  -0.00     0.00   0.00  -0.00
   9   6     0.00   0.00   0.00     0.00   0.00  -0.00    -0.00  -0.00   0.00
  10   1    -0.00   0.00   0.00    -0.00   0.00   0.00    -0.00  -0.00  -0.00
  11   1    -0.00  -0.00  -0.00    -0.00  -0.00  -0.00     0.00   0.00  -0.00
  12   1    -0.00  -0.00  -0.00     0.00   0.00   0.00    -0.00  -0.00   0.00
  13   6     0.00   0.00   0.00     0.00   0.00  -0.00    -0.00  -0.00   0.00
  14   1     0.00  -0.00  -0.00    -0.00   0.00   0.00    -0.00  -0.00  -0.00
  15   1    -0.00   0.00  -0.00     0.00  -0.00   0.00    -0.00   0.00  -0.00
  16   1    -0.00  -0.00   0.00    -0.00  -0.00   0.00     0.00   0.00  -0.00
  17   6     0.00   0.00   0.00    -0.00  -0.00  -0.00    -0.00  -0.00  -0.00
  18   1    -0.00   0.00  -0.00    -0.00  -0.00   0.00    -0.00  -0.00   0.00
  19   1    -0.00  -0.00  -0.00    -0.00  -0.00  -0.00    -0.00  -0.00   0.00
  20   1    -0.00  -0.00   0.00     0.00   0.00   0.00     0.00   0.00   0.00
  21   1     0.01  -0.00  -0.00    -0.00   0.00   0.00     0.00  -0.00  -0.00
  22   6    -0.00   0.00  -0.00     0.00   0.00   0.00    -0.00  -0.00  -0.00
  23   8    -0.00  -0.00   0.00    -0.00  -0.00   0.00     0.00   0.00   0.00
  24   7    -0.00   0.00  -0.01    -0.00   0.00  -0.00    -0.00   0.00  -0.00
  25   1     0.02  -0.01   0.02     0.00  -0.00   0.00     0.00  -0.00   0.00
  26   1    -0.01  -0.01   0.02    -0.00  -0.00   0.00    -0.00  -0.00   0.00
  27   7     0.00   0.00  -0.00    -0.00  -0.00   0.00     0.00   0.00  -0.00
  28   1    -0.00  -0.00   0.00     0.00   0.00  -0.00    -0.00  -0.00   0.00
  29   1    -0.00  -0.00   0.00     0.00   0.00  -0.00    -0.00  -0.00   0.00
  30   6    -0.01   0.00   0.00     0.00   0.00   0.00     0.00  -0.00  -0.00
  31   8     0.00  -0.00   0.00    -0.00  -0.00  -0.00    -0.00   0.00   0.00
  32   7    -0.29   0.05  -0.03     0.00  -0.00  -0.00     0.00  -0.00   0.00
  33   1     0.46  -0.18  -0.28    -0.00   0.00   0.00    -0.00   0.00   0.00
  34   1     0.65  -0.00   0.38    -0.00   0.00  -0.00    -0.00   0.00  -0.00
  35   7    -0.02  -0.00  -0.02    -0.00  -0.00  -0.00     0.00   0.00   0.00
  36   1     0.10   0.00   0.05     0.00   0.00   0.00    -0.00  -0.00  -0.00
  37   1    -0.00   0.01   0.02     0.00   0.00   0.00    -0.00  -0.00  -0.00
  38   6     0.00  -0.00   0.00     0.00   0.00   0.00    -0.00  -0.00  -0.00
  39   8    -0.00   0.00  -0.00    -0.00  -0.00  -0.00    -0.00   0.00   0.00
  40   7     0.00  -0.00  -0.00    -0.00  -0.00  -0.00     0.00  -0.00   0.00
  41   1    -0.00  -0.00  -0.00     0.00   0.00   0.00    -0.00  -0.00  -0.00
  42   1    -0.00   0.00   0.00     0.00  -0.00  -0.00    -0.00   0.00   0.00
  43   7     0.00  -0.00  -0.00    -0.00  -0.00  -0.00     0.00   0.00   0.00
  44   1    -0.00   0.00   0.00     0.00  -0.00  -0.00    -0.00   0.00   0.00
  45   1    -0.00   0.00   0.01    -0.00   0.00   0.00     0.00  -0.00  -0.00
  46   6    -0.00  -0.00  -0.00     0.00  -0.00  -0.01    -0.01  -0.01   0.00
  47   8     0.00   0.00   0.00    -0.00   0.00   0.00     0.00   0.00  -0.00
  48   7     0.00   0.00  -0.00     0.20   0.06  -0.10    -0.17  -0.05   0.08
  49   1    -0.00   0.00   0.00    -0.42   0.12   0.32     0.35  -0.10  -0.27
  50   1    -0.00  -0.00   0.00    -0.33  -0.34   0.05     0.30   0.30  -0.05
  51   7    -0.00  -0.00  -0.00    -0.08  -0.17  -0.07    -0.09  -0.19  -0.08
  52   1     0.00   0.00  -0.00     0.33   0.24   0.00     0.39   0.29   0.00
  53   1    -0.00   0.00   0.00    -0.03   0.39   0.26    -0.03   0.44   0.29
