 Entering Gaussian System
 *********************************************
 Gaussian 98:
 frequency output generated by the xtb code
 *********************************************
                         Standard orientation:
 --------------------------------------------------------------------
  Center     Atomic     Atomic              Coordinates (Angstroms)
  Number     Number      Type              X           Y           Z
 --------------------------------------------------------------------
    1          8             0       -1.805179   -1.521896   -3.407527
    2          6             0       -0.561756   -0.935781   -3.149378
    3          1             0        0.129678   -1.344955   -3.889516
    4          1             0       -0.605489    0.151453   -3.302625
    5          6             0       -0.060004   -1.145242   -1.715732
    6          1             0       -0.845774   -0.812284   -1.036311
    7          1             0        0.833660   -0.539088   -1.548506
    8          7             0        0.301929   -2.539596   -1.334872
    9          6             0        0.651184   -2.525263    0.096616
   10          1             0        1.502939   -1.859213    0.237855
   11          1             0        0.912380   -3.528353    0.427337
   12          1             0       -0.188421   -2.157181    0.682604
   13          6             0        1.481949   -2.982844   -2.094850
   14          1             0        1.251087   -3.041007   -3.155178
   15          1             0        1.795221   -3.967218   -1.752690
   16          1             0        2.291212   -2.271498   -1.933285
   17          6             0       -0.820911   -3.463992   -1.553079
   18          1             0       -1.113991   -3.461737   -2.601263
   19          1             0       -1.676984   -3.145349   -0.961187
   20          1             0       -0.535580   -4.471513   -1.255937
   21          1             0       -2.458646   -1.154994   -2.786129
   22          6             0        3.020286    0.536686    0.052255
   23          8             0        2.723302   -0.431503   -0.642449
   24          7             0        3.659214    0.391433    1.244459
   25          1             0        4.108925   -0.488726    1.428900
   26          1             0        4.036138    1.203215    1.701382
   27          7             0        2.728459    1.809186   -0.293185
   28          1             0        2.690739    2.516404    0.429896
   29          1             0        2.124820    1.943716   -1.086186
   30          6             0       -0.907825    1.891433    0.079307
   31          8             0       -0.749586    0.905317    0.821131
   32          7             0       -1.762306    1.843528   -0.962374
   33          1             0       -2.354396    1.025519   -1.086595
   34          1             0       -1.974443    2.667221   -1.495108
   35          7             0       -0.211822    3.022182    0.252871
   36          1             0       -0.360719    3.818327   -0.339724
   37          1             0        0.505797    3.084308    0.979995
   38          6             0       -3.575663   -1.048647   -0.058315
   39          8             0       -3.177587   -0.605033   -1.137824
   40          7             0       -4.717139   -1.766925    0.025879
   41          1             0       -5.293288   -1.839587   -0.794618
   42          1             0       -5.108550   -2.050171    0.905772
   43          7             0       -2.836148   -0.928727    1.066148
   44          1             0       -3.250465   -1.125559    1.960390
   45          1             0       -2.062261   -0.252642    1.046753
   46          6             0        1.708940    2.341971    3.101901
   47          8             0        1.865807    3.060739    2.113411
   48          7             0        0.808604    1.346792    3.127931
   49          1             0        0.251977    1.148069    2.293741
   50          1             0        0.714606    0.751626    3.929784
   51          7             0        2.488273    2.495436    4.205375
   52          1             0        2.245550    2.054605    5.074852
   53          1             0        3.045955    3.331128    4.257899
 --------------------------------------------------------------------
     1 basis functions        1 primitive gaussians
     1 alpha electrons        1 beta electrons

 Harmonic frequencies (cm**-1), IR intensities (km*mol⁻¹),
 Raman scattering activities (A**4/amu), Raman depolarization ratios,
 reduced masses (AMU), force constants (mDyne/A) and normal coordinates:
                      1                      2                      3
                        a                      a                      a 
 Frequencies --     6.3539                23.9923                29.9072
 Red. masses --    11.6776                12.2682                11.5267
 Frc consts  --     0.0000                 0.0000                 0.0000
 IR Inten    --     0.3335                 0.7474                 0.3654
 Raman Activ --     0.0000                 0.0000                 0.0000
 Depolar     --     0.0000                 0.0000                 0.0000
 Atom AN      X      Y      Z        X      Y      Z        X      Y      Z
   1   8     0.03  -0.19   0.05    -0.17  -0.22   0.03    -0.09  -0.09  -0.11
   2   6     0.02  -0.13  -0.01    -0.14  -0.14  -0.10    -0.02  -0.16  -0.18
   3   1     0.01  -0.06   0.01    -0.05  -0.05  -0.03    -0.02  -0.09  -0.04
   4   1     0.00  -0.04  -0.04    -0.05  -0.05  -0.06     0.02  -0.05  -0.10
   5   6     0.02   0.03   0.01    -0.04  -0.01  -0.12    -0.04  -0.01  -0.15
   6   1     0.01   0.03  -0.01    -0.00  -0.00  -0.03    -0.01   0.04  -0.06
   7   1     0.01   0.01  -0.02    -0.02   0.01  -0.06     0.00  -0.01  -0.06
   8   7     0.02   0.08   0.18     0.05   0.03  -0.05    -0.14   0.01   0.03
   9   6     0.04   0.24   0.16     0.11   0.14  -0.06    -0.23   0.15   0.05
  10   1     0.02   0.07   0.02     0.03   0.05  -0.04    -0.07   0.04   0.01
  11   1     0.01   0.08   0.08     0.05   0.05  -0.00    -0.08   0.05   0.05
  12   1     0.02   0.10   0.04     0.04   0.04  -0.01    -0.08   0.06  -0.01
  13   6     0.00  -0.02   0.19     0.03   0.03  -0.07    -0.09  -0.12   0.15
  14   1    -0.01  -0.05   0.06    -0.01  -0.01  -0.02    -0.00  -0.06   0.04
  15   1     0.00   0.01   0.09     0.03   0.02  -0.01    -0.05  -0.03   0.08
  16   1     0.00  -0.00   0.03     0.00   0.02  -0.05    -0.02  -0.04   0.04
  17   6     0.01   0.06   0.29     0.08  -0.04   0.07    -0.15   0.03   0.04
  18   1    -0.01  -0.02   0.09     0.01  -0.03   0.03    -0.02  -0.02   0.01
  19   1     0.01   0.04   0.08     0.03  -0.01   0.03    -0.05   0.04  -0.02
  20   1     0.00   0.02   0.11     0.04  -0.00   0.04    -0.06   0.02   0.05
  21   1     0.00  -0.03   0.00    -0.03  -0.04   0.01    -0.01   0.01  -0.03
  22   6     0.07   0.14  -0.11    -0.02   0.07  -0.10    -0.10  -0.03  -0.03
  23   8     0.06   0.16  -0.12    -0.02   0.21  -0.31    -0.11  -0.02  -0.06
  24   7     0.19   0.15  -0.18    -0.29  -0.17   0.01    -0.10  -0.06  -0.04
  25   1     0.07   0.05  -0.06    -0.11  -0.07  -0.01    -0.02  -0.02  -0.02
  26   1     0.05   0.04  -0.05    -0.07  -0.07   0.05    -0.03  -0.02  -0.01
  27   7    -0.02   0.14  -0.07     0.23   0.16  -0.00    -0.12  -0.03   0.01
  28   1    -0.00   0.03  -0.01     0.06   0.02   0.02    -0.02  -0.01   0.01
  29   1    -0.03   0.03  -0.00     0.11   0.09  -0.03    -0.03  -0.00   0.00
  30   6    -0.05  -0.01   0.03     0.13  -0.08  -0.01     0.03   0.10   0.09
  31   8    -0.07  -0.05  -0.02     0.09  -0.07   0.02     0.07   0.08   0.04
  32   7    -0.05   0.04   0.02     0.14  -0.07  -0.02     0.03   0.14   0.09
  33   1    -0.01   0.01  -0.01     0.03  -0.01  -0.00     0.01   0.03   0.01
  34   1    -0.01   0.02   0.01     0.05  -0.02  -0.01     0.00   0.04   0.04
  35   7    -0.05  -0.02   0.09     0.20  -0.12  -0.05    -0.02   0.13   0.16
  36   1    -0.01   0.00   0.03     0.06  -0.03  -0.02    -0.01   0.04   0.05
  37   1    -0.01  -0.02   0.02     0.04  -0.03  -0.00     0.00   0.03   0.03
  38   6    -0.08   0.04  -0.12    -0.02   0.05   0.04     0.19  -0.08  -0.09
  39   8    -0.03   0.06  -0.11     0.01   0.00   0.04     0.09   0.11  -0.07
  40   7    -0.11   0.07  -0.19    -0.06   0.11   0.06     0.31  -0.25  -0.11
  41   1    -0.02   0.02  -0.06    -0.01   0.03   0.02     0.07  -0.05  -0.02
  42   1    -0.04   0.01  -0.06    -0.02   0.04   0.02     0.10  -0.10  -0.03
  43   7    -0.15   0.03  -0.09    -0.02   0.05   0.04     0.27  -0.15  -0.13
  44   1    -0.05   0.01  -0.03    -0.01   0.02   0.01     0.09  -0.08  -0.03
  45   1    -0.04   0.00  -0.01     0.01   0.00   0.01     0.05  -0.01  -0.02
  46   6     0.03  -0.19  -0.01    -0.06   0.02   0.13     0.05   0.06   0.07
  47   8    -0.03  -0.11   0.06     0.07  -0.08   0.10     0.09   0.04   0.06
  48   7     0.06  -0.23  -0.06    -0.11   0.06   0.13     0.05   0.07   0.07
  49   1     0.00  -0.04  -0.01    -0.01   0.00   0.02     0.02   0.02   0.02
  50   1     0.03  -0.08  -0.03    -0.06   0.04   0.05     0.01   0.02   0.02
  51   7     0.08  -0.29  -0.03    -0.18   0.08   0.21     0.04   0.08   0.08
  52   1     0.04  -0.10  -0.02    -0.08   0.04   0.06     0.01   0.03   0.02
  53   1     0.02  -0.08   0.01    -0.04   0.02   0.05     0.01   0.02   0.02
                      4                      5                      6
                        a                      a                      a 
 Frequencies --    33.9834                34.8942                44.0970
 Red. masses --    11.9519                11.7614                11.9052
 Frc consts  --     0.0000                 0.0000                 0.0000
 IR Inten    --     0.6427                 3.1353                 5.7807
 Raman Activ --     0.0000                 0.0000                 0.0000
 Depolar     --     0.0000                 0.0000                 0.0000
 Atom AN      X      Y      Z        X      Y      Z        X      Y      Z
   1   8    -0.00   0.12  -0.02    -0.05  -0.16  -0.11    -0.10  -0.07   0.26
   2   6    -0.01   0.11   0.01    -0.03  -0.14  -0.12    -0.11   0.00   0.21
   3   1     0.00   0.03   0.01    -0.01  -0.06  -0.03    -0.03   0.03   0.04
   4   1     0.00   0.03  -0.00    -0.00  -0.04  -0.05    -0.06   0.00   0.09
   5   6    -0.05   0.13   0.02    -0.06  -0.08  -0.10    -0.03  -0.08   0.17
   6   1    -0.02   0.04  -0.00    -0.03  -0.03  -0.04     0.00  -0.05   0.07
   7   1    -0.01   0.04   0.01    -0.03  -0.01  -0.02    -0.01  -0.01   0.04
   8   7    -0.07   0.14   0.06     0.01  -0.06  -0.07     0.08  -0.09   0.05
   9   6    -0.13   0.16   0.08    -0.17  -0.03  -0.02     0.24  -0.17   0.00
  10   1    -0.04   0.05   0.03    -0.08   0.03   0.03     0.07  -0.04  -0.02
  11   1    -0.04   0.05   0.03    -0.02   0.00  -0.00     0.09  -0.05  -0.03
  12   1    -0.05   0.05   0.01    -0.08  -0.04  -0.03     0.09  -0.07   0.04
  13   6    -0.04   0.12   0.12     0.15   0.06   0.08    -0.00   0.01  -0.13
  14   1     0.00   0.03   0.03     0.09   0.03   0.01    -0.04   0.01  -0.03
  15   1    -0.02   0.03   0.04     0.05   0.02   0.02     0.03   0.00  -0.06
  16   1    -0.01   0.03   0.04     0.02   0.03   0.07    -0.01   0.01  -0.06
  17   6    -0.06   0.13   0.03     0.12  -0.15  -0.21     0.08  -0.11   0.12
  18   1    -0.00   0.03   0.00     0.08  -0.06  -0.07    -0.03  -0.00   0.05
  19   1    -0.03   0.04  -0.01     0.00  -0.06  -0.10     0.05  -0.06   0.08
  20   1    -0.02   0.04   0.02     0.05  -0.03  -0.04     0.05  -0.04  -0.01
  21   1    -0.00   0.02  -0.00    -0.01  -0.04  -0.03    -0.03  -0.00   0.05
  22   6     0.06   0.04   0.11    -0.16   0.12   0.13    -0.08   0.02   0.03
  23   8    -0.03   0.08   0.12    -0.24   0.12   0.21    -0.01   0.03  -0.02
  24   7    -0.15  -0.04   0.22    -0.21   0.16   0.16    -0.26  -0.01   0.12
  25   1    -0.10  -0.04   0.09    -0.08   0.04   0.06    -0.08  -0.00   0.04
  26   1    -0.01  -0.03   0.06    -0.04   0.04   0.03    -0.08  -0.01   0.05
  27   7     0.40   0.09   0.01    -0.06   0.13   0.04    -0.02   0.03   0.01
  28   1     0.11   0.03  -0.01    -0.01   0.05  -0.00    -0.02   0.01   0.00
  29   1     0.15   0.05  -0.02    -0.01   0.03   0.00     0.03   0.02  -0.02
  30   6    -0.02  -0.05  -0.08     0.04  -0.01  -0.00    -0.00   0.12  -0.05
  31   8    -0.07  -0.02  -0.04     0.07  -0.00  -0.00    -0.02   0.13  -0.07
  32   7    -0.16  -0.00   0.03     0.11  -0.06  -0.06     0.05   0.14  -0.10
  33   1    -0.05   0.00   0.02     0.03  -0.02  -0.02     0.00   0.04  -0.02
  34   1    -0.01  -0.01  -0.02     0.02  -0.01  -0.01     0.01   0.04  -0.01
  35   7     0.19  -0.15  -0.28    -0.04   0.04   0.05    -0.04   0.14   0.02
  36   1     0.04  -0.03  -0.06    -0.01   0.01   0.01     0.00   0.04   0.00
  37   1     0.04  -0.04  -0.06    -0.02   0.02   0.02    -0.01   0.03   0.01
  38   6    -0.00  -0.13   0.02     0.01   0.06   0.04     0.02   0.04  -0.10
  39   8    -0.09  -0.06   0.03     0.10  -0.09   0.01    -0.18   0.29  -0.09
  40   7     0.08  -0.28   0.02    -0.06   0.19   0.08     0.10  -0.07  -0.08
  41   1     0.02  -0.08   0.01    -0.01   0.04   0.02    -0.00   0.01  -0.00
  42   1     0.03  -0.09   0.01    -0.03   0.08   0.02     0.06  -0.06  -0.02
  43   7     0.02  -0.11   0.00    -0.01   0.10   0.06     0.19  -0.12  -0.19
  44   1     0.02  -0.05   0.00    -0.01   0.06   0.02     0.08  -0.07  -0.05
  45   1    -0.01  -0.01   0.00     0.01   0.01   0.01     0.03  -0.00  -0.05
  46   6     0.03  -0.06  -0.10     0.10  -0.05  -0.03     0.01  -0.04  -0.04
  47   8     0.01  -0.04  -0.10    -0.05   0.11   0.05    -0.00   0.01   0.00
  48   7    -0.03  -0.01  -0.09     0.12  -0.06  -0.03    -0.09   0.04  -0.03
  49   1    -0.01   0.00  -0.02     0.02  -0.00  -0.00    -0.03   0.03  -0.01
  50   1     0.00  -0.01  -0.03     0.08  -0.06  -0.04    -0.01  -0.01  -0.02
  51   7     0.12  -0.16  -0.16     0.28  -0.20  -0.13     0.14  -0.21  -0.10
  52   1     0.03  -0.04  -0.04     0.10  -0.08  -0.04     0.04  -0.06  -0.03
  53   1     0.04  -0.05  -0.04     0.06  -0.05  -0.02     0.05  -0.07  -0.02
                      7                      8                      9
                        a                      a                      a 
 Frequencies --    44.8677                50.3044                54.8315
 Red. masses --    12.5383                12.2464                12.5106
 Frc consts  --     0.0000                 0.0000                 0.0000
 IR Inten    --     0.3947                 3.3645                 1.5667
 Raman Activ --     0.0000                 0.0000                 0.0000
 Depolar     --     0.0000                 0.0000                 0.0000
 Atom AN      X      Y      Z        X      Y      Z        X      Y      Z
   1   8    -0.12   0.00   0.08     0.15   0.05  -0.06     0.05  -0.01  -0.01
   2   6    -0.07  -0.03  -0.01     0.15   0.02  -0.07     0.02   0.02   0.03
   3   1    -0.03  -0.03  -0.01     0.04  -0.01  -0.02     0.01   0.01   0.01
   4   1    -0.01  -0.01  -0.01     0.05   0.00  -0.03    -0.00   0.01   0.01
   5   6    -0.03   0.00  -0.02     0.15   0.05  -0.07     0.00   0.00   0.03
   6   1    -0.00   0.01  -0.00     0.05   0.04  -0.02    -0.00  -0.00   0.01
   7   1    -0.01   0.00  -0.01     0.06  -0.00  -0.04    -0.00   0.00   0.01
   8   7    -0.02   0.01   0.01     0.04   0.05   0.01     0.01  -0.00   0.02
   9   6    -0.07   0.03   0.02     0.11   0.11  -0.01     0.05  -0.00   0.01
  10   1    -0.03   0.02   0.01     0.06   0.00  -0.03     0.02  -0.01  -0.01
  11   1    -0.01   0.01   0.01     0.00   0.03   0.01     0.01  -0.00   0.00
  12   1    -0.03  -0.01  -0.00     0.05   0.07   0.00     0.02   0.00   0.01
  13   6     0.02   0.03   0.05    -0.04  -0.12  -0.03    -0.02  -0.01  -0.02
  14   1     0.02   0.02   0.01    -0.03  -0.05  -0.00    -0.02  -0.01  -0.00
  15   1     0.00   0.01   0.01    -0.03  -0.03   0.01    -0.00  -0.00  -0.00
  16   1     0.00   0.01   0.03     0.01  -0.05  -0.04    -0.00  -0.00  -0.02
  17   6     0.01  -0.01  -0.03    -0.06   0.14   0.13    -0.01   0.01   0.05
  18   1     0.01  -0.01  -0.01    -0.03   0.02   0.04    -0.02   0.01   0.02
  19   1    -0.01  -0.00  -0.02    -0.00   0.08   0.04     0.01   0.00   0.03
  20   1     0.00   0.00   0.00    -0.04   0.04   0.06     0.00   0.00   0.01
  21   1    -0.02   0.01   0.02     0.04   0.00  -0.00     0.00  -0.00  -0.01
  22   6     0.04   0.02   0.05    -0.04  -0.09  -0.02    -0.03  -0.02   0.05
  23   8    -0.03   0.01   0.11     0.21  -0.04  -0.21     0.01   0.02  -0.01
  24   7     0.20   0.05  -0.03    -0.33  -0.19   0.13    -0.21  -0.09   0.14
  25   1     0.06   0.01  -0.02    -0.07  -0.04   0.02    -0.07  -0.03   0.04
  26   1     0.06   0.02  -0.02    -0.12  -0.06   0.07    -0.05  -0.03   0.05
  27   7    -0.03   0.01   0.08    -0.08  -0.08   0.07     0.08   0.00   0.05
  28   1     0.00   0.00   0.02    -0.06  -0.04   0.03     0.01   0.00   0.01
  29   1    -0.04  -0.01   0.05     0.04  -0.01  -0.02     0.06   0.02  -0.01
  30   6     0.06   0.04  -0.18    -0.08   0.07  -0.04    -0.04  -0.07   0.09
  31   8     0.16  -0.01  -0.30     0.06   0.04  -0.14     0.07  -0.14  -0.00
  32   7    -0.01   0.09  -0.13    -0.09   0.04  -0.04    -0.16  -0.00   0.19
  33   1    -0.00   0.03  -0.03     0.00  -0.01  -0.01    -0.03  -0.01   0.03
  34   1    -0.02   0.03  -0.02    -0.06   0.01   0.01    -0.05   0.01   0.06
  35   7     0.07   0.04  -0.16    -0.24   0.16   0.06    -0.08  -0.06   0.11
  36   1    -0.01   0.03  -0.01    -0.08   0.04   0.02    -0.05  -0.01   0.05
  37   1     0.01   0.01  -0.03    -0.05   0.04   0.01    -0.00  -0.01   0.01
  38   6     0.09   0.04   0.10     0.09   0.01   0.13    -0.07   0.00  -0.10
  39   8    -0.07   0.10   0.08     0.19  -0.15   0.11    -0.10   0.03  -0.12
  40   7     0.07   0.11   0.26     0.05   0.09   0.17    -0.16   0.16  -0.08
  41   1    -0.02   0.04   0.09     0.03  -0.00   0.04    -0.05   0.06  -0.02
  42   1     0.06   0.01   0.08     0.00   0.05   0.05    -0.03   0.02  -0.02
  43   7     0.31  -0.09  -0.01     0.03   0.13   0.16     0.02  -0.16  -0.15
  44   1     0.11  -0.02   0.01    -0.00   0.07   0.05     0.01  -0.04  -0.04
  45   1     0.07  -0.01  -0.03     0.02   0.02   0.03     0.01  -0.05  -0.03
  46   6    -0.13  -0.10  -0.00    -0.06  -0.07  -0.07     0.12   0.08  -0.06
  47   8    -0.14  -0.00   0.08    -0.16   0.02  -0.02     0.03   0.16  -0.05
  48   7     0.05  -0.29  -0.23    -0.06  -0.07  -0.09     0.49  -0.24  -0.22
  49   1     0.03  -0.06  -0.08    -0.01  -0.01  -0.03     0.12  -0.06  -0.05
  50   1     0.00  -0.09  -0.07     0.01  -0.05  -0.04     0.12  -0.04  -0.04
  51   7    -0.34  -0.05   0.12     0.02  -0.17  -0.12    -0.06   0.34   0.03
  52   1    -0.09  -0.05   0.01     0.02  -0.06  -0.04     0.01   0.06  -0.00
  53   1    -0.12   0.00   0.07    -0.00  -0.04  -0.02    -0.08   0.13   0.02
                     10                     11                     12
                        a                      a                      a 
 Frequencies --    58.6640                61.7341                67.9951
 Red. masses --    12.1694                12.2038                12.3942
 Frc consts  --     0.0000                 0.0000                 0.0000
 IR Inten    --     0.6961                 1.1978                 4.9640
 Raman Activ --     0.0000                 0.0000                 0.0000
 Depolar     --     0.0000                 0.0000                 0.0000
 Atom AN      X      Y      Z        X      Y      Z        X      Y      Z
   1   8     0.14   0.20  -0.07    -0.00   0.07   0.01    -0.13  -0.06   0.01
   2   6     0.13   0.12   0.04    -0.02   0.08   0.07    -0.11  -0.02  -0.08
   3   1     0.05   0.04   0.02     0.00   0.04   0.02    -0.04  -0.01  -0.03
   4   1     0.05   0.04   0.03    -0.01   0.02   0.04    -0.04  -0.01  -0.04
   5   6     0.04   0.04   0.05    -0.04   0.01   0.06    -0.03   0.06  -0.09
   6   1     0.01   0.02   0.01    -0.01  -0.00   0.02     0.00   0.03  -0.02
   7   1     0.02  -0.01   0.03    -0.01  -0.00   0.02    -0.01   0.02  -0.05
   8   7    -0.08   0.01   0.05    -0.07  -0.02   0.01    -0.01   0.09  -0.03
   9   6    -0.02  -0.01   0.04     0.05  -0.05  -0.02     0.03   0.15  -0.04
  10   1     0.01  -0.02   0.00     0.03  -0.03  -0.02     0.01   0.04  -0.03
  11   1    -0.03  -0.01   0.01     0.00  -0.02  -0.01     0.01   0.05  -0.00
  12   1     0.01   0.02   0.02     0.03  -0.00   0.02     0.02   0.06  -0.01
  13   6    -0.14  -0.11   0.01    -0.15  -0.05  -0.09    -0.04   0.05  -0.05
  14   1    -0.06  -0.04   0.01    -0.07  -0.02  -0.02    -0.02   0.01  -0.01
  15   1    -0.06  -0.03   0.01    -0.04  -0.02  -0.03    -0.01   0.02  -0.01
  16   1    -0.02  -0.05  -0.02    -0.03  -0.02  -0.05    -0.01   0.01  -0.03
  17   6    -0.17   0.12   0.09    -0.13   0.04   0.09    -0.02   0.07   0.06
  18   1    -0.06   0.05   0.03    -0.06   0.03   0.03    -0.01   0.00   0.02
  19   1    -0.03   0.06   0.04    -0.02   0.02   0.05     0.00   0.03   0.02
  20   1    -0.08   0.03   0.02    -0.04   0.01   0.01    -0.00   0.03   0.03
  21   1     0.03   0.04  -0.02    -0.01   0.00   0.01    -0.03  -0.01   0.00
  22   6    -0.09   0.11  -0.05    -0.09   0.06   0.01     0.12  -0.07   0.12
  23   8    -0.04   0.05   0.03    -0.09   0.08  -0.00     0.11   0.02   0.00
  24   7    -0.15   0.26  -0.01    -0.08   0.05   0.00     0.25  -0.24   0.05
  25   1    -0.04   0.08   0.03    -0.02   0.01  -0.00     0.09  -0.07  -0.05
  26   1    -0.06   0.08  -0.02    -0.02   0.01   0.00     0.09  -0.08   0.03
  27   7    -0.10   0.08  -0.20    -0.11   0.07   0.04     0.01  -0.04   0.36
  28   1    -0.03   0.04  -0.07    -0.03   0.02   0.01    -0.00  -0.03   0.12
  29   1    -0.02   0.00  -0.06    -0.03   0.02   0.01    -0.01   0.01   0.11
  30   6     0.11  -0.15  -0.03     0.11  -0.02  -0.07    -0.01  -0.06  -0.03
  31   8     0.10  -0.16  -0.01    -0.01   0.05   0.03    -0.07   0.00   0.07
  32   7     0.28  -0.23  -0.17     0.33  -0.13  -0.25     0.24  -0.22  -0.24
  33   1     0.05  -0.05  -0.03     0.06  -0.02  -0.04     0.04  -0.04  -0.04
  34   1     0.05  -0.05  -0.02     0.09  -0.04  -0.07     0.05  -0.06  -0.06
  35   7    -0.01  -0.11   0.07     0.07   0.00  -0.04    -0.16   0.02   0.03
  36   1     0.02  -0.04  -0.00     0.06  -0.02  -0.05    -0.01  -0.02  -0.03
  37   1    -0.00  -0.03   0.02    -0.00   0.01   0.01    -0.05   0.03   0.02
  38   6     0.02  -0.04   0.00    -0.00  -0.02   0.01    -0.06  -0.05  -0.02
  39   8    -0.06  -0.03  -0.02     0.06  -0.03   0.04    -0.14  -0.01  -0.03
  40   7    -0.12   0.19   0.11     0.19  -0.35  -0.11    -0.11   0.03   0.03
  41   1    -0.06   0.08   0.04     0.07  -0.12  -0.04    -0.04   0.02   0.02
  42   1    -0.00   0.03   0.03     0.02  -0.06  -0.03    -0.01  -0.01   0.01
  43   7     0.21  -0.31  -0.09    -0.22   0.28   0.11     0.05  -0.18  -0.08
  44   1     0.07  -0.08  -0.02    -0.07   0.06   0.02     0.02  -0.05  -0.02
  45   1     0.06  -0.08  -0.02    -0.06   0.07   0.03     0.00  -0.04  -0.02
  46   6    -0.00  -0.01   0.03     0.04  -0.02   0.03     0.00   0.11   0.00
  47   8     0.02  -0.07  -0.01    -0.06   0.10   0.10    -0.19   0.24   0.05
  48   7    -0.09   0.06   0.11     0.28  -0.24  -0.12     0.02   0.10   0.05
  49   1    -0.01  -0.00   0.03     0.06  -0.04  -0.02    -0.01   0.03   0.03
  50   1    -0.01   0.02   0.03     0.07  -0.06  -0.03     0.05  -0.00  -0.00
  51   7     0.03  -0.02   0.01    -0.06   0.06   0.08     0.20   0.01  -0.12
  52   1     0.00   0.01   0.01     0.01  -0.02   0.01     0.09  -0.02  -0.03
  53   1     0.02  -0.01  -0.01    -0.05   0.04   0.04     0.04   0.01  -0.03
                     13                     14                     15
                        a                      a                      a 
 Frequencies --    76.2853                82.4774                91.4416
 Red. masses --    11.7817                12.3087                12.7259
 Frc consts  --     0.0000                 0.0000                 0.0000
 IR Inten    --     3.7618                 3.9396                 0.3012
 Raman Activ --     0.0000                 0.0000                 0.0000
 Depolar     --     0.0000                 0.0000                 0.0000
 Atom AN      X      Y      Z        X      Y      Z        X      Y      Z
   1   8     0.07  -0.09  -0.13    -0.24  -0.07   0.10    -0.06   0.03   0.09
   2   6     0.03  -0.05  -0.05    -0.15  -0.10  -0.15    -0.01  -0.00  -0.04
   3   1     0.02   0.00  -0.01    -0.08  -0.06  -0.06    -0.02  -0.02  -0.02
   4   1    -0.00  -0.01   0.00    -0.03  -0.03  -0.07     0.01  -0.00  -0.03
   5   6    -0.00  -0.09  -0.04     0.06   0.02  -0.20     0.08   0.07  -0.06
   6   1     0.00  -0.02  -0.01     0.05   0.04  -0.03     0.04   0.04  -0.01
   7   1     0.01  -0.04  -0.00     0.04  -0.01  -0.11     0.03   0.02  -0.04
   8   7    -0.07  -0.13  -0.07     0.01   0.03  -0.12     0.08   0.09  -0.01
   9   6     0.16  -0.11  -0.12     0.11   0.11  -0.13     0.05   0.12   0.00
  10   1     0.06  -0.05  -0.07     0.04   0.02  -0.07     0.02   0.03  -0.00
  11   1     0.04  -0.04  -0.04     0.02   0.04  -0.02     0.00   0.04   0.01
  12   1     0.08  -0.01  -0.00     0.05   0.06  -0.03     0.02   0.05  -0.01
  13   6    -0.23  -0.24  -0.23    -0.06  -0.08  -0.16     0.09   0.06   0.03
  14   1    -0.12  -0.09  -0.05    -0.03  -0.02  -0.04     0.03   0.02   0.01
  15   1    -0.06  -0.07  -0.06    -0.04  -0.03  -0.05     0.02   0.01   0.01
  16   1    -0.05  -0.08  -0.12     0.01  -0.05  -0.05     0.03   0.01   0.02
  17   6    -0.19  -0.02   0.14    -0.05   0.07   0.04     0.08   0.07   0.01
  18   1    -0.11   0.00   0.05    -0.03  -0.01   0.02     0.03   0.00   0.00
  19   1    -0.02   0.02   0.08    -0.00   0.06   0.01     0.02   0.03  -0.01
  20   1    -0.07  -0.01   0.03    -0.03   0.03   0.05     0.02   0.03   0.02
  21   1     0.01  -0.03  -0.03    -0.03   0.01   0.04    -0.00   0.02   0.03
  22   6     0.01   0.12   0.10     0.11   0.01   0.15    -0.13  -0.07   0.00
  23   8    -0.13   0.16   0.13     0.25  -0.15   0.35     0.17  -0.16  -0.03
  24   7     0.16   0.08   0.02     0.02   0.31   0.24    -0.15   0.07   0.03
  25   1     0.04   0.01  -0.01     0.00   0.10   0.14     0.03   0.05  -0.00
  26   1     0.07   0.01  -0.00    -0.03   0.12   0.03    -0.10   0.05   0.01
  27   7     0.05   0.15   0.16     0.10  -0.07  -0.14    -0.51  -0.17   0.04
  28   1     0.04   0.04   0.05     0.00   0.02  -0.07    -0.14  -0.03  -0.00
  29   1    -0.02   0.05   0.07     0.04  -0.07  -0.06    -0.14  -0.07   0.01
  30   6    -0.00   0.00  -0.00     0.01  -0.04   0.03     0.08  -0.08  -0.05
  31   8     0.06  -0.00  -0.03     0.08  -0.12  -0.08     0.08  -0.07  -0.02
  32   7    -0.26   0.09   0.21     0.04  -0.00   0.00    -0.12  -0.02   0.12
  33   1    -0.04   0.01   0.03     0.01   0.00  -0.00    -0.04  -0.00   0.03
  34   1    -0.04   0.01   0.02    -0.02   0.02   0.04     0.00  -0.02  -0.00
  35   7     0.19  -0.08  -0.20    -0.11   0.01   0.19     0.35  -0.21  -0.32
  36   1    -0.01   0.00  -0.00    -0.02   0.00   0.05     0.04  -0.03  -0.04
  37   1     0.02  -0.01  -0.03    -0.00  -0.02   0.02     0.04  -0.03  -0.04
  38   6     0.06  -0.00  -0.03    -0.03   0.02   0.01    -0.06   0.02  -0.02
  39   8     0.12  -0.11  -0.06    -0.04   0.09   0.04    -0.12   0.08  -0.01
  40   7     0.01   0.09  -0.00     0.03  -0.08  -0.05    -0.03  -0.03  -0.02
  41   1     0.01   0.02  -0.00     0.01  -0.02  -0.02    -0.01  -0.01  -0.00
  42   1    -0.01   0.05   0.00     0.00  -0.03  -0.02     0.00  -0.02  -0.01
  43   7     0.05   0.03  -0.03    -0.10   0.08   0.04    -0.04   0.01  -0.03
  44   1     0.01   0.03  -0.01    -0.02   0.00   0.01    -0.00  -0.01  -0.01
  45   1     0.02   0.00  -0.01    -0.02   0.01   0.01    -0.01   0.00  -0.01
  46   6    -0.02   0.06   0.06     0.00  -0.02  -0.04     0.04   0.04   0.07
  47   8    -0.10   0.18   0.13     0.09  -0.10  -0.09    -0.02   0.13   0.13
  48   7    -0.06   0.09   0.05    -0.04   0.02  -0.01     0.04   0.05   0.06
  49   1    -0.00   0.02   0.01     0.01  -0.01  -0.01     0.02   0.01   0.01
  50   1     0.03  -0.02  -0.01    -0.02   0.02   0.00     0.04  -0.02  -0.00
  51   7     0.09  -0.08   0.01    -0.06   0.03  -0.01     0.12  -0.04   0.04
  52   1     0.03  -0.04  -0.00    -0.03   0.03   0.00     0.04  -0.03   0.01
  53   1     0.02  -0.02   0.02    -0.01   0.00  -0.01     0.03  -0.01   0.02
                     16                     17                     18
                        a                      a                      a 
 Frequencies --    99.9136               110.6769               124.1340
 Red. masses --    13.8505                11.3321                12.9700
 Frc consts  --     0.0000                 0.0000                 0.0000
 IR Inten    --     5.8202                23.0332                15.4208
 Raman Activ --     0.0000                 0.0000                 0.0000
 Depolar     --     0.0000                 0.0000                 0.0000
 Atom AN      X      Y      Z        X      Y      Z        X      Y      Z
   1   8     0.04  -0.00  -0.03    -0.07   0.30   0.20     0.12  -0.07  -0.14
   2   6    -0.02   0.07   0.08     0.17  -0.12  -0.07     0.07  -0.02  -0.06
   3   1     0.02   0.05   0.03    -0.02  -0.13  -0.03     0.04  -0.00  -0.01
   4   1    -0.03   0.02   0.04     0.15  -0.04  -0.06     0.02  -0.01  -0.02
   5   6    -0.09   0.02   0.10     0.29  -0.10  -0.11     0.01  -0.02  -0.04
   6   1    -0.04  -0.01   0.02     0.12   0.03  -0.01    -0.01  -0.01  -0.02
   7   1    -0.04   0.02   0.05     0.12  -0.07  -0.07    -0.00  -0.00   0.00
   8   7    -0.04   0.02   0.06     0.08  -0.15  -0.05     0.01  -0.01  -0.02
   9   6    -0.05  -0.01   0.06    -0.06  -0.14  -0.01     0.01   0.01  -0.02
  10   1    -0.02   0.00   0.02    -0.02  -0.04   0.02     0.01  -0.00  -0.01
  11   1    -0.01  -0.00   0.01    -0.03  -0.04   0.01    -0.00   0.00   0.00
  12   1    -0.02  -0.01   0.02    -0.03  -0.04  -0.03     0.01   0.01  -0.01
  13   6    -0.01   0.10   0.05     0.11  -0.32   0.10     0.01  -0.03  -0.01
  14   1    -0.00   0.03   0.01     0.07  -0.07   0.02    -0.00  -0.02  -0.00
  15   1     0.01   0.03   0.01    -0.03  -0.11   0.03     0.00  -0.00   0.01
  16   1    -0.02   0.04   0.02     0.06  -0.13   0.06     0.00  -0.01  -0.01
  17   6     0.00  -0.01   0.01    -0.02  -0.00  -0.14     0.00  -0.01  -0.00
  18   1    -0.00   0.01   0.00     0.04  -0.02  -0.05     0.00  -0.01  -0.00
  19   1    -0.00  -0.03   0.01    -0.02   0.05  -0.09     0.00  -0.00  -0.00
  20   1     0.01  -0.01  -0.02    -0.06  -0.01  -0.00     0.00  -0.00   0.00
  21   1    -0.01  -0.01  -0.02     0.04   0.13   0.07     0.01  -0.01  -0.06
  22   6    -0.01  -0.01  -0.01     0.02   0.09  -0.04     0.04   0.00  -0.01
  23   8    -0.06   0.03  -0.04    -0.02   0.17  -0.12     0.08  -0.02   0.01
  24   7     0.04  -0.09  -0.04     0.01  -0.03  -0.05    -0.01   0.05   0.02
  25   1     0.02  -0.03  -0.04    -0.01  -0.02  -0.03    -0.01   0.01   0.03
  26   1     0.03  -0.03  -0.01     0.02  -0.02   0.00    -0.01   0.02   0.01
  27   7    -0.01   0.01   0.07     0.10   0.14   0.05     0.08  -0.00  -0.08
  28   1     0.01  -0.00   0.02     0.03   0.02   0.03    -0.00  -0.00  -0.02
  29   1    -0.01   0.01   0.03     0.03   0.06   0.02     0.03  -0.01  -0.03
  30   6     0.12  -0.15  -0.04    -0.02  -0.04   0.01    -0.05   0.04   0.00
  31   8     0.49  -0.36  -0.36    -0.01  -0.07  -0.01    -0.01   0.15   0.13
  32   7    -0.04  -0.06   0.09    -0.02  -0.03   0.02    -0.06  -0.10   0.01
  33   1     0.01  -0.03  -0.00    -0.02   0.00   0.02    -0.02  -0.03   0.02
  34   1    -0.07   0.01   0.09    -0.01  -0.00   0.02    -0.02  -0.04  -0.02
  35   7    -0.13  -0.04   0.18    -0.02  -0.04   0.03    -0.07   0.07  -0.12
  36   1    -0.10   0.02   0.11    -0.01  -0.01   0.01    -0.02   0.01  -0.05
  37   1    -0.01  -0.02   0.02    -0.01  -0.01   0.01    -0.03   0.02  -0.02
  38   6    -0.04   0.04  -0.06    -0.12   0.06   0.05    -0.07   0.08  -0.04
  39   8    -0.14   0.00  -0.12    -0.24   0.26   0.10    -0.38   0.01  -0.20
  40   7     0.08  -0.16   0.03    -0.02  -0.12   0.01     0.06  -0.10   0.30
  41   1     0.01  -0.06   0.02    -0.02  -0.01   0.01    -0.04  -0.06   0.13
  42   1     0.02  -0.00   0.02     0.00  -0.06  -0.00     0.07   0.02   0.12
  43   7    -0.07   0.29  -0.08    -0.10   0.02   0.04     0.12   0.31  -0.20
  44   1     0.01   0.07  -0.01    -0.01  -0.03   0.01     0.08   0.07  -0.03
  45   1     0.01   0.04  -0.05    -0.03   0.01   0.01     0.03   0.09  -0.09
  46   6     0.00   0.06  -0.01    -0.02   0.04  -0.01    -0.00  -0.08   0.11
  47   8     0.03   0.08   0.01    -0.07   0.12   0.04    -0.18  -0.22   0.01
  48   7    -0.15   0.19   0.03    -0.02   0.04  -0.04     0.10  -0.18   0.30
  49   1     0.02   0.00  -0.02    -0.00   0.01  -0.01     0.00  -0.05   0.10
  50   1     0.01  -0.00  -0.02     0.01  -0.01  -0.02     0.03  -0.02   0.10
  51   7     0.05  -0.03  -0.03     0.02  -0.02  -0.03     0.09   0.12   0.02
  52   1     0.00  -0.00  -0.01     0.01  -0.02  -0.01     0.06   0.06   0.03
  53   1     0.02  -0.02  -0.00    -0.00  -0.00   0.00     0.01   0.05  -0.04
                     19                     20                     21
                        a                      a                      a 
 Frequencies --   138.1357               147.8726               161.3599
 Red. masses --    13.4485                13.3520                12.5681
 Frc consts  --     0.0000                 0.0000                 0.0000
 IR Inten    --     2.1625                15.5623                13.3962
 Raman Activ --     0.0000                 0.0000                 0.0000
 Depolar     --     0.0000                 0.0000                 0.0000
 Atom AN      X      Y      Z        X      Y      Z        X      Y      Z
   1   8     0.16  -0.06  -0.16    -0.00   0.07   0.07     0.13  -0.03  -0.25
   2   6     0.13  -0.03  -0.09     0.06  -0.01  -0.05     0.09  -0.04  -0.08
   3   1     0.05  -0.01  -0.01    -0.00  -0.03  -0.02     0.05  -0.02   0.00
   4   1     0.04  -0.01  -0.04     0.04  -0.00  -0.04     0.04  -0.01  -0.03
   5   6     0.03  -0.00  -0.06     0.11   0.06  -0.06    -0.11  -0.03  -0.01
   6   1    -0.01  -0.01  -0.03     0.04   0.03  -0.01    -0.07  -0.04  -0.04
   7   1     0.00   0.01   0.00     0.03   0.02  -0.03    -0.06   0.02   0.04
   8   7     0.06   0.02  -0.02     0.13   0.08  -0.00    -0.01  -0.00   0.00
   9   6     0.11   0.06  -0.03     0.19   0.12  -0.02     0.04   0.05  -0.01
  10   1     0.04   0.01  -0.03     0.06   0.03  -0.03     0.03  -0.01  -0.02
  11   1     0.02   0.02   0.00     0.05   0.04   0.00    -0.01   0.01   0.01
  12   1     0.04   0.04  -0.01     0.06   0.05   0.00     0.03   0.05  -0.00
  13   6     0.02  -0.02  -0.05     0.06   0.01  -0.05    -0.00   0.05  -0.03
  14   1    -0.01  -0.04  -0.01    -0.00  -0.02  -0.01    -0.02  -0.05   0.00
  15   1     0.02   0.01   0.01     0.02   0.01  -0.00     0.05   0.05   0.03
  16   1     0.00   0.00  -0.04     0.02   0.01  -0.04    -0.03   0.06  -0.06
  17   6     0.04   0.01   0.06     0.08   0.10   0.12     0.04  -0.07   0.05
  18   1    -0.00  -0.00   0.02    -0.00   0.02   0.04    -0.04   0.02   0.03
  19   1     0.02   0.01   0.03     0.04   0.04   0.06     0.03  -0.07   0.07
  20   1     0.02   0.01   0.02     0.03   0.03   0.03     0.05  -0.03  -0.05
  21   1     0.03  -0.02  -0.05     0.02   0.04   0.03     0.01   0.01  -0.09
  22   6    -0.08   0.00   0.06    -0.21  -0.03   0.10     0.02  -0.05  -0.02
  23   8    -0.17   0.02   0.08    -0.55  -0.01   0.19     0.03  -0.08   0.01
  24   7     0.01  -0.03   0.01     0.05  -0.14  -0.06     0.01   0.01  -0.01
  25   1     0.00  -0.01  -0.01    -0.02  -0.06  -0.04    -0.01   0.00   0.02
  26   1     0.01  -0.01   0.00     0.07  -0.06  -0.03    -0.01   0.01  -0.01
  27   7    -0.10   0.00   0.11    -0.10  -0.01   0.12     0.02  -0.07  -0.08
  28   1     0.00   0.00   0.03     0.01  -0.01   0.04     0.01  -0.00  -0.04
  29   1    -0.04   0.01   0.04    -0.09   0.00   0.08     0.02  -0.02  -0.03
  30   6    -0.01   0.11  -0.05    -0.03  -0.09   0.02     0.08  -0.04   0.21
  31   8    -0.06   0.10  -0.11    -0.00  -0.07   0.07    -0.05  -0.02   0.33
  32   7     0.03   0.14  -0.11    -0.03  -0.13   0.04     0.15  -0.07   0.19
  33   1    -0.01   0.05  -0.01    -0.01  -0.04   0.01     0.02  -0.01   0.06
  34   1    -0.01   0.05  -0.01    -0.00  -0.04  -0.00     0.06  -0.02   0.03
  35   7    -0.02   0.12   0.04    -0.04  -0.08  -0.03     0.16  -0.09   0.17
  36   1     0.02   0.03   0.01    -0.01  -0.03  -0.02     0.06  -0.04   0.02
  37   1     0.01   0.01  -0.01     0.00  -0.02  -0.02     0.04  -0.01   0.05
  38   6    -0.18  -0.11   0.04     0.07   0.10   0.01    -0.01   0.10   0.04
  39   8    -0.31  -0.13   0.02     0.07   0.18   0.03    -0.15   0.22   0.04
  40   7    -0.18  -0.15   0.20     0.11   0.06  -0.05     0.08  -0.04   0.10
  41   1    -0.07  -0.06   0.07     0.03   0.02  -0.02    -0.01   0.01   0.05
  42   1    -0.01  -0.04   0.07     0.03  -0.00  -0.02     0.04  -0.01   0.04
  43   7    -0.11  -0.09  -0.00     0.06   0.08   0.02     0.05   0.08   0.01
  44   1    -0.01  -0.02   0.01     0.02  -0.00   0.00     0.03  -0.02   0.00
  45   1    -0.04  -0.02  -0.02     0.02   0.02   0.01     0.01   0.03   0.01
  46   6     0.16   0.01   0.00    -0.02  -0.09  -0.11    -0.15   0.04  -0.15
  47   8     0.49  -0.03   0.02     0.02  -0.27  -0.24    -0.13   0.25  -0.04
  48   7     0.03   0.13  -0.16    -0.04  -0.06   0.03    -0.13   0.03  -0.32
  49   1     0.03   0.05  -0.06    -0.02  -0.03   0.02    -0.05   0.03  -0.08
  50   1    -0.07   0.06  -0.04    -0.04   0.03   0.04    -0.03  -0.01  -0.10
  51   7    -0.06  -0.10   0.18    -0.03   0.11  -0.14    -0.17  -0.15  -0.13
  52   1    -0.08  -0.02   0.03    -0.00   0.07  -0.02    -0.05  -0.08  -0.06
  53   1     0.02  -0.06   0.08     0.00   0.02  -0.08    -0.05  -0.04   0.01
                     22                     23                     24
                        a                      a                      a 
 Frequencies --   176.5517               178.4940               190.8387
 Red. masses --    10.5788                11.9623                12.7248
 Frc consts  --     0.0000                 0.0000                 0.0000
 IR Inten    --     7.3166                14.1221                 7.5961
 Raman Activ --     0.0000                 0.0000                 0.0000
 Depolar     --     0.0000                 0.0000                 0.0000
 Atom AN      X      Y      Z        X      Y      Z        X      Y      Z
   1   8    -0.02   0.19  -0.21     0.07  -0.17   0.18     0.11  -0.15  -0.04
   2   6     0.10  -0.10  -0.10    -0.02   0.07   0.04     0.02   0.02   0.01
   3   1     0.02  -0.09   0.00    -0.01   0.06  -0.01     0.02   0.04   0.00
   4   1     0.10  -0.03  -0.06    -0.07   0.02   0.02    -0.03   0.00   0.02
   5   6    -0.13  -0.07  -0.02     0.17   0.11  -0.03    -0.00  -0.00   0.01
   6   1    -0.09  -0.05  -0.05     0.09   0.06   0.02    -0.00   0.00   0.00
   7   1    -0.07   0.01   0.05     0.08   0.01  -0.05     0.00  -0.01   0.01
   8   7     0.02  -0.02   0.03     0.08   0.09  -0.03    -0.04  -0.02  -0.02
   9   6     0.09   0.07   0.01     0.05   0.02  -0.02    -0.06  -0.05  -0.02
  10   1     0.06  -0.02  -0.03    -0.01   0.03   0.01    -0.03   0.00   0.01
  11   1    -0.02   0.02   0.03     0.04   0.01  -0.03     0.01  -0.01  -0.01
  12   1     0.06   0.08   0.00    -0.00  -0.03  -0.00    -0.03  -0.04  -0.00
  13   6     0.03   0.05  -0.00     0.03  -0.02  -0.04    -0.04  -0.02  -0.01
  14   1    -0.03  -0.10   0.01     0.02   0.07  -0.02    -0.00   0.02  -0.01
  15   1     0.09   0.07   0.07    -0.06  -0.04  -0.06    -0.03  -0.02  -0.02
  16   1    -0.03   0.08  -0.09     0.05  -0.06   0.04    -0.00  -0.02   0.02
  17   6     0.09  -0.11   0.10     0.01   0.16  -0.00    -0.05  -0.01  -0.05
  18   1    -0.09   0.08   0.06     0.09  -0.06  -0.02     0.04  -0.05  -0.03
  19   1     0.08  -0.14   0.16    -0.03   0.15  -0.11    -0.04   0.04  -0.07
  20   1     0.10  -0.06  -0.12    -0.06   0.07   0.14    -0.04   0.01   0.05
  21   1     0.01   0.07  -0.05     0.01  -0.06   0.05     0.01  -0.04  -0.03
  22   6    -0.00  -0.06  -0.03    -0.07  -0.11  -0.07     0.00   0.09   0.06
  23   8    -0.09  -0.11   0.06    -0.32  -0.18   0.10     0.15   0.16  -0.07
  24   7     0.00  -0.01  -0.03     0.00  -0.06  -0.13    -0.01   0.01   0.08
  25   1    -0.03  -0.01   0.02    -0.07  -0.04   0.01     0.05   0.02  -0.03
  26   1     0.02  -0.00  -0.02     0.04  -0.02  -0.05    -0.01   0.00   0.03
  27   7     0.11  -0.06  -0.15     0.16  -0.11  -0.27    -0.16   0.09   0.23
  28   1     0.03  -0.00  -0.05     0.08  -0.00  -0.10    -0.06  -0.00   0.09
  29   1     0.02  -0.03  -0.03     0.03  -0.03  -0.06    -0.05   0.03   0.07
  30   6     0.04   0.06  -0.08     0.12   0.10   0.06     0.21   0.11   0.07
  31   8     0.09  -0.02  -0.23     0.13   0.08   0.02     0.22   0.06  -0.00
  32   7     0.01   0.19  -0.09     0.11   0.12   0.06     0.16   0.21   0.12
  33   1    -0.01   0.06  -0.02     0.03   0.03   0.01     0.03   0.07   0.03
  34   1    -0.03   0.08   0.03     0.01   0.04   0.03     0.03   0.07   0.06
  35   7     0.03   0.06  -0.01     0.12   0.11   0.07     0.24   0.10   0.07
  36   1    -0.01   0.04   0.03     0.01   0.04   0.04     0.06   0.03   0.02
  37   1    -0.00   0.01   0.01     0.02   0.03   0.03     0.08   0.01   0.01
  38   6    -0.08  -0.03   0.08    -0.07  -0.10  -0.04    -0.10  -0.06   0.03
  39   8    -0.02   0.12   0.20    -0.06  -0.19  -0.06    -0.09  -0.00   0.08
  40   7    -0.09  -0.05  -0.09    -0.12  -0.04   0.03    -0.12  -0.08  -0.02
  41   1    -0.01   0.01  -0.04    -0.03  -0.03   0.01    -0.03  -0.00  -0.01
  42   1    -0.04  -0.06  -0.04    -0.03  -0.00   0.01    -0.03  -0.03  -0.01
  43   7    -0.13  -0.19   0.15    -0.06  -0.06  -0.04    -0.11  -0.15   0.06
  44   1    -0.05  -0.06   0.03    -0.02   0.01  -0.01    -0.03  -0.04   0.01
  45   1    -0.04  -0.05   0.05    -0.02  -0.02  -0.02    -0.03  -0.04   0.02
  46   6    -0.03   0.02   0.10    -0.10   0.05   0.04    -0.09  -0.11  -0.13
  47   8    -0.25   0.02   0.09    -0.26   0.20   0.13    -0.13  -0.26  -0.28
  48   7     0.05  -0.06   0.23    -0.02  -0.02   0.02    -0.08  -0.10   0.05
  49   1     0.01  -0.03   0.07    -0.01   0.00   0.00    -0.02  -0.05   0.02
  50   1     0.07  -0.04   0.05     0.04  -0.04  -0.02    -0.02   0.01   0.04
  51   7     0.13   0.11  -0.01     0.01  -0.04  -0.01    -0.02   0.16  -0.25
  52   1     0.08   0.03   0.01     0.03  -0.04  -0.01     0.04   0.08  -0.04
  53   1     0.01   0.05  -0.03    -0.03   0.01   0.02    -0.00   0.05  -0.14
                     25                     26                     27
                        a                      a                      a 
 Frequencies --   197.1423               223.0604               249.1169
 Red. masses --    12.8305                12.3838                 5.9765
 Frc consts  --     0.0000                 0.0000                 0.0000
 IR Inten    --     1.0532               133.8151                 3.7141
 Raman Activ --     0.0000                 0.0000                 0.0000
 Depolar     --     0.0000                 0.0000                 0.0000
 Atom AN      X      Y      Z        X      Y      Z        X      Y      Z
   1   8     0.33  -0.42  -0.09    -0.05   0.06   0.05     0.13  -0.31   0.32
   2   6     0.07   0.06   0.01    -0.01  -0.01   0.01     0.06  -0.01   0.02
   3   1     0.07   0.10   0.01    -0.01  -0.01  -0.00     0.01   0.00  -0.00
   4   1    -0.09   0.02   0.03     0.01  -0.00  -0.00    -0.04  -0.01  -0.03
   5   6     0.02   0.06   0.02     0.02  -0.00  -0.00     0.16   0.13  -0.02
   6   1     0.00   0.02   0.00     0.01   0.00   0.00     0.06   0.07  -0.00
   7   1     0.01   0.01   0.02     0.01  -0.00  -0.01     0.07   0.01  -0.02
   8   7    -0.04   0.03  -0.05     0.03  -0.00   0.00    -0.04   0.08  -0.07
   9   6    -0.05  -0.04  -0.04     0.02  -0.00   0.01    -0.19  -0.04  -0.03
  10   1    -0.03   0.01   0.01     0.02  -0.02   0.00     0.09  -0.19   0.00
  11   1     0.01  -0.01  -0.03    -0.02  -0.01   0.01    -0.30  -0.06   0.04
  12   1    -0.03  -0.05  -0.01     0.01   0.02  -0.00     0.01   0.20  -0.05
  13   6    -0.06   0.04  -0.08     0.02  -0.02   0.01    -0.03   0.01  -0.02
  14   1    -0.01   0.06  -0.03     0.01  -0.01   0.00    -0.05  -0.17   0.01
  15   1    -0.05  -0.01  -0.07     0.01  -0.00   0.01     0.08   0.08   0.12
  16   1     0.00  -0.02   0.01     0.01  -0.00  -0.00    -0.05   0.08  -0.14
  17   6    -0.04   0.04  -0.05     0.02   0.01  -0.00    -0.05   0.12  -0.20
  18   1     0.09  -0.11  -0.04    -0.01   0.02   0.00    -0.20   0.29  -0.01
  19   1    -0.06   0.10  -0.13     0.01  -0.01   0.02     0.08  -0.15   0.18
  20   1    -0.06   0.04   0.13     0.01  -0.00  -0.02     0.08  -0.03  -0.36
  21   1     0.03  -0.10  -0.08     0.00  -0.00   0.04     0.04  -0.07   0.08
  22   6     0.01  -0.01  -0.01    -0.02   0.00   0.01    -0.01   0.01   0.00
  23   8     0.00  -0.01  -0.01    -0.01   0.02  -0.01    -0.02   0.01   0.00
  24   7    -0.01  -0.00  -0.01    -0.01  -0.02   0.01     0.00   0.01  -0.01
  25   1    -0.00  -0.00   0.00     0.01  -0.00  -0.02    -0.00   0.00  -0.00
  26   1     0.00  -0.00  -0.00     0.02  -0.01  -0.01     0.00   0.00  -0.00
  27   7     0.02  -0.01  -0.03    -0.06  -0.00   0.03     0.01   0.02   0.01
  28   1     0.01   0.00  -0.01     0.01   0.01  -0.00     0.00   0.00   0.01
  29   1     0.01  -0.00  -0.01    -0.01   0.00   0.01    -0.00   0.01   0.01
  30   6    -0.12  -0.09  -0.08    -0.07  -0.05  -0.01     0.01   0.01   0.00
  31   8    -0.18  -0.14  -0.14    -0.43  -0.23  -0.15     0.02   0.01   0.01
  32   7    -0.07   0.03  -0.14     0.06   0.38  -0.15     0.00  -0.02   0.01
  33   1    -0.05   0.02  -0.03    -0.02   0.14  -0.10    -0.00  -0.00   0.01
  34   1    -0.02   0.03   0.00     0.08   0.15   0.00    -0.01  -0.00   0.00
  35   7    -0.07  -0.14   0.00     0.20  -0.29   0.32    -0.00   0.01  -0.01
  36   1    -0.00  -0.03   0.01     0.14  -0.05   0.11    -0.00   0.00  -0.01
  37   1    -0.02  -0.05   0.01     0.05  -0.14   0.10     0.00   0.01  -0.00
  38   6     0.01   0.15   0.13     0.06  -0.01  -0.04    -0.00  -0.01  -0.00
  39   8    -0.05   0.43   0.23     0.03  -0.18  -0.12    -0.01  -0.00  -0.00
  40   7     0.10  -0.02  -0.04     0.06  -0.00   0.18    -0.01   0.02   0.01
  41   1     0.01   0.06  -0.01    -0.01  -0.03   0.07     0.00  -0.01  -0.00
  42   1     0.02  -0.05  -0.03     0.03   0.08   0.08     0.01  -0.02  -0.00
  43   7    -0.00  -0.05   0.16     0.08   0.14  -0.08    -0.00  -0.00  -0.00
  44   1     0.01  -0.07   0.03     0.02   0.07  -0.02    -0.00   0.00  -0.00
  45   1    -0.00  -0.01   0.06     0.02   0.04  -0.06    -0.01   0.00   0.00
  46   6     0.04   0.03   0.06    -0.01   0.02  -0.01     0.00  -0.00  -0.00
  47   8    -0.00   0.03   0.06    -0.07   0.02  -0.03     0.01  -0.01  -0.00
  48   7     0.04   0.02   0.08     0.01  -0.00   0.04    -0.00   0.00  -0.00
  49   1     0.01  -0.00   0.02    -0.01  -0.01   0.03     0.00  -0.00  -0.00
  50   1     0.02  -0.00   0.02     0.01   0.01   0.02     0.00  -0.00  -0.00
  51   7     0.07   0.04   0.04     0.05   0.11  -0.09    -0.01  -0.00   0.00
  52   1     0.03   0.01   0.01     0.07   0.01  -0.02    -0.00  -0.00   0.00
  53   1     0.01   0.01   0.01     0.02   0.03  -0.05    -0.00  -0.00   0.00
                     28                     29                     30
                        a                      a                      a 
 Frequencies --   283.4088               287.2606               308.6526
 Red. masses --     6.4492                 3.6108                 7.2507
 Frc consts  --     0.0000                 0.0000                 0.0000
 IR Inten    --     0.2213                 1.0035                 3.7610
 Raman Activ --     0.0000                 0.0000                 0.0000
 Depolar     --     0.0000                 0.0000                 0.0000
 Atom AN      X      Y      Z        X      Y      Z        X      Y      Z
   1   8     0.03   0.00  -0.13     0.03   0.10   0.12    -0.18  -0.05  -0.34
   2   6    -0.18   0.36   0.05    -0.02   0.17   0.09    -0.24   0.02   0.04
   3   1    -0.02   0.29  -0.06     0.00   0.09   0.01    -0.04   0.08   0.00
   4   1    -0.18   0.12   0.18    -0.03   0.06   0.08    -0.11   0.01   0.08
   5   6     0.10  -0.05  -0.11    -0.04  -0.04   0.04    -0.06  -0.05   0.03
   6   1     0.08   0.00   0.02    -0.03  -0.04   0.01    -0.00  -0.04   0.04
   7   1     0.06  -0.05  -0.07    -0.02  -0.01   0.05    -0.04   0.02  -0.02
   8   7     0.04  -0.09  -0.05    -0.02  -0.07  -0.07     0.14  -0.00   0.06
   9   6    -0.08   0.27  -0.01    -0.06   0.21  -0.06     0.21  -0.18   0.05
  10   1    -0.04   0.11  -0.03     0.09  -0.06  -0.08     0.26  -0.30  -0.02
  11   1    -0.00   0.11   0.07    -0.18   0.06   0.10    -0.25  -0.12   0.05
  12   1    -0.05   0.10  -0.05     0.04   0.26  -0.06     0.19   0.23   0.02
  13   6     0.04  -0.31   0.10    -0.03  -0.14  -0.05     0.20  -0.10   0.21
  14   1     0.07   0.06   0.01    -0.11  -0.37   0.02     0.11  -0.02   0.05
  15   1    -0.14  -0.17  -0.06     0.17   0.10   0.23     0.01  -0.04   0.08
  16   1     0.09  -0.21   0.15    -0.09   0.11  -0.28     0.07  -0.05   0.10
  17   6     0.13  -0.23   0.05     0.11  -0.22  -0.06    -0.05   0.27  -0.09
  18   1    -0.09   0.05   0.05     0.22  -0.29  -0.07     0.05   0.08  -0.04
  19   1     0.09  -0.20   0.17    -0.08   0.06  -0.24    -0.02   0.17  -0.08
  20   1     0.14  -0.09  -0.15    -0.01   0.00   0.25    -0.13   0.06   0.01
  21   1    -0.03  -0.09  -0.02     0.00   0.01   0.04    -0.09  -0.04  -0.12
  22   6    -0.01   0.00   0.00    -0.00  -0.00   0.01    -0.01   0.01  -0.00
  23   8    -0.02  -0.00   0.01    -0.01  -0.01   0.01    -0.02   0.01  -0.00
  24   7     0.00  -0.01  -0.01     0.01   0.01   0.00     0.00   0.01  -0.00
  25   1    -0.01  -0.01  -0.00    -0.00   0.00   0.01     0.01   0.00  -0.00
  26   1     0.00  -0.00  -0.00     0.00   0.00  -0.00     0.00   0.00  -0.00
  27   7    -0.00   0.00  -0.00     0.00  -0.01  -0.00     0.02   0.02   0.01
  28   1     0.00   0.00  -0.00     0.00   0.00  -0.00     0.00  -0.00   0.01
  29   1    -0.00  -0.00   0.00    -0.00  -0.00   0.00    -0.00   0.01   0.01
  30   6    -0.00   0.00   0.00     0.00   0.00  -0.00     0.00   0.00  -0.00
  31   8    -0.01   0.00  -0.00     0.00   0.00   0.00     0.00   0.00  -0.00
  32   7     0.00   0.01  -0.00    -0.00  -0.00   0.00    -0.00   0.00   0.00
  33   1    -0.00   0.00   0.00     0.00  -0.00  -0.00     0.00  -0.00   0.00
  34   1    -0.01   0.01   0.01     0.00  -0.00  -0.01    -0.01   0.00   0.01
  35   7     0.01  -0.00   0.00    -0.00   0.01  -0.00     0.00   0.00  -0.00
  36   1     0.00  -0.00  -0.00    -0.00   0.00  -0.00     0.00   0.00  -0.00
  37   1     0.00  -0.00   0.00    -0.00   0.00  -0.00     0.00   0.00  -0.00
  38   6    -0.00   0.02   0.01     0.01  -0.01  -0.01     0.01   0.01   0.01
  39   8    -0.02   0.05   0.02     0.01  -0.02  -0.01    -0.01   0.03   0.02
  40   7     0.00  -0.01   0.00    -0.00   0.01  -0.01    -0.00   0.04   0.00
  41   1    -0.01   0.01   0.00     0.00   0.00  -0.00     0.01  -0.03  -0.00
  42   1    -0.00   0.00   0.00    -0.00   0.01  -0.00     0.04  -0.08  -0.01
  43   7    -0.01  -0.01   0.02     0.01   0.00  -0.02    -0.00  -0.02   0.02
  44   1    -0.00  -0.01   0.00     0.01  -0.01  -0.00    -0.01   0.00   0.00
  45   1    -0.01   0.00   0.01    -0.00   0.01  -0.00    -0.01   0.01   0.01
  46   6    -0.00   0.00   0.00     0.00  -0.00  -0.00     0.00  -0.00  -0.00
  47   8    -0.00   0.00   0.00     0.00  -0.00  -0.00    -0.00  -0.00  -0.00
  48   7     0.00  -0.00   0.00    -0.00   0.00  -0.00    -0.00   0.00   0.00
  49   1    -0.00   0.00   0.00     0.00   0.00  -0.00     0.00  -0.00  -0.00
  50   1    -0.00   0.00   0.00     0.00  -0.00  -0.00     0.01  -0.01  -0.00
  51   7     0.00   0.00  -0.00    -0.00  -0.00   0.00     0.00   0.00  -0.00
  52   1     0.00   0.00   0.00    -0.00  -0.00   0.00    -0.00   0.00   0.00
  53   1     0.00   0.00  -0.00    -0.00  -0.00   0.00    -0.00   0.00  -0.00
                     31                     32                     33
                        a                      a                      a 
 Frequencies --   311.2418               329.1683               345.7150
 Red. masses --     2.7662                 3.1283                 2.2192
 Frc consts  --     0.0000                 0.0000                 0.0000
 IR Inten    --   151.3093                 0.3670                41.7559
 Raman Activ --     0.0000                 0.0000                 0.0000
 Depolar     --     0.0000                 0.0000                 0.0000
 Atom AN      X      Y      Z        X      Y      Z        X      Y      Z
   1   8    -0.03  -0.00  -0.03    -0.06  -0.07  -0.14     0.00   0.00   0.00
   2   6    -0.03   0.00   0.00    -0.13   0.07   0.04     0.00   0.00  -0.00
   3   1    -0.01   0.01  -0.00    -0.01   0.07   0.01    -0.00   0.00  -0.00
   4   1    -0.01   0.00   0.01    -0.09   0.02   0.06     0.00   0.00   0.00
   5   6     0.01   0.00  -0.00     0.03   0.02   0.00     0.00   0.00  -0.00
   6   1     0.01   0.00   0.00     0.05   0.01   0.04     0.00   0.00  -0.00
   7   1     0.00   0.00  -0.01     0.02   0.01  -0.05     0.00   0.00  -0.00
   8   7     0.02   0.01   0.01     0.07   0.02  -0.00     0.01   0.00   0.00
   9   6     0.03  -0.02   0.01     0.07  -0.05  -0.00    -0.00  -0.00   0.00
  10   1     0.02  -0.02   0.00    -0.19   0.24   0.05    -0.01   0.00   0.00
  11   1    -0.01  -0.01  -0.00     0.36   0.04  -0.10     0.01   0.00  -0.00
  12   1     0.02   0.01   0.00    -0.10  -0.36   0.05    -0.01  -0.01  -0.00
  13   6     0.03  -0.01   0.04     0.09  -0.17   0.14     0.00  -0.00  -0.00
  14   1     0.01  -0.03   0.01    -0.04  -0.40   0.07    -0.00  -0.00   0.00
  15   1     0.02   0.01   0.03     0.19   0.09   0.31     0.00   0.00   0.00
  16   1     0.00   0.01  -0.01    -0.05   0.10  -0.21     0.00   0.00  -0.00
  17   6    -0.01   0.05  -0.01    -0.06   0.21  -0.10     0.00  -0.00   0.01
  18   1    -0.01   0.03  -0.00    -0.05   0.15  -0.02    -0.00  -0.00   0.00
  19   1    -0.00   0.01   0.00     0.01   0.05   0.02     0.00   0.00   0.00
  20   1    -0.01   0.01  -0.02    -0.05   0.03  -0.11     0.00   0.00   0.00
  21   1    -0.01  -0.03   0.01    -0.04  -0.04  -0.05     0.00   0.00  -0.00
  22   6    -0.00  -0.00  -0.00     0.01  -0.01   0.00     0.01   0.01  -0.01
  23   8    -0.00  -0.00   0.00     0.01  -0.01   0.01    -0.00   0.01  -0.00
  24   7    -0.00  -0.00   0.00     0.00  -0.00   0.01    -0.03  -0.02   0.04
  25   1     0.00   0.00  -0.00     0.00   0.00   0.00     0.06   0.01  -0.06
  26   1     0.00   0.00  -0.00     0.00   0.00   0.00     0.06  -0.00  -0.05
  27   7    -0.00  -0.00  -0.00    -0.01  -0.02  -0.01    -0.01  -0.01  -0.01
  28   1    -0.00  -0.00  -0.00    -0.00  -0.00  -0.01     0.02   0.01  -0.01
  29   1     0.00  -0.00  -0.00    -0.00  -0.01  -0.00    -0.01  -0.00   0.00
  30   6     0.01   0.01  -0.01    -0.01  -0.00   0.00    -0.04   0.02   0.04
  31   8     0.01   0.01  -0.00    -0.01  -0.00  -0.00    -0.06   0.02   0.05
  32   7    -0.01   0.00   0.01     0.00   0.00  -0.01     0.04   0.01  -0.02
  33   1     0.02  -0.01  -0.01     0.00  -0.00   0.00     0.00   0.01  -0.00
  34   1     0.03  -0.01  -0.03    -0.01   0.01   0.01     0.01   0.00  -0.00
  35   7    -0.01   0.02  -0.02     0.01  -0.01   0.00     0.03  -0.01  -0.02
  36   1    -0.01   0.00  -0.00     0.00  -0.00   0.00    -0.06   0.03   0.05
  37   1    -0.00   0.01  -0.00     0.00  -0.00   0.00    -0.03   0.01   0.02
  38   6    -0.03   0.05   0.03     0.00   0.01   0.00     0.00   0.00  -0.00
  39   8     0.02   0.00   0.04    -0.01   0.02   0.01    -0.00  -0.00  -0.01
  40   7     0.10  -0.32  -0.06     0.00   0.01   0.00     0.00   0.00   0.01
  41   1    -0.14   0.38   0.05     0.01  -0.02  -0.00    -0.00  -0.01   0.00
  42   1    -0.37   0.70   0.07     0.03  -0.05  -0.00     0.01  -0.00   0.00
  43   7    -0.00  -0.00  -0.03    -0.01  -0.00   0.02     0.01  -0.01  -0.00
  44   1     0.11  -0.20  -0.00    -0.01   0.02   0.00    -0.01   0.01  -0.00
  45   1     0.04  -0.05   0.00     0.00  -0.01   0.00    -0.01   0.01   0.00
  46   6     0.00  -0.00  -0.00    -0.00   0.00   0.00     0.07  -0.07  -0.06
  47   8     0.01  -0.00  -0.00    -0.00   0.00   0.00     0.03  -0.04  -0.04
  48   7    -0.00   0.00   0.00     0.00  -0.00  -0.00    -0.16   0.14   0.09
  49   1     0.00   0.00  -0.00    -0.00   0.00   0.00     0.10  -0.09  -0.04
  50   1     0.01  -0.01  -0.00    -0.01   0.01   0.00     0.56  -0.47  -0.28
  51   7    -0.01  -0.00   0.00     0.00   0.00  -0.00     0.04  -0.05   0.02
  52   1    -0.00  -0.00  -0.00     0.00  -0.00  -0.00    -0.33   0.31   0.08
  53   1     0.00  -0.00   0.00     0.00  -0.00  -0.00    -0.14   0.10   0.01
                     34                     35                     36
                        a                      a                      a 
 Frequencies --   377.3027               380.4690               397.2403
 Red. masses --     7.4171                 1.7382                 3.7569
 Frc consts  --     0.0000                 0.0000                 0.0000
 IR Inten    --     2.1313                 9.8094               154.0453
 Raman Activ --     0.0000                 0.0000                 0.0000
 Depolar     --     0.0000                 0.0000                 0.0000
 Atom AN      X      Y      Z        X      Y      Z        X      Y      Z
   1   8     0.05  -0.05   0.12     0.01  -0.01   0.04     0.00   0.00  -0.01
   2   6     0.08  -0.14   0.14     0.02  -0.03   0.02    -0.01   0.01  -0.00
   3   1     0.04  -0.12   0.10     0.01  -0.02   0.02    -0.00   0.01  -0.00
   4   1     0.07  -0.05  -0.05     0.01  -0.01  -0.01    -0.01   0.00   0.00
   5   6    -0.24   0.01   0.22    -0.05  -0.00   0.03     0.02  -0.01  -0.01
   6   1    -0.16  -0.10   0.01    -0.03  -0.02  -0.01     0.01   0.00   0.00
   7   1    -0.13   0.07   0.15    -0.03   0.01   0.03     0.01  -0.01  -0.01
   8   7    -0.03   0.05   0.01    -0.01   0.01   0.01    -0.01  -0.01  -0.01
   9   6     0.23   0.32  -0.06     0.05   0.05  -0.01    -0.01  -0.01  -0.01
  10   1     0.04   0.14  -0.12     0.01   0.02  -0.02    -0.00  -0.00  -0.01
  11   1     0.14   0.13   0.03     0.03   0.02   0.00    -0.00  -0.00  -0.00
  12   1     0.09   0.09   0.02     0.02   0.02   0.01    -0.00  -0.00  -0.00
  13   6    -0.11  -0.23   0.05    -0.02  -0.04   0.02     0.02   0.02   0.01
  14   1     0.01   0.01   0.00     0.00   0.00   0.00     0.01   0.00   0.00
  15   1    -0.17  -0.13  -0.02    -0.03  -0.02  -0.00     0.02   0.01   0.01
  16   1     0.05  -0.17   0.08     0.01  -0.03   0.02    -0.01   0.02   0.01
  17   6     0.01   0.11  -0.40     0.00   0.01  -0.07    -0.03  -0.01   0.02
  18   1     0.06   0.13  -0.13     0.01   0.02  -0.02    -0.02  -0.01   0.01
  19   1    -0.03  -0.03  -0.14    -0.01  -0.00  -0.03    -0.00   0.00   0.01
  20   1    -0.01   0.00  -0.20    -0.00  -0.00  -0.03    -0.01  -0.00   0.01
  21   1     0.01   0.02   0.00     0.00   0.03  -0.01     0.00  -0.02   0.01
  22   6     0.00  -0.00   0.00     0.00   0.00   0.01     0.01   0.00   0.03
  23   8    -0.01  -0.01   0.01    -0.01   0.02  -0.00    -0.00   0.02   0.01
  24   7     0.01  -0.01  -0.00     0.03  -0.00  -0.02     0.14   0.01  -0.14
  25   1    -0.01  -0.01   0.01    -0.03  -0.01   0.03    -0.14  -0.04   0.15
  26   1    -0.01  -0.01   0.01    -0.04  -0.01   0.04    -0.26  -0.02   0.24
  27   7    -0.01  -0.01  -0.01    -0.05  -0.01   0.01    -0.05  -0.01   0.03
  28   1    -0.00   0.00  -0.01     0.04   0.02  -0.02     0.06   0.03  -0.03
  29   1     0.01  -0.01  -0.01     0.03  -0.00  -0.02     0.02   0.00  -0.01
  30   6     0.00  -0.00  -0.01     0.01  -0.01   0.00     0.05  -0.03  -0.05
  31   8    -0.00  -0.01  -0.01     0.03   0.01   0.03     0.02  -0.03  -0.04
  32   7    -0.01   0.01   0.02     0.05  -0.02  -0.10    -0.07   0.05   0.08
  33   1     0.01  -0.00  -0.02    -0.07   0.03   0.10     0.02  -0.00  -0.04
  34   1     0.11  -0.04  -0.10    -0.49   0.18   0.46     0.20  -0.06  -0.18
  35   7     0.01  -0.00  -0.00    -0.07   0.01   0.04    -0.05   0.02   0.06
  36   1    -0.07   0.04   0.07     0.41  -0.22  -0.40     0.06  -0.03  -0.04
  37   1    -0.01   0.01   0.01     0.08  -0.04  -0.08     0.02  -0.02  -0.02
  38   6     0.00  -0.01   0.00     0.02  -0.02  -0.01    -0.01   0.00   0.00
  39   8     0.01  -0.01   0.00     0.02  -0.02  -0.01    -0.00   0.01   0.00
  40   7    -0.00   0.00  -0.00     0.00   0.01  -0.02    -0.00  -0.01   0.01
  41   1     0.00  -0.00  -0.00     0.01   0.01  -0.01    -0.01  -0.00   0.01
  42   1    -0.00  -0.00  -0.00    -0.02   0.04  -0.00     0.01  -0.01   0.01
  43   7     0.01   0.00  -0.00     0.01   0.03  -0.01    -0.01  -0.01   0.00
  44   1     0.01  -0.01  -0.00     0.03  -0.03  -0.00    -0.01   0.00   0.00
  45   1    -0.00   0.00  -0.00     0.01  -0.01  -0.00    -0.00  -0.00  -0.00
  46   6     0.00  -0.00  -0.00    -0.02   0.02   0.01    -0.10   0.05   0.04
  47   8     0.00  -0.00  -0.00    -0.03   0.02   0.01    -0.07   0.03   0.05
  48   7     0.00  -0.00  -0.00     0.02  -0.01  -0.00     0.09  -0.09  -0.10
  49   1    -0.00   0.00  -0.00    -0.00   0.00   0.00    -0.04   0.03  -0.00
  50   1    -0.00   0.00  -0.00     0.01  -0.00   0.00    -0.19   0.15   0.08
  51   7     0.00   0.00  -0.00     0.05  -0.06   0.00     0.24  -0.17  -0.04
  52   1    -0.01   0.01   0.00    -0.10   0.09   0.03    -0.41   0.50   0.15
  53   1    -0.00   0.00  -0.00    -0.03   0.01   0.01    -0.05   0.05  -0.09
                     37                     38                     39
                        a                      a                      a 
 Frequencies --   427.7041               433.7075               451.8122
 Red. masses --     8.7092                 3.5232                 1.7755
 Frc consts  --     0.0000                 0.0000                 0.0000
 IR Inten    --     1.6796               419.0153                 4.1219
 Raman Activ --     0.0000                 0.0000                 0.0000
 Depolar     --     0.0000                 0.0000                 0.0000
 Atom AN      X      Y      Z        X      Y      Z        X      Y      Z
   1   8     0.12  -0.02   0.24    -0.01  -0.00   0.00    -0.00  -0.00  -0.00
   2   6     0.07   0.13  -0.04     0.00   0.00  -0.01    -0.00  -0.00   0.00
   3   1     0.02   0.05  -0.02    -0.00  -0.00  -0.00    -0.00  -0.00   0.00
   4   1    -0.01   0.04   0.00    -0.00  -0.00   0.00     0.00  -0.00   0.00
   5   6    -0.16  -0.09  -0.06     0.01   0.01  -0.01    -0.00  -0.01   0.00
   6   1    -0.12  -0.12  -0.06     0.01   0.02  -0.00    -0.00  -0.01  -0.00
   7   1    -0.09   0.00   0.11     0.01  -0.00  -0.01    -0.00   0.00   0.00
   8   7    -0.12  -0.14  -0.28    -0.03   0.00   0.03     0.01  -0.00  -0.00
   9   6     0.07   0.03  -0.34     0.02  -0.01   0.01    -0.01   0.00   0.00
  10   1     0.02   0.02  -0.15     0.01  -0.01  -0.01    -0.00   0.00   0.00
  11   1     0.05   0.02  -0.08     0.01  -0.00  -0.00    -0.01   0.00   0.00
  12   1     0.05   0.02  -0.06     0.02   0.00   0.01    -0.01   0.00  -0.00
  13   6     0.31   0.07   0.23    -0.03   0.01   0.02     0.01  -0.00  -0.01
  14   1     0.27   0.01   0.03    -0.01   0.00   0.01    -0.00   0.00  -0.00
  15   1     0.10   0.04   0.12    -0.01   0.00   0.00     0.00  -0.00  -0.01
  16   1     0.01   0.08   0.20    -0.01   0.00   0.00     0.00  -0.00  -0.01
  17   6    -0.32  -0.02   0.14     0.00  -0.02  -0.02     0.00   0.01   0.01
  18   1    -0.19  -0.03   0.07     0.01  -0.00  -0.01    -0.00   0.00   0.00
  19   1    -0.01   0.08   0.11    -0.01  -0.02  -0.02     0.00   0.01   0.00
  20   1    -0.13  -0.01   0.07     0.01  -0.01  -0.01    -0.00   0.00   0.00
  21   1     0.05  -0.01   0.08    -0.00   0.02  -0.01    -0.00   0.00  -0.00
  22   6     0.01   0.01   0.01     0.00   0.02   0.01     0.00   0.02  -0.06
  23   8     0.01   0.01   0.01     0.02   0.01   0.02     0.09  -0.07   0.02
  24   7     0.02  -0.02  -0.01    -0.01  -0.05   0.00    -0.04   0.09  -0.01
  25   1    -0.04  -0.02   0.01     0.07   0.01  -0.04    -0.45  -0.17   0.16
  26   1    -0.01  -0.02   0.02    -0.12  -0.01   0.10     0.57  -0.06  -0.34
  27   7    -0.02  -0.01  -0.01     0.04   0.02  -0.05    -0.08   0.04   0.09
  28   1    -0.00   0.01  -0.02     0.08   0.02  -0.03    -0.23  -0.07   0.10
  29   1     0.01  -0.01  -0.02    -0.14  -0.02   0.09     0.17   0.05  -0.12
  30   6    -0.01   0.00   0.01    -0.13   0.05   0.11    -0.01   0.01   0.01
  31   8    -0.00   0.00   0.01    -0.04   0.03   0.06    -0.00   0.00   0.00
  32   7     0.01  -0.00  -0.01     0.17  -0.07  -0.18     0.02  -0.01  -0.02
  33   1    -0.00   0.00   0.00    -0.00  -0.00   0.04     0.00  -0.00   0.01
  34   1    -0.01   0.01   0.02    -0.35   0.12   0.31    -0.06   0.02   0.05
  35   7     0.01  -0.01  -0.01     0.18  -0.10  -0.15     0.04  -0.02  -0.03
  36   1    -0.03   0.01   0.03    -0.44   0.22   0.41    -0.06   0.03   0.06
  37   1    -0.00   0.00   0.00    -0.02   0.01   0.03    -0.02   0.01   0.02
  38   6    -0.01  -0.01   0.02     0.02  -0.02  -0.01     0.00  -0.00   0.00
  39   8    -0.00  -0.02   0.01     0.02  -0.02  -0.01    -0.00  -0.00   0.00
  40   7    -0.01   0.00  -0.02    -0.01   0.02   0.01    -0.00   0.00  -0.01
  41   1     0.02  -0.00  -0.02     0.01  -0.02  -0.01     0.01  -0.00  -0.01
  42   1    -0.02  -0.01  -0.02    -0.01   0.02   0.00    -0.01  -0.00  -0.00
  43   7     0.02   0.02  -0.01    -0.02   0.05  -0.01     0.00   0.01  -0.00
  44   1     0.02   0.00   0.00     0.05  -0.10  -0.00     0.01  -0.02   0.00
  45   1     0.01   0.00  -0.02     0.02  -0.02   0.00     0.00   0.00  -0.00
  46   6     0.01  -0.00  -0.01    -0.02   0.01   0.01    -0.00  -0.02   0.02
  47   8     0.01  -0.01  -0.01    -0.01   0.00   0.01    -0.01   0.03   0.05
  48   7    -0.01   0.01   0.01     0.04  -0.04  -0.06     0.02  -0.04  -0.05
  49   1     0.00  -0.00   0.00     0.00  -0.00  -0.01    -0.01   0.02  -0.01
  50   1     0.02  -0.01  -0.01    -0.14   0.11   0.06    -0.07   0.04   0.02
  51   7    -0.02   0.01   0.00     0.05  -0.04  -0.02     0.00  -0.01   0.01
  52   1     0.03  -0.04  -0.01    -0.11   0.16   0.05    -0.10   0.20   0.07
  53   1    -0.01   0.00   0.01     0.04  -0.02  -0.06     0.16  -0.10  -0.13
                     40                     41                     42
                        a                      a                      a 
 Frequencies --   455.6279               459.9865               466.7434
 Red. masses --     8.3192                 4.6792                 7.7898
 Frc consts  --     0.0000                 0.0000                 0.0000
 IR Inten    --     4.3412                66.7371                30.8413
 Raman Activ --     0.0000                 0.0000                 0.0000
 Depolar     --     0.0000                 0.0000                 0.0000
 Atom AN      X      Y      Z        X      Y      Z        X      Y      Z
   1   8    -0.02   0.00  -0.05    -0.02   0.00  -0.06    -0.00   0.00  -0.02
   2   6     0.01  -0.14   0.20    -0.01  -0.06   0.06    -0.00  -0.01   0.01
   3   1     0.00  -0.00   0.04    -0.01   0.00   0.00    -0.00   0.01  -0.01
   4   1     0.01  -0.03   0.11    -0.00  -0.01   0.05    -0.00  -0.00   0.02
   5   6     0.02  -0.28   0.13     0.10  -0.08   0.02     0.06  -0.04  -0.01
   6   1    -0.03  -0.15   0.04     0.08   0.03   0.03     0.05   0.03   0.01
   7   1    -0.04  -0.02   0.07     0.06  -0.06  -0.05     0.04  -0.04  -0.03
   8   7     0.28  -0.20  -0.07    -0.02  -0.09   0.06    -0.06  -0.05   0.03
   9   6    -0.27   0.22   0.06     0.01   0.07   0.06     0.05   0.03   0.01
  10   1    -0.13   0.11   0.07     0.00   0.03  -0.03     0.02   0.01  -0.03
  11   1    -0.09   0.11   0.16     0.01   0.03   0.06     0.02   0.02   0.02
  12   1    -0.17   0.09  -0.14     0.01   0.04   0.01     0.03   0.03   0.02
  13   6     0.22   0.02  -0.34    -0.02   0.09  -0.04    -0.02   0.07   0.02
  14   1    -0.01   0.06  -0.08    -0.03   0.04  -0.01    -0.00   0.02   0.01
  15   1     0.11  -0.00  -0.17     0.05   0.03  -0.04     0.03   0.03  -0.00
  16   1     0.04   0.03  -0.10    -0.03   0.06  -0.02    -0.03   0.04   0.01
  17   6    -0.09   0.24   0.06    -0.07  -0.01  -0.06    -0.07  -0.04  -0.05
  18   1    -0.09   0.12   0.03     0.00   0.03  -0.02    -0.00   0.01  -0.02
  19   1     0.05   0.18   0.06    -0.02   0.01  -0.03    -0.03  -0.01  -0.02
  20   1    -0.16   0.03  -0.00    -0.05  -0.02  -0.03    -0.03  -0.02  -0.02
  21   1    -0.02   0.01  -0.04    -0.01  -0.00  -0.02    -0.00  -0.01   0.00
  22   6     0.01  -0.01  -0.00     0.03   0.12   0.05     0.04   0.18   0.11
  23   8    -0.01   0.00  -0.01     0.09   0.06   0.12     0.12   0.18   0.14
  24   7    -0.03  -0.00   0.04     0.21  -0.10  -0.20    -0.08  -0.29   0.20
  25   1     0.09   0.03  -0.05    -0.47  -0.23   0.23     0.10  -0.10  -0.29
  26   1    -0.00   0.02  -0.02    -0.13  -0.15   0.30     0.30  -0.17  -0.04
  27   7     0.02  -0.01  -0.01    -0.19   0.03  -0.04    -0.13   0.03  -0.32
  28   1     0.01  -0.00  -0.00     0.01   0.09  -0.10     0.03   0.11  -0.18
  29   1    -0.03  -0.01   0.02     0.07  -0.03  -0.11    -0.20  -0.16   0.00
  30   6    -0.00   0.01   0.00    -0.02  -0.00   0.02     0.02  -0.02  -0.00
  31   8    -0.01   0.01  -0.01    -0.01  -0.00   0.02     0.02  -0.02   0.00
  32   7     0.00  -0.01  -0.00     0.03   0.02  -0.03    -0.01   0.04   0.02
  33   1     0.01  -0.01   0.00     0.00   0.01  -0.01    -0.00   0.02  -0.01
  34   1    -0.04   0.00   0.02    -0.03   0.03   0.05     0.07  -0.00  -0.04
  35   7     0.01  -0.00   0.00     0.01  -0.02  -0.05    -0.04   0.02  -0.00
  36   1    -0.01   0.01   0.02    -0.08   0.03   0.06     0.04  -0.03  -0.06
  37   1     0.00  -0.00   0.00    -0.00   0.01  -0.01     0.00   0.01  -0.02
  38   6    -0.01   0.01   0.02     0.01   0.01  -0.03     0.00   0.01  -0.03
  39   8    -0.01  -0.01   0.01     0.02   0.02  -0.02     0.02   0.02  -0.02
  40   7    -0.00  -0.01  -0.02     0.02  -0.01   0.03     0.01  -0.01   0.03
  41   1     0.02  -0.00  -0.02    -0.03   0.01   0.03    -0.03   0.02   0.03
  42   1    -0.02   0.01  -0.01     0.03   0.02   0.02     0.04  -0.01   0.02
  43   7     0.03  -0.00   0.00    -0.03  -0.04   0.01    -0.04  -0.02   0.00
  44   1     0.00   0.02   0.00    -0.05   0.04  -0.00    -0.03   0.00  -0.01
  45   1    -0.00   0.02  -0.01    -0.01  -0.01   0.01    -0.01  -0.01   0.01
  46   6    -0.01   0.00   0.01     0.04  -0.00  -0.04     0.02   0.10  -0.08
  47   8    -0.01   0.01   0.01     0.03  -0.05  -0.07    -0.07   0.06  -0.13
  48   7     0.01  -0.01  -0.01    -0.05   0.06   0.07     0.15  -0.00   0.13
  49   1    -0.00   0.00  -0.00     0.02  -0.02   0.01    -0.01  -0.04   0.08
  50   1    -0.03   0.02   0.01     0.12  -0.09  -0.04    -0.02   0.14   0.13
  51   7     0.01  -0.01  -0.00    -0.04   0.04   0.00    -0.06  -0.17   0.04
  52   1    -0.03   0.04   0.01     0.13  -0.23  -0.08    -0.20   0.01  -0.01
  53   1     0.02  -0.01  -0.02    -0.15   0.09   0.13     0.02  -0.07   0.10
                     43                     44                     45
                        a                      a                      a 
 Frequencies --   470.4496               475.3932               481.2059
 Red. masses --     8.5962                 7.8260                 8.3514
 Frc consts  --     0.0000                 0.0000                 0.0000
 IR Inten    --    36.0508                48.3061                28.6742
 Raman Activ --     0.0000                 0.0000                 0.0000
 Depolar     --     0.0000                 0.0000                 0.0000
 Atom AN      X      Y      Z        X      Y      Z        X      Y      Z
   1   8    -0.00   0.01   0.02     0.01   0.01  -0.05     0.01   0.00  -0.05
   2   6     0.00  -0.01   0.04     0.00  -0.04   0.05     0.01  -0.03   0.03
   3   1    -0.00  -0.00   0.01    -0.01   0.03  -0.02    -0.01   0.04  -0.03
   4   1     0.01  -0.00   0.01    -0.01  -0.00   0.07    -0.01   0.00   0.07
   5   6     0.02  -0.04   0.01     0.18  -0.14  -0.03     0.15  -0.13  -0.04
   6   1     0.03   0.01   0.02     0.15   0.08   0.04     0.11   0.06   0.02
   7   1     0.02  -0.02  -0.01     0.12  -0.12  -0.11     0.10  -0.09  -0.09
   8   7    -0.03  -0.04  -0.01    -0.15  -0.17   0.11    -0.11  -0.14   0.10
   9   6     0.02   0.05  -0.03     0.16   0.14   0.04     0.13   0.11   0.06
  10   1     0.00   0.02  -0.03     0.05   0.06  -0.10     0.04   0.05  -0.08
  11   1     0.02   0.02   0.01     0.09   0.07   0.06     0.08   0.06   0.06
  12   1     0.01   0.02  -0.00     0.09   0.07   0.05     0.07   0.06   0.05
  13   6     0.02   0.04   0.01    -0.05   0.21   0.06    -0.04   0.17   0.04
  14   1     0.02   0.02  -0.00    -0.01   0.08   0.02    -0.02   0.07   0.01
  15   1     0.02   0.02  -0.00     0.09   0.08  -0.02     0.07   0.06  -0.02
  16   1    -0.01   0.03   0.02    -0.08   0.13   0.03    -0.06   0.10   0.02
  17   6    -0.06  -0.02  -0.02    -0.19  -0.10  -0.15    -0.15  -0.07  -0.12
  18   1    -0.02   0.00  -0.01    -0.00   0.03  -0.06     0.00   0.03  -0.05
  19   1    -0.01   0.01  -0.00    -0.07  -0.03  -0.07    -0.06  -0.02  -0.06
  20   1    -0.03  -0.01  -0.01    -0.09  -0.05  -0.08    -0.07  -0.04  -0.07
  21   1    -0.01   0.02  -0.02     0.00  -0.03   0.00     0.01  -0.04   0.02
  22   6    -0.02  -0.07  -0.04    -0.00   0.01   0.01    -0.03  -0.14  -0.06
  23   8    -0.05  -0.06  -0.06    -0.02   0.01   0.02    -0.09  -0.10  -0.13
  24   7    -0.03   0.09  -0.01    -0.03  -0.04   0.04    -0.04   0.20  -0.02
  25   1     0.06   0.06   0.03     0.10   0.02  -0.08     0.04   0.10   0.11
  26   1    -0.02   0.07  -0.07     0.01  -0.00  -0.02    -0.01   0.13  -0.14
  27   7     0.08  -0.01   0.08     0.03  -0.00  -0.07     0.10  -0.05   0.21
  28   1    -0.04  -0.06   0.08    -0.01  -0.00  -0.01     0.02  -0.08   0.12
  29   1     0.02   0.04   0.03    -0.03  -0.03   0.01     0.06   0.09   0.05
  30   6     0.02  -0.07   0.05    -0.00   0.07  -0.04    -0.00  -0.03   0.02
  31   8     0.02  -0.08   0.05    -0.03   0.05  -0.07     0.01  -0.02   0.03
  32   7     0.06   0.10   0.01    -0.06  -0.11   0.02     0.03   0.08  -0.02
  33   1     0.01   0.04  -0.05     0.02  -0.07   0.05    -0.02   0.04  -0.03
  34   1     0.02   0.07   0.07    -0.04  -0.08  -0.05     0.04   0.04   0.01
  35   7    -0.08   0.03  -0.13     0.05   0.02   0.09    -0.01  -0.03  -0.02
  36   1    -0.08  -0.03  -0.07     0.12  -0.00  -0.02    -0.04  -0.00   0.01
  37   1    -0.03   0.08  -0.04     0.01  -0.03   0.04     0.00   0.00  -0.01
  38   6     0.04   0.07  -0.27     0.01  -0.00  -0.00    -0.01  -0.03   0.08
  39   8     0.23   0.17  -0.18     0.00   0.01  -0.00    -0.07  -0.05   0.06
  40   7     0.15  -0.03   0.29    -0.00   0.01   0.01    -0.06   0.02  -0.08
  41   1    -0.23   0.01   0.26    -0.02   0.02   0.01     0.08  -0.02  -0.08
  42   1     0.26   0.08   0.21     0.02  -0.02   0.00    -0.08  -0.03  -0.06
  43   7    -0.34  -0.21   0.02    -0.02   0.01  -0.00     0.10   0.08  -0.01
  44   1    -0.25  -0.02  -0.06     0.02  -0.06  -0.00     0.10  -0.04   0.02
  45   1    -0.06  -0.10   0.13    -0.01   0.00   0.01     0.02   0.03  -0.04
  46   6     0.00   0.01  -0.01    -0.05  -0.12   0.13     0.03   0.11  -0.11
  47   8    -0.01   0.01  -0.02     0.06  -0.03   0.23    -0.06   0.04  -0.20
  48   7     0.03  -0.00   0.02    -0.15  -0.05  -0.21     0.14   0.03   0.18
  49   1     0.00  -0.01   0.01    -0.01   0.07  -0.10    -0.00  -0.06   0.10
  50   1    -0.00   0.02   0.02    -0.06  -0.11  -0.13     0.06   0.10   0.12
  51   7    -0.01  -0.03   0.01     0.08   0.20  -0.03    -0.07  -0.18   0.02
  52   1    -0.03   0.01   0.00     0.18   0.13   0.08    -0.18  -0.09  -0.06
  53   1     0.02  -0.02   0.01     0.13  -0.00  -0.24    -0.09  -0.01   0.19
                     46                     47                     48
                        a                      a                      a 
 Frequencies --   486.2128               494.5339               501.6396
 Red. masses --     2.4974                 3.4761                 3.0744
 Frc consts  --     0.0000                 0.0000                 0.0000
 IR Inten    --   174.2600                96.0423                30.8604
 Raman Activ --     0.0000                 0.0000                 0.0000
 Depolar     --     0.0000                 0.0000                 0.0000
 Atom AN      X      Y      Z        X      Y      Z        X      Y      Z
   1   8     0.00   0.00   0.01     0.00   0.00   0.01    -0.00   0.01   0.00
   2   6     0.00  -0.00  -0.00     0.00   0.00   0.00     0.00   0.00  -0.01
   3   1    -0.00  -0.00  -0.00     0.00  -0.00   0.00    -0.00   0.00  -0.01
   4   1     0.00  -0.00  -0.00     0.00  -0.00  -0.00    -0.00   0.00   0.00
   5   6     0.01  -0.00  -0.01    -0.01   0.00   0.00    -0.02  -0.01  -0.01
   6   1     0.01   0.00   0.00    -0.00  -0.00   0.00    -0.02  -0.01  -0.02
   7   1     0.01  -0.00  -0.01    -0.00   0.00   0.00    -0.02   0.01   0.01
   8   7    -0.02   0.00   0.01    -0.00   0.00  -0.01     0.03   0.00   0.01
   9   6     0.03   0.01  -0.00     0.00   0.00  -0.01    -0.02  -0.01   0.02
  10   1     0.02  -0.00  -0.02     0.00  -0.00  -0.00    -0.01   0.00   0.02
  11   1     0.00   0.00   0.00    -0.00   0.00  -0.00    -0.01  -0.00   0.00
  12   1     0.02   0.01   0.01     0.00   0.00  -0.00    -0.01  -0.01  -0.00
  13   6    -0.01   0.02   0.02     0.00  -0.00   0.00     0.01  -0.01  -0.02
  14   1     0.00   0.01   0.00     0.01  -0.00  -0.00    -0.01  -0.00  -0.00
  15   1    -0.00   0.01   0.00    -0.00  -0.00   0.00    -0.00  -0.01  -0.01
  16   1    -0.01   0.01   0.01     0.00  -0.00   0.00     0.01  -0.01  -0.01
  17   6    -0.01  -0.01  -0.02    -0.00  -0.00   0.00     0.01   0.02   0.02
  18   1     0.01  -0.00  -0.01    -0.00  -0.00   0.00    -0.00   0.01   0.01
  19   1    -0.01  -0.01  -0.01     0.00  -0.00   0.00     0.01   0.01   0.01
  20   1    -0.00  -0.00  -0.01     0.00   0.00   0.00     0.00   0.00   0.00
  21   1     0.00  -0.02   0.02    -0.00   0.00  -0.00     0.01  -0.03   0.03
  22   6    -0.00  -0.02  -0.00     0.02  -0.01  -0.03    -0.00   0.00   0.00
  23   8    -0.01  -0.01  -0.01     0.02  -0.02  -0.03    -0.01   0.01  -0.00
  24   7    -0.00   0.02  -0.00    -0.09   0.04   0.07     0.02  -0.00  -0.01
  25   1     0.02   0.02   0.01    -0.03  -0.00  -0.02    -0.00  -0.00   0.01
  26   1    -0.03   0.02   0.00     0.22   0.01  -0.16    -0.04   0.00   0.03
  27   7     0.02  -0.01   0.01    -0.00  -0.01   0.01    -0.01  -0.01   0.01
  28   1     0.02  -0.00   0.01     0.09  -0.01   0.01    -0.01   0.01  -0.01
  29   1    -0.01   0.00   0.02    -0.08   0.02   0.07     0.05   0.01  -0.04
  30   6    -0.02   0.01   0.01    -0.01   0.05  -0.02    -0.01   0.03  -0.02
  31   8    -0.01   0.02   0.01    -0.02   0.05  -0.03    -0.01   0.02  -0.02
  32   7     0.00  -0.03  -0.02    -0.02  -0.08  -0.00    -0.01  -0.02  -0.00
  33   1     0.02  -0.02  -0.01     0.02  -0.04   0.03     0.00  -0.01   0.02
  34   1    -0.07   0.01   0.05    -0.05  -0.04  -0.01    -0.00  -0.02  -0.02
  35   7     0.03  -0.02   0.01     0.05  -0.00   0.06     0.02   0.00   0.03
  36   1    -0.02   0.02   0.04     0.03   0.03   0.05     0.02   0.01   0.01
[...]
  44   1     0.01   0.00  -0.02    -0.01  -0.01   0.02     0.00   0.00  -0.00
  45   1    -0.12  -0.11   0.00     0.12   0.11  -0.00    -0.03  -0.02   0.00
  46   6    -0.01  -0.00  -0.01    -0.00   0.00   0.00    -0.00  -0.00   0.00
  47   8     0.00  -0.00  -0.00     0.00   0.00   0.00     0.00   0.00  -0.00
  48   7    -0.11  -0.05  -0.15     0.02   0.01   0.03    -0.00   0.00  -0.00
  49   1     0.42   0.15   0.62    -0.08  -0.03  -0.13     0.00   0.00   0.00
  50   1     0.00   0.05  -0.08    -0.00  -0.01   0.02    -0.00   0.00  -0.00
  51   7     0.00  -0.00   0.00    -0.00   0.00  -0.00     0.00   0.00  -0.00
  52   1    -0.00  -0.00   0.01     0.00   0.00  -0.00     0.00   0.00  -0.00
  53   1     0.01   0.01   0.00    -0.00  -0.00  -0.00    -0.00  -0.00   0.00
                    142                    143                    144
                        a                      a                      a 
 Frequencies --  3386.4483              3485.6319              3487.3951
 Red. masses --     1.6809                 1.4568                 1.4537
 Frc consts  --     0.0000                 0.0000                 0.0000
 IR Inten    --   273.2034                19.7616                18.1595
 Raman Activ --     0.0000                 0.0000                 0.0000
 Depolar     --     0.0000                 0.0000                 0.0000
 Atom AN      X      Y      Z        X      Y      Z        X      Y      Z
   1   8     0.01  -0.00  -0.01     0.00   0.00   0.00    -0.00   0.00   0.00
   2   6     0.00   0.00  -0.00    -0.00  -0.00  -0.00     0.00   0.00   0.00
   3   1    -0.00   0.00   0.00    -0.00   0.00   0.00     0.00  -0.00  -0.00
   4   1     0.00  -0.00   0.00    -0.00  -0.00   0.00    -0.00   0.00  -0.00
   5   6     0.00   0.00   0.00     0.00   0.00   0.00    -0.00  -0.00  -0.00
   6   1    -0.00   0.00   0.00     0.00  -0.00  -0.00     0.00  -0.00  -0.00
   7   1    -0.00  -0.00  -0.00    -0.00  -0.00  -0.00     0.00   0.00   0.00
   8   7     0.00  -0.00  -0.00     0.00  -0.00  -0.00    -0.00  -0.00   0.00
   9   6     0.00   0.00   0.00     0.00   0.00   0.00    -0.00  -0.00  -0.00
  10   1    -0.00  -0.00  -0.00    -0.00  -0.00  -0.00     0.00   0.00   0.00
  11   1    -0.00   0.00  -0.00     0.00   0.00  -0.00    -0.00  -0.00   0.00
  12   1    -0.00   0.00   0.00    -0.00  -0.00  -0.00     0.00  -0.00  -0.00
  13   6     0.00   0.00   0.00     0.00   0.00   0.00    -0.00  -0.00  -0.00
  14   1     0.00  -0.00   0.00    -0.00   0.00  -0.00    -0.00  -0.00  -0.00
  15   1    -0.00   0.00  -0.00     0.00  -0.00  -0.00    -0.00  -0.00   0.00
  16   1    -0.00  -0.00  -0.00    -0.00  -0.00  -0.00     0.00   0.00   0.00
  17   6     0.00  -0.00   0.00     0.00  -0.00   0.00    -0.00   0.00  -0.00
  18   1     0.00  -0.00  -0.00    -0.00   0.00  -0.00    -0.00  -0.00   0.00
  19   1    -0.00   0.00   0.00    -0.00   0.00  -0.00     0.00  -0.00  -0.00
  20   1    -0.00   0.00  -0.00     0.00  -0.00  -0.00    -0.00  -0.00  -0.00
  21   1    -0.03   0.02   0.03    -0.00  -0.00  -0.00     0.00  -0.00  -0.00
  22   6     0.00  -0.01  -0.00    -0.00  -0.00  -0.00     0.00   0.00   0.00
  23   8     0.00   0.01   0.00     0.00   0.00   0.00    -0.00  -0.00  -0.00
  24   7     0.00   0.01   0.00    -0.01  -0.00  -0.00     0.14  -0.01   0.12
  25   1    -0.01   0.01   0.00     0.01  -0.02   0.00    -0.29   0.60  -0.12
  26   1    -0.01  -0.03  -0.01     0.01   0.02   0.01    -0.25  -0.58  -0.32
  27   7     0.03  -0.18  -0.13    -0.00   0.00   0.00    -0.00   0.01  -0.00
  28   1    -0.01   0.67   0.67     0.00  -0.01  -0.01    -0.00  -0.02  -0.02
  29   1    -0.12   0.02  -0.18     0.01  -0.00   0.01     0.01  -0.00   0.02
  30   6    -0.00   0.00   0.00    -0.00  -0.00  -0.00     0.00  -0.00   0.00
  31   8     0.00  -0.00  -0.00     0.00  -0.00   0.00    -0.00   0.00   0.00
  32   7     0.00   0.00   0.00     0.00  -0.00   0.00    -0.00   0.00  -0.00
  33   1    -0.01  -0.01  -0.00    -0.00  -0.00  -0.00     0.00   0.00   0.00
  34   1    -0.00   0.00  -0.00    -0.00   0.00  -0.00     0.00  -0.00   0.00
  35   7    -0.01  -0.00  -0.01     0.00   0.00   0.00     0.00   0.00   0.00
  36   1    -0.00   0.01  -0.01     0.00  -0.00   0.00     0.00  -0.00   0.00
  37   1     0.04   0.00   0.05    -0.01  -0.00  -0.01    -0.00  -0.00  -0.00
  38   6    -0.00   0.00  -0.00    -0.00  -0.00  -0.00     0.00   0.00  -0.00
  39   8     0.00  -0.00   0.00     0.00   0.00   0.00    -0.00  -0.00   0.00
  40   7     0.00  -0.00   0.00    -0.00  -0.00  -0.00    -0.00  -0.00   0.00
  41   1    -0.00   0.00  -0.00     0.00   0.00   0.00     0.00   0.00   0.00
  42   1    -0.00  -0.00   0.00     0.00   0.00  -0.00     0.00   0.00  -0.00
  43   7     0.00   0.00   0.00     0.00   0.00   0.00    -0.00  -0.00  -0.00
  44   1     0.00   0.00  -0.00     0.00   0.00  -0.00    -0.00  -0.00   0.00
  45   1    -0.00  -0.00   0.00    -0.00  -0.00  -0.00     0.00   0.00  -0.00
  46   6     0.00   0.01  -0.01     0.00  -0.00  -0.00    -0.00  -0.00  -0.00
  47   8    -0.00  -0.00   0.00    -0.00  -0.00   0.00     0.00   0.00   0.00
  48   7    -0.01  -0.01  -0.01     0.00  -0.00   0.01     0.00   0.00  -0.00
  49   1     0.02   0.01   0.03    -0.01  -0.00  -0.01    -0.00  -0.00  -0.00
  50   1    -0.00   0.00  -0.00     0.00   0.01  -0.02     0.00  -0.00   0.00
  51   7    -0.00  -0.00   0.00    -0.06  -0.07  -0.16    -0.00  -0.00  -0.01
  52   1    -0.00  -0.00   0.01    -0.17  -0.32   0.58    -0.01  -0.01   0.03
  53   1     0.01   0.01  -0.00     0.40   0.58   0.02     0.01   0.02   0.00
                    145                    146                    147
                        a                      a                      a 
 Frequencies --  3492.9253              3516.2897              3526.1012
 Red. masses --     1.4522                 1.8805                 1.9641
 Frc consts  --     0.0000                 0.0000                 0.0000
 IR Inten    --    26.9121                10.3386                19.4603
 Raman Activ --     0.0000                 0.0000                 0.0000
 Depolar     --     0.0000                 0.0000                 0.0000
 Atom AN      X      Y      Z        X      Y      Z        X      Y      Z
   1   8     0.00  -0.00  -0.00     0.00  -0.00  -0.00     0.00  -0.00  -0.00
   2   6     0.00  -0.00   0.00     0.00  -0.00  -0.00    -0.00  -0.00  -0.00
   3   1    -0.00   0.00  -0.00    -0.00   0.00   0.00     0.00  -0.00  -0.00
   4   1    -0.00   0.00  -0.00     0.00   0.00  -0.00    -0.00   0.00  -0.00
   5   6     0.00  -0.00  -0.00    -0.00  -0.00   0.00    -0.00  -0.00  -0.00
   6   1    -0.00   0.00   0.00     0.00  -0.00  -0.00    -0.00  -0.00   0.00
   7   1    -0.00  -0.00  -0.00     0.00   0.00   0.00     0.00   0.00   0.00
   8   7     0.00  -0.00  -0.00     0.00  -0.00  -0.00     0.00   0.00   0.00
   9   6     0.00   0.00  -0.00     0.00  -0.00  -0.00    -0.00  -0.00   0.00
  10   1    -0.00  -0.00  -0.00     0.00   0.00  -0.00     0.00   0.00  -0.00
  11   1     0.00  -0.00  -0.00    -0.00   0.00  -0.00    -0.00  -0.00  -0.00
  12   1    -0.00   0.00   0.00    -0.00   0.00   0.00     0.00  -0.00  -0.00
  13   6     0.00   0.00   0.00     0.00  -0.00  -0.00    -0.00  -0.00  -0.00
  14   1     0.00   0.00   0.00     0.00  -0.00  -0.00    -0.00  -0.00  -0.00
  15   1     0.00   0.00  -0.00    -0.00   0.00  -0.00    -0.00   0.00  -0.00
  16   1    -0.00  -0.00  -0.00     0.00  -0.00   0.00     0.00   0.00   0.00
  17   6     0.00  -0.00  -0.00     0.00  -0.00  -0.00    -0.00  -0.00  -0.00
  18   1     0.00  -0.00   0.00     0.00  -0.00  -0.00     0.00  -0.00   0.00
  19   1    -0.00   0.00   0.00    -0.00  -0.00   0.00    -0.00  -0.00   0.00
  20   1     0.00  -0.00  -0.00    -0.00   0.00  -0.00    -0.00   0.00  -0.00
  21   1    -0.01   0.01   0.01    -0.00   0.00   0.00    -0.00   0.00   0.00
  22   6    -0.00  -0.00  -0.00    -0.00   0.00   0.00    -0.01  -0.00  -0.01
  23   8     0.00   0.00   0.00     0.00  -0.00  -0.00     0.00  -0.00   0.00
  24   7    -0.00   0.00  -0.00     0.00  -0.00   0.00    -0.00   0.02   0.00
  25   1     0.00  -0.00   0.00    -0.00   0.00  -0.00     0.03  -0.06   0.01
  26   1     0.00   0.00   0.00    -0.00  -0.00  -0.00    -0.01  -0.03  -0.02
  27   7    -0.00   0.00  -0.00    -0.00  -0.00  -0.00    -0.14  -0.00  -0.23
  28   1    -0.00   0.00   0.00    -0.00   0.00   0.00    -0.02   0.14   0.13
  29   1     0.00  -0.00   0.00     0.00  -0.00   0.00     0.56  -0.13   0.75
  30   6    -0.00  -0.00  -0.00     0.00  -0.00   0.00     0.00  -0.00   0.00
  31   8     0.00   0.00  -0.00     0.00   0.00  -0.00    -0.00   0.00  -0.00
  32   7     0.00   0.00   0.00    -0.00  -0.00   0.00    -0.00   0.01  -0.00
  33   1    -0.01  -0.01  -0.00     0.00   0.00   0.00    -0.00  -0.00  -0.00
  34   1    -0.00   0.01  -0.00    -0.00   0.01  -0.00     0.00  -0.02   0.01
  35   7     0.00   0.00  -0.00     0.00   0.00  -0.00    -0.00   0.00  -0.00
  36   1     0.00  -0.00   0.00     0.00  -0.01   0.00     0.00  -0.00   0.00
  37   1    -0.00   0.00  -0.00    -0.00  -0.00  -0.00     0.01   0.00   0.00
  38   6    -0.00   0.00   0.00    -0.01  -0.00   0.00    -0.00  -0.00   0.00
  39   8     0.00   0.00  -0.00     0.00   0.00  -0.00     0.00   0.00  -0.00
  40   7    -0.17  -0.07   0.01    -0.01  -0.00  -0.02     0.00   0.00   0.00
  41   1     0.39   0.05   0.58     0.05   0.01   0.07    -0.00  -0.00  -0.00
  42   1     0.25   0.19  -0.61    -0.00   0.00  -0.00     0.00   0.00  -0.00
  43   7     0.01   0.01  -0.01    -0.11  -0.06   0.22     0.00   0.00  -0.00
  44   1    -0.02  -0.01   0.05     0.39   0.20  -0.85    -0.00  -0.00   0.00
  45   1    -0.01  -0.01  -0.00     0.04   0.04   0.02    -0.00  -0.00   0.00
  46   6    -0.00  -0.00  -0.00    -0.00  -0.00  -0.00     0.00   0.00  -0.00
  47   8     0.00   0.00   0.00     0.00  -0.00   0.00    -0.00  -0.00   0.00
  48   7     0.00   0.00   0.00     0.00   0.00  -0.00    -0.00  -0.00   0.00
  49   1    -0.00  -0.00  -0.00    -0.00  -0.00  -0.00     0.00   0.00   0.00
  50   1    -0.00  -0.00   0.00    -0.00  -0.01   0.01     0.00   0.00  -0.01
  51   7     0.00   0.00   0.00     0.00   0.00   0.00     0.00  -0.00   0.00
  52   1     0.00   0.00  -0.00     0.00   0.00  -0.00     0.00   0.00  -0.01
  53   1    -0.00  -0.00   0.00    -0.00  -0.00  -0.00    -0.00  -0.00   0.00
                    148                    149                    150
                        a                      a                      a 
 Frequencies --  3531.0235              3536.8505              3538.4371
 Red. masses --     1.9071                 1.9019                 1.9280
 Frc consts  --     0.0000                 0.0000                 0.0000
 IR Inten    --     2.5094                32.8056                11.4358
 Raman Activ --     0.0000                 0.0000                 0.0000
 Depolar     --     0.0000                 0.0000                 0.0000
 Atom AN      X      Y      Z        X      Y      Z        X      Y      Z
   1   8     0.00  -0.00  -0.00     0.00  -0.00  -0.00     0.00  -0.00  -0.00
   2   6    -0.00  -0.00  -0.00    -0.00  -0.00  -0.00     0.00   0.00   0.00
   3   1     0.00  -0.00   0.00     0.00  -0.00   0.00     0.00  -0.00  -0.00
   4   1    -0.00   0.00   0.00    -0.00   0.00   0.00    -0.00  -0.00   0.00
   5   6     0.00   0.00  -0.00     0.00  -0.00  -0.00     0.00   0.00  -0.00
   6   1    -0.00  -0.00  -0.00    -0.00  -0.00  -0.00    -0.00   0.00   0.00
   7   1     0.00   0.00   0.00     0.00   0.00  -0.00    -0.00  -0.00  -0.00
   8   7    -0.00   0.00   0.00    -0.00   0.00   0.00     0.00  -0.00   0.00
   9   6     0.00  -0.00   0.00     0.00  -0.00  -0.00     0.00   0.00  -0.00
  10   1    -0.00  -0.00   0.00     0.00   0.00   0.00    -0.00  -0.00   0.00
  11   1    -0.00   0.00  -0.00    -0.00   0.00   0.00     0.00  -0.00  -0.00
  12   1    -0.00  -0.00   0.00    -0.00  -0.00   0.00     0.00   0.00   0.00
  13   6     0.00   0.00  -0.00     0.00   0.00  -0.00     0.00   0.00  -0.00
  14   1    -0.00   0.00   0.00     0.00   0.00   0.00     0.00   0.00   0.00
  15   1    -0.00   0.00  -0.00    -0.00   0.00  -0.00     0.00  -0.00  -0.00
  16   1    -0.00  -0.00  -0.00     0.00   0.00  -0.00    -0.00  -0.00  -0.00
  17   6     0.00  -0.00  -0.00     0.00  -0.00  -0.00    -0.00   0.00  -0.00
  18   1    -0.00   0.00   0.00    -0.00   0.00   0.00     0.00   0.00   0.00
  19   1    -0.00   0.00   0.00    -0.00   0.00   0.00     0.00   0.00  -0.00
  20   1     0.00   0.00   0.00    -0.00   0.00   0.00     0.00  -0.00  -0.00
  21   1    -0.00   0.00   0.00    -0.00   0.00   0.00    -0.00   0.00   0.00
  22   6    -0.00  -0.00  -0.00     0.00   0.00   0.00     0.00   0.00   0.00
  23   8     0.00   0.00   0.00    -0.00  -0.00  -0.00     0.00  -0.00  -0.00
  24   7     0.00  -0.00   0.00    -0.00  -0.00  -0.00    -0.00   0.01   0.00
  25   1    -0.00   0.00  -0.00    -0.00   0.00  -0.00     0.01  -0.01   0.00
  26   1     0.00   0.00   0.00     0.00   0.00   0.00    -0.00  -0.01  -0.01
  27   7     0.00   0.00   0.00     0.00  -0.00   0.00     0.00  -0.00   0.00
  28   1     0.00  -0.00  -0.00     0.00  -0.00  -0.00     0.00   0.00   0.00
  29   1    -0.00   0.00  -0.01    -0.01   0.00  -0.02    -0.00   0.00  -0.01
  30   6     0.00   0.00   0.00    -0.00   0.01  -0.01    -0.00  -0.00   0.00
  31   8    -0.00  -0.00  -0.00     0.00  -0.00   0.00    -0.00   0.00  -0.00
  32   7    -0.02   0.15  -0.08    -0.03   0.17  -0.10     0.00  -0.01   0.00
  33   1    -0.05  -0.05  -0.02    -0.06  -0.06  -0.02     0.00   0.00   0.00
  34   1     0.13  -0.50   0.33     0.15  -0.60   0.39    -0.00   0.02  -0.01
  35   7     0.04  -0.15   0.12    -0.03   0.13  -0.10    -0.00   0.01  -0.00
  36   1    -0.11   0.59  -0.44     0.09  -0.49   0.36     0.00  -0.02   0.01
  37   1    -0.04  -0.02  -0.04     0.03   0.01   0.03     0.00   0.00  -0.00
  38   6     0.00   0.00  -0.00     0.00   0.00  -0.00     0.00   0.00   0.00
  39   8    -0.00  -0.00   0.00    -0.00  -0.00   0.00    -0.00  -0.00  -0.00
  40   7    -0.00  -0.00   0.00    -0.00  -0.00   0.00    -0.00  -0.00  -0.00
  41   1     0.00   0.00   0.00    -0.00  -0.00  -0.00     0.00   0.00   0.00
  42   1     0.00   0.00  -0.01     0.00   0.00  -0.01    -0.00  -0.00   0.00
  43   7    -0.00  -0.00   0.00     0.00   0.00   0.00    -0.00  -0.00   0.00
  44   1     0.00   0.00  -0.01     0.00   0.00  -0.00     0.00   0.00  -0.01
  45   1    -0.00  -0.00   0.00    -0.00  -0.00   0.00     0.00   0.00   0.00
  46   6    -0.00  -0.00   0.00     0.00   0.00  -0.00     0.00   0.00   0.01
  47   8    -0.00   0.00  -0.00     0.00  -0.00   0.00    -0.00   0.00  -0.00
  48   7    -0.00  -0.00   0.01    -0.00  -0.00   0.00    -0.01  -0.14   0.21
  49   1    -0.00  -0.00  -0.00     0.00   0.00   0.00    -0.05  -0.03  -0.06
  50   1     0.00   0.02  -0.02     0.00   0.00  -0.01     0.09   0.54  -0.73
  51   7     0.00   0.00  -0.00    -0.00  -0.00   0.00     0.04   0.07  -0.04
  52   1    -0.00  -0.01   0.01     0.00   0.01  -0.01    -0.04  -0.08   0.16
  53   1    -0.00  -0.01  -0.00     0.01   0.01   0.00    -0.12  -0.17  -0.01
                    151                    152                    153
                        a                      a                      a 
 Frequencies --  3547.7802              3550.5864              3557.3064
 Red. masses --     2.1457                 2.1754                 2.1833
 Frc consts  --     0.0000                 0.0000                 0.0000
 IR Inten    --    18.2660                10.7956                18.7059
 Raman Activ --     0.0000                 0.0000                 0.0000
 Depolar     --     0.0000                 0.0000                 0.0000
 Atom AN      X      Y      Z        X      Y      Z        X      Y      Z
   1   8    -0.00   0.00   0.00     0.00   0.00  -0.00    -0.00   0.00   0.00
   2   6    -0.00   0.00   0.00    -0.00  -0.00  -0.00     0.00  -0.00  -0.00
   3   1     0.00  -0.00  -0.00    -0.00   0.00   0.00    -0.00   0.00   0.00
   4   1    -0.00  -0.00  -0.00    -0.00   0.00  -0.00     0.00   0.00  -0.00
   5   6     0.00   0.00  -0.00    -0.00  -0.00  -0.00    -0.00  -0.00   0.00
   6   1    -0.00   0.00   0.00    -0.00  -0.00  -0.00     0.00  -0.00   0.00
   7   1    -0.00  -0.00   0.00     0.00   0.00   0.00    -0.00   0.00   0.00
   8   7     0.00  -0.00   0.00    -0.00  -0.00  -0.00     0.00   0.00   0.00
   9   6    -0.00   0.00  -0.00    -0.00  -0.00  -0.00     0.00  -0.00  -0.00
  10   1    -0.00   0.00   0.00     0.00   0.00   0.00     0.00   0.00  -0.00
  11   1     0.00  -0.00  -0.00    -0.00  -0.00  -0.00    -0.00   0.00  -0.00
  12   1     0.00   0.00  -0.00     0.00  -0.00  -0.00    -0.00   0.00   0.00
  13   6     0.00   0.00   0.00    -0.00  -0.00  -0.00     0.00  -0.00   0.00
  14   1     0.00  -0.00  -0.00    -0.00  -0.00  -0.00     0.00  -0.00  -0.00
  15   1    -0.00   0.00  -0.00    -0.00   0.00  -0.00    -0.00   0.00  -0.00
  16   1    -0.00  -0.00   0.00     0.00   0.00   0.00     0.00   0.00   0.00
  17   6    -0.00   0.00   0.00    -0.00   0.00  -0.00     0.00  -0.00   0.00
  18   1    -0.00   0.00  -0.00    -0.00  -0.00  -0.00     0.00  -0.00  -0.00
  19   1     0.00   0.00  -0.00     0.00  -0.00  -0.00     0.00  -0.00   0.00
  20   1    -0.00   0.00  -0.00    -0.00   0.00  -0.00    -0.00   0.00  -0.00
  21   1     0.00  -0.00  -0.00    -0.00   0.00   0.00     0.00  -0.00  -0.00
  22   6     0.00  -0.00  -0.00     0.00  -0.01  -0.00     0.00   0.00   0.00
  23   8     0.00   0.00   0.00     0.00   0.00   0.00    -0.00  -0.00  -0.00
  24   7     0.00  -0.01  -0.00     0.02  -0.29  -0.04     0.00  -0.00  -0.00
  25   1    -0.02   0.03  -0.01    -0.31   0.60  -0.14    -0.00   0.00  -0.00
  26   1     0.01   0.02   0.01     0.25   0.52   0.31     0.00   0.00   0.00
  27   7     0.00   0.00   0.00    -0.01  -0.00  -0.02     0.00  -0.00   0.00
  28   1     0.00  -0.00  -0.00    -0.00   0.03   0.02     0.00  -0.00  -0.00
  29   1    -0.00   0.00  -0.00     0.04  -0.01   0.06    -0.00   0.00  -0.00
  30   6    -0.00  -0.00   0.00    -0.00  -0.00   0.00     0.00  -0.00   0.00
  31   8    -0.00   0.00  -0.00     0.00   0.00  -0.00     0.00   0.00  -0.00
  32   7     0.00  -0.00   0.00     0.00  -0.00   0.00    -0.00  -0.00   0.00
  33   1     0.00   0.00   0.00    -0.00  -0.00   0.00     0.01   0.01   0.00
  34   1    -0.00   0.01  -0.01    -0.00   0.00  -0.00    -0.00   0.01  -0.01
  35   7     0.00  -0.00   0.00    -0.00   0.00  -0.00     0.00  -0.00   0.00
  36   1    -0.00   0.01  -0.01     0.00  -0.00   0.00    -0.00   0.00  -0.00
  37   1    -0.01  -0.00  -0.01     0.00   0.00   0.00    -0.00  -0.00  -0.00
  38   6    -0.00   0.00  -0.00     0.00  -0.00   0.00     0.00  -0.00   0.01
  39   8    -0.00  -0.00  -0.00    -0.00   0.00  -0.00    -0.00  -0.00  -0.00
  40   7    -0.00   0.00  -0.00    -0.00   0.00  -0.00     0.03  -0.04   0.30
  41   1     0.00   0.00   0.00     0.00   0.00   0.00    -0.39  -0.05  -0.53
  42   1    -0.00  -0.00   0.00    -0.00  -0.00   0.00     0.27   0.20  -0.60
  43   7    -0.00  -0.00   0.00     0.00   0.00  -0.00    -0.01  -0.00   0.01
  44   1     0.00   0.00  -0.00    -0.00  -0.00   0.00     0.02   0.01  -0.05
  45   1     0.00   0.00   0.00    -0.00  -0.00   0.00     0.00   0.00   0.00
  46   6    -0.00  -0.01   0.01     0.00   0.00   0.00    -0.00  -0.00   0.00
  47   8     0.00   0.00  -0.00    -0.00  -0.00  -0.00     0.00   0.00  -0.00
  48   7    -0.00  -0.04   0.06    -0.00  -0.00   0.00     0.00  -0.00   0.00
  49   1    -0.02  -0.01  -0.02     0.00  -0.00   0.00    -0.00  -0.00  -0.00
  50   1     0.03   0.17  -0.22     0.00   0.00  -0.00     0.00   0.00  -0.00
  51   7    -0.13  -0.21   0.14     0.01   0.01  -0.01    -0.00  -0.00   0.00
  52   1     0.15   0.29  -0.58    -0.01  -0.01   0.03     0.00   0.00  -0.00
  53   1     0.35   0.52   0.05    -0.02  -0.03  -0.00     0.00   0.00   0.00
