      -----------------------------------------------------------      
     |                   =====================                   |     
     |                           x T B                           |     
     |                   =====================                   |     
     |                         S. Grimme                         |     
     |          Mulliken Center for Theoretical Chemistry        |     
     |                    University of Bonn                     |     
      -----------------------------------------------------------      

   * xtb version 6.6.1 (unknown-commit) compiled by '@Linux' on 12/27/2023

   xtb is free software: you can redistribute it and/or modify it under
   the terms of the GNU Lesser General Public License as published by
   the Free Software Foundation, either version 3 of the License, or
   (at your option) any later version.
   
   xtb is distributed in the hope that it will be useful,
   but WITHOUT ANY WARRANTY; without even the implied warranty of
   MERCHANTABILITY or FITNESS FOR A PARTICULAR PURPOSE.  See the
   GNU Lesser General Public License for more details.
   
   Cite this work as:
   * C. Bannwarth, E. Caldeweyher, S. Ehlert, A. Hansen, P. Pracht,
     J. Seibert, S. Spicher, S. Grimme, WIREs Comput. Mol. Sci., 2020, 11,
     e01493. DOI: 10.1002/wcms.1493
   
   for GFN2-xTB:
   * C. Bannwarth, S. Ehlert and S. Grimme., J. Chem. Theory Comput., 2019,
     15, 1652-1671. DOI: 10.1021/acs.jctc.8b01176
   for GFN1-xTB:
   * S. Grimme, C. Bannwarth, P. Shushkov, J. Chem. Theory Comput., 2017,
     13, 1989-2009. DOI: 10.1021/acs.jctc.7b00118
   for GFN0-xTB:
   * P. Pracht, E. Caldeweyher, S. Ehlert, S. Grimme, ChemRxiv, 2019, preprint.
     DOI: 10.26434/chemrxiv.8326202.v1
   for GFN-FF:
   * S. Spicher and S. Grimme, Angew. Chem. Int. Ed., 2020, 59, 15665-15673.
     DOI: 10.1002/anie.202004239
   
   for ALPB and GBSA implicit solvation:
   * S. Ehlert, M. Stahn, S. Spicher, S. Grimme, J. Chem. Theory Comput.,
     2021, 17, 4250-4261. DOI: 10.1021/acs.jctc.1c00471
   
   for DFT-D4:
   * E. Caldeweyher, C. Bannwarth and S. Grimme, J. Chem. Phys., 2017,
     147, 034112. DOI: 10.1063/1.4993215
   * E. Caldeweyher, S. Ehlert, A. Hansen, H. Neugebauer, S. Spicher,
     C. Bannwarth and S. Grimme, J. Chem. Phys., 2019, 150, 154122.
     DOI: 10.1063/1.5090222
   * E. Caldeweyher, J.-M. Mewes, S. Ehlert and S. Grimme, Phys. Chem. Chem. Phys.
     2020, 22, 8499-8512. DOI: 10.1039/D0CP00502A
   
   for sTDA-xTB:
   * S. Grimme and C. Bannwarth, J. Chem. Phys., 2016, 145, 054103.
     DOI: 10.1063/1.4959605
   
   in the mass-spec context:
   * V. Asgeirsson, C. Bauer and S. Grimme, Chem. Sci., 2017, 8, 4879.
     DOI: 10.1039/c7sc00601b
   * J. Koopman and S. Grimme, ACS Omega 2019, 4, 12, 15120-15133.
     DOI: 10.1021/acsomega.9b02011
   
   for metadynamics refer to:
   * S. Grimme, J. Chem. Theory Comput., 2019, 155, 2847-2862
     DOI: 10.1021/acs.jctc.9b00143
   
   for SPH calculations refer to:
   * S. Spicher and S. Grimme, J. Chem. Theory Comput., 2021, 17, 1701-1714
     DOI: 10.1021/acs.jctc.0c01306
   
   with help from (in alphabetical order)
   P. Atkinson, C. Bannwarth, F. Bohle, G. Brandenburg, E. Caldeweyher
   M. Checinski, S. Dohm, S. Ehlert, S. Ehrlich, I. Gerasimov, C. Hölzer
   A. Katbashev, J. Koopman, C. Lavigne, S. Lehtola, F. März, M. Müller,
   F. Musil, H. Neugebauer, J. Pisarek, C. Plett, P. Pracht, F. Pultar,
   J. Seibert, P. Shushkov, S. Spicher, M. Stahn, M. Steiner, T. Strunk,
   J. Stückrath, T. Rose, and J. Unsleber
   
 * started run on 2024/01/10 at 15:35:26.996     

           -------------------------------------------------
          |                Calculation Setup                |
           -------------------------------------------------

          program call               : xtb struc.xyz --gfn2 --hess
          hostname                   : swaroop
          coordinate file            : struc.xyz
          omp threads                :                     1

   ID    Z sym.   atoms
    1    8 O      1, 23, 31, 39, 47
    2    6 C      2, 5, 9, 13, 17, 22, 30, 38, 46
    3    1 H      3, 4, 6, 7, 10-12, 14-16, 18-21, 25, 26, 28, 29, 33, 34,
                  36, 37, 41, 42, 44, 45, 49, 50, 52, 53
    4    7 N      8, 24, 27, 32, 35, 40, 43, 48, 51

molecular fragmentation (1/2 indicates fragments):
11111111111111111111122222222222222222222222222222222
# atoms in fragment 1/2:    21    32
 fragment masses (1/2) :      104.17      240.22
CMA distance (Bohr)    :   7.784
constraining FC (au)   :  0.0500

           -------------------------------------------------
          |                 G F N 2 - x T B                 |
           -------------------------------------------------

        Reference                      10.1021/acs.jctc.8b01176
      * Hamiltonian:
        H0-scaling (s, p, d)           1.850000    2.230000    2.230000
        zeta-weighting                 0.500000
      * Dispersion:
        s8                             2.700000
        a1                             0.520000
        a2                             5.000000
        s9                             5.000000
      * Repulsion:
        kExp                           1.500000    1.000000
        rExp                           1.000000
      * Coulomb:
        alpha                          2.000000
        third order                    shell-resolved
        anisotropic                    true
        a3                             3.000000
        a5                             4.000000
        cn-shift                       1.200000
        cn-exp                         4.000000
        max-rad                        5.000000


          ...................................................
          :                      SETUP                      :
          :.................................................:
          :  # basis functions                 122          :
          :  # atomic orbitals                 122          :
          :  # shells                           76          :
          :  # electrons                       140          :
          :  max. iterations                   250          :
          :  Hamiltonian                  GFN2-xTB          :
          :  restarted?                      false          :
          :  GBSA solvation                  false          :
          :  PC potential                    false          :
          :  electronic temp.          300.0000000     K    :
          :  accuracy                    1.0000000          :
          :  -> integral cutoff          0.2500000E+02      :
          :  -> integral neglect         0.1000000E-07      :
          :  -> SCF convergence          0.1000000E-05 Eh   :
          :  -> wf. convergence          0.1000000E-03 e    :
          :  Broyden damping             0.4000000          :
          ...................................................

 iter      E             dE          RMSdq      gap      omega  full diag
   1    -81.5585444 -0.815585E+02  0.427E+00    5.04       0.0  T
   2    -81.8354884 -0.276944E+00  0.234E+00    5.90       1.0  T
   3    -81.8410552 -0.556681E-02  0.114E+00    5.57       1.0  T
   4    -81.8424133 -0.135817E-02  0.241E-01    5.61       1.0  T
   5    -81.8433388 -0.925460E-03  0.916E-02    5.54       1.0  T
   6    -81.8433633 -0.244467E-04  0.264E-02    5.56       1.0  T
   7    -81.8433673 -0.403292E-05  0.750E-03    5.56       1.8  T
   8    -81.8433676 -0.280191E-06  0.266E-03    5.56       5.2  T
   9    -81.8433676 -0.166249E-07  0.920E-04    5.56      14.9  T
  10    -81.8433676 -0.665783E-08  0.186E-04    5.56      73.7  T

   *** convergence criteria satisfied after 10 iterations ***

         #    Occupation            Energy/Eh            Energy/eV
      -------------------------------------------------------------
         1        2.0000           -0.8126769             -22.1141
       ...           ...                  ...                  ...
        64        2.0000           -0.5043936             -13.7252
        65        2.0000           -0.5035915             -13.7034
        66        2.0000           -0.5015256             -13.6472
        67        2.0000           -0.4989654             -13.5775
        68        2.0000           -0.4957564             -13.4902
        69        2.0000           -0.4940680             -13.4443
        70        2.0000           -0.4920459             -13.3893 (HOMO)
        71                         -0.2878749              -7.8335 (LUMO)
        72                         -0.2732269              -7.4349
        73                         -0.2718709              -7.3980
        74                         -0.2687181              -7.3122
        75                         -0.1674861              -4.5575
       ...                                ...                  ...
       122                          0.5485200              14.9260
      -------------------------------------------------------------
                  HL-Gap            0.2041711 Eh            5.5558 eV
             Fermi-level           -0.3899604 Eh          -10.6114 eV

 SCC (total)                   0 d,  0 h,  0 min,  0.098 sec
 SCC setup                      ...        0 min,  0.000 sec (  0.291%)
 Dispersion                     ...        0 min,  0.001 sec (  0.601%)
 classical contributions        ...        0 min,  0.000 sec (  0.188%)
 integral evaluation            ...        0 min,  0.008 sec (  8.412%)
 iterations                     ...        0 min,  0.060 sec ( 61.631%)
 molecular gradient             ...        0 min,  0.028 sec ( 28.609%)
 printout                       ...        0 min,  0.000 sec (  0.256%)

         :::::::::::::::::::::::::::::::::::::::::::::::::::::
         ::                     SUMMARY                     ::
         :::::::::::::::::::::::::::::::::::::::::::::::::::::
         :: total energy             -80.935425319613 Eh    ::
         :: gradient norm              0.000041091431 Eh/a0 ::
         :: HOMO-LUMO gap              5.555777241907 eV    ::
         ::.................................................::
         :: SCC energy               -81.843367589889 Eh    ::
         :: -> isotropic ES            0.297494333175 Eh    ::
         :: -> anisotropic ES         -0.028546781956 Eh    ::
         :: -> anisotropic XC          0.020516695013 Eh    ::
         :: -> dispersion             -0.047352765861 Eh    ::
         :: repulsion energy           0.905912692161 Eh    ::
         :: add. restraining           0.000000000000 Eh    ::
         :: total charge               1.000000000000 e     ::
         :::::::::::::::::::::::::::::::::::::::::::::::::::::

           ------------------------------------------------- 
          |                Numerical Hessian                |
           ------------------------------------------------- 
step length          :   0.00500
SCC accuracy         :   0.30000
Hessian scale factor :   1.00000
frozen atoms in %    :   0.00000    0
RMS gradient         :   0.00004
estimated CPU  time      0.24 min
estimated wall time      0.24 min

writing file <hessian>.

 projected vibrational frequencies (cm⁻¹)
eigval :       -0.00    -0.00    -0.00    -0.00     0.00     0.00
eigval :        6.35    23.99    29.91    33.98    34.89    44.10
eigval :       44.87    50.30    54.83    58.66    61.73    68.00
eigval :       76.29    82.48    91.44    99.91   110.68   124.13
eigval :      138.14   147.87   161.36   176.55   178.49   190.84
eigval :      197.14   223.06   249.12   283.41   287.26   308.65
eigval :      311.24   329.17   345.72   377.30   380.47   397.24
eigval :      427.70   433.71   451.81   455.63   459.99   466.74
eigval :      470.45   475.39   481.21   486.21   494.53   501.64
eigval :      508.54   518.11   538.29   547.32   557.53   559.60
eigval :      572.27   578.81   640.69   666.02   671.23   676.34
eigval :      678.61   696.91   723.64   762.12   775.45   812.02
eigval :      904.99   921.01   970.74   975.70   983.57   986.82
eigval :      994.82  1007.02  1011.29  1017.10  1020.02  1027.66
eigval :     1029.66  1032.84  1037.98  1084.98  1085.75  1092.02
eigval :     1098.93  1101.99  1103.68  1124.29  1159.66  1218.91
eigval :     1243.75  1269.51  1313.83  1323.51  1346.96  1354.73
eigval :     1357.25  1359.05  1375.38  1396.46  1403.40  1412.81
eigval :     1420.17  1435.86  1440.47  1447.06  1452.25  1454.21
eigval :     1456.79  1460.01  1464.46  1465.48  1467.42  1480.06
eigval :     1481.99  1498.71  1504.45  1512.74  1529.28  1638.14
eigval :     1679.00  1697.23  1717.72  2892.95  2980.63  2982.29
eigval :     3018.05  3020.88  3038.82  3041.49  3043.49  3045.77
eigval :     3047.21  3049.84  3054.02  3063.50  3107.40  3146.34
eigval :     3212.56  3291.33  3374.60  3386.45  3485.63  3487.40
eigval :     3492.93  3516.29  3526.10  3531.02  3536.85  3538.44
eigval :     3547.78  3550.59  3557.31
           -------------------------------------------------
          |                Property Printout                |
           -------------------------------------------------

    * Orbital Energies and Occupations

         #    Occupation            Energy/Eh            Energy/eV
      -------------------------------------------------------------
         1        2.0000           -0.8126761             -22.1140
       ...           ...                  ...                  ...
        58        2.0000           -0.5197072             -14.1420
        59        2.0000           -0.5190782             -14.1248
        60        2.0000           -0.5105255             -13.8921
        61        2.0000           -0.5095824             -13.8664
        62        2.0000           -0.5090013             -13.8506
        63        2.0000           -0.5060869             -13.7713
        64        2.0000           -0.5043934             -13.7252
        65        2.0000           -0.5035929             -13.7035
        66        2.0000           -0.5015275             -13.6473
        67        2.0000           -0.4989667             -13.5776
        68        2.0000           -0.4957578             -13.4903
        69        2.0000           -0.4940702             -13.4443
        70        2.0000           -0.4920481             -13.3893 (HOMO)
        71                         -0.2878749              -7.8335 (LUMO)
        72                         -0.2732297              -7.4350
        73                         -0.2718707              -7.3980
        74                         -0.2687223              -7.3123
        75                         -0.1674853              -4.5575
        76                         -0.1134259              -3.0865
        77                         -0.1009821              -2.7479
        78                         -0.0946878              -2.5766
        79                         -0.0904690              -2.4618
        80                         -0.0832386              -2.2650
        81                         -0.0735851              -2.0024
       ...                                ...                  ...
       122                          0.5485184              14.9259
      -------------------------------------------------------------
                  HL-Gap            0.2041732 Eh            5.5558 eV
             Fermi-level           -0.3899615 Eh          -10.6114 eV

     #   Z          covCN         q      C6AA      α(0)
     1   8 O        1.655    -0.454    21.918     6.320
     2   6 C        3.673     0.071    19.623     6.348
     3   1 H        0.924     0.060     2.202     2.321
     4   1 H        0.923     0.048     2.341     2.393
     5   6 C        3.768    -0.076    21.982     6.682
     6   1 H        0.924     0.111     1.689     2.033
     7   1 H        0.924     0.115     1.657     2.013
     8   7 N        3.623     0.156    18.615     6.408
     9   6 C        3.735    -0.113    22.752     6.807
    10   1 H        0.924     0.129     1.540     1.941
    11   1 H        0.925     0.083     1.947     2.182
    12   1 H        0.925     0.094     1.844     2.124
    13   6 C        3.725    -0.107    22.666     6.798
    14   1 H        0.925     0.094     1.838     2.120
    15   1 H        0.925     0.087     1.908     2.160
    16   1 H        0.925     0.127     1.556     1.951
    17   6 C        3.719    -0.100    22.531     6.780
    18   1 H        0.925     0.121     1.608     1.983
    19   1 H        0.925     0.091     1.869     2.138
    20   1 H        0.925     0.081     1.967     2.193
    21   1 H        0.804     0.329     0.640     1.256
    22   6 C        2.675     0.345    21.141     7.524
    23   8 O        0.860    -0.534    24.543     6.642
    24   7 N        2.646    -0.299    27.701     7.817
    25   1 H        0.860     0.194     1.137     1.670
    26   1 H        0.860     0.190     1.159     1.686
    27   7 N        2.645    -0.302    27.777     7.828
    28   1 H        0.860     0.224     0.992     1.560
    29   1 H        0.860     0.189     1.163     1.690
    30   6 C        2.675     0.338    21.261     7.545
    31   8 O        0.860    -0.545    24.796     6.676
    32   7 N        2.645    -0.312    28.041     7.865
    33   1 H        0.860     0.233     0.951     1.527
    34   1 H        0.861     0.179     1.220     1.730
    35   7 N        2.644    -0.307    27.916     7.847
    36   1 H        0.861     0.180     1.216     1.727
    37   1 H        0.859     0.247     0.894     1.481
    38   6 C        2.675     0.341    21.199     7.534
    39   8 O        0.861    -0.531    24.476     6.633
    40   7 N        2.644    -0.289    27.443     7.780
    41   1 H        0.860     0.207     1.071     1.621
    42   1 H        0.861     0.187     1.175     1.698
    43   7 N        2.642    -0.324    28.332     7.905
    44   1 H        0.860     0.176     1.239     1.744
    45   1 H        0.859     0.243     0.911     1.495
    46   6 C        2.675     0.342    21.195     7.534
    47   8 O        0.860    -0.520    24.242     6.601
    48   7 N        2.643    -0.306    27.876     7.841
    49   1 H        0.859     0.242     0.914     1.498
    50   1 H        0.861     0.176     1.235     1.741
    51   7 N        2.644    -0.296    27.627     7.806
    52   1 H        0.860     0.182     1.200     1.716
    53   1 H        0.860     0.202     1.097     1.641

 Mol. C6AA /au·bohr⁶  :      21794.290098
 Mol. C8AA /au·bohr⁸  :     454456.285045
 Mol. α(0) /au        :        220.555984


Wiberg/Mayer (AO) data.
largest (>0.10) Wiberg bond orders for each atom

 ---------------------------------------------------------------------------
     #   Z sym  total        # sym  WBO       # sym  WBO       # sym  WBO
 ---------------------------------------------------------------------------
     1   8 O    1.963 --     2 C    1.021    21 H    0.849
     2   6 C    3.965 --     1 O    1.021     5 C    0.995     3 H    0.965
                             4 H    0.960
     3   1 H    0.996 --     2 C    0.965
     4   1 H    0.997 --     2 C    0.960
     5   6 C    3.920 --     2 C    0.995     6 H    0.951     7 H    0.948
                             8 N    0.927
     6   1 H    0.988 --     5 C    0.951
     7   1 H    0.987 --     5 C    0.948
     8   7 N    3.821 --    17 C    0.961    13 C    0.959     9 C    0.956
                             5 C    0.927
     9   6 C    3.923 --    11 H    0.978    12 H    0.975     8 N    0.956
                            10 H    0.954
    10   1 H    0.983 --     9 C    0.954
    11   1 H    0.993 --     9 C    0.978
    12   1 H    0.991 --     9 C    0.975
    13   6 C    3.925 --    15 H    0.977    14 H    0.973    16 H    0.965
                             8 N    0.959
    14   1 H    0.991 --    13 C    0.973
    15   1 H    0.992 --    13 C    0.977
    16   1 H    0.984 --    13 C    0.965
    17   6 C    3.930 --    20 H    0.978    19 H    0.976    18 H    0.965
                             8 N    0.961
    18   1 H    0.985 --    17 C    0.965
    19   1 H    0.992 --    17 C    0.976
    20   1 H    0.993 --    17 C    0.978
    21   1 H    0.892 --     1 O    0.849
    22   6 C    3.958 --    23 O    1.523    27 N    1.230    24 N    1.195
    23   8 O    1.888 --    22 C    1.523    27 N    0.142    24 N    0.135
    24   7 N    3.303 --    22 C    1.195    26 H    0.945    25 H    0.944
                            23 O    0.135
    25   1 H    0.962 --    24 N    0.944
    26   1 H    0.964 --    24 N    0.945
    27   7 N    3.322 --    22 C    1.230    29 H    0.945    28 H    0.903
                            23 O    0.142
    28   1 H    0.950 --    27 N    0.903
    29   1 H    0.964 --    27 N    0.945
    30   6 C    3.961 --    31 O    1.441    35 N    1.270    32 N    1.240
    31   8 O    1.911 --    30 C    1.441    35 N    0.134    32 N    0.128
    32   7 N    3.330 --    30 C    1.240    34 H    0.948    33 H    0.882
                            31 O    0.128
    33   1 H    0.945 --    32 N    0.882
    34   1 H    0.967 --    32 N    0.948
    35   7 N    3.352 --    30 C    1.270    36 H    0.948    37 H    0.861
                            31 O    0.134
    36   1 H    0.967 --    35 N    0.948
    37   1 H    0.939 --    35 N    0.861
    38   6 C    3.959 --    39 O    1.488    43 N    1.235    40 N    1.221
    39   8 O    1.906 --    38 C    1.488    43 N    0.138    40 N    0.135
    40   7 N    3.334 --    38 C    1.221    42 H    0.946    41 H    0.940
                            39 O    0.135
    41   1 H    0.957 --    40 N    0.940
    42   1 H    0.965 --    40 N    0.946
    43   7 N    3.312 --    38 C    1.235    44 H    0.949    45 H    0.861
                            39 O    0.138
    44   1 H    0.969 --    43 N    0.949
    45   1 H    0.941 --    43 N    0.861
    46   6 C    3.960 --    47 O    1.493    48 N    1.259    51 N    1.196
    47   8 O    1.924 --    46 C    1.493    48 N    0.147    51 N    0.126
    48   7 N    3.347 --    46 C    1.259    50 H    0.949    49 H    0.869
                            47 O    0.147
    49   1 H    0.941 --    48 N    0.869
    50   1 H    0.969 --    48 N    0.949
    51   7 N    3.304 --    46 C    1.196    52 H    0.947    53 H    0.942
                            47 O    0.126
    52   1 H    0.966 --    51 N    0.947
    53   1 H    0.959 --    51 N    0.942
 ---------------------------------------------------------------------------

Topologies differ in total number of bonds
Writing topology from bond orders to xtbtopo.mol

molecular dipole:
                 x           y           z       tot (Debye)
 q only:       -0.160      -2.216       1.139
   full:       -0.578      -1.627       1.993       6.703
molecular quadrupole (traceless):
                xx          xy          yy          xz          yz          zz
 q only:       -1.002       8.842       6.070       5.856       9.486      -5.068
  q+dip:        2.419       8.705       4.099       5.831       8.038      -6.518
   full:        2.924       8.346       3.777       5.358       8.220      -6.701

           -------------------------------------------------
          |               Frequency Printout                |
           -------------------------------------------------
 projected vibrational frequencies (cm⁻¹)
eigval :       -0.00    -0.00    -0.00    -0.00     0.00     0.00
eigval :        6.35    23.99    29.91    33.98    34.89    44.10
eigval :       44.87    50.30    54.83    58.66    61.73    68.00
eigval :       76.29    82.48    91.44    99.91   110.68   124.13
eigval :      138.14   147.87   161.36   176.55   178.49   190.84
eigval :      197.14   223.06   249.12   283.41   287.26   308.65
eigval :      311.24   329.17   345.72   377.30   380.47   397.24
eigval :      427.70   433.71   451.81   455.63   459.99   466.74
eigval :      470.45   475.39   481.21   486.21   494.53   501.64
eigval :      508.54   518.11   538.29   547.32   557.53   559.60
eigval :      572.27   578.81   640.69   666.02   671.23   676.34
eigval :      678.61   696.91   723.64   762.12   775.45   812.02
eigval :      904.99   921.01   970.74   975.70   983.57   986.82
eigval :      994.82  1007.02  1011.29  1017.10  1020.02  1027.66
eigval :     1029.66  1032.84  1037.98  1084.98  1085.75  1092.02
eigval :     1098.93  1101.99  1103.68  1124.29  1159.66  1218.91
eigval :     1243.75  1269.51  1313.83  1323.51  1346.96  1354.73
eigval :     1357.25  1359.05  1375.38  1396.46  1403.40  1412.81
eigval :     1420.17  1435.86  1440.47  1447.06  1452.25  1454.21
eigval :     1456.79  1460.01  1464.46  1465.48  1467.42  1480.06
eigval :     1481.99  1498.71  1504.45  1512.74  1529.28  1638.14
eigval :     1679.00  1697.23  1717.72  2892.95  2980.63  2982.29
eigval :     3018.05  3020.88  3038.82  3041.49  3043.49  3045.77
eigval :     3047.21  3049.84  3054.02  3063.50  3107.40  3146.34
eigval :     3212.56  3291.33  3374.60  3386.45  3485.63  3487.40
eigval :     3492.93  3516.29  3526.10  3531.02  3536.85  3538.44
eigval :     3547.78  3550.59  3557.31
 reduced masses (amu)
   1: 12.84   2: 12.63   3: 12.56   4: 12.45   5: 12.35   6: 12.36   7: 11.68   8: 12.27
   9: 11.53  10: 11.95  11: 11.76  12: 11.91  13: 12.54  14: 12.25  15: 12.51  16: 12.17
  17: 12.20  18: 12.39  19: 11.78  20: 12.31  21: 12.73  22: 13.85  23: 11.33  24: 12.97
  25: 13.45  26: 13.35  27: 12.57  28: 10.58  29: 11.96  30: 12.72  31: 12.83  32: 12.38
  33:  5.98  34:  6.45  35:  3.61  36:  7.25  37:  2.77  38:  3.13  39:  2.22  40:  7.42
  41:  1.74  42:  3.76  43:  8.71  44:  3.52  45:  1.78  46:  8.32  47:  4.68  48:  7.79
  49:  8.60  50:  7.83  51:  8.35  52:  2.50  53:  3.48  54:  3.07  55:  3.53  56:  8.43
  57:  9.53  58:  8.33  59: 10.73  60:  9.74  61:  5.15  62: 12.14  63:  3.96  64: 10.37
  65:  8.75  66: 11.43  67: 10.83  68:  5.01  69:  2.59  70:  9.22  71:  1.91  72:  2.50
  73:  7.15  74:  8.25  75:  5.27  76:  4.57  77:  4.54  78:  4.66  79:  7.33  80:  9.20
  81:  8.12  82:  9.63  83:  5.46  84:  9.56  85:  6.83  86:  3.90  87:  9.84  88:  6.79
  89:  8.34  90:  8.21  91:  4.58  92:  6.70  93:  8.32  94:  8.63  95:  2.89  96:  5.33
  97:  7.55  98:  8.29  99:  5.35 100:  3.75 101:  4.58 102:  4.93 103:  4.18 104:  5.75
 105:  4.88 106:  4.52 107:  2.53 108:  2.57 109:  2.10 110:  2.41 111:  1.65 112:  3.33
 113:  2.72 114:  1.96 115:  1.76 116:  3.41 117:  2.81 118:  1.76 119:  1.89 120:  1.62
 121:  1.76 122:  7.87 123:  8.75 124:  8.65 125:  9.67 126: 12.12 127: 12.60 128: 12.64
 129: 12.71 130:  1.76 131:  1.78 132:  1.66 133:  1.76 134:  1.72 135:  1.72 136:  1.76
 137:  1.50 138:  1.91 139:  1.87 140:  1.82 141:  1.55 142:  1.71 143:  1.83 144:  1.83
 145:  1.79 146:  1.77 147:  1.88 148:  1.68 149:  1.46 150:  1.45 151:  1.45 152:  1.88
 153:  1.96 154:  1.91 155:  1.90 156:  1.93 157:  2.15 158:  2.18 159:  2.18
 IR intensities (km·mol⁻¹)
   1:  0.62   2:  2.65   3:  2.27   4:  0.32   5:  1.39   6:  3.05   7:  0.33   8:  0.75
   9:  0.37  10:  0.64  11:  3.14  12:  5.78  13:  0.39  14:  3.36  15:  1.57  16:  0.70
  17:  1.20  18:  4.96  19:  3.76  20:  3.94  21:  0.30  22:  5.82  23: 23.03  24: 15.42
  25:  2.16  26: 15.56  27: 13.40  28:  7.32  29: 14.12  30:  7.60  31:  1.05  32:133.82
  33:  3.71  34:  0.22  35:  1.00  36:  3.76  37:151.31  38:  0.37  39: 41.76  40:  2.13
  41:  9.81  42:154.05  43:  1.68  44:419.02  45:  4.12  46:  4.34  47: 66.74  48: 30.84
  49: 36.05  50: 48.31  51: 28.67  52:174.26  53: 96.04  54: 30.86  55: 40.41  56: 14.10
  57: 54.97  58: 11.23  59: 15.87  60: 81.84  61:380.77  62: 97.18  63:140.98  64:  4.24
  65: 75.75  66:130.91  67: 81.16  68: 58.60  69: 10.93  70:  0.87  71: 39.52  72:658.14
  73:  8.85  74:  5.12  75:  4.08  76:  3.99  77:  3.65  78:  1.66  79: 13.30  80: 11.98
  81: 19.54  82:  9.33  83: 31.63  84:  3.36  85:  8.20  86:  4.33  87:  2.59  88: 16.07
  89:  1.95  90:  0.41  91: 17.58  92:  6.82  93:  3.79  94: 38.29  95: 11.63  96:  6.64
  97:  2.77  98:  2.81  99:  3.43 100: 17.95 101: 39.25 102: 64.89 103:273.27 104: 67.53
 105: 39.29 106: 10.89 107: 23.83 108:  6.94 109: 18.46 110: 15.73 111:  2.41 112: 15.85
 113:  4.36 114:  3.77 115: 14.70 116:  7.52 117:  5.76 118: 15.37 119:  6.75 120: 47.48
 121: 21.60 122:244.39 123:****** 124: 49.11 125:347.52 126:193.00 127:106.21 128:******
 129:****** 130: 30.12 131: 32.88 132: 26.01 133:  7.06 134: 47.18 135:  5.65 136:  3.63
 137: 18.45 138:  7.78 139:  6.67 140:  6.41 141:  3.76 142:  3.99 143:****** 144:166.30
 145:****** 146:592.92 147:301.02 148:273.20 149: 19.76 150: 18.16 151: 26.91 152: 10.34
 153: 19.46 154:  2.51 155: 32.81 156: 11.44 157: 18.27 158: 10.80 159: 18.71
 Raman intensities (amu)
Molecule has no symmetry elements
It seems to be the C1 point group
   1:  0.00   2:  0.00   3:  0.00   4:  0.00   5:  0.00   6:  0.00   7:  0.00   8:  0.00
   9:  0.00  10:  0.00  11:  0.00  12:  0.00  13:  0.00  14:  0.00  15:  0.00  16:  0.00
  17:  0.00  18:  0.00  19:  0.00  20:  0.00  21:  0.00  22:  0.00  23:  0.00  24:  0.00
  25:  0.00  26:  0.00  27:  0.00  28:  0.00  29:  0.00  30:  0.00  31:  0.00  32:  0.00
  33:  0.00  34:  0.00  35:  0.00  36:  0.00  37:  0.00  38:  0.00  39:  0.00  40:  0.00
  41:  0.00  42:  0.00  43:  0.00  44:  0.00  45:  0.00  46:  0.00  47:  0.00  48:  0.00
  49:  0.00  50:  0.00  51:  0.00  52:  0.00  53:  0.00  54:  0.00  55:  0.00  56:  0.00
  57:  0.00  58:  0.00  59:  0.00  60:  0.00  61:  0.00  62:  0.00  63:  0.00  64:  0.00
  65:  0.00  66:  0.00  67:  0.00  68:  0.00  69:  0.00  70:  0.00  71:  0.00  72:  0.00
  73:  0.00  74:  0.00  75:  0.00  76:  0.00  77:  0.00  78:  0.00  79:  0.00  80:  0.00
  81:  0.00  82:  0.00  83:  0.00  84:  0.00  85:  0.00  86:  0.00  87:  0.00  88:  0.00
  89:  0.00  90:  0.00  91:  0.00  92:  0.00  93:  0.00  94:  0.00  95:  0.00  96:  0.00
  97:  0.00  98:  0.00  99:  0.00 100:  0.00 101:  0.00 102:  0.00 103:  0.00 104:  0.00
 105:  0.00 106:  0.00 107:  0.00 108:  0.00 109:  0.00 110:  0.00 111:  0.00 112:  0.00
 113:  0.00 114:  0.00 115:  0.00 116:  0.00 117:  0.00 118:  0.00 119:  0.00 120:  0.00
 121:  0.00 122:  0.00 123:  0.00 124:  0.00 125:  0.00 126:  0.00 127:  0.00 128:  0.00
 129:  0.00 130:  0.00 131:  0.00 132:  0.00 133:  0.00 134:  0.00 135:  0.00 136:  0.00
 137:  0.00 138:  0.00 139:  0.00 140:  0.00 141:  0.00 142:  0.00 143:  0.00 144:  0.00
 145:  0.00 146:  0.00 147:  0.00 148:  0.00 149:  0.00 150:  0.00 151:  0.00 152:  0.00
 153:  0.00 154:  0.00 155:  0.00 156:  0.00 157:  0.00 158:  0.00 159:  0.00
 output can be read by thermo (or use thermo option).
 writing <g98.out> molden fake output.
 recommended (thermochemical) frequency scaling factor: 1.0
           -------------------------------------------------
          |             Thermodynamic Functions             |
           -------------------------------------------------

c1  symmetry found (for desy threshold:  0.10E+00) used in thermo

          ...................................................
          :                      SETUP                      :
          :.................................................:
          :  # frequencies                         153      :
          :  # imaginary freq.                       0      :
          :  linear?                             false      :
          :  only rotor calc.                    false      :
          :  symmetry                               c1      :
          :  rotational number                       1      :
          :  scaling factor                  1.0000000      :
          :  rotor cutoff                   50.0000000 cm⁻¹ :
          :  imag. cutoff                  -20.0000000 cm⁻¹ :
          :.................................................:

    mode    ω/cm⁻¹     T·S(HO)/kcal·mol⁻¹    T·S(FR)/kcal·mol⁻¹   T·S(vib)
   ------------------------------------------------------------------------
       1      6.35    -2.65716 (  0.03%)    -1.66742 ( 99.97%)    -1.66767
       2     23.99    -1.87025 (  5.03%)    -1.27401 ( 94.97%)    -1.30403
       3     29.91    -1.73987 ( 11.35%)    -1.20874 ( 88.65%)    -1.26901
       4     33.98    -1.66432 ( 17.59%)    -1.17089 ( 82.41%)    -1.25767
       5     34.89    -1.64868 ( 19.17%)    -1.16306 ( 80.83%)    -1.25617
       6     44.10    -1.51042 ( 37.69%)    -1.09373 ( 62.31%)    -1.25080
       7     44.87    -1.50019 ( 39.34%)    -1.08860 ( 60.66%)    -1.25050
       8     50.30    -1.43272 ( 50.61%)    -1.05472 ( 49.39%)    -1.24601
       9     54.83    -1.38194 ( 59.12%)    -1.02919 ( 40.88%)    -1.23774
      10     58.66    -1.34216 ( 65.46%)    -1.00918 ( 34.54%)    -1.22714
      11     61.73    -1.31215 ( 69.91%)    -0.99407 ( 30.09%)    -1.21646
      12     68.00    -1.25538 ( 77.38%)    -0.96546 ( 22.62%)    -1.18979
      13     76.29    -1.18790 ( 84.42%)    -0.93138 ( 15.58%)    -1.14794
      14     82.48    -1.14222 ( 88.10%)    -0.90826 ( 11.90%)    -1.11438
      15     91.44    -1.08198 ( 91.79%)    -0.87770 (  8.21%)    -1.06522
      16     99.91    -1.03041 ( 94.10%)    -0.85145 (  5.90%)    -1.01984
      17    110.68    -0.97108 ( 96.00%)    -0.82114 (  4.00%)    -0.96508
      18    124.13    -0.90488 ( 97.44%)    -0.78715 (  2.56%)    -0.90186
      19    138.14    -0.84363 ( 98.31%)    -0.75549 (  1.69%)    -0.84214
      20    147.87    -0.80483 ( 98.71%)    -0.73532 (  1.29%)    -0.80393
      21    161.36    -0.75545 ( 99.09%)    -0.70946 (  0.91%)    -0.75503
      22    176.55    -0.70499 ( 99.36%)    -0.68280 (  0.64%)    -0.70485
      23    178.49    -0.69889 ( 99.39%)    -0.67956 (  0.61%)    -0.69878
      24    190.84    -0.66179 ( 99.53%)    -0.65975 (  0.47%)    -0.66178
      25    197.14    -0.64389 ( 99.59%)    -0.65013 (  0.41%)    -0.64391
      26    223.06    -0.57665 ( 99.75%)    -0.61354 (  0.25%)    -0.57675
      27    249.12    -0.51783 ( 99.84%)    -0.58081 (  0.16%)    -0.51793
      28    283.41    -0.45110 ( 99.90%)    -0.54260 (  0.10%)    -0.45119
      29    287.26    -0.44426 ( 99.91%)    -0.53860 (  0.09%)    -0.44434
   ------------------------------------------------------------------------

   temp. (K)  partition function   enthalpy   heat capacity  entropy
                                   cal/mol     cal/K/mol   cal/K/mol   J/K/mol
 298.15  VIB  0.135E+17            18818.415    103.147    123.356
         ROT  0.110E+08              888.752      2.981     35.205
         INT  0.149E+24            19707.167    106.128    158.561
         TR   0.618E+28             1481.254      4.968     43.384
         TOT                       21188.4208   111.0958   201.9457   844.9409

       T/K    H(0)-H(T)+PV         H(T)/Eh          T*S/Eh         G(T)/Eh
   ------------------------------------------------------------------------
    298.15    0.337659E-01    0.474108E+00    0.959509E-01    0.378157E+00
   ------------------------------------------------------------------------

         :::::::::::::::::::::::::::::::::::::::::::::::::::::
         ::                  THERMODYNAMIC                  ::
         :::::::::::::::::::::::::::::::::::::::::::::::::::::
         :: total free energy         -80.557268655504 Eh   ::
         ::.................................................::
         :: total energy              -80.935425320035 Eh   ::
         :: zero point energy           0.440341690533 Eh   ::
         :: G(RRHO) w/o ZPVE           -0.062185026001 Eh   ::
         :: G(RRHO) contrib.            0.378156664531 Eh   ::
         :::::::::::::::::::::::::::::::::::::::::::::::::::::

           -------------------------------------------------
          | TOTAL ENERGY              -80.935425320035 Eh   |
          | TOTAL ENTHALPY            -80.461317731661 Eh   |
          | TOTAL FREE ENERGY         -80.557268655504 Eh   |
          | GRADIENT NORM               0.000041067436 Eh/α |
          | HOMO-LUMO GAP               5.555835794951 eV   |
           -------------------------------------------------

------------------------------------------------------------------------
 * finished run on 2024/01/10 at 15:35:41.829     
------------------------------------------------------------------------
 total:
 * wall-time:     0 d,  0 h,  0 min, 14.833 sec
 *  cpu-time:     0 d,  0 h,  0 min, 14.751 sec
 * ratio c/w:     0.994 speedup
 SCF:
 * wall-time:     0 d,  0 h,  0 min,  0.098 sec
 *  cpu-time:     0 d,  0 h,  0 min,  0.058 sec
 * ratio c/w:     0.593 speedup
 analytical hessian:
 * wall-time:     0 d,  0 h,  0 min, 14.708 sec
 *  cpu-time:     0 d,  0 h,  0 min, 14.666 sec
 * ratio c/w:     0.997 speedup

