      -----------------------------------------------------------      
     |                   =====================                   |     
     |                           x T B                           |     
     |                   =====================                   |     
     |                         S. Grimme                         |     
     |          Mulliken Center for Theoretical Chemistry        |     
     |                    University of Bonn                     |     
      -----------------------------------------------------------      

   * xtb version 6.6.1 (unknown-commit) compiled by '@Linux' on 12/27/2023

   xtb is free software: you can redistribute it and/or modify it under
   the terms of the GNU Lesser General Public License as published by
   the Free Software Foundation, either version 3 of the License, or
   (at your option) any later version.
   
   xtb is distributed in the hope that it will be useful,
   but WITHOUT ANY WARRANTY; without even the implied warranty of
   MERCHANTABILITY or FITNESS FOR A PARTICULAR PURPOSE.  See the
   GNU Lesser General Public License for more details.
   
   Cite this work as:
   * C. Bannwarth, E. Caldeweyher, S. Ehlert, A. Hansen, P. Pracht,
     J. Seibert, S. Spicher, S. Grimme, WIREs Comput. Mol. Sci., 2020, 11,
     e01493. DOI: 10.1002/wcms.1493
   
   for GFN2-xTB:
   * C. Bannwarth, S. Ehlert and S. Grimme., J. Chem. Theory Comput., 2019,
     15, 1652-1671. DOI: 10.1021/acs.jctc.8b01176
   for GFN1-xTB:
   * S. Grimme, C. Bannwarth, P. Shushkov, J. Chem. Theory Comput., 2017,
     13, 1989-2009. DOI: 10.1021/acs.jctc.7b00118
   for GFN0-xTB:
   * P. Pracht, E. Caldeweyher, S. Ehlert, S. Grimme, ChemRxiv, 2019, preprint.
     DOI: 10.26434/chemrxiv.8326202.v1
   for GFN-FF:
   * S. Spicher and S. Grimme, Angew. Chem. Int. Ed., 2020, 59, 15665-15673.
     DOI: 10.1002/anie.202004239
   
   for ALPB and GBSA implicit solvation:
   * S. Ehlert, M. Stahn, S. Spicher, S. Grimme, J. Chem. Theory Comput.,
     2021, 17, 4250-4261. DOI: 10.1021/acs.jctc.1c00471
   
   for DFT-D4:
   * E. Caldeweyher, C. Bannwarth and S. Grimme, J. Chem. Phys., 2017,
     147, 034112. DOI: 10.1063/1.4993215
   * E. Caldeweyher, S. Ehlert, A. Hansen, H. Neugebauer, S. Spicher,
     C. Bannwarth and S. Grimme, J. Chem. Phys., 2019, 150, 154122.
     DOI: 10.1063/1.5090222
   * E. Caldeweyher, J.-M. Mewes, S. Ehlert and S. Grimme, Phys. Chem. Chem. Phys.
     2020, 22, 8499-8512. DOI: 10.1039/D0CP00502A
   
   for sTDA-xTB:
   * S. Grimme and C. Bannwarth, J. Chem. Phys., 2016, 145, 054103.
     DOI: 10.1063/1.4959605
   
   in the mass-spec context:
   * V. Asgeirsson, C. Bauer and S. Grimme, Chem. Sci., 2017, 8, 4879.
     DOI: 10.1039/c7sc00601b
   * J. Koopman and S. Grimme, ACS Omega 2019, 4, 12, 15120-15133.
     DOI: 10.1021/acsomega.9b02011
   
   for metadynamics refer to:
   * S. Grimme, J. Chem. Theory Comput., 2019, 155, 2847-2862
     DOI: 10.1021/acs.jctc.9b00143
   
   for SPH calculations refer to:
   * S. Spicher and S. Grimme, J. Chem. Theory Comput., 2021, 17, 1701-1714
     DOI: 10.1021/acs.jctc.0c01306
   
   with help from (in alphabetical order)
   P. Atkinson, C. Bannwarth, F. Bohle, G. Brandenburg, E. Caldeweyher
   M. Checinski, S. Dohm, S. Ehlert, S. Ehrlich, I. Gerasimov, C. Hölzer
   A. Katbashev, J. Koopman, C. Lavigne, S. Lehtola, F. März, M. Müller,
   F. Musil, H. Neugebauer, J. Pisarek, C. Plett, P. Pracht, F. Pultar,
   J. Seibert, P. Shushkov, S. Spicher, M. Stahn, M. Steiner, T. Strunk,
   J. Stückrath, T. Rose, and J. Unsleber
   
 * started run on 2024/01/10 at 15:40:21.694     

           -------------------------------------------------
          |                Calculation Setup                |
           -------------------------------------------------

          program call               : xtb struc.xyz --gfn2 --hess
          hostname                   : swaroop
          coordinate file            : struc.xyz
          omp threads                :                     1

   ID    Z sym.   atoms
    1    8 O      1, 23, 31, 39, 47
    2    6 C      2, 5, 9, 13, 17, 22, 30, 38, 46
    3    1 H      3, 4, 6, 7, 10-12, 14-16, 18-21, 25, 26, 28, 29, 33, 34,
                  36, 37, 41, 42, 44, 45, 49, 50, 52, 53
    4    7 N      8, 24, 27, 32, 35, 40, 43, 48, 51

molecular fragmentation (1/2 indicates fragments):
11111111111111111111122222222222222222222222222222222
# atoms in fragment 1/2:    21    32
 fragment masses (1/2) :      104.17      240.22
CMA distance (Bohr)    :   3.427
constraining FC (au)   :  0.0500

           -------------------------------------------------
          |                 G F N 2 - x T B                 |
           -------------------------------------------------

        Reference                      10.1021/acs.jctc.8b01176
      * Hamiltonian:
        H0-scaling (s, p, d)           1.850000    2.230000    2.230000
        zeta-weighting                 0.500000
      * Dispersion:
        s8                             2.700000
        a1                             0.520000
        a2                             5.000000
        s9                             5.000000
      * Repulsion:
        kExp                           1.500000    1.000000
        rExp                           1.000000
      * Coulomb:
        alpha                          2.000000
        third order                    shell-resolved
        anisotropic                    true
        a3                             3.000000
        a5                             4.000000
        cn-shift                       1.200000
        cn-exp                         4.000000
        max-rad                        5.000000


          ...................................................
          :                      SETUP                      :
          :.................................................:
          :  # basis functions                 122          :
          :  # atomic orbitals                 122          :
          :  # shells                           76          :
          :  # electrons                       140          :
          :  max. iterations                   250          :
          :  Hamiltonian                  GFN2-xTB          :
          :  restarted?                      false          :
          :  GBSA solvation                  false          :
          :  PC potential                    false          :
          :  electronic temp.          300.0000000     K    :
          :  accuracy                    1.0000000          :
          :  -> integral cutoff          0.2500000E+02      :
          :  -> integral neglect         0.1000000E-07      :
          :  -> SCF convergence          0.1000000E-05 Eh   :
          :  -> wf. convergence          0.1000000E-03 e    :
          :  Broyden damping             0.4000000          :
          ...................................................

 iter      E             dE          RMSdq      gap      omega  full diag
   1    -81.5532051 -0.815532E+02  0.431E+00    5.20       0.0  T
   2    -81.8421639 -0.288959E+00  0.234E+00    6.00       1.0  T
   3    -81.8478225 -0.565860E-02  0.115E+00    5.77       1.0  T
   4    -81.8491897 -0.136721E-02  0.232E-01    5.85       1.0  T
   5    -81.8500048 -0.815070E-03  0.915E-02    5.78       1.0  T
   6    -81.8500288 -0.239926E-04  0.270E-02    5.79       1.0  T
   7    -81.8500343 -0.547749E-05  0.726E-03    5.79       1.9  T
   8    -81.8500345 -0.221704E-06  0.287E-03    5.79       4.8  T
   9    -81.8500345 -0.291930E-07  0.919E-04    5.79      14.9  T
  10    -81.8500345 -0.466373E-08  0.159E-04    5.79      86.4  T

   *** convergence criteria satisfied after 10 iterations ***

         #    Occupation            Energy/Eh            Energy/eV
      -------------------------------------------------------------
         1        2.0000           -0.7907278             -21.5168
       ...           ...                  ...                  ...
        64        2.0000           -0.4956281             -13.4867
        65        2.0000           -0.4947079             -13.4617
        66        2.0000           -0.4944412             -13.4544
        67        2.0000           -0.4908424             -13.3565
        68        2.0000           -0.4885615             -13.2944
        69        2.0000           -0.4879064             -13.2766
        70        2.0000           -0.4830372             -13.1441 (HOMO)
        71                         -0.2704079              -7.3582 (LUMO)
        72                         -0.2659414              -7.2366
        73                         -0.2637373              -7.1767
        74                         -0.2578763              -7.0172
        75                         -0.1447060              -3.9377
       ...                                ...                  ...
       122                          0.5707307              15.5304
      -------------------------------------------------------------
                  HL-Gap            0.2126294 Eh            5.7859 eV
             Fermi-level           -0.3767225 Eh          -10.2511 eV

 SCC (total)                   0 d,  0 h,  0 min,  0.097 sec
 SCC setup                      ...        0 min,  0.000 sec (  0.306%)
 Dispersion                     ...        0 min,  0.001 sec (  0.629%)
 classical contributions        ...        0 min,  0.000 sec (  0.192%)
 integral evaluation            ...        0 min,  0.008 sec (  8.178%)
 iterations                     ...        0 min,  0.060 sec ( 61.885%)
 molecular gradient             ...        0 min,  0.028 sec ( 28.503%)
 printout                       ...        0 min,  0.000 sec (  0.295%)

         :::::::::::::::::::::::::::::::::::::::::::::::::::::
         ::                     SUMMARY                     ::
         :::::::::::::::::::::::::::::::::::::::::::::::::::::
         :: total energy             -80.932419744218 Eh    ::
         :: gradient norm              0.000064325063 Eh/a0 ::
         :: HOMO-LUMO gap              5.785939501990 eV    ::
         ::.................................................::
         :: SCC energy               -81.850034525845 Eh    ::
         :: -> isotropic ES            0.290613728027 Eh    ::
         :: -> anisotropic ES         -0.028023166239 Eh    ::
         :: -> anisotropic XC          0.020932903409 Eh    ::
         :: -> dispersion             -0.044555189567 Eh    ::
         :: repulsion energy           0.916459077861 Eh    ::
         :: add. restraining           0.000000000000 Eh    ::
         :: total charge               1.000000000000 e     ::
         :::::::::::::::::::::::::::::::::::::::::::::::::::::

           ------------------------------------------------- 
          |                Numerical Hessian                |
           ------------------------------------------------- 
step length          :   0.00500
SCC accuracy         :   0.30000
Hessian scale factor :   1.00000
frozen atoms in %    :   0.00000    0
RMS gradient         :   0.00006
estimated CPU  time      0.24 min
estimated wall time      0.24 min

writing file <hessian>.

 projected vibrational frequencies (cm⁻¹)
eigval :       -0.00     0.00     0.00     0.00     0.00     0.00
eigval :       14.38    20.06    27.36    31.45    38.21    40.23
eigval :       46.39    58.45    59.24    61.94    67.15    69.90
eigval :       81.84    82.72    91.87    95.97   102.61   115.41
eigval :      117.38   118.70   136.09   144.17   160.60   165.10
eigval :      172.51   202.28   236.68   282.33   287.50   293.89
eigval :      303.84   304.74   311.24   325.30   346.05   369.10
eigval :      387.30   401.43   419.06   435.95   438.19   452.55
eigval :      458.54   460.52   464.47   471.59   472.46   478.14
eigval :      481.31   482.42   484.19   536.36   541.08   542.33
eigval :      548.95   561.54   611.31   624.26   650.11   661.59
eigval :      669.14   676.09   681.00   688.53   701.62   764.93
eigval :      896.42   927.38   950.55   962.46   963.56   966.13
eigval :      997.93   999.12  1000.60  1008.50  1009.91  1010.96
eigval :     1025.05  1030.57  1033.63  1081.00  1087.04  1088.50
eigval :     1090.16  1096.76  1103.29  1130.16  1170.55  1227.32
eigval :     1249.54  1272.02  1315.21  1325.53  1347.95  1351.64
eigval :     1361.07  1362.52  1365.74  1377.34  1404.10  1411.20
eigval :     1414.80  1437.24  1438.12  1454.14  1457.47  1459.00
eigval :     1462.60  1464.53  1465.49  1467.18  1472.60  1480.16
eigval :     1488.60  1499.84  1505.91  1506.54  1507.54  1695.24
eigval :     1704.66  1707.34  1718.52  2890.07  3002.43  3017.89
eigval :     3033.82  3036.20  3039.82  3042.00  3042.71  3048.19
eigval :     3050.69  3055.82  3059.99  3063.38  3300.48  3343.59
eigval :     3348.87  3409.37  3435.29  3494.84  3497.20  3497.89
eigval :     3498.07  3529.74  3530.53  3532.55  3538.36  3557.73
eigval :     3561.70  3562.26  3563.31
           -------------------------------------------------
          |                Property Printout                |
           -------------------------------------------------

    * Orbital Energies and Occupations

         #    Occupation            Energy/Eh            Energy/eV
      -------------------------------------------------------------
         1        2.0000           -0.7907272             -21.5168
       ...           ...                  ...                  ...
        58        2.0000           -0.5075618             -13.8115
        59        2.0000           -0.5020432             -13.6613
        60        2.0000           -0.5011025             -13.6357
        61        2.0000           -0.5001234             -13.6091
        62        2.0000           -0.4989707             -13.5777
        63        2.0000           -0.4968392             -13.5197
        64        2.0000           -0.4956293             -13.4868
        65        2.0000           -0.4947087             -13.4617
        66        2.0000           -0.4944419             -13.4544
        67        2.0000           -0.4908435             -13.3565
        68        2.0000           -0.4885626             -13.2945
        69        2.0000           -0.4879074             -13.2766
        70        2.0000           -0.4830384             -13.1441 (HOMO)
        71                         -0.2704087              -7.3582 (LUMO)
        72                         -0.2659441              -7.2367
        73                         -0.2637384              -7.1767
        74                         -0.2578772              -7.0172
        75                         -0.1447054              -3.9376
        76                         -0.1029840              -2.8023
        77                         -0.0904906              -2.4624
        78                         -0.0861048              -2.3430
        79                         -0.0780377              -2.1235
        80                         -0.0766965              -2.0870
        81                         -0.0673959              -1.8339
       ...                                ...                  ...
       122                          0.5707299              15.5304
      -------------------------------------------------------------
                  HL-Gap            0.2126297 Eh            5.7859 eV
             Fermi-level           -0.3767236 Eh          -10.2512 eV

     #   Z          covCN         q      C6AA      α(0)
     1   8 O        1.654    -0.469    22.241     6.366
     2   6 C        3.673     0.058    19.828     6.381
     3   1 H        0.924     0.083     1.953     2.185
     4   1 H        0.923     0.040     2.444     2.445
     5   6 C        3.770    -0.078    22.023     6.688
     6   1 H        0.924     0.125     1.572     1.961
     7   1 H        0.925     0.114     1.665     2.018
     8   7 N        3.624     0.158    18.577     6.402
     9   6 C        3.740    -0.103    22.557     6.777
    10   1 H        0.925     0.105     1.740     2.063
    11   1 H        0.925     0.081     1.971     2.195
    12   1 H        0.925     0.109     1.704     2.042
    13   6 C        3.724    -0.118    22.867     6.829
    14   1 H        0.925     0.119     1.618     1.989
    15   1 H        0.925     0.076     2.021     2.223
    16   1 H        0.925     0.113     1.674     2.023
    17   6 C        3.722    -0.106    22.651     6.797
    18   1 H        0.925     0.108     1.718     2.050
    19   1 H        0.925     0.119     1.621     1.991
    20   1 H        0.925     0.075     2.029     2.228
    21   1 H        0.804     0.331     0.634     1.251
    22   6 C        2.675     0.343    21.177     7.530
    23   8 O        0.860    -0.530    24.453     6.630
    24   7 N        2.646    -0.289    27.466     7.784
    25   1 H        0.860     0.234     0.947     1.524
    26   1 H        0.861     0.184     1.191     1.709
    27   7 N        2.646    -0.293    27.552     7.796
    28   1 H        0.860     0.185     1.188     1.708
    29   1 H        0.860     0.196     1.127     1.663
    30   6 C        2.675     0.345    21.141     7.524
    31   8 O        0.860    -0.529    24.440     6.628
    32   7 N        2.644    -0.301    27.759     7.825
    33   1 H        0.860     0.230     0.964     1.538
    34   1 H        0.860     0.181     1.208     1.722
    35   7 N        2.645    -0.290    27.475     7.785
    36   1 H        0.861     0.185     1.185     1.706
    37   1 H        0.860     0.200     1.108     1.649
    38   6 C        2.675     0.344    21.155     7.526
    39   8 O        0.860    -0.535    24.565     6.645
    40   7 N        2.645    -0.294    27.575     7.799
    41   1 H        0.860     0.198     1.115     1.654
    42   1 H        0.861     0.181     1.208     1.721
    43   7 N        2.644    -0.304    27.822     7.834
    44   1 H        0.861     0.174     1.246     1.749
    45   1 H        0.860     0.237     0.936     1.515
    46   6 C        2.675     0.343    21.178     7.531
    47   8 O        0.860    -0.518    24.181     6.593
    48   7 N        2.645    -0.297    27.652     7.810
    49   1 H        0.860     0.195     1.134     1.668
    50   1 H        0.860     0.181     1.206     1.720
    51   7 N        2.645    -0.302    27.771     7.827
    52   1 H        0.860     0.176     1.239     1.743
    53   1 H        0.860     0.230     0.965     1.539

 Mol. C6AA /au·bohr⁶  :      21782.165605
 Mol. C8AA /au·bohr⁸  :     454053.525577
 Mol. α(0) /au        :        220.498193


Wiberg/Mayer (AO) data.
largest (>0.10) Wiberg bond orders for each atom

 ---------------------------------------------------------------------------
     #   Z sym  total        # sym  WBO       # sym  WBO       # sym  WBO
 ---------------------------------------------------------------------------
     1   8 O    1.961 --     2 C    1.005    21 H    0.845
     2   6 C    3.955 --     1 O    1.005     5 C    1.001     4 H    0.962
                             3 H    0.947
     3   1 H    0.993 --     2 C    0.947
     4   1 H    0.998 --     2 C    0.962
     5   6 C    3.917 --     2 C    1.001     7 H    0.947     6 H    0.943
                             8 N    0.926
     6   1 H    0.984 --     5 C    0.943
     7   1 H    0.987 --     5 C    0.947
     8   7 N    3.822 --     9 C    0.961    17 C    0.959    13 C    0.957
                             5 C    0.926
     9   6 C    3.931 --    11 H    0.978    10 H    0.973    12 H    0.972
                             8 N    0.961
    10   1 H    0.989 --     9 C    0.973
    11   1 H    0.993 --     9 C    0.978
    12   1 H    0.988 --     9 C    0.972
    13   6 C    3.921 --    15 H    0.979    16 H    0.963     8 N    0.957
                            14 H    0.955
    14   1 H    0.986 --    13 C    0.955
    15   1 H    0.994 --    13 C    0.979
    16   1 H    0.987 --    13 C    0.963
    17   6 C    3.926 --    20 H    0.979    18 H    0.970    19 H    0.965
                             8 N    0.959
    18   1 H    0.988 --    17 C    0.970
    19   1 H    0.986 --    17 C    0.965
    20   1 H    0.994 --    17 C    0.979
    21   1 H    0.890 --     1 O    0.845
    22   6 C    3.959 --    23 O    1.504    24 N    1.248    27 N    1.198
    23   8 O    1.898 --    22 C    1.504    24 N    0.145    27 N    0.134
    24   7 N    3.351 --    22 C    1.248    26 H    0.947    25 H    0.910
                            23 O    0.145
    25   1 H    0.945 --    24 N    0.910
    26   1 H    0.966 --    24 N    0.947
    27   7 N    3.312 --    22 C    1.198    28 H    0.947    29 H    0.944
                            23 O    0.134
    28   1 H    0.966 --    27 N    0.947
    29   1 H    0.962 --    27 N    0.944
    30   6 C    3.959 --    31 O    1.515    32 N    1.227    35 N    1.208
    31   8 O    1.898 --    30 C    1.515    32 N    0.143    35 N    0.138
    32   7 N    3.325 --    30 C    1.227    34 H    0.948    33 H    0.908
                            31 O    0.143
    33   1 H    0.947 --    32 N    0.908
    34   1 H    0.967 --    32 N    0.948
    35   7 N    3.323 --    30 C    1.208    36 H    0.947    37 H    0.943
                            31 O    0.138
    36   1 H    0.965 --    35 N    0.947
    37   1 H    0.960 --    35 N    0.943
    38   6 C    3.959 --    39 O    1.509    43 N    1.240    40 N    1.199
    39   8 O    1.885 --    38 C    1.509    43 N    0.145    40 N    0.135
    40   7 N    3.314 --    38 C    1.199    42 H    0.948    41 H    0.944
                            39 O    0.135
    41   1 H    0.961 --    40 N    0.944
    42   1 H    0.967 --    40 N    0.948
    43   7 N    3.335 --    38 C    1.240    44 H    0.950    45 H    0.888
                            39 O    0.145
    44   1 H    0.969 --    43 N    0.950
    45   1 H    0.944 --    43 N    0.888
    46   6 C    3.959 --    47 O    1.531    51 N    1.231    48 N    1.189
    47   8 O    1.911 --    46 C    1.531    51 N    0.147    48 N    0.138
    48   7 N    3.303 --    46 C    1.189    50 H    0.948    49 H    0.945
                            47 O    0.138
    49   1 H    0.962 --    48 N    0.945
    50   1 H    0.967 --    48 N    0.948
    51   7 N    3.330 --    46 C    1.231    52 H    0.950    53 H    0.897
                            47 O    0.147
    52   1 H    0.969 --    51 N    0.950
    53   1 H    0.947 --    51 N    0.897
 ---------------------------------------------------------------------------

Topologies differ in total number of bonds
Writing topology from bond orders to xtbtopo.mol

molecular dipole:
                 x           y           z       tot (Debye)
 q only:        0.661      -0.070      -0.139
   full:        0.787       0.167       0.339       2.218
molecular quadrupole (traceless):
                xx          xy          yy          xz          yz          zz
 q only:       -0.802      13.967     -13.305       5.482     -29.833      14.107
  q+dip:        0.858      18.165     -17.544       5.165     -38.497      16.686
   full:        0.841      17.835     -17.104       5.303     -37.930      16.263

           -------------------------------------------------
          |               Frequency Printout                |
           -------------------------------------------------
 projected vibrational frequencies (cm⁻¹)
eigval :       -0.00     0.00     0.00     0.00     0.00     0.00
eigval :       14.38    20.06    27.36    31.45    38.21    40.23
eigval :       46.39    58.45    59.24    61.94    67.15    69.90
eigval :       81.84    82.72    91.87    95.97   102.61   115.41
eigval :      117.38   118.70   136.09   144.17   160.60   165.10
eigval :      172.51   202.28   236.68   282.33   287.50   293.89
eigval :      303.84   304.74   311.24   325.30   346.05   369.10
eigval :      387.30   401.43   419.06   435.95   438.19   452.55
eigval :      458.54   460.52   464.47   471.59   472.46   478.14
eigval :      481.31   482.42   484.19   536.36   541.08   542.33
eigval :      548.95   561.54   611.31   624.26   650.11   661.59
eigval :      669.14   676.09   681.00   688.53   701.62   764.93
eigval :      896.42   927.38   950.55   962.46   963.56   966.13
eigval :      997.93   999.12  1000.60  1008.50  1009.91  1010.96
eigval :     1025.05  1030.57  1033.63  1081.00  1087.04  1088.50
eigval :     1090.16  1096.76  1103.29  1130.16  1170.55  1227.32
eigval :     1249.54  1272.02  1315.21  1325.53  1347.95  1351.64
eigval :     1361.07  1362.52  1365.74  1377.34  1404.10  1411.20
eigval :     1414.80  1437.24  1438.12  1454.14  1457.47  1459.00
eigval :     1462.60  1464.53  1465.49  1467.18  1472.60  1480.16
eigval :     1488.60  1499.84  1505.91  1506.54  1507.54  1695.24
eigval :     1704.66  1707.34  1718.52  2890.07  3002.43  3017.89
eigval :     3033.82  3036.20  3039.82  3042.00  3042.71  3048.19
eigval :     3050.69  3055.82  3059.99  3063.38  3300.48  3343.59
eigval :     3348.87  3409.37  3435.29  3494.84  3497.20  3497.89
eigval :     3498.07  3529.74  3530.53  3532.55  3538.36  3557.73
eigval :     3561.70  3562.26  3563.31
 reduced masses (amu)
   1: 12.66   2: 12.41   3: 12.67   4: 12.72   5: 12.53   6: 12.46   7: 11.92   8: 11.34
   9: 11.84  10: 11.78  11: 11.92  12: 12.51  13: 12.20  14: 12.26  15: 12.52  16: 12.42
  17: 12.81  18: 12.62  19: 13.67  20: 13.33  21: 12.87  22: 12.01  23: 11.69  24: 13.32
  25: 12.57  26: 13.45  27: 12.87  28: 12.96  29: 12.84  30: 11.49  31: 12.10  32:  8.37
  33:  4.76  34:  2.88  35:  5.82  36:  3.22  37:  3.45  38:  2.76  39:  8.08  40:  2.53
  41:  3.53  42:  7.84  43:  3.58  44:  3.31  45:  3.34  46:  5.80  47:  5.34  48:  1.91
  49:  2.04  50:  8.24  51:  7.51  52:  4.98  53:  4.24  54:  8.61  55:  8.37  56:  5.11
  57:  8.18  58: 11.32  59: 10.89  60: 11.32  61: 11.09  62:  8.32  63:  2.33  64:  2.11
  65:  3.59  66:  7.12  67:  9.16  68: 11.85  69:  9.78  70:  6.22  71:  5.05  72:  9.25
  73:  7.33  74:  8.45  75:  5.13  76:  5.02  77:  4.86  78:  4.89  79:  8.27  80:  8.19
  81:  8.53  82:  9.08  83:  9.19  84:  7.55  85:  6.15  86:  5.55  87:  4.26  88:  9.85
  89:  8.81  90:  9.00  91:  8.74  92:  5.97  93:  4.01  94:  9.08  95:  3.35  96:  6.18
  97:  6.77  98:  8.22  99:  4.29 100:  4.51 101:  5.65 102:  5.44 103:  5.82 104:  4.90
 105:  5.53 106:  4.56 107:  2.10 108:  2.58 109:  2.56 110:  2.02 111:  2.24 112:  2.09
 113:  1.97 114:  2.04 115:  2.47 116:  2.44 117:  2.69 118:  2.73 119:  2.66 120:  2.17
 121:  1.80 122:  7.22 123:  7.78 124:  8.07 125:  7.89 126: 12.78 127: 12.76 128: 12.72
 129: 12.77 130:  1.74 131:  1.72 132:  1.75 133:  1.78 134:  1.65 135:  1.62 136:  1.86
 137:  1.86 138:  1.65 139:  1.81 140:  1.86 141:  1.65 142:  1.58 143:  1.75 144:  1.73
 145:  1.88 146:  1.66 147:  1.64 148:  1.46 149:  1.45 150:  1.45 151:  1.46 152:  1.99
 153:  1.94 154:  1.93 155:  2.01 156:  2.17 157:  2.17 158:  2.18 159:  2.18
 IR intensities (km·mol⁻¹)
   1:  2.80   2:  0.59   3:  1.64   4:  1.02   5:  0.38   6:  2.24   7:  0.22   8:  2.34
   9:  2.35  10:  2.50  11:  0.11  12:  0.24  13:  6.44  14:  2.22  15:  1.72  16:  1.01
  17:  1.61  18:  0.70  19:  4.35  20: 10.71  21:  8.12  22:  8.06  23:  7.13  24:  2.80
  25:  6.06  26: 13.49  27: 18.98  28: 17.72  29: 29.02  30: 10.66  31: 16.49  32:  2.25
  33:  2.18  34:112.04  35: 15.01  36:149.73  37:  3.62  38: 65.72  39:  1.62  40: 32.23
  41:  5.59  42:  3.80  43: 18.86  44:216.77  45:560.74  46:170.34  47:179.93  48: 22.53
  49: 24.04  50:  4.20  51:  0.78  52: 25.67  53:  5.95  54:  9.62  55: 16.88  56:  1.72
  57: 17.09  58: 32.53  59: 10.01  60: 56.02  61: 11.42  62:  6.12  63: 81.84  64:115.03
  65:117.72  66:  3.85  67:  8.82  68: 41.28  69: 48.61  70: 13.84  71:738.10  72:  0.85
  73: 10.19  74:  9.98  75:  0.60  76:  2.48  77:  0.77  78:  0.17  79: 14.51  80: 10.88
  81: 13.36  82:  6.77  83: 14.66  84: 19.83  85: 20.26  86: 35.10  87:  9.77  88:  1.13
  89:  2.03  90:  1.29  91:  1.19  92:  7.83  93: 23.67  94: 28.59  95: 24.39  96: 11.85
  97: 11.44  98:  8.76  99: 15.64 100: 18.92 101:  7.42 102: 80.89 103:115.64 104:111.85
 105:105.26 106: 96.56 107: 20.80 108: 12.12 109: 18.90 110:  6.92 111: 17.00 112: 10.78
 113: 36.83 114: 13.18 115:  4.98 116:  7.63 117: 41.20 118: 27.70 119:  8.29 120: 20.00
 121: 62.07 122:475.21 123:403.50 124:796.82 125:371.91 126:****** 127:****** 128:511.69
 129:421.65 130: 39.87 131: 11.72 132: 27.89 133: 11.87 134:  7.97 135: 20.30 136: 33.43
 137: 14.21 138: 28.46 139: 28.14 140:  5.46 141:  0.02 142:  1.28 143:626.08 144:493.21
 145:477.28 146:203.89 147:274.72 148: 14.52 149: 17.36 150: 20.70 151: 14.89 152: 21.42
 153: 13.61 154: 11.69 155: 22.92 156: 10.40 157: 11.99 158: 10.61 159: 14.35
 Raman intensities (amu)
Molecule has no symmetry elements
It seems to be the C1 point group
   1:  0.00   2:  0.00   3:  0.00   4:  0.00   5:  0.00   6:  0.00   7:  0.00   8:  0.00
   9:  0.00  10:  0.00  11:  0.00  12:  0.00  13:  0.00  14:  0.00  15:  0.00  16:  0.00
  17:  0.00  18:  0.00  19:  0.00  20:  0.00  21:  0.00  22:  0.00  23:  0.00  24:  0.00
  25:  0.00  26:  0.00  27:  0.00  28:  0.00  29:  0.00  30:  0.00  31:  0.00  32:  0.00
  33:  0.00  34:  0.00  35:  0.00  36:  0.00  37:  0.00  38:  0.00  39:  0.00  40:  0.00
  41:  0.00  42:  0.00  43:  0.00  44:  0.00  45:  0.00  46:  0.00  47:  0.00  48:  0.00
  49:  0.00  50:  0.00  51:  0.00  52:  0.00  53:  0.00  54:  0.00  55:  0.00  56:  0.00
  57:  0.00  58:  0.00  59:  0.00  60:  0.00  61:  0.00  62:  0.00  63:  0.00  64:  0.00
  65:  0.00  66:  0.00  67:  0.00  68:  0.00  69:  0.00  70:  0.00  71:  0.00  72:  0.00
  73:  0.00  74:  0.00  75:  0.00  76:  0.00  77:  0.00  78:  0.00  79:  0.00  80:  0.00
  81:  0.00  82:  0.00  83:  0.00  84:  0.00  85:  0.00  86:  0.00  87:  0.00  88:  0.00
  89:  0.00  90:  0.00  91:  0.00  92:  0.00  93:  0.00  94:  0.00  95:  0.00  96:  0.00
  97:  0.00  98:  0.00  99:  0.00 100:  0.00 101:  0.00 102:  0.00 103:  0.00 104:  0.00
 105:  0.00 106:  0.00 107:  0.00 108:  0.00 109:  0.00 110:  0.00 111:  0.00 112:  0.00
 113:  0.00 114:  0.00 115:  0.00 116:  0.00 117:  0.00 118:  0.00 119:  0.00 120:  0.00
 121:  0.00 122:  0.00 123:  0.00 124:  0.00 125:  0.00 126:  0.00 127:  0.00 128:  0.00
 129:  0.00 130:  0.00 131:  0.00 132:  0.00 133:  0.00 134:  0.00 135:  0.00 136:  0.00
 137:  0.00 138:  0.00 139:  0.00 140:  0.00 141:  0.00 142:  0.00 143:  0.00 144:  0.00
 145:  0.00 146:  0.00 147:  0.00 148:  0.00 149:  0.00 150:  0.00 151:  0.00 152:  0.00
 153:  0.00 154:  0.00 155:  0.00 156:  0.00 157:  0.00 158:  0.00 159:  0.00
 output can be read by thermo (or use thermo option).
 writing <g98.out> molden fake output.
 recommended (thermochemical) frequency scaling factor: 1.0
           -------------------------------------------------
          |             Thermodynamic Functions             |
           -------------------------------------------------

c1  symmetry found (for desy threshold:  0.10E+00) used in thermo

          ...................................................
          :                      SETUP                      :
          :.................................................:
          :  # frequencies                         153      :
          :  # imaginary freq.                       0      :
          :  linear?                             false      :
          :  only rotor calc.                    false      :
          :  symmetry                               c1      :
          :  rotational number                       1      :
          :  scaling factor                  1.0000000      :
          :  rotor cutoff                   50.0000000 cm⁻¹ :
          :  imag. cutoff                  -20.0000000 cm⁻¹ :
          :.................................................:

    mode    ω/cm⁻¹     T·S(HO)/kcal·mol⁻¹    T·S(FR)/kcal·mol⁻¹   T·S(vib)
   ------------------------------------------------------------------------
       1     14.38    -2.17333 (  0.68%)    -1.42562 ( 99.32%)    -1.43070
       2     20.06    -1.97609 (  2.53%)    -1.32697 ( 97.47%)    -1.34338
       3     27.36    -1.79251 (  8.23%)    -1.23510 ( 91.77%)    -1.28097
       4     31.45    -1.71019 ( 13.53%)    -1.19388 ( 86.47%)    -1.26373
       5     38.21    -1.59504 ( 25.43%)    -1.13618 ( 74.57%)    -1.25288
       6     40.23    -1.56467 ( 29.52%)    -1.12095 ( 70.48%)    -1.25195
       7     46.39    -1.48055 ( 42.55%)    -1.07874 ( 57.45%)    -1.24973
       8     58.45    -1.34428 ( 65.13%)    -1.01025 ( 34.87%)    -1.22781
       9     59.24    -1.33636 ( 66.34%)    -1.00627 ( 33.66%)    -1.22526
      10     61.94    -1.31022 ( 70.19%)    -0.99310 ( 29.81%)    -1.21569
      11     67.15    -1.26273 ( 76.49%)    -0.96917 ( 23.51%)    -1.19371
      12     69.90    -1.23917 ( 79.25%)    -0.95728 ( 20.75%)    -1.18068
      13     81.84    -1.14674 ( 87.77%)    -0.91055 ( 12.23%)    -1.11786
      14     82.72    -1.14048 ( 88.22%)    -0.90738 ( 11.78%)    -1.11304
      15     91.87    -1.07926 ( 91.93%)    -0.87632 (  8.07%)    -1.06289
      16     95.97    -1.05384 ( 93.14%)    -0.86339 (  6.86%)    -1.04077
      17    102.61    -1.01496 ( 94.66%)    -0.84357 (  5.34%)    -1.00581
      18    115.41    -0.94689 ( 96.60%)    -0.80875 (  3.40%)    -0.94219
      19    117.38    -0.93709 ( 96.81%)    -0.80372 (  3.19%)    -0.93284
      20    118.70    -0.93064 ( 96.95%)    -0.80041 (  3.05%)    -0.92667
      21    136.09    -0.85216 ( 98.21%)    -0.75992 (  1.79%)    -0.85051
      22    144.17    -0.81926 ( 98.57%)    -0.74284 (  1.43%)    -0.81817
      23    160.60    -0.75809 ( 99.07%)    -0.71085 (  0.93%)    -0.75765
      24    165.10    -0.74256 ( 99.17%)    -0.70267 (  0.83%)    -0.74222
      25    172.51    -0.71792 ( 99.30%)    -0.68966 (  0.70%)    -0.71772
      26    202.28    -0.62976 ( 99.63%)    -0.64250 (  0.37%)    -0.62981
      27    236.68    -0.54492 ( 99.80%)    -0.59598 (  0.20%)    -0.54502
      28    282.33    -0.45303 ( 99.90%)    -0.54373 (  0.10%)    -0.45312
      29    287.50    -0.44383 ( 99.91%)    -0.53835 (  0.09%)    -0.44391
      30    293.89    -0.43275 ( 99.92%)    -0.53185 (  0.08%)    -0.43283
   ------------------------------------------------------------------------

   temp. (K)  partition function   enthalpy   heat capacity  entropy
                                   cal/mol     cal/K/mol   cal/K/mol   J/K/mol
 298.15  VIB  0.256E+17            19498.691    105.891    127.803
         ROT  0.135E+08              888.752      2.981     35.604
         INT  0.344E+24            20387.444    108.872    163.407
         TR   0.618E+28             1481.254      4.968     43.384
         TOT                       21868.6975   113.8403   206.7909   865.2133

       T/K    H(0)-H(T)+PV         H(T)/Eh          T*S/Eh         G(T)/Eh
   ------------------------------------------------------------------------
    298.15    0.348500E-01    0.474590E+00    0.982530E-01    0.376337E+00
   ------------------------------------------------------------------------

         :::::::::::::::::::::::::::::::::::::::::::::::::::::
         ::                  THERMODYNAMIC                  ::
         :::::::::::::::::::::::::::::::::::::::::::::::::::::
         :: total free energy         -80.556083175306 Eh   ::
         ::.................................................::
         :: total energy              -80.932419744385 Eh   ::
         :: zero point energy           0.439739627573 Eh   ::
         :: G(RRHO) w/o ZPVE           -0.063403058494 Eh   ::
         :: G(RRHO) contrib.            0.376336569079 Eh   ::
         :::::::::::::::::::::::::::::::::::::::::::::::::::::

           -------------------------------------------------
          | TOTAL ENERGY              -80.932419744385 Eh   |
          | TOTAL ENTHALPY            -80.457830129011 Eh   |
          | TOTAL FREE ENERGY         -80.556083175306 Eh   |
          | GRADIENT NORM               0.000064262446 Eh/α |
          | HOMO-LUMO GAP               5.785949180213 eV   |
           -------------------------------------------------

------------------------------------------------------------------------
 * finished run on 2024/01/10 at 15:40:36.181     
------------------------------------------------------------------------
 total:
 * wall-time:     0 d,  0 h,  0 min, 14.487 sec
 *  cpu-time:     0 d,  0 h,  0 min, 14.424 sec
 * ratio c/w:     0.996 speedup
 SCF:
 * wall-time:     0 d,  0 h,  0 min,  0.097 sec
 *  cpu-time:     0 d,  0 h,  0 min,  0.058 sec
 * ratio c/w:     0.593 speedup
 analytical hessian:
 * wall-time:     0 d,  0 h,  0 min, 14.363 sec
 *  cpu-time:     0 d,  0 h,  0 min, 14.340 sec
 * ratio c/w:     0.998 speedup

