      -----------------------------------------------------------      
     |                   =====================                   |     
     |                           x T B                           |     
     |                   =====================                   |     
     |                         S. Grimme                         |     
     |          Mulliken Center for Theoretical Chemistry        |     
     |                    University of Bonn                     |     
      -----------------------------------------------------------      

   * xtb version 6.6.1 (unknown-commit) compiled by '@Linux' on 12/27/2023

   xtb is free software: you can redistribute it and/or modify it under
   the terms of the GNU Lesser General Public License as published by
   the Free Software Foundation, either version 3 of the License, or
   (at your option) any later version.
   
   xtb is distributed in the hope that it will be useful,
   but WITHOUT ANY WARRANTY; without even the implied warranty of
   MERCHANTABILITY or FITNESS FOR A PARTICULAR PURPOSE.  See the
   GNU Lesser General Public License for more details.
   
   Cite this work as:
   * C. Bannwarth, E. Caldeweyher, S. Ehlert, A. Hansen, P. Pracht,
     J. Seibert, S. Spicher, S. Grimme, WIREs Comput. Mol. Sci., 2020, 11,
     e01493. DOI: 10.1002/wcms.1493
   
   for GFN2-xTB:
   * C. Bannwarth, S. Ehlert and S. Grimme., J. Chem. Theory Comput., 2019,
     15, 1652-1671. DOI: 10.1021/acs.jctc.8b01176
   for GFN1-xTB:
   * S. Grimme, C. Bannwarth, P. Shushkov, J. Chem. Theory Comput., 2017,
     13, 1989-2009. DOI: 10.1021/acs.jctc.7b00118
   for GFN0-xTB:
   * P. Pracht, E. Caldeweyher, S. Ehlert, S. Grimme, ChemRxiv, 2019, preprint.
     DOI: 10.26434/chemrxiv.8326202.v1
   for GFN-FF:
   * S. Spicher and S. Grimme, Angew. Chem. Int. Ed., 2020, 59, 15665-15673.
     DOI: 10.1002/anie.202004239
   
   for ALPB and GBSA implicit solvation:
   * S. Ehlert, M. Stahn, S. Spicher, S. Grimme, J. Chem. Theory Comput.,
     2021, 17, 4250-4261. DOI: 10.1021/acs.jctc.1c00471
   
   for DFT-D4:
   * E. Caldeweyher, C. Bannwarth and S. Grimme, J. Chem. Phys., 2017,
     147, 034112. DOI: 10.1063/1.4993215
   * E. Caldeweyher, S. Ehlert, A. Hansen, H. Neugebauer, S. Spicher,
     C. Bannwarth and S. Grimme, J. Chem. Phys., 2019, 150, 154122.
     DOI: 10.1063/1.5090222
   * E. Caldeweyher, J.-M. Mewes, S. Ehlert and S. Grimme, Phys. Chem. Chem. Phys.
     2020, 22, 8499-8512. DOI: 10.1039/D0CP00502A
   
   for sTDA-xTB:
   * S. Grimme and C. Bannwarth, J. Chem. Phys., 2016, 145, 054103.
     DOI: 10.1063/1.4959605
   
   in the mass-spec context:
   * V. Asgeirsson, C. Bauer and S. Grimme, Chem. Sci., 2017, 8, 4879.
     DOI: 10.1039/c7sc00601b
   * J. Koopman and S. Grimme, ACS Omega 2019, 4, 12, 15120-15133.
     DOI: 10.1021/acsomega.9b02011
   
   for metadynamics refer to:
   * S. Grimme, J. Chem. Theory Comput., 2019, 155, 2847-2862
     DOI: 10.1021/acs.jctc.9b00143
   
   for SPH calculations refer to:
   * S. Spicher and S. Grimme, J. Chem. Theory Comput., 2021, 17, 1701-1714
     DOI: 10.1021/acs.jctc.0c01306
   
   with help from (in alphabetical order)
   P. Atkinson, C. Bannwarth, F. Bohle, G. Brandenburg, E. Caldeweyher
   M. Checinski, S. Dohm, S. Ehlert, S. Ehrlich, I. Gerasimov, C. Hölzer
   A. Katbashev, J. Koopman, C. Lavigne, S. Lehtola, F. März, M. Müller,
   F. Musil, H. Neugebauer, J. Pisarek, C. Plett, P. Pracht, F. Pultar,
   J. Seibert, P. Shushkov, S. Spicher, M. Stahn, M. Steiner, T. Strunk,
   J. Stückrath, T. Rose, and J. Unsleber
   
 * started run on 2024/01/10 at 15:42:30.607     

           -------------------------------------------------
          |                Calculation Setup                |
           -------------------------------------------------

          program call               : xtb struc.xyz --gfn2 --hess
          hostname                   : swaroop
          coordinate file            : struc.xyz
          omp threads                :                     1

   ID    Z sym.   atoms
    1    8 O      1, 23, 31, 39, 47
    2    6 C      2, 5, 9, 13, 17, 22, 30, 38, 46
    3    1 H      3, 4, 6, 7, 10-12, 14-16, 18-21, 25, 26, 28, 29, 33, 34,
                  36, 37, 41, 42, 44, 45, 49, 50, 52, 53
    4    7 N      8, 24, 27, 32, 35, 40, 43, 48, 51

molecular fragmentation (1/2 indicates fragments):
11111111111111111111122222222222222222222222222222222
# atoms in fragment 1/2:    21    32
 fragment masses (1/2) :      104.17      240.22
CMA distance (Bohr)    :   4.160
constraining FC (au)   :  0.0500

           -------------------------------------------------
          |                 G F N 2 - x T B                 |
           -------------------------------------------------

        Reference                      10.1021/acs.jctc.8b01176
      * Hamiltonian:
        H0-scaling (s, p, d)           1.850000    2.230000    2.230000
        zeta-weighting                 0.500000
      * Dispersion:
        s8                             2.700000
        a1                             0.520000
        a2                             5.000000
        s9                             5.000000
      * Repulsion:
        kExp                           1.500000    1.000000
        rExp                           1.000000
      * Coulomb:
        alpha                          2.000000
        third order                    shell-resolved
        anisotropic                    true
        a3                             3.000000
        a5                             4.000000
        cn-shift                       1.200000
        cn-exp                         4.000000
        max-rad                        5.000000


          ...................................................
          :                      SETUP                      :
          :.................................................:
          :  # basis functions                 122          :
          :  # atomic orbitals                 122          :
          :  # shells                           76          :
          :  # electrons                       140          :
          :  max. iterations                   250          :
          :  Hamiltonian                  GFN2-xTB          :
          :  restarted?                      false          :
          :  GBSA solvation                  false          :
          :  PC potential                    false          :
          :  electronic temp.          300.0000000     K    :
          :  accuracy                    1.0000000          :
          :  -> integral cutoff          0.2500000E+02      :
          :  -> integral neglect         0.1000000E-07      :
          :  -> SCF convergence          0.1000000E-05 Eh   :
          :  -> wf. convergence          0.1000000E-03 e    :
          :  Broyden damping             0.4000000          :
          ...................................................

 iter      E             dE          RMSdq      gap      omega  full diag
   1    -81.5497004 -0.815497E+02  0.430E+00    5.20       0.0  T
   2    -81.8407756 -0.291075E+00  0.234E+00    6.04       1.0  T
   3    -81.8465644 -0.578880E-02  0.115E+00    5.79       1.0  T
   4    -81.8479142 -0.134982E-02  0.237E-01    5.90       1.0  T
   5    -81.8487824 -0.868187E-03  0.915E-02    5.83       1.0  T
   6    -81.8488077 -0.252994E-04  0.279E-02    5.84       1.0  T
   7    -81.8488124 -0.471915E-05  0.758E-03    5.84       1.8  T
   8    -81.8488127 -0.266960E-06  0.255E-03    5.84       5.4  T
   9    -81.8488127 -0.128006E-07  0.793E-04    5.84      17.3  T
  10    -81.8488127 -0.397945E-08  0.166E-04    5.84      82.9  T

   *** convergence criteria satisfied after 10 iterations ***

         #    Occupation            Energy/Eh            Energy/eV
      -------------------------------------------------------------
         1        2.0000           -0.7871611             -21.4197
       ...           ...                  ...                  ...
        64        2.0000           -0.4942836             -13.4501
        65        2.0000           -0.4932281             -13.4214
        66        2.0000           -0.4922243             -13.3941
        67        2.0000           -0.4909594             -13.3597
        68        2.0000           -0.4878606             -13.2754
        69        2.0000           -0.4864749             -13.2377
        70        2.0000           -0.4832568             -13.1501 (HOMO)
        71                         -0.2686525              -7.3104 (LUMO)
        72                         -0.2658327              -7.2337
        73                         -0.2656433              -7.2285
        74                         -0.2577998              -7.0151
        75                         -0.1416016              -3.8532
       ...                                ...                  ...
       122                          0.5640909              15.3497
      -------------------------------------------------------------
                  HL-Gap            0.2146043 Eh            5.8397 eV
             Fermi-level           -0.3759546 Eh          -10.2302 eV

 SCC (total)                   0 d,  0 h,  0 min,  0.097 sec
 SCC setup                      ...        0 min,  0.000 sec (  0.293%)
 Dispersion                     ...        0 min,  0.001 sec (  0.601%)
 classical contributions        ...        0 min,  0.000 sec (  0.186%)
 integral evaluation            ...        0 min,  0.008 sec (  8.039%)
 iterations                     ...        0 min,  0.060 sec ( 62.022%)
 molecular gradient             ...        0 min,  0.028 sec ( 28.570%)
 printout                       ...        0 min,  0.000 sec (  0.278%)

         :::::::::::::::::::::::::::::::::::::::::::::::::::::
         ::                     SUMMARY                     ::
         :::::::::::::::::::::::::::::::::::::::::::::::::::::
         :: total energy             -80.931737474132 Eh    ::
         :: gradient norm              0.000158653295 Eh/a0 ::
         :: HOMO-LUMO gap              5.839679935347 eV    ::
         ::.................................................::
         :: SCC energy               -81.848812717354 Eh    ::
         :: -> isotropic ES            0.290127536098 Eh    ::
         :: -> anisotropic ES         -0.025459951726 Eh    ::
         :: -> anisotropic XC          0.020608492456 Eh    ::
         :: -> dispersion             -0.043016969963 Eh    ::
         :: repulsion energy           0.915764207532 Eh    ::
         :: add. restraining           0.000000000000 Eh    ::
         :: total charge               1.000000000000 e     ::
         :::::::::::::::::::::::::::::::::::::::::::::::::::::

           ------------------------------------------------- 
          |                Numerical Hessian                |
           ------------------------------------------------- 
step length          :   0.00500
SCC accuracy         :   0.30000
Hessian scale factor :   1.00000
frozen atoms in %    :   0.00000    0
RMS gradient         :   0.00016
estimated CPU  time      0.24 min
estimated wall time      0.24 min

writing file <hessian>.

 projected vibrational frequencies (cm⁻¹)
eigval :       -0.00    -0.00     0.00     0.00     0.00     0.00
eigval :       -6.11    12.30    18.65    24.09    26.19    31.45
eigval :       33.53    42.54    46.56    51.33    56.61    61.77
eigval :       65.50    73.49    75.68    80.14    85.13    97.33
eigval :      108.55   117.04   122.00   130.31   142.12   185.70
eigval :      186.51   194.62   230.89   272.71   285.42   296.68
eigval :      305.32   310.70   326.03   333.40   359.48   363.17
eigval :      372.46   420.16   429.69   431.07   444.01   452.56
eigval :      454.51   463.66   465.18   468.70   471.81   474.55
eigval :      482.17   484.57   489.14   505.28   529.09   532.15
eigval :      535.14   545.76   557.97   654.61   672.07   673.97
eigval :      674.38   691.77   722.86   742.83   762.23   769.80
eigval :      895.34   928.22   944.18   962.56   965.21   967.92
eigval :      994.57  1004.67  1006.43  1010.15  1013.80  1014.50
eigval :     1029.41  1034.64  1038.61  1080.66  1086.19  1087.15
eigval :     1089.45  1096.05  1103.91  1130.72  1163.20  1225.79
eigval :     1250.76  1283.17  1305.79  1329.09  1344.61  1352.19
eigval :     1358.46  1359.25  1369.69  1383.31  1400.45  1402.50
eigval :     1429.24  1435.23  1441.42  1447.93  1451.10  1454.03
eigval :     1455.75  1459.45  1464.06  1469.67  1471.24  1479.89
eigval :     1493.05  1497.45  1500.26  1507.40  1511.51  1674.08
eigval :     1693.39  1707.58  1725.87  2915.39  2974.76  2994.94
eigval :     3013.68  3029.31  3040.24  3041.99  3045.54  3046.40
eigval :     3049.93  3054.13  3060.36  3064.69  3199.36  3250.79
eigval :     3282.00  3354.22  3493.89  3496.41  3496.46  3501.86
eigval :     3506.22  3526.43  3528.35  3529.03  3557.84  3561.74
eigval :     3562.70  3566.78  3572.33
           -------------------------------------------------
          |                Property Printout                |
           -------------------------------------------------

    * Orbital Energies and Occupations

         #    Occupation            Energy/Eh            Energy/eV
      -------------------------------------------------------------
         1        2.0000           -0.7871606             -21.4197
       ...           ...                  ...                  ...
        58        2.0000           -0.5038408             -13.7102
        59        2.0000           -0.5023655             -13.6701
        60        2.0000           -0.5008000             -13.6275
        61        2.0000           -0.4997519             -13.5989
        62        2.0000           -0.4962985             -13.5050
        63        2.0000           -0.4961898             -13.5020
        64        2.0000           -0.4942844             -13.4502
        65        2.0000           -0.4932284             -13.4214
        66        2.0000           -0.4922250             -13.3941
        67        2.0000           -0.4909600             -13.3597
        68        2.0000           -0.4878610             -13.2754
        69        2.0000           -0.4864747             -13.2377
        70        2.0000           -0.4832583             -13.1501 (HOMO)
        71                         -0.2686528              -7.3104 (LUMO)
        72                         -0.2658343              -7.2337
        73                         -0.2656447              -7.2286
        74                         -0.2578003              -7.0151
        75                         -0.1416008              -3.8532
        76                         -0.0970529              -2.6409
        77                         -0.0936113              -2.5473
        78                         -0.0771142              -2.0984
        79                         -0.0730350              -1.9874
        80                         -0.0707715              -1.9258
        81                         -0.0642025              -1.7470
       ...                                ...                  ...
       122                          0.5640905              15.3497
      -------------------------------------------------------------
                  HL-Gap            0.2146054 Eh            5.8397 eV
             Fermi-level           -0.3759555 Eh          -10.2303 eV

     #   Z          covCN         q      C6AA      α(0)
     1   8 O        1.654    -0.464    22.123     6.349
     2   6 C        3.673     0.074    19.565     6.339
     3   1 H        0.924     0.052     2.293     2.368
     4   1 H        0.924     0.047     2.355     2.400
     5   6 C        3.763    -0.065    21.799     6.655
     6   1 H        0.924     0.125     1.571     1.960
     7   1 H        0.924     0.088     1.899     2.155
     8   7 N        3.624     0.158    18.580     6.402
     9   6 C        3.730    -0.117    22.837     6.822
    10   1 H        0.925     0.105     1.737     2.061
    11   1 H        0.925     0.108     1.710     2.045
    12   1 H        0.925     0.110     1.693     2.035
    13   6 C        3.736    -0.117    22.821     6.817
    14   1 H        0.925     0.115     1.654     2.011
    15   1 H        0.925     0.078     1.999     2.211
    16   1 H        0.925     0.117     1.639     2.002
    17   6 C        3.724    -0.107    22.656     6.797
    18   1 H        0.925     0.079     1.985     2.203
    19   1 H        0.925     0.094     1.840     2.121
    20   1 H        0.925     0.122     1.601     1.979
    21   1 H        0.803     0.331     0.636     1.253
    22   6 C        2.675     0.341    21.210     7.536
    23   8 O        0.860    -0.520    24.237     6.601
    24   7 N        2.645    -0.293    27.566     7.798
    25   1 H        0.860     0.199     1.113     1.652
    26   1 H        0.861     0.182     1.200     1.716
    27   7 N        2.644    -0.304    27.837     7.836
    28   1 H        0.860     0.179     1.222     1.732
    29   1 H        0.860     0.237     0.937     1.516
    30   6 C        2.675     0.346    21.128     7.522
    31   8 O        0.860    -0.520    24.237     6.601
    32   7 N        2.646    -0.289    27.453     7.782
    33   1 H        0.861     0.199     1.110     1.651
    34   1 H        0.861     0.186     1.182     1.703
    35   7 N        2.646    -0.289    27.459     7.783
    36   1 H        0.861     0.186     1.181     1.702
    37   1 H        0.860     0.199     1.109     1.649
    38   6 C        2.675     0.341    21.205     7.535
    39   8 O        0.860    -0.538    24.642     6.656
    40   7 N        2.645    -0.298    27.676     7.813
    41   1 H        0.860     0.195     1.134     1.668
    42   1 H        0.860     0.182     1.205     1.720
    43   7 N        2.644    -0.299    27.699     7.816
    44   1 H        0.860     0.178     1.224     1.733
    45   1 H        0.859     0.251     0.881     1.470
    46   6 C        2.675     0.343    21.166     7.528
    47   8 O        0.861    -0.533    24.529     6.640
    48   7 N        2.644    -0.291    27.493     7.787
    49   1 H        0.860     0.202     1.098     1.642
    50   1 H        0.861     0.184     1.191     1.709
    51   7 N        2.644    -0.306    27.885     7.843
    52   1 H        0.861     0.177     1.231     1.738
    53   1 H        0.860     0.241     0.921     1.503

 Mol. C6AA /au·bohr⁶  :      21793.921525
 Mol. C8AA /au·bohr⁸  :     454165.922129
 Mol. α(0) /au        :        220.566907


Wiberg/Mayer (AO) data.
largest (>0.10) Wiberg bond orders for each atom

 ---------------------------------------------------------------------------
     #   Z sym  total        # sym  WBO       # sym  WBO       # sym  WBO
 ---------------------------------------------------------------------------
     1   8 O    1.958 --     2 C    1.021    21 H    0.832
     2   6 C    3.965 --     1 O    1.021     5 C    0.993     3 H    0.966
                             4 H    0.961
     3   1 H    0.997 --     2 C    0.966
     4   1 H    0.997 --     2 C    0.961
     5   6 C    3.928 --     2 C    0.993     7 H    0.966     6 H    0.950
                             8 N    0.934
     6   1 H    0.984 --     5 C    0.950
     7   1 H    0.992 --     5 C    0.966
     8   7 N    3.822 --    17 C    0.962    13 C    0.956     9 C    0.954
                             5 C    0.934
     9   6 C    3.917 --    10 H    0.971    11 H    0.969    12 H    0.966
                             8 N    0.954
    10   1 H    0.989 --     9 C    0.971
    11   1 H    0.988 --     9 C    0.969
    12   1 H    0.988 --     9 C    0.966
    13   6 C    3.921 --    15 H    0.979    16 H    0.964    14 H    0.962
                             8 N    0.956
    14   1 H    0.987 --    13 C    0.962
    15   1 H    0.994 --    13 C    0.979
    16   1 H    0.986 --    13 C    0.964
    17   6 C    3.930 --    18 H    0.979    19 H    0.974     8 N    0.962
                            20 H    0.960
    18   1 H    0.994 --    17 C    0.979
    19   1 H    0.991 --    17 C    0.974
    20   1 H    0.985 --    17 C    0.960
    21   1 H    0.891 --     1 O    0.832
    22   6 C    3.960 --    23 O    1.516    27 N    1.233    24 N    1.199
    23   8 O    1.910 --    22 C    1.516    27 N    0.145    24 N    0.136
    24   7 N    3.314 --    22 C    1.199    26 H    0.948    25 H    0.944
                            23 O    0.136
    25   1 H    0.960 --    24 N    0.944
    26   1 H    0.966 --    24 N    0.948
    27   7 N    3.329 --    22 C    1.233    28 H    0.949    29 H    0.893
                            23 O    0.145
    28   1 H    0.968 --    27 N    0.949
    29   1 H    0.944 --    27 N    0.893
    30   6 C    3.959 --    31 O    1.539    35 N    1.207    32 N    1.207
    31   8 O    1.897 --    30 C    1.539    35 N    0.144    32 N    0.144
    32   7 N    3.323 --    30 C    1.207    34 H    0.947    33 H    0.944
                            31 O    0.144
    33   1 H    0.960 --    32 N    0.944
    34   1 H    0.965 --    32 N    0.947
    35   7 N    3.323 --    30 C    1.207    36 H    0.947    37 H    0.943
                            31 O    0.144
    36   1 H    0.965 --    35 N    0.947
    37   1 H    0.960 --    35 N    0.943
    38   6 C    3.959 --    39 O    1.479    43 N    1.273    40 N    1.192
    39   8 O    1.880 --    38 C    1.479    43 N    0.144    40 N    0.127
    40   7 N    3.306 --    38 C    1.192    42 H    0.948    41 H    0.945
                            39 O    0.127
    41   1 H    0.962 --    40 N    0.945
    42   1 H    0.967 --    40 N    0.948
    43   7 N    3.358 --    38 C    1.273    44 H    0.948    45 H    0.866
                            39 O    0.144
    44   1 H    0.968 --    43 N    0.948
    45   1 H    0.937 --    43 N    0.866
    46   6 C    3.959 --    47 O    1.483    51 N    1.248    48 N    1.210
    47   8 O    1.890 --    46 C    1.483    51 N    0.139    48 N    0.131
    48   7 N    3.324 --    46 C    1.210    50 H    0.947    49 H    0.942
                            47 O    0.131
    49   1 H    0.959 --    48 N    0.942
    50   1 H    0.966 --    48 N    0.947
    51   7 N    3.336 --    46 C    1.248    52 H    0.949    53 H    0.874
                            47 O    0.139
    52   1 H    0.968 --    51 N    0.949
    53   1 H    0.942 --    51 N    0.874
 ---------------------------------------------------------------------------

Topologies differ in total number of bonds
Writing topology from bond orders to xtbtopo.mol

molecular dipole:
                 x           y           z       tot (Debye)
 q only:       -1.575       0.365      -0.317
   full:       -1.725       0.091       0.185       4.416
molecular quadrupole (traceless):
                xx          xy          yy          xz          yz          zz
 q only:       11.720     -29.244     -15.124      29.650     -21.062       3.404
  q+dip:       16.039     -35.332     -18.159      34.312     -24.870       2.120
   full:       15.341     -35.028     -17.767      34.466     -24.632       2.426

           -------------------------------------------------
          |               Frequency Printout                |
           -------------------------------------------------
 projected vibrational frequencies (cm⁻¹)
eigval :       -0.00    -0.00     0.00     0.00     0.00     0.00
eigval :       -6.11    12.30    18.65    24.09    26.19    31.45
eigval :       33.53    42.54    46.56    51.33    56.61    61.77
eigval :       65.50    73.49    75.68    80.14    85.13    97.33
eigval :      108.55   117.04   122.00   130.31   142.12   185.70
eigval :      186.51   194.62   230.89   272.71   285.42   296.68
eigval :      305.32   310.70   326.03   333.40   359.48   363.17
eigval :      372.46   420.16   429.69   431.07   444.01   452.56
eigval :      454.51   463.66   465.18   468.70   471.81   474.55
eigval :      482.17   484.57   489.14   505.28   529.09   532.15
eigval :      535.14   545.76   557.97   654.61   672.07   673.97
eigval :      674.38   691.77   722.86   742.83   762.23   769.80
eigval :      895.34   928.22   944.18   962.56   965.21   967.92
eigval :      994.57  1004.67  1006.43  1010.15  1013.80  1014.50
eigval :     1029.41  1034.64  1038.61  1080.66  1086.19  1087.15
eigval :     1089.45  1096.05  1103.91  1130.72  1163.20  1225.79
eigval :     1250.76  1283.17  1305.79  1329.09  1344.61  1352.19
eigval :     1358.46  1359.25  1369.69  1383.31  1400.45  1402.50
eigval :     1429.24  1435.23  1441.42  1447.93  1451.10  1454.03
eigval :     1455.75  1459.45  1464.06  1469.67  1471.24  1479.89
eigval :     1493.05  1497.45  1500.26  1507.40  1511.51  1674.08
eigval :     1693.39  1707.58  1725.87  2915.39  2974.76  2994.94
eigval :     3013.68  3029.31  3040.24  3041.99  3045.54  3046.40
eigval :     3049.93  3054.13  3060.36  3064.69  3199.36  3250.79
eigval :     3282.00  3354.22  3493.89  3496.41  3496.46  3501.86
eigval :     3506.22  3526.43  3528.35  3529.03  3557.84  3561.74
eigval :     3562.70  3566.78  3572.33
 reduced masses (amu)
   1: 12.67   2: 12.58   3: 12.50   4: 12.59   5: 12.37   6: 12.80   7: 11.02   8: 12.43
   9: 11.78  10: 12.34  11: 12.16  12: 12.03  13: 12.24  14: 11.80  15: 11.19  16: 12.16
  17: 12.69  18: 12.83  19: 12.77  20: 13.25  21: 13.12  22: 12.46  23: 13.23  24: 11.79
  25: 12.83  26: 11.84  27: 10.77  28:  4.22  29: 12.82  30: 13.39  31: 10.65  32: 13.69
  33: 14.03  34:  4.24  35:  2.78  36:  3.01  37:  8.66  38:  3.49  39:  4.50  40:  2.94
  41:  2.98  42:  5.89  43:  4.48  44:  3.17  45:  4.73  46:  6.73  47:  1.49  48:  3.20
  49:  8.40  50:  7.01  51:  5.68  52:  5.33  53:  8.26  54:  6.86  55:  5.55  56:  3.89
  57:  5.97  58:  3.04  59:  9.82  60: 11.10  61: 11.15  62: 11.25  63:  8.15  64:  6.16
  65: 11.35  66: 11.54  67: 11.87  68:  7.52  69:  2.47  70:  2.15  71:  2.64  72:  9.08
  73:  7.08  74:  8.23  75:  5.28  76:  4.92  77:  4.87  78:  4.82  79:  8.71  80:  8.79
  81:  7.77  82:  8.06  83:  8.87  84:  9.00  85:  8.13  86:  5.18  87:  3.16  88:  9.81
  89:  8.81  90:  8.93  91:  8.66  92:  6.97  93:  4.16  94:  7.99  95:  2.84  96:  4.82
  97:  7.13  98:  8.05  99:  6.70 100:  3.32 101:  4.76 102:  5.85 103:  5.50 104:  5.13
 105:  4.43 106:  4.43 107:  2.56 108:  2.56 109:  2.44 110:  1.95 111:  1.88 112:  3.01
 113:  1.79 114:  2.07 115:  3.15 116:  3.03 117:  2.62 118:  1.77 119:  1.70 120:  1.62
 121:  1.91 122:  8.21 123:  7.87 124:  8.82 125:  8.89 126: 12.67 127: 12.69 128: 12.72
 129: 12.85 130:  1.79 131:  1.64 132:  1.83 133:  1.68 134:  1.72 135:  1.52 136:  1.61
 137:  1.67 138:  1.83 139:  1.78 140:  1.94 141:  1.75 142:  1.79 143:  1.81 144:  1.78
 145:  1.88 146:  1.72 147:  1.45 148:  1.45 149:  1.45 150:  1.44 151:  1.46 152:  1.94
 153:  1.89 154:  1.91 155:  2.17 156:  2.18 157:  2.18 158:  2.19 159:  2.18
 IR intensities (km·mol⁻¹)
   1:  3.00   2:  2.40   3:  0.21   4:  2.27   5:  0.14   6:  1.05   7:  0.04   8:  1.02
   9:  1.82  10:  0.79  11:  0.79  12:  1.91  13:  1.64  14:  5.97  15:  1.26  16:  0.51
  17:  3.34  18:  2.33  19:  3.74  20:  0.90  21:  5.34  22:  7.37  23:  2.33  24:  6.35
  25:  8.20  26: 24.30  27:  3.32  28:  3.07  29: 13.50  30: 38.05  31: 11.11  32: 44.24
  33: 11.44  34:  3.39  35:185.72  36:149.84  37:  5.62  38:474.80  39: 35.38  40:144.46
  41:  1.96  42:  1.01  43:  1.89  44:129.75  45:111.85  46: 55.29  47:  5.02  48:386.30
  49:  2.03  50:  9.77  51:  3.43  52: 12.03  53: 14.24  54: 27.48  55: 11.90  56:  6.90
  57: 17.13  58: 33.95  59: 31.05  60: 13.50  61: 25.21  62: 29.86  63:  4.16  64: 24.22
  65: 57.45  66: 16.97  67: 42.30  68: 71.05  69:214.53  70: 68.47  71:478.67  72: 10.12
  73:  3.53  74:  6.48  75:  1.67  76:  0.99  77:  1.58  78:  1.17  79:  0.10  80: 12.00
  81: 23.53  82: 42.85  83:  6.58  84:  2.45  85: 19.45  86: 37.26  87:  0.45  88:  1.89
  89:  0.12  90:  2.50  91:  0.91  92:  7.84  93: 26.24  94: 37.26  95: 14.47  96:  5.05
  97:  2.44  98: 20.75  99:  6.21 100:  9.82 101: 14.00 102:102.59 103:158.66 104: 85.16
 105: 71.59 106: 35.33 107: 31.73 108: 11.63 109:  4.13 110:  5.54 111:  1.91 112:  1.68
 113:  2.16 114:  6.98 115:  6.37 116:  2.50 117:  5.66 118: 11.20 119: 11.37 120: 13.27
 121: 35.32 122:437.98 123:400.47 124:452.99 125:798.48 126:872.16 127:978.93 128:735.07
 129:746.94 130: 27.07 131: 44.56 132:  0.88 133:  5.67 134: 18.97 135: 10.33 136: 12.08
 137:  3.14 138: 35.76 139:  7.91 140: 15.42 141:  5.00 142:  2.58 143:681.65 144:875.18
 145:555.55 146:663.02 147: 15.39 148: 14.36 149: 24.43 150: 38.93 151:  8.31 152: 17.09
 153: 10.26 154: 13.25 155:  9.64 156: 14.27 157: 12.09 158: 13.67 159: 11.43
 Raman intensities (amu)
Molecule has no symmetry elements
It seems to be the C1 point group
   1:  0.00   2:  0.00   3:  0.00   4:  0.00   5:  0.00   6:  0.00   7:  0.00   8:  0.00
   9:  0.00  10:  0.00  11:  0.00  12:  0.00  13:  0.00  14:  0.00  15:  0.00  16:  0.00
  17:  0.00  18:  0.00  19:  0.00  20:  0.00  21:  0.00  22:  0.00  23:  0.00  24:  0.00
  25:  0.00  26:  0.00  27:  0.00  28:  0.00  29:  0.00  30:  0.00  31:  0.00  32:  0.00
  33:  0.00  34:  0.00  35:  0.00  36:  0.00  37:  0.00  38:  0.00  39:  0.00  40:  0.00
  41:  0.00  42:  0.00  43:  0.00  44:  0.00  45:  0.00  46:  0.00  47:  0.00  48:  0.00
  49:  0.00  50:  0.00  51:  0.00  52:  0.00  53:  0.00  54:  0.00  55:  0.00  56:  0.00
  57:  0.00  58:  0.00  59:  0.00  60:  0.00  61:  0.00  62:  0.00  63:  0.00  64:  0.00
  65:  0.00  66:  0.00  67:  0.00  68:  0.00  69:  0.00  70:  0.00  71:  0.00  72:  0.00
  73:  0.00  74:  0.00  75:  0.00  76:  0.00  77:  0.00  78:  0.00  79:  0.00  80:  0.00
  81:  0.00  82:  0.00  83:  0.00  84:  0.00  85:  0.00  86:  0.00  87:  0.00  88:  0.00
  89:  0.00  90:  0.00  91:  0.00  92:  0.00  93:  0.00  94:  0.00  95:  0.00  96:  0.00
  97:  0.00  98:  0.00  99:  0.00 100:  0.00 101:  0.00 102:  0.00 103:  0.00 104:  0.00
 105:  0.00 106:  0.00 107:  0.00 108:  0.00 109:  0.00 110:  0.00 111:  0.00 112:  0.00
 113:  0.00 114:  0.00 115:  0.00 116:  0.00 117:  0.00 118:  0.00 119:  0.00 120:  0.00
 121:  0.00 122:  0.00 123:  0.00 124:  0.00 125:  0.00 126:  0.00 127:  0.00 128:  0.00
 129:  0.00 130:  0.00 131:  0.00 132:  0.00 133:  0.00 134:  0.00 135:  0.00 136:  0.00
 137:  0.00 138:  0.00 139:  0.00 140:  0.00 141:  0.00 142:  0.00 143:  0.00 144:  0.00
 145:  0.00 146:  0.00 147:  0.00 148:  0.00 149:  0.00 150:  0.00 151:  0.00 152:  0.00
 153:  0.00 154:  0.00 155:  0.00 156:  0.00 157:  0.00 158:  0.00 159:  0.00
 output can be read by thermo (or use thermo option).
 writing <g98.out> molden fake output.
 recommended (thermochemical) frequency scaling factor: 1.0
           -------------------------------------------------
          |             Thermodynamic Functions             |
           -------------------------------------------------

c1  symmetry found (for desy threshold:  0.10E+00) used in thermo
 inverting freq            1   6.1059374459707385     

          ...................................................
          :                      SETUP                      :
          :.................................................:
          :  # frequencies                         153      :
          :  # imaginary freq.                       0      :
          :  linear?                             false      :
          :  only rotor calc.                    false      :
          :  symmetry                               c1      :
          :  rotational number                       1      :
          :  scaling factor                  1.0000000      :
          :  rotor cutoff                   50.0000000 cm⁻¹ :
          :  imag. cutoff                  -20.0000000 cm⁻¹ :
          :.................................................:

    mode    ω/cm⁻¹     T·S(HO)/kcal·mol⁻¹    T·S(FR)/kcal·mol⁻¹   T·S(vib)
   ------------------------------------------------------------------------
       1      6.11    -2.68074 (  0.02%)    -1.67925 ( 99.98%)    -1.67948
       2     12.30    -2.26565 (  0.37%)    -1.47179 ( 99.63%)    -1.47469
       3     18.65    -2.01935 (  1.90%)    -1.34862 ( 98.10%)    -1.36136
       4     24.09    -1.86789 (  5.11%)    -1.27284 ( 94.89%)    -1.30326
       5     26.19    -1.81848 (  7.00%)    -1.24811 ( 93.00%)    -1.28802
       6     31.45    -1.71008 ( 13.54%)    -1.19383 ( 86.46%)    -1.26372
       7     33.53    -1.67227 ( 16.82%)    -1.17489 ( 83.18%)    -1.25855
       8     42.54    -1.53167 ( 34.38%)    -1.10440 ( 65.62%)    -1.25128
       9     46.56    -1.47830 ( 42.93%)    -1.07761 ( 57.07%)    -1.24962
      10     51.33    -1.42084 ( 52.62%)    -1.04875 ( 47.38%)    -1.24455
      11     56.61    -1.36311 ( 62.17%)    -1.01973 ( 37.83%)    -1.23322
      12     61.77    -1.31180 ( 69.96%)    -0.99390 ( 30.04%)    -1.21632
      13     65.50    -1.27730 ( 74.66%)    -0.97651 ( 25.34%)    -1.20107
      14     73.49    -1.20980 ( 82.35%)    -0.94245 ( 17.65%)    -1.16262
      15     75.68    -1.19259 ( 83.99%)    -0.93375 ( 16.01%)    -1.15116
      16     80.14    -1.15903 ( 86.84%)    -0.91678 ( 13.16%)    -1.12716
      17     85.13    -1.12371 ( 89.37%)    -0.89888 ( 10.63%)    -1.09980
      18     97.33    -1.04565 ( 93.49%)    -0.85922 (  6.51%)    -1.03351
      19    108.55    -0.98231 ( 95.69%)    -0.82689 (  4.31%)    -0.97561
      20    117.04    -0.93879 ( 96.78%)    -0.80460 (  3.22%)    -0.93447
      21    122.00    -0.91486 ( 97.26%)    -0.79229 (  2.74%)    -0.91150
      22    130.31    -0.87701 ( 97.88%)    -0.77278 (  2.12%)    -0.87480
      23    142.12    -0.82741 ( 98.49%)    -0.74707 (  1.51%)    -0.82620
      24    185.70    -0.67689 ( 99.48%)    -0.66784 (  0.52%)    -0.67684
      25    186.51    -0.67448 ( 99.49%)    -0.66655 (  0.51%)    -0.67444
      26    194.62    -0.65096 ( 99.57%)    -0.65394 (  0.43%)    -0.65097
      27    230.89    -0.55814 ( 99.78%)    -0.60332 (  0.22%)    -0.55824
      28    272.71    -0.47077 ( 99.89%)    -0.55400 (  0.11%)    -0.47086
      29    285.42    -0.44751 ( 99.91%)    -0.54051 (  0.09%)    -0.44760
      30    296.68    -0.42801 ( 99.92%)    -0.52905 (  0.08%)    -0.42810
   ------------------------------------------------------------------------

   temp. (K)  partition function   enthalpy   heat capacity  entropy
                                   cal/mol     cal/K/mol   cal/K/mol   J/K/mol
 298.15  VIB  0.292E+19            19780.189    103.578    132.171
         ROT  0.149E+08              888.752      2.981     35.805
         INT  0.435E+26            20668.941    106.559    167.976
         TR   0.618E+28             1481.254      4.968     43.384
         TOT                       22150.1953   111.5273   211.3600   884.3301

       T/K    H(0)-H(T)+PV         H(T)/Eh          T*S/Eh         G(T)/Eh
   ------------------------------------------------------------------------
    298.15    0.352986E-01    0.474149E+00    0.100424E+00    0.373725E+00
   ------------------------------------------------------------------------

         :::::::::::::::::::::::::::::::::::::::::::::::::::::
         ::                  THERMODYNAMIC                  ::
         :::::::::::::::::::::::::::::::::::::::::::::::::::::
         :: total free energy         -80.558012297648 Eh   ::
         ::.................................................::
         :: total energy              -80.931737474350 Eh   ::
         :: zero point energy           0.438850532697 Eh   ::
         :: G(RRHO) w/o ZPVE           -0.065125355995 Eh   ::
         :: G(RRHO) contrib.            0.373725176702 Eh   ::
         :::::::::::::::::::::::::::::::::::::::::::::::::::::
imag cut-off (cm-1) :    5.00
 found            1  significant imaginary frequency
 writing imag mode distorted coords to xtbhess.xyz
 for further optimization.

           -------------------------------------------------
          | TOTAL ENERGY              -80.931737474350 Eh   |
          | TOTAL ENTHALPY            -80.457588358554 Eh   |
          | TOTAL FREE ENERGY         -80.558012297648 Eh   |
          | GRADIENT NORM               0.000158583139 Eh/α |
          | HOMO-LUMO GAP               5.839710494228 eV   |
           -------------------------------------------------

------------------------------------------------------------------------
 * finished run on 2024/01/10 at 15:42:45.116     
------------------------------------------------------------------------
 total:
 * wall-time:     0 d,  0 h,  0 min, 14.509 sec
 *  cpu-time:     0 d,  0 h,  0 min, 14.433 sec
 * ratio c/w:     0.995 speedup
 SCF:
 * wall-time:     0 d,  0 h,  0 min,  0.097 sec
 *  cpu-time:     0 d,  0 h,  0 min,  0.058 sec
 * ratio c/w:     0.592 speedup
 analytical hessian:
 * wall-time:     0 d,  0 h,  0 min, 14.385 sec
 *  cpu-time:     0 d,  0 h,  0 min, 14.348 sec
 * ratio c/w:     0.997 speedup

