 Entering Gaussian System
 *********************************************
 Gaussian 98:
 frequency output generated by the xtb code
 *********************************************
                         Standard orientation:
 --------------------------------------------------------------------
  Center     Atomic     Atomic              Coordinates (Angstroms)
  Number     Number      Type              X           Y           Z
 --------------------------------------------------------------------
    1          8             0        0.396442   -0.618590   -1.524647
    2          6             0        0.760692   -1.898914   -1.107057
    3          1             0        0.577886   -2.570319   -1.951192
    4          1             0        1.834727   -1.942964   -0.876114
    5          6             0        0.033916   -2.385127    0.156827
    6          1             0        0.249950   -1.705714    0.987711
    7          1             0        0.421294   -3.376404    0.400317
    8          7             0       -1.447805   -2.477128    0.063924
    9          6             0       -1.944124   -3.159365    1.271558
   10          1             0       -1.617751   -2.601622    2.147773
   11          1             0       -1.557396   -4.175237    1.317965
   12          1             0       -3.031699   -3.186899    1.230020
   13          6             0       -1.887659   -3.224711   -1.122613
   14          1             0       -2.969007   -3.346724   -1.068287
   15          1             0       -1.411525   -4.203083   -1.150296
   16          1             0       -1.639206   -2.673128   -2.025757
   17          6             0       -2.046827   -1.131201    0.032651
   18          1             0       -1.680196   -0.585365   -0.833258
   19          1             0       -1.762723   -0.604381    0.941773
   20          1             0       -3.128848   -1.235022   -0.014419
   21          1             0        0.701472    0.020167   -0.828243
   22          6             0        5.303236    4.486677   -2.452512
   23          8             0        4.600285    3.704436   -1.827422
   24          7             0        4.930570    4.988866   -3.655150
   25          1             0        3.997218    4.806446   -3.978749
   26          1             0        5.447873    5.721864   -4.105105
   27          7             0        6.503698    4.908667   -1.986759
   28          1             0        7.132870    5.443682   -2.557231
   29          1             0        6.877234    4.463656   -1.167169
   30          6             0        2.311794    1.752218   -0.283034
   31          8             0        1.485737    1.014451    0.276890
   32          7             0        3.127824    2.572342    0.403516
   33          1             0        3.141070    2.546160    1.406023
   34          1             0        3.810993    3.115338   -0.103006
   35          7             0        2.441585    1.800566   -1.617846
   36          1             0        3.147856    2.401118   -2.018300
   37          1             0        1.871455    1.209157   -2.197162
   38          6             0       -6.019338   -2.825184   -0.127534
   39          8             0       -4.798755   -2.804646   -0.061918
   40          7             0       -6.705720   -2.090087   -1.036440
   41          1             0       -6.188795   -1.591336   -1.738128
   42          1             0       -7.696430   -2.188538   -1.161211
   43          7             0       -6.776015   -3.582184    0.702983
   44          1             0       -7.777419   -3.520818    0.715563
   45          1             0       -6.322637   -4.069307    1.454911
   46          6             0       -0.126980    0.083076    3.465920
   47          8             0       -0.550365   -0.841717    2.782357
   48          7             0        0.778218    0.970246    3.007933
   49          1             0        1.017536    0.960742    2.015674
   50          1             0        0.983385    1.798145    3.537786
   51          7             0       -0.559642    0.274931    4.743825
   52          1             0       -0.090349    0.911753    5.362183
   53          1             0       -1.108265   -0.454757    5.163546
 --------------------------------------------------------------------
     1 basis functions        1 primitive gaussians
     1 alpha electrons        1 beta electrons

 Harmonic frequencies (cm**-1), IR intensities (km*mol⁻¹),
 Raman scattering activities (A**4/amu), Raman depolarization ratios,
 reduced masses (AMU), force constants (mDyne/A) and normal coordinates:
                      1                      2                      3
                        a                      a                      a 
 Frequencies --    -7.7653                -3.5469                 6.0386
 Red. masses --    10.9684                11.1951                12.3022
 Frc consts  --     0.0000                 0.0000                 0.0000
 IR Inten    --     0.0029                 0.1065                 1.4152
 Raman Activ --     0.0000                 0.0000                 0.0000
 Depolar     --     0.0000                 0.0000                 0.0000
 Atom AN      X      Y      Z        X      Y      Z        X      Y      Z
   1   8     0.00   0.01  -0.01     0.02  -0.04  -0.01    -0.19   0.23  -0.10
   2   6    -0.00   0.00  -0.02     0.00  -0.04  -0.00    -0.09   0.20  -0.14
   3   1    -0.00   0.00  -0.01    -0.00  -0.01  -0.00    -0.03   0.06  -0.05
   4   1    -0.00  -0.00  -0.01     0.00  -0.01  -0.00    -0.02   0.07  -0.06
   5   6    -0.00  -0.00  -0.02    -0.00  -0.03  -0.01    -0.02   0.13  -0.13
   6   1     0.00  -0.00  -0.00     0.00  -0.01  -0.00    -0.01   0.03  -0.03
   7   1    -0.00  -0.00  -0.01    -0.00  -0.01  -0.00     0.01   0.04  -0.05
   8   7    -0.01   0.01  -0.02    -0.00  -0.01  -0.00    -0.02   0.06  -0.08
   9   6    -0.01  -0.00  -0.02    -0.01  -0.01  -0.01     0.06  -0.00  -0.07
  10   1    -0.00  -0.00  -0.00    -0.00  -0.01  -0.00     0.02  -0.00  -0.02
  11   1    -0.00  -0.00  -0.01    -0.01  -0.00  -0.00     0.03   0.00  -0.03
  12   1    -0.00   0.00  -0.01    -0.00   0.00  -0.00     0.02  -0.02  -0.01
  13   6    -0.01   0.02  -0.02    -0.02   0.01  -0.01    -0.03   0.07  -0.08
  14   1    -0.00   0.01  -0.01    -0.01   0.01  -0.00    -0.01   0.00  -0.01
  15   1    -0.01   0.01  -0.01    -0.01   0.00  -0.00     0.00   0.03  -0.04
  16   1    -0.00   0.01  -0.01    -0.00   0.00  -0.00    -0.03   0.03  -0.02
  17   6     0.00   0.01  -0.00     0.02   0.00   0.01    -0.09   0.03  -0.01
  18   1     0.00   0.01   0.00     0.01   0.00   0.00    -0.04   0.02  -0.00
  19   1     0.00   0.00   0.00     0.01  -0.00   0.00    -0.02   0.00  -0.00
  20   1     0.00   0.01  -0.00     0.00   0.01   0.00    -0.02  -0.01   0.01
  21   1     0.00  -0.00  -0.00     0.00  -0.01  -0.00    -0.05   0.05  -0.02
  22   6    -0.01   0.02   0.02    -0.03   0.03   0.01     0.18  -0.09   0.07
  23   8     0.00   0.01   0.02    -0.09   0.06  -0.02     0.12  -0.05   0.05
  24   7    -0.06   0.08   0.06     0.29  -0.39  -0.27     0.32  -0.14   0.02
  25   1    -0.02   0.03   0.03     0.12  -0.19  -0.15     0.09  -0.03  -0.01
  26   1    -0.02   0.03   0.02     0.08  -0.11  -0.08     0.10  -0.05   0.01
  27   7     0.02  -0.03  -0.02    -0.30   0.44   0.32     0.16  -0.11   0.17
  28   1     0.00  -0.00  -0.01    -0.06   0.11   0.10     0.06  -0.04   0.05
  29   1     0.01  -0.02  -0.02    -0.13   0.20   0.16     0.02  -0.02   0.06
  30   6     0.00  -0.00   0.01    -0.01  -0.01  -0.02    -0.05   0.08  -0.02
  31   8     0.01  -0.01   0.00    -0.01  -0.02  -0.01    -0.12   0.14  -0.06
  32   7     0.01  -0.01   0.01    -0.05   0.02  -0.03     0.01  -0.00   0.00
  33   1     0.01  -0.01   0.00    -0.02   0.02  -0.01    -0.00  -0.01   0.00
  34   1     0.00  -0.00   0.00    -0.02   0.01  -0.01     0.01  -0.01   0.01
  35   7    -0.00   0.02   0.01     0.02  -0.07  -0.02    -0.03   0.10  -0.02
  36   1    -0.00   0.00   0.00    -0.00  -0.01  -0.01     0.00   0.02  -0.00
  37   1    -0.00   0.01   0.00     0.01  -0.02  -0.00    -0.02   0.05  -0.01
  38   6    -0.01   0.01  -0.00    -0.01   0.06   0.01    -0.01  -0.18   0.14
  39   8    -0.01   0.02  -0.00    -0.01   0.05   0.01    -0.01  -0.14   0.08
  40   7     0.01  -0.46  -0.40    -0.00   0.03  -0.03    -0.11  -0.26   0.18
  41   1     0.01  -0.23  -0.18     0.00  -0.01  -0.02    -0.05  -0.07   0.04
  42   1     0.00  -0.14  -0.10    -0.00   0.01  -0.01    -0.03  -0.09   0.07
  43   7    -0.03   0.46   0.39    -0.02   0.12   0.05     0.09  -0.22   0.22
  44   1    -0.01   0.14   0.10    -0.01   0.04   0.01     0.02  -0.08   0.07
  45   1    -0.01   0.23   0.18    -0.01   0.04   0.02     0.04  -0.05   0.05
  46   6     0.02  -0.03   0.00     0.05  -0.05   0.01    -0.04   0.04  -0.05
  47   8     0.01  -0.03  -0.00     0.04  -0.05   0.01     0.00   0.03  -0.07
  48   7     0.02  -0.04   0.00     0.04  -0.05  -0.00    -0.08   0.09  -0.05
  49   1     0.00  -0.01   0.00     0.00  -0.01  -0.00    -0.03   0.03  -0.01
  50   1     0.01  -0.01   0.00     0.02  -0.02   0.00    -0.04   0.03  -0.01
  51   7     0.04  -0.04   0.01     0.09  -0.08   0.02    -0.05   0.01  -0.05
  52   1     0.01  -0.01   0.00     0.03  -0.02   0.01    -0.02   0.01  -0.01
  53   1     0.01  -0.01   0.00     0.03  -0.02   0.01    -0.00  -0.01  -0.02
                      4                      5                      6
                        a                      a                      a 
 Frequencies --    13.5342                17.1347                19.7782
 Red. masses --    12.2612                12.2072                12.0283
 Frc consts  --     0.0000                 0.0000                 0.0000
 IR Inten    --     3.0830                 2.3637                 0.7549
 Raman Activ --     0.0000                 0.0000                 0.0000
 Depolar     --     0.0000                 0.0000                 0.0000
 Atom AN      X      Y      Z        X      Y      Z        X      Y      Z
   1   8     0.04  -0.20  -0.10    -0.02  -0.10  -0.04     0.09  -0.03  -0.09
   2   6    -0.00  -0.17  -0.04     0.03  -0.05   0.02     0.11  -0.02  -0.07
   3   1    -0.01  -0.06  -0.00     0.02  -0.03   0.01     0.04  -0.01  -0.02
   4   1    -0.00  -0.06  -0.01     0.01  -0.00   0.01     0.03   0.00  -0.02
   5   6    -0.01  -0.09  -0.01     0.05  -0.04   0.04     0.11  -0.04  -0.08
   6   1     0.00  -0.02  -0.01     0.01  -0.01   0.01     0.03  -0.01  -0.02
   7   1    -0.01  -0.03   0.01     0.02  -0.01   0.01     0.03  -0.01  -0.03
   8   7    -0.01  -0.07  -0.01     0.05  -0.06   0.06     0.12  -0.06  -0.10
   9   6    -0.02   0.01   0.03     0.07  -0.06   0.05     0.11  -0.09  -0.11
  10   1    -0.00   0.01   0.00     0.02  -0.02   0.02     0.03  -0.03  -0.03
  11   1    -0.01   0.00   0.02     0.02  -0.02   0.01     0.03  -0.03  -0.04
  12   1    -0.01   0.01   0.01     0.02  -0.02   0.02     0.03  -0.03  -0.03
  13   6    -0.03  -0.12   0.04     0.05  -0.05   0.05     0.12  -0.04  -0.11
  14   1    -0.01  -0.03   0.01     0.01  -0.02   0.02     0.04  -0.01  -0.04
  15   1    -0.02  -0.04   0.02     0.01  -0.01   0.01     0.04  -0.01  -0.04
  16   1    -0.01  -0.05   0.00     0.01  -0.01   0.02     0.04  -0.00  -0.03
  17   6     0.02  -0.05  -0.08     0.04  -0.06   0.06     0.09  -0.06  -0.07
  18   1     0.01  -0.03  -0.03     0.00  -0.02   0.02     0.02  -0.01  -0.02
  19   1     0.01  -0.00  -0.03     0.01  -0.02   0.02     0.02  -0.02  -0.02
  20   1     0.00  -0.01  -0.02     0.01  -0.02   0.02     0.03  -0.02  -0.02
  21   1     0.02  -0.04  -0.03    -0.02  -0.01  -0.01     0.01  -0.01  -0.02
  22   6     0.02   0.13   0.15     0.02  -0.03   0.03    -0.04  -0.08   0.03
  23   8     0.01   0.00  -0.03    -0.24   0.12  -0.08     0.04  -0.06   0.17
  24   7     0.07   0.34   0.23     0.26   0.12   0.02    -0.17  -0.20   0.02
  25   1     0.03   0.09   0.03     0.07   0.10  -0.02    -0.05  -0.07   0.03
  26   1     0.02   0.12   0.10     0.13   0.01   0.03    -0.06  -0.06  -0.02
  27   7    -0.03   0.12   0.32     0.08  -0.34   0.17    -0.02  -0.00  -0.12
  28   1    -0.00   0.06   0.12     0.07  -0.12   0.07    -0.02  -0.01  -0.06
  29   1    -0.02  -0.00   0.07    -0.03  -0.13   0.05     0.02   0.02  -0.03
  30   6     0.05  -0.12  -0.12    -0.22   0.10  -0.10    -0.08   0.02   0.06
  31   8     0.08  -0.16  -0.15    -0.23   0.09  -0.09    -0.12   0.01  -0.00
  32   7     0.04  -0.12  -0.12    -0.30   0.19  -0.12    -0.15   0.04   0.12
  33   1     0.01  -0.04  -0.03    -0.09   0.07  -0.03    -0.05   0.00   0.03
  34   1     0.01  -0.03  -0.03    -0.09   0.06  -0.04    -0.03   0.01   0.05
  35   7     0.06  -0.12  -0.13    -0.20   0.04  -0.10     0.00   0.04   0.07
  36   1     0.01  -0.02  -0.03    -0.06   0.02  -0.03     0.01   0.01   0.03
  37   1     0.02  -0.03  -0.04    -0.04  -0.01  -0.02     0.02   0.00   0.01
  38   6    -0.03   0.03   0.13     0.05   0.07  -0.02     0.10   0.14   0.12
  39   8    -0.03   0.01   0.07     0.06  -0.02   0.06     0.13   0.01  -0.03
  40   7    -0.07   0.06   0.19     0.17   0.13  -0.06     0.08   0.23   0.21
  41   1    -0.03   0.01   0.04     0.06   0.02  -0.01     0.01   0.04   0.04
  42   1    -0.02   0.02   0.07     0.04   0.05  -0.03     0.01   0.09   0.09
  43   7     0.00   0.05   0.18    -0.05   0.13  -0.06     0.13   0.26   0.24
  44   1     0.00   0.02   0.07    -0.01   0.05  -0.03     0.04   0.10   0.10
  45   1     0.01   0.01   0.04    -0.03   0.02  -0.01     0.05   0.05   0.05
  46   6    -0.03   0.10  -0.13     0.07  -0.04   0.02    -0.15  -0.02  -0.05
  47   8    -0.01   0.07  -0.09     0.10  -0.07   0.05     0.01  -0.12  -0.04
  48   7    -0.01   0.07  -0.17    -0.04   0.05  -0.04    -0.26   0.09  -0.04
  49   1     0.01  -0.00  -0.04    -0.03   0.02  -0.02    -0.06   0.02  -0.01
  50   1    -0.01   0.03  -0.06    -0.02   0.02  -0.01    -0.11   0.04  -0.02
  51   7    -0.09   0.22  -0.17     0.16  -0.09   0.06    -0.26  -0.03  -0.08
  52   1    -0.03   0.07  -0.05     0.04  -0.01   0.01    -0.10   0.01  -0.02
  53   1    -0.03   0.07  -0.04     0.07  -0.04   0.03    -0.04  -0.03  -0.02
                      7                      8                      9
                        a                      a                      a 
 Frequencies --    25.4022                28.5877                34.0935
 Red. masses --    12.5915                12.0095                12.4180
 Frc consts  --     0.0000                 0.0000                 0.0000
 IR Inten    --     3.6229                 1.0324                 1.1634
 Raman Activ --     0.0000                 0.0000                 0.0000
 Depolar     --     0.0000                 0.0000                 0.0000
 Atom AN      X      Y      Z        X      Y      Z        X      Y      Z
   1   8    -0.22   0.07  -0.11    -0.14   0.15   0.09    -0.09   0.19   0.14
   2   6    -0.08   0.10  -0.09    -0.08   0.09  -0.06    -0.03   0.15   0.04
   3   1    -0.02   0.02  -0.02    -0.04   0.05  -0.03     0.00   0.06  -0.00
   4   1    -0.02   0.05  -0.04    -0.02   0.03  -0.04    -0.01   0.05   0.01
   5   6     0.03   0.07  -0.03     0.01  -0.02  -0.05    -0.01   0.04   0.00
   6   1     0.01   0.03  -0.01     0.00  -0.01  -0.01    -0.02   0.00   0.01
   7   1     0.03   0.03  -0.02     0.02  -0.00  -0.03     0.01   0.01  -0.01
   8   7     0.03   0.00   0.07     0.01  -0.12   0.02    -0.01  -0.04  -0.01
   9   6     0.13  -0.04   0.08     0.10  -0.14   0.04     0.02  -0.10  -0.04
  10   1     0.05  -0.01   0.02     0.03  -0.03   0.01    -0.01  -0.03  -0.01
  11   1     0.05  -0.01   0.01     0.05  -0.03   0.01     0.02  -0.02  -0.02
  12   1     0.04  -0.02   0.05     0.03  -0.06   0.02     0.01  -0.05  -0.01
  13   6    -0.01  -0.00   0.08     0.00  -0.14   0.04     0.04  -0.02  -0.04
  14   1    -0.00  -0.01   0.04     0.00  -0.06   0.03     0.01  -0.02  -0.02
  15   1     0.01   0.01   0.01     0.02  -0.03   0.01     0.03   0.00  -0.02
  16   1    -0.03   0.01   0.02    -0.02  -0.04   0.01     0.01   0.01  -0.01
  17   6    -0.04  -0.03   0.12    -0.07  -0.15   0.04    -0.08  -0.06   0.02
  18   1    -0.04   0.00   0.03    -0.04  -0.03   0.01    -0.03  -0.01   0.01
  19   1    -0.00  -0.01   0.03    -0.02  -0.04   0.01    -0.03  -0.02   0.01
  20   1    -0.01  -0.02   0.06    -0.02  -0.06   0.02    -0.02  -0.04   0.00
  21   1    -0.06   0.03  -0.03    -0.01   0.02   0.02    -0.02   0.04   0.04
  22   6    -0.01  -0.08   0.08     0.00   0.05  -0.06     0.02   0.07  -0.09
  23   8     0.24  -0.35   0.05    -0.11   0.16  -0.08    -0.01   0.00  -0.23
  24   7    -0.21  -0.04   0.17     0.13   0.02  -0.12     0.07   0.21  -0.05
  25   1    -0.05  -0.07   0.05     0.04   0.02  -0.05     0.02   0.06  -0.03
  26   1    -0.11   0.03   0.05     0.06  -0.01  -0.03     0.02   0.07   0.01
  27   7    -0.09   0.18   0.06     0.01  -0.02  -0.01    -0.00   0.02   0.00
  28   1    -0.07   0.10   0.02     0.02  -0.02   0.00     0.01   0.02   0.02
  29   1     0.02   0.05  -0.00    -0.02   0.00   0.01    -0.01  -0.02  -0.01
  30   6    -0.06  -0.04  -0.07     0.09   0.00   0.05     0.10  -0.03  -0.00
  31   8    -0.22   0.08  -0.12     0.21  -0.09   0.09    -0.01   0.18   0.10
  32   7     0.01  -0.16  -0.03     0.26  -0.15   0.03     0.06   0.12  -0.13
  33   1    -0.01  -0.05  -0.01     0.14  -0.10   0.01    -0.06   0.16  -0.03
  34   1     0.04  -0.07   0.00     0.05  -0.02  -0.00     0.01   0.03  -0.05
  35   7     0.01  -0.07  -0.06    -0.21   0.27   0.03     0.37  -0.50   0.01
  36   1     0.04  -0.05  -0.01    -0.07   0.08  -0.00     0.08  -0.13  -0.02
  37   1    -0.01   0.00  -0.02    -0.09   0.10   0.01     0.08  -0.14   0.02
  38   6     0.05   0.01  -0.03     0.02   0.01   0.02     0.00  -0.01   0.02
  39   8     0.04  -0.09   0.17     0.03  -0.23   0.12     0.01  -0.17  -0.02
  40   7     0.25   0.06  -0.15     0.23   0.13  -0.03     0.07   0.08   0.05
  41   1     0.11   0.01  -0.02     0.10   0.01  -0.00     0.03   0.00   0.01
  42   1     0.07   0.04  -0.08     0.06   0.08  -0.03     0.01   0.05   0.02
  43   7    -0.14   0.06  -0.17    -0.18   0.15  -0.03    -0.06   0.09   0.05
  44   1    -0.04   0.04  -0.09    -0.04   0.09  -0.03    -0.01   0.05   0.02
  45   1    -0.08   0.01  -0.02    -0.09   0.02  -0.00    -0.03   0.01   0.01
  46   6     0.07   0.05  -0.00    -0.07   0.00  -0.03    -0.10  -0.06   0.04
  47   8     0.15  -0.00   0.05    -0.04  -0.02  -0.04    -0.10  -0.04  -0.01
  48   7    -0.05   0.15  -0.08     0.03  -0.07   0.05    -0.15  -0.00   0.08
  49   1    -0.03   0.04  -0.03     0.04  -0.03   0.02    -0.03   0.02   0.02
  50   1    -0.03   0.05  -0.03    -0.00  -0.01   0.01    -0.03  -0.02   0.04
  51   7     0.14   0.04   0.02    -0.25   0.10  -0.10    -0.09  -0.16   0.06
  52   1     0.03   0.03  -0.01    -0.08   0.03  -0.02    -0.03  -0.05   0.02
  53   1     0.07  -0.00   0.02    -0.09   0.04  -0.04    -0.02  -0.05   0.00
                     10                     11                     12
                        a                      a                      a 
 Frequencies --    41.1996                43.1078                49.6624
 Red. masses --    12.5463                12.9436                13.0804
 Frc consts  --     0.0000                 0.0000                 0.0000
 IR Inten    --     4.3604                 1.6720                 1.5997
 Raman Activ --     0.0000                 0.0000                 0.0000
 Depolar     --     0.0000                 0.0000                 0.0000
 Atom AN      X      Y      Z        X      Y      Z        X      Y      Z
   1   8     0.02  -0.01   0.02     0.07   0.03   0.12    -0.05   0.09  -0.15
   2   6     0.04   0.03   0.10     0.09   0.04   0.11     0.03   0.11  -0.09
   3   1     0.03  -0.01   0.04     0.05   0.01   0.03     0.01   0.02  -0.02
   4   1     0.01   0.02   0.05     0.02   0.02   0.05     0.01   0.05  -0.03
   5   6    -0.03   0.06   0.08     0.04   0.00   0.07     0.06   0.15  -0.06
   6   1    -0.04   0.04   0.01     0.01  -0.01   0.03     0.01   0.06  -0.03
   7   1     0.01   0.03   0.05     0.00  -0.00   0.01     0.03   0.05  -0.00
   8   7    -0.02  -0.06  -0.03     0.05   0.04   0.00     0.07   0.11  -0.05
   9   6    -0.06   0.04   0.00    -0.01  -0.04  -0.06     0.09   0.10  -0.03
  10   1    -0.05   0.04  -0.01    -0.01  -0.03  -0.00     0.02   0.04  -0.01
  11   1     0.00   0.02   0.04    -0.01  -0.01  -0.03     0.04   0.03  -0.01
  12   1    -0.02  -0.01  -0.02    -0.00  -0.00  -0.03     0.03   0.02  -0.01
  13   6     0.13  -0.21   0.02     0.08   0.13  -0.07     0.08   0.08  -0.03
  14   1     0.04  -0.08  -0.02     0.02   0.04  -0.04     0.03   0.01  -0.01
  15   1     0.06  -0.05   0.04     0.02   0.03  -0.03     0.03   0.03  -0.01
  16   1     0.04  -0.08  -0.01     0.04   0.05  -0.00     0.02   0.02  -0.01
  17   6    -0.10  -0.09  -0.21     0.06   0.05   0.07     0.02   0.08  -0.05
  18   1    -0.02  -0.05  -0.07     0.03   0.03   0.03    -0.01   0.02  -0.02
  19   1    -0.06   0.00  -0.07     0.01  -0.00   0.03     0.00   0.03  -0.02
  20   1    -0.03  -0.05  -0.08     0.02   0.02   0.01     0.01   0.01  -0.01
  21   1    -0.01   0.01  -0.00     0.00   0.01   0.03    -0.04   0.02  -0.03
  22   6     0.05  -0.04   0.02    -0.01  -0.09  -0.07    -0.19  -0.07   0.04
  23   8     0.18  -0.18   0.00     0.07  -0.40  -0.36    -0.37   0.04   0.03
  24   7    -0.04  -0.02   0.07     0.02   0.14   0.01    -0.06  -0.06   0.01
  25   1    -0.01  -0.03   0.02     0.03   0.00  -0.04    -0.02   0.02  -0.01
  26   1    -0.04   0.01   0.02    -0.01   0.08   0.06     0.02  -0.04   0.01
  27   7     0.01   0.08   0.02    -0.14   0.01   0.16    -0.17  -0.23   0.11
  28   1    -0.02   0.05   0.01    -0.04   0.06   0.09    -0.02  -0.08   0.04
  29   1     0.02   0.02  -0.01    -0.04  -0.04   0.02    -0.08  -0.07   0.04
  30   6    -0.07   0.10  -0.03    -0.04   0.01  -0.04    -0.04  -0.18   0.03
  31   8    -0.09   0.13  -0.03    -0.00   0.07   0.09    -0.13  -0.12   0.04
  32   7    -0.06   0.09  -0.03     0.17  -0.10  -0.16     0.05  -0.31   0.04
  33   1    -0.01   0.01  -0.01     0.11  -0.05  -0.05    -0.03  -0.04   0.01
  34   1     0.00   0.01  -0.01     0.05  -0.06  -0.07    -0.01  -0.06   0.01
  35   7    -0.11   0.14  -0.03    -0.35   0.12  -0.07     0.00  -0.26   0.04
  36   1    -0.01   0.01  -0.01    -0.07  -0.01  -0.05    -0.02  -0.05   0.01
  37   1    -0.02   0.02  -0.01    -0.11   0.02   0.01    -0.03  -0.04   0.01
  38   6     0.00  -0.03  -0.01     0.06   0.05  -0.04     0.12   0.02  -0.02
  39   8     0.02  -0.28  -0.20     0.07   0.16  -0.16     0.14   0.03  -0.06
  40   7     0.01   0.12   0.11    -0.07  -0.01   0.01     0.10   0.01   0.00
  41   1     0.00  -0.00   0.00    -0.05   0.01  -0.01     0.02   0.00  -0.00
  42   1    -0.01   0.07   0.06    -0.02  -0.02   0.03     0.03   0.00   0.01
  43   7    -0.02   0.12   0.11     0.19  -0.00   0.03     0.16   0.01   0.01
  44   1    -0.00   0.08   0.06     0.05  -0.02   0.03     0.04  -0.00   0.01
  45   1    -0.00  -0.00   0.00     0.08   0.01  -0.00     0.05   0.00  -0.00
  46   6     0.01   0.02  -0.01    -0.08  -0.05   0.08     0.01   0.09   0.04
  47   8    -0.34   0.26  -0.12    -0.01  -0.10   0.11    -0.16   0.21   0.01
  48   7     0.25  -0.19   0.06    -0.12  -0.01   0.09     0.22  -0.09   0.11
  49   1     0.03  -0.02   0.01    -0.02  -0.00   0.03     0.04  -0.02   0.02
  50   1     0.14  -0.09   0.04    -0.05   0.00   0.02     0.09  -0.03   0.03
  51   7     0.20  -0.06   0.06    -0.13  -0.04   0.07    -0.00   0.15   0.03
  52   1     0.11  -0.07   0.03    -0.05   0.00   0.02     0.03   0.01   0.02
  53   1    -0.00   0.02  -0.00    -0.03  -0.02   0.02    -0.04   0.07  -0.00
                     13                     14                     15
                        a                      a                      a 
 Frequencies --    58.6824                66.9036                75.1805
 Red. masses --    12.7733                11.5198                12.6640
 Frc consts  --     0.0000                 0.0000                 0.0000
 IR Inten    --     2.6447                 2.4435                 4.4504
 Raman Activ --     0.0000                 0.0000                 0.0000
 Depolar     --     0.0000                 0.0000                 0.0000
 Atom AN      X      Y      Z        X      Y      Z        X      Y      Z
   1   8    -0.06  -0.08  -0.02     0.17   0.08   0.02    -0.22   0.11   0.10
   2   6     0.03  -0.01   0.11    -0.01  -0.02  -0.11    -0.10   0.09  -0.00
   3   1     0.04  -0.03   0.05    -0.04   0.02  -0.05    -0.03   0.04  -0.01
   4   1     0.00   0.03   0.05    -0.00  -0.05  -0.05    -0.03   0.04  -0.02
   5   6    -0.01   0.04   0.11     0.00  -0.01  -0.10    -0.00  -0.03   0.01
   6   1    -0.02   0.02   0.03     0.01   0.00  -0.03    -0.01  -0.01   0.01
   7   1     0.00   0.02   0.05    -0.00  -0.00  -0.03     0.03  -0.00  -0.01
   8   7    -0.01  -0.02   0.04     0.00   0.00  -0.06     0.00  -0.17   0.08
   9   6    -0.05  -0.03   0.01     0.01   0.24   0.08     0.09  -0.10   0.14
  10   1    -0.03  -0.01   0.01     0.01   0.11  -0.01     0.03  -0.01   0.03
  11   1    -0.01  -0.00   0.01    -0.00   0.07   0.08     0.04  -0.02   0.06
  12   1    -0.01  -0.01  -0.01     0.00   0.07   0.03     0.03  -0.04   0.05
  13   6     0.08  -0.03   0.01    -0.04  -0.23   0.10     0.02  -0.29   0.15
  14   1     0.02  -0.02  -0.01    -0.01  -0.06   0.05     0.01  -0.09   0.04
  15   1     0.03  -0.00   0.01    -0.02  -0.07   0.08     0.01  -0.08   0.07
  16   1     0.03  -0.01   0.01    -0.02  -0.12  -0.01     0.00  -0.11   0.03
  17   6    -0.05  -0.03   0.00     0.03   0.01  -0.30    -0.10  -0.21  -0.01
  18   1    -0.00  -0.01   0.01     0.00  -0.05  -0.12    -0.04  -0.07  -0.02
  19   1    -0.03  -0.01   0.01     0.02   0.05  -0.12    -0.04  -0.03  -0.02
  20   1    -0.01  -0.02  -0.02     0.01   0.01  -0.07    -0.03  -0.08   0.00
  21   1    -0.02   0.00  -0.03     0.04  -0.01   0.03    -0.05   0.03   0.02
  22   6     0.01   0.10  -0.01    -0.06  -0.05  -0.01    -0.01   0.00   0.02
  23   8    -0.07   0.27   0.10    -0.09  -0.10  -0.10    -0.02   0.03   0.04
  24   7     0.05   0.00  -0.06    -0.01   0.01  -0.00    -0.01  -0.02   0.01
  25   1     0.00   0.02  -0.00     0.00   0.00  -0.02    -0.01  -0.00   0.01
  26   1     0.03  -0.02  -0.04     0.00   0.01   0.02    -0.00  -0.01  -0.00
  27   7     0.06   0.02  -0.08    -0.09  -0.08   0.07    -0.00  -0.01  -0.00
  28   1     0.03  -0.02  -0.04    -0.02  -0.01   0.04     0.00  -0.01  -0.00
  29   1     0.01   0.03  -0.01    -0.03  -0.04   0.02    -0.00   0.00   0.00
  30   6     0.04  -0.06  -0.04     0.03  -0.01   0.10    -0.02   0.04   0.02
  31   8    -0.13   0.07  -0.13     0.08  -0.01   0.18    -0.11   0.14   0.03
  32   7     0.31  -0.41   0.04     0.08  -0.01   0.05     0.02  -0.01   0.02
  33   1     0.04  -0.09   0.01     0.05  -0.01   0.01    -0.01   0.02   0.01
  34   1     0.07  -0.08   0.02     0.01  -0.01  -0.00     0.01  -0.01   0.00
  35   7     0.04   0.06  -0.04    -0.08  -0.00   0.10     0.04  -0.05   0.03
  36   1     0.02   0.02   0.00    -0.03  -0.01   0.01     0.01  -0.01   0.01
  37   1    -0.03   0.08  -0.03    -0.03  -0.01   0.04    -0.01   0.01   0.01
  38   6    -0.01  -0.00  -0.06    -0.02   0.01   0.04    -0.01   0.12  -0.12
  39   8     0.00  -0.08  -0.22    -0.02   0.07   0.14    -0.01   0.31  -0.32
  40   7    -0.08   0.05   0.03     0.02  -0.03  -0.02    -0.25   0.01  -0.04
  41   1    -0.04  -0.00  -0.01     0.01   0.00   0.01    -0.11   0.02  -0.03
  42   1    -0.03   0.02   0.04     0.01  -0.02  -0.02    -0.07  -0.03   0.03
  43   7     0.05   0.04   0.04    -0.04  -0.03  -0.02     0.21   0.03  -0.01
  44   1     0.02   0.02   0.04    -0.01  -0.02  -0.02     0.06  -0.03   0.04
  45   1     0.03   0.00  -0.01    -0.02   0.00   0.01     0.10   0.03  -0.02
  46   6    -0.05   0.02   0.04     0.02   0.05  -0.04     0.13   0.01  -0.04
  47   8    -0.10  -0.01   0.10     0.13   0.15  -0.25     0.30  -0.06  -0.04
  48   7    -0.34   0.20  -0.16    -0.19   0.32   0.07     0.18   0.01   0.03
  49   1    -0.11   0.05  -0.05    -0.03   0.11   0.03     0.05   0.01   0.01
  50   1    -0.07   0.05  -0.04    -0.05   0.06   0.06    -0.00   0.03  -0.00
  51   7     0.27  -0.13   0.17     0.09  -0.33   0.04    -0.07   0.09  -0.12
  52   1     0.08  -0.02   0.02    -0.00  -0.10   0.04    -0.04   0.03  -0.03
  53   1     0.12  -0.06   0.07     0.06  -0.13  -0.03    -0.01   0.02  -0.04
                     16                     17                     18
                        a                      a                      a 
 Frequencies --    77.5948                84.6482                99.0412
 Red. masses --    14.0216                13.8747                12.1473
 Frc consts  --     0.0000                 0.0000                 0.0000
 IR Inten    --     5.4267                 2.9954                11.5580
 Raman Activ --     0.0000                 0.0000                 0.0000
 Depolar     --     0.0000                 0.0000                 0.0000
 Atom AN      X      Y      Z        X      Y      Z        X      Y      Z
   1   8     0.07   0.03   0.06    -0.18   0.10  -0.04    -0.01   0.00   0.16
   2   6     0.04   0.01   0.03    -0.14   0.06  -0.12     0.09   0.02   0.09
   3   1     0.01   0.01   0.00    -0.07   0.03  -0.04     0.05   0.01   0.01
   4   1     0.01  -0.00   0.01    -0.03   0.01  -0.07     0.02   0.03   0.04
   5   6     0.02  -0.00   0.01    -0.03   0.04  -0.07     0.06  -0.12   0.02
   6   1     0.01  -0.01   0.01     0.00   0.02  -0.03     0.00  -0.05   0.02
   7   1    -0.01  -0.01  -0.01     0.01   0.02  -0.02     0.02  -0.04  -0.02
   8   7     0.01   0.05  -0.03    -0.03  -0.03   0.03     0.07  -0.15  -0.03
   9   6    -0.02  -0.01  -0.07     0.07  -0.06   0.05     0.07  -0.35  -0.15
  10   1    -0.01  -0.02  -0.01     0.02  -0.01   0.01     0.01  -0.14  -0.02
  11   1    -0.01  -0.00  -0.03     0.03  -0.01   0.01     0.03  -0.10  -0.09
  12   1    -0.01  -0.00  -0.03     0.02  -0.03   0.03     0.02  -0.11  -0.05
  13   6     0.02   0.12  -0.08    -0.06  -0.04   0.04     0.08   0.08  -0.17
  14   1     0.00   0.03  -0.03    -0.01  -0.02   0.03     0.02   0.03  -0.06
  15   1     0.01   0.04  -0.04    -0.00  -0.00   0.00     0.02   0.02  -0.10
  16   1     0.01   0.05  -0.01    -0.04  -0.00   0.01     0.03   0.07  -0.02
  17   6     0.04   0.06   0.05    -0.08  -0.05   0.07     0.03  -0.14   0.20
  18   1     0.02   0.03   0.02    -0.03  -0.00   0.03    -0.00  -0.00   0.08
  19   1     0.01   0.00   0.02    -0.03  -0.02   0.03     0.01  -0.08   0.08
  20   1     0.01   0.02   0.01    -0.02  -0.03   0.02     0.01  -0.05   0.06
  21   1     0.02  -0.00   0.02    -0.00   0.01  -0.01    -0.00   0.00   0.04
  22   6    -0.08  -0.07   0.03    -0.00  -0.04   0.01    -0.07  -0.05   0.04
  23   8    -0.11  -0.09  -0.01     0.02  -0.08  -0.02    -0.10  -0.05   0.05
  24   7    -0.05  -0.04   0.03    -0.02  -0.01   0.02    -0.06  -0.06   0.04
  25   1    -0.01  -0.01  -0.00    -0.00  -0.01   0.00    -0.02  -0.01   0.01
  26   1    -0.01  -0.01   0.01    -0.01   0.00   0.01    -0.01  -0.02   0.01
  27   7    -0.10  -0.10   0.07    -0.02  -0.01   0.02    -0.07  -0.08   0.06
  28   1    -0.02  -0.02   0.03    -0.01   0.01   0.01    -0.02  -0.02   0.02
  29   1    -0.03  -0.03   0.02    -0.00  -0.01   0.00    -0.03  -0.02   0.02
  30   6     0.03  -0.01   0.05     0.09  -0.08   0.00     0.04   0.04   0.03
  31   8     0.11  -0.07   0.09     0.41  -0.41   0.02     0.06   0.05   0.05
  32   7    -0.03   0.07   0.03    -0.22   0.25  -0.01     0.07   0.04   0.01
  33   1     0.02  -0.00   0.01     0.03  -0.03  -0.01     0.02   0.02   0.00
  34   1    -0.01   0.01   0.00    -0.05   0.06  -0.00     0.01   0.01  -0.00
  35   7    -0.01  -0.02   0.05    -0.01   0.03  -0.00     0.02   0.02   0.03
  36   1    -0.01   0.00   0.01    -0.03   0.04  -0.00    -0.00   0.00  -0.00
  37   1     0.00  -0.02   0.02     0.04  -0.03   0.00    -0.00   0.00   0.02
  38   6    -0.14  -0.12  -0.09     0.09   0.03  -0.07    -0.09   0.06   0.04
  39   8    -0.14  -0.48  -0.36     0.12   0.04  -0.20    -0.11   0.22   0.16
  40   7    -0.14   0.09   0.07     0.01   0.02  -0.01    -0.10  -0.04  -0.03
  41   1    -0.04  -0.04  -0.02    -0.02   0.01  -0.01    -0.03   0.01   0.01
  42   1    -0.05   0.07   0.06    -0.00   0.01   0.02    -0.02  -0.04  -0.03
  43   7    -0.19   0.08   0.06     0.19   0.03   0.01    -0.09  -0.04  -0.04
  44   1    -0.05   0.08   0.06     0.05  -0.00   0.03    -0.02  -0.02  -0.02
  45   1    -0.04  -0.03  -0.02     0.07   0.01  -0.01    -0.03   0.02   0.01
  46   6     0.17   0.10  -0.00    -0.06   0.05   0.06     0.01   0.15  -0.14
  47   8     0.39  -0.01   0.04    -0.21   0.06   0.14    -0.16   0.33  -0.27
  48   7     0.06   0.23  -0.01    -0.21   0.10  -0.12     0.03   0.16  -0.09
  49   1     0.03   0.04   0.00    -0.04  -0.01  -0.02     0.00   0.06  -0.03
  50   1    -0.03   0.08  -0.02     0.00   0.01  -0.03     0.05   0.01   0.01
  51   7     0.06   0.14  -0.05     0.22   0.02   0.16     0.19  -0.03  -0.06
  52   1    -0.01   0.06  -0.02     0.08   0.01   0.02     0.07  -0.04  -0.00
  53   1     0.05   0.02  -0.00     0.07   0.01   0.07     0.03  -0.00  -0.04
                     19                     20                     21
                        a                      a                      a 
 Frequencies --   100.8992               112.9331               118.7489
 Red. masses --    12.2811                11.9048                11.9588
 Frc consts  --     0.0000                 0.0000                 0.0000
 IR Inten    --     7.3525                14.7419                14.7840
 Raman Activ --     0.0000                 0.0000                 0.0000
 Depolar     --     0.0000                 0.0000                 0.0000
 Atom AN      X      Y      Z        X      Y      Z        X      Y      Z
   1   8     0.10   0.05  -0.18    -0.03   0.13   0.05     0.02   0.03   0.04
   2   6     0.14   0.06  -0.15     0.10   0.19   0.21     0.00   0.02   0.03
   3   1     0.03   0.01  -0.04     0.08   0.02   0.07     0.03   0.01  -0.00
   4   1     0.04   0.03  -0.06     0.02   0.10   0.10    -0.01   0.01   0.04
   5   6     0.22   0.07  -0.10     0.03   0.22   0.18    -0.10  -0.05  -0.05
   6   1     0.06   0.03  -0.04    -0.03   0.08   0.05    -0.06  -0.02   0.00
   7   1     0.08   0.03  -0.02     0.02   0.08   0.08    -0.03  -0.01  -0.02
   8   7     0.23  -0.03  -0.02     0.05   0.10   0.05    -0.10  -0.10  -0.20
   9   6     0.30   0.00   0.03    -0.02   0.12   0.04    -0.17  -0.05  -0.20
  10   1     0.09   0.02   0.00    -0.03   0.05   0.01    -0.06  -0.01  -0.05
  11   1     0.10   0.01   0.02     0.00   0.04   0.03    -0.05  -0.02  -0.04
  12   1     0.09  -0.02   0.02    -0.01   0.02  -0.01    -0.05  -0.01  -0.07
  13   6     0.18  -0.11   0.05     0.22  -0.03   0.06     0.03  -0.15  -0.19
  14   1     0.05  -0.04   0.03     0.07  -0.03  -0.01     0.01  -0.05  -0.08
  15   1     0.06  -0.03   0.03     0.09   0.00   0.05     0.02  -0.04  -0.03
  16   1     0.03  -0.05   0.00     0.08  -0.02   0.01     0.02  -0.05  -0.06
  17   6     0.14  -0.06  -0.05    -0.08   0.04  -0.10    -0.11  -0.11  -0.28
  18   1     0.03  -0.02  -0.02    -0.01   0.00  -0.03    -0.02  -0.04  -0.08
  19   1     0.03  -0.00  -0.02    -0.06   0.03  -0.03    -0.05  -0.02  -0.08
  20   1     0.04  -0.03  -0.01    -0.02  -0.02  -0.06    -0.03  -0.04  -0.10
  21   1     0.01   0.01  -0.04    -0.00   0.05  -0.01     0.01   0.01   0.01
  22   6     0.03   0.02  -0.04    -0.11  -0.08   0.10    -0.05  -0.04  -0.05
  23   8     0.04  -0.01  -0.06    -0.15  -0.04   0.16    -0.07  -0.11  -0.15
  24   7     0.04   0.04  -0.03    -0.12  -0.14   0.10     0.01   0.05  -0.03
  25   1     0.01   0.01  -0.01    -0.03  -0.04   0.03     0.01   0.01  -0.03
  26   1     0.01   0.02  -0.00    -0.02  -0.06   0.01     0.01   0.02   0.01
  27   7     0.02   0.03  -0.02    -0.10  -0.14   0.08    -0.09  -0.07   0.05
  28   1     0.00   0.01  -0.00    -0.02  -0.04   0.03    -0.02  -0.00   0.04
  29   1     0.01   0.00  -0.01    -0.04  -0.02   0.03    -0.04  -0.04   0.01
  30   6    -0.02  -0.02  -0.01     0.12   0.03  -0.12     0.04   0.07   0.09
  31   8    -0.01  -0.05  -0.03     0.23  -0.04  -0.09    -0.03   0.09   0.00
  32   7    -0.05  -0.01   0.01     0.07   0.11  -0.15     0.02   0.03   0.19
  33   1    -0.01  -0.01   0.00     0.03   0.02  -0.04    -0.01  -0.01   0.05
  34   1    -0.01  -0.00   0.01     0.01   0.04  -0.05     0.02   0.00   0.07
  35   7     0.01   0.00  -0.00     0.05   0.04  -0.13     0.16   0.09   0.11
  36   1     0.00   0.00   0.01     0.00   0.02  -0.04     0.04   0.03   0.04
  37   1     0.01   0.00  -0.01     0.02  -0.01  -0.03     0.03   0.04   0.02
  38   6    -0.26   0.02  -0.00    -0.05   0.02   0.04     0.03   0.02   0.07
  39   8    -0.30   0.07   0.03    -0.06   0.07   0.13     0.03   0.10   0.20
  40   7    -0.31  -0.00  -0.01    -0.02  -0.01   0.00     0.09  -0.03  -0.01
  41   1    -0.09  -0.01  -0.01     0.00  -0.00   0.00     0.03   0.01   0.02
  42   1    -0.08  -0.04  -0.02    -0.00  -0.02  -0.02     0.03  -0.01  -0.02
  43   7    -0.29  -0.03  -0.04    -0.08  -0.02  -0.01    -0.01  -0.03  -0.01
  44   1    -0.08   0.02   0.00    -0.02  -0.00  -0.01    -0.00  -0.02  -0.03
  45   1    -0.08   0.02   0.01    -0.03   0.01   0.01    -0.01   0.00   0.01
  46   6    -0.07  -0.01   0.15    -0.01  -0.14  -0.13     0.07   0.03   0.10
  47   8    -0.14  -0.03   0.24     0.03  -0.26  -0.05     0.07  -0.13   0.34
  48   7    -0.04  -0.08   0.08    -0.08  -0.13  -0.24     0.00  -0.00  -0.11
  49   1    -0.02  -0.03   0.02    -0.00  -0.05  -0.06    -0.02  -0.03  -0.03
  50   1     0.00  -0.01   0.01    -0.02  -0.03  -0.07    -0.02   0.03  -0.07
  51   7    -0.01   0.08   0.17    -0.01  -0.07  -0.16     0.16   0.31   0.10
  52   1     0.01   0.03   0.03    -0.02   0.01  -0.06     0.07   0.11  -0.02
  53   1    -0.01   0.04   0.06     0.01  -0.02  -0.02     0.07   0.10   0.09
                     22                     23                     24
                        a                      a                      a 
 Frequencies --   124.7359               131.6564               171.7459
 Red. masses --    12.4140                11.8409                12.2307
 Frc consts  --     0.0000                 0.0000                 0.0000
 IR Inten    --    18.4394                 6.1430                12.3301
 Raman Activ --     0.0000                 0.0000                 0.0000
 Depolar     --     0.0000                 0.0000                 0.0000
 Atom AN      X      Y      Z        X      Y      Z        X      Y      Z
   1   8    -0.07  -0.09  -0.14     0.18   0.05   0.07    -0.03  -0.18  -0.26
   2   6     0.01  -0.01   0.04    -0.07  -0.09  -0.18    -0.03  -0.10  -0.03
   3   1     0.02  -0.04   0.04    -0.10   0.02  -0.07    -0.00  -0.07   0.02
   4   1     0.00   0.02   0.02    -0.01  -0.11  -0.10    -0.01  -0.02   0.00
   5   6     0.03   0.10   0.10     0.03  -0.16  -0.14    -0.05   0.10   0.04
   6   1     0.01   0.05   0.01     0.06  -0.08  -0.03    -0.03   0.07  -0.02
   7   1     0.01   0.04   0.05    -0.01  -0.07  -0.09    -0.00   0.05   0.07
   8   7     0.03   0.07   0.13     0.01  -0.02   0.06    -0.05  -0.02   0.01
   9   6     0.05   0.03   0.10     0.08   0.05   0.13    -0.01  -0.10  -0.03
  10   1     0.01   0.00   0.03     0.05   0.02   0.02     0.00  -0.04  -0.00
  11   1     0.02   0.01   0.02     0.01   0.01   0.04     0.00  -0.03  -0.03
  12   1     0.01   0.00   0.03     0.02   0.03   0.06    -0.00  -0.03  -0.00
  13   6     0.04   0.07   0.11    -0.22  -0.01   0.13     0.02  -0.00  -0.03
  14   1     0.01   0.01   0.03    -0.07   0.03   0.08     0.01  -0.03  -0.01
  15   1     0.02   0.02   0.03    -0.10  -0.02   0.03     0.04   0.01  -0.02
  16   1     0.01   0.03   0.03    -0.08  -0.02   0.02    -0.01   0.02  -0.00
  17   6    -0.01   0.05   0.13     0.15   0.05   0.10    -0.14  -0.06   0.03
  18   1    -0.01   0.02   0.04     0.05   0.00   0.02    -0.03   0.00   0.03
  19   1    -0.01   0.01   0.04     0.08   0.00   0.03    -0.07  -0.02   0.02
  20   1    -0.00   0.00   0.03     0.04   0.05   0.04    -0.04  -0.04  -0.02
  21   1    -0.02  -0.00  -0.06     0.07  -0.01   0.03     0.02  -0.01  -0.10
  22   6    -0.02  -0.02  -0.14    -0.11  -0.08   0.05    -0.07  -0.05   0.01
  23   8    -0.03  -0.16  -0.33    -0.16  -0.08   0.05    -0.10  -0.06  -0.01
  24   7     0.08   0.16  -0.10    -0.10  -0.08   0.06    -0.05  -0.03   0.02
  25   1     0.04   0.03  -0.07    -0.02  -0.03   0.01    -0.01  -0.01  -0.00
  26   1     0.03   0.06   0.01    -0.01  -0.04   0.01    -0.00  -0.02   0.00
  27   7    -0.09  -0.03   0.04    -0.12  -0.14   0.10    -0.08  -0.10   0.07
  28   1    -0.01   0.02   0.05    -0.03  -0.03   0.04    -0.02  -0.01   0.04
  29   1    -0.04  -0.05  -0.00    -0.05  -0.04   0.03    -0.04  -0.03   0.03
  30   6     0.01   0.02   0.17     0.11   0.20  -0.04     0.14   0.09  -0.15
  31   8    -0.09  -0.05  -0.06     0.00   0.36  -0.06     0.13   0.06  -0.29
  32   7    -0.12  -0.03   0.42     0.24   0.09  -0.04     0.07   0.09  -0.02
  33   1    -0.04  -0.07   0.11     0.01   0.07  -0.01     0.03  -0.04  -0.01
  34   1     0.00  -0.01   0.15     0.06   0.03  -0.01     0.04   0.02   0.02
  35   7     0.25   0.17   0.22     0.18   0.11  -0.04     0.29   0.22  -0.15
  36   1     0.07   0.07   0.10     0.05   0.02  -0.02     0.08   0.08  -0.01
  37   1     0.07   0.08   0.02     0.02   0.05  -0.00     0.08   0.09  -0.07
  38   6    -0.01  -0.00  -0.02     0.02  -0.02  -0.04     0.00   0.01   0.00
  39   8    -0.01  -0.02  -0.05     0.02  -0.09  -0.12     0.00   0.02   0.00
  40   7    -0.03   0.01   0.01    -0.00   0.01   0.00     0.00  -0.02  -0.02
  41   1    -0.01  -0.01  -0.01    -0.01  -0.01  -0.01    -0.00   0.03   0.02
  42   1    -0.01  -0.01   0.00    -0.00   0.02   0.02    -0.01   0.03   0.02
  43   7     0.00   0.01   0.00     0.04   0.02   0.01     0.01   0.02   0.02
  44   1     0.00   0.01   0.01     0.01   0.01   0.02     0.00  -0.04  -0.03
  45   1     0.00   0.00  -0.00     0.02  -0.01  -0.01     0.01  -0.02  -0.02
  46   6    -0.02  -0.06  -0.16    -0.07  -0.04  -0.03    -0.00   0.04   0.18
  47   8    -0.07  -0.05  -0.19    -0.23  -0.06   0.07     0.13   0.13   0.02
  48   7    -0.00  -0.09  -0.18    -0.05  -0.14  -0.15     0.06   0.11   0.39
  49   1    -0.01  -0.02  -0.05    -0.03  -0.03  -0.04     0.02   0.05   0.11
  50   1     0.00  -0.03  -0.05     0.02  -0.04  -0.04    -0.02   0.03   0.11
  51   7     0.02  -0.09  -0.16     0.05   0.08  -0.00    -0.20  -0.15   0.16
  52   1     0.00  -0.03  -0.04     0.04   0.02  -0.02    -0.08  -0.06   0.09
  53   1    -0.00  -0.02  -0.05     0.00   0.04   0.03    -0.06  -0.07  -0.01
                     25                     26                     27
                        a                      a                      a 
 Frequencies --   179.4827               197.6574               252.0379
 Red. masses --     3.7855                10.5108                 3.6608
 Frc consts  --     0.0000                 0.0000                 0.0000
 IR Inten    --    10.5919                 9.4330                14.7244
 Raman Activ --     0.0000                 0.0000                 0.0000
 Depolar     --     0.0000                 0.0000                 0.0000
 Atom AN      X      Y      Z        X      Y      Z        X      Y      Z
   1   8     0.02   0.02   0.00    -0.50   0.00   0.21    -0.10  -0.04  -0.06
   2   6     0.02   0.02   0.00     0.05   0.11   0.09     0.01   0.01   0.01
   3   1     0.01   0.01  -0.00     0.10   0.03   0.01     0.03  -0.01   0.01
   4   1     0.01   0.01   0.00     0.01   0.14   0.05     0.00   0.03   0.02
   5   6     0.02   0.01  -0.00     0.11  -0.30  -0.02     0.00  -0.02  -0.01
   6   1     0.01   0.00   0.00     0.06  -0.18   0.06     0.00  -0.01   0.00
   7   1     0.01   0.00  -0.00    -0.00  -0.13  -0.12     0.00  -0.01  -0.01
   8   7     0.02   0.00   0.00     0.11  -0.03  -0.04     0.00  -0.01  -0.01
   9   6     0.02   0.00   0.01    -0.09   0.16  -0.02     0.00   0.01   0.00
  10   1     0.01   0.00   0.00    -0.06   0.08  -0.01    -0.01   0.01  -0.00
  11   1     0.01   0.00   0.00    -0.04   0.04   0.05     0.01   0.01   0.01
  12   1     0.01   0.00   0.00    -0.03   0.06  -0.05     0.00  -0.01  -0.01
  13   6     0.01   0.00   0.01     0.02  -0.00  -0.02    -0.01  -0.00  -0.00
  14   1     0.00   0.01   0.00    -0.01   0.10  -0.04    -0.01   0.03  -0.01
  15   1    -0.01  -0.00   0.01    -0.09  -0.05   0.05    -0.03  -0.01   0.01
  16   1     0.01  -0.01   0.00     0.10  -0.05  -0.01     0.02  -0.01  -0.00
  17   6     0.01  -0.00   0.00     0.34   0.08  -0.10     0.02   0.00  -0.00
  18   1    -0.00  -0.00  -0.00     0.06  -0.03  -0.08    -0.02  -0.01  -0.02
  19   1     0.00   0.00  -0.00     0.20   0.05  -0.07     0.03   0.01  -0.01
  20   1     0.00  -0.01   0.01     0.09   0.08   0.06     0.00   0.00   0.03
  21   1    -0.00   0.00   0.00    -0.09   0.03   0.01    -0.04   0.01  -0.02
  22   6     0.00   0.00  -0.00    -0.01  -0.01  -0.01    -0.01  -0.02  -0.00
  23   8     0.01   0.00   0.00    -0.01  -0.01  -0.01     0.00  -0.04  -0.02
  24   7     0.00   0.00  -0.00    -0.00   0.00  -0.00     0.06  -0.12  -0.10
  25   1     0.00   0.00   0.00     0.00  -0.00  -0.01    -0.07   0.14   0.12
  26   1     0.00   0.00  -0.00     0.00  -0.00  -0.00    -0.13   0.20   0.18
  27   7     0.01   0.01  -0.00    -0.02  -0.02   0.01    -0.07   0.13   0.10
  28   1     0.00   0.00  -0.00    -0.01   0.01   0.01     0.08  -0.24  -0.13
  29   1     0.00   0.00  -0.00    -0.01  -0.00   0.01     0.05  -0.16  -0.11
  30   6    -0.01  -0.01   0.01     0.02  -0.01  -0.08     0.02   0.02   0.01
  31   8    -0.01  -0.01   0.02     0.02  -0.07  -0.18     0.08  -0.05  -0.00
  32   7    -0.01  -0.01   0.00    -0.09   0.00   0.04     0.16  -0.16   0.02
  33   1    -0.00   0.00   0.00     0.02  -0.10   0.01    -0.38   0.42   0.02
  34   1    -0.00  -0.00  -0.00     0.01  -0.02   0.04    -0.13   0.18   0.02
  35   7    -0.03  -0.02   0.01     0.15   0.07  -0.07    -0.12   0.21  -0.01
  36   1    -0.01  -0.01   0.00     0.02   0.06   0.00     0.10  -0.10   0.01
  37   1    -0.00  -0.01   0.01     0.00   0.08  -0.05     0.27  -0.26   0.02
  38   6    -0.04  -0.00  -0.00    -0.01  -0.01   0.00    -0.00  -0.00  -0.00
  39   8    -0.03  -0.00  -0.00    -0.01  -0.03  -0.00     0.00  -0.00  -0.00
  40   7     0.02  -0.25  -0.18     0.00  -0.01   0.00    -0.00   0.00   0.00
  41   1    -0.03   0.31   0.20     0.00   0.00   0.01     0.00  -0.00  -0.00
  42   1    -0.08   0.40   0.28    -0.00   0.01   0.01     0.00  -0.00  -0.00
  43   7    -0.01   0.26   0.19    -0.02   0.00   0.01     0.00  -0.00   0.00
  44   1    -0.03  -0.42  -0.30    -0.01  -0.00  -0.01     0.00   0.00   0.00
  45   1     0.00  -0.31  -0.21    -0.01  -0.01  -0.01     0.00   0.00   0.00
  46   6    -0.00  -0.01  -0.02    -0.03   0.01   0.05     0.01   0.00   0.01
  47   8    -0.02  -0.01  -0.00    -0.02   0.06  -0.00     0.02   0.00   0.01
  48   7    -0.01  -0.01  -0.04     0.01   0.01   0.09    -0.03   0.02   0.00
  49   1    -0.00  -0.01  -0.01    -0.01   0.00   0.02     0.03  -0.01   0.01
  50   1     0.00  -0.00  -0.01    -0.01   0.01   0.02     0.05  -0.03   0.03
  51   7     0.02   0.01  -0.01    -0.05  -0.05   0.05    -0.02   0.01   0.01
  52   1     0.01   0.01  -0.01    -0.02  -0.02   0.03    -0.01  -0.00   0.01
  53   1     0.00   0.01   0.00    -0.03  -0.01  -0.00    -0.01   0.00  -0.00
                     28                     29                     30
                        a                      a                      a 
 Frequencies --   254.7207               262.4373               275.1201
 Red. masses --     3.6163                12.5296                 5.1799
 Frc consts  --     0.0000                 0.0000                 0.0000
 IR Inten    --    16.4766                14.0369                 4.6738
 Raman Activ --     0.0000                 0.0000                 0.0000
 Depolar     --     0.0000                 0.0000                 0.0000
 Atom AN      X      Y      Z        X      Y      Z        X      Y      Z
   1   8    -0.08  -0.04  -0.05    -0.44  -0.37  -0.21    -0.05   0.09   0.29
   2   6     0.00  -0.00   0.00    -0.09  -0.24  -0.11    -0.22  -0.09  -0.12
   3   1     0.02  -0.01   0.00    -0.04  -0.10   0.00    -0.22   0.03  -0.05
   4   1    -0.00   0.02   0.01    -0.02  -0.01  -0.08    -0.04  -0.13  -0.16
   5   6     0.00  -0.01  -0.00     0.07  -0.01   0.04     0.06  -0.02   0.06
   6   1     0.00  -0.01   0.00     0.03   0.04  -0.03     0.04   0.02  -0.01
   7   1     0.00  -0.00  -0.01     0.01   0.01   0.07     0.01  -0.00   0.04
   8   7     0.00  -0.00  -0.01     0.08   0.06  -0.01     0.08   0.01   0.05
   9   6     0.00   0.01  -0.00    -0.01   0.09  -0.03    -0.13   0.06  -0.02
  10   1    -0.01   0.01  -0.00    -0.01   0.03  -0.01     0.06  -0.07   0.01
  11   1     0.01   0.00   0.01    -0.01   0.02   0.01    -0.18  -0.04  -0.07
  12   1     0.00  -0.01  -0.00    -0.00   0.03  -0.02    -0.04   0.17   0.02
  13   6    -0.00   0.00  -0.00     0.20   0.06  -0.06     0.26  -0.01  -0.01
  14   1    -0.00   0.02  -0.01     0.07  -0.06  -0.01     0.11  -0.29   0.11
  15   1    -0.02  -0.01   0.01     0.13   0.05  -0.05     0.34   0.13  -0.16
  16   1     0.02  -0.01  -0.00     0.00   0.06  -0.01    -0.19   0.15   0.02
  17   6     0.01   0.00  -0.00     0.01   0.03  -0.05     0.13   0.04  -0.04
  18   1    -0.02  -0.01  -0.01    -0.04  -0.00  -0.04     0.21   0.07   0.09
  19   1     0.02   0.01  -0.01     0.02   0.03  -0.03    -0.12  -0.05   0.08
  20   1     0.00   0.00   0.02     0.00  -0.02   0.03     0.05   0.02  -0.22
  21   1    -0.03   0.00  -0.02    -0.11  -0.07  -0.08     0.07  -0.02   0.08
  22   6     0.02   0.00  -0.02    -0.00   0.00   0.02     0.00  -0.00  -0.01
  23   8     0.02  -0.01  -0.02    -0.00   0.01   0.03     0.01  -0.01  -0.01
  24   7    -0.12   0.20   0.16    -0.01  -0.03   0.01     0.00   0.01  -0.00
  25   1     0.11  -0.23  -0.18    -0.01   0.00   0.02     0.00  -0.00  -0.01
  26   1     0.20  -0.32  -0.28    -0.02   0.01   0.01     0.00  -0.00  -0.00
  27   7     0.08  -0.18  -0.11     0.00   0.01   0.01    -0.00   0.00   0.00
  28   1    -0.12   0.34   0.19     0.01  -0.02  -0.01    -0.00   0.00   0.00
  29   1    -0.08   0.20   0.14     0.01  -0.00  -0.00    -0.00  -0.00  -0.00
  30   6    -0.00   0.01   0.03     0.05   0.11   0.18    -0.03  -0.02  -0.06
  31   8     0.03  -0.04   0.03     0.06   0.19   0.27    -0.03  -0.05  -0.10
  32   7     0.11  -0.11  -0.01     0.21   0.22  -0.09    -0.05  -0.10   0.04
  33   1    -0.25   0.30   0.01     0.15   0.07  -0.03    -0.11   0.03   0.01
  34   1    -0.09   0.12  -0.01     0.05   0.00  -0.09    -0.03   0.02   0.04
  35   7    -0.09   0.12   0.02    -0.08  -0.11   0.16     0.02   0.06  -0.06
  36   1     0.06  -0.06   0.02    -0.06  -0.03  -0.01     0.03   0.00   0.01
  37   1     0.17  -0.17   0.02    -0.10   0.01   0.08     0.05  -0.02  -0.02
  38   6     0.00   0.00   0.00    -0.01   0.00   0.00    -0.00   0.00   0.01
  39   8    -0.00  -0.00  -0.00    -0.01   0.01   0.01    -0.01   0.01   0.01
  40   7    -0.00  -0.00  -0.00    -0.01  -0.00  -0.00    -0.01  -0.01  -0.00
  41   1    -0.00   0.00   0.00    -0.00   0.00   0.00    -0.00   0.01   0.01
  42   1    -0.00   0.00   0.00    -0.00   0.00   0.00    -0.00   0.00   0.01
  43   7     0.00  -0.00  -0.00    -0.01   0.00  -0.00    -0.01   0.00   0.00
  44   1     0.00   0.00   0.00    -0.00  -0.00  -0.01    -0.00  -0.01  -0.01
  45   1     0.00   0.00   0.00    -0.01  -0.00  -0.00    -0.01  -0.01  -0.00
  46   6     0.01   0.00   0.01     0.00  -0.01  -0.02    -0.00   0.01   0.00
  47   8     0.01   0.00   0.00    -0.02  -0.04   0.02    -0.00   0.02  -0.01
  48   7    -0.02   0.01  -0.00    -0.03  -0.01  -0.05     0.01   0.00   0.01
  49   1     0.02  -0.01   0.00     0.01   0.00  -0.01    -0.01   0.00   0.00
  50   1     0.04  -0.02   0.02     0.02  -0.02   0.00    -0.01   0.01  -0.00
  51   7    -0.01   0.01   0.00     0.03   0.04  -0.02    -0.01  -0.01   0.00
  52   1    -0.00  -0.00   0.00     0.02   0.02  -0.02     0.00  -0.01   0.01
  53   1    -0.00   0.00  -0.00     0.01   0.02   0.01    -0.00  -0.01  -0.00
                     31                     32                     33
                        a                      a                      a 
 Frequencies --   312.7595               322.0664               327.3629
 Red. masses --     9.3883                 3.2965                 3.9916
 Frc consts  --     0.0000                 0.0000                 0.0000
 IR Inten    --     0.6028               135.6917               126.1837
 Raman Activ --     0.0000                 0.0000                 0.0000
 Depolar     --     0.0000                 0.0000                 0.0000
 Atom AN      X      Y      Z        X      Y      Z        X      Y      Z
   1   8    -0.06  -0.15   0.41    -0.03  -0.01  -0.07     0.10   0.07   0.11
   2   6     0.09  -0.16   0.07     0.06   0.04   0.05    -0.18  -0.08  -0.15
   3   1     0.01  -0.02   0.00     0.07  -0.00   0.02    -0.17   0.02  -0.05
   4   1     0.03  -0.05   0.01     0.01   0.05   0.06    -0.03  -0.13  -0.14
   5   6     0.02  -0.07  -0.02    -0.02  -0.01  -0.01     0.02   0.02   0.01
   6   1     0.01  -0.02  -0.01    -0.02  -0.01   0.01     0.03   0.02  -0.02
   7   1    -0.05  -0.04   0.02    -0.00  -0.00  -0.01     0.01   0.01   0.01
   8   7     0.01   0.11  -0.12    -0.02  -0.03  -0.03     0.02   0.02   0.07
   9   6     0.42   0.15   0.07     0.04  -0.00   0.00    -0.16  -0.02  -0.03
  10   1     0.13   0.11  -0.03     0.15  -0.08   0.00    -0.33   0.16  -0.01
  11   1     0.21   0.08   0.04    -0.12  -0.05  -0.09     0.21   0.10   0.17
  12   1     0.12  -0.05   0.10     0.00   0.14   0.09    -0.03  -0.27  -0.20
  13   6    -0.09   0.19  -0.13    -0.09  -0.03   0.00     0.25   0.03  -0.02
  14   1    -0.01  -0.03   0.04    -0.02  -0.03   0.03     0.06   0.05  -0.10
  15   1     0.05   0.10  -0.14    -0.01  -0.00  -0.02     0.03  -0.01   0.06
  16   1    -0.14   0.13  -0.02    -0.06  -0.00  -0.00     0.17  -0.02   0.00
  17   6    -0.33  -0.03  -0.16     0.02  -0.01  -0.03    -0.02  -0.00   0.10
  18   1    -0.22  -0.03  -0.11     0.05   0.01   0.02    -0.15  -0.05  -0.06
  19   1    -0.05   0.07  -0.11    -0.03  -0.03   0.02     0.13   0.06  -0.05
  20   1    -0.09  -0.11   0.06     0.01   0.01  -0.06    -0.01  -0.01   0.21
  21   1     0.00  -0.05   0.10    -0.02   0.01  -0.02     0.06  -0.02   0.05
  22   6    -0.00  -0.00  -0.00    -0.00   0.00   0.00    -0.00  -0.00  -0.00
  23   8     0.00  -0.00  -0.00    -0.00   0.00   0.00     0.00  -0.00  -0.00
  24   7     0.00   0.00  -0.00    -0.00  -0.00   0.00     0.00   0.00  -0.00
  25   1     0.00   0.00  -0.00    -0.00  -0.00   0.00     0.00   0.00  -0.00
  26   1     0.00   0.00  -0.00    -0.00  -0.00  -0.00     0.00   0.00   0.00
  27   7    -0.00  -0.00   0.00     0.00  -0.00  -0.00    -0.00  -0.00  -0.00
  28   1    -0.00   0.00   0.00    -0.00   0.00   0.00    -0.00   0.01   0.00
  29   1    -0.00  -0.00   0.00    -0.00   0.00   0.00    -0.00   0.00   0.00
  30   6    -0.01  -0.01  -0.05    -0.00   0.01   0.02    -0.01  -0.01  -0.04
  31   8    -0.01  -0.02  -0.07    -0.00   0.01   0.02    -0.01  -0.01  -0.04
  32   7    -0.04  -0.05   0.03     0.01   0.02  -0.00    -0.03  -0.04   0.02
  33   1    -0.04  -0.02   0.01     0.02   0.00  -0.00    -0.03  -0.01   0.00
  34   1    -0.01   0.00   0.03     0.00  -0.00  -0.01    -0.01   0.00   0.02
  35   7     0.04   0.04  -0.05    -0.01  -0.01   0.02     0.02   0.02  -0.03
  36   1     0.02   0.01  -0.00    -0.01  -0.00   0.00     0.01   0.01  -0.00
  37   1     0.02   0.01  -0.02    -0.01   0.01   0.01     0.01   0.01  -0.01
  38   6    -0.00   0.00  -0.01     0.01  -0.07  -0.05    -0.00  -0.04  -0.03
  39   8    -0.00   0.00  -0.01     0.00  -0.03   0.00    -0.00   0.00   0.02
  40   7    -0.02   0.01   0.00    -0.04   0.18   0.11    -0.03   0.12   0.08
  41   1    -0.01  -0.01  -0.01     0.02  -0.17  -0.10     0.01  -0.11  -0.07
  42   1    -0.00  -0.02  -0.01     0.06  -0.31  -0.24     0.04  -0.23  -0.17
  43   7     0.01   0.02   0.00     0.03   0.17   0.12     0.01   0.12   0.08
  44   1     0.00  -0.02  -0.01    -0.01  -0.30  -0.23    -0.01  -0.22  -0.17
  45   1     0.01  -0.01  -0.01    -0.00  -0.16  -0.10    -0.01  -0.11  -0.07
  46   6    -0.01  -0.00   0.01    -0.01   0.02   0.01     0.00  -0.01   0.00
  47   8    -0.00  -0.00   0.01    -0.01   0.02   0.01     0.01  -0.01   0.00
  48   7    -0.00  -0.01  -0.00    -0.03   0.02  -0.02     0.01  -0.00   0.00
  49   1    -0.01  -0.01  -0.00     0.03  -0.01   0.01    -0.00   0.00  -0.00
  50   1     0.00  -0.00  -0.01     0.15  -0.08   0.06    -0.02   0.01  -0.01
  51   7     0.00  -0.01   0.01     0.17  -0.14   0.02    -0.01   0.01  -0.00
  52   1    -0.02   0.02  -0.00    -0.36   0.33  -0.08     0.01  -0.01   0.00
  53   1    -0.01   0.01   0.00    -0.18   0.13  -0.01     0.01  -0.01   0.00
                     34                     35                     36
                        a                      a                      a 
 Frequencies --   328.0961               354.7439               360.0724
 Red. masses --     2.9925                 3.7395                 4.6329
 Frc consts  --     0.0000                 0.0000                 0.0000
 IR Inten    --   361.3089               422.9477                 5.5473
 Raman Activ --     0.0000                 0.0000                 0.0000
 Depolar     --     0.0000                 0.0000                 0.0000
 Atom AN      X      Y      Z        X      Y      Z        X      Y      Z
   1   8     0.04   0.03   0.04    -0.01  -0.00   0.02    -0.12  -0.06   0.25
   2   6    -0.08  -0.03  -0.04    -0.01  -0.01  -0.00    -0.16  -0.16  -0.06
   3   1    -0.07   0.01  -0.01    -0.01  -0.00  -0.00    -0.17  -0.02  -0.00
   4   1    -0.02  -0.05  -0.05    -0.00  -0.01  -0.01    -0.02  -0.12  -0.14
   5   6    -0.00   0.02   0.02     0.00   0.01   0.01     0.06   0.20   0.13
   6   1     0.00   0.01  -0.00    -0.00   0.01  -0.00    -0.02   0.17  -0.04
   7   1     0.00   0.01   0.01     0.00   0.01   0.01     0.04   0.10   0.17
   8   7     0.00   0.00   0.02     0.01   0.01  -0.00     0.09   0.07  -0.02
   9   6    -0.05  -0.01  -0.02     0.01  -0.01  -0.01     0.15  -0.12  -0.12
  10   1    -0.12   0.06  -0.01     0.01  -0.01  -0.00     0.13  -0.13  -0.01
  11   1     0.09   0.04   0.06    -0.00  -0.00  -0.01    -0.02  -0.07  -0.15
  12   1    -0.01  -0.11  -0.08     0.00   0.00   0.00     0.04   0.04   0.02
  13   6     0.08   0.01  -0.02    -0.00   0.00   0.00    -0.02   0.05   0.03
  14   1     0.02   0.01  -0.03    -0.00   0.03  -0.01    -0.05   0.35  -0.13
  15   1     0.02   0.00   0.01    -0.02  -0.01   0.02    -0.31  -0.14   0.21
  16   1     0.04  -0.00  -0.00     0.02  -0.01  -0.00     0.29  -0.18  -0.03
  17   6     0.01   0.00   0.03    -0.00   0.00  -0.01     0.03   0.05  -0.16
  18   1    -0.04  -0.02  -0.03     0.01   0.00   0.00     0.13   0.04   0.02
  19   1     0.06   0.02  -0.02    -0.01  -0.00   0.00    -0.12  -0.01   0.01
  20   1     0.00   0.00   0.07     0.00  -0.00  -0.02     0.02   0.01  -0.19
  21   1     0.02  -0.01   0.02     0.01  -0.00   0.00     0.04  -0.04   0.06
  22   6     0.00  -0.00  -0.00     0.04  -0.09  -0.05    -0.00   0.00   0.00
  23   8     0.00  -0.00  -0.00     0.01  -0.05  -0.04     0.00  -0.00   0.00
  24   7    -0.00   0.01   0.00    -0.14   0.18   0.19     0.01  -0.01  -0.01
  25   1     0.00  -0.00  -0.01     0.08  -0.17  -0.15    -0.01   0.01   0.01
  26   1     0.01  -0.01  -0.01     0.24  -0.36  -0.29    -0.02   0.03   0.02
  27   7    -0.00   0.01   0.00    -0.07   0.28   0.14     0.01  -0.02  -0.01
  28   1     0.01  -0.01  -0.01     0.20  -0.50  -0.27    -0.02   0.04   0.02
  29   1     0.00  -0.01  -0.00     0.06  -0.20  -0.14    -0.00   0.01   0.01
  30   6    -0.01  -0.00  -0.02    -0.02   0.02  -0.00    -0.01   0.01  -0.02
  31   8    -0.02   0.00  -0.02     0.01  -0.01  -0.01    -0.01   0.00  -0.01
  32   7    -0.02  -0.02   0.01     0.01  -0.01  -0.01    -0.01  -0.02   0.01
  33   1    -0.00  -0.02   0.00    -0.02   0.02  -0.00    -0.03   0.01   0.00
  34   1     0.00  -0.01   0.01    -0.03   0.03  -0.00    -0.01   0.01   0.01
  35   7     0.02   0.00  -0.01     0.03  -0.04   0.00     0.01   0.01  -0.01
  36   1     0.00   0.01   0.00    -0.05   0.06  -0.00     0.00   0.00  -0.00
  37   1    -0.01   0.01  -0.01    -0.08   0.08  -0.01    -0.01   0.01  -0.00
  38   6    -0.00   0.05   0.04     0.00  -0.00  -0.00     0.00  -0.01   0.01
  39   8    -0.00   0.02  -0.00     0.00  -0.00   0.00     0.00  -0.01   0.01
  40   7     0.03  -0.14  -0.09     0.00   0.00   0.00     0.01  -0.00   0.01
  41   1    -0.02   0.13   0.08     0.00  -0.00  -0.00     0.00  -0.00   0.00
  42   1    -0.04   0.24   0.18     0.00  -0.01  -0.01     0.00  -0.00  -0.00
  43   7    -0.02  -0.13  -0.09    -0.00   0.00   0.00    -0.01  -0.00   0.00
  44   1     0.01   0.23   0.18    -0.00  -0.01  -0.01    -0.00   0.00  -0.00
  45   1     0.00   0.12   0.08    -0.00  -0.00  -0.00    -0.01  -0.01  -0.00
  46   6     0.01   0.02   0.02     0.00  -0.00   0.00    -0.00  -0.00  -0.00
  47   8     0.01   0.01   0.02     0.00  -0.00  -0.00    -0.00  -0.00  -0.00
  48   7    -0.05   0.03  -0.02    -0.00   0.00  -0.00     0.01  -0.00   0.00
  49   1     0.04  -0.02   0.01     0.00  -0.00   0.00    -0.00   0.00   0.00
  50   1     0.22  -0.11   0.09     0.00  -0.00   0.00    -0.01   0.01  -0.00
  51   7     0.18  -0.18   0.01    -0.01   0.01   0.00     0.01  -0.00  -0.00
  52   1    -0.46   0.42  -0.10     0.02  -0.01   0.00    -0.01   0.01  -0.00
  53   1    -0.21   0.15  -0.01     0.01  -0.00   0.00    -0.01   0.01  -0.00
                     37                     38                     39
                        a                      a                      a 
 Frequencies --   371.5937               379.4117               400.5909
 Red. masses --     5.0411                 3.3614                 3.4163
 Frc consts  --     0.0000                 0.0000                 0.0000
 IR Inten    --     1.5595                 2.2940               129.3470
 Raman Activ --     0.0000                 0.0000                 0.0000
 Depolar     --     0.0000                 0.0000                 0.0000
 Atom AN      X      Y      Z        X      Y      Z        X      Y      Z
   1   8    -0.02  -0.02   0.01    -0.08  -0.02  -0.06    -0.01  -0.00  -0.02
   2   6     0.12  -0.02  -0.12    -0.03   0.03   0.10    -0.01   0.00  -0.00
   3   1     0.10   0.02  -0.07    -0.00  -0.02   0.05    -0.00  -0.00  -0.00
   4   1     0.03   0.03   0.01    -0.01   0.04   0.03    -0.00   0.00  -0.00
   5   6     0.03  -0.21  -0.21    -0.01   0.04   0.09     0.00  -0.01   0.00
   6   1     0.07  -0.13  -0.02    -0.05   0.02   0.03     0.01  -0.01   0.00
   7   1    -0.04  -0.10  -0.14     0.03   0.03   0.04    -0.00  -0.00  -0.01
   8   7    -0.01   0.03  -0.00     0.01  -0.08   0.00     0.00   0.00   0.02
   9   6    -0.05   0.25   0.12     0.10  -0.09   0.03    -0.01  -0.01   0.01
  10   1    -0.04   0.14  -0.00    -0.25   0.17  -0.01    -0.01  -0.00   0.01
  11   1     0.00   0.08   0.13     0.34   0.10   0.19     0.00  -0.00   0.00
  12   1    -0.01   0.05   0.00     0.04  -0.34  -0.13    -0.00  -0.01  -0.00
  13   6     0.19   0.02  -0.06    -0.25   0.07  -0.01     0.00   0.02   0.01
  14   1     0.04   0.11  -0.16    -0.06  -0.02   0.09     0.00   0.01   0.00
  15   1    -0.05  -0.05   0.09    -0.04   0.04  -0.11     0.00   0.01  -0.00
  16   1     0.24  -0.05  -0.00    -0.18   0.09   0.01     0.00   0.01   0.00
  17   6    -0.28  -0.07   0.20     0.21   0.00  -0.18    -0.00  -0.00  -0.01
  18   1     0.12   0.16   0.26     0.34   0.05   0.10    -0.01  -0.01  -0.01
  19   1    -0.37  -0.16   0.23    -0.18  -0.08   0.07     0.00   0.01  -0.01
  20   1    -0.06  -0.10  -0.26     0.07   0.05  -0.37    -0.00  -0.00   0.00
  21   1    -0.00  -0.01   0.01    -0.01   0.01  -0.04    -0.01   0.00  -0.01
  22   6     0.00   0.00   0.00     0.00   0.00   0.00    -0.00   0.01  -0.00
  23   8     0.00  -0.00   0.00    -0.00   0.00   0.00    -0.01   0.01   0.00
  24   7     0.00  -0.00  -0.00    -0.00  -0.00   0.00    -0.01   0.01   0.00
  25   1    -0.00   0.00   0.00    -0.00   0.00   0.00     0.00  -0.00  -0.00
  26   1    -0.00   0.00   0.00    -0.00   0.00   0.00     0.02  -0.03  -0.03
  27   7     0.00  -0.00  -0.00     0.00   0.00  -0.00    -0.00   0.01   0.01
  28   1    -0.00   0.01   0.00    -0.00   0.00  -0.00     0.02  -0.04  -0.01
  29   1    -0.00   0.00   0.00     0.00   0.00  -0.00    -0.01  -0.01   0.00
  30   6    -0.00   0.01   0.01     0.00   0.00   0.03     0.05  -0.02   0.02
  31   8    -0.00   0.00   0.00    -0.00   0.00   0.02     0.01   0.02   0.01
  32   7     0.01   0.00  -0.00     0.02   0.02  -0.01     0.01   0.03   0.00
  33   1    -0.01   0.01   0.00     0.01   0.02  -0.00     0.04  -0.04  -0.00
  34   1    -0.00   0.00  -0.00     0.00   0.00  -0.01     0.02  -0.01  -0.00
  35   7    -0.00  -0.00   0.01    -0.01  -0.01   0.02    -0.07   0.03   0.00
  36   1    -0.00   0.00  -0.00    -0.01  -0.00   0.00     0.06  -0.08  -0.00
  37   1    -0.01   0.01   0.00    -0.01  -0.00   0.01     0.13  -0.16   0.03
  38   6     0.00  -0.00   0.01     0.00   0.00   0.00    -0.00   0.00   0.00
  39   8     0.00   0.01   0.01     0.00   0.01   0.01     0.00   0.00  -0.00
  40   7     0.01  -0.01   0.00    -0.00   0.01   0.01     0.00  -0.01  -0.00
  41   1     0.00   0.00   0.00    -0.00  -0.01  -0.01    -0.00   0.00   0.00
  42   1     0.00   0.00   0.00     0.00  -0.03  -0.02    -0.00   0.01   0.01
  43   7    -0.01  -0.01  -0.00     0.00   0.01   0.01    -0.00  -0.01  -0.00
  44   1    -0.00   0.01   0.00    -0.00  -0.04  -0.04     0.00   0.02   0.01
  45   1    -0.01   0.00   0.00    -0.00  -0.00  -0.00     0.00   0.00   0.00
  46   6     0.00   0.01  -0.00     0.01  -0.00  -0.00    -0.10   0.03  -0.05
  47   8     0.00   0.01  -0.00     0.01  -0.01   0.00    -0.12   0.01  -0.02
  48   7     0.01   0.00   0.00     0.00   0.01  -0.00     0.25  -0.09   0.14
  49   1    -0.00  -0.00  -0.00     0.00   0.00  -0.00    -0.06  -0.01   0.00
  50   1     0.00   0.00   0.00     0.00   0.00   0.00    -0.67   0.38  -0.30
  51   7     0.01  -0.01   0.00    -0.00  -0.01  -0.01     0.19  -0.13  -0.00
  52   1    -0.03   0.03  -0.01    -0.01   0.01  -0.00    -0.15   0.18  -0.08
  53   1    -0.00   0.00   0.00     0.01  -0.01  -0.00    -0.06   0.06   0.02
                     40                     41                     42
                        a                      a                      a 
 Frequencies --   429.4801               444.4421               445.1950
 Red. masses --     8.5853                 1.7499                 1.7393
 Frc consts  --     0.0000                 0.0000                 0.0000
 IR Inten    --     0.8001                 5.9785                 8.7428
 Raman Activ --     0.0000                 0.0000                 0.0000
 Depolar     --     0.0000                 0.0000                 0.0000
 Atom AN      X      Y      Z        X      Y      Z        X      Y      Z
   1   8    -0.09  -0.12   0.17     0.01   0.01  -0.01    -0.00  -0.00  -0.00
   2   6     0.16  -0.07   0.01    -0.02   0.00   0.01    -0.00  -0.00  -0.00
   3   1     0.07  -0.02  -0.00    -0.00   0.00   0.00    -0.00  -0.00   0.00
   4   1     0.04   0.01   0.02    -0.01  -0.00   0.01    -0.00  -0.00   0.00
   5   6    -0.02   0.09  -0.09    -0.02  -0.02  -0.00    -0.00  -0.00   0.00
   6   1    -0.01   0.05  -0.04     0.00  -0.02   0.01    -0.00   0.00  -0.00
   7   1    -0.04   0.02   0.03    -0.01  -0.01  -0.01     0.00   0.00   0.00
   8   7    -0.03   0.24  -0.23    -0.02   0.00   0.01    -0.00  -0.00  -0.00
   9   6     0.06   0.02  -0.35     0.01  -0.01   0.02     0.00   0.00   0.00
  10   1    -0.07   0.00  -0.06     0.02  -0.01   0.00     0.00   0.00  -0.00
  11   1     0.11   0.04  -0.11    -0.00  -0.01  -0.01     0.00   0.00   0.00
  12   1     0.02  -0.10  -0.14     0.00  -0.00   0.02     0.00   0.00   0.00
  13   6    -0.07  -0.37   0.16     0.02   0.01  -0.00     0.00  -0.00  -0.00
  14   1    -0.00  -0.21   0.14     0.01   0.01  -0.02     0.00   0.00  -0.00
  15   1     0.08  -0.06   0.17     0.00   0.00   0.01    -0.00  -0.00  -0.00
  16   1    -0.14  -0.22  -0.06     0.02   0.00   0.00     0.00  -0.00  -0.00
  17   6    -0.02   0.28   0.26    -0.00   0.01  -0.01     0.00  -0.00   0.00
  18   1    -0.01   0.18   0.14     0.00  -0.01  -0.01     0.00   0.00   0.00
  19   1     0.02  -0.04   0.14     0.00   0.01  -0.01     0.00  -0.00   0.00
  20   1    -0.01   0.09   0.08    -0.00   0.01  -0.00     0.00   0.00  -0.00
  21   1    -0.01  -0.03   0.04    -0.00   0.00  -0.00    -0.00   0.00  -0.00
  22   6     0.00  -0.00   0.00     0.00   0.00  -0.00    -0.04  -0.05   0.04
  23   8     0.00  -0.00   0.00     0.00   0.00  -0.00    -0.05  -0.05   0.04
  24   7     0.00  -0.00  -0.00    -0.00   0.00  -0.00     0.10  -0.08  -0.03
  25   1     0.00   0.00   0.00     0.00  -0.01  -0.00    -0.14   0.48   0.20
  26   1    -0.00   0.00   0.00    -0.00   0.00   0.00     0.31  -0.31  -0.16
  27   7    -0.00   0.00  -0.00     0.00  -0.00   0.00    -0.08   0.13   0.02
  28   1    -0.00   0.00   0.00     0.00  -0.00   0.00    -0.22   0.34   0.07
  29   1     0.00  -0.00  -0.00    -0.00   0.00   0.00     0.27  -0.31  -0.31
  30   6     0.00   0.00  -0.01    -0.00  -0.00   0.00     0.02   0.01  -0.01
  31   8     0.01   0.00  -0.01     0.00  -0.00   0.00     0.01   0.02  -0.01
  32   7    -0.00  -0.00   0.01     0.00  -0.00  -0.00    -0.00   0.01   0.03
  33   1    -0.01   0.00   0.00    -0.00   0.00  -0.00     0.01  -0.03   0.01
  34   1    -0.00   0.00   0.01    -0.00   0.00  -0.00     0.01  -0.00   0.02
  35   7     0.00   0.00  -0.01     0.00  -0.00   0.00    -0.02  -0.00  -0.01
  36   1    -0.00   0.00  -0.00    -0.00   0.00   0.00     0.01  -0.03  -0.02
  37   1    -0.01   0.01   0.00    -0.00   0.00  -0.00     0.02  -0.04   0.01
  38   6    -0.01   0.00  -0.00     0.08   0.00   0.00     0.00   0.00  -0.00
  39   8    -0.01   0.00  -0.00     0.09   0.00   0.01     0.00  -0.00   0.00
  40   7     0.00   0.01  -0.00    -0.04   0.04   0.13    -0.00   0.00   0.00
  41   1     0.00  -0.01  -0.01    -0.10  -0.39  -0.32    -0.00  -0.00  -0.00
  42   1    -0.00   0.01   0.01    -0.08   0.26   0.38    -0.00   0.00   0.00
  43   7     0.01  -0.01   0.00    -0.03  -0.04  -0.13    -0.00   0.00  -0.00
  44   1     0.00  -0.03  -0.01    -0.03  -0.26  -0.38    -0.00  -0.00  -0.00
  45   1     0.01   0.02   0.01    -0.14   0.38   0.30    -0.00   0.00   0.00
  46   6     0.00   0.00  -0.00    -0.00   0.00  -0.00     0.00   0.00   0.00
  47   8    -0.00   0.00   0.00    -0.00   0.00  -0.00     0.00   0.00   0.00
  48   7     0.01  -0.00   0.00     0.00  -0.00   0.00    -0.00   0.00  -0.00
  49   1    -0.00  -0.00  -0.00    -0.00   0.00   0.00    -0.00   0.00  -0.00
  50   1    -0.03   0.02  -0.01     0.00  -0.00   0.00     0.01  -0.01   0.00
  51   7     0.00  -0.01  -0.00    -0.00  -0.00   0.00    -0.01  -0.00   0.00
  52   1    -0.01   0.01  -0.00    -0.00   0.00  -0.00    -0.00  -0.00   0.00
  53   1    -0.00  -0.00  -0.00     0.00  -0.00   0.00     0.00  -0.00  -0.00
                     43                     44                     45
                        a                      a                      a 
 Frequencies --   452.2909               454.7755               457.2393
 Red. masses --     3.2850                 7.4312                 8.4899
 Frc consts  --     0.0000                 0.0000                 0.0000
 IR Inten    --   507.7785               101.8862                 5.2185
 Raman Activ --     0.0000                 0.0000                 0.0000
 Depolar     --     0.0000                 0.0000                 0.0000
 Atom AN      X      Y      Z        X      Y      Z        X      Y      Z
   1   8    -0.00  -0.00  -0.00     0.02   0.00  -0.03     0.01   0.01   0.01
   2   6    -0.08  -0.01   0.03    -0.07   0.00   0.05     0.00   0.00   0.00
   3   1    -0.02   0.00   0.00     0.00  -0.00   0.01     0.00   0.00  -0.00
   4   1    -0.02  -0.02   0.01    -0.03  -0.00   0.04     0.00  -0.00   0.00
   5   6    -0.07  -0.03  -0.00    -0.13  -0.03  -0.01     0.00  -0.00  -0.00
   6   1    -0.01  -0.03   0.01    -0.02  -0.03   0.01     0.00  -0.00   0.00
   7   1    -0.03  -0.02  -0.02    -0.05  -0.02  -0.03    -0.00  -0.00  -0.00
   8   7    -0.05   0.02  -0.02    -0.11   0.02  -0.01    -0.00   0.01   0.01
   9   6     0.08  -0.01   0.01     0.09  -0.03   0.04     0.00  -0.01  -0.00
  10   1     0.04  -0.00  -0.00     0.05  -0.01   0.00    -0.00  -0.01   0.00
  11   1     0.04   0.00  -0.01     0.05   0.00  -0.01     0.00  -0.00  -0.00
  12   1     0.02  -0.02   0.03     0.02  -0.04   0.06     0.00  -0.00  -0.00
  13   6     0.06  -0.03  -0.03     0.07  -0.03  -0.04     0.00   0.00   0.01
  14   1     0.02  -0.01  -0.04     0.02  -0.03  -0.06     0.00  -0.00   0.00
  15   1     0.02  -0.01   0.02     0.04  -0.00   0.02     0.00   0.00   0.00
  16   1     0.04  -0.02  -0.01     0.05  -0.02  -0.01    -0.00  -0.00   0.00
  17   6     0.03   0.06   0.00     0.04   0.09   0.00    -0.01   0.01  -0.01
  18   1     0.03   0.02   0.01     0.03   0.01   0.00    -0.00  -0.00  -0.00
  19   1     0.01  -0.00   0.01     0.03   0.01   0.00    -0.00   0.00  -0.00
  20   1     0.01   0.04  -0.01     0.01   0.07   0.00    -0.00   0.00  -0.00
  21   1    -0.06   0.01   0.02     0.03  -0.00  -0.02     0.00  -0.00   0.00
  22   6    -0.02   0.04  -0.03     0.01  -0.02   0.01     0.18   0.20  -0.16
  23   8     0.02   0.04   0.01    -0.01  -0.02  -0.00     0.20   0.22  -0.18
  24   7    -0.03   0.03  -0.02     0.02  -0.01   0.01    -0.35  -0.16  -0.15
  25   1    -0.02   0.03   0.01     0.01  -0.01  -0.01    -0.19  -0.06   0.24
  26   1     0.05  -0.07  -0.07    -0.02   0.03   0.03    -0.21  -0.09  -0.25
  27   7    -0.02  -0.01   0.03     0.01   0.01  -0.02     0.10  -0.12   0.38
  28   1     0.08  -0.13  -0.02    -0.03   0.05   0.00     0.14   0.04   0.30
  29   1    -0.08   0.04   0.07     0.04  -0.01  -0.03    -0.11  -0.28   0.03
  30   6     0.09  -0.06   0.00    -0.03   0.03   0.01    -0.04  -0.03   0.02
  31   8    -0.07   0.10  -0.03     0.03  -0.04   0.01    -0.04  -0.05   0.03
  32   7    -0.06   0.09   0.04     0.03  -0.03  -0.02    -0.00  -0.01  -0.05
  33   1     0.28  -0.32   0.00    -0.10   0.13  -0.00     0.02   0.03  -0.01
  34   1     0.10  -0.12   0.01    -0.04   0.05  -0.01    -0.03   0.01  -0.04
  35   7    -0.14   0.11  -0.02     0.05  -0.04   0.01     0.04   0.02   0.03
  36   1     0.19  -0.23   0.00    -0.07   0.09  -0.00     0.01   0.02   0.03
  37   1     0.39  -0.44   0.05    -0.15   0.17  -0.02    -0.02   0.07  -0.02
  38   6     0.10   0.00   0.00     0.27   0.01   0.02     0.00   0.00   0.00
  39   8     0.11   0.00   0.01     0.30   0.01   0.02     0.01   0.00   0.00
  40   7    -0.08  -0.08   0.07    -0.20  -0.23   0.19    -0.00  -0.00   0.00
  41   1    -0.09   0.05   0.02    -0.24   0.13   0.05    -0.00   0.00   0.00
  42   1    -0.01  -0.11   0.04    -0.05  -0.26   0.14    -0.00  -0.01   0.00
  43   7    -0.07   0.08  -0.07    -0.19   0.22  -0.22    -0.00   0.00  -0.00
  44   1    -0.01   0.09  -0.06    -0.04   0.27  -0.14    -0.00   0.01  -0.00
  45   1    -0.08  -0.05  -0.03    -0.23  -0.14  -0.08    -0.00  -0.00  -0.00
  46   6     0.01   0.00   0.01     0.01   0.01   0.00    -0.01  -0.01  -0.01
  47   8     0.02   0.00   0.00    -0.01   0.00   0.02    -0.00  -0.00  -0.02
  48   7    -0.04  -0.00  -0.03     0.02   0.01  -0.01    -0.00  -0.00   0.02
  49   1    -0.04   0.04  -0.01     0.02  -0.03  -0.00     0.00   0.00   0.01
  50   1     0.17  -0.10   0.08    -0.07   0.05  -0.05    -0.01   0.00   0.00
  51   7    -0.06   0.03   0.00     0.02  -0.03   0.00     0.01   0.01  -0.00
  52   1     0.02  -0.02   0.00     0.00  -0.03   0.03     0.00   0.02  -0.02
  53   1     0.07  -0.05   0.02    -0.09   0.04  -0.04     0.02   0.00   0.02
                     46                     47                     48
                        a                      a                      a 
 Frequencies --   462.2143               468.2437               473.1263
 Red. masses --     3.1817                 7.9018                 7.7926
 Frc consts  --     0.0000                 0.0000                 0.0000
 IR Inten    --     8.5007                 1.8085                18.9003
 Raman Activ --     0.0000                 0.0000                 0.0000
 Depolar     --     0.0000                 0.0000                 0.0000
 Atom AN      X      Y      Z        X      Y      Z        X      Y      Z
   1   8     0.01   0.00  -0.00     0.04   0.01  -0.10    -0.03  -0.01   0.02
   2   6    -0.05  -0.01   0.02    -0.15   0.01   0.06     0.19   0.01  -0.12
   3   1    -0.02  -0.00   0.01     0.01   0.01   0.00     0.04   0.01  -0.04
   4   1    -0.01  -0.01   0.01    -0.05  -0.01   0.08     0.06   0.03  -0.06
   5   6    -0.05   0.02   0.01    -0.21  -0.21  -0.05     0.27  -0.07  -0.04
   6   1    -0.03   0.02  -0.00     0.05  -0.21   0.08     0.13  -0.06   0.01
   7   1    -0.00   0.02   0.02    -0.14  -0.14  -0.20     0.03  -0.05  -0.07
   8   7    -0.03  -0.04  -0.05    -0.19   0.21   0.14     0.17   0.14   0.18
   9   6     0.04   0.05   0.03     0.19  -0.26   0.03    -0.21  -0.15  -0.13
  10   1     0.03   0.04  -0.02     0.07  -0.14   0.05    -0.16  -0.12   0.05
  11   1     0.02   0.02   0.03     0.14  -0.05  -0.13    -0.07  -0.05  -0.09
  12   1     0.01   0.01   0.03     0.05  -0.16   0.07    -0.06  -0.04  -0.16
  13   6     0.02  -0.03  -0.09     0.24   0.03   0.14    -0.11   0.14   0.31
  14   1     0.00  -0.00  -0.04     0.07  -0.05  -0.06    -0.03   0.03   0.17
  15   1     0.00  -0.01  -0.02     0.13   0.03   0.13    -0.04   0.04   0.05
  16   1     0.02  -0.01  -0.02     0.13  -0.02   0.04    -0.11   0.03   0.06
  17   6     0.05  -0.01   0.04    -0.03   0.29  -0.18    -0.21  -0.03  -0.16
  18   1     0.02   0.01   0.02     0.07   0.01  -0.07    -0.08  -0.03  -0.07
  19   1     0.03  -0.03   0.02    -0.03   0.12  -0.07    -0.15   0.08  -0.07
  20   1     0.01   0.02   0.02    -0.01   0.12  -0.11    -0.05  -0.12  -0.09
  21   1    -0.00   0.00   0.00     0.01   0.01  -0.03    -0.03  -0.00   0.01
  22   6     0.01   0.01  -0.01    -0.00  -0.01   0.01    -0.01  -0.00  -0.00
  23   8     0.01   0.01  -0.01    -0.01  -0.01   0.00     0.00  -0.00   0.01
  24   7    -0.02  -0.00  -0.01     0.01  -0.00   0.01     0.00   0.01  -0.00
  25   1    -0.01   0.00   0.01     0.01  -0.00  -0.01    -0.00   0.02   0.00
  26   1    -0.00  -0.01  -0.02     0.00   0.01   0.01     0.01  -0.01  -0.00
  27   7     0.00  -0.01   0.02    -0.00   0.00  -0.01    -0.01  -0.00  -0.00
  28   1     0.02  -0.01   0.01    -0.01   0.01  -0.01     0.01  -0.01  -0.00
  29   1    -0.02  -0.01   0.01     0.01   0.00  -0.01    -0.01   0.01   0.01
  30   6     0.01   0.01   0.01    -0.01  -0.00   0.01     0.00  -0.01  -0.01
  31   8    -0.02   0.02  -0.02    -0.01  -0.02   0.01     0.00   0.02   0.01
  32   7     0.00   0.02   0.01     0.01   0.00  -0.02    -0.02  -0.00   0.01
  33   1     0.04  -0.03   0.00    -0.00   0.03  -0.00     0.02  -0.04   0.00
  34   1     0.01  -0.01  -0.00    -0.01   0.00  -0.02     0.01  -0.01   0.01
  35   7    -0.03  -0.01   0.01     0.02  -0.00   0.02    -0.01   0.02  -0.02
  36   1     0.01  -0.03  -0.01    -0.01   0.02   0.01     0.02  -0.02  -0.00
[...]
  44   1     0.00   0.00   0.00    -0.00   0.00   0.00     0.00  -0.00   0.00
  45   1    -0.00   0.00  -0.00     0.00  -0.00   0.00    -0.00   0.00  -0.00
  46   6     0.00   0.00  -0.00     0.00   0.00  -0.00    -0.00   0.00  -0.00
  47   8    -0.00  -0.00   0.00    -0.00   0.00   0.00     0.00   0.00   0.00
  48   7    -0.00  -0.00   0.00    -0.00  -0.00   0.01    -0.00   0.01   0.01
  49   1     0.00  -0.00  -0.02     0.01  -0.00  -0.04     0.00  -0.00  -0.01
  50   1     0.00   0.01   0.00     0.00   0.01   0.01    -0.01  -0.03  -0.02
  51   7    -0.00  -0.00  -0.00    -0.00   0.00  -0.00     0.01  -0.00  -0.18
  52   1     0.00   0.00   0.00     0.00   0.00   0.00     0.34   0.48   0.43
  53   1    -0.00  -0.00   0.00    -0.00  -0.00   0.00    -0.37  -0.48   0.26
                    142                    143                    144
                        a                      a                      a 
 Frequencies --  3495.9191              3499.7917              3500.0445
 Red. masses --     1.4396                 1.4633                 1.4377
 Frc consts  --     0.0000                 0.0000                 0.0000
 IR Inten    --    39.2545                 3.7271                39.0142
 Raman Activ --     0.0000                 0.0000                 0.0000
 Depolar     --     0.0000                 0.0000                 0.0000
 Atom AN      X      Y      Z        X      Y      Z        X      Y      Z
   1   8     0.00  -0.00   0.00     0.00   0.00   0.00    -0.00   0.00  -0.00
   2   6    -0.00   0.00  -0.00    -0.00   0.00  -0.00     0.00  -0.00   0.00
   3   1     0.00  -0.00   0.00     0.00   0.00   0.00     0.00  -0.00  -0.00
   4   1     0.00  -0.00   0.00     0.00  -0.00  -0.00    -0.00   0.00  -0.00
   5   6    -0.00   0.00   0.00     0.00  -0.00   0.00     0.00  -0.00  -0.00
   6   1    -0.00  -0.00  -0.00    -0.00  -0.00   0.00    -0.00  -0.00   0.00
   7   1     0.00  -0.00   0.00    -0.00   0.00  -0.00    -0.00   0.00  -0.00
   8   7     0.00  -0.00   0.00     0.00   0.00  -0.00     0.00   0.00  -0.00
   9   6     0.00   0.00   0.00    -0.00   0.00   0.00    -0.00  -0.00   0.00
  10   1    -0.00  -0.00  -0.00    -0.00  -0.00  -0.00    -0.00  -0.00  -0.00
  11   1     0.00  -0.00   0.00    -0.00  -0.00  -0.00    -0.00   0.00   0.00
  12   1    -0.00   0.00  -0.00     0.00  -0.00  -0.00     0.00  -0.00   0.00
  13   6    -0.00   0.00  -0.00    -0.00  -0.00   0.00     0.00  -0.00   0.00
  14   1     0.00   0.00  -0.00     0.00   0.00  -0.00    -0.00  -0.00   0.00
  15   1     0.00  -0.00   0.00    -0.00   0.00  -0.00    -0.00   0.00   0.00
  16   1    -0.00   0.00  -0.00     0.00   0.00  -0.00     0.00   0.00  -0.00
  17   6    -0.00   0.00   0.00    -0.00  -0.00   0.00     0.00  -0.00   0.00
  18   1     0.00   0.00  -0.00     0.00   0.00  -0.00     0.00   0.00  -0.00
  19   1    -0.00  -0.00  -0.00    -0.00   0.00   0.00     0.00   0.00   0.00
  20   1     0.00   0.00  -0.00     0.00  -0.00   0.00    -0.00  -0.00   0.00
  21   1    -0.00  -0.00  -0.00    -0.00  -0.00  -0.00     0.00   0.00   0.00
  22   6     0.00  -0.00   0.00     0.00   0.00  -0.00     0.00   0.00  -0.00
  23   8    -0.00  -0.00   0.00    -0.00  -0.00   0.00    -0.00  -0.00   0.00
  24   7     0.03  -0.06   0.08    -0.05   0.08  -0.11    -0.00   0.00  -0.00
  25   1    -0.37  -0.08  -0.12     0.50   0.11   0.17     0.02   0.00   0.01
  26   1     0.24   0.32  -0.19    -0.30  -0.41   0.25    -0.01  -0.02   0.01
  27   7     0.14   0.02   0.03     0.11   0.02   0.03     0.00   0.00   0.00
  28   1    -0.35  -0.31   0.34    -0.26  -0.24   0.25    -0.01  -0.01   0.01
  29   1    -0.18   0.23  -0.43    -0.14   0.18  -0.34    -0.00   0.01  -0.01
  30   6    -0.00  -0.00  -0.00     0.00   0.00   0.00     0.00   0.00   0.00
  31   8     0.00  -0.00   0.00     0.00   0.00  -0.00    -0.00   0.00  -0.00
  32   7    -0.00  -0.00  -0.00    -0.00  -0.00  -0.00    -0.00  -0.00   0.00
  33   1    -0.00  -0.00   0.00    -0.00  -0.00   0.02    -0.00  -0.00   0.00
  34   1     0.00   0.00  -0.00     0.02   0.01  -0.01     0.00   0.00  -0.00
  35   7     0.00  -0.00   0.00     0.00   0.00   0.01     0.00   0.00   0.00
  36   1    -0.00   0.00  -0.00     0.01   0.01  -0.01     0.00   0.00   0.00
  37   1    -0.00  -0.00  -0.00    -0.02  -0.02  -0.02    -0.00  -0.00  -0.00
  38   6     0.00   0.00  -0.00    -0.00   0.00   0.00     0.00  -0.00  -0.00
  39   8     0.00  -0.00   0.00    -0.00  -0.00   0.00     0.00   0.00  -0.00
  40   7    -0.00   0.00  -0.00     0.00  -0.00   0.00    -0.07   0.05  -0.10
  41   1    -0.00  -0.00   0.00     0.01   0.01  -0.01    -0.26  -0.24   0.33
  42   1     0.00   0.00   0.00    -0.02  -0.00  -0.00     0.53   0.06   0.05
  43   7     0.00   0.00  -0.00    -0.00  -0.00   0.00     0.08   0.05  -0.08
  44   1    -0.00   0.00  -0.00     0.02  -0.00   0.00    -0.49   0.03  -0.01
  45   1     0.00  -0.00   0.00    -0.01   0.01  -0.01     0.21  -0.21   0.32
  46   6    -0.00  -0.00  -0.00    -0.00   0.00  -0.00    -0.00  -0.00   0.00
  47   8     0.00   0.00   0.00     0.00  -0.00  -0.00     0.00   0.00  -0.00
  48   7    -0.00  -0.00  -0.00     0.00   0.00  -0.00     0.00   0.00   0.00
  49   1     0.00   0.00  -0.00    -0.00   0.00   0.00    -0.00   0.00   0.00
  50   1     0.00   0.00   0.00    -0.00  -0.00  -0.00    -0.00  -0.00  -0.00
  51   7    -0.00   0.00   0.00     0.00  -0.00  -0.00     0.00  -0.00  -0.00
  52   1    -0.00  -0.00  -0.00     0.00   0.00   0.00     0.00   0.00   0.00
  53   1     0.00   0.00  -0.00    -0.00  -0.00   0.00    -0.00  -0.00   0.00
                    145                    146                    147
                        a                      a                      a 
 Frequencies --  3504.0701              3525.2106              3526.9076
 Red. masses --     1.4617                 1.9121                 2.0695
 Frc consts  --     0.0000                 0.0000                 0.0000
 IR Inten    --     7.5121                10.5527               106.5068
 Raman Activ --     0.0000                 0.0000                 0.0000
 Depolar     --     0.0000                 0.0000                 0.0000
 Atom AN      X      Y      Z        X      Y      Z        X      Y      Z
   1   8    -0.00  -0.00  -0.00     0.00   0.00   0.00    -0.00  -0.00  -0.00
   2   6    -0.00   0.00  -0.00     0.00  -0.00   0.00     0.00  -0.00   0.00
   3   1     0.00   0.00   0.00    -0.00  -0.00  -0.00    -0.00  -0.00  -0.00
   4   1     0.00  -0.00   0.00    -0.00   0.00  -0.00    -0.00   0.00  -0.00
   5   6     0.00  -0.00  -0.00    -0.00  -0.00  -0.00     0.00   0.00  -0.00
   6   1    -0.00   0.00   0.00     0.00   0.00   0.00     0.00   0.00   0.00
   7   1    -0.00   0.00   0.00    -0.00   0.00  -0.00     0.00   0.00  -0.00
   8   7     0.00   0.00  -0.00     0.00  -0.00  -0.00    -0.00  -0.00  -0.00
   9   6    -0.00  -0.00  -0.00    -0.00  -0.00  -0.00     0.00  -0.00  -0.00
  10   1    -0.00  -0.00  -0.00     0.00   0.00   0.00     0.00   0.00   0.00
  11   1    -0.00   0.00   0.00    -0.00   0.00  -0.00    -0.00   0.00   0.00
  12   1     0.00  -0.00   0.00     0.00  -0.00  -0.00    -0.00  -0.00  -0.00
  13   6    -0.00  -0.00   0.00     0.00   0.00   0.00     0.00   0.00  -0.00
  14   1     0.00   0.00  -0.00    -0.00  -0.00  -0.00    -0.00  -0.00  -0.00
  15   1    -0.00   0.00   0.00     0.00  -0.00   0.00    -0.00  -0.00  -0.00
  16   1    -0.00  -0.00   0.00    -0.00   0.00  -0.00    -0.00  -0.00   0.00
  17   6    -0.00  -0.00  -0.00     0.00   0.00  -0.00     0.00   0.00  -0.00
  18   1    -0.00  -0.00   0.00    -0.00  -0.00   0.00    -0.00  -0.00   0.00
  19   1     0.00   0.00   0.00     0.00  -0.00   0.00     0.00   0.00   0.00
  20   1     0.00   0.00  -0.00    -0.00  -0.00  -0.00    -0.00  -0.00  -0.00
  21   1     0.00   0.00   0.00    -0.00  -0.00  -0.00     0.00   0.01   0.01
  22   6     0.00   0.00  -0.00    -0.00  -0.00   0.00    -0.00  -0.00   0.00
  23   8    -0.00  -0.00   0.00    -0.00   0.00   0.00     0.00   0.00  -0.00
  24   7    -0.00   0.00  -0.00     0.00   0.00  -0.00     0.00   0.00  -0.00
  25   1     0.00   0.00   0.00     0.00   0.00   0.00     0.01   0.00   0.00
  26   1    -0.00  -0.00   0.00    -0.00  -0.00   0.00    -0.01  -0.02   0.01
  27   7     0.00   0.00   0.00     0.00   0.00  -0.00     0.00   0.00  -0.00
  28   1    -0.00  -0.00   0.00    -0.00  -0.00   0.00    -0.01  -0.01   0.01
  29   1    -0.00   0.00  -0.00    -0.00   0.00  -0.00    -0.00   0.00  -0.00
  30   6     0.00   0.00  -0.00     0.00   0.00  -0.00    -0.01  -0.01  -0.00
  31   8    -0.00  -0.00   0.00    -0.00  -0.00   0.00     0.00  -0.00  -0.00
  32   7    -0.00  -0.00  -0.00    -0.00  -0.00  -0.00     0.00   0.00  -0.02
  33   1     0.00  -0.00   0.00     0.00   0.00   0.01     0.00  -0.00   0.08
  34   1     0.00   0.00  -0.00     0.00   0.00  -0.00     0.00   0.00  -0.00
  35   7     0.00   0.00   0.00    -0.02  -0.02  -0.01    -0.19  -0.18  -0.11
  36   1    -0.00  -0.00   0.00     0.02   0.02  -0.01     0.20   0.17  -0.13
  37   1    -0.00  -0.00  -0.00     0.05   0.05   0.05     0.51   0.53   0.53
  38   6     0.00   0.00   0.00     0.00  -0.00   0.00    -0.00  -0.00   0.00
  39   8    -0.01  -0.00  -0.00    -0.00   0.00  -0.00     0.00   0.00  -0.00
  40   7     0.06  -0.05   0.10    -0.00   0.00  -0.00    -0.00  -0.00   0.00
  41   1     0.24   0.23  -0.31    -0.00  -0.00   0.00     0.00   0.00  -0.00
  42   1    -0.48  -0.05  -0.05     0.00   0.00   0.00     0.00   0.00   0.00
  43   7     0.08   0.06  -0.10    -0.00  -0.00   0.00     0.00   0.00  -0.00
  44   1    -0.53   0.04  -0.01     0.00  -0.00   0.00    -0.00   0.00  -0.00
  45   1     0.23  -0.24   0.36    -0.00   0.00  -0.00     0.00  -0.00   0.00
  46   6     0.00   0.00   0.00     0.00  -0.00  -0.01    -0.00   0.00   0.00
  47   8    -0.00  -0.00  -0.00    -0.00   0.00   0.00    -0.00  -0.00  -0.00
  48   7    -0.00  -0.00  -0.00    -0.05  -0.20  -0.16     0.00   0.02   0.02
  49   1     0.00  -0.00   0.00    -0.03  -0.02   0.09     0.00   0.00  -0.01
  50   1     0.00   0.00   0.00     0.20   0.78   0.50    -0.02  -0.07  -0.05
  51   7    -0.00  -0.00  -0.00     0.02   0.02  -0.01    -0.00  -0.00   0.00
  52   1     0.00   0.00   0.00    -0.01  -0.01  -0.01     0.00   0.00   0.00
  53   1    -0.00  -0.00   0.00    -0.05  -0.06   0.03     0.00   0.01  -0.00
                    148                    149                    150
                        a                      a                      a 
 Frequencies --  3558.2924              3559.1012              3561.0553
 Red. masses --     2.1718                 2.1884                 2.0431
 Frc consts  --     0.0000                 0.0000                 0.0000
 IR Inten    --     6.6494                12.9403                42.0189
 Raman Activ --     0.0000                 0.0000                 0.0000
 Depolar     --     0.0000                 0.0000                 0.0000
 Atom AN      X      Y      Z        X      Y      Z        X      Y      Z
   1   8    -0.00  -0.00  -0.00    -0.00  -0.00  -0.00     0.00   0.00   0.00
   2   6     0.00   0.00  -0.00     0.00  -0.00   0.00    -0.00   0.00  -0.00
   3   1    -0.00   0.00   0.00    -0.00  -0.00  -0.00     0.00   0.00   0.00
   4   1    -0.00   0.00   0.00    -0.00   0.00  -0.00     0.00  -0.00  -0.00
   5   6     0.00   0.00   0.00     0.00  -0.00  -0.00    -0.00  -0.00  -0.00
   6   1     0.00  -0.00  -0.00     0.00   0.00   0.00    -0.00   0.00   0.00
   7   1     0.00  -0.00   0.00    -0.00   0.00  -0.00     0.00   0.00   0.00
   8   7    -0.00  -0.00  -0.00    -0.00   0.00  -0.00    -0.00  -0.00   0.00
   9   6     0.00   0.00   0.00    -0.00  -0.00  -0.00    -0.00  -0.00  -0.00
  10   1    -0.00  -0.00  -0.00     0.00   0.00   0.00     0.00   0.00   0.00
  11   1    -0.00   0.00   0.00    -0.00   0.00   0.00     0.00  -0.00  -0.00
  12   1    -0.00   0.00   0.00     0.00  -0.00   0.00     0.00   0.00  -0.00
  13   6     0.00  -0.00  -0.00     0.00  -0.00  -0.00    -0.00   0.00   0.00
  14   1    -0.00  -0.00   0.00    -0.00  -0.00   0.00     0.00   0.00   0.00
  15   1    -0.00   0.00   0.00    -0.00   0.00  -0.00     0.00  -0.00   0.00
  16   1     0.00   0.00   0.00    -0.00  -0.00   0.00     0.00   0.00  -0.00
  17   6     0.00   0.00   0.00     0.00  -0.00  -0.00    -0.00  -0.00  -0.00
  18   1     0.00   0.00   0.00    -0.00  -0.00   0.00     0.00   0.00  -0.00
  19   1    -0.00  -0.00  -0.00     0.00   0.00   0.00     0.00   0.00   0.00
  20   1    -0.00   0.00   0.00    -0.00  -0.00   0.00     0.00   0.00   0.00
  21   1     0.00   0.00   0.00     0.00   0.00   0.00    -0.00  -0.00  -0.00
  22   6    -0.00   0.00  -0.00    -0.01   0.00  -0.01     0.00   0.00  -0.00
  23   8     0.00   0.00   0.00     0.00   0.00   0.00    -0.00  -0.00   0.00
  24   7    -0.00  -0.00   0.00    -0.16  -0.10   0.01    -0.03  -0.02   0.00
  25   1     0.00   0.00   0.00     0.41   0.08   0.15     0.07   0.01   0.02
  26   1     0.00   0.00  -0.00     0.20   0.29  -0.18     0.04   0.05  -0.03
  27   7     0.00   0.00  -0.00     0.03   0.13  -0.19    -0.00  -0.00   0.01
  28   1    -0.00  -0.00   0.00    -0.32  -0.26   0.28     0.01   0.01  -0.01
  29   1     0.00  -0.00   0.01     0.21  -0.24   0.45    -0.00   0.00  -0.01
  30   6    -0.00  -0.00   0.00    -0.00  -0.00   0.00     0.00   0.00  -0.01
  31   8     0.00   0.00  -0.00     0.00   0.00  -0.00    -0.00  -0.00   0.00
  32   7     0.00   0.00  -0.00    -0.00  -0.00   0.01     0.04   0.04  -0.27
  33   1    -0.00  -0.00   0.01    -0.00   0.00  -0.05     0.02  -0.02   0.91
  34   1    -0.00  -0.00   0.00     0.01   0.01  -0.00    -0.19  -0.15   0.12
  35   7    -0.00  -0.00  -0.00    -0.00  -0.00  -0.00     0.02   0.01   0.01
  36   1    -0.00  -0.00   0.00     0.00   0.00  -0.00    -0.03  -0.02   0.02
  37   1     0.00   0.00   0.00     0.00   0.00   0.00    -0.04  -0.04  -0.04
  38   6    -0.00  -0.00   0.00    -0.00  -0.00   0.00     0.00  -0.00   0.00
  39   8     0.00   0.00  -0.00     0.00   0.00  -0.00    -0.00   0.00  -0.00
  40   7    -0.00  -0.00   0.00    -0.00  -0.00   0.00    -0.00  -0.00   0.00
  41   1     0.00   0.00  -0.00     0.00   0.00  -0.00     0.00   0.00  -0.00
  42   1     0.00   0.00   0.00     0.00   0.00   0.00     0.00   0.00   0.00
  43   7     0.00  -0.00   0.00     0.00  -0.00   0.00     0.00  -0.00   0.00
  44   1    -0.00   0.00   0.00    -0.00   0.00   0.00    -0.00   0.00   0.00
  45   1    -0.00   0.00  -0.00    -0.00   0.00  -0.00    -0.00   0.00  -0.00
  46   6     0.01   0.01   0.00    -0.00  -0.00   0.00     0.00   0.00  -0.00
  47   8    -0.00  -0.00  -0.00     0.00   0.00  -0.00    -0.00  -0.00  -0.00
  48   7     0.00   0.01   0.01    -0.00  -0.00  -0.00     0.00  -0.00  -0.00
  49   1     0.00   0.00  -0.01     0.00  -0.00  -0.00    -0.00  -0.00   0.01
  50   1    -0.02  -0.06  -0.04     0.00   0.00   0.00     0.00   0.00   0.00
  51   7     0.18   0.24   0.02    -0.00  -0.00  -0.00    -0.00  -0.00   0.00
  52   1    -0.29  -0.40  -0.40     0.00   0.00   0.00     0.00   0.00   0.00
  53   1    -0.39  -0.51   0.31     0.00   0.01  -0.00     0.00   0.00  -0.00
                    151                    152                    153
                        a                      a                      a 
 Frequencies --  3564.5156              3564.7048              3570.0190
 Red. masses --     2.1909                 2.1746                 2.1770
 Frc consts  --     0.0000                 0.0000                 0.0000
 IR Inten    --    14.0987                19.3538                10.8941
 Raman Activ --     0.0000                 0.0000                 0.0000
 Depolar     --     0.0000                 0.0000                 0.0000
 Atom AN      X      Y      Z        X      Y      Z        X      Y      Z
   1   8     0.00  -0.00   0.00    -0.00  -0.00  -0.00     0.00   0.00  -0.00
   2   6    -0.00   0.00  -0.00     0.00  -0.00   0.00    -0.00  -0.00   0.00
   3   1    -0.00   0.00   0.00    -0.00  -0.00  -0.00    -0.00   0.00   0.00
   4   1     0.00  -0.00   0.00    -0.00   0.00  -0.00     0.00   0.00  -0.00
   5   6    -0.00   0.00   0.00     0.00   0.00   0.00    -0.00   0.00   0.00
   6   1    -0.00   0.00  -0.00     0.00   0.00  -0.00     0.00  -0.00  -0.00
   7   1     0.00  -0.00  -0.00    -0.00  -0.00  -0.00     0.00   0.00  -0.00
   8   7    -0.00  -0.00   0.00    -0.00   0.00  -0.00    -0.00  -0.00   0.00
   9   6     0.00   0.00  -0.00     0.00   0.00   0.00     0.00   0.00   0.00
  10   1     0.00   0.00   0.00    -0.00  -0.00  -0.00     0.00   0.00  -0.00
  11   1     0.00  -0.00  -0.00    -0.00  -0.00   0.00     0.00  -0.00  -0.00
  12   1    -0.00   0.00  -0.00    -0.00  -0.00   0.00    -0.00   0.00  -0.00
  13   6    -0.00  -0.00   0.00     0.00   0.00  -0.00     0.00   0.00  -0.00
  14   1     0.00  -0.00   0.00    -0.00  -0.00   0.00    -0.00   0.00   0.00
  15   1    -0.00  -0.00   0.00     0.00  -0.00   0.00     0.00   0.00  -0.00
  16   1    -0.00   0.00  -0.00    -0.00  -0.00   0.00     0.00  -0.00   0.00
  17   6    -0.00  -0.00   0.00     0.00   0.00  -0.00     0.00   0.00   0.00
  18   1    -0.00   0.00  -0.00    -0.00  -0.00   0.00     0.00  -0.00   0.00
  19   1    -0.00  -0.00  -0.00     0.00   0.00  -0.00     0.00  -0.00  -0.00
  20   1     0.00   0.00   0.00    -0.00  -0.00   0.00    -0.00  -0.00   0.00
  21   1    -0.00  -0.00  -0.00     0.00   0.00   0.00    -0.00  -0.00  -0.00
  22   6    -0.00  -0.00   0.00    -0.01  -0.01   0.01    -0.00  -0.00   0.00
  23   8     0.00   0.00  -0.00     0.00   0.00  -0.00     0.00   0.00  -0.00
  24   7    -0.01  -0.00   0.00    -0.20  -0.12   0.01    -0.00  -0.00   0.00
  25   1     0.02   0.00   0.01     0.50   0.09   0.18     0.00   0.00   0.00
  26   1     0.01   0.01  -0.01     0.26   0.37  -0.23     0.00   0.00  -0.00
  27   7    -0.00  -0.00   0.01    -0.02  -0.11   0.15    -0.00  -0.00   0.00
  28   1     0.01   0.01  -0.01     0.26   0.22  -0.23     0.00   0.00  -0.00
  29   1    -0.01   0.01  -0.01    -0.17   0.19  -0.35    -0.00   0.00  -0.00
  30   6    -0.00  -0.00   0.00    -0.00  -0.00   0.00    -0.00  -0.00   0.00
  31   8     0.00  -0.00   0.00    -0.00  -0.00  -0.00     0.00   0.00  -0.00
  32   7    -0.00  -0.00   0.00    -0.01  -0.01   0.03    -0.00  -0.00   0.00
  33   1    -0.00   0.00  -0.00    -0.00   0.00  -0.09    -0.00   0.00  -0.00
  34   1     0.00   0.00  -0.00     0.03   0.02  -0.02     0.00   0.00  -0.00
  35   7    -0.00  -0.00   0.00    -0.01  -0.00  -0.00    -0.00  -0.00  -0.00
  36   1     0.00   0.00  -0.00     0.01   0.01  -0.01     0.00   0.00  -0.00
  37   1    -0.00  -0.00  -0.00     0.01   0.01   0.01     0.00   0.00   0.00
  38   6    -0.00  -0.01   0.01    -0.00   0.00  -0.00     0.01  -0.00   0.00
  39   8     0.00   0.00  -0.00     0.00  -0.00   0.00    -0.00   0.00  -0.00
  40   7    -0.19  -0.08   0.08     0.01   0.00  -0.00     0.17   0.07  -0.07
  41   1     0.26   0.26  -0.37    -0.01  -0.01   0.01    -0.23  -0.24   0.33
  42   1     0.46   0.04   0.06    -0.02  -0.00  -0.00    -0.44  -0.04  -0.06
  43   7     0.17  -0.07   0.09    -0.01   0.00  -0.00     0.18  -0.07   0.10
  44   1    -0.42   0.02   0.01     0.02  -0.00  -0.00    -0.48   0.02   0.01
  45   1    -0.21   0.24  -0.36     0.01  -0.01   0.01    -0.22   0.25  -0.39
  46   6     0.00   0.00  -0.00    -0.00  -0.00   0.00    -0.00  -0.00  -0.00
  47   8    -0.00  -0.00   0.00     0.00   0.00   0.00     0.00   0.00   0.00
  48   7    -0.00  -0.00   0.00    -0.00   0.00   0.00    -0.00  -0.00  -0.00
  49   1     0.00   0.00  -0.00     0.00   0.00  -0.00    -0.00  -0.00   0.00
  50   1     0.00   0.00   0.00    -0.00  -0.00  -0.00     0.00   0.00   0.00
  51   7    -0.00  -0.00  -0.00     0.00   0.00   0.00    -0.00  -0.00  -0.00
  52   1     0.00   0.00   0.00    -0.00  -0.00  -0.00     0.00   0.00   0.00
  53   1     0.00   0.00  -0.00    -0.00  -0.00   0.00     0.00   0.00  -0.00
