      -----------------------------------------------------------      
     |                   =====================                   |     
     |                           x T B                           |     
     |                   =====================                   |     
     |                         S. Grimme                         |     
     |          Mulliken Center for Theoretical Chemistry        |     
     |                    University of Bonn                     |     
      -----------------------------------------------------------      

   * xtb version 6.6.1 (unknown-commit) compiled by '@Linux' on 12/27/2023

   xtb is free software: you can redistribute it and/or modify it under
   the terms of the GNU Lesser General Public License as published by
   the Free Software Foundation, either version 3 of the License, or
   (at your option) any later version.
   
   xtb is distributed in the hope that it will be useful,
   but WITHOUT ANY WARRANTY; without even the implied warranty of
   MERCHANTABILITY or FITNESS FOR A PARTICULAR PURPOSE.  See the
   GNU Lesser General Public License for more details.
   
   Cite this work as:
   * C. Bannwarth, E. Caldeweyher, S. Ehlert, A. Hansen, P. Pracht,
     J. Seibert, S. Spicher, S. Grimme, WIREs Comput. Mol. Sci., 2020, 11,
     e01493. DOI: 10.1002/wcms.1493
   
   for GFN2-xTB:
   * C. Bannwarth, S. Ehlert and S. Grimme., J. Chem. Theory Comput., 2019,
     15, 1652-1671. DOI: 10.1021/acs.jctc.8b01176
   for GFN1-xTB:
   * S. Grimme, C. Bannwarth, P. Shushkov, J. Chem. Theory Comput., 2017,
     13, 1989-2009. DOI: 10.1021/acs.jctc.7b00118
   for GFN0-xTB:
   * P. Pracht, E. Caldeweyher, S. Ehlert, S. Grimme, ChemRxiv, 2019, preprint.
     DOI: 10.26434/chemrxiv.8326202.v1
   for GFN-FF:
   * S. Spicher and S. Grimme, Angew. Chem. Int. Ed., 2020, 59, 15665-15673.
     DOI: 10.1002/anie.202004239
   
   for ALPB and GBSA implicit solvation:
   * S. Ehlert, M. Stahn, S. Spicher, S. Grimme, J. Chem. Theory Comput.,
     2021, 17, 4250-4261. DOI: 10.1021/acs.jctc.1c00471
   
   for DFT-D4:
   * E. Caldeweyher, C. Bannwarth and S. Grimme, J. Chem. Phys., 2017,
     147, 034112. DOI: 10.1063/1.4993215
   * E. Caldeweyher, S. Ehlert, A. Hansen, H. Neugebauer, S. Spicher,
     C. Bannwarth and S. Grimme, J. Chem. Phys., 2019, 150, 154122.
     DOI: 10.1063/1.5090222
   * E. Caldeweyher, J.-M. Mewes, S. Ehlert and S. Grimme, Phys. Chem. Chem. Phys.
     2020, 22, 8499-8512. DOI: 10.1039/D0CP00502A
   
   for sTDA-xTB:
   * S. Grimme and C. Bannwarth, J. Chem. Phys., 2016, 145, 054103.
     DOI: 10.1063/1.4959605
   
   in the mass-spec context:
   * V. Asgeirsson, C. Bauer and S. Grimme, Chem. Sci., 2017, 8, 4879.
     DOI: 10.1039/c7sc00601b
   * J. Koopman and S. Grimme, ACS Omega 2019, 4, 12, 15120-15133.
     DOI: 10.1021/acsomega.9b02011
   
   for metadynamics refer to:
   * S. Grimme, J. Chem. Theory Comput., 2019, 155, 2847-2862
     DOI: 10.1021/acs.jctc.9b00143
   
   for SPH calculations refer to:
   * S. Spicher and S. Grimme, J. Chem. Theory Comput., 2021, 17, 1701-1714
     DOI: 10.1021/acs.jctc.0c01306
   
   with help from (in alphabetical order)
   P. Atkinson, C. Bannwarth, F. Bohle, G. Brandenburg, E. Caldeweyher
   M. Checinski, S. Dohm, S. Ehlert, S. Ehrlich, I. Gerasimov, C. Hölzer
   A. Katbashev, J. Koopman, C. Lavigne, S. Lehtola, F. März, M. Müller,
   F. Musil, H. Neugebauer, J. Pisarek, C. Plett, P. Pracht, F. Pultar,
   J. Seibert, P. Shushkov, S. Spicher, M. Stahn, M. Steiner, T. Strunk,
   J. Stückrath, T. Rose, and J. Unsleber
   
 * started run on 2024/01/10 at 15:37:00.215     

           -------------------------------------------------
          |                Calculation Setup                |
           -------------------------------------------------

          program call               : xtb struc.xyz --gfn2 --hess
          hostname                   : swaroop
          coordinate file            : struc.xyz
          omp threads                :                     1

   ID    Z sym.   atoms
    1    8 O      1, 23, 31, 39, 47
    2    6 C      2, 5, 9, 13, 17, 22, 30, 38, 46
    3    1 H      3, 4, 6, 7, 10-12, 14-16, 18-21, 25, 26, 28, 29, 33, 34,
                  36, 37, 41, 42, 44, 45, 49, 50, 52, 53
    4    7 N      8, 24, 27, 32, 35, 40, 43, 48, 51

molecular fragmentation (1/2 indicates fragments):
11111111111111111111122222222222222222222222222222222
# atoms in fragment 1/2:    21    32
 fragment masses (1/2) :      104.17      240.22
CMA distance (Bohr)    :   6.218
constraining FC (au)   :  0.0500

           -------------------------------------------------
          |                 G F N 2 - x T B                 |
           -------------------------------------------------

        Reference                      10.1021/acs.jctc.8b01176
      * Hamiltonian:
        H0-scaling (s, p, d)           1.850000    2.230000    2.230000
        zeta-weighting                 0.500000
      * Dispersion:
        s8                             2.700000
        a1                             0.520000
        a2                             5.000000
        s9                             5.000000
      * Repulsion:
        kExp                           1.500000    1.000000
        rExp                           1.000000
      * Coulomb:
        alpha                          2.000000
        third order                    shell-resolved
        anisotropic                    true
        a3                             3.000000
        a5                             4.000000
        cn-shift                       1.200000
        cn-exp                         4.000000
        max-rad                        5.000000


          ...................................................
          :                      SETUP                      :
          :.................................................:
          :  # basis functions                 122          :
          :  # atomic orbitals                 122          :
          :  # shells                           76          :
          :  # electrons                       140          :
          :  max. iterations                   250          :
          :  Hamiltonian                  GFN2-xTB          :
          :  restarted?                      false          :
          :  GBSA solvation                  false          :
          :  PC potential                    false          :
          :  electronic temp.          300.0000000     K    :
          :  accuracy                    1.0000000          :
          :  -> integral cutoff          0.2500000E+02      :
          :  -> integral neglect         0.1000000E-07      :
          :  -> SCF convergence          0.1000000E-05 Eh   :
          :  -> wf. convergence          0.1000000E-03 e    :
          :  Broyden damping             0.4000000          :
          ...................................................

 iter      E             dE          RMSdq      gap      omega  full diag
   1    -81.5457613 -0.815458E+02  0.433E+00    5.09       0.0  T
   2    -81.8395922 -0.293831E+00  0.236E+00    5.93       1.0  T
   3    -81.8454049 -0.581267E-02  0.116E+00    5.70       1.0  T
   4    -81.8467416 -0.133668E-02  0.239E-01    5.80       1.0  T
   5    -81.8476401 -0.898533E-03  0.924E-02    5.71       1.0  T
   6    -81.8476653 -0.252175E-04  0.269E-02    5.70       1.0  T
   7    -81.8476703 -0.502703E-05  0.757E-03    5.70       1.8  T
   8    -81.8476706 -0.274535E-06  0.283E-03    5.70       4.9  T
   9    -81.8476706 -0.218921E-07  0.995E-04    5.70      13.8  T
  10    -81.8476706 -0.672271E-08  0.204E-04    5.70      67.4  T

   *** convergence criteria satisfied after 10 iterations ***

         #    Occupation            Energy/Eh            Energy/eV
      -------------------------------------------------------------
         1        2.0000           -0.7821455             -21.2833
       ...           ...                  ...                  ...
        64        2.0000           -0.4879693             -13.2783
        65        2.0000           -0.4867371             -13.2448
        66        2.0000           -0.4837614             -13.1638
        67        2.0000           -0.4807562             -13.0820
        68        2.0000           -0.4764673             -12.9653
        69        2.0000           -0.4753208             -12.9341
        70        2.0000           -0.4719108             -12.8413 (HOMO)
        71                         -0.2625091              -7.1432 (LUMO)
        72                         -0.2616511              -7.1199
        73                         -0.2481669              -6.7530
        74                         -0.2460961              -6.6966
        75                         -0.1385008              -3.7688
       ...                                ...                  ...
       122                          0.5798075              15.7774
      -------------------------------------------------------------
                  HL-Gap            0.2094017 Eh            5.6981 eV
             Fermi-level           -0.3672100 Eh           -9.9923 eV

 SCC (total)                   0 d,  0 h,  0 min,  0.092 sec
 SCC setup                      ...        0 min,  0.000 sec (  0.309%)
 Dispersion                     ...        0 min,  0.001 sec (  0.642%)
 classical contributions        ...        0 min,  0.000 sec (  0.196%)
 integral evaluation            ...        0 min,  0.015 sec ( 16.055%)
 iterations                     ...        0 min,  0.050 sec ( 54.096%)
 molecular gradient             ...        0 min,  0.026 sec ( 28.372%)
 printout                       ...        0 min,  0.000 sec (  0.317%)

         :::::::::::::::::::::::::::::::::::::::::::::::::::::
         ::                     SUMMARY                     ::
         :::::::::::::::::::::::::::::::::::::::::::::::::::::
         :: total energy             -80.931461003305 Eh    ::
         :: gradient norm              0.000122582906 Eh/a0 ::
         :: HOMO-LUMO gap              5.698109587342 eV    ::
         ::.................................................::
         :: SCC energy               -81.847670638974 Eh    ::
         :: -> isotropic ES            0.288888511130 Eh    ::
         :: -> anisotropic ES         -0.028255250352 Eh    ::
         :: -> anisotropic XC          0.020884801517 Eh    ::
         :: -> dispersion             -0.038433286656 Eh    ::
         :: repulsion energy           0.916027438124 Eh    ::
         :: add. restraining           0.000000000000 Eh    ::
         :: total charge               1.000000000000 e     ::
         :::::::::::::::::::::::::::::::::::::::::::::::::::::

           ------------------------------------------------- 
          |                Numerical Hessian                |
           ------------------------------------------------- 
step length          :   0.00500
SCC accuracy         :   0.30000
Hessian scale factor :   1.00000
frozen atoms in %    :   0.00000    0
RMS gradient         :   0.00012
estimated CPU  time      0.24 min
estimated wall time      0.26 min

writing file <hessian>.

 projected vibrational frequencies (cm⁻¹)
eigval :       -0.00    -0.00     0.00     0.00     0.00     0.00
eigval :       -7.77    -3.55     6.04    13.53    17.13    19.78
eigval :       25.40    28.59    34.09    41.20    43.11    49.66
eigval :       58.68    66.90    75.18    77.59    84.65    99.04
eigval :      100.90   112.93   118.75   124.74   131.66   171.75
eigval :      179.48   197.66   252.04   254.72   262.44   275.12
eigval :      312.76   322.07   327.36   328.10   354.74   360.07
eigval :      371.59   379.41   400.59   429.48   444.44   445.19
eigval :      452.29   454.78   457.24   462.21   468.24   473.13
eigval :      484.28   500.13   502.12   509.38   530.85   533.31
eigval :      546.34   568.18   570.20   580.53   634.87   670.04
eigval :      674.26   676.02   678.89   720.60   768.74   857.33
eigval :      898.74   929.64   946.80   950.96   974.82   992.42
eigval :      994.77   996.93  1004.62  1010.74  1014.01  1028.09
eigval :     1030.80  1040.26  1043.12  1081.48  1083.83  1096.73
eigval :     1099.72  1107.19  1112.95  1135.40  1174.66  1230.11
eigval :     1252.59  1284.30  1311.55  1338.18  1342.78  1348.22
eigval :     1352.09  1353.88  1364.55  1395.88  1401.27  1404.68
eigval :     1428.63  1435.98  1441.66  1445.59  1451.15  1456.23
eigval :     1457.20  1457.43  1465.36  1470.70  1473.29  1479.33
eigval :     1493.68  1496.23  1496.44  1500.63  1529.49  1666.27
eigval :     1716.01  1725.22  1729.53  2886.04  2956.26  2965.41
eigval :     2990.42  2996.73  3036.21  3039.89  3041.90  3042.83
eigval :     3046.97  3052.70  3054.19  3058.39  3061.17  3237.81
eigval :     3398.84  3434.36  3493.98  3495.92  3499.79  3500.04
eigval :     3504.07  3525.21  3526.91  3558.29  3559.10  3561.06
eigval :     3564.52  3564.70  3570.02
           -------------------------------------------------
          |                Property Printout                |
           -------------------------------------------------

    * Orbital Energies and Occupations

         #    Occupation            Energy/Eh            Energy/eV
      -------------------------------------------------------------
         1        2.0000           -0.7821451             -21.2833
       ...           ...                  ...                  ...
        58        2.0000           -0.5006641             -13.6238
        59        2.0000           -0.4992573             -13.5855
        60        2.0000           -0.4963456             -13.5063
        61        2.0000           -0.4963161             -13.5054
        62        2.0000           -0.4925064             -13.4018
        63        2.0000           -0.4911888             -13.3659
        64        2.0000           -0.4879696             -13.2783
        65        2.0000           -0.4867367             -13.2448
        66        2.0000           -0.4837628             -13.1639
        67        2.0000           -0.4807565             -13.0821
        68        2.0000           -0.4764677             -12.9653
        69        2.0000           -0.4753216             -12.9342
        70        2.0000           -0.4719122             -12.8414 (HOMO)
        71                         -0.2625115              -7.1433 (LUMO)
        72                         -0.2616539              -7.1200
        73                         -0.2481647              -6.7529
        74                         -0.2460994              -6.6967
        75                         -0.1385001              -3.7688
        76                         -0.0930311              -2.5315
        77                         -0.0916513              -2.4940
        78                         -0.0774932              -2.1087
        79                         -0.0672807              -1.8308
        80                         -0.0615278              -1.6743
        81                         -0.0591897              -1.6106
       ...                                ...                  ...
       122                          0.5798066              15.7773
      -------------------------------------------------------------
                  HL-Gap            0.2094007 Eh            5.6981 eV
             Fermi-level           -0.3672119 Eh           -9.9923 eV

     #   Z          covCN         q      C6AA      α(0)
     1   8 O        1.652    -0.484    22.559     6.412
     2   6 C        3.673     0.078    19.505     6.329
     3   1 H        0.924     0.048     2.351     2.398
     4   1 H        0.923     0.040     2.452     2.449
     5   6 C        3.762    -0.064    21.781     6.653
     6   1 H        0.924     0.128     1.551     1.948
     7   1 H        0.924     0.068     2.108     2.271
     8   7 N        3.623     0.159    18.557     6.398
     9   6 C        3.736    -0.118    22.848     6.821
    10   1 H        0.925     0.125     1.575     1.963
    11   1 H        0.925     0.074     2.037     2.232
    12   1 H        0.925     0.117     1.637     2.001
    13   6 C        3.723    -0.105    22.616     6.791
    14   1 H        0.925     0.122     1.598     1.977
    15   1 H        0.925     0.077     2.014     2.219
    16   1 H        0.925     0.093     1.847     2.125
    17   6 C        3.730    -0.118    22.865     6.826
    18   1 H        0.925     0.108     1.716     2.048
    19   1 H        0.925     0.115     1.653     2.011
    20   1 H        0.925     0.106     1.733     2.059
    21   1 H        0.801     0.339     0.614     1.231
    22   6 C        2.675     0.347    21.104     7.517
    23   8 O        0.860    -0.511    24.032     6.573
    24   7 N        2.645    -0.289    27.459     7.783
    25   1 H        0.860     0.200     1.105     1.646
    26   1 H        0.861     0.187     1.177     1.699
    27   7 N        2.645    -0.288    27.436     7.779
    28   1 H        0.861     0.187     1.176     1.699
    29   1 H        0.860     0.201     1.100     1.643
    30   6 C        2.675     0.339    21.238     7.541
    31   8 O        0.860    -0.536    24.604     6.650
    32   7 N        2.650    -0.292    27.528     7.792
    33   1 H        0.861     0.190     1.157     1.685
    34   1 H        0.860     0.224     0.993     1.561
    35   7 N        2.650    -0.296    27.622     7.806
    36   1 H        0.860     0.223     0.994     1.562
    37   1 H        0.860     0.207     1.071     1.621
    38   6 C        2.675     0.346    21.125     7.521
    39   8 O        0.860    -0.518    24.190     6.594
    40   7 N        2.646    -0.290    27.488     7.787
    41   1 H        0.860     0.199     1.111     1.651
    42   1 H        0.861     0.185     1.186     1.706
    43   7 N        2.646    -0.289    27.461     7.783
    44   1 H        0.861     0.185     1.184     1.705
    45   1 H        0.860     0.199     1.109     1.650
    46   6 C        2.675     0.344    21.149     7.525
    47   8 O        0.860    -0.529    24.432     6.627
    48   7 N        2.644    -0.312    28.022     7.862
    49   1 H        0.860     0.240     0.921     1.504
    50   1 H        0.860     0.169     1.277     1.770
    51   7 N        2.644    -0.300    27.725     7.820
    52   1 H        0.860     0.177     1.231     1.738
    53   1 H        0.860     0.192     1.146     1.677

 Mol. C6AA /au·bohr⁶  :      21806.719779
 Mol. C8AA /au·bohr⁸  :     454279.115824
 Mol. α(0) /au        :        220.637969


Wiberg/Mayer (AO) data.
largest (>0.10) Wiberg bond orders for each atom

 ---------------------------------------------------------------------------
     #   Z sym  total        # sym  WBO       # sym  WBO       # sym  WBO
 ---------------------------------------------------------------------------
     1   8 O    1.943 --     2 C    1.026    21 H    0.793
     2   6 C    3.969 --     1 O    1.026     5 C    0.990     3 H    0.968
                             4 H    0.963
     3   1 H    0.998 --     2 C    0.968
     4   1 H    0.998 --     2 C    0.963
     5   6 C    3.932 --     2 C    0.990     7 H    0.970     6 H    0.947
                             8 N    0.938
     6   1 H    0.984 --     5 C    0.947
     7   1 H    0.995 --     5 C    0.970
     8   7 N    3.823 --    13 C    0.963     9 C    0.955    17 C    0.951
                             5 C    0.938
     9   6 C    3.919 --    11 H    0.980    12 H    0.964    10 H    0.962
                             8 N    0.955
    10   1 H    0.984 --     9 C    0.962
    11   1 H    0.994 --     9 C    0.980
    12   1 H    0.986 --     9 C    0.964
    13   6 C    3.932 --    15 H    0.980    16 H    0.975     8 N    0.963
                            14 H    0.961
    14   1 H    0.985 --    13 C    0.961
    15   1 H    0.994 --    13 C    0.980
    16   1 H    0.991 --    13 C    0.975
    17   6 C    3.912 --    20 H    0.969    18 H    0.967    19 H    0.964
                             8 N    0.951
    18   1 H    0.988 --    17 C    0.967
    19   1 H    0.987 --    17 C    0.964
    20   1 H    0.989 --    17 C    0.969
    21   1 H    0.885 --     1 O    0.793
    22   6 C    3.959 --    23 O    1.537    27 N    1.208    24 N    1.206
    23   8 O    1.922 --    22 C    1.537    24 N    0.143    27 N    0.143
    24   7 N    3.320 --    22 C    1.206    26 H    0.946    25 H    0.943
                            23 O    0.143
    25   1 H    0.960 --    24 N    0.943
    26   1 H    0.965 --    24 N    0.946
    27   7 N    3.321 --    22 C    1.208    28 H    0.946    29 H    0.942
                            23 O    0.143
    28   1 H    0.965 --    27 N    0.946
    29   1 H    0.959 --    27 N    0.942
    30   6 C    3.961 --    31 O    1.453    35 N    1.259    32 N    1.243
    31   8 O    1.926 --    30 C    1.453    35 N    0.135    32 N    0.130
    32   7 N    3.343 --    30 C    1.243    33 H    0.946    34 H    0.912
                            31 O    0.130
    33   1 H    0.964 --    32 N    0.946
    34   1 H    0.950 --    32 N    0.912
    35   7 N    3.353 --    30 C    1.259    37 H    0.934    36 H    0.908
                            31 O    0.135
    36   1 H    0.950 --    35 N    0.908
    37   1 H    0.957 --    35 N    0.934
    38   6 C    3.959 --    39 O    1.542    43 N    1.206    40 N    1.204
    39   8 O    1.899 --    38 C    1.542    43 N    0.144    40 N    0.144
    40   7 N    3.319 --    38 C    1.204    42 H    0.947    41 H    0.943
                            39 O    0.144
    41   1 H    0.960 --    40 N    0.943
    42   1 H    0.966 --    40 N    0.947
    43   7 N    3.322 --    38 C    1.206    44 H    0.947    45 H    0.943
                            39 O    0.144
    44   1 H    0.965 --    43 N    0.947
    45   1 H    0.960 --    43 N    0.943
    46   6 C    3.959 --    47 O    1.529    48 N    1.238    51 N    1.183
    47   8 O    1.892 --    46 C    1.529    48 N    0.148    51 N    0.135
    48   7 N    3.325 --    46 C    1.238    50 H    0.952    49 H    0.875
                            47 O    0.148
    49   1 H    0.942 --    48 N    0.875
    50   1 H    0.971 --    48 N    0.952
    51   7 N    3.296 --    46 C    1.183    52 H    0.949    53 H    0.946
                            47 O    0.135
    52   1 H    0.968 --    51 N    0.949
    53   1 H    0.963 --    51 N    0.946
 ---------------------------------------------------------------------------

Topologies differ in total number of bonds
Writing topology from bond orders to xtbtopo.mol

molecular dipole:
                 x           y           z       tot (Debye)
 q only:       -0.726      -0.035      -0.550
   full:       -0.389       0.466      -0.436       1.899
molecular quadrupole (traceless):
                xx          xy          yy          xz          yz          zz
 q only:       51.714      87.298      -9.068     -21.552     -20.824     -42.646
  q+dip:       61.205      99.275     -15.169     -23.926     -23.754     -46.036
   full:       60.752      98.509     -14.295     -23.963     -23.765     -46.457

           -------------------------------------------------
          |               Frequency Printout                |
           -------------------------------------------------
 projected vibrational frequencies (cm⁻¹)
eigval :       -0.00    -0.00     0.00     0.00     0.00     0.00
eigval :       -7.77    -3.55     6.04    13.53    17.13    19.78
eigval :       25.40    28.59    34.09    41.20    43.11    49.66
eigval :       58.68    66.90    75.18    77.59    84.65    99.04
eigval :      100.90   112.93   118.75   124.74   131.66   171.75
eigval :      179.48   197.66   252.04   254.72   262.44   275.12
eigval :      312.76   322.07   327.36   328.10   354.74   360.07
eigval :      371.59   379.41   400.59   429.48   444.44   445.19
eigval :      452.29   454.78   457.24   462.21   468.24   473.13
eigval :      484.28   500.13   502.12   509.38   530.85   533.31
eigval :      546.34   568.18   570.20   580.53   634.87   670.04
eigval :      674.26   676.02   678.89   720.60   768.74   857.33
eigval :      898.74   929.64   946.80   950.96   974.82   992.42
eigval :      994.77   996.93  1004.62  1010.74  1014.01  1028.09
eigval :     1030.80  1040.26  1043.12  1081.48  1083.83  1096.73
eigval :     1099.72  1107.19  1112.95  1135.40  1174.66  1230.11
eigval :     1252.59  1284.30  1311.55  1338.18  1342.78  1348.22
eigval :     1352.09  1353.88  1364.55  1395.88  1401.27  1404.68
eigval :     1428.63  1435.98  1441.66  1445.59  1451.15  1456.23
eigval :     1457.20  1457.43  1465.36  1470.70  1473.29  1479.33
eigval :     1493.68  1496.23  1496.44  1500.63  1529.49  1666.27
eigval :     1716.01  1725.22  1729.53  2886.04  2956.26  2965.41
eigval :     2990.42  2996.73  3036.21  3039.89  3041.90  3042.83
eigval :     3046.97  3052.70  3054.19  3058.39  3061.17  3237.81
eigval :     3398.84  3434.36  3493.98  3495.92  3499.79  3500.04
eigval :     3504.07  3525.21  3526.91  3558.29  3559.10  3561.06
eigval :     3564.52  3564.70  3570.02
 reduced masses (amu)
   1: 12.83   2: 12.45   3: 12.04   4: 12.63   5: 12.81   6: 12.59   7: 10.97   8: 11.20
   9: 12.30  10: 12.26  11: 12.21  12: 12.03  13: 12.59  14: 12.01  15: 12.42  16: 12.55
  17: 12.94  18: 13.08  19: 12.77  20: 11.52  21: 12.66  22: 14.02  23: 13.87  24: 12.15
  25: 12.28  26: 11.90  27: 11.96  28: 12.41  29: 11.84  30: 12.23  31:  3.79  32: 10.51
  33:  3.66  34:  3.62  35: 12.53  36:  5.18  37:  9.39  38:  3.30  39:  3.99  40:  2.99
  41:  3.74  42:  4.63  43:  5.04  44:  3.36  45:  3.42  46:  8.59  47:  1.75  48:  1.74
  49:  3.28  50:  7.43  51:  8.49  52:  3.18  53:  7.90  54:  7.79  55:  8.60  56:  3.44
  57:  3.34  58:  8.98  59:  9.51  60:  9.62  61: 11.33  62:  8.51  63: 10.87  64:  2.37
  65:  3.76  66: 11.22  67: 11.99  68: 11.86  69: 10.00  70:  2.59  71:  9.35  72:  1.93
  73:  6.86  74:  8.44  75:  5.24  76:  5.16  77:  4.81  78:  5.02  79:  8.83  80:  8.92
  81:  7.61  82:  9.56  83:  7.72  84:  8.81  85:  8.09  86:  3.21  87:  5.02  88:  9.65
  89:  9.52  90:  7.68  91:  7.10  92:  5.43  93:  7.86  94:  8.42  95:  3.10  96:  5.11
  97:  6.30  98:  7.96  99:  6.58 100:  3.27 101:  3.90 102:  4.87 103:  5.74 104:  6.04
 105:  6.33 106:  2.76 107:  2.67 108:  2.55 109:  2.29 110:  1.86 111:  1.90 112:  3.06
 113:  1.64 114:  2.80 115:  2.06 116:  3.04 117:  2.91 118:  1.77 119:  1.63 120:  1.60
 121:  2.07 122:  8.03 123:  7.69 124:  7.69 125: 10.26 126: 12.58 127: 12.79 128: 12.83
 129: 12.84 130:  1.77 131:  1.66 132:  1.79 133:  1.73 134:  1.92 135:  1.60 136:  1.80
 137:  1.48 138:  1.59 139:  1.94 140:  1.58 141:  1.93 142:  1.89 143:  1.79 144:  1.77
 145:  1.60 146:  1.61 147:  1.45 148:  1.44 149:  1.46 150:  1.44 151:  1.46 152:  1.91
 153:  2.07 154:  2.17 155:  2.19 156:  2.04 157:  2.19 158:  2.17 159:  2.18
 IR intensities (km·mol⁻¹)
   1:  1.89   2:  1.44   3:  0.49   4:  1.95   5:  0.73   6:  2.25   7:  0.00   8:  0.11
   9:  1.42  10:  3.08  11:  2.36  12:  0.75  13:  3.62  14:  1.03  15:  1.16  16:  4.36
  17:  1.67  18:  1.60  19:  2.64  20:  2.44  21:  4.45  22:  5.43  23:  3.00  24: 11.56
  25:  7.35  26: 14.74  27: 14.78  28: 18.44  29:  6.14  30: 12.33  31: 10.59  32:  9.43
  33: 14.72  34: 16.48  35: 14.04  36:  4.67  37:  0.60  38:135.69  39:126.18  40:361.31
  41:422.95  42:  5.55  43:  1.56  44:  2.29  45:129.35  46:  0.80  47:  5.98  48:  8.74
  49:507.78  50:101.89  51:  5.22  52:  8.50  53:  1.81  54: 18.90  55: 18.39  56: 87.50
  57: 49.60  58: 73.41  59: 40.79  60: 53.84  61: 28.20  62: 16.45  63: 39.96  64:  7.45
  65: 63.41  66: 20.65  67: 36.11  68: 30.87  69: 90.75  70:206.87  71:  3.93  72:335.24
  73:  2.11  74:  4.44  75:  1.38  76:  1.87  77:  0.66  78:  8.99  79:  0.04  80:  0.24
  81: 22.02  82: 31.08  83: 23.88  84: 12.11  85: 13.35  86:  3.04  87: 25.05  88:  2.09
  89:  0.79  90:  8.89  91: 11.84  92: 17.23  93:  1.56  94: 47.19  95: 13.13  96:  2.17
  97:  1.63  98: 20.08  99:  7.55 100:  5.86 101: 25.03 102: 22.36 103: 61.63 104: 96.74
 105:180.12 106: 12.09 107: 95.79 108: 17.05 109:  3.77 110:  1.62 111:  0.85 112: 30.87
 113:  1.32 114:  9.20 115: 10.02 116: 12.20 117:  4.86 118:  9.21 119: 15.13 120: 15.61
 121: 16.59 122:239.66 123:454.66 124:803.58 125:552.17 126:****** 127:****** 128:428.10
 129:569.99 130: 34.07 131:221.16 132:144.07 133:224.55 134:718.86 135:  9.65 136:  4.75
 137: 23.52 138:  8.76 139:  5.55 140:  8.20 141: 68.19 142: 13.73 143:  7.69 144:******
 145: 57.09 146:384.49 147: 12.19 148: 39.25 149:  3.73 150: 39.01 151:  7.51 152: 10.55
 153:106.51 154:  6.65 155: 12.94 156: 42.02 157: 14.10 158: 19.35 159: 10.89
 Raman intensities (amu)
Refinement of some symmetry elements was terminated before convergence was reached.
Some symmetry elements may remain unidentified.
Molecule has no symmetry elements
It seems to be the C1 point group
   1:  0.00   2:  0.00   3:  0.00   4:  0.00   5:  0.00   6:  0.00   7:  0.00   8:  0.00
   9:  0.00  10:  0.00  11:  0.00  12:  0.00  13:  0.00  14:  0.00  15:  0.00  16:  0.00
  17:  0.00  18:  0.00  19:  0.00  20:  0.00  21:  0.00  22:  0.00  23:  0.00  24:  0.00
  25:  0.00  26:  0.00  27:  0.00  28:  0.00  29:  0.00  30:  0.00  31:  0.00  32:  0.00
  33:  0.00  34:  0.00  35:  0.00  36:  0.00  37:  0.00  38:  0.00  39:  0.00  40:  0.00
  41:  0.00  42:  0.00  43:  0.00  44:  0.00  45:  0.00  46:  0.00  47:  0.00  48:  0.00
  49:  0.00  50:  0.00  51:  0.00  52:  0.00  53:  0.00  54:  0.00  55:  0.00  56:  0.00
  57:  0.00  58:  0.00  59:  0.00  60:  0.00  61:  0.00  62:  0.00  63:  0.00  64:  0.00
  65:  0.00  66:  0.00  67:  0.00  68:  0.00  69:  0.00  70:  0.00  71:  0.00  72:  0.00
  73:  0.00  74:  0.00  75:  0.00  76:  0.00  77:  0.00  78:  0.00  79:  0.00  80:  0.00
  81:  0.00  82:  0.00  83:  0.00  84:  0.00  85:  0.00  86:  0.00  87:  0.00  88:  0.00
  89:  0.00  90:  0.00  91:  0.00  92:  0.00  93:  0.00  94:  0.00  95:  0.00  96:  0.00
  97:  0.00  98:  0.00  99:  0.00 100:  0.00 101:  0.00 102:  0.00 103:  0.00 104:  0.00
 105:  0.00 106:  0.00 107:  0.00 108:  0.00 109:  0.00 110:  0.00 111:  0.00 112:  0.00
 113:  0.00 114:  0.00 115:  0.00 116:  0.00 117:  0.00 118:  0.00 119:  0.00 120:  0.00
 121:  0.00 122:  0.00 123:  0.00 124:  0.00 125:  0.00 126:  0.00 127:  0.00 128:  0.00
 129:  0.00 130:  0.00 131:  0.00 132:  0.00 133:  0.00 134:  0.00 135:  0.00 136:  0.00
 137:  0.00 138:  0.00 139:  0.00 140:  0.00 141:  0.00 142:  0.00 143:  0.00 144:  0.00
 145:  0.00 146:  0.00 147:  0.00 148:  0.00 149:  0.00 150:  0.00 151:  0.00 152:  0.00
 153:  0.00 154:  0.00 155:  0.00 156:  0.00 157:  0.00 158:  0.00 159:  0.00
 output can be read by thermo (or use thermo option).
 writing <g98.out> molden fake output.
 recommended (thermochemical) frequency scaling factor: 1.0
           -------------------------------------------------
          |             Thermodynamic Functions             |
           -------------------------------------------------

c1  symmetry found (for desy threshold:  0.10E+00) used in thermo
 inverting freq            1   7.7652574611878356     
 inverting freq            2   3.5469005710272152     

          ...................................................
          :                      SETUP                      :
          :.................................................:
          :  # frequencies                         153      :
          :  # imaginary freq.                       0      :
          :  linear?                             false      :
          :  only rotor calc.                    false      :
          :  symmetry                               c1      :
          :  rotational number                       1      :
          :  scaling factor                  1.0000000      :
          :  rotor cutoff                   50.0000000 cm⁻¹ :
          :  imag. cutoff                  -20.0000000 cm⁻¹ :
          :.................................................:

    mode    ω/cm⁻¹     T·S(HO)/kcal·mol⁻¹    T·S(FR)/kcal·mol⁻¹   T·S(vib)
   ------------------------------------------------------------------------
       1      7.77    -2.53832 (  0.06%)    -1.60815 ( 99.94%)    -1.60869
       2      3.55    -3.00256 (  0.00%)    -1.84015 (100.00%)    -1.84018
       3      6.04    -2.68731 (  0.02%)    -1.68262 ( 99.98%)    -1.68283
       4     13.53    -2.20923 (  0.53%)    -1.44362 ( 99.47%)    -1.44770
       5     17.13    -2.06954 (  1.36%)    -1.37375 ( 98.64%)    -1.38322
       6     19.78    -1.98459 (  2.39%)    -1.33125 ( 97.61%)    -1.34687
       7     25.40    -1.83646 (  6.25%)    -1.25713 ( 93.75%)    -1.29331
       8     28.59    -1.76656 (  9.65%)    -1.22213 ( 90.35%)    -1.27470
       9     34.09    -1.66241 ( 17.77%)    -1.16996 ( 82.23%)    -1.25749
      10     41.20    -1.55054 ( 31.55%)    -1.11388 ( 68.45%)    -1.25166
      11     43.11    -1.52381 ( 35.59%)    -1.10047 ( 64.41%)    -1.25113
      12     49.66    -1.44030 ( 49.32%)    -1.05854 ( 50.68%)    -1.24683
      13     58.68    -1.34198 ( 65.49%)    -1.00910 ( 34.51%)    -1.22709
      14     66.90    -1.26488 ( 76.22%)    -0.97026 ( 23.78%)    -1.19483
      15     75.18    -1.19645 ( 83.64%)    -0.93571 ( 16.36%)    -1.15379
      16     77.59    -1.17793 ( 85.29%)    -0.92635 ( 14.71%)    -1.14094
      17     84.65    -1.12704 ( 89.15%)    -0.90057 ( 10.85%)    -1.10246
      18     99.04    -1.03550 ( 93.90%)    -0.85406 (  6.10%)    -1.02444
      19    100.90    -1.02470 ( 94.31%)    -0.84855 (  5.69%)    -1.01468
      20    112.93    -0.95940 ( 96.30%)    -0.81517 (  3.70%)    -0.95407
      21    118.75    -0.93042 ( 96.95%)    -0.80030 (  3.05%)    -0.92645
      22    124.74    -0.90210 ( 97.48%)    -0.78573 (  2.52%)    -0.89917
      23    131.66    -0.87110 ( 97.96%)    -0.76973 (  2.04%)    -0.86904
      24    171.75    -0.72042 ( 99.29%)    -0.69098 (  0.71%)    -0.72021
      25    179.48    -0.69582 ( 99.40%)    -0.67793 (  0.60%)    -0.69571
      26    197.66    -0.64245 ( 99.59%)    -0.64936 (  0.41%)    -0.64248
      27    252.04    -0.51171 ( 99.85%)    -0.57736 (  0.15%)    -0.51181
      28    254.72    -0.50616 ( 99.85%)    -0.57422 (  0.15%)    -0.50626
      29    262.44    -0.49061 ( 99.87%)    -0.56538 (  0.13%)    -0.49070
      30    275.12    -0.46625 ( 99.89%)    -0.55140 (  0.11%)    -0.46635
   ------------------------------------------------------------------------

   temp. (K)  partition function   enthalpy   heat capacity  entropy
                                   cal/mol     cal/K/mol   cal/K/mol   J/K/mol
 298.15  VIB  0.775E+21            20104.170    102.195    137.153
         ROT  0.235E+08              888.752      2.981     36.708
         INT  0.182E+29            20992.922    105.175    173.861
         TR   0.618E+28             1481.254      4.968     43.384
         TOT                       22474.1759   110.1436   217.2453   908.9543

       T/K    H(0)-H(T)+PV         H(T)/Eh          T*S/Eh         G(T)/Eh
   ------------------------------------------------------------------------
    298.15    0.358149E-01    0.474026E+00    0.103220E+00    0.370806E+00
   ------------------------------------------------------------------------

         :::::::::::::::::::::::::::::::::::::::::::::::::::::
         ::                  THERMODYNAMIC                  ::
         :::::::::::::::::::::::::::::::::::::::::::::::::::::
         :: total free energy         -80.560655452025 Eh   ::
         ::.................................................::
         :: total energy              -80.931461003911 Eh   ::
         :: zero point energy           0.438210921953 Eh   ::
         :: G(RRHO) w/o ZPVE           -0.067405370066 Eh   ::
         :: G(RRHO) contrib.            0.370805551886 Eh   ::
         :::::::::::::::::::::::::::::::::::::::::::::::::::::
imag cut-off (cm-1) :    5.00
 found            1  significant imaginary frequency
 writing imag mode distorted coords to xtbhess.xyz
 for further optimization.

           -------------------------------------------------
          | TOTAL ENERGY              -80.931461003911 Eh   |
          | TOTAL ENTHALPY            -80.457435202889 Eh   |
          | TOTAL FREE ENERGY         -80.560655452025 Eh   |
          | GRADIENT NORM               0.000122506891 Eh/α |
          | HOMO-LUMO GAP               5.698083142365 eV   |
           -------------------------------------------------

------------------------------------------------------------------------
 * finished run on 2024/01/10 at 15:37:14.236     
------------------------------------------------------------------------
 total:
 * wall-time:     0 d,  0 h,  0 min, 14.021 sec
 *  cpu-time:     0 d,  0 h,  0 min, 13.756 sec
 * ratio c/w:     0.981 speedup
 SCF:
 * wall-time:     0 d,  0 h,  0 min,  0.092 sec
 *  cpu-time:     0 d,  0 h,  0 min,  0.055 sec
 * ratio c/w:     0.597 speedup
 analytical hessian:
 * wall-time:     0 d,  0 h,  0 min, 13.902 sec
 *  cpu-time:     0 d,  0 h,  0 min, 13.674 sec
 * ratio c/w:     0.984 speedup

