      -----------------------------------------------------------      
     |                   =====================                   |     
     |                           x T B                           |     
     |                   =====================                   |     
     |                         S. Grimme                         |     
     |          Mulliken Center for Theoretical Chemistry        |     
     |                    University of Bonn                     |     
      -----------------------------------------------------------      

   * xtb version 6.6.1 (unknown-commit) compiled by '@Linux' on 12/27/2023

   xtb is free software: you can redistribute it and/or modify it under
   the terms of the GNU Lesser General Public License as published by
   the Free Software Foundation, either version 3 of the License, or
   (at your option) any later version.
   
   xtb is distributed in the hope that it will be useful,
   but WITHOUT ANY WARRANTY; without even the implied warranty of
   MERCHANTABILITY or FITNESS FOR A PARTICULAR PURPOSE.  See the
   GNU Lesser General Public License for more details.
   
   Cite this work as:
   * C. Bannwarth, E. Caldeweyher, S. Ehlert, A. Hansen, P. Pracht,
     J. Seibert, S. Spicher, S. Grimme, WIREs Comput. Mol. Sci., 2020, 11,
     e01493. DOI: 10.1002/wcms.1493
   
   for GFN2-xTB:
   * C. Bannwarth, S. Ehlert and S. Grimme., J. Chem. Theory Comput., 2019,
     15, 1652-1671. DOI: 10.1021/acs.jctc.8b01176
   for GFN1-xTB:
   * S. Grimme, C. Bannwarth, P. Shushkov, J. Chem. Theory Comput., 2017,
     13, 1989-2009. DOI: 10.1021/acs.jctc.7b00118
   for GFN0-xTB:
   * P. Pracht, E. Caldeweyher, S. Ehlert, S. Grimme, ChemRxiv, 2019, preprint.
     DOI: 10.26434/chemrxiv.8326202.v1
   for GFN-FF:
   * S. Spicher and S. Grimme, Angew. Chem. Int. Ed., 2020, 59, 15665-15673.
     DOI: 10.1002/anie.202004239
   
   for ALPB and GBSA implicit solvation:
   * S. Ehlert, M. Stahn, S. Spicher, S. Grimme, J. Chem. Theory Comput.,
     2021, 17, 4250-4261. DOI: 10.1021/acs.jctc.1c00471
   
   for DFT-D4:
   * E. Caldeweyher, C. Bannwarth and S. Grimme, J. Chem. Phys., 2017,
     147, 034112. DOI: 10.1063/1.4993215
   * E. Caldeweyher, S. Ehlert, A. Hansen, H. Neugebauer, S. Spicher,
     C. Bannwarth and S. Grimme, J. Chem. Phys., 2019, 150, 154122.
     DOI: 10.1063/1.5090222
   * E. Caldeweyher, J.-M. Mewes, S. Ehlert and S. Grimme, Phys. Chem. Chem. Phys.
     2020, 22, 8499-8512. DOI: 10.1039/D0CP00502A
   
   for sTDA-xTB:
   * S. Grimme and C. Bannwarth, J. Chem. Phys., 2016, 145, 054103.
     DOI: 10.1063/1.4959605
   
   in the mass-spec context:
   * V. Asgeirsson, C. Bauer and S. Grimme, Chem. Sci., 2017, 8, 4879.
     DOI: 10.1039/c7sc00601b
   * J. Koopman and S. Grimme, ACS Omega 2019, 4, 12, 15120-15133.
     DOI: 10.1021/acsomega.9b02011
   
   for metadynamics refer to:
   * S. Grimme, J. Chem. Theory Comput., 2019, 155, 2847-2862
     DOI: 10.1021/acs.jctc.9b00143
   
   for SPH calculations refer to:
   * S. Spicher and S. Grimme, J. Chem. Theory Comput., 2021, 17, 1701-1714
     DOI: 10.1021/acs.jctc.0c01306
   
   with help from (in alphabetical order)
   P. Atkinson, C. Bannwarth, F. Bohle, G. Brandenburg, E. Caldeweyher
   M. Checinski, S. Dohm, S. Ehlert, S. Ehrlich, I. Gerasimov, C. Hölzer
   A. Katbashev, J. Koopman, C. Lavigne, S. Lehtola, F. März, M. Müller,
   F. Musil, H. Neugebauer, J. Pisarek, C. Plett, P. Pracht, F. Pultar,
   J. Seibert, P. Shushkov, S. Spicher, M. Stahn, M. Steiner, T. Strunk,
   J. Stückrath, T. Rose, and J. Unsleber
   
 * started run on 2024/01/10 at 15:40:22.765     

           -------------------------------------------------
          |                Calculation Setup                |
           -------------------------------------------------

          program call               : xtb struc.xyz --gfn2 --hess
          hostname                   : swaroop
          coordinate file            : struc.xyz
          omp threads                :                     1

   ID    Z sym.   atoms
    1    8 O      1, 23, 31, 39, 47
    2    6 C      2, 5, 9, 13, 17, 22, 30, 38, 46
    3    1 H      3, 4, 6, 7, 10-12, 14-16, 18-21, 25, 26, 28, 29, 33, 34,
                  36, 37, 41, 42, 44, 45, 49, 50, 52, 53
    4    7 N      8, 24, 27, 32, 35, 40, 43, 48, 51

molecular fragmentation (1/2 indicates fragments):
11111111111111111111122222222222222222222222222222222
# atoms in fragment 1/2:    21    32
 fragment masses (1/2) :      104.17      240.22
CMA distance (Bohr)    :   3.059
constraining FC (au)   :  0.0500

           -------------------------------------------------
          |                 G F N 2 - x T B                 |
           -------------------------------------------------

        Reference                      10.1021/acs.jctc.8b01176
      * Hamiltonian:
        H0-scaling (s, p, d)           1.850000    2.230000    2.230000
        zeta-weighting                 0.500000
      * Dispersion:
        s8                             2.700000
        a1                             0.520000
        a2                             5.000000
        s9                             5.000000
      * Repulsion:
        kExp                           1.500000    1.000000
        rExp                           1.000000
      * Coulomb:
        alpha                          2.000000
        third order                    shell-resolved
        anisotropic                    true
        a3                             3.000000
        a5                             4.000000
        cn-shift                       1.200000
        cn-exp                         4.000000
        max-rad                        5.000000


          ...................................................
          :                      SETUP                      :
          :.................................................:
          :  # basis functions                 122          :
          :  # atomic orbitals                 122          :
          :  # shells                           76          :
          :  # electrons                       140          :
          :  max. iterations                   250          :
          :  Hamiltonian                  GFN2-xTB          :
          :  restarted?                      false          :
          :  GBSA solvation                  false          :
          :  PC potential                    false          :
          :  electronic temp.          300.0000000     K    :
          :  accuracy                    1.0000000          :
          :  -> integral cutoff          0.2500000E+02      :
          :  -> integral neglect         0.1000000E-07      :
          :  -> SCF convergence          0.1000000E-05 Eh   :
          :  -> wf. convergence          0.1000000E-03 e    :
          :  Broyden damping             0.4000000          :
          ...................................................

 iter      E             dE          RMSdq      gap      omega  full diag
   1    -81.5475983 -0.815476E+02  0.433E+00    5.16       0.0  T
   2    -81.8407905 -0.293192E+00  0.234E+00    5.81       1.0  T
   3    -81.8464089 -0.561847E-02  0.116E+00    5.44       1.0  T
   4    -81.8477319 -0.132300E-02  0.227E-01    5.42       1.0  T
   5    -81.8485299 -0.797979E-03  0.905E-02    5.33       1.0  T
   6    -81.8485532 -0.232802E-04  0.270E-02    5.35       1.0  T
   7    -81.8485587 -0.552315E-05  0.715E-03    5.34       1.9  T
   8    -81.8485589 -0.202397E-06  0.253E-03    5.34       5.4  T
   9    -81.8485589 -0.166932E-07  0.798E-04    5.34      17.2  T
  10    -81.8485589 -0.410519E-08  0.159E-04    5.34      86.4  T

   *** convergence criteria satisfied after 10 iterations ***

         #    Occupation            Energy/Eh            Energy/eV
      -------------------------------------------------------------
         1        2.0000           -0.7987244             -21.7344
       ...           ...                  ...                  ...
        64        2.0000           -0.4921954             -13.3933
        65        2.0000           -0.4887806             -13.3004
        66        2.0000           -0.4849170             -13.1953
        67        2.0000           -0.4834770             -13.1561
        68        2.0000           -0.4815413             -13.1034
        69        2.0000           -0.4761938             -12.9579
        70        2.0000           -0.4731165             -12.8742 (HOMO)
        71                         -0.2768602              -7.5338 (LUMO)
        72                         -0.2669995              -7.2654
        73                         -0.2538673              -6.9081
        74                         -0.2457017              -6.6859
        75                         -0.1398518              -3.8056
       ...                                ...                  ...
       122                          0.5790028              15.7555
      -------------------------------------------------------------
                  HL-Gap            0.1962563 Eh            5.3404 eV
             Fermi-level           -0.3749884 Eh          -10.2040 eV

 SCC (total)                   0 d,  0 h,  0 min,  0.097 sec
 SCC setup                      ...        0 min,  0.000 sec (  0.295%)
 Dispersion                     ...        0 min,  0.001 sec (  0.623%)
 classical contributions        ...        0 min,  0.000 sec (  0.187%)
 integral evaluation            ...        0 min,  0.008 sec (  8.031%)
 iterations                     ...        0 min,  0.060 sec ( 61.906%)
 molecular gradient             ...        0 min,  0.028 sec ( 28.663%)
 printout                       ...        0 min,  0.000 sec (  0.282%)

         :::::::::::::::::::::::::::::::::::::::::::::::::::::
         ::                     SUMMARY                     ::
         :::::::::::::::::::::::::::::::::::::::::::::::::::::
         :: total energy             -80.932405404439 Eh    ::
         :: gradient norm              0.000109137545 Eh/a0 ::
         :: HOMO-LUMO gap              5.340404783507 eV    ::
         ::.................................................::
         :: SCC energy               -81.848558944323 Eh    ::
         :: -> isotropic ES            0.290546879205 Eh    ::
         :: -> anisotropic ES         -0.026903995033 Eh    ::
         :: -> anisotropic XC          0.021038546113 Eh    ::
         :: -> dispersion             -0.043420226049 Eh    ::
         :: repulsion energy           0.915160719471 Eh    ::
         :: add. restraining           0.000000000000 Eh    ::
         :: total charge               1.000000000000 e     ::
         :::::::::::::::::::::::::::::::::::::::::::::::::::::

           ------------------------------------------------- 
          |                Numerical Hessian                |
           ------------------------------------------------- 
step length          :   0.00500
SCC accuracy         :   0.30000
Hessian scale factor :   1.00000
frozen atoms in %    :   0.00000    0
RMS gradient         :   0.00011
estimated CPU  time      0.24 min
estimated wall time      0.24 min

writing file <hessian>.

 projected vibrational frequencies (cm⁻¹)
eigval :       -0.00    -0.00    -0.00     0.00     0.00     0.00
eigval :       12.11    17.31    24.74    29.35    31.30    35.03
eigval :       41.34    49.01    50.05    57.50    63.01    67.09
eigval :       68.37    71.70    80.11    84.02    91.06    98.30
eigval :      106.20   116.75   123.10   144.87   152.14   164.90
eigval :      181.24   196.70   225.36   259.40   271.22   277.16
eigval :      294.40   319.35   325.78   331.23   340.52   355.45
eigval :      367.33   380.11   396.89   437.53   441.17   446.87
eigval :      457.25   458.62   461.53   467.36   468.05   476.49
eigval :      479.52   481.16   484.23   525.54   542.45   546.33
eigval :      546.99   556.93   564.72   661.70   668.71   669.76
eigval :      674.69   675.96   699.34   722.97   746.69   762.90
eigval :      910.20   926.96   948.85   965.41   969.93   972.37
eigval :      998.73  1003.77  1005.01  1011.29  1014.44  1015.09
eigval :     1027.35  1035.81  1038.66  1080.40  1088.19  1093.80
eigval :     1095.00  1095.85  1111.27  1126.05  1168.87  1225.38
eigval :     1250.99  1274.82  1314.24  1321.69  1350.90  1353.99
eigval :     1362.13  1367.71  1368.02  1380.56  1405.48  1409.51
eigval :     1419.67  1435.93  1445.33  1446.56  1451.90  1454.99
eigval :     1459.69  1463.35  1465.04  1467.68  1475.45  1479.73
eigval :     1482.80  1498.20  1503.25  1504.48  1509.54  1695.98
eigval :     1702.90  1713.07  1719.74  2902.72  2986.38  2988.85
eigval :     3007.71  3039.44  3041.79  3043.44  3045.59  3047.49
eigval :     3051.69  3056.85  3062.77  3086.28  3127.62  3234.21
eigval :     3302.44  3321.10  3490.89  3492.13  3495.81  3497.90
eigval :     3503.67  3528.95  3529.26  3537.56  3555.31  3558.68
eigval :     3559.28  3563.76  3569.16
           -------------------------------------------------
          |                Property Printout                |
           -------------------------------------------------

    * Orbital Energies and Occupations

         #    Occupation            Energy/Eh            Energy/eV
      -------------------------------------------------------------
         1        2.0000           -0.7987227             -21.7344
       ...           ...                  ...                  ...
        58        2.0000           -0.5153369             -14.0230
        59        2.0000           -0.5107245             -13.8975
        60        2.0000           -0.5057846             -13.7631
        61        2.0000           -0.5015480             -13.6478
        62        2.0000           -0.4960245             -13.4975
        63        2.0000           -0.4941450             -13.4464
        64        2.0000           -0.4921967             -13.3934
        65        2.0000           -0.4887807             -13.3004
        66        2.0000           -0.4849181             -13.1953
        67        2.0000           -0.4834788             -13.1561
        68        2.0000           -0.4815427             -13.1034
        69        2.0000           -0.4761957             -12.9579
        70        2.0000           -0.4731184             -12.8742 (HOMO)
        71                         -0.2768582              -7.5337 (LUMO)
        72                         -0.2670012              -7.2655
        73                         -0.2538680              -6.9081
        74                         -0.2457046              -6.6860
        75                         -0.1398511              -3.8055
        76                         -0.1098406              -2.9889
        77                         -0.0912287              -2.4825
        78                         -0.0797503              -2.1701
        79                         -0.0743259              -2.0225
        80                         -0.0660512              -1.7973
        81                         -0.0613978              -1.6707
       ...                                ...                  ...
       122                          0.5790012              15.7554
      -------------------------------------------------------------
                  HL-Gap            0.1962602 Eh            5.3405 eV
             Fermi-level           -0.3749883 Eh          -10.2040 eV

     #   Z          covCN         q      C6AA      α(0)
     1   8 O        1.652    -0.491    22.693     6.431
     2   6 C        3.673     0.064    19.730     6.366
     3   1 H        0.924     0.089     1.892     2.151
     4   1 H        0.923     0.048     2.346     2.395
     5   6 C        3.769    -0.070    21.866     6.664
     6   1 H        0.924     0.096     1.817     2.108
     7   1 H        0.924     0.124     1.582     1.967
     8   7 N        3.624     0.158    18.573     6.401
     9   6 C        3.721    -0.107    22.666     6.800
    10   1 H        0.925     0.106     1.734     2.060
    11   1 H        0.925     0.076     2.019     2.222
    12   1 H        0.925     0.118     1.631     1.997
    13   6 C        3.736    -0.109    22.681     6.797
    14   1 H        0.925     0.086     1.918     2.166
    15   1 H        0.925     0.132     1.523     1.930
    16   1 H        0.925     0.082     1.957     2.187
    17   6 C        3.727    -0.118    22.872     6.828
    18   1 H        0.925     0.078     2.005     2.214
    19   1 H        0.925     0.123     1.592     1.973
    20   1 H        0.925     0.127     1.562     1.954
    21   1 H        0.802     0.330     0.637     1.254
    22   6 C        2.675     0.343    21.166     7.528
    23   8 O        0.860    -0.532    24.493     6.635
    24   7 N        2.644    -0.312    28.024     7.862
    25   1 H        0.860     0.241     0.920     1.502
    26   1 H        0.861     0.169     1.277     1.770
    27   7 N        2.645    -0.297    27.647     7.809
    28   1 H        0.861     0.178     1.227     1.735
    29   1 H        0.860     0.195     1.134     1.668
    30   6 C        2.675     0.345    21.147     7.525
    31   8 O        0.861    -0.522    24.268     6.605
    32   7 N        2.646    -0.289    27.465     7.783
    33   1 H        0.860     0.212     1.049     1.604
    34   1 H        0.861     0.189     1.165     1.691
    35   7 N        2.646    -0.280    27.241     7.752
    36   1 H        0.861     0.190     1.157     1.685
    37   1 H        0.860     0.206     1.075     1.624
    38   6 C        2.675     0.343    21.181     7.531
    39   8 O        0.860    -0.510    24.014     6.570
    40   7 N        2.645    -0.302    27.781     7.828
    41   1 H        0.860     0.235     0.946     1.523
    42   1 H        0.861     0.176     1.237     1.742
    43   7 N        2.645    -0.300    27.741     7.822
    44   1 H        0.860     0.180     1.215     1.727
    45   1 H        0.860     0.191     1.151     1.681
    46   6 C        2.675     0.343    21.178     7.530
    47   8 O        0.860    -0.523    24.300     6.609
    48   7 N        2.644    -0.307    27.917     7.847
    49   1 H        0.860     0.238     0.932     1.512
    50   1 H        0.860     0.177     1.230     1.737
    51   7 N        2.644    -0.296    27.621     7.805
    52   1 H        0.860     0.183     1.198     1.714
    53   1 H        0.860     0.197     1.122     1.659

 Mol. C6AA /au·bohr⁶  :      21778.876406
 Mol. C8AA /au·bohr⁸  :     454017.435938
 Mol. α(0) /au        :        220.483185


Wiberg/Mayer (AO) data.
largest (>0.10) Wiberg bond orders for each atom

 ---------------------------------------------------------------------------
     #   Z sym  total        # sym  WBO       # sym  WBO       # sym  WBO
 ---------------------------------------------------------------------------
     1   8 O    1.957 --     2 C    0.997    21 H    0.808
     2   6 C    3.952 --     5 C    1.006     1 O    0.997     4 H    0.962
                             3 H    0.956
     3   1 H    0.992 --     2 C    0.956
     4   1 H    0.997 --     2 C    0.962
     5   6 C    3.927 --     2 C    1.006     6 H    0.958     7 H    0.947
                             8 N    0.930
     6   1 H    0.991 --     5 C    0.958
     7   1 H    0.985 --     5 C    0.947
     8   7 N    3.822 --     9 C    0.960    13 C    0.960    17 C    0.954
                             5 C    0.930
     9   6 C    3.928 --    11 H    0.979    10 H    0.970    12 H    0.965
                             8 N    0.960
    10   1 H    0.989 --     9 C    0.970
    11   1 H    0.994 --     9 C    0.979
    12   1 H    0.986 --     9 C    0.965
    13   6 C    3.928 --    14 H    0.978    16 H    0.978    15 H    0.960
                             8 N    0.960
    14   1 H    0.993 --    13 C    0.978
    15   1 H    0.983 --    13 C    0.960
    16   1 H    0.993 --    13 C    0.978
    17   6 C    3.914 --    18 H    0.979    19 H    0.961    20 H    0.959
                             8 N    0.954
    18   1 H    0.994 --    17 C    0.979
    19   1 H    0.985 --    17 C    0.961
    20   1 H    0.984 --    17 C    0.959
    21   1 H    0.891 --     1 O    0.808
    22   6 C    3.959 --    23 O    1.524    24 N    1.238    27 N    1.190
    23   8 O    1.889 --    22 C    1.524    24 N    0.148    27 N    0.136
    24   7 N    3.327 --    22 C    1.238    26 H    0.952    25 H    0.876
                            23 O    0.148
    25   1 H    0.942 --    24 N    0.876
    26   1 H    0.971 --    24 N    0.952
    27   7 N    3.305 --    22 C    1.190    28 H    0.949    29 H    0.945
                            23 O    0.136
    28   1 H    0.968 --    27 N    0.949
    29   1 H    0.962 --    27 N    0.945
    30   6 C    3.960 --    31 O    1.506    35 N    1.226    32 N    1.222
    31   8 O    1.915 --    30 C    1.506    32 N    0.140    35 N    0.138
    32   7 N    3.334 --    30 C    1.222    34 H    0.946    33 H    0.935
                            31 O    0.140
    33   1 H    0.955 --    32 N    0.935
    34   1 H    0.964 --    32 N    0.946
    35   7 N    3.340 --    30 C    1.226    36 H    0.945    37 H    0.941
                            31 O    0.138
    36   1 H    0.963 --    35 N    0.945
    37   1 H    0.957 --    35 N    0.941
    38   6 C    3.960 --    39 O    1.532    40 N    1.241    43 N    1.180
    39   8 O    1.929 --    38 C    1.532    40 N    0.149    43 N    0.135
    40   7 N    3.337 --    38 C    1.241    42 H    0.950    41 H    0.886
                            39 O    0.149
    41   1 H    0.945 --    40 N    0.886
    42   1 H    0.969 --    40 N    0.950
    43   7 N    3.293 --    38 C    1.180    44 H    0.949    45 H    0.946
                            39 O    0.135
    44   1 H    0.968 --    43 N    0.949
    45   1 H    0.963 --    43 N    0.946
    46   6 C    3.959 --    47 O    1.512    48 N    1.237    51 N    1.197
    47   8 O    1.903 --    46 C    1.512    48 N    0.143    51 N    0.135
    48   7 N    3.328 --    46 C    1.237    50 H    0.949    49 H    0.886
                            47 O    0.143
    49   1 H    0.943 --    48 N    0.886
    50   1 H    0.968 --    48 N    0.949
    51   7 N    3.310 --    46 C    1.197    52 H    0.947    53 H    0.944
                            47 O    0.135
    52   1 H    0.966 --    51 N    0.947
    53   1 H    0.961 --    51 N    0.944
 ---------------------------------------------------------------------------

Topologies differ in total number of bonds
Writing topology from bond orders to xtbtopo.mol

molecular dipole:
                 x           y           z       tot (Debye)
 q only:       -0.564       1.198      -0.051
   full:       -1.063       1.056      -0.196       3.841
molecular quadrupole (traceless):
                xx          xy          yy          xz          yz          zz
 q only:      -17.267     -14.381      28.521     -16.014     -20.721     -11.254
  q+dip:      -23.163     -16.531      33.974     -20.676     -23.637     -10.811
   full:      -22.992     -16.804      34.090     -20.362     -23.385     -11.098

           -------------------------------------------------
          |               Frequency Printout                |
           -------------------------------------------------
 projected vibrational frequencies (cm⁻¹)
eigval :       -0.00    -0.00    -0.00     0.00     0.00     0.00
eigval :       12.11    17.31    24.74    29.35    31.30    35.03
eigval :       41.34    49.01    50.05    57.50    63.01    67.09
eigval :       68.37    71.70    80.11    84.02    91.06    98.30
eigval :      106.20   116.75   123.10   144.87   152.14   164.90
eigval :      181.24   196.70   225.36   259.40   271.22   277.16
eigval :      294.40   319.35   325.78   331.23   340.52   355.45
eigval :      367.33   380.11   396.89   437.53   441.17   446.87
eigval :      457.25   458.62   461.53   467.36   468.05   476.49
eigval :      479.52   481.16   484.23   525.54   542.45   546.33
eigval :      546.99   556.93   564.72   661.70   668.71   669.76
eigval :      674.69   675.96   699.34   722.97   746.69   762.90
eigval :      910.20   926.96   948.85   965.41   969.93   972.37
eigval :      998.73  1003.77  1005.01  1011.29  1014.44  1015.09
eigval :     1027.35  1035.81  1038.66  1080.40  1088.19  1093.80
eigval :     1095.00  1095.85  1111.27  1126.05  1168.87  1225.38
eigval :     1250.99  1274.82  1314.24  1321.69  1350.90  1353.99
eigval :     1362.13  1367.71  1368.02  1380.56  1405.48  1409.51
eigval :     1419.67  1435.93  1445.33  1446.56  1451.90  1454.99
eigval :     1459.69  1463.35  1465.04  1467.68  1475.45  1479.73
eigval :     1482.80  1498.20  1503.25  1504.48  1509.54  1695.98
eigval :     1702.90  1713.07  1719.74  2902.72  2986.38  2988.85
eigval :     3007.71  3039.44  3041.79  3043.44  3045.59  3047.49
eigval :     3051.69  3056.85  3062.77  3086.28  3127.62  3234.21
eigval :     3302.44  3321.10  3490.89  3492.13  3495.81  3497.90
eigval :     3503.67  3528.95  3529.26  3537.56  3555.31  3558.68
eigval :     3559.28  3563.76  3569.16
 reduced masses (amu)
   1: 12.53   2: 12.71   3: 12.62   4: 12.50   5: 12.44   6: 12.66   7: 12.00   8: 12.02
   9: 11.68  10: 12.01  11: 12.17  12: 12.21  13: 12.38  14: 11.94  15: 12.14  16: 12.54
  17: 11.86  18: 11.98  19: 12.67  20: 13.70  21: 13.15  22: 13.77  23: 12.95  24: 12.02
  25: 12.04  26: 11.57  27: 12.27  28:  7.00  29:  7.95  30: 13.46  31: 12.75  32: 11.45
  33:  9.87  34:  5.48  35:  2.57  36:  7.83  37:  2.32  38:  3.14  39:  3.74  40:  4.74
  41:  4.90  42:  3.43  43:  3.41  44:  7.82  45:  3.19  46:  4.26  47:  7.97  48:  1.88
  49:  6.46  50:  3.47  51:  8.26  52:  3.95  53:  4.59  54:  8.85  55:  5.49  56:  7.91
  57:  8.09  58:  1.60  59: 11.28  60: 11.25  61: 11.20  62: 11.33  63:  8.75  64:  7.29
  65:  9.05  66: 11.14  67:  5.66  68: 11.04  69:  5.65  70:  2.66  71:  2.57  72:  9.22
  73:  7.87  74:  7.61  75:  5.26  76:  4.80  77:  4.94  78:  4.90  79:  7.63  80:  8.51
  81:  9.38  82:  9.24  83:  8.37  84:  9.33  85:  5.90  86:  5.96  87:  4.30  88:  9.92
  89:  8.66  90:  7.93  91:  8.19  92:  6.96  93:  4.28  94:  8.20  95:  2.85  96:  5.28
  97:  7.44  98:  8.20  99:  2.96 100:  5.87 101:  4.85 102:  5.66 103:  5.48 104:  4.57
 105:  6.12 106:  3.80 107:  2.48 108:  2.52 109:  2.11 110:  2.35 111:  1.74 112:  1.84
 113:  3.23 114:  2.91 115:  2.82 116:  2.19 117:  2.14 118:  2.53 119:  1.64 120:  1.65
 121:  1.82 122:  7.45 123:  8.02 124:  8.37 125:  9.11 126: 12.74 127: 12.69 128: 12.78
 129: 12.75 130:  1.76 131:  1.64 132:  1.84 133:  1.74 134:  1.76 135:  1.72 136:  1.44
 137:  1.95 138:  1.62 139:  1.78 140:  1.88 141:  1.72 142:  1.71 143:  1.91 144:  1.77
 145:  1.74 146:  1.73 147:  1.46 148:  1.45 149:  1.46 150:  1.45 151:  1.46 152:  1.93
 153:  1.91 154:  1.94 155:  2.17 156:  2.18 157:  2.16 158:  2.18 159:  2.18
 IR intensities (km·mol⁻¹)
   1:  0.43   2:  2.86   3:  0.38   4:  1.85   5:  1.59   6:  1.82   7:  0.11   8:  2.33
   9:  0.77  10:  1.32  11:  0.79  12:  4.81  13:  2.91  14:  3.00  15:  4.94  16:  1.24
  17:  0.31  18:  0.44  19:  0.76  20:  0.99  21: 11.51  22:  8.02  23:  6.54  24:  9.55
  25:  7.38  26:  6.69  27: 15.18  28: 19.84  29:  5.72  30: 46.89  31: 43.21  32: 10.58
  33:  4.38  34:  2.37  35:147.84  36:  0.11  37:  5.82  38: 11.68  39:453.10  40:  4.52
  41:  7.49  42: 92.23  43:104.22  44:  1.95  45:528.86  46:266.71  47: 30.65  48: 71.13
  49:  3.42  50:  0.38  51: 11.20  52: 35.39  53:  4.78  54: 12.58  55: 20.34  56:  2.29
  57: 19.69  58: 44.44  59: 36.88  60:  7.67  61: 50.43  62: 12.63  63: 18.78  64: 49.86
  65: 31.18  66:  9.04  67: 39.02  68: 57.48  69: 97.29  70:217.36  71:342.66  72:  9.80
  73: 13.86  74:  8.72  75:  5.73  76:  0.36  77:  0.48  78:  2.22  79: 20.92  80:  2.54
  81:  6.01  82: 28.18  83: 30.60  84:  6.73  85: 19.20  86: 42.94  87: 10.16  88:  0.77
  89:  3.71  90:  8.53  91:  3.16  92: 13.51  93: 20.54  94: 22.97  95: 14.27  96:  6.18
  97:  4.05  98:  1.35  99: 11.54 100: 17.87 101: 38.15 102:132.79 103: 91.54 104: 82.67
 105: 98.85 106:119.18 107: 22.20 108: 13.25 109:  7.20 110: 11.70 111:  5.68 112: 19.57
 113:  3.97 114: 16.24 115:  1.23 116:  6.60 117:  0.68 118: 23.01 119: 12.84 120: 43.03
 121: 30.59 122:476.18 123:586.76 124:467.22 125:415.47 126:818.00 127:****** 128:613.16
 129:402.83 130: 39.99 131:  2.84 132: 39.31 133:  4.28 134:  7.01 135:  5.72 136: 20.49
 137:  4.77 138: 18.38 139: 16.39 140: 27.39 141:  5.93 142: 13.03 143:****** 144:******
 145:429.21 146:697.48 147: 55.32 148: 15.98 149: 11.14 150: 15.22 151: 17.68 152: 14.78
 153:  9.14 154: 14.93 155: 11.99 156: 21.09 157:  8.66 158:  8.21 159: 20.82
 Raman intensities (amu)
Molecule has no symmetry elements
It seems to be the C1 point group
   1:  0.00   2:  0.00   3:  0.00   4:  0.00   5:  0.00   6:  0.00   7:  0.00   8:  0.00
   9:  0.00  10:  0.00  11:  0.00  12:  0.00  13:  0.00  14:  0.00  15:  0.00  16:  0.00
  17:  0.00  18:  0.00  19:  0.00  20:  0.00  21:  0.00  22:  0.00  23:  0.00  24:  0.00
  25:  0.00  26:  0.00  27:  0.00  28:  0.00  29:  0.00  30:  0.00  31:  0.00  32:  0.00
  33:  0.00  34:  0.00  35:  0.00  36:  0.00  37:  0.00  38:  0.00  39:  0.00  40:  0.00
  41:  0.00  42:  0.00  43:  0.00  44:  0.00  45:  0.00  46:  0.00  47:  0.00  48:  0.00
  49:  0.00  50:  0.00  51:  0.00  52:  0.00  53:  0.00  54:  0.00  55:  0.00  56:  0.00
  57:  0.00  58:  0.00  59:  0.00  60:  0.00  61:  0.00  62:  0.00  63:  0.00  64:  0.00
  65:  0.00  66:  0.00  67:  0.00  68:  0.00  69:  0.00  70:  0.00  71:  0.00  72:  0.00
  73:  0.00  74:  0.00  75:  0.00  76:  0.00  77:  0.00  78:  0.00  79:  0.00  80:  0.00
  81:  0.00  82:  0.00  83:  0.00  84:  0.00  85:  0.00  86:  0.00  87:  0.00  88:  0.00
  89:  0.00  90:  0.00  91:  0.00  92:  0.00  93:  0.00  94:  0.00  95:  0.00  96:  0.00
  97:  0.00  98:  0.00  99:  0.00 100:  0.00 101:  0.00 102:  0.00 103:  0.00 104:  0.00
 105:  0.00 106:  0.00 107:  0.00 108:  0.00 109:  0.00 110:  0.00 111:  0.00 112:  0.00
 113:  0.00 114:  0.00 115:  0.00 116:  0.00 117:  0.00 118:  0.00 119:  0.00 120:  0.00
 121:  0.00 122:  0.00 123:  0.00 124:  0.00 125:  0.00 126:  0.00 127:  0.00 128:  0.00
 129:  0.00 130:  0.00 131:  0.00 132:  0.00 133:  0.00 134:  0.00 135:  0.00 136:  0.00
 137:  0.00 138:  0.00 139:  0.00 140:  0.00 141:  0.00 142:  0.00 143:  0.00 144:  0.00
 145:  0.00 146:  0.00 147:  0.00 148:  0.00 149:  0.00 150:  0.00 151:  0.00 152:  0.00
 153:  0.00 154:  0.00 155:  0.00 156:  0.00 157:  0.00 158:  0.00 159:  0.00
 output can be read by thermo (or use thermo option).
 writing <g98.out> molden fake output.
 recommended (thermochemical) frequency scaling factor: 1.0
           -------------------------------------------------
          |             Thermodynamic Functions             |
           -------------------------------------------------

c1  symmetry found (for desy threshold:  0.10E+00) used in thermo

          ...................................................
          :                      SETUP                      :
          :.................................................:
          :  # frequencies                         153      :
          :  # imaginary freq.                       0      :
          :  linear?                             false      :
          :  only rotor calc.                    false      :
          :  symmetry                               c1      :
          :  rotational number                       1      :
          :  scaling factor                  1.0000000      :
          :  rotor cutoff                   50.0000000 cm⁻¹ :
          :  imag. cutoff                  -20.0000000 cm⁻¹ :
          :.................................................:

    mode    ω/cm⁻¹     T·S(HO)/kcal·mol⁻¹    T·S(FR)/kcal·mol⁻¹   T·S(vib)
   ------------------------------------------------------------------------
       1     12.11    -2.27525 (  0.34%)    -1.47658 ( 99.66%)    -1.47932
       2     17.31    -2.06356 (  1.42%)    -1.37073 ( 98.58%)    -1.38054
       3     24.74    -1.85220 (  5.65%)    -1.26498 ( 94.35%)    -1.29817
       4     29.35    -1.75105 ( 10.61%)    -1.21435 ( 89.39%)    -1.27129
       5     31.30    -1.71296 ( 13.31%)    -1.19527 ( 86.69%)    -1.26418
       6     35.03    -1.64638 ( 19.42%)    -1.16191 ( 80.58%)    -1.25598
       7     41.34    -1.54849 ( 31.86%)    -1.11283 ( 68.14%)    -1.25161
       8     49.01    -1.44812 ( 48.00%)    -1.06246 ( 52.00%)    -1.24756
       9     50.05    -1.43568 ( 50.10%)    -1.05621 ( 49.90%)    -1.24635
      10     57.50    -1.35398 ( 63.62%)    -1.01513 ( 36.38%)    -1.23071
      11     63.01    -1.30015 ( 71.60%)    -0.98803 ( 28.40%)    -1.21152
      12     67.09    -1.26329 ( 76.42%)    -0.96945 ( 23.58%)    -1.19400
      13     68.37    -1.25218 ( 77.75%)    -0.96385 ( 22.25%)    -1.18804
      14     71.70    -1.22421 ( 80.88%)    -0.94973 ( 19.12%)    -1.17172
      15     80.11    -1.15926 ( 86.82%)    -0.91689 ( 13.18%)    -1.12733
      16     84.02    -1.13140 ( 88.86%)    -0.90278 ( 11.14%)    -1.10592
      17     91.06    -1.08439 ( 91.67%)    -0.87892 (  8.33%)    -1.06727
      18     98.30    -1.03989 ( 93.73%)    -0.85629 (  6.27%)    -1.02837
      19    106.20    -0.99498 ( 95.32%)    -0.83337 (  4.68%)    -0.98742
      20    116.75    -0.94021 ( 96.75%)    -0.80532 (  3.25%)    -0.93582
      21    123.10    -0.90969 ( 97.35%)    -0.78963 (  2.65%)    -0.90651
      22    144.87    -0.81647 ( 98.60%)    -0.74138 (  1.40%)    -0.81542
      23    152.14    -0.78869 ( 98.85%)    -0.72689 (  1.15%)    -0.78798
      24    164.90    -0.74322 ( 99.16%)    -0.70303 (  0.84%)    -0.74289
      25    181.24    -0.69041 ( 99.42%)    -0.67505 (  0.58%)    -0.69032
      26    196.70    -0.64511 ( 99.58%)    -0.65079 (  0.42%)    -0.64513
      27    225.36    -0.57114 ( 99.76%)    -0.61050 (  0.24%)    -0.57123
      28    259.40    -0.49667 ( 99.86%)    -0.56883 (  0.14%)    -0.49676
      29    271.22    -0.47358 ( 99.88%)    -0.55562 (  0.12%)    -0.47368
      30    277.16    -0.46248 ( 99.89%)    -0.54921 (  0.11%)    -0.46257
      31    294.40    -0.43188 ( 99.92%)    -0.53133 (  0.08%)    -0.43196
   ------------------------------------------------------------------------

   temp. (K)  partition function   enthalpy   heat capacity  entropy
                                   cal/mol     cal/K/mol   cal/K/mol   J/K/mol
 298.15  VIB  0.275E+18            19775.103    104.784    130.901
         ROT  0.148E+08              888.752      2.981     35.786
         INT  0.406E+25            20663.855    107.765    166.687
         TR   0.618E+28             1481.254      4.968     43.384
         TOT                       22145.1094   112.7334   210.0713   878.9384

       T/K    H(0)-H(T)+PV         H(T)/Eh          T*S/Eh         G(T)/Eh
   ------------------------------------------------------------------------
    298.15    0.352905E-01    0.473928E+00    0.998117E-01    0.374116E+00
   ------------------------------------------------------------------------

         :::::::::::::::::::::::::::::::::::::::::::::::::::::
         ::                  THERMODYNAMIC                  ::
         :::::::::::::::::::::::::::::::::::::::::::::::::::::
         :: total free energy         -80.558288989472 Eh   ::
         ::.................................................::
         :: total energy              -80.932405404781 Eh   ::
         :: zero point energy           0.438637602507 Eh   ::
         :: G(RRHO) w/o ZPVE           -0.064521187198 Eh   ::
         :: G(RRHO) contrib.            0.374116415309 Eh   ::
         :::::::::::::::::::::::::::::::::::::::::::::::::::::

           -------------------------------------------------
          | TOTAL ENERGY              -80.932405404781 Eh   |
          | TOTAL ENTHALPY            -80.458477324168 Eh   |
          | TOTAL FREE ENERGY         -80.558288989472 Eh   |
          | GRADIENT NORM               0.000108993857 Eh/α |
          | HOMO-LUMO GAP               5.340512167012 eV   |
           -------------------------------------------------

------------------------------------------------------------------------
 * finished run on 2024/01/10 at 15:40:37.239     
------------------------------------------------------------------------
 total:
 * wall-time:     0 d,  0 h,  0 min, 14.473 sec
 *  cpu-time:     0 d,  0 h,  0 min, 14.409 sec
 * ratio c/w:     0.996 speedup
 SCF:
 * wall-time:     0 d,  0 h,  0 min,  0.097 sec
 *  cpu-time:     0 d,  0 h,  0 min,  0.057 sec
 * ratio c/w:     0.594 speedup
 analytical hessian:
 * wall-time:     0 d,  0 h,  0 min, 14.350 sec
 *  cpu-time:     0 d,  0 h,  0 min, 14.324 sec
 * ratio c/w:     0.998 speedup

