      -----------------------------------------------------------      
     |                   =====================                   |     
     |                           x T B                           |     
     |                   =====================                   |     
     |                         S. Grimme                         |     
     |          Mulliken Center for Theoretical Chemistry        |     
     |                    University of Bonn                     |     
      -----------------------------------------------------------      

   * xtb version 6.6.1 (unknown-commit) compiled by '@Linux' on 12/27/2023

   xtb is free software: you can redistribute it and/or modify it under
   the terms of the GNU Lesser General Public License as published by
   the Free Software Foundation, either version 3 of the License, or
   (at your option) any later version.
   
   xtb is distributed in the hope that it will be useful,
   but WITHOUT ANY WARRANTY; without even the implied warranty of
   MERCHANTABILITY or FITNESS FOR A PARTICULAR PURPOSE.  See the
   GNU Lesser General Public License for more details.
   
   Cite this work as:
   * C. Bannwarth, E. Caldeweyher, S. Ehlert, A. Hansen, P. Pracht,
     J. Seibert, S. Spicher, S. Grimme, WIREs Comput. Mol. Sci., 2020, 11,
     e01493. DOI: 10.1002/wcms.1493
   
   for GFN2-xTB:
   * C. Bannwarth, S. Ehlert and S. Grimme., J. Chem. Theory Comput., 2019,
     15, 1652-1671. DOI: 10.1021/acs.jctc.8b01176
   for GFN1-xTB:
   * S. Grimme, C. Bannwarth, P. Shushkov, J. Chem. Theory Comput., 2017,
     13, 1989-2009. DOI: 10.1021/acs.jctc.7b00118
   for GFN0-xTB:
   * P. Pracht, E. Caldeweyher, S. Ehlert, S. Grimme, ChemRxiv, 2019, preprint.
     DOI: 10.26434/chemrxiv.8326202.v1
   for GFN-FF:
   * S. Spicher and S. Grimme, Angew. Chem. Int. Ed., 2020, 59, 15665-15673.
     DOI: 10.1002/anie.202004239
   
   for ALPB and GBSA implicit solvation:
   * S. Ehlert, M. Stahn, S. Spicher, S. Grimme, J. Chem. Theory Comput.,
     2021, 17, 4250-4261. DOI: 10.1021/acs.jctc.1c00471
   
   for DFT-D4:
   * E. Caldeweyher, C. Bannwarth and S. Grimme, J. Chem. Phys., 2017,
     147, 034112. DOI: 10.1063/1.4993215
   * E. Caldeweyher, S. Ehlert, A. Hansen, H. Neugebauer, S. Spicher,
     C. Bannwarth and S. Grimme, J. Chem. Phys., 2019, 150, 154122.
     DOI: 10.1063/1.5090222
   * E. Caldeweyher, J.-M. Mewes, S. Ehlert and S. Grimme, Phys. Chem. Chem. Phys.
     2020, 22, 8499-8512. DOI: 10.1039/D0CP00502A
   
   for sTDA-xTB:
   * S. Grimme and C. Bannwarth, J. Chem. Phys., 2016, 145, 054103.
     DOI: 10.1063/1.4959605
   
   in the mass-spec context:
   * V. Asgeirsson, C. Bauer and S. Grimme, Chem. Sci., 2017, 8, 4879.
     DOI: 10.1039/c7sc00601b
   * J. Koopman and S. Grimme, ACS Omega 2019, 4, 12, 15120-15133.
     DOI: 10.1021/acsomega.9b02011
   
   for metadynamics refer to:
   * S. Grimme, J. Chem. Theory Comput., 2019, 155, 2847-2862
     DOI: 10.1021/acs.jctc.9b00143
   
   for SPH calculations refer to:
   * S. Spicher and S. Grimme, J. Chem. Theory Comput., 2021, 17, 1701-1714
     DOI: 10.1021/acs.jctc.0c01306
   
   with help from (in alphabetical order)
   P. Atkinson, C. Bannwarth, F. Bohle, G. Brandenburg, E. Caldeweyher
   M. Checinski, S. Dohm, S. Ehlert, S. Ehrlich, I. Gerasimov, C. Hölzer
   A. Katbashev, J. Koopman, C. Lavigne, S. Lehtola, F. März, M. Müller,
   F. Musil, H. Neugebauer, J. Pisarek, C. Plett, P. Pracht, F. Pultar,
   J. Seibert, P. Shushkov, S. Spicher, M. Stahn, M. Steiner, T. Strunk,
   J. Stückrath, T. Rose, and J. Unsleber
   
 * started run on 2024/01/10 at 15:37:24.545     

           -------------------------------------------------
          |                Calculation Setup                |
           -------------------------------------------------

          program call               : xtb struc.xyz --gfn2 --hess
          hostname                   : swaroop
          coordinate file            : struc.xyz
          omp threads                :                     1

   ID    Z sym.   atoms
    1    8 O      1, 23, 31, 39, 47
    2    6 C      2, 5, 9, 13, 17, 22, 30, 38, 46
    3    1 H      3, 4, 6, 7, 10-12, 14-16, 18-21, 25, 26, 28, 29, 33, 34,
                  36, 37, 41, 42, 44, 45, 49, 50, 52, 53
    4    7 N      8, 24, 27, 32, 35, 40, 43, 48, 51

molecular fragmentation (1/2 indicates fragments):
11111111111111111111122222222222222222222222222222222
# atoms in fragment 1/2:    21    32
 fragment masses (1/2) :      104.17      240.22
CMA distance (Bohr)    :   6.152
constraining FC (au)   :  0.0500

           -------------------------------------------------
          |                 G F N 2 - x T B                 |
           -------------------------------------------------

        Reference                      10.1021/acs.jctc.8b01176
      * Hamiltonian:
        H0-scaling (s, p, d)           1.850000    2.230000    2.230000
        zeta-weighting                 0.500000
      * Dispersion:
        s8                             2.700000
        a1                             0.520000
        a2                             5.000000
        s9                             5.000000
      * Repulsion:
        kExp                           1.500000    1.000000
        rExp                           1.000000
      * Coulomb:
        alpha                          2.000000
        third order                    shell-resolved
        anisotropic                    true
        a3                             3.000000
        a5                             4.000000
        cn-shift                       1.200000
        cn-exp                         4.000000
        max-rad                        5.000000


          ...................................................
          :                      SETUP                      :
          :.................................................:
          :  # basis functions                 122          :
          :  # atomic orbitals                 122          :
          :  # shells                           76          :
          :  # electrons                       140          :
          :  max. iterations                   250          :
          :  Hamiltonian                  GFN2-xTB          :
          :  restarted?                      false          :
          :  GBSA solvation                  false          :
          :  PC potential                    false          :
          :  electronic temp.          300.0000000     K    :
          :  accuracy                    1.0000000          :
          :  -> integral cutoff          0.2500000E+02      :
          :  -> integral neglect         0.1000000E-07      :
          :  -> SCF convergence          0.1000000E-05 Eh   :
          :  -> wf. convergence          0.1000000E-03 e    :
          :  Broyden damping             0.4000000          :
          ...................................................

 iter      E             dE          RMSdq      gap      omega  full diag
   1    -81.5515838 -0.815516E+02  0.431E+00    5.16       0.0  T
   2    -81.8374345 -0.285851E+00  0.232E+00    5.79       1.0  T
   3    -81.8431621 -0.572759E-02  0.113E+00    5.39       1.0  T
   4    -81.8445436 -0.138150E-02  0.242E-01    5.37       1.0  T
   5    -81.8454299 -0.886281E-03  0.908E-02    5.28       1.0  T
   6    -81.8454540 -0.241284E-04  0.265E-02    5.30       1.0  T
   7    -81.8454585 -0.450540E-05  0.755E-03    5.30       1.8  T
   8    -81.8454588 -0.287808E-06  0.278E-03    5.29       4.9  T
   9    -81.8454589 -0.148760E-07  0.924E-04    5.29      14.9  T
  10    -81.8454589 -0.429628E-08  0.170E-04    5.29      80.7  T

   *** convergence criteria satisfied after 10 iterations ***

         #    Occupation            Energy/Eh            Energy/eV
      -------------------------------------------------------------
         1        2.0000           -0.8058129             -21.9273
       ...           ...                  ...                  ...
        64        2.0000           -0.4936417             -13.4327
        65        2.0000           -0.4894146             -13.3176
        66        2.0000           -0.4886995             -13.2982
        67        2.0000           -0.4884364             -13.2910
        68        2.0000           -0.4852756             -13.2050
        69        2.0000           -0.4832572             -13.1501
        70        2.0000           -0.4793894             -13.0448 (HOMO)
        71                         -0.2848477              -7.7511 (LUMO)
        72                         -0.2647013              -7.2029
        73                         -0.2591513              -7.0519
        74                         -0.2528614              -6.8807
        75                         -0.1568356              -4.2677
       ...                                ...                  ...
       122                          0.5643444              15.3566
      -------------------------------------------------------------
                  HL-Gap            0.1945417 Eh            5.2937 eV
             Fermi-level           -0.3821185 Eh          -10.3980 eV

 SCC (total)                   0 d,  0 h,  0 min,  0.088 sec
 SCC setup                      ...        0 min,  0.000 sec (  0.328%)
 Dispersion                     ...        0 min,  0.001 sec (  0.641%)
 classical contributions        ...        0 min,  0.000 sec (  0.201%)
 integral evaluation            ...        0 min,  0.008 sec (  8.814%)
 iterations                     ...        0 min,  0.051 sec ( 57.945%)
 molecular gradient             ...        0 min,  0.028 sec ( 31.771%)
 printout                       ...        0 min,  0.000 sec (  0.288%)

         :::::::::::::::::::::::::::::::::::::::::::::::::::::
         ::                     SUMMARY                     ::
         :::::::::::::::::::::::::::::::::::::::::::::::::::::
         :: total energy             -80.934004843494 Eh    ::
         :: gradient norm              0.000033280683 Eh/a0 ::
         :: HOMO-LUMO gap              5.293748084745 eV    ::
         ::.................................................::
         :: SCC energy               -81.845458855167 Eh    ::
         :: -> isotropic ES            0.294615999350 Eh    ::
         :: -> anisotropic ES         -0.028634350371 Eh    ::
         :: -> anisotropic XC          0.020361956863 Eh    ::
         :: -> dispersion             -0.043986037009 Eh    ::
         :: repulsion energy           0.910000751077 Eh    ::
         :: add. restraining           0.000000000000 Eh    ::
         :: total charge               1.000000000000 e     ::
         :::::::::::::::::::::::::::::::::::::::::::::::::::::

           ------------------------------------------------- 
          |                Numerical Hessian                |
           ------------------------------------------------- 
step length          :   0.00500
SCC accuracy         :   0.30000
Hessian scale factor :   1.00000
frozen atoms in %    :   0.00000    0
RMS gradient         :   0.00003
estimated CPU  time      0.24 min
estimated wall time      0.25 min

writing file <hessian>.

 projected vibrational frequencies (cm⁻¹)
eigval :       -0.00    -0.00    -0.00    -0.00    -0.00     0.00
eigval :        9.76    15.17    21.28    28.69    32.62    39.98
eigval :       42.48    43.27    45.13    47.86    58.56    62.95
eigval :       65.24    89.16    93.95    97.33   108.98   113.92
eigval :      118.96   128.07   144.33   165.18   178.36   189.88
eigval :      194.32   201.75   227.19   259.38   281.72   285.13
eigval :      295.33   309.76   328.92   336.93   360.44   374.20
eigval :      383.13   403.15   430.28   436.48   459.66   462.26
eigval :      463.73   466.59   468.71   471.73   475.95   482.24
eigval :      484.75   498.76   539.88   541.39   555.02   558.33
eigval :      565.85   569.30   623.81   670.45   671.90   675.81
eigval :      678.50   701.13   735.73   764.76   780.46   817.04
eigval :      891.05   927.87   958.86   962.35   963.18   984.14
eigval :      999.35  1002.92  1008.42  1010.81  1018.57  1025.34
eigval :     1027.62  1034.34  1039.10  1082.68  1085.97  1086.84
eigval :     1097.07  1101.30  1104.32  1134.64  1169.55  1223.88
eigval :     1247.81  1277.74  1309.06  1333.55  1352.29  1355.58
eigval :     1356.41  1360.28  1384.08  1385.32  1403.39  1407.81
eigval :     1432.52  1435.38  1441.63  1447.40  1450.93  1451.54
eigval :     1455.88  1459.98  1461.56  1468.15  1470.37  1479.96
eigval :     1487.65  1501.52  1507.18  1512.61  1514.78  1660.01
eigval :     1681.10  1697.49  1717.67  2878.54  2969.61  2989.15
eigval :     2995.48  3015.91  3028.59  3038.43  3041.11  3043.71
eigval :     3049.85  3054.31  3064.45  3090.11  3097.70  3160.50
eigval :     3227.43  3308.39  3407.52  3464.85  3494.39  3495.85
eigval :     3497.72  3503.50  3527.44  3537.86  3546.49  3558.65
eigval :     3560.27  3563.51  3571.16
           -------------------------------------------------
          |                Property Printout                |
           -------------------------------------------------

    * Orbital Energies and Occupations

         #    Occupation            Energy/Eh            Energy/eV
      -------------------------------------------------------------
         1        2.0000           -0.8058116             -21.9272
       ...           ...                  ...                  ...
        58        2.0000           -0.5230737             -14.2336
        59        2.0000           -0.5164547             -14.0534
        60        2.0000           -0.5142888             -13.9945
        61        2.0000           -0.5068536             -13.7922
        62        2.0000           -0.5005863             -13.6216
        63        2.0000           -0.4964868             -13.5101
        64        2.0000           -0.4936428             -13.4327
        65        2.0000           -0.4894163             -13.3177
        66        2.0000           -0.4887004             -13.2982
        67        2.0000           -0.4884375             -13.2911
        68        2.0000           -0.4852769             -13.2051
        69        2.0000           -0.4832589             -13.1501
        70        2.0000           -0.4793912             -13.0449 (HOMO)
        71                         -0.2848460              -7.7511 (LUMO)
        72                         -0.2647024              -7.2029
        73                         -0.2591525              -7.0519
        74                         -0.2528654              -6.8808
        75                         -0.1568359              -4.2677
        76                         -0.1132712              -3.0823
        77                         -0.0940735              -2.5599
        78                         -0.0861613              -2.3446
        79                         -0.0781555              -2.1267
        80                         -0.0743844              -2.0241
        81                         -0.0711112              -1.9350
       ...                                ...                  ...
       122                          0.5643419              15.3565
      -------------------------------------------------------------
                  HL-Gap            0.1945451 Eh            5.2938 eV
             Fermi-level           -0.3821186 Eh          -10.3980 eV

     #   Z          covCN         q      C6AA      α(0)
     1   8 O        1.653    -0.478    22.419     6.392
     2   6 C        3.673     0.075    19.558     6.338
     3   1 H        0.924     0.056     2.248     2.344
     4   1 H        0.923     0.044     2.403     2.424
     5   6 C        3.763    -0.059    21.688     6.638
     6   1 H        0.924     0.110     1.693     2.035
     7   1 H        0.924     0.078     2.000     2.212
     8   7 N        3.623     0.157    18.597     6.405
     9   6 C        3.735    -0.124    22.972     6.840
    10   1 H        0.925     0.075     2.027     2.227
    11   1 H        0.925     0.130     1.532     1.936
    12   1 H        0.925     0.119     1.623     1.992
    13   6 C        3.727    -0.100    22.514     6.774
    14   1 H        0.925     0.094     1.842     2.122
    15   1 H        0.925     0.114     1.661     2.016
    16   1 H        0.925     0.082     1.954     2.186
    17   6 C        3.728    -0.122    22.950     6.839
    18   1 H        0.925     0.104     1.751     2.069
    19   1 H        0.925     0.095     1.830     2.116
    20   1 H        0.924     0.128     1.550     1.947
    21   1 H        0.802     0.334     0.627     1.244
    22   6 C        2.675     0.340    21.225     7.539
    23   8 O        0.860    -0.525    24.352     6.616
    24   7 N        2.645    -0.299    27.703     7.817
    25   1 H        0.860     0.197     1.123     1.660
    26   1 H        0.860     0.184     1.194     1.711
    27   7 N        2.644    -0.327    28.416     7.917
    28   1 H        0.860     0.211     1.051     1.606
    29   1 H        0.859     0.236     0.938     1.517
    30   6 C        2.675     0.343    21.168     7.529
    31   8 O        0.860    -0.522    24.284     6.607
    32   7 N        2.645    -0.286    27.378     7.771
    33   1 H        0.860     0.223     0.995     1.562
    34   1 H        0.861     0.191     1.152     1.681
    35   7 N        2.645    -0.284    27.325     7.764
    36   1 H        0.860     0.192     1.150     1.680
    37   1 H        0.860     0.205     1.081     1.628
    38   6 C        2.675     0.343    21.168     7.529
    39   8 O        0.860    -0.531    24.492     6.635
    40   7 N        2.644    -0.307    27.903     7.845
    41   1 H        0.860     0.234     0.948     1.525
    42   1 H        0.860     0.176     1.238     1.743
    43   7 N        2.645    -0.294    27.589     7.801
    44   1 H        0.861     0.180     1.214     1.726
    45   1 H        0.860     0.196     1.124     1.661
    46   6 C        2.675     0.341    21.214     7.537
    47   8 O        0.861    -0.536    24.595     6.649
    48   7 N        2.644    -0.307    27.906     7.846
    49   1 H        0.859     0.245     0.901     1.487
    50   1 H        0.861     0.177     1.231     1.738
    51   7 N        2.645    -0.290    27.473     7.785
    52   1 H        0.861     0.183     1.198     1.714
    53   1 H        0.861     0.199     1.111     1.651

 Mol. C6AA /au·bohr⁶  :      21797.607305
 Mol. C8AA /au·bohr⁸  :     454397.054195
 Mol. α(0) /au        :        220.574156


Wiberg/Mayer (AO) data.
largest (>0.10) Wiberg bond orders for each atom

 ---------------------------------------------------------------------------
     #   Z sym  total        # sym  WBO       # sym  WBO       # sym  WBO
 ---------------------------------------------------------------------------
     1   8 O    1.947 --     2 C    1.022    21 H    0.809
     2   6 C    3.966 --     1 O    1.022     5 C    0.992     3 H    0.967
                             4 H    0.961
     3   1 H    0.997 --     2 C    0.967
     4   1 H    0.998 --     2 C    0.961
     5   6 C    3.941 --     2 C    0.992     7 H    0.968     6 H    0.959
                             8 N    0.941
     6   1 H    0.988 --     5 C    0.959
     7   1 H    0.994 --     5 C    0.968
     8   7 N    3.821 --    13 C    0.963    17 C    0.950     9 C    0.949
                             5 C    0.941
     9   6 C    3.909 --    10 H    0.980    12 H    0.956    11 H    0.951
                             8 N    0.949
    10   1 H    0.994 --     9 C    0.980
    11   1 H    0.983 --     9 C    0.951
    12   1 H    0.986 --     9 C    0.956
    13   6 C    3.934 --    16 H    0.978    14 H    0.974    15 H    0.971
                             8 N    0.963
    14   1 H    0.991 --    13 C    0.974
    15   1 H    0.987 --    13 C    0.971
    16   1 H    0.993 --    13 C    0.978
    17   6 C    3.909 --    18 H    0.969    19 H    0.967    20 H    0.952
                             8 N    0.950
    18   1 H    0.989 --    17 C    0.969
    19   1 H    0.991 --    17 C    0.967
    20   1 H    0.984 --    17 C    0.952
    21   1 H    0.888 --     1 O    0.809
    22   6 C    3.960 --    23 O    1.484    27 N    1.267    24 N    1.193
    23   8 O    1.928 --    22 C    1.484    27 N    0.146    24 N    0.126
    24   7 N    3.305 --    22 C    1.193    26 H    0.947    25 H    0.944
                            23 O    0.126
    25   1 H    0.961 --    24 N    0.944
    26   1 H    0.966 --    24 N    0.947
    27   7 N    3.346 --    22 C    1.267    28 H    0.907    29 H    0.869
                            23 O    0.146
    28   1 H    0.955 --    27 N    0.907
    29   1 H    0.944 --    27 N    0.869
    30   6 C    3.960 --    31 O    1.491    32 N    1.241    35 N    1.222
    31   8 O    1.926 --    30 C    1.491    32 N    0.140    35 N    0.134
    32   7 N    3.347 --    30 C    1.241    34 H    0.944    33 H    0.925
                            31 O    0.140
    33   1 H    0.950 --    32 N    0.925
    34   1 H    0.963 --    32 N    0.944
    35   7 N    3.332 --    30 C    1.222    36 H    0.945    37 H    0.941
                            31 O    0.134
    36   1 H    0.963 --    35 N    0.945
    37   1 H    0.958 --    35 N    0.941
    38   6 C    3.959 --    39 O    1.521    40 N    1.234    43 N    1.196
    39   8 O    1.888 --    38 C    1.521    40 N    0.146    43 N    0.136
    40   7 N    3.327 --    38 C    1.234    42 H    0.950    41 H    0.889
                            39 O    0.146
    41   1 H    0.945 --    40 N    0.889
    42   1 H    0.969 --    40 N    0.950
    43   7 N    3.311 --    38 C    1.196    44 H    0.948    45 H    0.944
                            39 O    0.136
    44   1 H    0.967 --    43 N    0.948
    45   1 H    0.961 --    43 N    0.944
    46   6 C    3.960 --    47 O    1.480    48 N    1.261    51 N    1.208
    47   8 O    1.895 --    46 C    1.480    48 N    0.145    51 N    0.129
    48   7 N    3.346 --    46 C    1.261    50 H    0.949    49 H    0.866
                            47 O    0.145
    49   1 H    0.940 --    48 N    0.866
    50   1 H    0.969 --    48 N    0.949
    51   7 N    3.323 --    46 C    1.208    52 H    0.948    53 H    0.944
                            47 O    0.129
    52   1 H    0.966 --    51 N    0.948
    53   1 H    0.960 --    51 N    0.944
 ---------------------------------------------------------------------------

Topologies differ in total number of bonds
Writing topology from bond orders to xtbtopo.mol

molecular dipole:
                 x           y           z       tot (Debye)
 q only:        0.009       0.372      -0.974
   full:        0.227       0.915      -0.578       2.811
molecular quadrupole (traceless):
                xx          xy          yy          xz          yz          zz
 q only:      -16.718      -0.925      16.645      -0.000     -23.055       0.073
  q+dip:      -17.532       1.151      17.565      -1.897     -28.206      -0.033
   full:      -17.390       0.425      17.739      -1.641     -28.006      -0.349

           -------------------------------------------------
          |               Frequency Printout                |
           -------------------------------------------------
 projected vibrational frequencies (cm⁻¹)
eigval :       -0.00    -0.00    -0.00    -0.00    -0.00     0.00
eigval :        9.76    15.17    21.28    28.69    32.62    39.98
eigval :       42.48    43.27    45.13    47.86    58.56    62.95
eigval :       65.24    89.16    93.95    97.33   108.98   113.92
eigval :      118.96   128.07   144.33   165.18   178.36   189.88
eigval :      194.32   201.75   227.19   259.38   281.72   285.13
eigval :      295.33   309.76   328.92   336.93   360.44   374.20
eigval :      383.13   403.15   430.28   436.48   459.66   462.26
eigval :      463.73   466.59   468.71   471.73   475.95   482.24
eigval :      484.75   498.76   539.88   541.39   555.02   558.33
eigval :      565.85   569.30   623.81   670.45   671.90   675.81
eigval :      678.50   701.13   735.73   764.76   780.46   817.04
eigval :      891.05   927.87   958.86   962.35   963.18   984.14
eigval :      999.35  1002.92  1008.42  1010.81  1018.57  1025.34
eigval :     1027.62  1034.34  1039.10  1082.68  1085.97  1086.84
eigval :     1097.07  1101.30  1104.32  1134.64  1169.55  1223.88
eigval :     1247.81  1277.74  1309.06  1333.55  1352.29  1355.58
eigval :     1356.41  1360.28  1384.08  1385.32  1403.39  1407.81
eigval :     1432.52  1435.38  1441.63  1447.40  1450.93  1451.54
eigval :     1455.88  1459.98  1461.56  1468.15  1470.37  1479.96
eigval :     1487.65  1501.52  1507.18  1512.61  1514.78  1660.01
eigval :     1681.10  1697.49  1717.67  2878.54  2969.61  2989.15
eigval :     2995.48  3015.91  3028.59  3038.43  3041.11  3043.71
eigval :     3049.85  3054.31  3064.45  3090.11  3097.70  3160.50
eigval :     3227.43  3308.39  3407.52  3464.85  3494.39  3495.85
eigval :     3497.72  3503.50  3527.44  3537.86  3546.49  3558.65
eigval :     3560.27  3563.51  3571.16
 reduced masses (amu)
   1: 12.53   2: 12.51   3: 12.57   4: 12.67   5: 12.68   6: 12.33   7: 12.30   8: 12.08
   9: 12.27  10: 12.40  11: 11.67  12: 12.57  13: 12.17  14: 12.32  15: 12.23  16: 12.08
  17: 12.16  18: 11.80  19: 12.20  20: 12.81  21: 12.93  22: 11.97  23: 12.99  24: 13.54
  25: 12.65  26: 13.65  27: 11.96  28: 12.56  29: 13.33  30:  4.84  31:  6.70  32: 11.47
  33: 12.98  34:  6.55  35:  3.03  36:  2.81  37:  4.94  38:  6.58  39:  3.03  40:  5.61
  41:  3.29  42:  6.87  43:  3.90  44:  3.17  45:  2.94  46:  8.77  47:  5.33  48:  7.78
  49:  5.20  50:  6.34  51:  4.97  52:  5.78  53:  4.32  54:  2.06  55:  8.25  56:  8.83
  57: 11.29  58:  4.19  59: 11.49  60:  9.25  61:  8.78  62: 11.11  63:  5.34  64: 11.45
  65: 10.19  66: 11.17  67:  8.37  68:  4.41  69:  1.93  70:  8.94  71:  2.40  72:  2.07
  73:  7.09  74:  8.30  75:  5.03  76:  4.89  77:  5.02  78:  4.78  79:  7.67  80:  9.04
  81:  7.87  82:  8.49  83:  9.51  84:  9.57  85:  7.49  86:  4.96  87:  3.67  88:  9.47
  89:  8.67  90:  9.04  91:  7.14  92:  6.54  93:  4.76  94:  8.74  95:  3.03  96:  5.50
  97:  6.62  98:  8.09  99:  6.43 100:  3.11 101:  4.51 102:  4.66 103:  4.68 104:  5.97
 105:  4.94 106:  3.76 107:  2.55 108:  2.47 109:  1.74 110:  2.31 111:  1.99 112:  3.05
 113:  1.74 114:  3.24 115:  2.18 116:  2.91 117:  2.45 118:  1.84 119:  2.08 120:  1.68
 121:  1.71 122:  7.93 123:  8.67 124:  9.36 125:  9.40 126: 12.41 127: 12.64 128: 12.71
 129: 12.73 130:  1.76 131:  1.67 132:  1.92 133:  1.58 134:  1.76 135:  1.77 136:  1.64
 137:  1.65 138:  1.86 139:  1.76 140:  1.69 141:  1.76 142:  1.78 143:  1.85 144:  1.81
 145:  1.80 146:  1.76 147:  1.90 148:  1.53 149:  1.45 150:  1.46 151:  1.45 152:  1.45
 153:  1.91 154:  1.90 155:  2.12 156:  2.18 157:  2.18 158:  2.18 159:  2.19
 IR intensities (km·mol⁻¹)
   1:  0.95   2:  2.35   3:  2.09   4:  1.36   5:  1.38   6:  0.66   7:  0.90   8:  1.82
   9:  0.63  10:  0.47  11:  0.93  12:  2.89  13:  0.83  14:  2.91  15:  1.55  16:  1.55
  17:  8.85  18:  3.26  19:  1.60  20:  4.55  21:  0.58  22: 10.19  23:  1.07  24:  4.00
  25:  5.94  26: 22.61  27: 21.42  28: 11.61  29:  2.70  30: 69.33  31: 79.81  32: 71.15
  33:  5.48  34:  8.83  35:  7.48  36:174.51  37:  1.23  38:  0.57  39:  3.08  40:  1.20
  41:170.75  42:  5.38  43:428.38  44:202.84  45:285.12  46:  2.62  47: 10.41  48:  6.21
  49: 29.00  50: 12.00  51:  7.75  52:  1.18  53:  5.01  54:  4.04  55: 20.03  56: 65.44
  57: 27.33  58: 42.42  59: 19.83  60:  9.60  61:  6.62  62: 76.49  63:212.91  64: 26.47
  65: 20.96  66: 70.02  67:  2.38  68: 90.27  69: 72.57  70: 16.00  71:338.22  72:353.49
  73:  2.74  74:  4.21  75:  9.04  76:  0.50  77:  6.05  78: 11.10  79: 22.46  80: 17.69
  81: 26.18  82:  1.09  83:  6.13  84:  0.19  85:  7.82  86: 16.83  87:  3.66  88:  0.65
  89:  0.68  90:  1.70  91:  3.84  92: 11.10  93: 23.17  94: 50.80  95: 26.27  96:  2.38
  97:  8.66  98:  5.55  99:  1.72 100:  1.78 101: 42.98 102: 97.24 103:249.66 104: 85.13
 105:  5.47 106: 93.18 107: 32.35 108: 22.27 109:  0.64 110:  3.60 111:  4.59 112:  6.14
 113:  1.87 114:  1.63 115: 18.89 116:  4.64 117: 21.55 118: 22.20 119: 42.53 120: 14.74
 121: 14.52 122:606.11 123:464.10 124:546.87 125:465.00 126:236.30 127:****** 128:123.17
 129:****** 130: 36.90 131: 41.80 132: 15.86 133: 11.88 134:  5.23 135:113.90 136: 34.33
 137: 12.18 138: 10.11 139:  8.78 140:  6.07 141:  4.94 142:245.72 143:539.08 144:194.74
 145:****** 146:677.28 147:376.72 148: 90.85 149: 18.50 150: 20.08 151: 17.20 152: 19.38
 153: 13.35 154: 14.45 155: 25.91 156: 23.02 157: 14.03 158: 10.05 159: 13.86
 Raman intensities (amu)
Molecule has no symmetry elements
It seems to be the C1 point group
   1:  0.00   2:  0.00   3:  0.00   4:  0.00   5:  0.00   6:  0.00   7:  0.00   8:  0.00
   9:  0.00  10:  0.00  11:  0.00  12:  0.00  13:  0.00  14:  0.00  15:  0.00  16:  0.00
  17:  0.00  18:  0.00  19:  0.00  20:  0.00  21:  0.00  22:  0.00  23:  0.00  24:  0.00
  25:  0.00  26:  0.00  27:  0.00  28:  0.00  29:  0.00  30:  0.00  31:  0.00  32:  0.00
  33:  0.00  34:  0.00  35:  0.00  36:  0.00  37:  0.00  38:  0.00  39:  0.00  40:  0.00
  41:  0.00  42:  0.00  43:  0.00  44:  0.00  45:  0.00  46:  0.00  47:  0.00  48:  0.00
  49:  0.00  50:  0.00  51:  0.00  52:  0.00  53:  0.00  54:  0.00  55:  0.00  56:  0.00
  57:  0.00  58:  0.00  59:  0.00  60:  0.00  61:  0.00  62:  0.00  63:  0.00  64:  0.00
  65:  0.00  66:  0.00  67:  0.00  68:  0.00  69:  0.00  70:  0.00  71:  0.00  72:  0.00
  73:  0.00  74:  0.00  75:  0.00  76:  0.00  77:  0.00  78:  0.00  79:  0.00  80:  0.00
  81:  0.00  82:  0.00  83:  0.00  84:  0.00  85:  0.00  86:  0.00  87:  0.00  88:  0.00
  89:  0.00  90:  0.00  91:  0.00  92:  0.00  93:  0.00  94:  0.00  95:  0.00  96:  0.00
  97:  0.00  98:  0.00  99:  0.00 100:  0.00 101:  0.00 102:  0.00 103:  0.00 104:  0.00
 105:  0.00 106:  0.00 107:  0.00 108:  0.00 109:  0.00 110:  0.00 111:  0.00 112:  0.00
 113:  0.00 114:  0.00 115:  0.00 116:  0.00 117:  0.00 118:  0.00 119:  0.00 120:  0.00
 121:  0.00 122:  0.00 123:  0.00 124:  0.00 125:  0.00 126:  0.00 127:  0.00 128:  0.00
 129:  0.00 130:  0.00 131:  0.00 132:  0.00 133:  0.00 134:  0.00 135:  0.00 136:  0.00
 137:  0.00 138:  0.00 139:  0.00 140:  0.00 141:  0.00 142:  0.00 143:  0.00 144:  0.00
 145:  0.00 146:  0.00 147:  0.00 148:  0.00 149:  0.00 150:  0.00 151:  0.00 152:  0.00
 153:  0.00 154:  0.00 155:  0.00 156:  0.00 157:  0.00 158:  0.00 159:  0.00
 output can be read by thermo (or use thermo option).
 writing <g98.out> molden fake output.
 recommended (thermochemical) frequency scaling factor: 1.0
           -------------------------------------------------
          |             Thermodynamic Functions             |
           -------------------------------------------------

c1  symmetry found (for desy threshold:  0.10E+00) used in thermo

          ...................................................
          :                      SETUP                      :
          :.................................................:
          :  # frequencies                         153      :
          :  # imaginary freq.                       0      :
          :  linear?                             false      :
          :  only rotor calc.                    false      :
          :  symmetry                               c1      :
          :  rotational number                       1      :
          :  scaling factor                  1.0000000      :
          :  rotor cutoff                   50.0000000 cm⁻¹ :
          :  imag. cutoff                  -20.0000000 cm⁻¹ :
          :.................................................:

    mode    ω/cm⁻¹     T·S(HO)/kcal·mol⁻¹    T·S(FR)/kcal·mol⁻¹   T·S(vib)
   ------------------------------------------------------------------------
       1      9.76    -2.40311 (  0.14%)    -1.54049 ( 99.86%)    -1.54174
       2     15.17    -2.14169 (  0.84%)    -1.40979 ( 99.16%)    -1.41594
       3     21.28    -1.94129 (  3.18%)    -1.30956 ( 96.82%)    -1.32962
       4     28.69    -1.76439 (  9.78%)    -1.22102 ( 90.22%)    -1.27418
       5     32.62    -1.68854 ( 15.34%)    -1.18303 ( 84.66%)    -1.26056
       6     39.98    -1.56832 ( 29.01%)    -1.12278 ( 70.99%)    -1.25204
       7     42.48    -1.53244 ( 34.26%)    -1.10478 ( 65.74%)    -1.25130
       8     43.27    -1.52164 ( 35.93%)    -1.09936 ( 64.07%)    -1.25107
       9     45.13    -1.49674 ( 39.90%)    -1.08687 ( 60.10%)    -1.25039
      10     47.86    -1.46208 ( 45.64%)    -1.06947 ( 54.36%)    -1.24866
      11     58.56    -1.34318 ( 65.30%)    -1.00970 ( 34.70%)    -1.22746
      12     62.95    -1.30069 ( 71.53%)    -0.98830 ( 28.47%)    -1.21175
      13     65.24    -1.27967 ( 74.35%)    -0.97771 ( 25.65%)    -1.20222
      14     89.16    -1.09673 ( 91.00%)    -0.88519 (  9.00%)    -1.07769
      15     93.95    -1.06624 ( 92.57%)    -0.86970 (  7.43%)    -1.05164
      16     97.33    -1.04566 ( 93.49%)    -0.85922 (  6.51%)    -1.03352
      17    108.98    -0.98003 ( 95.76%)    -0.82573 (  4.24%)    -0.97348
      18    113.92    -0.95439 ( 96.42%)    -0.81260 (  3.58%)    -0.94932
      19    118.96    -0.92941 ( 96.97%)    -0.79977 (  3.03%)    -0.92548
      20    128.07    -0.88692 ( 97.73%)    -0.77790 (  2.27%)    -0.88445
      21    144.33    -0.81861 ( 98.58%)    -0.74250 (  1.42%)    -0.81753
      22    165.18    -0.74230 ( 99.17%)    -0.70254 (  0.83%)    -0.74197
      23    178.36    -0.69932 ( 99.39%)    -0.67979 (  0.61%)    -0.69920
      24    189.88    -0.66456 ( 99.52%)    -0.66124 (  0.48%)    -0.66455
      25    194.32    -0.65181 ( 99.56%)    -0.65439 (  0.44%)    -0.65182
      26    201.75    -0.63120 ( 99.62%)    -0.64328 (  0.38%)    -0.63124
      27    227.19    -0.56679 ( 99.77%)    -0.60810 (  0.23%)    -0.56689
      28    259.38    -0.49669 ( 99.86%)    -0.56885 (  0.14%)    -0.49679
      29    281.72    -0.45415 ( 99.90%)    -0.54438 (  0.10%)    -0.45424
      30    285.13    -0.44802 ( 99.91%)    -0.54081 (  0.09%)    -0.44811
      31    295.33    -0.43029 ( 99.92%)    -0.53039 (  0.08%)    -0.43037
   ------------------------------------------------------------------------

   temp. (K)  partition function   enthalpy   heat capacity  entropy
                                   cal/mol     cal/K/mol   cal/K/mol   J/K/mol
 298.15  VIB  0.132E+18            19319.809    103.185    127.071
         ROT  0.132E+08              888.752      2.981     35.556
         INT  0.174E+25            20208.561    106.165    162.627
         TR   0.618E+28             1481.254      4.968     43.384
         TOT                       21689.8153   111.1336   206.0116   861.9526

       T/K    H(0)-H(T)+PV         H(T)/Eh          T*S/Eh         G(T)/Eh
   ------------------------------------------------------------------------
    298.15    0.345649E-01    0.473942E+00    0.978828E-01    0.376059E+00
   ------------------------------------------------------------------------

         :::::::::::::::::::::::::::::::::::::::::::::::::::::
         ::                  THERMODYNAMIC                  ::
         :::::::::::::::::::::::::::::::::::::::::::::::::::::
         :: total free energy         -80.557945643075 Eh   ::
         ::.................................................::
         :: total energy              -80.934004843916 Eh   ::
         :: zero point energy           0.439377042455 Eh   ::
         :: G(RRHO) w/o ZPVE           -0.063317841614 Eh   ::
         :: G(RRHO) contrib.            0.376059200840 Eh   ::
         :::::::::::::::::::::::::::::::::::::::::::::::::::::

           -------------------------------------------------
          | TOTAL ENERGY              -80.934004843916 Eh   |
          | TOTAL ENTHALPY            -80.460062880646 Eh   |
          | TOTAL FREE ENERGY         -80.557945643075 Eh   |
          | GRADIENT NORM               0.000033106867 Eh/α |
          | HOMO-LUMO GAP               5.293842749833 eV   |
           -------------------------------------------------

------------------------------------------------------------------------
 * finished run on 2024/01/10 at 15:37:39.346     
------------------------------------------------------------------------
 total:
 * wall-time:     0 d,  0 h,  0 min, 14.801 sec
 *  cpu-time:     0 d,  0 h,  0 min, 14.703 sec
 * ratio c/w:     0.993 speedup
 SCF:
 * wall-time:     0 d,  0 h,  0 min,  0.088 sec
 *  cpu-time:     0 d,  0 h,  0 min,  0.057 sec
 * ratio c/w:     0.647 speedup
 analytical hessian:
 * wall-time:     0 d,  0 h,  0 min, 14.687 sec
 *  cpu-time:     0 d,  0 h,  0 min, 14.620 sec
 * ratio c/w:     0.995 speedup

