      -----------------------------------------------------------      
     |                   =====================                   |     
     |                           x T B                           |     
     |                   =====================                   |     
     |                         S. Grimme                         |     
     |          Mulliken Center for Theoretical Chemistry        |     
     |                    University of Bonn                     |     
      -----------------------------------------------------------      

   * xtb version 6.6.1 (unknown-commit) compiled by '@Linux' on 12/27/2023

   xtb is free software: you can redistribute it and/or modify it under
   the terms of the GNU Lesser General Public License as published by
   the Free Software Foundation, either version 3 of the License, or
   (at your option) any later version.
   
   xtb is distributed in the hope that it will be useful,
   but WITHOUT ANY WARRANTY; without even the implied warranty of
   MERCHANTABILITY or FITNESS FOR A PARTICULAR PURPOSE.  See the
   GNU Lesser General Public License for more details.
   
   Cite this work as:
   * C. Bannwarth, E. Caldeweyher, S. Ehlert, A. Hansen, P. Pracht,
     J. Seibert, S. Spicher, S. Grimme, WIREs Comput. Mol. Sci., 2020, 11,
     e01493. DOI: 10.1002/wcms.1493
   
   for GFN2-xTB:
   * C. Bannwarth, S. Ehlert and S. Grimme., J. Chem. Theory Comput., 2019,
     15, 1652-1671. DOI: 10.1021/acs.jctc.8b01176
   for GFN1-xTB:
   * S. Grimme, C. Bannwarth, P. Shushkov, J. Chem. Theory Comput., 2017,
     13, 1989-2009. DOI: 10.1021/acs.jctc.7b00118
   for GFN0-xTB:
   * P. Pracht, E. Caldeweyher, S. Ehlert, S. Grimme, ChemRxiv, 2019, preprint.
     DOI: 10.26434/chemrxiv.8326202.v1
   for GFN-FF:
   * S. Spicher and S. Grimme, Angew. Chem. Int. Ed., 2020, 59, 15665-15673.
     DOI: 10.1002/anie.202004239
   
   for ALPB and GBSA implicit solvation:
   * S. Ehlert, M. Stahn, S. Spicher, S. Grimme, J. Chem. Theory Comput.,
     2021, 17, 4250-4261. DOI: 10.1021/acs.jctc.1c00471
   
   for DFT-D4:
   * E. Caldeweyher, C. Bannwarth and S. Grimme, J. Chem. Phys., 2017,
     147, 034112. DOI: 10.1063/1.4993215
   * E. Caldeweyher, S. Ehlert, A. Hansen, H. Neugebauer, S. Spicher,
     C. Bannwarth and S. Grimme, J. Chem. Phys., 2019, 150, 154122.
     DOI: 10.1063/1.5090222
   * E. Caldeweyher, J.-M. Mewes, S. Ehlert and S. Grimme, Phys. Chem. Chem. Phys.
     2020, 22, 8499-8512. DOI: 10.1039/D0CP00502A
   
   for sTDA-xTB:
   * S. Grimme and C. Bannwarth, J. Chem. Phys., 2016, 145, 054103.
     DOI: 10.1063/1.4959605
   
   in the mass-spec context:
   * V. Asgeirsson, C. Bauer and S. Grimme, Chem. Sci., 2017, 8, 4879.
     DOI: 10.1039/c7sc00601b
   * J. Koopman and S. Grimme, ACS Omega 2019, 4, 12, 15120-15133.
     DOI: 10.1021/acsomega.9b02011
   
   for metadynamics refer to:
   * S. Grimme, J. Chem. Theory Comput., 2019, 155, 2847-2862
     DOI: 10.1021/acs.jctc.9b00143
   
   for SPH calculations refer to:
   * S. Spicher and S. Grimme, J. Chem. Theory Comput., 2021, 17, 1701-1714
     DOI: 10.1021/acs.jctc.0c01306
   
   with help from (in alphabetical order)
   P. Atkinson, C. Bannwarth, F. Bohle, G. Brandenburg, E. Caldeweyher
   M. Checinski, S. Dohm, S. Ehlert, S. Ehrlich, I. Gerasimov, C. Hölzer
   A. Katbashev, J. Koopman, C. Lavigne, S. Lehtola, F. März, M. Müller,
   F. Musil, H. Neugebauer, J. Pisarek, C. Plett, P. Pracht, F. Pultar,
   J. Seibert, P. Shushkov, S. Spicher, M. Stahn, M. Steiner, T. Strunk,
   J. Stückrath, T. Rose, and J. Unsleber
   
 * started run on 2024/01/10 at 18:28:56.574     

           -------------------------------------------------
          |                Calculation Setup                |
           -------------------------------------------------

          program call               : xtb struc.xyz --gfn2 --hess
          hostname                   : swaroop
          coordinate file            : struc.xyz
          omp threads                :                     1

   ID    Z sym.   atoms
    1    8 O      1, 23, 31, 39, 47
    2    6 C      2, 5, 9, 13, 17, 22, 30, 38, 46
    3    1 H      3, 4, 6, 7, 10-12, 14-16, 18-21, 25, 26, 28, 29, 33, 34,
                  36, 37, 41, 42, 44, 45, 49, 50, 52, 53
    4    7 N      8, 24, 27, 32, 35, 40, 43, 48, 51

molecular fragmentation (1/2 indicates fragments):
11111111111111111111122222222222222222222222222222222
# atoms in fragment 1/2:    21    32
 fragment masses (1/2) :      104.17      240.22
CMA distance (Bohr)    :   6.560
constraining FC (au)   :  0.0500

           -------------------------------------------------
          |                 G F N 2 - x T B                 |
           -------------------------------------------------

        Reference                      10.1021/acs.jctc.8b01176
      * Hamiltonian:
        H0-scaling (s, p, d)           1.850000    2.230000    2.230000
        zeta-weighting                 0.500000
      * Dispersion:
        s8                             2.700000
        a1                             0.520000
        a2                             5.000000
        s9                             5.000000
      * Repulsion:
        kExp                           1.500000    1.000000
        rExp                           1.000000
      * Coulomb:
        alpha                          2.000000
        third order                    shell-resolved
        anisotropic                    true
        a3                             3.000000
        a5                             4.000000
        cn-shift                       1.200000
        cn-exp                         4.000000
        max-rad                        5.000000


          ...................................................
          :                      SETUP                      :
          :.................................................:
          :  # basis functions                 122          :
          :  # atomic orbitals                 122          :
          :  # shells                           76          :
          :  # electrons                       140          :
          :  max. iterations                   250          :
          :  Hamiltonian                  GFN2-xTB          :
          :  restarted?                      false          :
          :  GBSA solvation                  false          :
          :  PC potential                    false          :
          :  electronic temp.          300.0000000     K    :
          :  accuracy                    1.0000000          :
          :  -> integral cutoff          0.2500000E+02      :
          :  -> integral neglect         0.1000000E-07      :
          :  -> SCF convergence          0.1000000E-05 Eh   :
          :  -> wf. convergence          0.1000000E-03 e    :
          :  Broyden damping             0.4000000          :
          ...................................................

 iter      E             dE          RMSdq      gap      omega  full diag
   1    -81.5459057 -0.815459E+02  0.439E+00    5.10       0.0  T
   2    -81.8393380 -0.293432E+00  0.242E+00    5.95       1.0  T
   3    -81.8451265 -0.578852E-02  0.119E+00    5.72       1.0  T
   4    -81.8464739 -0.134742E-02  0.242E-01    5.82       1.0  T
   5    -81.8473750 -0.901054E-03  0.930E-02    5.72       1.0  T
   6    -81.8474001 -0.251785E-04  0.273E-02    5.72       1.0  T
   7    -81.8474052 -0.511059E-05  0.778E-03    5.71       1.8  T
   8    -81.8474055 -0.276546E-06  0.287E-03    5.71       4.8  T
   9    -81.8474055 -0.205357E-07  0.991E-04    5.71      13.9  T
  10    -81.8474055 -0.645710E-08  0.200E-04    5.71      68.7  T

   *** convergence criteria satisfied after 10 iterations ***

         #    Occupation            Energy/Eh            Energy/eV
      -------------------------------------------------------------
         1        2.0000           -0.7823163             -21.2879
       ...           ...                  ...                  ...
        64        2.0000           -0.4892509             -13.3132
        65        2.0000           -0.4866021             -13.2411
        66        2.0000           -0.4845032             -13.1840
        67        2.0000           -0.4818271             -13.1112
        68        2.0000           -0.4775970             -12.9961
        69        2.0000           -0.4762985             -12.9607
        70        2.0000           -0.4726756             -12.8622 (HOMO)
        71                         -0.2627721              -7.1504 (LUMO)
        72                         -0.2614049              -7.1132
        73                         -0.2499447              -6.8013
        74                         -0.2470837              -6.7235
        75                         -0.1388826              -3.7792
       ...                                ...                  ...
       122                          0.5780101              15.7285
      -------------------------------------------------------------
                  HL-Gap            0.2099035 Eh            5.7118 eV
             Fermi-level           -0.3677238 Eh          -10.0063 eV

 SCC (total)                   0 d,  0 h,  0 min,  0.094 sec
 SCC setup                      ...        0 min,  0.000 sec (  0.322%)
 Dispersion                     ...        0 min,  0.001 sec (  0.637%)
 classical contributions        ...        0 min,  0.000 sec (  0.198%)
 integral evaluation            ...        0 min,  0.007 sec (  7.757%)
 iterations                     ...        0 min,  0.059 sec ( 63.300%)
 molecular gradient             ...        0 min,  0.026 sec ( 27.482%)
 printout                       ...        0 min,  0.000 sec (  0.290%)

         :::::::::::::::::::::::::::::::::::::::::::::::::::::
         ::                     SUMMARY                     ::
         :::::::::::::::::::::::::::::::::::::::::::::::::::::
         :: total energy             -80.931544626534 Eh    ::
         :: gradient norm              0.000183935650 Eh/a0 ::
         :: HOMO-LUMO gap              5.711765782458 eV    ::
         ::.................................................::
         :: SCC energy               -81.847405546805 Eh    ::
         :: -> isotropic ES            0.288880690796 Eh    ::
         :: -> anisotropic ES         -0.028335133365 Eh    ::
         :: -> anisotropic XC          0.020923485078 Eh    ::
         :: -> dispersion             -0.038490429416 Eh    ::
         :: repulsion energy           0.915658853953 Eh    ::
         :: add. restraining           0.000000000000 Eh    ::
         :: total charge               1.000000000000 e     ::
         :::::::::::::::::::::::::::::::::::::::::::::::::::::

           ------------------------------------------------- 
          |                Numerical Hessian                |
           ------------------------------------------------- 
step length          :   0.00500
SCC accuracy         :   0.30000
Hessian scale factor :   1.00000
frozen atoms in %    :   0.00000    0
RMS gradient         :   0.00018
estimated CPU  time      0.23 min
estimated wall time      0.23 min

writing file <hessian>.

 projected vibrational frequencies (cm⁻¹)
eigval :       -0.00     0.00     0.00     0.00     0.00     0.00
eigval :       -8.33     6.43    10.54    14.13    18.18    18.76
eigval :       29.38    31.87    36.11    39.05    43.40    52.69
eigval :       61.09    64.22    72.42    81.37    90.02    96.92
eigval :      104.26   115.12   118.39   124.07   132.30   171.76
eigval :      176.67   193.91   248.19   257.11   278.45   295.48
eigval :      312.39   315.60   324.25   327.74   352.90   359.21
eigval :      373.67   381.27   400.86   429.05   443.83   445.53
eigval :      454.32   456.96   462.02   463.63   468.66   473.62
eigval :      483.53   500.83   502.27   510.09   531.03   533.45
eigval :      545.57   570.64   572.17   584.57   635.53   669.98
eigval :      674.10   676.25   678.86   726.39   769.55   858.12
eigval :      895.17   930.97   946.57   950.63   973.61   994.95
eigval :      996.87   997.91  1004.88  1011.64  1015.32  1028.66
eigval :     1031.21  1039.94  1045.83  1081.65  1083.77  1096.80
eigval :     1100.88  1108.02  1114.48  1136.85  1175.76  1230.83
eigval :     1252.16  1284.50  1310.43  1338.68  1344.19  1347.23
eigval :     1352.28  1353.99  1364.31  1398.28  1404.86  1406.32
eigval :     1428.91  1436.31  1442.61  1447.56  1450.95  1456.34
eigval :     1457.01  1457.50  1464.94  1471.81  1474.26  1479.07
eigval :     1494.35  1496.27  1496.52  1499.88  1529.85  1664.55
eigval :     1715.93  1725.07  1729.42  2881.73  2954.61  2969.59
eigval :     2986.46  2991.97  3032.19  3039.24  3041.22  3042.21
eigval :     3046.10  3052.81  3054.76  3058.98  3062.87  3227.45
eigval :     3397.41  3427.84  3495.16  3496.27  3500.02  3500.29
eigval :     3504.36  3525.02  3529.00  3553.46  3559.55  3560.04
eigval :     3564.80  3564.99  3570.27
           -------------------------------------------------
          |                Property Printout                |
           -------------------------------------------------

    * Orbital Energies and Occupations

         #    Occupation            Energy/Eh            Energy/eV
      -------------------------------------------------------------
         1        2.0000           -0.7823179             -21.2880
       ...           ...                  ...                  ...
        58        2.0000           -0.5010371             -13.6339
        59        2.0000           -0.4992204             -13.5845
        60        2.0000           -0.4967007             -13.5159
        61        2.0000           -0.4962721             -13.5043
        62        2.0000           -0.4931199             -13.4185
        63        2.0000           -0.4913184             -13.3695
        64        2.0000           -0.4892510             -13.3132
        65        2.0000           -0.4866014             -13.2411
        66        2.0000           -0.4845047             -13.1840
        67        2.0000           -0.4818271             -13.1112
        68        2.0000           -0.4775975             -12.9961
        69        2.0000           -0.4762991             -12.9608
        70        2.0000           -0.4726769             -12.8622 (HOMO)
        71                         -0.2627742              -7.1505 (LUMO)
        72                         -0.2614076              -7.1133
        73                         -0.2499422              -6.8013
        74                         -0.2470872              -6.7236
        75                         -0.1388819              -3.7792
        76                         -0.0934487              -2.5429
        77                         -0.0917546              -2.4968
        78                         -0.0784889              -2.1358
        79                         -0.0676286              -1.8403
        80                         -0.0617173              -1.6794
        81                         -0.0595060              -1.6192
       ...                                ...                  ...
       122                          0.5780092              15.7284
      -------------------------------------------------------------
                  HL-Gap            0.2099026 Eh            5.7117 eV
             Fermi-level           -0.3677255 Eh          -10.0063 eV

     #   Z          covCN         q      C6AA      α(0)
     1   8 O        1.652    -0.485    22.580     6.415
     2   6 C        3.673     0.078    19.502     6.329
     3   1 H        0.924     0.048     2.341     2.393
     4   1 H        0.923     0.040     2.455     2.450
     5   6 C        3.763    -0.063    21.752     6.648
     6   1 H        0.924     0.123     1.591     1.972
     7   1 H        0.924     0.068     2.107     2.270
     8   7 N        3.623     0.160    18.553     6.397
     9   6 C        3.730    -0.119    22.880     6.828
    10   1 H        0.925     0.106     1.734     2.059
    11   1 H        0.925     0.108     1.716     2.049
    12   1 H        0.925     0.118     1.630     1.997
    13   6 C        3.736    -0.118    22.843     6.821
    14   1 H        0.925     0.117     1.638     2.001
    15   1 H        0.925     0.124     1.580     1.966
    16   1 H        0.925     0.074     2.039     2.233
    17   6 C        3.723    -0.106    22.637     6.795
    18   1 H        0.925     0.076     2.019     2.222
    19   1 H        0.925     0.095     1.830     2.116
    20   1 H        0.925     0.122     1.593     1.974
    21   1 H        0.801     0.339     0.614     1.232
    22   6 C        2.675     0.344    21.154     7.526
    23   8 O        0.860    -0.529    24.437     6.628
    24   7 N        2.644    -0.313    28.068     7.868
    25   1 H        0.860     0.240     0.923     1.505
    26   1 H        0.860     0.169     1.277     1.770
    27   7 N        2.644    -0.299    27.712     7.818
    28   1 H        0.860     0.177     1.230     1.737
    29   1 H        0.860     0.193     1.145     1.676
    30   6 C        2.675     0.347    21.103     7.517
    31   8 O        0.860    -0.511    24.034     6.573
    32   7 N        2.645    -0.289    27.443     7.780
    33   1 H        0.860     0.201     1.101     1.644
    34   1 H        0.861     0.187     1.176     1.699
    35   7 N        2.645    -0.289    27.445     7.781
    36   1 H        0.861     0.187     1.175     1.698
    37   1 H        0.860     0.200     1.104     1.646
    38   6 C        2.675     0.339    21.241     7.542
    39   8 O        0.860    -0.536    24.587     6.648
    40   7 N        2.650    -0.293    27.560     7.797
    41   1 H        0.860     0.208     1.066     1.618
    42   1 H        0.860     0.223     0.995     1.563
    43   7 N        2.650    -0.294    27.589     7.801
    44   1 H        0.860     0.225     0.988     1.557
    45   1 H        0.861     0.190     1.158     1.686
    46   6 C        2.675     0.346    21.125     7.521
    47   8 O        0.860    -0.518    24.179     6.593
    48   7 N        2.646    -0.290    27.485     7.786
    49   1 H        0.860     0.200     1.108     1.649
    50   1 H        0.861     0.185     1.186     1.706
    51   7 N        2.646    -0.289    27.463     7.783
    52   1 H        0.861     0.185     1.185     1.705
    53   1 H        0.860     0.199     1.110     1.650

 Mol. C6AA /au·bohr⁶  :      21806.519894
 Mol. C8AA /au·bohr⁸  :     454280.531987
 Mol. α(0) /au        :        220.636964


Wiberg/Mayer (AO) data.
largest (>0.10) Wiberg bond orders for each atom

 ---------------------------------------------------------------------------
     #   Z sym  total        # sym  WBO       # sym  WBO       # sym  WBO
 ---------------------------------------------------------------------------
     1   8 O    1.941 --     2 C    1.026    21 H    0.791
     2   6 C    3.969 --     1 O    1.026     5 C    0.990     3 H    0.968
                             4 H    0.962
     3   1 H    0.997 --     2 C    0.968
     4   1 H    0.998 --     2 C    0.962
     5   6 C    3.935 --     2 C    0.990     7 H    0.970     6 H    0.948
                             8 N    0.939
     6   1 H    0.985 --     5 C    0.948
     7   1 H    0.995 --     5 C    0.970
     8   7 N    3.823 --    17 C    0.962    13 C    0.955     9 C    0.951
                             5 C    0.939
     9   6 C    3.911 --    10 H    0.969    11 H    0.967    12 H    0.964
                             8 N    0.951
    10   1 H    0.989 --     9 C    0.969
    11   1 H    0.988 --     9 C    0.967
    12   1 H    0.986 --     9 C    0.964
    13   6 C    3.919 --    16 H    0.980    14 H    0.963    15 H    0.962
                             8 N    0.955
    14   1 H    0.986 --    13 C    0.963
    15   1 H    0.985 --    13 C    0.962
    16   1 H    0.994 --    13 C    0.980
    17   6 C    3.931 --    18 H    0.980    19 H    0.975     8 N    0.962
                            20 H    0.960
    18   1 H    0.994 --    17 C    0.980
    19   1 H    0.991 --    17 C    0.975
    20   1 H    0.985 --    17 C    0.960
    21   1 H    0.885 --     1 O    0.791
    22   6 C    3.959 --    23 O    1.530    24 N    1.236    27 N    1.185
    23   8 O    1.892 --    22 C    1.530    24 N    0.148    27 N    0.135
    24   7 N    3.323 --    22 C    1.236    26 H    0.951    25 H    0.874
                            23 O    0.148
    25   1 H    0.942 --    24 N    0.874
    26   1 H    0.971 --    24 N    0.951
    27   7 N    3.298 --    22 C    1.185    28 H    0.949    29 H    0.946
                            23 O    0.135
    28   1 H    0.968 --    27 N    0.949
    29   1 H    0.963 --    27 N    0.946
    30   6 C    3.959 --    31 O    1.537    32 N    1.207    35 N    1.207
    31   8 O    1.923 --    30 C    1.537    35 N    0.143    32 N    0.143
    32   7 N    3.321 --    30 C    1.207    34 H    0.946    33 H    0.943
                            31 O    0.143
    33   1 H    0.960 --    32 N    0.943
    34   1 H    0.965 --    32 N    0.946
    35   7 N    3.321 --    30 C    1.207    36 H    0.946    37 H    0.943
                            31 O    0.143
    36   1 H    0.965 --    35 N    0.946
    37   1 H    0.960 --    35 N    0.943
    38   6 C    3.960 --    39 O    1.452    40 N    1.261    43 N    1.242
    39   8 O    1.928 --    38 C    1.452    40 N    0.135    43 N    0.129
    40   7 N    3.356 --    38 C    1.261    41 H    0.934    42 H    0.911
                            39 O    0.135
    41   1 H    0.957 --    40 N    0.934
    42   1 H    0.950 --    40 N    0.911
    43   7 N    3.338 --    38 C    1.242    45 H    0.946    44 H    0.909
                            39 O    0.129
    44   1 H    0.949 --    43 N    0.909
    45   1 H    0.964 --    43 N    0.946
    46   6 C    3.959 --    47 O    1.542    51 N    1.206    48 N    1.205
    47   8 O    1.900 --    46 C    1.542    51 N    0.144    48 N    0.144
    48   7 N    3.320 --    46 C    1.205    50 H    0.947    49 H    0.943
                            47 O    0.144
    49   1 H    0.960 --    48 N    0.943
    50   1 H    0.966 --    48 N    0.947
    51   7 N    3.320 --    46 C    1.206    52 H    0.947    53 H    0.943
                            47 O    0.144
    52   1 H    0.966 --    51 N    0.947
    53   1 H    0.960 --    51 N    0.943
 ---------------------------------------------------------------------------

Topologies differ in total number of bonds
Writing topology from bond orders to xtbtopo.mol

molecular dipole:
                 x           y           z       tot (Debye)
 q only:       -0.712       0.192       0.585
   full:       -0.206       0.417       0.964       2.721
molecular quadrupole (traceless):
                xx          xy          yy          xz          yz          zz
 q only:       38.629      71.741      26.891      -5.852      -0.961     -65.520
  q+dip:       45.245      79.176      30.782      -8.545      -3.174     -76.026
   full:       44.336      79.389      30.741      -8.594      -2.587     -75.077

           -------------------------------------------------
          |               Frequency Printout                |
           -------------------------------------------------
 projected vibrational frequencies (cm⁻¹)
eigval :       -0.00     0.00     0.00     0.00     0.00     0.00
eigval :       -8.33     6.43    10.54    14.13    18.18    18.76
eigval :       29.38    31.87    36.11    39.05    43.40    52.69
eigval :       61.09    64.22    72.42    81.37    90.02    96.92
eigval :      104.26   115.12   118.39   124.07   132.30   171.76
eigval :      176.67   193.91   248.19   257.11   278.45   295.48
eigval :      312.39   315.60   324.25   327.74   352.90   359.21
eigval :      373.67   381.27   400.86   429.05   443.83   445.53
eigval :      454.32   456.96   462.02   463.63   468.66   473.62
eigval :      483.53   500.83   502.27   510.09   531.03   533.45
eigval :      545.57   570.64   572.17   584.57   635.53   669.98
eigval :      674.10   676.25   678.86   726.39   769.55   858.12
eigval :      895.17   930.97   946.57   950.63   973.61   994.95
eigval :      996.87   997.91  1004.88  1011.64  1015.32  1028.66
eigval :     1031.21  1039.94  1045.83  1081.65  1083.77  1096.80
eigval :     1100.88  1108.02  1114.48  1136.85  1175.76  1230.83
eigval :     1252.16  1284.50  1310.43  1338.68  1344.19  1347.23
eigval :     1352.28  1353.99  1364.31  1398.28  1404.86  1406.32
eigval :     1428.91  1436.31  1442.61  1447.56  1450.95  1456.34
eigval :     1457.01  1457.50  1464.94  1471.81  1474.26  1479.07
eigval :     1494.35  1496.27  1496.52  1499.88  1529.85  1664.55
eigval :     1715.93  1725.07  1729.42  2881.73  2954.61  2969.59
eigval :     2986.46  2991.97  3032.19  3039.24  3041.22  3042.21
eigval :     3046.10  3052.81  3054.76  3058.98  3062.87  3227.45
eigval :     3397.41  3427.84  3495.16  3496.27  3500.02  3500.29
eigval :     3504.36  3525.02  3529.00  3553.46  3559.55  3560.04
eigval :     3564.80  3564.99  3570.27
 reduced masses (amu)
   1: 12.61   2: 12.83   3: 12.67   4: 12.20   5: 12.39   6: 12.72   7: 11.10   8: 12.48
   9: 11.14  10: 11.94  11: 12.12  12: 12.10  13: 11.96  14: 12.91  15: 12.56  16: 12.23
  17: 12.87  18: 12.83  19: 12.75  20: 11.96  21: 13.55  22: 13.29  23: 13.82  24: 11.87
  25: 12.37  26: 11.51  27: 12.30  28: 12.30  29: 11.96  30: 12.44  31:  3.75  32: 10.50
  33:  3.66  34: 12.21  35:  5.60  36:  3.45  37:  2.81  38:  9.50  39:  3.54  40:  4.06
  41:  3.75  42:  5.27  43:  4.65  44:  2.83  45:  3.34  46:  8.59  47:  1.65  48:  1.74
  49:  8.29  50:  8.13  51:  2.99  52:  5.12  53:  5.97  54:  7.70  55:  8.44  56:  3.34
  57:  3.19  58:  8.82  59:  9.68  60:  9.67  61: 11.31  62:  8.85  63: 10.87  64:  2.19
  65:  3.96  66: 11.30  67: 11.98  68: 11.87  69: 10.11  70:  2.54  71:  9.33  72:  2.04
  73:  6.72  74:  8.51  75:  5.24  76:  5.16  77:  4.87  78:  8.81  79:  8.77  80:  5.08
  81:  7.61  82:  9.31  83:  7.96  84:  8.89  85:  8.34  86:  3.05  87:  4.91  88:  9.67
  89:  9.54  90:  7.81  91:  6.66  92:  5.43  93:  7.65  94:  8.75  95:  3.17  96:  5.00
  97:  6.21  98:  7.92  99:  6.64 100:  3.25 101:  4.00 102:  4.78 103:  5.82 104:  6.02
 105:  6.31 106:  2.59 107:  2.55 108:  2.74 109:  2.28 110:  1.95 111:  1.80 112:  3.08
 113:  1.67 114:  3.11 115:  1.81 116:  3.02 117:  2.85 118:  1.74 119:  1.63 120:  1.62
 121:  1.67 122:  8.07 123:  8.13 124:  7.71 125: 10.20 126: 12.57 127: 12.80 128: 12.83
 129: 12.85 130:  1.77 131:  1.70 132:  1.84 133:  1.72 134:  1.85 135:  1.67 136:  1.74
 137:  1.71 138:  1.31 139:  1.97 140:  1.83 141:  1.72 142:  1.83 143:  1.83 144:  1.77
 145:  1.62 146:  1.59 147:  1.45 148:  1.44 149:  1.46 150:  1.44 151:  1.46 152:  1.91
 153:  2.09 154:  2.02 155:  2.19 156:  2.17 157:  2.19 158:  2.18 159:  2.18
 IR intensities (km·mol⁻¹)
   1:  2.32   2:  2.06   3:  2.11   4:  0.49   5:  0.18   6:  1.67   7:  0.09   8:  1.12
   9:  0.17  10:  3.27  11:  1.27  12:  2.67  13:  2.51  14:  2.43  15:  1.82  16:  2.03
  17:  1.42  18:  2.27  19:  0.09  20:  5.29  21:  6.35  22:  5.54  23:  1.77  24:  1.62
  25: 13.71  26: 17.65  27: 10.60  28: 15.93  29: 11.31  30: 12.85  31:  9.24  32:  8.79
  33: 21.05  34: 12.29  35:  6.07  36: 12.59  37:110.08  38:  3.58  39:528.23  40:  8.17
  41:422.22  42:  6.39  43:  2.53  44:  1.58  45:158.44  46:  1.09  47:  4.87  48:  5.55
  49:  2.59  50: 39.72  51:392.81  52: 47.26  53: 47.71  54: 13.69  55: 18.57  56: 96.70
  57: 51.15  58: 86.46  59: 36.58  60: 51.65  61: 24.14  62: 18.38  63: 41.97  64:  7.99
  65: 79.41  66: 14.02  67: 35.93  68: 32.75  69:100.86  70:227.91  71:  4.41  72:277.69
  73:  1.53  74:  6.56  75:  1.58  76:  1.74  77:  0.08  78:  0.13  79:  0.59  80: 10.46
  81: 23.45  82: 24.64  83: 21.90  84: 13.50  85: 10.50  86:  1.28  87: 24.41  88:  2.13
  89:  0.71  90:  5.82  91: 11.44  92: 18.07  93:  1.69  94: 55.34  95: 15.65  96:  2.92
  97:  3.93  98: 18.91  99:  5.88 100:  5.63 101: 33.92 102:  6.24 103:102.12 104: 85.48
 105:167.83 106:  1.92 107: 13.42 108:137.47 109:  4.44 110:  1.16 111:  0.67 112: 35.29
 113:  0.55 114:  6.67 115: 11.81 116: 15.25 117:  6.47 118: 12.87 119: 12.98 120: 23.10
 121: 12.75 122:285.14 123:403.01 124:800.59 125:546.88 126:****** 127:****** 128:432.59
 129:508.45 130: 39.60 131:489.03 132:235.96 133:508.96 134:114.93 135: 20.31 136:  7.97
 137: 11.47 138: 20.72 139:  6.62 140: 41.70 141: 25.42 142:  9.18 143:  9.50 144:******
 145: 28.36 146:419.93 147: 13.07 148: 39.40 149:  4.41 150: 38.26 151:  7.33 152:  9.07
 153:105.49 154: 44.92 155: 13.70 156:  7.02 157: 13.65 158: 17.19 159: 10.91
 Raman intensities (amu)
Molecule has no symmetry elements
It seems to be the C1 point group
   1:  0.00   2:  0.00   3:  0.00   4:  0.00   5:  0.00   6:  0.00   7:  0.00   8:  0.00
   9:  0.00  10:  0.00  11:  0.00  12:  0.00  13:  0.00  14:  0.00  15:  0.00  16:  0.00
  17:  0.00  18:  0.00  19:  0.00  20:  0.00  21:  0.00  22:  0.00  23:  0.00  24:  0.00
  25:  0.00  26:  0.00  27:  0.00  28:  0.00  29:  0.00  30:  0.00  31:  0.00  32:  0.00
  33:  0.00  34:  0.00  35:  0.00  36:  0.00  37:  0.00  38:  0.00  39:  0.00  40:  0.00
  41:  0.00  42:  0.00  43:  0.00  44:  0.00  45:  0.00  46:  0.00  47:  0.00  48:  0.00
  49:  0.00  50:  0.00  51:  0.00  52:  0.00  53:  0.00  54:  0.00  55:  0.00  56:  0.00
  57:  0.00  58:  0.00  59:  0.00  60:  0.00  61:  0.00  62:  0.00  63:  0.00  64:  0.00
  65:  0.00  66:  0.00  67:  0.00  68:  0.00  69:  0.00  70:  0.00  71:  0.00  72:  0.00
  73:  0.00  74:  0.00  75:  0.00  76:  0.00  77:  0.00  78:  0.00  79:  0.00  80:  0.00
  81:  0.00  82:  0.00  83:  0.00  84:  0.00  85:  0.00  86:  0.00  87:  0.00  88:  0.00
  89:  0.00  90:  0.00  91:  0.00  92:  0.00  93:  0.00  94:  0.00  95:  0.00  96:  0.00
  97:  0.00  98:  0.00  99:  0.00 100:  0.00 101:  0.00 102:  0.00 103:  0.00 104:  0.00
 105:  0.00 106:  0.00 107:  0.00 108:  0.00 109:  0.00 110:  0.00 111:  0.00 112:  0.00
 113:  0.00 114:  0.00 115:  0.00 116:  0.00 117:  0.00 118:  0.00 119:  0.00 120:  0.00
 121:  0.00 122:  0.00 123:  0.00 124:  0.00 125:  0.00 126:  0.00 127:  0.00 128:  0.00
 129:  0.00 130:  0.00 131:  0.00 132:  0.00 133:  0.00 134:  0.00 135:  0.00 136:  0.00
 137:  0.00 138:  0.00 139:  0.00 140:  0.00 141:  0.00 142:  0.00 143:  0.00 144:  0.00
 145:  0.00 146:  0.00 147:  0.00 148:  0.00 149:  0.00 150:  0.00 151:  0.00 152:  0.00
 153:  0.00 154:  0.00 155:  0.00 156:  0.00 157:  0.00 158:  0.00 159:  0.00
 output can be read by thermo (or use thermo option).
 writing <g98.out> molden fake output.
 recommended (thermochemical) frequency scaling factor: 1.0
           -------------------------------------------------
          |             Thermodynamic Functions             |
           -------------------------------------------------

c1  symmetry found (for desy threshold:  0.10E+00) used in thermo
 inverting freq            1   8.3256143958925861     

          ...................................................
          :                      SETUP                      :
          :.................................................:
          :  # frequencies                         153      :
          :  # imaginary freq.                       0      :
          :  linear?                             false      :
          :  only rotor calc.                    false      :
          :  symmetry                               c1      :
          :  rotational number                       1      :
          :  scaling factor                  1.0000000      :
          :  rotor cutoff                   50.0000000 cm⁻¹ :
          :  imag. cutoff                  -20.0000000 cm⁻¹ :
          :.................................................:

    mode    ω/cm⁻¹     T·S(HO)/kcal·mol⁻¹    T·S(FR)/kcal·mol⁻¹   T·S(vib)
   ------------------------------------------------------------------------
       1      8.33    -2.49704 (  0.08%)    -1.58751 ( 99.92%)    -1.58821
       2      6.43    -2.65056 (  0.03%)    -1.66424 ( 99.97%)    -1.66451
       3     10.54    -2.35757 (  0.20%)    -1.51779 ( 99.80%)    -1.51944
       4     14.13    -2.18353 (  0.63%)    -1.43076 ( 99.37%)    -1.43554
       5     18.18    -2.03437 (  1.72%)    -1.35616 ( 98.28%)    -1.36781
       6     18.76    -2.01577 (  1.94%)    -1.34685 ( 98.06%)    -1.35986
       7     29.38    -1.75029 ( 10.66%)    -1.21399 ( 89.34%)    -1.27114
       8     31.87    -1.70220 ( 14.17%)    -1.18990 ( 85.83%)    -1.26251
       9     36.11    -1.62849 ( 21.38%)    -1.15296 ( 78.62%)    -1.25463
      10     39.05    -1.58213 ( 27.12%)    -1.12972 ( 72.88%)    -1.25244
      11     43.40    -1.51979 ( 36.22%)    -1.09845 ( 63.78%)    -1.25104
      12     52.69    -1.40536 ( 55.23%)    -1.04098 ( 44.77%)    -1.24223
      13     61.09    -1.31829 ( 69.03%)    -0.99718 ( 30.97%)    -1.21884
      14     64.22    -1.28896 ( 73.13%)    -0.98240 ( 26.87%)    -1.20658
      15     72.42    -1.21837 ( 81.49%)    -0.94679 ( 18.51%)    -1.16809
      16     81.37    -1.15011 ( 87.52%)    -0.91226 ( 12.48%)    -1.12043
      17     90.02    -1.09111 ( 91.31%)    -0.88234 (  8.69%)    -1.07297
      18     96.92    -1.04811 ( 93.38%)    -0.86048 (  6.62%)    -1.03570
      19    104.26    -1.00566 ( 94.98%)    -0.83883 (  5.02%)    -0.99728
      20    115.12    -0.94834 ( 96.56%)    -0.80950 (  3.44%)    -0.94356
      21    118.39    -0.93216 ( 96.92%)    -0.80119 (  3.08%)    -0.92812
      22    124.07    -0.90518 ( 97.43%)    -0.78731 (  2.57%)    -0.90215
      23    132.30    -0.86831 ( 98.00%)    -0.76829 (  2.00%)    -0.86631
      24    171.76    -0.72037 ( 99.29%)    -0.69096 (  0.71%)    -0.72016
      25    176.67    -0.70462 ( 99.36%)    -0.68261 (  0.64%)    -0.70448
      26    193.91    -0.65298 ( 99.56%)    -0.65503 (  0.44%)    -0.65299
      27    248.19    -0.51979 ( 99.84%)    -0.58191 (  0.16%)    -0.51989
      28    257.11    -0.50128 ( 99.86%)    -0.57146 (  0.14%)    -0.50138
      29    278.45    -0.46009 ( 99.90%)    -0.54783 (  0.10%)    -0.46018
      30    295.48    -0.43004 ( 99.92%)    -0.53025 (  0.08%)    -0.43012
   ------------------------------------------------------------------------

   temp. (K)  partition function   enthalpy   heat capacity  entropy
                                   cal/mol     cal/K/mol   cal/K/mol   J/K/mol
 298.15  VIB  0.147E+21            20039.858    102.253    135.441
         ROT  0.242E+08              888.752      2.981     36.769
         INT  0.356E+28            20928.610    105.234    172.210
         TR   0.618E+28             1481.254      4.968     43.384
         TOT                       22409.8643   110.2021   215.5946   902.0477

       T/K    H(0)-H(T)+PV         H(T)/Eh          T*S/Eh         G(T)/Eh
   ------------------------------------------------------------------------
    298.15    0.357124E-01    0.474076E+00    0.102436E+00    0.371640E+00
   ------------------------------------------------------------------------

         :::::::::::::::::::::::::::::::::::::::::::::::::::::
         ::                  THERMODYNAMIC                  ::
         :::::::::::::::::::::::::::::::::::::::::::::::::::::
         :: total free energy         -80.559904843139 Eh   ::
         ::.................................................::
         :: total energy              -80.931544627152 Eh   ::
         :: zero point energy           0.438363327464 Eh   ::
         :: G(RRHO) w/o ZPVE           -0.066723543451 Eh   ::
         :: G(RRHO) contrib.            0.371639784013 Eh   ::
         :::::::::::::::::::::::::::::::::::::::::::::::::::::
imag cut-off (cm-1) :    5.00
 found            1  significant imaginary frequency
 writing imag mode distorted coords to xtbhess.xyz
 for further optimization.

           -------------------------------------------------
          | TOTAL ENERGY              -80.931544627152 Eh   |
          | TOTAL ENTHALPY            -80.457468907791 Eh   |
          | TOTAL FREE ENERGY         -80.559904843139 Eh   |
          | GRADIENT NORM               0.000184101661 Eh/α |
          | HOMO-LUMO GAP               5.711741172043 eV   |
           -------------------------------------------------

------------------------------------------------------------------------
 * finished run on 2024/01/10 at 18:29:10.143     
------------------------------------------------------------------------
 total:
 * wall-time:     0 d,  0 h,  0 min, 13.570 sec
 *  cpu-time:     0 d,  0 h,  0 min, 13.470 sec
 * ratio c/w:     0.993 speedup
 SCF:
 * wall-time:     0 d,  0 h,  0 min,  0.094 sec
 *  cpu-time:     0 d,  0 h,  0 min,  0.055 sec
 * ratio c/w:     0.582 speedup
 analytical hessian:
 * wall-time:     0 d,  0 h,  0 min, 13.450 sec
 *  cpu-time:     0 d,  0 h,  0 min, 13.389 sec
 * ratio c/w:     0.995 speedup

