      -----------------------------------------------------------      
     |                   =====================                   |     
     |                           x T B                           |     
     |                   =====================                   |     
     |                         S. Grimme                         |     
     |          Mulliken Center for Theoretical Chemistry        |     
     |                    University of Bonn                     |     
      -----------------------------------------------------------      

   * xtb version 6.6.1 (unknown-commit) compiled by '@Linux' on 12/27/2023

   xtb is free software: you can redistribute it and/or modify it under
   the terms of the GNU Lesser General Public License as published by
   the Free Software Foundation, either version 3 of the License, or
   (at your option) any later version.
   
   xtb is distributed in the hope that it will be useful,
   but WITHOUT ANY WARRANTY; without even the implied warranty of
   MERCHANTABILITY or FITNESS FOR A PARTICULAR PURPOSE.  See the
   GNU Lesser General Public License for more details.
   
   Cite this work as:
   * C. Bannwarth, E. Caldeweyher, S. Ehlert, A. Hansen, P. Pracht,
     J. Seibert, S. Spicher, S. Grimme, WIREs Comput. Mol. Sci., 2020, 11,
     e01493. DOI: 10.1002/wcms.1493
   
   for GFN2-xTB:
   * C. Bannwarth, S. Ehlert and S. Grimme., J. Chem. Theory Comput., 2019,
     15, 1652-1671. DOI: 10.1021/acs.jctc.8b01176
   for GFN1-xTB:
   * S. Grimme, C. Bannwarth, P. Shushkov, J. Chem. Theory Comput., 2017,
     13, 1989-2009. DOI: 10.1021/acs.jctc.7b00118
   for GFN0-xTB:
   * P. Pracht, E. Caldeweyher, S. Ehlert, S. Grimme, ChemRxiv, 2019, preprint.
     DOI: 10.26434/chemrxiv.8326202.v1
   for GFN-FF:
   * S. Spicher and S. Grimme, Angew. Chem. Int. Ed., 2020, 59, 15665-15673.
     DOI: 10.1002/anie.202004239
   
   for ALPB and GBSA implicit solvation:
   * S. Ehlert, M. Stahn, S. Spicher, S. Grimme, J. Chem. Theory Comput.,
     2021, 17, 4250-4261. DOI: 10.1021/acs.jctc.1c00471
   
   for DFT-D4:
   * E. Caldeweyher, C. Bannwarth and S. Grimme, J. Chem. Phys., 2017,
     147, 034112. DOI: 10.1063/1.4993215
   * E. Caldeweyher, S. Ehlert, A. Hansen, H. Neugebauer, S. Spicher,
     C. Bannwarth and S. Grimme, J. Chem. Phys., 2019, 150, 154122.
     DOI: 10.1063/1.5090222
   * E. Caldeweyher, J.-M. Mewes, S. Ehlert and S. Grimme, Phys. Chem. Chem. Phys.
     2020, 22, 8499-8512. DOI: 10.1039/D0CP00502A
   
   for sTDA-xTB:
   * S. Grimme and C. Bannwarth, J. Chem. Phys., 2016, 145, 054103.
     DOI: 10.1063/1.4959605
   
   in the mass-spec context:
   * V. Asgeirsson, C. Bauer and S. Grimme, Chem. Sci., 2017, 8, 4879.
     DOI: 10.1039/c7sc00601b
   * J. Koopman and S. Grimme, ACS Omega 2019, 4, 12, 15120-15133.
     DOI: 10.1021/acsomega.9b02011
   
   for metadynamics refer to:
   * S. Grimme, J. Chem. Theory Comput., 2019, 155, 2847-2862
     DOI: 10.1021/acs.jctc.9b00143
   
   for SPH calculations refer to:
   * S. Spicher and S. Grimme, J. Chem. Theory Comput., 2021, 17, 1701-1714
     DOI: 10.1021/acs.jctc.0c01306
   
   with help from (in alphabetical order)
   P. Atkinson, C. Bannwarth, F. Bohle, G. Brandenburg, E. Caldeweyher
   M. Checinski, S. Dohm, S. Ehlert, S. Ehrlich, I. Gerasimov, C. Hölzer
   A. Katbashev, J. Koopman, C. Lavigne, S. Lehtola, F. März, M. Müller,
   F. Musil, H. Neugebauer, J. Pisarek, C. Plett, P. Pracht, F. Pultar,
   J. Seibert, P. Shushkov, S. Spicher, M. Stahn, M. Steiner, T. Strunk,
   J. Stückrath, T. Rose, and J. Unsleber
   
 * started run on 2024/01/10 at 15:37:09.883     

           -------------------------------------------------
          |                Calculation Setup                |
           -------------------------------------------------

          program call               : xtb struc.xyz --gfn2 --hess
          hostname                   : swaroop
          coordinate file            : struc.xyz
          omp threads                :                     1

   ID    Z sym.   atoms
    1    8 O      1, 23, 31, 39, 47
    2    6 C      2, 5, 9, 13, 17, 22, 30, 38, 46
    3    1 H      3, 4, 6, 7, 10-12, 14-16, 18-21, 25, 26, 28, 29, 33, 34,
                  36, 37, 41, 42, 44, 45, 49, 50, 52, 53
    4    7 N      8, 24, 27, 32, 35, 40, 43, 48, 51

molecular fragmentation (1/2 indicates fragments):
11111111111111111111122222222222222222222222222222222
# atoms in fragment 1/2:    21    32
 fragment masses (1/2) :      104.17      240.22
CMA distance (Bohr)    :   4.269
constraining FC (au)   :  0.0500

           -------------------------------------------------
          |                 G F N 2 - x T B                 |
           -------------------------------------------------

        Reference                      10.1021/acs.jctc.8b01176
      * Hamiltonian:
        H0-scaling (s, p, d)           1.850000    2.230000    2.230000
        zeta-weighting                 0.500000
      * Dispersion:
        s8                             2.700000
        a1                             0.520000
        a2                             5.000000
        s9                             5.000000
      * Repulsion:
        kExp                           1.500000    1.000000
        rExp                           1.000000
      * Coulomb:
        alpha                          2.000000
        third order                    shell-resolved
        anisotropic                    true
        a3                             3.000000
        a5                             4.000000
        cn-shift                       1.200000
        cn-exp                         4.000000
        max-rad                        5.000000


          ...................................................
          :                      SETUP                      :
          :.................................................:
          :  # basis functions                 122          :
          :  # atomic orbitals                 122          :
          :  # shells                           76          :
          :  # electrons                       140          :
          :  max. iterations                   250          :
          :  Hamiltonian                  GFN2-xTB          :
          :  restarted?                      false          :
          :  GBSA solvation                  false          :
          :  PC potential                    false          :
          :  electronic temp.          300.0000000     K    :
          :  accuracy                    1.0000000          :
          :  -> integral cutoff          0.2500000E+02      :
          :  -> integral neglect         0.1000000E-07      :
          :  -> SCF convergence          0.1000000E-05 Eh   :
          :  -> wf. convergence          0.1000000E-03 e    :
          :  Broyden damping             0.4000000          :
          ...................................................

 iter      E             dE          RMSdq      gap      omega  full diag
   1    -81.5517584 -0.815518E+02  0.433E+00    5.15       0.0  T
   2    -81.8409107 -0.289152E+00  0.237E+00    6.07       1.0  T
   3    -81.8465679 -0.565726E-02  0.116E+00    5.79       1.0  T
   4    -81.8478759 -0.130803E-02  0.237E-01    5.85       1.0  T
   5    -81.8487557 -0.879793E-03  0.917E-02    5.77       1.0  T
   6    -81.8487803 -0.245218E-04  0.267E-02    5.79       1.0  T
   7    -81.8487847 -0.447691E-05  0.755E-03    5.79       1.8  T
   8    -81.8487850 -0.270312E-06  0.266E-03    5.78       5.2  T
   9    -81.8487850 -0.143643E-07  0.908E-04    5.78      15.1  T
  10    -81.8487850 -0.646405E-08  0.174E-04    5.78      79.2  T

   *** convergence criteria satisfied after 10 iterations ***

         #    Occupation            Energy/Eh            Energy/eV
      -------------------------------------------------------------
         1        2.0000           -0.7910683             -21.5261
       ...           ...                  ...                  ...
        64        2.0000           -0.4980728             -13.5533
        65        2.0000           -0.4969814             -13.5236
        66        2.0000           -0.4932090             -13.4209
        67        2.0000           -0.4926053             -13.4045
        68        2.0000           -0.4884259             -13.2907
        69        2.0000           -0.4868762             -13.2486
        70        2.0000           -0.4820373             -13.1169 (HOMO)
        71                         -0.2695090              -7.3337 (LUMO)
        72                         -0.2694539              -7.3322
        73                         -0.2687222              -7.3123
        74                         -0.2561895              -6.9713
        75                         -0.1433349              -3.9003
       ...                                ...                  ...
       122                          0.5603936              15.2491
      -------------------------------------------------------------
                  HL-Gap            0.2125283 Eh            5.7832 eV
             Fermi-level           -0.3757731 Eh          -10.2253 eV

 SCC (total)                   0 d,  0 h,  0 min,  0.085 sec
 SCC setup                      ...        0 min,  0.000 sec (  0.334%)
 Dispersion                     ...        0 min,  0.001 sec (  0.691%)
 classical contributions        ...        0 min,  0.000 sec (  0.216%)
 integral evaluation            ...        0 min,  0.008 sec (  8.996%)
 iterations                     ...        0 min,  0.049 sec ( 57.568%)
 molecular gradient             ...        0 min,  0.027 sec ( 31.893%)
 printout                       ...        0 min,  0.000 sec (  0.288%)

         :::::::::::::::::::::::::::::::::::::::::::::::::::::
         ::                     SUMMARY                     ::
         :::::::::::::::::::::::::::::::::::::::::::::::::::::
         :: total energy             -80.934329719976 Eh    ::
         :: gradient norm              0.000051923253 Eh/a0 ::
         :: HOMO-LUMO gap              5.783189582672 eV    ::
         ::.................................................::
         :: SCC energy               -81.848785027203 Eh    ::
         :: -> isotropic ES            0.292572288647 Eh    ::
         :: -> anisotropic ES         -0.027661471778 Eh    ::
         :: -> anisotropic XC          0.020332802252 Eh    ::
         :: -> dispersion             -0.043112239040 Eh    ::
         :: repulsion energy           0.913527505301 Eh    ::
         :: add. restraining           0.000000000000 Eh    ::
         :: total charge               1.000000000000 e     ::
         :::::::::::::::::::::::::::::::::::::::::::::::::::::

           ------------------------------------------------- 
          |                Numerical Hessian                |
           ------------------------------------------------- 
step length          :   0.00500
SCC accuracy         :   0.30000
Hessian scale factor :   1.00000
frozen atoms in %    :   0.00000    0
RMS gradient         :   0.00005
estimated CPU  time      0.24 min
estimated wall time      0.24 min

writing file <hessian>.

 projected vibrational frequencies (cm⁻¹)
eigval :       -0.00    -0.00    -0.00     0.00     0.00     0.00
eigval :        4.87    16.35    20.72    25.73    28.54    34.01
eigval :       39.04    42.15    45.15    56.37    62.15    67.50
eigval :       69.82    73.00    76.59    93.68    98.79   101.89
eigval :      111.62   117.20   132.09   152.18   164.56   167.80
eigval :      195.69   199.81   218.14   230.11   259.38   266.29
eigval :      298.64   313.19   318.53   331.30   335.32   356.13
eigval :      379.58   384.78   415.57   436.23   440.48   459.71
eigval :      460.02   461.21   463.97   468.35   469.99   477.25
eigval :      483.31   485.03   490.28   527.19   541.79   551.44
eigval :      551.89   561.07   571.44   665.95   671.35   673.33
eigval :      676.47   721.31   737.71   766.77   777.06   799.33
eigval :      911.13   929.69   951.06   961.98   966.11   969.53
eigval :     1003.50  1004.91  1008.33  1014.50  1015.41  1023.03
eigval :     1033.12  1036.61  1039.08  1080.48  1083.72  1090.50
eigval :     1092.40  1098.56  1110.27  1131.35  1170.25  1228.01
eigval :     1250.53  1279.87  1317.83  1327.71  1351.75  1353.97
eigval :     1358.91  1361.97  1378.61  1398.41  1399.73  1411.31
eigval :     1422.66  1438.71  1440.54  1444.53  1448.02  1449.10
eigval :     1454.89  1457.18  1462.00  1467.20  1472.79  1482.73
eigval :     1491.59  1499.35  1507.33  1509.85  1513.05  1666.50
eigval :     1694.34  1700.09  1718.28  2870.16  2977.20  2993.54
eigval :     3004.55  3030.70  3034.60  3040.76  3046.96  3051.97
eigval :     3056.95  3060.66  3064.61  3078.21  3112.59  3172.52
eigval :     3236.79  3280.08  3484.47  3495.79  3499.19  3502.35
eigval :     3503.44  3524.49  3530.98  3539.55  3554.67  3560.60
eigval :     3565.19  3568.32  3569.71
           -------------------------------------------------
          |                Property Printout                |
           -------------------------------------------------

    * Orbital Energies and Occupations

         #    Occupation            Energy/Eh            Energy/eV
      -------------------------------------------------------------
         1        2.0000           -0.7910685             -21.5261
       ...           ...                  ...                  ...
        58        2.0000           -0.5078948             -13.8205
        59        2.0000           -0.5069416             -13.7946
        60        2.0000           -0.5043388             -13.7238
        61        2.0000           -0.5030913             -13.6898
        62        2.0000           -0.5023931             -13.6708
        63        2.0000           -0.4995974             -13.5947
        64        2.0000           -0.4980735             -13.5533
        65        2.0000           -0.4969821             -13.5236
        66        2.0000           -0.4932101             -13.4209
        67        2.0000           -0.4926075             -13.4045
        68        2.0000           -0.4884254             -13.2907
        69        2.0000           -0.4868783             -13.2486
        70        2.0000           -0.4820395             -13.1170 (HOMO)
        71                         -0.2695080              -7.3337 (LUMO)
        72                         -0.2694540              -7.3322
        73                         -0.2687236              -7.3123
        74                         -0.2561940              -6.9714
        75                         -0.1433340              -3.9003
        76                         -0.1032961              -2.8108
        77                         -0.1011391              -2.7521
        78                         -0.0802807              -2.1845
        79                         -0.0751884              -2.0460
        80                         -0.0703936              -1.9155
        81                         -0.0658889              -1.7929
       ...                                ...                  ...
       122                          0.5603905              15.2490
      -------------------------------------------------------------
                  HL-Gap            0.2125314 Eh            5.7833 eV
             Fermi-level           -0.3757737 Eh          -10.2253 eV

     #   Z          covCN         q      C6AA      α(0)
     1   8 O        1.653    -0.482    22.516     6.406
     2   6 C        3.673     0.076    19.533     6.334
     3   1 H        0.924     0.054     2.276     2.359
     4   1 H        0.923     0.042     2.422     2.434
     5   6 C        3.766    -0.068    21.847     6.662
     6   1 H        0.924     0.099     1.794     2.095
     7   1 H        0.924     0.112     1.675     2.024
     8   7 N        3.624     0.160    18.550     6.397
     9   6 C        3.740    -0.120    22.871     6.823
    10   1 H        0.925     0.121     1.607     1.983
    11   1 H        0.925     0.114     1.661     2.015
    12   1 H        0.925     0.081     1.972     2.196
    13   6 C        3.728    -0.112    22.740     6.808
    14   1 H        0.925     0.084     1.935     2.175
    15   1 H        0.925     0.102     1.770     2.081
    16   1 H        0.925     0.119     1.620     1.990
    17   6 C        3.722    -0.110    22.716     6.807
    18   1 H        0.925     0.105     1.744     2.065
    19   1 H        0.925     0.103     1.758     2.073
    20   1 H        0.925     0.103     1.759     2.074
    21   1 H        0.802     0.332     0.633     1.250
    22   6 C        2.675     0.344    21.157     7.527
    23   8 O        0.860    -0.520    24.235     6.600
    24   7 N        2.645    -0.290    27.471     7.784
    25   1 H        0.860     0.216     1.030     1.590
    26   1 H        0.861     0.188     1.168     1.693
    27   7 N        2.646    -0.282    27.278     7.757
    28   1 H        0.861     0.189     1.165     1.691
    29   1 H        0.860     0.204     1.084     1.631
    30   6 C        2.675     0.340    21.225     7.539
    31   8 O        0.861    -0.534    24.555     6.644
    32   7 N        2.644    -0.290    27.473     7.785
    33   1 H        0.860     0.201     1.099     1.642
    34   1 H        0.861     0.184     1.189     1.708
    35   7 N        2.643    -0.313    28.066     7.868
    36   1 H        0.861     0.177     1.229     1.737
    37   1 H        0.859     0.245     0.905     1.490
    38   6 C        2.675     0.344    21.164     7.528
    39   8 O        0.860    -0.530    24.458     6.631
    40   7 N        2.645    -0.296    27.630     7.807
    41   1 H        0.860     0.196     1.128     1.664
    42   1 H        0.861     0.180     1.213     1.725
    43   7 N        2.644    -0.314    28.080     7.870
    44   1 H        0.860     0.174     1.250     1.751
    45   1 H        0.860     0.235     0.945     1.523
    46   6 C        2.675     0.341    21.204     7.535
    47   8 O        0.860    -0.518    24.197     6.595
    48   7 N        2.644    -0.304    27.828     7.835
    49   1 H        0.860     0.241     0.920     1.502
    50   1 H        0.861     0.181     1.210     1.723
    51   7 N        2.645    -0.289    27.462     7.783
    52   1 H        0.861     0.186     1.183     1.704
    53   1 H        0.860     0.201     1.099     1.642

 Mol. C6AA /au·bohr⁶  :      21792.684217
 Mol. C8AA /au·bohr⁸  :     454223.113136
 Mol. α(0) /au        :        220.554298


Wiberg/Mayer (AO) data.
largest (>0.10) Wiberg bond orders for each atom

 ---------------------------------------------------------------------------
     #   Z sym  total        # sym  WBO       # sym  WBO       # sym  WBO
 ---------------------------------------------------------------------------
     1   8 O    1.936 --     2 C    1.019    21 H    0.808
     2   6 C    3.967 --     1 O    1.019     5 C    0.997     3 H    0.966
                             4 H    0.960
     3   1 H    0.997 --     2 C    0.966
     4   1 H    0.998 --     2 C    0.960
     5   6 C    3.933 --     2 C    0.997     6 H    0.961     7 H    0.957
                             8 N    0.936
     6   1 H    0.990 --     5 C    0.961
     7   1 H    0.987 --     5 C    0.957
     8   7 N    3.823 --    13 C    0.959    17 C    0.957     9 C    0.955
                             5 C    0.936
     9   6 C    3.918 --    12 H    0.979    11 H    0.962    10 H    0.961
                             8 N    0.955
    10   1 H    0.985 --     9 C    0.961
    11   1 H    0.987 --     9 C    0.962
    12   1 H    0.993 --     9 C    0.979
    13   6 C    3.925 --    14 H    0.975    15 H    0.969    16 H    0.960
                             8 N    0.959
    14   1 H    0.993 --    13 C    0.975
    15   1 H    0.990 --    13 C    0.969
    16   1 H    0.986 --    13 C    0.960
    17   6 C    3.924 --    19 H    0.972    18 H    0.970    20 H    0.969
                             8 N    0.957
    18   1 H    0.989 --    17 C    0.970
    19   1 H    0.989 --    17 C    0.972
    20   1 H    0.989 --    17 C    0.969
    21   1 H    0.890 --     1 O    0.808
    22   6 C    3.960 --    23 O    1.509    24 N    1.225    27 N    1.221
    23   8 O    1.918 --    22 C    1.509    24 N    0.142    27 N    0.138
    24   7 N    3.335 --    22 C    1.225    26 H    0.946    25 H    0.932
                            23 O    0.142
    25   1 H    0.954 --    24 N    0.932
    26   1 H    0.965 --    24 N    0.946
    27   7 N    3.335 --    22 C    1.221    28 H    0.946    29 H    0.941
                            23 O    0.138
    28   1 H    0.964 --    27 N    0.946
    29   1 H    0.958 --    27 N    0.941
    30   6 C    3.960 --    31 O    1.489    35 N    1.247    32 N    1.211
    31   8 O    1.893 --    30 C    1.489    35 N    0.144    32 N    0.132
    32   7 N    3.326 --    30 C    1.211    34 H    0.947    33 H    0.942
                            31 O    0.132
    33   1 H    0.959 --    32 N    0.942
    34   1 H    0.966 --    32 N    0.947
    35   7 N    3.334 --    30 C    1.247    36 H    0.949    37 H    0.868
                            31 O    0.144
    36   1 H    0.968 --    35 N    0.949
    37   1 H    0.940 --    35 N    0.868
    38   6 C    3.959 --    39 O    1.529    43 N    1.228    40 N    1.194
    39   8 O    1.890 --    38 C    1.529    43 N    0.146    40 N    0.138
    40   7 N    3.307 --    38 C    1.194    42 H    0.948    41 H    0.945
                            39 O    0.138
    41   1 H    0.962 --    40 N    0.945
    42   1 H    0.967 --    40 N    0.948
    43   7 N    3.318 --    38 C    1.228    44 H    0.950    45 H    0.884
                            39 O    0.146
    44   1 H    0.970 --    43 N    0.950
    45   1 H    0.945 --    43 N    0.884
    46   6 C    3.960 --    47 O    1.483    48 N    1.256    51 N    1.211
    47   8 O    1.931 --    46 C    1.483    48 N    0.142    51 N    0.131
    48   7 N    3.346 --    46 C    1.256    50 H    0.948    49 H    0.872
                            47 O    0.142
    49   1 H    0.942 --    48 N    0.872
    50   1 H    0.967 --    48 N    0.948
    51   7 N    3.325 --    46 C    1.211    52 H    0.947    53 H    0.942
                            47 O    0.131
    52   1 H    0.965 --    51 N    0.947
    53   1 H    0.959 --    51 N    0.942
 ---------------------------------------------------------------------------

Topologies differ in total number of bonds
Writing topology from bond orders to xtbtopo.mol

molecular dipole:
                 x           y           z       tot (Debye)
 q only:        0.568       0.226       0.276
   full:        0.435       0.329       0.688       2.233
molecular quadrupole (traceless):
                xx          xy          yy          xz          yz          zz
 q only:       36.629     -14.322     -18.030     -30.220      -1.042     -18.598
  q+dip:       43.767     -17.886     -18.800     -34.994      -2.188     -24.967
   full:       43.634     -17.919     -18.966     -35.169      -2.162     -24.668

           -------------------------------------------------
          |               Frequency Printout                |
           -------------------------------------------------
 projected vibrational frequencies (cm⁻¹)
eigval :       -0.00    -0.00    -0.00     0.00     0.00     0.00
eigval :        4.87    16.35    20.72    25.73    28.54    34.01
eigval :       39.04    42.15    45.15    56.37    62.15    67.50
eigval :       69.82    73.00    76.59    93.68    98.79   101.89
eigval :      111.62   117.20   132.09   152.18   164.56   167.80
eigval :      195.69   199.81   218.14   230.11   259.38   266.29
eigval :      298.64   313.19   318.53   331.30   335.32   356.13
eigval :      379.58   384.78   415.57   436.23   440.48   459.71
eigval :      460.02   461.21   463.97   468.35   469.99   477.25
eigval :      483.31   485.03   490.28   527.19   541.79   551.44
eigval :      551.89   561.07   571.44   665.95   671.35   673.33
eigval :      676.47   721.31   737.71   766.77   777.06   799.33
eigval :      911.13   929.69   951.06   961.98   966.11   969.53
eigval :     1003.50  1004.91  1008.33  1014.50  1015.41  1023.03
eigval :     1033.12  1036.61  1039.08  1080.48  1083.72  1090.50
eigval :     1092.40  1098.56  1110.27  1131.35  1170.25  1228.01
eigval :     1250.53  1279.87  1317.83  1327.71  1351.75  1353.97
eigval :     1358.91  1361.97  1378.61  1398.41  1399.73  1411.31
eigval :     1422.66  1438.71  1440.54  1444.53  1448.02  1449.10
eigval :     1454.89  1457.18  1462.00  1467.20  1472.79  1482.73
eigval :     1491.59  1499.35  1507.33  1509.85  1513.05  1666.50
eigval :     1694.34  1700.09  1718.28  2870.16  2977.20  2993.54
eigval :     3004.55  3030.70  3034.60  3040.76  3046.96  3051.97
eigval :     3056.95  3060.66  3064.61  3078.21  3112.59  3172.52
eigval :     3236.79  3280.08  3484.47  3495.79  3499.19  3502.35
eigval :     3503.44  3524.49  3530.98  3539.55  3554.67  3560.60
eigval :     3565.19  3568.32  3569.71
 reduced masses (amu)
   1: 12.71   2: 12.55   3: 12.75   4: 12.66   5: 12.65   6: 12.55   7: 12.26   8: 12.15
   9: 11.94  10: 11.71  11: 12.14  12: 12.17  13: 12.09  14: 12.76  15: 12.75  16: 12.49
  17: 12.07  18: 12.70  19: 12.87  20: 12.41  21: 13.18  22: 12.78  23: 12.52  24: 12.11
  25: 13.20  26: 11.78  27: 12.37  28: 12.50  29:  3.07  30: 13.32  31: 10.70  32: 12.60
  33: 11.69  34:  2.62  35:  2.59  36:  4.99  37:  6.85  38:  2.75  39:  6.74  40:  3.37
  41:  3.45  42:  3.13  43:  7.11  44:  3.31  45:  3.18  46:  8.62  47:  3.18  48:  5.99
  49:  5.01  50:  8.10  51:  7.24  52:  5.69  53:  2.30  54:  5.16  55:  4.23  56:  7.85
  57:  6.66  58:  2.03  59: 11.26  60: 11.52  61: 11.04  62: 11.85  63:  8.59  64: 10.37
  65: 11.64  66: 11.32  67: 11.93  68:  3.06  69:  1.87  70:  9.27  71:  2.12  72:  2.05
  73:  6.84  74:  8.35  75:  5.21  76:  4.91  77:  5.10  78:  4.92  79:  7.67  80:  8.58
  81:  9.32  82:  8.68  83:  8.27  84:  9.55  85:  6.87  86:  5.41  87:  3.29  88:  9.74
  89:  9.16  90:  8.22  91:  8.35  92:  6.76  93:  4.23  94:  8.42  95:  2.85  96:  5.46
  97:  7.24  98:  8.20  99:  5.23 100:  3.98 101:  4.99 102:  4.89 103:  5.41 104:  4.86
 105:  4.79 106:  2.62 107:  3.17 108:  2.57 109:  2.18 110:  1.90 111:  2.27 112:  3.11
 113:  1.68 114:  3.16 115:  3.14 116:  2.16 117:  2.46 118:  1.67 119:  1.84 120:  1.64
 121:  1.79 122:  7.86 123:  9.12 124:  9.16 125:  9.45 126: 12.36 127: 12.72 128: 12.73
 129: 12.76 130:  1.76 131:  1.66 132:  1.66 133:  1.86 134:  1.70 135:  1.66 136:  1.61
 137:  1.87 138:  1.80 139:  1.65 140:  1.87 141:  1.72 142:  1.71 143:  1.92 144:  1.80
 145:  1.78 146:  1.76 147:  1.48 148:  1.45 149:  1.45 150:  1.45 151:  1.45 152:  1.92
 153:  1.90 154:  1.91 155:  2.16 156:  2.18 157:  2.18 158:  2.18 159:  2.18
 IR intensities (km·mol⁻¹)
   1:  1.49   2:  1.27   3:  1.55   4:  1.79   5:  1.40   6:  1.25   7:  0.45   8:  2.23
   9:  1.04  10:  0.69  11:  1.45  12:  0.99  13:  4.11  14:  4.11  15:  1.86  16:  1.40
  17:  1.95  18:  1.72  19:  7.92  20: 12.92  21:  1.82  22:  2.02  23:  0.12  24:  0.90
  25: 23.48  26:  9.36  27: 13.41  28:  4.78  29: 21.68  30: 21.65  31: 13.17  32: 50.40
  33:  6.87  34:152.63  35:148.79  36:  7.25  37:  0.38  38:166.87  39:  7.61  40:311.94
  41:160.83  42:  6.62  43:  9.99  44:204.82  45:195.42  46: 16.57  47:336.94  48: 27.66
  49:  3.56  50: 12.13  51:  6.06  52: 16.78  53:  5.15  54:  2.63  55: 12.54  56: 21.76
  57: 41.52  58: 38.84  59: 21.75  60:  6.37  61: 39.89  62: 45.82  63: 18.74  64: 12.70
  65: 15.96  66: 36.10  67: 35.55  68: 80.38  69:111.10  70:  1.15  71:490.81  72:159.49
  73:  4.22  74:  9.44  75:  5.58  76:  8.86  77:  2.50  78:  0.41  79: 17.20  80:  6.89
  81: 22.07  82:  5.61  83: 27.12  84:  0.80  85: 19.21  86: 11.60  87:  4.27  88:  0.82
  89:  1.07  90:  1.13  91:  2.70  92: 16.82  93: 15.51  94: 47.75  95:  6.78  96: 10.09
  97:  2.26  98:  5.91  99:  3.52 100:  3.05 101:228.81 102: 74.80 103: 58.23 104: 67.12
 105:  1.53 106: 40.74 107: 59.46 108: 24.89 109:  3.76 110:  0.77 111:  8.12 112:  7.80
 113:  2.35 114:  6.77 115:  6.69 116:  1.37 117: 11.78 118: 18.62 119:  2.04 120: 58.36
 121:  3.74 122:644.44 123:518.92 124:315.49 125:524.92 126:383.17 127:950.83 128:******
 129:596.60 130: 41.51 131: 40.84 132: 22.90 133:  4.15 134: 10.66 135:  7.06 136: 39.70
 137:  0.85 138:  9.72 139:  0.79 140:  7.46 141: 10.25 142:  6.41 143:861.95 144:318.08
 145:****** 146:603.37 147: 58.76 148: 16.21 149: 22.24 150: 20.83 151: 18.52 152: 12.63
 153: 14.43 154: 17.35 155: 22.48 156:  8.98 157: 14.53 158: 17.60 159: 18.51
 Raman intensities (amu)
Molecule has no symmetry elements
It seems to be the C1 point group
   1:  0.00   2:  0.00   3:  0.00   4:  0.00   5:  0.00   6:  0.00   7:  0.00   8:  0.00
   9:  0.00  10:  0.00  11:  0.00  12:  0.00  13:  0.00  14:  0.00  15:  0.00  16:  0.00
  17:  0.00  18:  0.00  19:  0.00  20:  0.00  21:  0.00  22:  0.00  23:  0.00  24:  0.00
  25:  0.00  26:  0.00  27:  0.00  28:  0.00  29:  0.00  30:  0.00  31:  0.00  32:  0.00
  33:  0.00  34:  0.00  35:  0.00  36:  0.00  37:  0.00  38:  0.00  39:  0.00  40:  0.00
  41:  0.00  42:  0.00  43:  0.00  44:  0.00  45:  0.00  46:  0.00  47:  0.00  48:  0.00
  49:  0.00  50:  0.00  51:  0.00  52:  0.00  53:  0.00  54:  0.00  55:  0.00  56:  0.00
  57:  0.00  58:  0.00  59:  0.00  60:  0.00  61:  0.00  62:  0.00  63:  0.00  64:  0.00
  65:  0.00  66:  0.00  67:  0.00  68:  0.00  69:  0.00  70:  0.00  71:  0.00  72:  0.00
  73:  0.00  74:  0.00  75:  0.00  76:  0.00  77:  0.00  78:  0.00  79:  0.00  80:  0.00
  81:  0.00  82:  0.00  83:  0.00  84:  0.00  85:  0.00  86:  0.00  87:  0.00  88:  0.00
  89:  0.00  90:  0.00  91:  0.00  92:  0.00  93:  0.00  94:  0.00  95:  0.00  96:  0.00
  97:  0.00  98:  0.00  99:  0.00 100:  0.00 101:  0.00 102:  0.00 103:  0.00 104:  0.00
 105:  0.00 106:  0.00 107:  0.00 108:  0.00 109:  0.00 110:  0.00 111:  0.00 112:  0.00
 113:  0.00 114:  0.00 115:  0.00 116:  0.00 117:  0.00 118:  0.00 119:  0.00 120:  0.00
 121:  0.00 122:  0.00 123:  0.00 124:  0.00 125:  0.00 126:  0.00 127:  0.00 128:  0.00
 129:  0.00 130:  0.00 131:  0.00 132:  0.00 133:  0.00 134:  0.00 135:  0.00 136:  0.00
 137:  0.00 138:  0.00 139:  0.00 140:  0.00 141:  0.00 142:  0.00 143:  0.00 144:  0.00
 145:  0.00 146:  0.00 147:  0.00 148:  0.00 149:  0.00 150:  0.00 151:  0.00 152:  0.00
 153:  0.00 154:  0.00 155:  0.00 156:  0.00 157:  0.00 158:  0.00 159:  0.00
 output can be read by thermo (or use thermo option).
 writing <g98.out> molden fake output.
 recommended (thermochemical) frequency scaling factor: 1.0
           -------------------------------------------------
          |             Thermodynamic Functions             |
           -------------------------------------------------

c1  symmetry found (for desy threshold:  0.10E+00) used in thermo

          ...................................................
          :                      SETUP                      :
          :.................................................:
          :  # frequencies                         153      :
          :  # imaginary freq.                       0      :
          :  linear?                             false      :
          :  only rotor calc.                    false      :
          :  symmetry                               c1      :
          :  rotational number                       1      :
          :  scaling factor                  1.0000000      :
          :  rotor cutoff                   50.0000000 cm⁻¹ :
          :  imag. cutoff                  -20.0000000 cm⁻¹ :
          :.................................................:

    mode    ω/cm⁻¹     T·S(HO)/kcal·mol⁻¹    T·S(FR)/kcal·mol⁻¹   T·S(vib)
   ------------------------------------------------------------------------
       1      4.87    -2.81513 (  0.01%)    -1.74641 ( 99.99%)    -1.74651
       2     16.35    -2.09727 (  1.13%)    -1.38760 ( 98.87%)    -1.39562
       3     20.72    -1.95716 (  2.86%)    -1.31751 ( 97.14%)    -1.33582
       4     25.73    -1.82881 (  6.56%)    -1.25328 ( 93.44%)    -1.29101
       5     28.54    -1.76752 (  9.60%)    -1.22260 ( 90.40%)    -1.27490
       6     34.01    -1.66383 ( 17.64%)    -1.17066 ( 82.36%)    -1.25763
       7     39.04    -1.58238 ( 27.09%)    -1.12984 ( 72.91%)    -1.25244
       8     42.15    -1.53703 ( 33.56%)    -1.10709 ( 66.44%)    -1.25139
       9     45.15    -1.49646 ( 39.94%)    -1.08673 ( 60.06%)    -1.25038
      10     56.37    -1.36564 ( 61.77%)    -1.02100 ( 38.23%)    -1.23387
      11     62.15    -1.30824 ( 70.47%)    -0.99211 ( 29.53%)    -1.21489
      12     67.50    -1.25964 ( 76.86%)    -0.96761 ( 23.14%)    -1.19207
      13     69.82    -1.23981 ( 79.18%)    -0.95761 ( 20.82%)    -1.18105
      14     73.00    -1.21367 ( 81.96%)    -0.94441 ( 18.04%)    -1.16511
      15     76.59    -1.18556 ( 84.63%)    -0.93020 ( 15.37%)    -1.14631
      16     93.68    -1.06789 ( 92.49%)    -0.87054 (  7.51%)    -1.05308
      17     98.79    -1.03701 ( 93.84%)    -0.85482 (  6.16%)    -1.02579
      18    101.89    -1.01905 ( 94.52%)    -0.84566 (  5.48%)    -1.00955
      19    111.62    -0.96617 ( 96.13%)    -0.81863 (  3.87%)    -0.96046
      20    117.20    -0.93800 ( 96.79%)    -0.80419 (  3.21%)    -0.93371
      21    132.09    -0.86921 ( 97.99%)    -0.76875 (  2.01%)    -0.86719
      22    152.18    -0.78854 ( 98.85%)    -0.72681 (  1.15%)    -0.78783
      23    164.56    -0.74439 ( 99.15%)    -0.70364 (  0.85%)    -0.74404
      24    167.80    -0.73343 ( 99.22%)    -0.69786 (  0.78%)    -0.73315
      25    195.69    -0.64796 ( 99.58%)    -0.65232 (  0.42%)    -0.64798
      26    199.81    -0.63650 ( 99.61%)    -0.64614 (  0.39%)    -0.63654
      27    218.14    -0.58868 ( 99.72%)    -0.62014 (  0.28%)    -0.58877
      28    230.11    -0.55995 ( 99.78%)    -0.60432 (  0.22%)    -0.56004
      29    259.38    -0.49670 ( 99.86%)    -0.56885 (  0.14%)    -0.49680
      30    266.29    -0.48305 ( 99.88%)    -0.56106 (  0.12%)    -0.48314
      31    298.64    -0.42472 ( 99.92%)    -0.52710 (  0.08%)    -0.42480
   ------------------------------------------------------------------------

   temp. (K)  partition function   enthalpy   heat capacity  entropy
                                   cal/mol     cal/K/mol   cal/K/mol   J/K/mol
 298.15  VIB  0.991E+18            19702.839    103.873    131.068
         ROT  0.163E+08              888.752      2.981     35.988
         INT  0.162E+26            20591.591    106.853    167.056
         TR   0.618E+28             1481.254      4.968     43.384
         TOT                       22072.8453   111.8216   210.4404   880.4826

       T/K    H(0)-H(T)+PV         H(T)/Eh          T*S/Eh         G(T)/Eh
   ------------------------------------------------------------------------
    298.15    0.351753E-01    0.473929E+00    0.999870E-01    0.373942E+00
   ------------------------------------------------------------------------

         :::::::::::::::::::::::::::::::::::::::::::::::::::::
         ::                  THERMODYNAMIC                  ::
         :::::::::::::::::::::::::::::::::::::::::::::::::::::
         :: total free energy         -80.560387581348 Eh   ::
         ::.................................................::
         :: total energy              -80.934329720379 Eh   ::
         :: zero point energy           0.438753839081 Eh   ::
         :: G(RRHO) w/o ZPVE           -0.064811700049 Eh   ::
         :: G(RRHO) contrib.            0.373942139032 Eh   ::
         :::::::::::::::::::::::::::::::::::::::::::::::::::::

           -------------------------------------------------
          | TOTAL ENERGY              -80.934329720379 Eh   |
          | TOTAL ENTHALPY            -80.460400563277 Eh   |
          | TOTAL FREE ENERGY         -80.560387581348 Eh   |
          | GRADIENT NORM               0.000051666746 Eh/α |
          | HOMO-LUMO GAP               5.783274882589 eV   |
           -------------------------------------------------

------------------------------------------------------------------------
 * finished run on 2024/01/10 at 15:37:24.377     
------------------------------------------------------------------------
 total:
 * wall-time:     0 d,  0 h,  0 min, 14.494 sec
 *  cpu-time:     0 d,  0 h,  0 min, 14.382 sec
 * ratio c/w:     0.992 speedup
 SCF:
 * wall-time:     0 d,  0 h,  0 min,  0.085 sec
 *  cpu-time:     0 d,  0 h,  0 min,  0.057 sec
 * ratio c/w:     0.663 speedup
 analytical hessian:
 * wall-time:     0 d,  0 h,  0 min, 14.382 sec
 *  cpu-time:     0 d,  0 h,  0 min, 14.298 sec
 * ratio c/w:     0.994 speedup

