      -----------------------------------------------------------      
     |                   =====================                   |     
     |                           x T B                           |     
     |                   =====================                   |     
     |                         S. Grimme                         |     
     |          Mulliken Center for Theoretical Chemistry        |     
     |                    University of Bonn                     |     
      -----------------------------------------------------------      

   * xtb version 6.6.1 (unknown-commit) compiled by '@Linux' on 12/27/2023

   xtb is free software: you can redistribute it and/or modify it under
   the terms of the GNU Lesser General Public License as published by
   the Free Software Foundation, either version 3 of the License, or
   (at your option) any later version.
   
   xtb is distributed in the hope that it will be useful,
   but WITHOUT ANY WARRANTY; without even the implied warranty of
   MERCHANTABILITY or FITNESS FOR A PARTICULAR PURPOSE.  See the
   GNU Lesser General Public License for more details.
   
   Cite this work as:
   * C. Bannwarth, E. Caldeweyher, S. Ehlert, A. Hansen, P. Pracht,
     J. Seibert, S. Spicher, S. Grimme, WIREs Comput. Mol. Sci., 2020, 11,
     e01493. DOI: 10.1002/wcms.1493
   
   for GFN2-xTB:
   * C. Bannwarth, S. Ehlert and S. Grimme., J. Chem. Theory Comput., 2019,
     15, 1652-1671. DOI: 10.1021/acs.jctc.8b01176
   for GFN1-xTB:
   * S. Grimme, C. Bannwarth, P. Shushkov, J. Chem. Theory Comput., 2017,
     13, 1989-2009. DOI: 10.1021/acs.jctc.7b00118
   for GFN0-xTB:
   * P. Pracht, E. Caldeweyher, S. Ehlert, S. Grimme, ChemRxiv, 2019, preprint.
     DOI: 10.26434/chemrxiv.8326202.v1
   for GFN-FF:
   * S. Spicher and S. Grimme, Angew. Chem. Int. Ed., 2020, 59, 15665-15673.
     DOI: 10.1002/anie.202004239
   
   for ALPB and GBSA implicit solvation:
   * S. Ehlert, M. Stahn, S. Spicher, S. Grimme, J. Chem. Theory Comput.,
     2021, 17, 4250-4261. DOI: 10.1021/acs.jctc.1c00471
   
   for DFT-D4:
   * E. Caldeweyher, C. Bannwarth and S. Grimme, J. Chem. Phys., 2017,
     147, 034112. DOI: 10.1063/1.4993215
   * E. Caldeweyher, S. Ehlert, A. Hansen, H. Neugebauer, S. Spicher,
     C. Bannwarth and S. Grimme, J. Chem. Phys., 2019, 150, 154122.
     DOI: 10.1063/1.5090222
   * E. Caldeweyher, J.-M. Mewes, S. Ehlert and S. Grimme, Phys. Chem. Chem. Phys.
     2020, 22, 8499-8512. DOI: 10.1039/D0CP00502A
   
   for sTDA-xTB:
   * S. Grimme and C. Bannwarth, J. Chem. Phys., 2016, 145, 054103.
     DOI: 10.1063/1.4959605
   
   in the mass-spec context:
   * V. Asgeirsson, C. Bauer and S. Grimme, Chem. Sci., 2017, 8, 4879.
     DOI: 10.1039/c7sc00601b
   * J. Koopman and S. Grimme, ACS Omega 2019, 4, 12, 15120-15133.
     DOI: 10.1021/acsomega.9b02011
   
   for metadynamics refer to:
   * S. Grimme, J. Chem. Theory Comput., 2019, 155, 2847-2862
     DOI: 10.1021/acs.jctc.9b00143
   
   for SPH calculations refer to:
   * S. Spicher and S. Grimme, J. Chem. Theory Comput., 2021, 17, 1701-1714
     DOI: 10.1021/acs.jctc.0c01306
   
   with help from (in alphabetical order)
   P. Atkinson, C. Bannwarth, F. Bohle, G. Brandenburg, E. Caldeweyher
   M. Checinski, S. Dohm, S. Ehlert, S. Ehrlich, I. Gerasimov, C. Hölzer
   A. Katbashev, J. Koopman, C. Lavigne, S. Lehtola, F. März, M. Müller,
   F. Musil, H. Neugebauer, J. Pisarek, C. Plett, P. Pracht, F. Pultar,
   J. Seibert, P. Shushkov, S. Spicher, M. Stahn, M. Steiner, T. Strunk,
   J. Stückrath, T. Rose, and J. Unsleber
   
 * started run on 2024/01/10 at 15:43:11.726     

           -------------------------------------------------
          |                Calculation Setup                |
           -------------------------------------------------

          program call               : xtb struc.xyz --gfn2 --hess
          hostname                   : swaroop
          coordinate file            : struc.xyz
          omp threads                :                     1

   ID    Z sym.   atoms
    1    8 O      1, 23, 31, 39, 47
    2    6 C      2, 5, 9, 13, 17, 22, 30, 38, 46
    3    1 H      3, 4, 6, 7, 10-12, 14-16, 18-21, 25, 26, 28, 29, 33, 34,
                  36, 37, 41, 42, 44, 45, 49, 50, 52, 53
    4    7 N      8, 24, 27, 32, 35, 40, 43, 48, 51

molecular fragmentation (1/2 indicates fragments):
11111111111111111111122222222222222222222222222222222
# atoms in fragment 1/2:    21    32
 fragment masses (1/2) :      104.17      240.22
CMA distance (Bohr)    :   8.011
constraining FC (au)   :  0.0500

           -------------------------------------------------
          |                 G F N 2 - x T B                 |
           -------------------------------------------------

        Reference                      10.1021/acs.jctc.8b01176
      * Hamiltonian:
        H0-scaling (s, p, d)           1.850000    2.230000    2.230000
        zeta-weighting                 0.500000
      * Dispersion:
        s8                             2.700000
        a1                             0.520000
        a2                             5.000000
        s9                             5.000000
      * Repulsion:
        kExp                           1.500000    1.000000
        rExp                           1.000000
      * Coulomb:
        alpha                          2.000000
        third order                    shell-resolved
        anisotropic                    true
        a3                             3.000000
        a5                             4.000000
        cn-shift                       1.200000
        cn-exp                         4.000000
        max-rad                        5.000000


          ...................................................
          :                      SETUP                      :
          :.................................................:
          :  # basis functions                 122          :
          :  # atomic orbitals                 122          :
          :  # shells                           76          :
          :  # electrons                       140          :
          :  max. iterations                   250          :
          :  Hamiltonian                  GFN2-xTB          :
          :  restarted?                      false          :
          :  GBSA solvation                  false          :
          :  PC potential                    false          :
          :  electronic temp.          300.0000000     K    :
          :  accuracy                    1.0000000          :
          :  -> integral cutoff          0.2500000E+02      :
          :  -> integral neglect         0.1000000E-07      :
          :  -> SCF convergence          0.1000000E-05 Eh   :
          :  -> wf. convergence          0.1000000E-03 e    :
          :  Broyden damping             0.4000000          :
          ...................................................

 iter      E             dE          RMSdq      gap      omega  full diag
   1    -81.5449963 -0.815450E+02  0.430E+00    5.11       0.0  T
   2    -81.8383806 -0.293384E+00  0.232E+00    5.92       1.0  T
   3    -81.8440916 -0.571098E-02  0.114E+00    5.68       1.0  T
   4    -81.8454695 -0.137795E-02  0.240E-01    5.77       1.0  T
   5    -81.8463698 -0.900291E-03  0.913E-02    5.68       1.0  T
   6    -81.8463938 -0.239958E-04  0.253E-02    5.68       1.0  T
   7    -81.8463987 -0.491907E-05  0.728E-03    5.68       1.9  T
   8    -81.8463990 -0.237882E-06  0.257E-03    5.68       5.3  T
   9    -81.8463990 -0.230454E-07  0.888E-04    5.68      15.5  T
  10    -81.8463990 -0.706960E-08  0.186E-04    5.68      73.8  T

   *** convergence criteria satisfied after 10 iterations ***

         #    Occupation            Energy/Eh            Energy/eV
      -------------------------------------------------------------
         1        2.0000           -0.7914869             -21.5375
       ...           ...                  ...                  ...
        64        2.0000           -0.4873989             -13.2628
        65        2.0000           -0.4863813             -13.2351
        66        2.0000           -0.4832003             -13.1485
        67        2.0000           -0.4829591             -13.1420
        68        2.0000           -0.4802546             -13.0684
        69        2.0000           -0.4773702             -12.9899
        70        2.0000           -0.4757362             -12.9454 (HOMO)
        71                         -0.2671412              -7.2693 (LUMO)
        72                         -0.2546245              -6.9287
        73                         -0.2502915              -6.8108
        74                         -0.2501905              -6.8080
        75                         -0.1474088              -4.0112
       ...                                ...                  ...
       122                          0.5757160              15.6660
      -------------------------------------------------------------
                  HL-Gap            0.2085950 Eh            5.6762 eV
             Fermi-level           -0.3714387 Eh          -10.1074 eV

 SCC (total)                   0 d,  0 h,  0 min,  0.095 sec
 SCC setup                      ...        0 min,  0.000 sec (  0.307%)
 Dispersion                     ...        0 min,  0.001 sec (  0.636%)
 classical contributions        ...        0 min,  0.000 sec (  0.195%)
 integral evaluation            ...        0 min,  0.007 sec (  7.607%)
 iterations                     ...        0 min,  0.060 sec ( 63.507%)
 molecular gradient             ...        0 min,  0.026 sec ( 27.433%)
 printout                       ...        0 min,  0.000 sec (  0.303%)

         :::::::::::::::::::::::::::::::::::::::::::::::::::::
         ::                     SUMMARY                     ::
         :::::::::::::::::::::::::::::::::::::::::::::::::::::
         :: total energy             -80.931589226548 Eh    ::
         :: gradient norm              0.000178201486 Eh/a0 ::
         :: HOMO-LUMO gap              5.676158673884 eV    ::
         ::.................................................::
         :: SCC energy               -81.846399004450 Eh    ::
         :: -> isotropic ES            0.291783115654 Eh    ::
         :: -> anisotropic ES         -0.029260842610 Eh    ::
         :: -> anisotropic XC          0.020954805799 Eh    ::
         :: -> dispersion             -0.040069339381 Eh    ::
         :: repulsion energy           0.914446065522 Eh    ::
         :: add. restraining           0.000000000000 Eh    ::
         :: total charge               1.000000000000 e     ::
         :::::::::::::::::::::::::::::::::::::::::::::::::::::

           ------------------------------------------------- 
          |                Numerical Hessian                |
           ------------------------------------------------- 
step length          :   0.00500
SCC accuracy         :   0.30000
Hessian scale factor :   1.00000
frozen atoms in %    :   0.00000    0
RMS gradient         :   0.00018
estimated CPU  time      0.22 min
estimated wall time      0.22 min

writing file <hessian>.

 projected vibrational frequencies (cm⁻¹)
eigval :       -0.00    -0.00    -0.00    -0.00     0.00     0.00
eigval :        9.74    12.38    12.86    18.04    23.06    30.95
eigval :       31.36    37.87    40.01    44.72    49.43    54.43
eigval :       65.69    76.24    77.93    82.49    94.72   104.23
eigval :      112.65   119.35   124.84   136.60   145.27   150.27
eigval :      184.47   243.87   249.44   253.51   277.55   282.16
eigval :      292.15   299.51   304.75   323.13   347.83   357.01
eigval :      368.65   385.90   417.78   436.50   438.70   446.61
eigval :      457.59   463.69   466.81   470.27   475.44   480.59
eigval :      484.44   500.96   505.81   532.84   539.92   542.70
eigval :      545.12   564.44   581.42   633.82   637.09   670.96
eigval :      674.76   676.59   678.59   716.48   762.81   808.41
eigval :      911.23   932.17   950.68   964.65   971.49   989.42
eigval :      996.89   997.04  1009.82  1012.59  1014.89  1024.53
eigval :     1026.19  1036.34  1038.90  1083.51  1086.54  1091.32
eigval :     1097.70  1105.03  1110.90  1129.44  1171.79  1226.85
eigval :     1250.42  1274.88  1314.76  1336.64  1343.23  1354.20
eigval :     1355.34  1361.20  1366.55  1386.07  1401.69  1413.88
eigval :     1423.52  1436.02  1444.22  1446.02  1447.00  1455.42
eigval :     1457.05  1458.86  1460.35  1462.57  1474.33  1475.09
eigval :     1485.03  1496.78  1498.36  1502.18  1528.28  1668.96
eigval :     1713.00  1722.98  1724.80  2893.44  2952.69  2990.52
eigval :     2995.12  3015.31  3031.41  3042.34  3043.57  3045.69
eigval :     3047.66  3051.81  3052.68  3057.70  3067.69  3261.77
eigval :     3380.87  3397.74  3435.55  3495.55  3496.98  3497.23
eigval :     3499.51  3523.68  3535.89  3541.79  3557.31  3558.76
eigval :     3562.11  3562.59  3564.47
           -------------------------------------------------
          |                Property Printout                |
           -------------------------------------------------

    * Orbital Energies and Occupations

         #    Occupation            Energy/Eh            Energy/eV
      -------------------------------------------------------------
         1        2.0000           -0.7914864             -21.5374
       ...           ...                  ...                  ...
        58        2.0000           -0.5052293             -13.7480
        59        2.0000           -0.5007029             -13.6248
        60        2.0000           -0.4973660             -13.5340
        61        2.0000           -0.4957657             -13.4905
        62        2.0000           -0.4940376             -13.4434
        63        2.0000           -0.4881592             -13.2835
        64        2.0000           -0.4874006             -13.2628
        65        2.0000           -0.4863815             -13.2351
        66        2.0000           -0.4832000             -13.1485
        67        2.0000           -0.4829612             -13.1420
        68        2.0000           -0.4802554             -13.0684
        69        2.0000           -0.4773715             -12.9899
        70        2.0000           -0.4757376             -12.9455 (HOMO)
        71                         -0.2671437              -7.2693 (LUMO)
        72                         -0.2546228              -6.9286
        73                         -0.2502948              -6.8109
        74                         -0.2501929              -6.8081
        75                         -0.1474083              -4.0112
        76                         -0.0976741              -2.6578
        77                         -0.0847792              -2.3070
        78                         -0.0819640              -2.2304
        79                         -0.0773049              -2.1036
        80                         -0.0673901              -1.8338
        81                         -0.0658777              -1.7926
       ...                                ...                  ...
       122                          0.5757154              15.6660
      -------------------------------------------------------------
                  HL-Gap            0.2085939 Eh            5.6761 eV
             Fermi-level           -0.3714406 Eh          -10.1074 eV

     #   Z          covCN         q      C6AA      α(0)
     1   8 O        1.652    -0.484    22.559     6.412
     2   6 C        3.673     0.067    19.677     6.357
     3   1 H        0.924     0.080     1.983     2.202
     4   1 H        0.923     0.037     2.486     2.465
     5   6 C        3.767    -0.062    21.732     6.644
     6   1 H        0.924     0.130     1.536     1.938
     7   1 H        0.924     0.068     2.108     2.270
     8   7 N        3.623     0.155    18.622     6.409
     9   6 C        3.732    -0.110    22.691     6.799
    10   1 H        0.925     0.135     1.496     1.912
    11   1 H        0.925     0.080     1.984     2.203
    12   1 H        0.925     0.083     1.945     2.181
    13   6 C        3.720    -0.112    22.766     6.815
    14   1 H        0.925     0.085     1.927     2.171
    15   1 H        0.925     0.079     1.993     2.207
    16   1 H        0.925     0.141     1.455     1.886
    17   6 C        3.726    -0.110    22.717     6.805
    18   1 H        0.925     0.124     1.584     1.968
    19   1 H        0.925     0.121     1.608     1.983
    20   1 H        0.925     0.079     1.988     2.205
    21   1 H        0.801     0.338     0.617     1.234
    22   6 C        2.675     0.347    21.106     7.518
    23   8 O        0.860    -0.513    24.082     6.580
    24   7 N        2.645    -0.288    27.431     7.779
    25   1 H        0.860     0.201     1.101     1.644
    26   1 H        0.861     0.187     1.173     1.697
    27   7 N        2.645    -0.289    27.450     7.781
    28   1 H        0.861     0.187     1.173     1.697
    29   1 H        0.860     0.201     1.102     1.645
    30   6 C        2.675     0.340    21.226     7.539
    31   8 O        0.860    -0.536    24.597     6.649
    32   7 N        2.650    -0.295    27.601     7.803
    33   1 H        0.860     0.200     1.104     1.646
    34   1 H        0.860     0.223     0.996     1.563
    35   7 N        2.650    -0.292    27.541     7.794
    36   1 H        0.860     0.225     0.985     1.555
    37   1 H        0.861     0.192     1.145     1.676
    38   6 C        2.675     0.345    21.148     7.525
    39   8 O        0.860    -0.522    24.278     6.606
    40   7 N        2.644    -0.294    27.574     7.799
    41   1 H        0.860     0.198     1.115     1.654
    42   1 H        0.861     0.180     1.213     1.726
    43   7 N        2.644    -0.309    27.957     7.853
    44   1 H        0.861     0.174     1.250     1.751
    45   1 H        0.860     0.228     0.973     1.546
    46   6 C        2.675     0.345    21.145     7.525
    47   8 O        0.860    -0.533    24.525     6.640
    48   7 N        2.645    -0.298    27.673     7.813
    49   1 H        0.860     0.193     1.144     1.675
    50   1 H        0.861     0.179     1.222     1.732
    51   7 N        2.644    -0.310    27.993     7.858
    52   1 H        0.860     0.171     1.265     1.762
    53   1 H        0.860     0.240     0.924     1.506

 Mol. C6AA /au·bohr⁶  :      21801.068401
 Mol. C8AA /au·bohr⁸  :     454305.259603
 Mol. α(0) /au        :        220.601642


Wiberg/Mayer (AO) data.
largest (>0.10) Wiberg bond orders for each atom

 ---------------------------------------------------------------------------
     #   Z sym  total        # sym  WBO       # sym  WBO       # sym  WBO
 ---------------------------------------------------------------------------
     1   8 O    1.955 --     2 C    1.017    21 H    0.794
     2   6 C    3.962 --     1 O    1.017     5 C    0.993     4 H    0.965
                             3 H    0.956
     3   1 H    0.994 --     2 C    0.956
     4   1 H    0.998 --     2 C    0.965
     5   6 C    3.928 --     2 C    0.993     7 H    0.971     6 H    0.947
                             8 N    0.933
     6   1 H    0.983 --     5 C    0.947
     7   1 H    0.995 --     5 C    0.971
     8   7 N    3.821 --    13 C    0.959     9 C    0.958    17 C    0.953
                             5 C    0.933
     9   6 C    3.925 --    11 H    0.979    12 H    0.977     8 N    0.958
                            10 H    0.953
    10   1 H    0.982 --     9 C    0.953
    11   1 H    0.994 --     9 C    0.979
    12   1 H    0.993 --     9 C    0.977
    13   6 C    3.923 --    15 H    0.979    14 H    0.977     8 N    0.959
                            16 H    0.949
    14   1 H    0.993 --    13 C    0.977
    15   1 H    0.994 --    13 C    0.979
    16   1 H    0.980 --    13 C    0.949
    17   6 C    3.915 --    20 H    0.979    19 H    0.965    18 H    0.963
                             8 N    0.953
    18   1 H    0.985 --    17 C    0.963
    19   1 H    0.985 --    17 C    0.965
    20   1 H    0.994 --    17 C    0.979
    21   1 H    0.886 --     1 O    0.794
    22   6 C    3.959 --    23 O    1.535    24 N    1.208    27 N    1.207
    23   8 O    1.918 --    22 C    1.535    24 N    0.143    27 N    0.143
    24   7 N    3.323 --    22 C    1.208    26 H    0.946    25 H    0.943
                            23 O    0.143
    25   1 H    0.960 --    24 N    0.943
    26   1 H    0.965 --    24 N    0.946
    27   7 N    3.321 --    22 C    1.207    28 H    0.946    29 H    0.943
                            23 O    0.143
    28   1 H    0.965 --    27 N    0.946
    29   1 H    0.960 --    27 N    0.943
    30   6 C    3.960 --    31 O    1.455    32 N    1.249    35 N    1.249
    31   8 O    1.924 --    30 C    1.455    32 N    0.133    35 N    0.132
    32   7 N    3.348 --    30 C    1.249    33 H    0.939    34 H    0.913
                            31 O    0.133
    33   1 H    0.960 --    32 N    0.939
    34   1 H    0.950 --    32 N    0.913
    35   7 N    3.347 --    30 C    1.249    37 H    0.945    36 H    0.907
                            31 O    0.132
    36   1 H    0.949 --    35 N    0.907
    37   1 H    0.963 --    35 N    0.945
    38   6 C    3.959 --    39 O    1.539    43 N    1.216    40 N    1.197
    39   8 O    1.900 --    38 C    1.539    43 N    0.147    40 N    0.140
    40   7 N    3.312 --    38 C    1.197    42 H    0.949    41 H    0.944
                            39 O    0.140
    41   1 H    0.961 --    40 N    0.944
    42   1 H    0.967 --    40 N    0.949
    43   7 N    3.315 --    38 C    1.216    44 H    0.950    45 H    0.902
                            39 O    0.147
    44   1 H    0.970 --    43 N    0.950
    45   1 H    0.948 --    43 N    0.902
    46   6 C    3.959 --    47 O    1.523    51 N    1.238    48 N    1.189
    47   8 O    1.886 --    46 C    1.523    51 N    0.146    48 N    0.136
    48   7 N    3.304 --    46 C    1.189    50 H    0.949    49 H    0.946
                            47 O    0.136
    49   1 H    0.963 --    48 N    0.946
    50   1 H    0.968 --    48 N    0.949
    51   7 N    3.324 --    46 C    1.238    52 H    0.951    53 H    0.877
                            47 O    0.146
    52   1 H    0.970 --    51 N    0.951
    53   1 H    0.942 --    51 N    0.877
 ---------------------------------------------------------------------------

Topologies differ in total number of bonds
Writing topology from bond orders to xtbtopo.mol

molecular dipole:
                 x           y           z       tot (Debye)
 q only:        0.431       0.249      -0.211
   full:        0.944       1.082      -0.365       3.766
molecular quadrupole (traceless):
                xx          xy          yy          xz          yz          zz
 q only:       -0.887      50.764      19.233      -6.499     -38.783     -18.346
  q+dip:        1.011      55.816      16.702      -5.261     -44.220     -17.712
   full:        0.693      55.097      17.223      -5.596     -43.809     -17.916

           -------------------------------------------------
          |               Frequency Printout                |
           -------------------------------------------------
 projected vibrational frequencies (cm⁻¹)
eigval :       -0.00    -0.00    -0.00    -0.00     0.00     0.00
eigval :        9.74    12.38    12.86    18.04    23.06    30.95
eigval :       31.36    37.87    40.01    44.72    49.43    54.43
eigval :       65.69    76.24    77.93    82.49    94.72   104.23
eigval :      112.65   119.35   124.84   136.60   145.27   150.27
eigval :      184.47   243.87   249.44   253.51   277.55   282.16
eigval :      292.15   299.51   304.75   323.13   347.83   357.01
eigval :      368.65   385.90   417.78   436.50   438.70   446.61
eigval :      457.59   463.69   466.81   470.27   475.44   480.59
eigval :      484.44   500.96   505.81   532.84   539.92   542.70
eigval :      545.12   564.44   581.42   633.82   637.09   670.96
eigval :      674.76   676.59   678.59   716.48   762.81   808.41
eigval :      911.23   932.17   950.68   964.65   971.49   989.42
eigval :      996.89   997.04  1009.82  1012.59  1014.89  1024.53
eigval :     1026.19  1036.34  1038.90  1083.51  1086.54  1091.32
eigval :     1097.70  1105.03  1110.90  1129.44  1171.79  1226.85
eigval :     1250.42  1274.88  1314.76  1336.64  1343.23  1354.20
eigval :     1355.34  1361.20  1366.55  1386.07  1401.69  1413.88
eigval :     1423.52  1436.02  1444.22  1446.02  1447.00  1455.42
eigval :     1457.05  1458.86  1460.35  1462.57  1474.33  1475.09
eigval :     1485.03  1496.78  1498.36  1502.18  1528.28  1668.96
eigval :     1713.00  1722.98  1724.80  2893.44  2952.69  2990.52
eigval :     2995.12  3015.31  3031.41  3042.34  3043.57  3045.69
eigval :     3047.66  3051.81  3052.68  3057.70  3067.69  3261.77
eigval :     3380.87  3397.74  3435.55  3495.55  3496.98  3497.23
eigval :     3499.51  3523.68  3535.89  3541.79  3557.31  3558.76
eigval :     3562.11  3562.59  3564.47
 reduced masses (amu)
   1: 12.67   2: 12.52   3: 12.27   4: 12.54   5: 12.52   6: 12.72   7: 11.64   8: 12.42
   9: 11.04  10: 12.12  11: 12.51  12: 12.58  13: 12.20  14: 12.83  15: 13.14  16: 13.09
  17: 12.34  18: 12.39  19: 12.93  20: 13.85  21: 13.02  22: 12.82  23: 11.81  24: 13.13
  25: 11.43  26: 12.27  27: 12.37  28: 11.37  29: 11.65  30: 10.37  31: 12.62  32:  4.06
  33:  3.40  34:  3.61  35:  2.87  36: 11.12  37:  5.24  38:  3.02  39:  5.71  40:  2.11
  41:  7.98  42:  3.75  43:  7.92  44:  3.31  45:  3.13  46:  8.65  47:  2.40  48:  1.86
  49:  8.36  50:  4.69  51:  7.04  52:  6.04  53:  8.04  54:  3.78  55:  8.28  56:  3.53
  57:  9.15  58:  9.32  59: 10.93  60: 10.10  61: 10.01  62: 11.87  63:  1.09  64:  3.70
  65:  2.03  66: 11.43  67: 11.57  68: 11.72  69: 10.15  70:  2.94  71:  9.37  72:  1.90
  73:  7.91  74:  7.38  75:  5.16  76:  5.07  77:  4.94  78:  5.07  79:  7.64  80:  8.82
  81:  9.51  82:  7.67  83:  9.22  84:  6.99  85:  7.80  86:  7.71  87:  2.95  88:  9.55
  89:  7.88  90:  8.32  91:  8.14  92:  4.62  93:  9.12  94:  7.42  95:  3.13  96:  5.74
  97:  6.57  98:  7.93  99:  6.17 100:  3.28 101:  3.92 102:  6.02 103:  5.42 104:  4.72
 105:  5.72 106:  3.22 107:  2.45 108:  2.48 109:  2.12 110:  2.25 111:  3.04 112:  1.66
 113:  1.82 114:  1.83 115:  3.10 116:  2.20 117:  2.61 118:  2.96 119:  1.68 120:  1.59
 121:  1.62 122:  8.10 123:  7.79 124:  7.94 125: 10.23 126: 12.61 127: 12.77 128: 12.81
 129: 12.77 130:  1.74 131:  1.74 132:  1.73 133:  1.76 134:  1.92 135:  1.70 136:  1.87
 137:  1.59 138:  1.76 139:  1.66 140:  1.62 141:  1.92 142:  1.69 143:  1.76 144:  1.76
 145:  1.67 146:  1.63 147:  1.58 148:  1.44 149:  1.45 150:  1.45 151:  1.46 152:  1.92
 153:  1.99 154:  2.08 155:  2.03 156:  2.19 157:  2.18 158:  2.18 159:  2.18
 IR intensities (km·mol⁻¹)
   1:  1.66   2:  2.04   3:  0.19   4:  1.36   5:  1.01   6:  2.54   7:  0.85   8:  1.31
   9:  0.09  10:  2.83  11:  0.42  12:  0.93  13:  2.55  14:  6.37  15:  0.34  16:  1.44
  17:  2.74  18:  3.53  19: 10.87  20:  2.92  21:  3.15  22:  0.35  23: 13.36  24: 17.39
  25: 18.45  26:  2.54  27: 13.70  28: 22.44  29:  2.36  30: 15.62  31: 12.11  32:  4.63
  33:  1.19  34: 18.49  35:120.70  36:  2.61  37:  8.74  38:168.05  39:  8.18  40:  2.41
  41:  6.66  42:368.61  43:  2.38  44:223.28  45:139.02  46:  1.63  47:628.34  48:  5.83
  49:  3.68  50:  5.67  51: 34.71  52: 12.04  53:  1.60  54: 16.25  55: 19.63  56: 74.36
  57: 77.06  58: 55.78  59: 17.50  60: 21.29  61:  0.45  62: 40.00  63:  1.64  64: 62.69
  65:118.38  66: 33.09  67: 18.34  68: 52.56  69: 83.56  70:201.90  71:  4.25  72:337.73
  73:  2.26  74:  8.60  75:  1.98  76:  2.40  77:  0.13  78: 11.14  79: 25.17  80:  0.57
  81:  0.76  82: 25.89  83: 19.36  84: 17.21  85: 19.66  86:  8.11  87:  0.80  88:  0.68
  89: 31.09  90:  2.00  91:  2.07  92: 22.43  93:  0.66  94: 24.26  95: 33.93  96:  1.80
  97:  7.13  98:  5.43  99:  1.47 100:  2.67 101: 45.66 102: 72.30 103:117.61 104: 50.48
 105:155.55 106: 99.22 107: 35.44 108:  4.96 109:  8.70 110: 22.48 111: 32.19 112:  0.66
 113:  4.27 114:  8.60 115:  7.94 116: 22.30 117: 10.22 118:  1.59 119: 21.52 120: 25.35
 121: 46.61 122:339.56 123:628.29 124:580.03 125:489.08 126:****** 127:696.61 128:******
 129:317.69 130: 36.10 131: 14.77 132: 87.07 133: 25.67 134:****** 135:149.69 136:  7.56
 137: 16.70 138:  4.02 139: 29.19 140: 35.44 141: 17.68 142: 27.74 143: 55.91 144:******
 145:313.21 146: 92.62 147:347.38 148: 39.84 149: 18.18 150: 14.37 151:  4.61 152: 11.25
 153: 19.74 154: 73.03 155: 45.15 156: 16.72 157:  6.65 158: 12.38 159: 18.59
 Raman intensities (amu)
Molecule has no symmetry elements
It seems to be the C1 point group
   1:  0.00   2:  0.00   3:  0.00   4:  0.00   5:  0.00   6:  0.00   7:  0.00   8:  0.00
   9:  0.00  10:  0.00  11:  0.00  12:  0.00  13:  0.00  14:  0.00  15:  0.00  16:  0.00
  17:  0.00  18:  0.00  19:  0.00  20:  0.00  21:  0.00  22:  0.00  23:  0.00  24:  0.00
  25:  0.00  26:  0.00  27:  0.00  28:  0.00  29:  0.00  30:  0.00  31:  0.00  32:  0.00
  33:  0.00  34:  0.00  35:  0.00  36:  0.00  37:  0.00  38:  0.00  39:  0.00  40:  0.00
  41:  0.00  42:  0.00  43:  0.00  44:  0.00  45:  0.00  46:  0.00  47:  0.00  48:  0.00
  49:  0.00  50:  0.00  51:  0.00  52:  0.00  53:  0.00  54:  0.00  55:  0.00  56:  0.00
  57:  0.00  58:  0.00  59:  0.00  60:  0.00  61:  0.00  62:  0.00  63:  0.00  64:  0.00
  65:  0.00  66:  0.00  67:  0.00  68:  0.00  69:  0.00  70:  0.00  71:  0.00  72:  0.00
  73:  0.00  74:  0.00  75:  0.00  76:  0.00  77:  0.00  78:  0.00  79:  0.00  80:  0.00
  81:  0.00  82:  0.00  83:  0.00  84:  0.00  85:  0.00  86:  0.00  87:  0.00  88:  0.00
  89:  0.00  90:  0.00  91:  0.00  92:  0.00  93:  0.00  94:  0.00  95:  0.00  96:  0.00
  97:  0.00  98:  0.00  99:  0.00 100:  0.00 101:  0.00 102:  0.00 103:  0.00 104:  0.00
 105:  0.00 106:  0.00 107:  0.00 108:  0.00 109:  0.00 110:  0.00 111:  0.00 112:  0.00
 113:  0.00 114:  0.00 115:  0.00 116:  0.00 117:  0.00 118:  0.00 119:  0.00 120:  0.00
 121:  0.00 122:  0.00 123:  0.00 124:  0.00 125:  0.00 126:  0.00 127:  0.00 128:  0.00
 129:  0.00 130:  0.00 131:  0.00 132:  0.00 133:  0.00 134:  0.00 135:  0.00 136:  0.00
 137:  0.00 138:  0.00 139:  0.00 140:  0.00 141:  0.00 142:  0.00 143:  0.00 144:  0.00
 145:  0.00 146:  0.00 147:  0.00 148:  0.00 149:  0.00 150:  0.00 151:  0.00 152:  0.00
 153:  0.00 154:  0.00 155:  0.00 156:  0.00 157:  0.00 158:  0.00 159:  0.00
 output can be read by thermo (or use thermo option).
 writing <g98.out> molden fake output.
 recommended (thermochemical) frequency scaling factor: 1.0
           -------------------------------------------------
          |             Thermodynamic Functions             |
           -------------------------------------------------

c1  symmetry found (for desy threshold:  0.10E+00) used in thermo

          ...................................................
          :                      SETUP                      :
          :.................................................:
          :  # frequencies                         153      :
          :  # imaginary freq.                       0      :
          :  linear?                             false      :
          :  only rotor calc.                    false      :
          :  symmetry                               c1      :
          :  rotational number                       1      :
          :  scaling factor                  1.0000000      :
          :  rotor cutoff                   50.0000000 cm⁻¹ :
          :  imag. cutoff                  -20.0000000 cm⁻¹ :
          :.................................................:

    mode    ω/cm⁻¹     T·S(HO)/kcal·mol⁻¹    T·S(FR)/kcal·mol⁻¹   T·S(vib)
   ------------------------------------------------------------------------
       1      9.74    -2.40391 (  0.14%)    -1.54093 ( 99.86%)    -1.54218
       2     12.38    -2.26185 (  0.37%)    -1.46991 ( 99.63%)    -1.47288
       3     12.86    -2.23941 (  0.44%)    -1.45869 ( 99.56%)    -1.46210
       4     18.04    -2.03900 (  1.67%)    -1.35847 ( 98.33%)    -1.36981
       5     23.06    -1.89381 (  4.33%)    -1.28582 ( 95.67%)    -1.31212
       6     30.95    -1.71951 ( 12.81%)    -1.19856 ( 87.19%)    -1.26529
       7     31.36    -1.71179 ( 13.40%)    -1.19469 ( 86.60%)    -1.26400
       8     37.87    -1.60036 ( 24.76%)    -1.13886 ( 75.24%)    -1.25310
       9     40.01    -1.56789 ( 29.07%)    -1.12258 ( 70.93%)    -1.25204
      10     44.72    -1.50212 ( 39.02%)    -1.08958 ( 60.98%)    -1.25057
      11     49.43    -1.44308 ( 48.85%)    -1.05993 ( 51.15%)    -1.24710
      12     54.43    -1.38622 ( 58.42%)    -1.03136 ( 41.58%)    -1.23866
      13     65.69    -1.27566 ( 74.87%)    -0.97569 ( 25.13%)    -1.20027
      14     76.24    -1.18826 ( 84.39%)    -0.93157 ( 15.61%)    -1.14818
      15     77.93    -1.17544 ( 85.51%)    -0.92509 ( 14.49%)    -1.13916
      16     82.49    -1.14214 ( 88.11%)    -0.90823 ( 11.89%)    -1.11432
      17     94.72    -1.06144 ( 92.80%)    -0.86726 (  7.20%)    -1.04745
      18    104.23    -1.00584 ( 94.97%)    -0.83892 (  5.03%)    -0.99745
      19    112.65    -0.96086 ( 96.26%)    -0.81591 (  3.74%)    -0.95544
      20    119.35    -0.92749 ( 97.01%)    -0.79879 (  2.99%)    -0.92364
      21    124.84    -0.90162 ( 97.49%)    -0.78548 (  2.51%)    -0.89871
      22    136.60    -0.85003 ( 98.24%)    -0.75882 (  1.76%)    -0.84842
      23    145.27    -0.81492 ( 98.62%)    -0.74058 (  1.38%)    -0.81389
      24    150.27    -0.79569 ( 98.79%)    -0.73055 (  1.21%)    -0.79490
      25    184.47    -0.68058 ( 99.46%)    -0.66981 (  0.54%)    -0.68052
      26    243.87    -0.52907 ( 99.82%)    -0.58712 (  0.18%)    -0.52917
      27    249.44    -0.51716 ( 99.84%)    -0.58043 (  0.16%)    -0.51726
      28    253.51    -0.50866 ( 99.85%)    -0.57563 (  0.15%)    -0.50876
      29    277.55    -0.46176 ( 99.89%)    -0.54880 (  0.11%)    -0.46185
      30    282.16    -0.45334 ( 99.90%)    -0.54391 (  0.10%)    -0.45343
      31    292.15    -0.43574 ( 99.91%)    -0.53361 (  0.09%)    -0.43582
      32    299.51    -0.42326 ( 99.92%)    -0.52623 (  0.08%)    -0.42334
   ------------------------------------------------------------------------

   temp. (K)  partition function   enthalpy   heat capacity  entropy
                                   cal/mol     cal/K/mol   cal/K/mol   J/K/mol
 298.15  VIB  0.632E+19            19845.062    102.976    132.279
         ROT  0.213E+08              888.752      2.981     36.516
         INT  0.135E+27            20733.814    105.957    168.795
         TR   0.618E+28             1481.254      4.968     43.384
         TOT                       22215.0683   110.9249   212.1790   887.7571

       T/K    H(0)-H(T)+PV         H(T)/Eh          T*S/Eh         G(T)/Eh
   ------------------------------------------------------------------------
    298.15    0.354020E-01    0.473984E+00    0.100813E+00    0.373171E+00
   ------------------------------------------------------------------------

         :::::::::::::::::::::::::::::::::::::::::::::::::::::
         ::                  THERMODYNAMIC                  ::
         :::::::::::::::::::::::::::::::::::::::::::::::::::::
         :: total free energy         -80.558418506179 Eh   ::
         ::.................................................::
         :: total energy              -80.931589226915 Eh   ::
         :: zero point energy           0.438581866327 Eh   ::
         :: G(RRHO) w/o ZPVE           -0.065411145592 Eh   ::
         :: G(RRHO) contrib.            0.373170720736 Eh   ::
         :::::::::::::::::::::::::::::::::::::::::::::::::::::

           -------------------------------------------------
          | TOTAL ENERGY              -80.931589226915 Eh   |
          | TOTAL ENTHALPY            -80.457605395774 Eh   |
          | TOTAL FREE ENERGY         -80.558418506179 Eh   |
          | GRADIENT NORM               0.000178194976 Eh/α |
          | HOMO-LUMO GAP               5.676130161386 eV   |
           -------------------------------------------------

------------------------------------------------------------------------
 * finished run on 2024/01/10 at 15:43:24.668     
------------------------------------------------------------------------
 total:
 * wall-time:     0 d,  0 h,  0 min, 12.941 sec
 *  cpu-time:     0 d,  0 h,  0 min, 12.882 sec
 * ratio c/w:     0.995 speedup
 SCF:
 * wall-time:     0 d,  0 h,  0 min,  0.095 sec
 *  cpu-time:     0 d,  0 h,  0 min,  0.055 sec
 * ratio c/w:     0.580 speedup
 analytical hessian:
 * wall-time:     0 d,  0 h,  0 min, 12.821 sec
 *  cpu-time:     0 d,  0 h,  0 min, 12.802 sec
 * ratio c/w:     0.999 speedup

