      -----------------------------------------------------------      
     |                   =====================                   |     
     |                           x T B                           |     
     |                   =====================                   |     
     |                         S. Grimme                         |     
     |          Mulliken Center for Theoretical Chemistry        |     
     |                    University of Bonn                     |     
      -----------------------------------------------------------      

   * xtb version 6.6.1 (unknown-commit) compiled by '@Linux' on 12/27/2023

   xtb is free software: you can redistribute it and/or modify it under
   the terms of the GNU Lesser General Public License as published by
   the Free Software Foundation, either version 3 of the License, or
   (at your option) any later version.
   
   xtb is distributed in the hope that it will be useful,
   but WITHOUT ANY WARRANTY; without even the implied warranty of
   MERCHANTABILITY or FITNESS FOR A PARTICULAR PURPOSE.  See the
   GNU Lesser General Public License for more details.
   
   Cite this work as:
   * C. Bannwarth, E. Caldeweyher, S. Ehlert, A. Hansen, P. Pracht,
     J. Seibert, S. Spicher, S. Grimme, WIREs Comput. Mol. Sci., 2020, 11,
     e01493. DOI: 10.1002/wcms.1493
   
   for GFN2-xTB:
   * C. Bannwarth, S. Ehlert and S. Grimme., J. Chem. Theory Comput., 2019,
     15, 1652-1671. DOI: 10.1021/acs.jctc.8b01176
   for GFN1-xTB:
   * S. Grimme, C. Bannwarth, P. Shushkov, J. Chem. Theory Comput., 2017,
     13, 1989-2009. DOI: 10.1021/acs.jctc.7b00118
   for GFN0-xTB:
   * P. Pracht, E. Caldeweyher, S. Ehlert, S. Grimme, ChemRxiv, 2019, preprint.
     DOI: 10.26434/chemrxiv.8326202.v1
   for GFN-FF:
   * S. Spicher and S. Grimme, Angew. Chem. Int. Ed., 2020, 59, 15665-15673.
     DOI: 10.1002/anie.202004239
   
   for ALPB and GBSA implicit solvation:
   * S. Ehlert, M. Stahn, S. Spicher, S. Grimme, J. Chem. Theory Comput.,
     2021, 17, 4250-4261. DOI: 10.1021/acs.jctc.1c00471
   
   for DFT-D4:
   * E. Caldeweyher, C. Bannwarth and S. Grimme, J. Chem. Phys., 2017,
     147, 034112. DOI: 10.1063/1.4993215
   * E. Caldeweyher, S. Ehlert, A. Hansen, H. Neugebauer, S. Spicher,
     C. Bannwarth and S. Grimme, J. Chem. Phys., 2019, 150, 154122.
     DOI: 10.1063/1.5090222
   * E. Caldeweyher, J.-M. Mewes, S. Ehlert and S. Grimme, Phys. Chem. Chem. Phys.
     2020, 22, 8499-8512. DOI: 10.1039/D0CP00502A
   
   for sTDA-xTB:
   * S. Grimme and C. Bannwarth, J. Chem. Phys., 2016, 145, 054103.
     DOI: 10.1063/1.4959605
   
   in the mass-spec context:
   * V. Asgeirsson, C. Bauer and S. Grimme, Chem. Sci., 2017, 8, 4879.
     DOI: 10.1039/c7sc00601b
   * J. Koopman and S. Grimme, ACS Omega 2019, 4, 12, 15120-15133.
     DOI: 10.1021/acsomega.9b02011
   
   for metadynamics refer to:
   * S. Grimme, J. Chem. Theory Comput., 2019, 155, 2847-2862
     DOI: 10.1021/acs.jctc.9b00143
   
   for SPH calculations refer to:
   * S. Spicher and S. Grimme, J. Chem. Theory Comput., 2021, 17, 1701-1714
     DOI: 10.1021/acs.jctc.0c01306
   
   with help from (in alphabetical order)
   P. Atkinson, C. Bannwarth, F. Bohle, G. Brandenburg, E. Caldeweyher
   M. Checinski, S. Dohm, S. Ehlert, S. Ehrlich, I. Gerasimov, C. Hölzer
   A. Katbashev, J. Koopman, C. Lavigne, S. Lehtola, F. März, M. Müller,
   F. Musil, H. Neugebauer, J. Pisarek, C. Plett, P. Pracht, F. Pultar,
   J. Seibert, P. Shushkov, S. Spicher, M. Stahn, M. Steiner, T. Strunk,
   J. Stückrath, T. Rose, and J. Unsleber
   
 * started run on 2024/01/10 at 15:33:55.767     

           -------------------------------------------------
          |                Calculation Setup                |
           -------------------------------------------------

          program call               : xtb struc.xyz --gfn2 --hess
          hostname                   : swaroop
          coordinate file            : struc.xyz
          omp threads                :                     1

   ID    Z sym.   atoms
    1    8 O      1, 23, 31, 39, 47
    2    6 C      2, 5, 9, 13, 17, 22, 30, 38, 46
    3    1 H      3, 4, 6, 7, 10-12, 14-16, 18-21, 25, 26, 28, 29, 33, 34,
                  36, 37, 41, 42, 44, 45, 49, 50, 52, 53
    4    7 N      8, 24, 27, 32, 35, 40, 43, 48, 51

molecular fragmentation (1/2 indicates fragments):
11111111111111111111122222222222222222222222222222222
# atoms in fragment 1/2:    21    32
 fragment masses (1/2) :      104.17      240.22
CMA distance (Bohr)    :   5.671
constraining FC (au)   :  0.0500

           -------------------------------------------------
          |                 G F N 2 - x T B                 |
           -------------------------------------------------

        Reference                      10.1021/acs.jctc.8b01176
      * Hamiltonian:
        H0-scaling (s, p, d)           1.850000    2.230000    2.230000
        zeta-weighting                 0.500000
      * Dispersion:
        s8                             2.700000
        a1                             0.520000
        a2                             5.000000
        s9                             5.000000
      * Repulsion:
        kExp                           1.500000    1.000000
        rExp                           1.000000
      * Coulomb:
        alpha                          2.000000
        third order                    shell-resolved
        anisotropic                    true
        a3                             3.000000
        a5                             4.000000
        cn-shift                       1.200000
        cn-exp                         4.000000
        max-rad                        5.000000


          ...................................................
          :                      SETUP                      :
          :.................................................:
          :  # basis functions                 122          :
          :  # atomic orbitals                 122          :
          :  # shells                           76          :
          :  # electrons                       140          :
          :  max. iterations                   250          :
          :  Hamiltonian                  GFN2-xTB          :
          :  restarted?                      false          :
          :  GBSA solvation                  false          :
          :  PC potential                    false          :
          :  electronic temp.          300.0000000     K    :
          :  accuracy                    1.0000000          :
          :  -> integral cutoff          0.2500000E+02      :
          :  -> integral neglect         0.1000000E-07      :
          :  -> SCF convergence          0.1000000E-05 Eh   :
          :  -> wf. convergence          0.1000000E-03 e    :
          :  Broyden damping             0.4000000          :
          ...................................................

 iter      E             dE          RMSdq      gap      omega  full diag
   1    -81.5507132 -0.815507E+02  0.433E+00    5.19       0.0  T
   2    -81.8385027 -0.287790E+00  0.236E+00    5.94       1.0  T
   3    -81.8443001 -0.579743E-02  0.115E+00    5.51       1.0  T
   4    -81.8456773 -0.137718E-02  0.249E-01    5.48       1.0  T
   5    -81.8466601 -0.982828E-03  0.922E-02    5.40       1.0  T
   6    -81.8466858 -0.257056E-04  0.263E-02    5.42       1.0  T
   7    -81.8466899 -0.407355E-05  0.788E-03    5.41       1.7  T
   8    -81.8466903 -0.329820E-06  0.260E-03    5.41       5.3  T
   9    -81.8466903 -0.114022E-07  0.836E-04    5.41      16.4  T
  10    -81.8466903 -0.384836E-08  0.168E-04    5.41      81.6  T

   *** convergence criteria satisfied after 10 iterations ***

         #    Occupation            Energy/Eh            Energy/eV
      -------------------------------------------------------------
         1        2.0000           -0.7929652             -21.5777
       ...           ...                  ...                  ...
        64        2.0000           -0.4951142             -13.4727
        65        2.0000           -0.4937480             -13.4356
        66        2.0000           -0.4920366             -13.3890
        67        2.0000           -0.4893927             -13.3171
        68        2.0000           -0.4806782             -13.0799
        69        2.0000           -0.4772093             -12.9855
        70        2.0000           -0.4701710             -12.7940 (HOMO)
        71                         -0.2713251              -7.3831 (LUMO)
        72                         -0.2680096              -7.2929
        73                         -0.2616399              -7.1196
        74                         -0.2443818              -6.6500
        75                         -0.1489056              -4.0519
       ...                                ...                  ...
       122                          0.5796833              15.7740
      -------------------------------------------------------------
                  HL-Gap            0.1988459 Eh            5.4109 eV
             Fermi-level           -0.3707481 Eh          -10.0886 eV

 SCC (total)                   0 d,  0 h,  0 min,  0.075 sec
 SCC setup                      ...        0 min,  0.000 sec (  0.384%)
 Dispersion                     ...        0 min,  0.001 sec (  0.771%)
 classical contributions        ...        0 min,  0.000 sec (  0.241%)
 integral evaluation            ...        0 min,  0.007 sec (  9.742%)
 iterations                     ...        0 min,  0.040 sec ( 53.261%)
 molecular gradient             ...        0 min,  0.027 sec ( 35.210%)
 printout                       ...        0 min,  0.000 sec (  0.376%)

         :::::::::::::::::::::::::::::::::::::::::::::::::::::
         ::                     SUMMARY                     ::
         :::::::::::::::::::::::::::::::::::::::::::::::::::::
         :: total energy             -80.931169835559 Eh    ::
         :: gradient norm              0.000197424685 Eh/a0 ::
         :: HOMO-LUMO gap              5.410872572511 eV    ::
         ::.................................................::
         :: SCC energy               -81.846690266127 Eh    ::
         :: -> isotropic ES            0.294127036526 Eh    ::
         :: -> anisotropic ES         -0.027172590565 Eh    ::
         :: -> anisotropic XC          0.020505476877 Eh    ::
         :: -> dispersion             -0.040989270328 Eh    ::
         :: repulsion energy           0.914683485388 Eh    ::
         :: add. restraining           0.000000000000 Eh    ::
         :: total charge               1.000000000000 e     ::
         :::::::::::::::::::::::::::::::::::::::::::::::::::::

           ------------------------------------------------- 
          |                Numerical Hessian                |
           ------------------------------------------------- 
step length          :   0.00500
SCC accuracy         :   0.30000
Hessian scale factor :   1.00000
frozen atoms in %    :   0.00000    0
RMS gradient         :   0.00020
estimated CPU  time      0.23 min
estimated wall time      0.23 min

writing file <hessian>.

 projected vibrational frequencies (cm⁻¹)
eigval :       -0.00    -0.00    -0.00     0.00     0.00     0.00
eigval :       -4.07     8.00    10.26    11.01    17.33    20.32
eigval :       31.49    34.06    39.28    41.48    50.37    56.10
eigval :       64.41    68.87    77.12    86.55    96.87   109.21
eigval :      116.44   122.31   131.38   153.45   160.84   177.89
eigval :      193.85   226.12   244.16   253.42   256.22   263.37
eigval :      274.92   303.26   310.07   339.51   356.89   365.96
eigval :      377.01   399.35   425.17   428.40   448.68   455.75
eigval :      457.54   458.39   459.55   472.49   478.89   485.88
eigval :      495.48   500.75   505.78   525.96   534.42   545.27
eigval :      550.47   559.15   565.84   635.72   668.43   674.07
eigval :      674.55   678.44   710.36   740.80   765.50   781.92
eigval :      905.30   924.91   951.31   962.16   964.82   988.21
eigval :      996.43   999.32  1014.15  1016.35  1017.40  1023.09
eigval :     1026.19  1034.27  1040.86  1083.20  1083.48  1087.82
eigval :     1092.96  1106.09  1113.93  1127.08  1168.04  1227.99
eigval :     1247.24  1273.38  1317.10  1330.51  1339.13  1350.04
eigval :     1352.69  1354.49  1368.37  1382.49  1399.32  1406.92
eigval :     1417.15  1435.00  1438.98  1442.71  1445.34  1452.29
eigval :     1454.77  1457.25  1458.05  1466.83  1470.85  1480.13
eigval :     1489.28  1495.21  1507.22  1512.13  1515.21  1663.47
eigval :     1689.97  1700.90  1728.31  2900.18  2983.83  3000.48
eigval :     3010.42  3021.38  3030.92  3033.27  3038.48  3041.68
eigval :     3042.67  3048.28  3056.04  3062.41  3184.55  3228.20
eigval :     3272.77  3390.58  3449.93  3494.65  3498.42  3499.33
eigval :     3499.63  3533.46  3537.29  3547.30  3558.32  3561.19
eigval :     3563.84  3565.89  3566.56
           -------------------------------------------------
          |                Property Printout                |
           -------------------------------------------------

    * Orbital Energies and Occupations

         #    Occupation            Energy/Eh            Energy/eV
      -------------------------------------------------------------
         1        2.0000           -0.7929644             -21.5777
       ...           ...                  ...                  ...
        58        2.0000           -0.5052317             -13.7481
        59        2.0000           -0.5031007             -13.6901
        60        2.0000           -0.5015853             -13.6488
        61        2.0000           -0.4992239             -13.5846
        62        2.0000           -0.4989780             -13.5779
        63        2.0000           -0.4962149             -13.5027
        64        2.0000           -0.4951161             -13.4728
        65        2.0000           -0.4937483             -13.4356
        66        2.0000           -0.4920349             -13.3889
        67        2.0000           -0.4893954             -13.3171
        68        2.0000           -0.4806813             -13.0800
        69        2.0000           -0.4772123             -12.9856
        70        2.0000           -0.4701740             -12.7941 (HOMO)
        71                         -0.2713260              -7.3832 (LUMO)
        72                         -0.2680106              -7.2929
        73                         -0.2616419              -7.1196
        74                         -0.2443843              -6.6500
        75                         -0.1489044              -4.0519
        76                         -0.1008600              -2.7445
        77                         -0.0897905              -2.4433
        78                         -0.0828289              -2.2539
        79                         -0.0775557              -2.1104
        80                         -0.0704935              -1.9182
        81                         -0.0639014              -1.7388
       ...                                ...                  ...
       122                          0.5796811              15.7739
      -------------------------------------------------------------
                  HL-Gap            0.1988480 Eh            5.4109 eV
             Fermi-level           -0.3707500 Eh          -10.0886 eV

     #   Z          covCN         q      C6AA      α(0)
     1   8 O        1.654    -0.463    22.110     6.348
     2   6 C        3.673     0.073    19.588     6.343
     3   1 H        0.924     0.058     2.223     2.332
     4   1 H        0.923     0.047     2.353     2.399
     5   6 C        3.768    -0.072    21.907     6.670
     6   1 H        0.924     0.103     1.756     2.072
     7   1 H        0.924     0.115     1.655     2.012
     8   7 N        3.623     0.159    18.568     6.400
     9   6 C        3.735    -0.117    22.839     6.820
    10   1 H        0.925     0.121     1.606     1.982
    11   1 H        0.925     0.080     1.978     2.200
    12   1 H        0.925     0.114     1.663     2.016
    13   6 C        3.723    -0.108    22.672     6.800
    14   1 H        0.925     0.091     1.867     2.137
    15   1 H        0.925     0.081     1.964     2.192
    16   1 H        0.924     0.127     1.561     1.954
    17   6 C        3.721    -0.107    22.673     6.800
    18   1 H        0.925     0.114     1.660     2.015
    19   1 H        0.925     0.106     1.727     2.055
    20   1 H        0.925     0.078     2.002     2.212
    21   1 H        0.803     0.329     0.639     1.256
    22   6 C        2.675     0.342    21.195     7.534
    23   8 O        0.859    -0.554    25.013     6.706
    24   7 N        2.650    -0.297    27.641     7.808
    25   1 H        0.861     0.186     1.179     1.701
    26   1 H        0.860     0.217     1.022     1.583
    27   7 N        2.650    -0.305    27.850     7.838
    28   1 H        0.860     0.219     1.013     1.576
    29   1 H        0.861     0.184     1.192     1.710
    30   6 C        2.675     0.347    21.113     7.519
    31   8 O        0.860    -0.511    24.030     6.572
    32   7 N        2.645    -0.291    27.511     7.790
    33   1 H        0.860     0.200     1.106     1.648
    34   1 H        0.861     0.186     1.181     1.702
    35   7 N        2.645    -0.287    27.416     7.777
    36   1 H        0.861     0.186     1.178     1.700
    37   1 H        0.860     0.203     1.092     1.637
    38   6 C        2.675     0.342    21.194     7.533
    39   8 O        0.861    -0.531    24.473     6.633
    40   7 N        2.644    -0.284    27.327     7.764
    41   1 H        0.860     0.207     1.070     1.621
    42   1 H        0.861     0.187     1.174     1.698
    43   7 N        2.643    -0.309    27.947     7.851
    44   1 H        0.861     0.179     1.217     1.728
    45   1 H        0.860     0.240     0.923     1.505
    46   6 C        2.675     0.341    21.211     7.536
    47   8 O        0.861    -0.536    24.606     6.651
    48   7 N        2.644    -0.308    27.937     7.850
    49   1 H        0.860     0.242     0.914     1.498
    50   1 H        0.861     0.179     1.219     1.730
    51   7 N        2.644    -0.290    27.476     7.785
    52   1 H        0.861     0.184     1.189     1.708
    53   1 H        0.860     0.201     1.102     1.645

 Mol. C6AA /au·bohr⁶  :      21792.194212
 Mol. C8AA /au·bohr⁸  :     454208.520844
 Mol. α(0) /au        :        220.550218


Wiberg/Mayer (AO) data.
largest (>0.10) Wiberg bond orders for each atom

 ---------------------------------------------------------------------------
     #   Z sym  total        # sym  WBO       # sym  WBO       # sym  WBO
 ---------------------------------------------------------------------------
     1   8 O    1.961 --     2 C    1.021    21 H    0.833
     2   6 C    3.965 --     1 O    1.021     5 C    0.993     3 H    0.966
                             4 H    0.962
     3   1 H    0.996 --     2 C    0.966
     4   1 H    0.997 --     2 C    0.962
     5   6 C    3.927 --     2 C    0.993     6 H    0.958     7 H    0.953
                             8 N    0.932
     6   1 H    0.989 --     5 C    0.958
     7   1 H    0.987 --     5 C    0.953
     8   7 N    3.823 --    17 C    0.960    13 C    0.960     9 C    0.954
                             5 C    0.932
     9   6 C    3.919 --    11 H    0.978    12 H    0.963    10 H    0.962
                             8 N    0.954
    10   1 H    0.985 --     9 C    0.962
    11   1 H    0.993 --     9 C    0.978
    12   1 H    0.987 --     9 C    0.963
    13   6 C    3.927 --    15 H    0.978    14 H    0.974     8 N    0.960
                            16 H    0.957
    14   1 H    0.992 --    13 C    0.974
    15   1 H    0.993 --    13 C    0.978
    16   1 H    0.984 --    13 C    0.957
    17   6 C    3.927 --    20 H    0.979    19 H    0.969    18 H    0.964
                             8 N    0.960
    18   1 H    0.987 --    17 C    0.964
    19   1 H    0.989 --    17 C    0.969
    20   1 H    0.994 --    17 C    0.979
    21   1 H    0.891 --     1 O    0.833
    22   6 C    3.959 --    23 O    1.500    24 N    1.228    27 N    1.223
    23   8 O    1.860 --    22 C    1.500    24 N    0.140    27 N    0.138
    24   7 N    3.334 --    22 C    1.228    25 H    0.948    26 H    0.918
                            23 O    0.140
    25   1 H    0.965 --    24 N    0.948
    26   1 H    0.953 --    24 N    0.918
    27   7 N    3.321 --    22 C    1.223    29 H    0.948    28 H    0.908
                            23 O    0.138
    28   1 H    0.952 --    27 N    0.908
    29   1 H    0.966 --    27 N    0.948
    30   6 C    3.959 --    31 O    1.538    35 N    1.209    32 N    1.203
    31   8 O    1.919 --    30 C    1.538    32 N    0.143    35 N    0.143
    32   7 N    3.317 --    30 C    1.203    34 H    0.947    33 H    0.943
                            31 O    0.143
    33   1 H    0.960 --    32 N    0.943
    34   1 H    0.965 --    32 N    0.947
    35   7 N    3.324 --    30 C    1.209    36 H    0.946    37 H    0.942
                            31 O    0.143
    36   1 H    0.965 --    35 N    0.946
    37   1 H    0.959 --    35 N    0.942
    38   6 C    3.960 --    39 O    1.469    43 N    1.249    40 N    1.226
    39   8 O    1.903 --    38 C    1.469    43 N    0.137    40 N    0.130
    40   7 N    3.341 --    38 C    1.226    42 H    0.946    41 H    0.940
                            39 O    0.130
    41   1 H    0.957 --    40 N    0.940
    42   1 H    0.965 --    40 N    0.946
    43   7 N    3.337 --    38 C    1.249    44 H    0.948    45 H    0.872
                            39 O    0.137
    44   1 H    0.968 --    43 N    0.948
    45   1 H    0.942 --    43 N    0.872
    46   6 C    3.960 --    47 O    1.484    48 N    1.254    51 N    1.210
    47   8 O    1.890 --    46 C    1.484    48 N    0.144    51 N    0.130
    48   7 N    3.343 --    46 C    1.254    50 H    0.948    49 H    0.871
                            47 O    0.144
    49   1 H    0.941 --    48 N    0.871
    50   1 H    0.968 --    48 N    0.948
    51   7 N    3.325 --    46 C    1.210    52 H    0.947    53 H    0.943
                            47 O    0.130
    52   1 H    0.966 --    51 N    0.947
    53   1 H    0.959 --    51 N    0.943
 ---------------------------------------------------------------------------

Topologies differ in total number of bonds
Writing topology from bond orders to xtbtopo.mol

molecular dipole:
                 x           y           z       tot (Debye)
 q only:        1.165       0.012      -0.055
   full:        1.114       0.586       0.400       3.357
molecular quadrupole (traceless):
                xx          xy          yy          xz          yz          zz
 q only:      -36.042      54.850      57.545     -35.086     -42.525     -21.503
  q+dip:      -42.765      63.284      65.461     -42.636     -52.249     -22.696
   full:      -42.692      63.436      65.417     -42.755     -52.360     -22.725

           -------------------------------------------------
          |               Frequency Printout                |
           -------------------------------------------------
 projected vibrational frequencies (cm⁻¹)
eigval :       -0.00    -0.00    -0.00     0.00     0.00     0.00
eigval :       -4.07     8.00    10.26    11.01    17.33    20.32
eigval :       31.49    34.06    39.28    41.48    50.37    56.10
eigval :       64.41    68.87    77.12    86.55    96.87   109.21
eigval :      116.44   122.31   131.38   153.45   160.84   177.89
eigval :      193.85   226.12   244.16   253.42   256.22   263.37
eigval :      274.92   303.26   310.07   339.51   356.89   365.96
eigval :      377.01   399.35   425.17   428.40   448.68   455.75
eigval :      457.54   458.39   459.55   472.49   478.89   485.88
eigval :      495.48   500.75   505.78   525.96   534.42   545.27
eigval :      550.47   559.15   565.84   635.72   668.43   674.07
eigval :      674.55   678.44   710.36   740.80   765.50   781.92
eigval :      905.30   924.91   951.31   962.16   964.82   988.21
eigval :      996.43   999.32  1014.15  1016.35  1017.40  1023.09
eigval :     1026.19  1034.27  1040.86  1083.20  1083.48  1087.82
eigval :     1092.96  1106.09  1113.93  1127.08  1168.04  1227.99
eigval :     1247.24  1273.38  1317.10  1330.51  1339.13  1350.04
eigval :     1352.69  1354.49  1368.37  1382.49  1399.32  1406.92
eigval :     1417.15  1435.00  1438.98  1442.71  1445.34  1452.29
eigval :     1454.77  1457.25  1458.05  1466.83  1470.85  1480.13
eigval :     1489.28  1495.21  1507.22  1512.13  1515.21  1663.47
eigval :     1689.97  1700.90  1728.31  2900.18  2983.83  3000.48
eigval :     3010.42  3021.38  3030.92  3033.27  3038.48  3041.68
eigval :     3042.67  3048.28  3056.04  3062.41  3184.55  3228.20
eigval :     3272.77  3390.58  3449.93  3494.65  3498.42  3499.33
eigval :     3499.63  3533.46  3537.29  3547.30  3558.32  3561.19
eigval :     3563.84  3565.89  3566.56
 reduced masses (amu)
   1: 12.45   2: 12.59   3: 12.72   4: 12.72   5: 12.52   6: 12.52   7: 11.15   8: 12.33
   9: 12.38  10: 11.58  11: 11.93  12: 12.14  13: 12.76  14: 12.78  15: 12.44  16: 12.44
  17: 12.80  18: 12.54  19: 12.72  20: 13.38  21: 12.35  22: 11.46  23: 11.12  24: 13.01
  25: 12.89  26: 12.98  27: 11.84  28: 12.87  29: 13.02  30: 13.11  31:  9.50  32: 11.59
  33:  4.35  34:  3.36  35:  2.52  36:  5.27  37:  3.69  38:  5.83  39:  7.95  40:  3.97
  41:  3.67  42:  5.46  43:  3.69  44:  3.45  45:  6.43  46:  5.30  47:  2.87  48:  6.32
  49:  8.03  50:  6.64  51:  6.35  52:  7.62  53:  4.27  54:  6.48  55:  1.67  56:  5.80
  57:  6.38  58: 10.79  59:  8.86  60: 11.37  61: 11.57  62:  8.47  63:  2.08  64:  3.28
  65: 10.10  66: 11.49  67: 11.98  68: 11.15  69:  3.55  70:  2.03  71:  9.11  72:  2.13
  73:  6.85  74:  8.63  75:  5.16  76:  5.02  77:  5.02  78:  5.05  79:  8.97  80:  7.49
  81:  8.24  82:  9.19  83:  8.51  84:  9.27  85:  6.38  86:  6.31  87:  3.10  88:  9.45
  89:  8.78  90:  8.50  91:  7.19  92:  4.06  93:  8.85  94:  8.50  95:  2.77  96:  5.08
  97:  7.03  98:  8.20  99:  5.83 100:  3.72 101:  4.89 102:  4.51 103:  6.07 104:  4.34
 105:  3.88 106:  3.82 107:  2.54 108:  2.55 109:  2.09 110:  2.48 111:  3.19 112:  1.84
 113:  3.29 114:  1.72 115:  3.19 116:  1.82 117:  2.60 118:  1.72 119:  1.63 120:  1.60
 121:  1.72 122:  8.05 123:  9.14 124:  9.46 125:  9.76 126: 12.28 127: 12.71 128: 12.72
 129: 12.85 130:  1.77 131:  1.67 132:  1.70 133:  1.68 134:  1.85 135:  1.42 136:  1.96
 137:  1.58 138:  1.89 139:  1.79 140:  1.79 141:  1.74 142:  1.71 143:  1.80 144:  1.80
 145:  1.87 146:  1.65 147:  1.57 148:  1.44 149:  1.46 150:  1.45 151:  1.45 152:  1.91
 153:  1.91 154:  2.00 155:  2.19 156:  2.07 157:  2.17 158:  2.18 159:  2.19
 IR intensities (km·mol⁻¹)
   1:  2.86   2:  0.68   3:  1.38   4:  2.62   5:  0.14   6:  1.26   7:  0.31   8:  0.45
   9:  0.88  10:  1.59  11:  2.44  12:  1.59  13:  1.26  14:  1.57  15:  2.74  16:  1.00
  17:  1.50  18:  2.31  19:  4.13  20:  6.07  21:  1.88  22:  3.57  23:  9.75  24: 17.26
  25:  7.44  26:  1.46  27: 22.01  28:  1.23  29:  4.81  30: 44.34  31:  4.64  32: 21.15
  33:188.52  34: 81.16  35: 76.44  36:  3.00  37: 21.87  38:  2.94  39:  1.97  40:  0.26
  41:497.12  42:  3.11  43:  1.15  44:145.42  45:153.62  46:242.87  47:  8.54  48: 73.05
  49: 38.34  50: 73.65  51:156.15  52: 13.01  53: 20.31  54: 44.11  55:  6.19  56: 38.63
  57: 75.66  58: 27.31  59: 60.40  60:  5.71  61: 26.03  62:  6.17  63:  1.78  64:159.35
  65: 27.31  66: 33.05  67: 82.18  68:  7.05  69:191.48  70: 61.04  71:  2.25  72:360.02
  73:  4.32  74:  7.51  75:  2.57  76:  8.84  77:  1.42  78:  2.61  79:  0.17  80: 16.67
  81: 15.20  82:  3.34  83: 22.63  84:  0.37  85: 20.94  86: 11.78  87:  2.19  88:  1.59
  89:  0.68  90:  4.12  91: 26.29  92: 25.49  93:  2.76  94: 43.64  95: 10.05  96:  9.40
  97:  3.28  98:  2.24  99: 11.52 100:  0.43 101: 33.88 102: 50.34 103:121.69 104: 78.47
 105:118.37 106: 38.42 107: 14.90 108: 11.38 109:  8.43 110: 27.57 111:  3.55 112:  6.93
 113: 11.47 114:  8.15 115:  1.97 116:  0.37 117: 39.99 118:  5.95 119:  4.93 120: 43.91
 121:  6.67 122:390.75 123:366.37 124:601.12 125:690.12 126:629.35 127:915.82 128:******
 129:197.35 130: 30.64 131: 37.01 132:  5.84 133: 50.46 134:  4.10 135: 27.07 136: 58.64
 137: 11.55 138:  1.88 139:  2.35 140: 19.99 141:  4.17 142:  2.37 143: 32.49 144:******
 145:821.33 146:214.08 147:269.98 148: 41.76 149:  2.69 150: 28.71 151: 21.08 152: 17.41
 153: 14.04 154: 22.84 155: 14.16 156: 30.91 157: 21.69 158: 11.96 159: 22.40
 Raman intensities (amu)
Molecule has no symmetry elements
It seems to be the C1 point group
   1:  0.00   2:  0.00   3:  0.00   4:  0.00   5:  0.00   6:  0.00   7:  0.00   8:  0.00
   9:  0.00  10:  0.00  11:  0.00  12:  0.00  13:  0.00  14:  0.00  15:  0.00  16:  0.00
  17:  0.00  18:  0.00  19:  0.00  20:  0.00  21:  0.00  22:  0.00  23:  0.00  24:  0.00
  25:  0.00  26:  0.00  27:  0.00  28:  0.00  29:  0.00  30:  0.00  31:  0.00  32:  0.00
  33:  0.00  34:  0.00  35:  0.00  36:  0.00  37:  0.00  38:  0.00  39:  0.00  40:  0.00
  41:  0.00  42:  0.00  43:  0.00  44:  0.00  45:  0.00  46:  0.00  47:  0.00  48:  0.00
  49:  0.00  50:  0.00  51:  0.00  52:  0.00  53:  0.00  54:  0.00  55:  0.00  56:  0.00
  57:  0.00  58:  0.00  59:  0.00  60:  0.00  61:  0.00  62:  0.00  63:  0.00  64:  0.00
  65:  0.00  66:  0.00  67:  0.00  68:  0.00  69:  0.00  70:  0.00  71:  0.00  72:  0.00
  73:  0.00  74:  0.00  75:  0.00  76:  0.00  77:  0.00  78:  0.00  79:  0.00  80:  0.00
  81:  0.00  82:  0.00  83:  0.00  84:  0.00  85:  0.00  86:  0.00  87:  0.00  88:  0.00
  89:  0.00  90:  0.00  91:  0.00  92:  0.00  93:  0.00  94:  0.00  95:  0.00  96:  0.00
  97:  0.00  98:  0.00  99:  0.00 100:  0.00 101:  0.00 102:  0.00 103:  0.00 104:  0.00
 105:  0.00 106:  0.00 107:  0.00 108:  0.00 109:  0.00 110:  0.00 111:  0.00 112:  0.00
 113:  0.00 114:  0.00 115:  0.00 116:  0.00 117:  0.00 118:  0.00 119:  0.00 120:  0.00
 121:  0.00 122:  0.00 123:  0.00 124:  0.00 125:  0.00 126:  0.00 127:  0.00 128:  0.00
 129:  0.00 130:  0.00 131:  0.00 132:  0.00 133:  0.00 134:  0.00 135:  0.00 136:  0.00
 137:  0.00 138:  0.00 139:  0.00 140:  0.00 141:  0.00 142:  0.00 143:  0.00 144:  0.00
 145:  0.00 146:  0.00 147:  0.00 148:  0.00 149:  0.00 150:  0.00 151:  0.00 152:  0.00
 153:  0.00 154:  0.00 155:  0.00 156:  0.00 157:  0.00 158:  0.00 159:  0.00
 output can be read by thermo (or use thermo option).
 writing <g98.out> molden fake output.
 recommended (thermochemical) frequency scaling factor: 1.0
           -------------------------------------------------
          |             Thermodynamic Functions             |
           -------------------------------------------------

c1  symmetry found (for desy threshold:  0.10E+00) used in thermo
 inverting freq            1   4.0689481964156844     

          ...................................................
          :                      SETUP                      :
          :.................................................:
          :  # frequencies                         153      :
          :  # imaginary freq.                       0      :
          :  linear?                             false      :
          :  only rotor calc.                    false      :
          :  symmetry                               c1      :
          :  rotational number                       1      :
          :  scaling factor                  1.0000000      :
          :  rotor cutoff                   50.0000000 cm⁻¹ :
          :  imag. cutoff                  -20.0000000 cm⁻¹ :
          :.................................................:

    mode    ω/cm⁻¹     T·S(HO)/kcal·mol⁻¹    T·S(FR)/kcal·mol⁻¹   T·S(vib)
   ------------------------------------------------------------------------
       1      4.07    -2.92121 (  0.00%)    -1.79949 (100.00%)    -1.79954
       2      8.00    -2.52041 (  0.07%)    -1.59919 ( 99.93%)    -1.59979
       3     10.26    -2.37306 (  0.18%)    -1.52552 ( 99.82%)    -1.52703
       4     11.01    -2.33149 (  0.23%)    -1.50474 ( 99.77%)    -1.50668
       5     17.33    -2.06277 (  1.42%)    -1.37036 ( 98.58%)    -1.38021
       6     20.32    -1.96869 (  2.65%)    -1.32330 ( 97.35%)    -1.34043
       7     31.49    -1.70945 ( 13.59%)    -1.19353 ( 86.41%)    -1.26363
       8     34.06    -1.66303 ( 17.71%)    -1.17027 ( 82.29%)    -1.25756
       9     39.28    -1.57877 ( 27.58%)    -1.12804 ( 72.42%)    -1.25233
      10     41.48    -1.54650 ( 32.15%)    -1.11185 ( 67.85%)    -1.25158
      11     50.37    -1.43196 ( 50.74%)    -1.05435 ( 49.26%)    -1.24594
      12     56.10    -1.36850 ( 61.31%)    -1.02245 ( 38.69%)    -1.23460
      13     64.41    -1.28719 ( 73.36%)    -0.98151 ( 26.64%)    -1.20576
      14     68.87    -1.24790 ( 78.25%)    -0.96170 ( 21.75%)    -1.18567
      15     77.12    -1.18150 ( 84.99%)    -0.92815 ( 15.01%)    -1.14346
      16     86.55    -1.11407 ( 89.98%)    -0.89400 ( 10.02%)    -1.09201
      17     96.87    -1.04842 ( 93.37%)    -0.86063 (  6.63%)    -1.03597
      18    109.21    -0.97879 ( 95.79%)    -0.82510 (  4.21%)    -0.97232
      19    116.44    -0.94173 ( 96.71%)    -0.80611 (  3.29%)    -0.93727
      20    122.31    -0.91341 ( 97.28%)    -0.79155 (  2.72%)    -0.91010
      21    131.38    -0.87231 ( 97.95%)    -0.77035 (  2.05%)    -0.87021
      22    153.45    -0.78384 ( 98.89%)    -0.72435 (  1.11%)    -0.78317
      23    160.84    -0.75727 ( 99.07%)    -0.71042 (  0.93%)    -0.75684
      24    177.89    -0.70078 ( 99.38%)    -0.68057 (  0.62%)    -0.70066
      25    193.85    -0.65317 ( 99.56%)    -0.65513 (  0.44%)    -0.65317
      26    226.12    -0.56932 ( 99.76%)    -0.60950 (  0.24%)    -0.56941
      27    244.16    -0.52842 ( 99.82%)    -0.58676 (  0.18%)    -0.52853
      28    253.42    -0.50884 ( 99.85%)    -0.57574 (  0.15%)    -0.50894
      29    256.22    -0.50309 ( 99.86%)    -0.57248 (  0.14%)    -0.50320
      30    263.37    -0.48876 ( 99.87%)    -0.56433 (  0.13%)    -0.48886
      31    274.92    -0.46663 ( 99.89%)    -0.55162 (  0.11%)    -0.46672
   ------------------------------------------------------------------------

   temp. (K)  partition function   enthalpy   heat capacity  entropy
                                   cal/mol     cal/K/mol   cal/K/mol   J/K/mol
 298.15  VIB  0.765E+20            19813.807    102.515    133.797
         ROT  0.197E+08              888.752      2.981     36.363
         INT  0.151E+28            20702.560    105.496    170.161
         TR   0.618E+28             1481.254      4.968     43.384
         TOT                       22183.8137   110.4641   213.5450   893.4722

       T/K    H(0)-H(T)+PV         H(T)/Eh          T*S/Eh         G(T)/Eh
   ------------------------------------------------------------------------
    298.15    0.353522E-01    0.474029E+00    0.101462E+00    0.372567E+00
   ------------------------------------------------------------------------

         :::::::::::::::::::::::::::::::::::::::::::::::::::::
         ::                  THERMODYNAMIC                  ::
         :::::::::::::::::::::::::::::::::::::::::::::::::::::
         :: total free energy         -80.558602883103 Eh   ::
         ::.................................................::
         :: total energy              -80.931169835823 Eh   ::
         :: zero point energy           0.438676906856 Eh   ::
         :: G(RRHO) w/o ZPVE           -0.066109954136 Eh   ::
         :: G(RRHO) contrib.            0.372566952720 Eh   ::
         :::::::::::::::::::::::::::::::::::::::::::::::::::::

           -------------------------------------------------
          | TOTAL ENERGY              -80.931169835823 Eh   |
          | TOTAL ENTHALPY            -80.457140771495 Eh   |
          | TOTAL FREE ENERGY         -80.558602883103 Eh   |
          | GRADIENT NORM               0.000197610564 Eh/α |
          | HOMO-LUMO GAP               5.410930346407 eV   |
           -------------------------------------------------

------------------------------------------------------------------------
 * finished run on 2024/01/10 at 15:34:09.839     
------------------------------------------------------------------------
 total:
 * wall-time:     0 d,  0 h,  0 min, 14.072 sec
 *  cpu-time:     0 d,  0 h,  0 min, 13.974 sec
 * ratio c/w:     0.993 speedup
 SCF:
 * wall-time:     0 d,  0 h,  0 min,  0.076 sec
 *  cpu-time:     0 d,  0 h,  0 min,  0.056 sec
 * ratio c/w:     0.741 speedup
 analytical hessian:
 * wall-time:     0 d,  0 h,  0 min, 13.970 sec
 *  cpu-time:     0 d,  0 h,  0 min, 13.892 sec
 * ratio c/w:     0.994 speedup

