      -----------------------------------------------------------      
     |                   =====================                   |     
     |                           x T B                           |     
     |                   =====================                   |     
     |                         S. Grimme                         |     
     |          Mulliken Center for Theoretical Chemistry        |     
     |                    University of Bonn                     |     
      -----------------------------------------------------------      

   * xtb version 6.6.1 (unknown-commit) compiled by '@Linux' on 12/27/2023

   xtb is free software: you can redistribute it and/or modify it under
   the terms of the GNU Lesser General Public License as published by
   the Free Software Foundation, either version 3 of the License, or
   (at your option) any later version.
   
   xtb is distributed in the hope that it will be useful,
   but WITHOUT ANY WARRANTY; without even the implied warranty of
   MERCHANTABILITY or FITNESS FOR A PARTICULAR PURPOSE.  See the
   GNU Lesser General Public License for more details.
   
   Cite this work as:
   * C. Bannwarth, E. Caldeweyher, S. Ehlert, A. Hansen, P. Pracht,
     J. Seibert, S. Spicher, S. Grimme, WIREs Comput. Mol. Sci., 2020, 11,
     e01493. DOI: 10.1002/wcms.1493
   
   for GFN2-xTB:
   * C. Bannwarth, S. Ehlert and S. Grimme., J. Chem. Theory Comput., 2019,
     15, 1652-1671. DOI: 10.1021/acs.jctc.8b01176
   for GFN1-xTB:
   * S. Grimme, C. Bannwarth, P. Shushkov, J. Chem. Theory Comput., 2017,
     13, 1989-2009. DOI: 10.1021/acs.jctc.7b00118
   for GFN0-xTB:
   * P. Pracht, E. Caldeweyher, S. Ehlert, S. Grimme, ChemRxiv, 2019, preprint.
     DOI: 10.26434/chemrxiv.8326202.v1
   for GFN-FF:
   * S. Spicher and S. Grimme, Angew. Chem. Int. Ed., 2020, 59, 15665-15673.
     DOI: 10.1002/anie.202004239
   
   for ALPB and GBSA implicit solvation:
   * S. Ehlert, M. Stahn, S. Spicher, S. Grimme, J. Chem. Theory Comput.,
     2021, 17, 4250-4261. DOI: 10.1021/acs.jctc.1c00471
   
   for DFT-D4:
   * E. Caldeweyher, C. Bannwarth and S. Grimme, J. Chem. Phys., 2017,
     147, 034112. DOI: 10.1063/1.4993215
   * E. Caldeweyher, S. Ehlert, A. Hansen, H. Neugebauer, S. Spicher,
     C. Bannwarth and S. Grimme, J. Chem. Phys., 2019, 150, 154122.
     DOI: 10.1063/1.5090222
   * E. Caldeweyher, J.-M. Mewes, S. Ehlert and S. Grimme, Phys. Chem. Chem. Phys.
     2020, 22, 8499-8512. DOI: 10.1039/D0CP00502A
   
   for sTDA-xTB:
   * S. Grimme and C. Bannwarth, J. Chem. Phys., 2016, 145, 054103.
     DOI: 10.1063/1.4959605
   
   in the mass-spec context:
   * V. Asgeirsson, C. Bauer and S. Grimme, Chem. Sci., 2017, 8, 4879.
     DOI: 10.1039/c7sc00601b
   * J. Koopman and S. Grimme, ACS Omega 2019, 4, 12, 15120-15133.
     DOI: 10.1021/acsomega.9b02011
   
   for metadynamics refer to:
   * S. Grimme, J. Chem. Theory Comput., 2019, 155, 2847-2862
     DOI: 10.1021/acs.jctc.9b00143
   
   for SPH calculations refer to:
   * S. Spicher and S. Grimme, J. Chem. Theory Comput., 2021, 17, 1701-1714
     DOI: 10.1021/acs.jctc.0c01306
   
   with help from (in alphabetical order)
   P. Atkinson, C. Bannwarth, F. Bohle, G. Brandenburg, E. Caldeweyher
   M. Checinski, S. Dohm, S. Ehlert, S. Ehrlich, I. Gerasimov, C. Hölzer
   A. Katbashev, J. Koopman, C. Lavigne, S. Lehtola, F. März, M. Müller,
   F. Musil, H. Neugebauer, J. Pisarek, C. Plett, P. Pracht, F. Pultar,
   J. Seibert, P. Shushkov, S. Spicher, M. Stahn, M. Steiner, T. Strunk,
   J. Stückrath, T. Rose, and J. Unsleber
   
 * started run on 2024/01/10 at 18:27:22.532     

           -------------------------------------------------
          |                Calculation Setup                |
           -------------------------------------------------

          program call               : xtb struc.xyz --gfn2 --hess
          hostname                   : swaroop
          coordinate file            : struc.xyz
          omp threads                :                     1

   ID    Z sym.   atoms
    1    8 O      1, 23, 31, 39, 47
    2    6 C      2, 5, 9, 13, 17, 22, 30, 38, 46
    3    1 H      3, 4, 6, 7, 10-12, 14-16, 18-21, 25, 26, 28, 29, 33, 34,
                  36, 37, 41, 42, 44, 45, 49, 50, 52, 53
    4    7 N      8, 24, 27, 32, 35, 40, 43, 48, 51

molecular fragmentation (1/2 indicates fragments):
11111111111111111111122222222222222222222222222222222
# atoms in fragment 1/2:    21    32
 fragment masses (1/2) :      104.17      240.22
CMA distance (Bohr)    :   7.615
constraining FC (au)   :  0.0500

           -------------------------------------------------
          |                 G F N 2 - x T B                 |
           -------------------------------------------------

        Reference                      10.1021/acs.jctc.8b01176
      * Hamiltonian:
        H0-scaling (s, p, d)           1.850000    2.230000    2.230000
        zeta-weighting                 0.500000
      * Dispersion:
        s8                             2.700000
        a1                             0.520000
        a2                             5.000000
        s9                             5.000000
      * Repulsion:
        kExp                           1.500000    1.000000
        rExp                           1.000000
      * Coulomb:
        alpha                          2.000000
        third order                    shell-resolved
        anisotropic                    true
        a3                             3.000000
        a5                             4.000000
        cn-shift                       1.200000
        cn-exp                         4.000000
        max-rad                        5.000000


          ...................................................
          :                      SETUP                      :
          :.................................................:
          :  # basis functions                 122          :
          :  # atomic orbitals                 122          :
          :  # shells                           76          :
          :  # electrons                       140          :
          :  max. iterations                   250          :
          :  Hamiltonian                  GFN2-xTB          :
          :  restarted?                      false          :
          :  GBSA solvation                  false          :
          :  PC potential                    false          :
          :  electronic temp.          300.0000000     K    :
          :  accuracy                    1.0000000          :
          :  -> integral cutoff          0.2500000E+02      :
          :  -> integral neglect         0.1000000E-07      :
          :  -> SCF convergence          0.1000000E-05 Eh   :
          :  -> wf. convergence          0.1000000E-03 e    :
          :  Broyden damping             0.4000000          :
          ...................................................

 iter      E             dE          RMSdq      gap      omega  full diag
   1    -81.5510730 -0.815511E+02  0.435E+00    5.05       0.0  T
   2    -81.8413285 -0.290256E+00  0.239E+00    5.62       1.0  T
   3    -81.8470665 -0.573800E-02  0.117E+00    5.33       1.0  T
   4    -81.8484450 -0.137851E-02  0.239E-01    5.37       1.0  T
   5    -81.8493423 -0.897270E-03  0.919E-02    5.28       1.0  T
   6    -81.8493664 -0.240617E-04  0.269E-02    5.29       1.0  T
   7    -81.8493717 -0.534622E-05  0.772E-03    5.28       1.8  T
   8    -81.8493720 -0.250437E-06  0.295E-03    5.28       4.6  T
   9    -81.8493720 -0.391047E-07  0.100E-03    5.28      13.7  T
  10    -81.8493720 -0.663925E-08  0.242E-04    5.28      56.9  T
  11    -81.8493720 -0.637471E-09  0.920E-05    5.28     149.3  T

   *** convergence criteria satisfied after 11 iterations ***

         #    Occupation            Energy/Eh            Energy/eV
      -------------------------------------------------------------
         1        2.0000           -0.8079652             -21.9859
       ...           ...                  ...                  ...
        64        2.0000           -0.4953906             -13.4803
        65        2.0000           -0.4931299             -13.4187
        66        2.0000           -0.4893190             -13.3150
        67        2.0000           -0.4872860             -13.2597
        68        2.0000           -0.4840576             -13.1719
        69        2.0000           -0.4824571             -13.1283
        70        2.0000           -0.4811287             -13.0922 (HOMO)
        71                         -0.2871302              -7.8132 (LUMO)
        72                         -0.2703661              -7.3570
        73                         -0.2610332              -7.1031
        74                         -0.2529078              -6.8820
        75                         -0.1544773              -4.2035
       ...                                ...                  ...
       122                          0.5627388              15.3129
      -------------------------------------------------------------
                  HL-Gap            0.1939985 Eh            5.2790 eV
             Fermi-level           -0.3841294 Eh          -10.4527 eV

 SCC (total)                   0 d,  0 h,  0 min,  0.099 sec
 SCC setup                      ...        0 min,  0.000 sec (  0.289%)
 Dispersion                     ...        0 min,  0.001 sec (  0.593%)
 classical contributions        ...        0 min,  0.000 sec (  0.182%)
 integral evaluation            ...        0 min,  0.008 sec (  8.058%)
 iterations                     ...        0 min,  0.062 sec ( 62.337%)
 molecular gradient             ...        0 min,  0.028 sec ( 28.271%)
 printout                       ...        0 min,  0.000 sec (  0.258%)

         :::::::::::::::::::::::::::::::::::::::::::::::::::::
         ::                     SUMMARY                     ::
         :::::::::::::::::::::::::::::::::::::::::::::::::::::
         :: total energy             -80.934651076098 Eh    ::
         :: gradient norm              0.000197360612 Eh/a0 ::
         :: HOMO-LUMO gap              5.278967066659 eV    ::
         ::.................................................::
         :: SCC energy               -81.849371998745 Eh    ::
         :: -> isotropic ES            0.296131425429 Eh    ::
         :: -> anisotropic ES         -0.030180469695 Eh    ::
         :: -> anisotropic XC          0.021289237893 Eh    ::
         :: -> dispersion             -0.046762874372 Eh    ::
         :: repulsion energy           0.913431563654 Eh    ::
         :: add. restraining           0.000000000000 Eh    ::
         :: total charge               1.000000000000 e     ::
         :::::::::::::::::::::::::::::::::::::::::::::::::::::

           ------------------------------------------------- 
          |                Numerical Hessian                |
           ------------------------------------------------- 
step length          :   0.00500
SCC accuracy         :   0.30000
Hessian scale factor :   1.00000
frozen atoms in %    :   0.00000    0
RMS gradient         :   0.00020
estimated CPU  time      0.24 min
estimated wall time      0.24 min

writing file <hessian>.

 projected vibrational frequencies (cm⁻¹)
eigval :       -0.00    -0.00    -0.00     0.00     0.00     0.00
eigval :       17.44    19.31    27.64    29.68    39.75    41.62
eigval :       49.11    54.51    56.98    68.97    75.07    78.48
eigval :       84.89    87.64    94.04    99.16   109.56   116.98
eigval :      120.60   127.72   143.74   150.56   162.09   163.76
eigval :      175.53   205.33   233.72   253.61   260.67   279.68
eigval :      302.22   305.10   333.27   355.67   358.18   378.90
eigval :      385.90   408.19   431.75   457.08   459.64   461.57
eigval :      469.97   471.88   478.93   480.99   484.49   492.28
eigval :      505.44   514.54   524.50   526.97   539.36   540.55
eigval :      543.97   549.72   558.46   622.65   645.61   669.63
eigval :      673.24   675.72   683.44   713.65   754.89   768.60
eigval :      898.52   944.37   948.71   963.73   982.65   986.27
eigval :      993.60  1003.16  1010.04  1012.31  1018.41  1021.33
eigval :     1022.17  1035.36  1039.80  1079.84  1080.40  1089.66
eigval :     1103.74  1105.66  1123.77  1125.71  1193.28  1214.26
eigval :     1244.11  1270.07  1313.93  1325.35  1340.15  1349.91
eigval :     1360.17  1362.89  1363.95  1377.23  1396.20  1415.45
eigval :     1422.49  1434.35  1446.94  1450.34  1451.15  1453.34
eigval :     1458.26  1458.80  1461.43  1463.95  1475.46  1479.28
eigval :     1484.84  1486.19  1503.94  1507.72  1521.79  1678.48
eigval :     1696.79  1711.01  1727.81  2949.88  2968.57  2980.33
eigval :     2998.36  3030.40  3040.51  3041.42  3042.57  3044.72
eigval :     3048.32  3052.17  3056.61  3062.82  3206.56  3336.63
eigval :     3341.29  3389.19  3454.11  3475.71  3488.04  3490.69
eigval :     3500.04  3500.36  3529.92  3533.29  3554.25  3555.07
eigval :     3561.43  3564.67  3565.98
           -------------------------------------------------
          |                Property Printout                |
           -------------------------------------------------

    * Orbital Energies and Occupations

         #    Occupation            Energy/Eh            Energy/eV
      -------------------------------------------------------------
         1        2.0000           -0.8079653             -21.9859
       ...           ...                  ...                  ...
        58        2.0000           -0.5252348             -14.2924
        59        2.0000           -0.5196348             -14.1400
        60        2.0000           -0.5179867             -14.0951
        61        2.0000           -0.5039494             -13.7132
        62        2.0000           -0.5024538             -13.6725
        63        2.0000           -0.5008604             -13.6291
        64        2.0000           -0.4953911             -13.4803
        65        2.0000           -0.4931300             -13.4188
        66        2.0000           -0.4893192             -13.3151
        67        2.0000           -0.4872862             -13.2597
        68        2.0000           -0.4840580             -13.1719
        69        2.0000           -0.4824575             -13.1283
        70        2.0000           -0.4811291             -13.0922 (HOMO)
        71                         -0.2871306              -7.8132 (LUMO)
        72                         -0.2703657              -7.3570
        73                         -0.2610332              -7.1031
        74                         -0.2529082              -6.8820
        75                         -0.1544772              -4.2035
        76                         -0.1189704              -3.2373
        77                         -0.0913628              -2.4861
        78                         -0.0893227              -2.4306
        79                         -0.0795589              -2.1649
        80                         -0.0723353              -1.9683
        81                         -0.0696914              -1.8964
       ...                                ...                  ...
       122                          0.5627386              15.3129
      -------------------------------------------------------------
                  HL-Gap            0.1939985 Eh            5.2790 eV
             Fermi-level           -0.3841298 Eh          -10.4527 eV

     #   Z          covCN         q      C6AA      α(0)
     1   8 O        1.653    -0.476    22.391     6.388
     2   6 C        3.673     0.062    19.773     6.373
     3   1 H        0.924     0.075     2.028     2.227
     4   1 H        0.924     0.060     2.201     2.320
     5   6 C        3.766    -0.064    21.777     6.651
     6   1 H        0.924     0.129     1.542     1.942
     7   1 H        0.924     0.068     2.105     2.269
     8   7 N        3.623     0.152    18.668     6.417
     9   6 C        3.721    -0.108    22.685     6.803
    10   1 H        0.925     0.080     1.977     2.199
    11   1 H        0.925     0.132     1.517     1.926
    12   1 H        0.925     0.087     1.907     2.160
    13   6 C        3.726    -0.115    22.819     6.821
    14   1 H        0.925     0.133     1.512     1.923
    15   1 H        0.925     0.118     1.632     1.998
    16   1 H        0.925     0.078     1.995     2.209
    17   6 C        3.734    -0.104    22.589     6.783
    18   1 H        0.925     0.082     1.954     2.186
    19   1 H        0.925     0.086     1.921     2.167
    20   1 H        0.925     0.128     1.554     1.949
    21   1 H        0.803     0.333     0.631     1.248
    22   6 C        2.675     0.341    21.211     7.536
    23   8 O        0.860    -0.533    24.528     6.640
    24   7 N        2.647    -0.298    27.676     7.813
    25   1 H        0.860     0.208     1.068     1.619
    26   1 H        0.860     0.207     1.069     1.620
    27   7 N        2.647    -0.287    27.398     7.774
    28   1 H        0.860     0.210     1.055     1.609
    29   1 H        0.860     0.200     1.106     1.647
    30   6 C        2.675     0.344    21.157     7.527
    31   8 O        0.860    -0.530    24.465     6.632
    32   7 N        2.646    -0.281    27.264     7.755
    33   1 H        0.860     0.207     1.069     1.619
    34   1 H        0.861     0.193     1.145     1.676
    35   7 N        2.645    -0.290    27.470     7.784
    36   1 H        0.861     0.191     1.151     1.681
    37   1 H        0.860     0.209     1.060     1.613
    38   6 C        2.675     0.343    21.173     7.530
    39   8 O        0.860    -0.529    24.436     6.628
    40   7 N        2.645    -0.341    28.774     7.967
    41   1 H        0.860     0.215     1.033     1.592
    42   1 H        0.860     0.207     1.072     1.622
    43   7 N        2.646    -0.302    27.769     7.826
    44   1 H        0.860     0.187     1.175     1.698
    45   1 H        0.860     0.194     1.139     1.672
    46   6 C        2.675     0.345    21.144     7.524
    47   8 O        0.860    -0.532    24.515     6.638
    48   7 N        2.645    -0.293    27.555     7.796
    49   1 H        0.860     0.197     1.122     1.659
    50   1 H        0.861     0.181     1.208     1.722
    51   7 N        2.644    -0.305    27.864     7.840
    52   1 H        0.861     0.176     1.239     1.744
    53   1 H        0.860     0.232     0.955     1.531

 Mol. C6AA /au·bohr⁶  :      21782.817606
 Mol. C8AA /au·bohr⁸  :     454183.422507
 Mol. α(0) /au        :        220.492070


Wiberg/Mayer (AO) data.
largest (>0.10) Wiberg bond orders for each atom

 ---------------------------------------------------------------------------
     #   Z sym  total        # sym  WBO       # sym  WBO       # sym  WBO
 ---------------------------------------------------------------------------
     1   8 O    1.962 --     2 C    1.010    21 H    0.825
     2   6 C    3.956 --     1 O    1.010     5 C    0.991     4 H    0.968
                             3 H    0.952
     3   1 H    0.994 --     2 C    0.952
     4   1 H    0.996 --     2 C    0.968
     5   6 C    3.926 --     2 C    0.991     7 H    0.972     6 H    0.943
                             8 N    0.931
     6   1 H    0.983 --     5 C    0.943
     7   1 H    0.995 --     5 C    0.972
     8   7 N    3.820 --     9 C    0.961    17 C    0.960    13 C    0.950
                             5 C    0.931
     9   6 C    3.927 --    10 H    0.979    12 H    0.977     8 N    0.961
                            11 H    0.957
    10   1 H    0.994 --     9 C    0.979
    11   1 H    0.982 --     9 C    0.957
    12   1 H    0.992 --     9 C    0.977
    13   6 C    3.908 --    16 H    0.978    15 H    0.962     8 N    0.950
                            14 H    0.950
    14   1 H    0.982 --    13 C    0.950
    15   1 H    0.986 --    13 C    0.962
    16   1 H    0.994 --    13 C    0.978
    17   6 C    3.929 --    18 H    0.978    19 H    0.977    20 H    0.964
                             8 N    0.960
    18   1 H    0.993 --    17 C    0.978
    19   1 H    0.992 --    17 C    0.977
    20   1 H    0.984 --    17 C    0.964
    21   1 H    0.889 --     1 O    0.825
    22   6 C    3.960 --    23 O    1.482    27 N    1.236    24 N    1.227
    23   8 O    1.902 --    22 C    1.482    24 N    0.135    27 N    0.133
    24   7 N    3.328 --    22 C    1.227    25 H    0.936    26 H    0.925
                            23 O    0.135
    25   1 H    0.957 --    24 N    0.936
    26   1 H    0.957 --    24 N    0.925
    27   7 N    3.341 --    22 C    1.236    29 H    0.943    28 H    0.929
                            23 O    0.133
    28   1 H    0.956 --    27 N    0.929
    29   1 H    0.960 --    27 N    0.943
    30   6 C    3.960 --    31 O    1.502    32 N    1.229    35 N    1.221
    31   8 O    1.899 --    30 C    1.502    32 N    0.140    35 N    0.139
    32   7 N    3.343 --    30 C    1.229    34 H    0.944    33 H    0.940
                            31 O    0.140
    33   1 H    0.957 --    32 N    0.940
    34   1 H    0.963 --    32 N    0.944
    35   7 N    3.332 --    30 C    1.221    36 H    0.945    37 H    0.936
                            31 O    0.139
    36   1 H    0.963 --    35 N    0.945
    37   1 H    0.956 --    35 N    0.936
    38   6 C    3.959 --    39 O    1.535    40 N    1.217    43 N    1.197
    39   8 O    1.896 --    38 C    1.535    40 N    0.141    43 N    0.140
    40   7 N    3.291 --    38 C    1.217    41 H    0.908    42 H    0.900
                            39 O    0.141
    41   1 H    0.954 --    40 N    0.908
    42   1 H    0.957 --    40 N    0.900
    43   7 N    3.310 --    38 C    1.197    45 H    0.945    44 H    0.944
                            39 O    0.140
    44   1 H    0.965 --    43 N    0.944
    45   1 H    0.962 --    43 N    0.945
    46   6 C    3.959 --    47 O    1.518    51 N    1.233    48 N    1.199
    47   8 O    1.888 --    46 C    1.518    51 N    0.145    48 N    0.137
    48   7 N    3.314 --    46 C    1.199    50 H    0.948    49 H    0.944
                            47 O    0.137
    49   1 H    0.961 --    48 N    0.944
    50   1 H    0.967 --    48 N    0.948
    51   7 N    3.328 --    46 C    1.233    52 H    0.950    53 H    0.892
                            47 O    0.145
    52   1 H    0.969 --    51 N    0.950
    53   1 H    0.946 --    51 N    0.892
 ---------------------------------------------------------------------------

Topologies differ in total number of bonds
Writing topology from bond orders to xtbtopo.mol

molecular dipole:
                 x           y           z       tot (Debye)
 q only:        0.155       0.778      -0.430
   full:        0.845       1.068      -0.321       3.556
molecular quadrupole (traceless):
                xx          xy          yy          xz          yz          zz
 q only:       32.151      46.851      -2.928       5.644     -12.246     -29.223
  q+dip:       32.428      54.036      -0.701       2.082     -16.370     -31.727
   full:       32.481      53.694      -0.799       2.401     -16.332     -31.682

           -------------------------------------------------
          |               Frequency Printout                |
           -------------------------------------------------
 projected vibrational frequencies (cm⁻¹)
eigval :       -0.00    -0.00    -0.00     0.00     0.00     0.00
eigval :       17.44    19.31    27.64    29.68    39.75    41.62
eigval :       49.11    54.51    56.98    68.97    75.07    78.48
eigval :       84.89    87.64    94.04    99.16   109.56   116.98
eigval :      120.60   127.72   143.74   150.56   162.09   163.76
eigval :      175.53   205.33   233.72   253.61   260.67   279.68
eigval :      302.22   305.10   333.27   355.67   358.18   378.90
eigval :      385.90   408.19   431.75   457.08   459.64   461.57
eigval :      469.97   471.88   478.93   480.99   484.49   492.28
eigval :      505.44   514.54   524.50   526.97   539.36   540.55
eigval :      543.97   549.72   558.46   622.65   645.61   669.63
eigval :      673.24   675.72   683.44   713.65   754.89   768.60
eigval :      898.52   944.37   948.71   963.73   982.65   986.27
eigval :      993.60  1003.16  1010.04  1012.31  1018.41  1021.33
eigval :     1022.17  1035.36  1039.80  1079.84  1080.40  1089.66
eigval :     1103.74  1105.66  1123.77  1125.71  1193.28  1214.26
eigval :     1244.11  1270.07  1313.93  1325.35  1340.15  1349.91
eigval :     1360.17  1362.89  1363.95  1377.23  1396.20  1415.45
eigval :     1422.49  1434.35  1446.94  1450.34  1451.15  1453.34
eigval :     1458.26  1458.80  1461.43  1463.95  1475.46  1479.28
eigval :     1484.84  1486.19  1503.94  1507.72  1521.79  1678.48
eigval :     1696.79  1711.01  1727.81  2949.88  2968.57  2980.33
eigval :     2998.36  3030.40  3040.51  3041.42  3042.57  3044.72
eigval :     3048.32  3052.17  3056.61  3062.82  3206.56  3336.63
eigval :     3341.29  3389.19  3454.11  3475.71  3488.04  3490.69
eigval :     3500.04  3500.36  3529.92  3533.29  3554.25  3555.07
eigval :     3561.43  3564.67  3565.98
 reduced masses (amu)
   1: 12.50   2: 12.66   3: 12.64   4: 11.55   5: 12.68   6: 12.60   7: 12.19   8: 11.58
   9: 11.69  10: 12.29  11: 12.37  12: 12.62  13: 12.54  14: 12.59  15: 12.46  16: 12.94
  17: 12.18  18: 12.66  19: 12.38  20: 13.22  21: 12.79  22: 11.94  23: 11.87  24: 11.95
  25: 11.98  26: 13.23  27: 11.50  28: 11.81  29: 13.25  30: 12.48  31: 12.10  32:  3.32
  33: 13.34  34:  2.71  35:  2.77  36:  7.45  37:  3.70  38:  3.72  39:  7.70  40:  1.87
  41:  3.69  42:  7.96  43:  3.65  44:  3.25  45:  8.61  46:  7.67  47:  6.94  48:  3.27
  49:  4.17  50:  5.44  51:  6.80  52:  7.93  53:  8.13  54:  4.14  55:  4.10  56:  4.43
  57:  8.82  58:  3.52  59:  9.83  60:  9.40  61:  9.65  62: 10.90  63:  3.47  64:  2.21
  65:  3.27  66: 10.40  67: 11.81  68: 12.05  69: 10.06  70:  2.70  71:  6.03  72:  6.83
  73:  8.04  74:  7.30  75:  5.23  76:  4.97  77:  5.12  78:  5.57  79:  7.52  80:  8.53
  81:  8.29  82:  8.04  83:  8.63  84:  6.48  85:  9.69  86:  3.11  87:  8.17  88:  8.78
  89:  9.95  90:  8.71  91:  7.62  92:  5.47  93:  6.87  94:  6.71  95:  4.79  96:  3.06
  97:  7.24  98:  8.22  99:  6.34 100:  3.35 101:  4.93 102:  5.18 103:  4.35 104:  5.04
 105:  5.70 106:  3.19 107:  2.52 108:  2.50 109:  2.09 110:  2.30 111:  1.79 112:  1.84
 113:  3.08 114:  3.06 115:  1.92 116:  2.22 117:  2.86 118:  2.82 119:  1.63 120:  1.65
 121:  1.63 122:  7.81 123:  8.21 124:  9.08 125:  8.66 126: 12.59 127: 12.73 128: 12.73
 129: 12.77 130:  1.74 131:  1.92 132:  1.55 133:  1.77 134:  1.78 135:  1.74 136:  1.95
 137:  1.60 138:  1.77 139:  1.55 140:  1.76 141:  1.68 142:  1.77 143:  1.91 144:  1.72
 145:  1.50 146:  2.18 147:  1.49 148:  1.50 149:  1.45 150:  1.45 151:  1.45 152:  1.46
 153:  2.14 154:  1.94 155:  2.18 156:  2.14 157:  2.18 158:  2.18 159:  2.18
 IR intensities (km·mol⁻¹)
   1:  1.03   2:  1.95   3:  2.70   4:  0.13   5:  1.83   6:  1.19   7:  2.29   8:  3.07
   9:  0.10  10:  0.45  11:  1.18  12:  0.26  13:  1.55  14:  7.19  15:  4.69  16:  4.06
  17:  3.48  18:  6.72  19: 12.61  20:  0.64  21:  6.95  22:  1.51  23:  1.29  24:  2.16
  25: 10.88  26:  5.02  27: 27.20  28:  7.99  29: 17.23  30: 19.44  31:  9.67  32:  9.77
  33:  2.82  34:  3.48  35:161.74  36:  1.87  37: 84.35  38:255.17  39:  1.34  40:  4.52
  41:358.17  42:  3.71  43:128.99  44:248.09  45:  5.78  46:  8.49  47:  1.58  48:  7.82
  49: 11.85  50: 30.53  51:  9.33  52: 32.84  53:  0.49  54: 47.62  55:  3.33  56:326.31
  57: 32.49  58: 39.65  59: 35.85  60: 65.69  61: 48.25  62: 17.24  63:118.15  64:176.96
  65: 70.50  66: 60.22  67: 21.45  68: 76.91  69: 34.07  70:143.75  71:177.03  72:134.92
  73:  0.17  74: 16.37  75:  6.50  76:  1.01  77:  4.58  78:  7.13  79: 31.40  80:  0.65
  81: 26.53  82:  3.53  83: 16.65  84: 15.15  85:  0.02  86:  0.33  87:  2.67  88: 42.82
  89:  0.25  90:  0.25  91:  6.62  92:  2.35  93: 26.34  94:  4.37  95: 11.48  96: 42.01
  97:  5.57  98: 13.96  99:  4.38 100: 18.71 101: 32.96 102:200.47 103:  7.04 104: 96.95
 105:127.50 106: 74.46 107: 23.34 108:  7.22 109:  4.59 110: 25.51 111:  1.25 112:  7.74
 113:  2.16 114: 13.11 115: 13.77 116:  3.29 117: 15.27 118: 37.66 119: 21.97 120: 25.20
 121: 50.34 122: 34.03 123:543.52 124:569.20 125:786.78 126:888.58 127:****** 128:598.55
 129:775.30 130: 51.28 131: 12.94 132:  9.90 133: 23.30 134: 49.07 135: 16.29 136:  2.42
 137: 16.19 138:  6.03 139:  9.53 140: 18.74 141: 36.00 142: 23.58 143:440.51 144:623.85
 145:222.29 146:425.36 147: 55.20 148: 70.41 149: 25.16 150: 70.19 151: 18.16 152: 15.98
 153: 55.55 154: 18.42 155: 16.40 156: 39.85 157: 22.10 158: 26.05 159: 10.24
 Raman intensities (amu)
Molecule has no symmetry elements
It seems to be the C1 point group
   1:  0.00   2:  0.00   3:  0.00   4:  0.00   5:  0.00   6:  0.00   7:  0.00   8:  0.00
   9:  0.00  10:  0.00  11:  0.00  12:  0.00  13:  0.00  14:  0.00  15:  0.00  16:  0.00
  17:  0.00  18:  0.00  19:  0.00  20:  0.00  21:  0.00  22:  0.00  23:  0.00  24:  0.00
  25:  0.00  26:  0.00  27:  0.00  28:  0.00  29:  0.00  30:  0.00  31:  0.00  32:  0.00
  33:  0.00  34:  0.00  35:  0.00  36:  0.00  37:  0.00  38:  0.00  39:  0.00  40:  0.00
  41:  0.00  42:  0.00  43:  0.00  44:  0.00  45:  0.00  46:  0.00  47:  0.00  48:  0.00
  49:  0.00  50:  0.00  51:  0.00  52:  0.00  53:  0.00  54:  0.00  55:  0.00  56:  0.00
  57:  0.00  58:  0.00  59:  0.00  60:  0.00  61:  0.00  62:  0.00  63:  0.00  64:  0.00
  65:  0.00  66:  0.00  67:  0.00  68:  0.00  69:  0.00  70:  0.00  71:  0.00  72:  0.00
  73:  0.00  74:  0.00  75:  0.00  76:  0.00  77:  0.00  78:  0.00  79:  0.00  80:  0.00
  81:  0.00  82:  0.00  83:  0.00  84:  0.00  85:  0.00  86:  0.00  87:  0.00  88:  0.00
  89:  0.00  90:  0.00  91:  0.00  92:  0.00  93:  0.00  94:  0.00  95:  0.00  96:  0.00
  97:  0.00  98:  0.00  99:  0.00 100:  0.00 101:  0.00 102:  0.00 103:  0.00 104:  0.00
 105:  0.00 106:  0.00 107:  0.00 108:  0.00 109:  0.00 110:  0.00 111:  0.00 112:  0.00
 113:  0.00 114:  0.00 115:  0.00 116:  0.00 117:  0.00 118:  0.00 119:  0.00 120:  0.00
 121:  0.00 122:  0.00 123:  0.00 124:  0.00 125:  0.00 126:  0.00 127:  0.00 128:  0.00
 129:  0.00 130:  0.00 131:  0.00 132:  0.00 133:  0.00 134:  0.00 135:  0.00 136:  0.00
 137:  0.00 138:  0.00 139:  0.00 140:  0.00 141:  0.00 142:  0.00 143:  0.00 144:  0.00
 145:  0.00 146:  0.00 147:  0.00 148:  0.00 149:  0.00 150:  0.00 151:  0.00 152:  0.00
 153:  0.00 154:  0.00 155:  0.00 156:  0.00 157:  0.00 158:  0.00 159:  0.00
 output can be read by thermo (or use thermo option).
 writing <g98.out> molden fake output.
 recommended (thermochemical) frequency scaling factor: 1.0
           -------------------------------------------------
          |             Thermodynamic Functions             |
           -------------------------------------------------

c1  symmetry found (for desy threshold:  0.10E+00) used in thermo

          ...................................................
          :                      SETUP                      :
          :.................................................:
          :  # frequencies                         153      :
          :  # imaginary freq.                       0      :
          :  linear?                             false      :
          :  only rotor calc.                    false      :
          :  symmetry                               c1      :
          :  rotational number                       1      :
          :  scaling factor                  1.0000000      :
          :  rotor cutoff                   50.0000000 cm⁻¹ :
          :  imag. cutoff                  -20.0000000 cm⁻¹ :
          :.................................................:

    mode    ω/cm⁻¹     T·S(HO)/kcal·mol⁻¹    T·S(FR)/kcal·mol⁻¹   T·S(vib)
   ------------------------------------------------------------------------
       1     17.44    -2.05904 (  1.46%)    -1.36846 ( 98.54%)    -1.37854
       2     19.31    -1.99870 (  2.18%)    -1.33828 ( 97.82%)    -1.35266
       3     27.64    -1.78645 (  8.54%)    -1.23207 ( 91.46%)    -1.27943
       4     29.68    -1.74443 ( 11.04%)    -1.21103 ( 88.96%)    -1.26992
       5     39.75    -1.57163 ( 28.55%)    -1.12444 ( 71.45%)    -1.25213
       6     41.62    -1.54452 ( 32.44%)    -1.11084 ( 67.56%)    -1.25153
       7     49.11    -1.44692 ( 48.20%)    -1.06186 ( 51.80%)    -1.24746
       8     54.51    -1.38544 ( 58.54%)    -1.03096 ( 41.46%)    -1.23849
       9     56.98    -1.35927 ( 62.78%)    -1.01780 ( 37.22%)    -1.23219
      10     68.97    -1.24701 ( 78.36%)    -0.96124 ( 21.64%)    -1.18516
      11     75.07    -1.19733 ( 83.55%)    -0.93615 ( 16.45%)    -1.15438
      12     78.48    -1.17126 ( 85.86%)    -0.92296 ( 14.14%)    -1.13614
      13     84.89    -1.12540 ( 89.26%)    -0.89974 ( 10.74%)    -1.10115
      14     87.64    -1.10672 ( 90.42%)    -0.89026 (  9.58%)    -1.08599
      15     94.04    -1.06568 ( 92.60%)    -0.86941 (  7.40%)    -1.05116
      16     99.16    -1.03483 ( 93.93%)    -0.85371 (  6.07%)    -1.02383
      17    109.56    -0.97695 ( 95.84%)    -0.82415 (  4.16%)    -0.97060
      18    116.98    -0.93907 ( 96.77%)    -0.80474 (  3.23%)    -0.93473
      19    120.60    -0.92148 ( 97.13%)    -0.79570 (  2.87%)    -0.91787
      20    127.72    -0.88853 ( 97.70%)    -0.77873 (  2.30%)    -0.88601
      21    143.74    -0.82094 ( 98.56%)    -0.74371 (  1.44%)    -0.81983
      22    150.56    -0.79459 ( 98.80%)    -0.72997 (  1.20%)    -0.79382
      23    162.09    -0.75292 ( 99.10%)    -0.70813 (  0.90%)    -0.75252
      24    163.76    -0.74713 ( 99.14%)    -0.70508 (  0.86%)    -0.74677
      25    175.53    -0.70822 ( 99.35%)    -0.68452 (  0.65%)    -0.70807
      26    205.33    -0.62158 ( 99.65%)    -0.63807 (  0.35%)    -0.62164
      27    233.72    -0.55163 ( 99.79%)    -0.59971 (  0.21%)    -0.55173
      28    253.61    -0.50844 ( 99.85%)    -0.57551 (  0.15%)    -0.50854
      29    260.67    -0.49411 ( 99.86%)    -0.56738 (  0.14%)    -0.49421
      30    279.68    -0.45785 ( 99.90%)    -0.54653 (  0.10%)    -0.45794
   ------------------------------------------------------------------------

   temp. (K)  partition function   enthalpy   heat capacity  entropy
                                   cal/mol     cal/K/mol   cal/K/mol   J/K/mol
 298.15  VIB  0.111E+17            19294.801    105.459    125.993
         ROT  0.127E+08              888.752      2.981     35.482
         INT  0.141E+24            20183.553    108.440    161.475
         TR   0.618E+28             1481.254      4.968     43.384
         TOT                       21664.8073   113.4082   204.8591   857.1303

       T/K    H(0)-H(T)+PV         H(T)/Eh          T*S/Eh         G(T)/Eh
   ------------------------------------------------------------------------
    298.15    0.345251E-01    0.474688E+00    0.973352E-01    0.377353E+00
   ------------------------------------------------------------------------

         :::::::::::::::::::::::::::::::::::::::::::::::::::::
         ::                  THERMODYNAMIC                  ::
         :::::::::::::::::::::::::::::::::::::::::::::::::::::
         :: total free energy         -80.557298044577 Eh   ::
         ::.................................................::
         :: total energy              -80.934651076129 Eh   ::
         :: zero point energy           0.440163114373 Eh   ::
         :: G(RRHO) w/o ZPVE           -0.062810082820 Eh   ::
         :: G(RRHO) contrib.            0.377353031552 Eh   ::
         :::::::::::::::::::::::::::::::::::::::::::::::::::::

           -------------------------------------------------
          | TOTAL ENERGY              -80.934651076129 Eh   |
          | TOTAL ENTHALPY            -80.459962893768 Eh   |
          | TOTAL FREE ENERGY         -80.557298044577 Eh   |
          | GRADIENT NORM               0.000197269815 Eh/α |
          | HOMO-LUMO GAP               5.278967061858 eV   |
           -------------------------------------------------

------------------------------------------------------------------------
 * finished run on 2024/01/10 at 18:27:37.201     
------------------------------------------------------------------------
 total:
 * wall-time:     0 d,  0 h,  0 min, 14.669 sec
 *  cpu-time:     0 d,  0 h,  0 min, 14.584 sec
 * ratio c/w:     0.994 speedup
 SCF:
 * wall-time:     0 d,  0 h,  0 min,  0.100 sec
 *  cpu-time:     0 d,  0 h,  0 min,  0.060 sec
 * ratio c/w:     0.606 speedup
 analytical hessian:
 * wall-time:     0 d,  0 h,  0 min, 14.543 sec
 *  cpu-time:     0 d,  0 h,  0 min, 14.497 sec
 * ratio c/w:     0.997 speedup

