 Entering Gaussian System
 *********************************************
 Gaussian 98:
 frequency output generated by the xtb code
 *********************************************
                         Standard orientation:
 --------------------------------------------------------------------
  Center     Atomic     Atomic              Coordinates (Angstroms)
  Number     Number      Type              X           Y           Z
 --------------------------------------------------------------------
    1          8             0       -0.404700   -0.892252    1.350247
    2          6             0        0.986420   -0.811374    1.246305
    3          1             0        1.321048    0.232528    1.325178
    4          1             0        1.398792   -1.353076    2.101707
    5          6             0        1.563398   -1.341530   -0.073789
    6          1             0        2.647662   -1.227875   -0.029186
    7          1             0        1.161522   -0.761842   -0.909401
    8          7             0        1.288000   -2.772794   -0.382376
    9          6             0        1.686036   -3.640983    0.734170
   10          1             0        2.724812   -3.429468    0.986206
   11          1             0        1.593268   -4.684270    0.438172
   12          1             0        1.046019   -3.464679    1.594842
   13          6             0        2.089268   -3.123857   -1.567690
   14          1             0        3.144824   -3.016263   -1.324725
   15          1             0        1.819078   -2.455683   -2.383702
   16          1             0        1.886766   -4.151869   -1.860699
   17          6             0       -0.136864   -2.962835   -0.697230
   18          1             0       -0.744725   -2.656925    0.151625
   19          1             0       -0.328783   -4.008014   -0.930864
   20          1             0       -0.384252   -2.344756   -1.559754
   21          1             0       -0.793510   -0.281793    0.670909
   22          6             0        5.746334   -2.238123    0.451944
   23          8             0        4.544611   -2.408223    0.304299
   24          7             0        6.542111   -1.798374   -0.553515
   25          1             0        6.112188   -1.507263   -1.413101
   26          1             0        7.504946   -1.558980   -0.403433
   27          7             0        6.371976   -2.476531    1.630058
   28          1             0        7.370962   -2.441993    1.718119
   29          1             0        5.847391   -2.898949    2.374827
   30          6             0       -2.174185    1.676142    0.299651
   31          8             0       -1.411709    0.923332   -0.326254
   32          7             0       -2.497729    1.463525    1.584398
   33          1             0       -2.097733    0.684064    2.077315
   34          1             0       -3.099440    2.126060    2.052267
   35          7             0       -2.752553    2.750692   -0.267819
   36          1             0       -3.321534    3.355602    0.305492
   37          1             0       -2.502078    3.022978   -1.200023
   38          6             0       -0.222689   -0.147742   -3.658913
   39          8             0        0.429127   -0.940499   -2.988787
   40          7             0       -0.957615    0.837712   -3.107968
   41          1             0       -1.089896    0.849445   -2.095921
   42          1             0       -1.588306    1.373621   -3.676373
   43          7             0       -0.247464   -0.223964   -5.018848
   44          1             0       -0.639077    0.512563   -5.577348
   45          1             0        0.399673   -0.849608   -5.464867
   46          6             0       -4.997650    4.399206    2.700118
   47          8             0       -4.181250    3.762997    2.047970
   48          7             0       -5.697104    3.844513    3.720087
   49          1             0       -5.629740    2.852126    3.860456
   50          1             0       -6.450377    4.331516    4.170378
   51          7             0       -5.262366    5.704263    2.448906
   52          1             0       -5.833812    6.255479    3.062954
   53          1             0       -4.678061    6.188828    1.790905
 --------------------------------------------------------------------
     1 basis functions        1 primitive gaussians
     1 alpha electrons        1 beta electrons

 Harmonic frequencies (cm**-1), IR intensities (km*mol⁻¹),
 Raman scattering activities (A**4/amu), Raman depolarization ratios,
 reduced masses (AMU), force constants (mDyne/A) and normal coordinates:
                      1                      2                      3
                        a                      a                      a 
 Frequencies --    -3.8699                 3.7521                 7.8746
 Red. masses --    11.2015                11.3606                12.0775
 Frc consts  --     0.0000                 0.0000                 0.0000
 IR Inten    --     0.1180                 0.1247                 1.4576
 Raman Activ --     0.0000                 0.0000                 0.0000
 Depolar     --     0.0000                 0.0000                 0.0000
 Atom AN      X      Y      Z        X      Y      Z        X      Y      Z
   1   8     0.05   0.05   0.01     0.09   0.09   0.04     0.16   0.19   0.09
   2   6     0.04   0.04  -0.01     0.07   0.04   0.01     0.14   0.10   0.03
   3   1     0.01   0.01  -0.01     0.03   0.01  -0.00     0.05   0.03  -0.00
   4   1     0.02   0.01  -0.00     0.02   0.01   0.00     0.04   0.03   0.01
   5   6     0.02   0.03  -0.02     0.04   0.02   0.00     0.07   0.03   0.03
   6   1     0.01   0.01  -0.01     0.01  -0.00  -0.00     0.02  -0.01  -0.00
   7   1     0.00   0.01  -0.00     0.01   0.01   0.00     0.02   0.01   0.01
   8   7     0.01   0.03  -0.01    -0.01   0.02   0.02    -0.01   0.04   0.09
   9   6     0.01   0.03  -0.00    -0.03   0.02   0.02    -0.01   0.05   0.10
  10   1     0.00   0.01  -0.01    -0.00  -0.00   0.00     0.00   0.00   0.02
  11   1    -0.00   0.01   0.00    -0.02   0.01   0.01    -0.02   0.01   0.04
  12   1     0.01   0.01   0.00    -0.00   0.01   0.01     0.01   0.03   0.03
  13   6    -0.01   0.02  -0.01    -0.04  -0.01   0.01    -0.07  -0.04   0.07
  14   1    -0.00   0.00  -0.01    -0.01  -0.01  -0.00    -0.02  -0.02   0.01
  15   1    -0.00   0.00  -0.00    -0.01  -0.00   0.00    -0.02  -0.02   0.02
  16   1    -0.01   0.00  -0.00    -0.02  -0.00   0.01    -0.04  -0.01   0.03
  17   6     0.00   0.04   0.01    -0.02   0.06   0.03    -0.03   0.09   0.14
  18   1     0.00   0.01   0.00    -0.00   0.03   0.01     0.01   0.04   0.05
  19   1    -0.00   0.01   0.00    -0.02   0.02   0.01    -0.02   0.03   0.05
  20   1    -0.00   0.01   0.00    -0.00   0.02   0.01    -0.01   0.02   0.04
  21   1     0.01   0.01   0.00     0.02   0.02   0.01     0.04   0.05   0.02
  22   6     0.02  -0.07  -0.02     0.01  -0.11  -0.04     0.05  -0.15  -0.14
  23   8     0.02  -0.01  -0.05     0.01  -0.09  -0.03     0.04  -0.12  -0.07
  24   7     0.17  -0.67  -0.16    -0.01  -0.04  -0.03    -0.01  -0.10  -0.17
  25   1     0.08  -0.28  -0.09    -0.01   0.01   0.00    -0.02  -0.00  -0.03
  26   1     0.05  -0.19  -0.05     0.00  -0.02  -0.01     0.00  -0.04  -0.06
  27   7    -0.11   0.43   0.16     0.05  -0.24  -0.08     0.14  -0.28  -0.22
  28   1    -0.03   0.09   0.06     0.01  -0.07  -0.03     0.04  -0.09  -0.08
  29   1    -0.06   0.23   0.09     0.02  -0.08  -0.03     0.05  -0.09  -0.06
  30   6    -0.00   0.01   0.01     0.01   0.03   0.02     0.05   0.09   0.03
  31   8     0.01   0.03   0.01     0.04   0.05   0.03     0.13   0.15   0.06
  32   7     0.01   0.01   0.02     0.07   0.05   0.04     0.02   0.08   0.02
  33   1     0.01   0.01   0.00     0.03   0.02   0.01     0.02   0.03   0.01
  34   1    -0.00  -0.00   0.00     0.01   0.01   0.01    -0.01   0.02   0.00
  35   7    -0.03  -0.00   0.01    -0.06  -0.02   0.01     0.01   0.06   0.00
  36   1    -0.01  -0.00   0.00    -0.02  -0.01   0.00    -0.01   0.01  -0.00
  37   1    -0.01  -0.00   0.00    -0.03  -0.01  -0.00     0.01   0.02   0.00
  38   6     0.00   0.04   0.00     0.04   0.05   0.02     0.01   0.01   0.06
  39   8    -0.01   0.02  -0.01     0.02   0.04   0.02    -0.02  -0.01   0.07
  40   7     0.01   0.04   0.01     0.05   0.06   0.03     0.08   0.06   0.05
  41   1     0.00   0.01   0.00     0.01   0.01   0.01     0.03   0.02   0.02
  42   1     0.01   0.02   0.00     0.02   0.02   0.01     0.03   0.02   0.01
  43   7     0.01   0.06  -0.00     0.06   0.08   0.02    -0.01  -0.01   0.06
  44   1     0.01   0.02   0.00     0.02   0.02   0.01     0.01  -0.00   0.01
  45   1     0.00   0.01  -0.00     0.01   0.02   0.01    -0.01  -0.01   0.02
  46   6    -0.05  -0.03   0.01    -0.09  -0.03  -0.03    -0.17  -0.05  -0.07
  47   8    -0.05  -0.03   0.01    -0.11  -0.06  -0.01    -0.11   0.01  -0.04
  48   7    -0.03  -0.04   0.02     0.27   0.14   0.31    -0.40  -0.19  -0.30
  49   1    -0.00  -0.01   0.01     0.15   0.06   0.17    -0.13  -0.06  -0.12
  50   1    -0.01  -0.01   0.01     0.07   0.03   0.09    -0.12  -0.06  -0.09
  51   7    -0.09  -0.05  -0.01    -0.47  -0.18  -0.41    -0.07  -0.00   0.09
  52   1    -0.03  -0.01  -0.00    -0.12  -0.03  -0.12    -0.04  -0.02   0.02
  53   1    -0.03  -0.01  -0.01    -0.20  -0.07  -0.19     0.02   0.02   0.08
                      4                      5                      6
                        a                      a                      a 
 Frequencies --    14.0732                17.1747                18.6719
 Red. masses --    11.9766                12.1516                11.8382
 Frc consts  --     0.0000                 0.0000                 0.0000
 IR Inten    --     3.3100                 1.4649                 1.5614
 Raman Activ --     0.0000                 0.0000                 0.0000
 Depolar     --     0.0000                 0.0000                 0.0000
 Atom AN      X      Y      Z        X      Y      Z        X      Y      Z
   1   8     0.04   0.22  -0.07    -0.09  -0.09  -0.03     0.11  -0.00  -0.02
   2   6     0.03   0.17  -0.08    -0.07  -0.13   0.03     0.10   0.02  -0.06
   3   1     0.01   0.05  -0.05    -0.01  -0.04   0.02     0.02   0.01  -0.02
   4   1     0.01   0.06  -0.02    -0.04  -0.05   0.01     0.04   0.00  -0.02
   5   6     0.01   0.07  -0.06    -0.05  -0.10   0.03     0.06   0.05  -0.09
   6   1     0.00   0.01  -0.02    -0.01  -0.03   0.01     0.02   0.02  -0.04
   7   1     0.01   0.01  -0.03    -0.01  -0.03   0.01     0.01   0.02  -0.02
   8   7    -0.04   0.06   0.04    -0.05  -0.11  -0.00     0.08   0.05  -0.11
   9   6    -0.06   0.12   0.09    -0.03  -0.12  -0.03     0.11   0.04  -0.13
  10   1    -0.02   0.03   0.02    -0.01  -0.03  -0.01     0.03   0.01  -0.04
  11   1    -0.03   0.03   0.05    -0.01  -0.03  -0.02     0.03   0.01  -0.04
  12   1    -0.02   0.05   0.02    -0.01  -0.05  -0.01     0.04   0.00  -0.03
  13   6    -0.04  -0.04   0.06    -0.04  -0.07  -0.01     0.05   0.08  -0.13
  14   1    -0.01  -0.02   0.01    -0.01  -0.02  -0.00     0.01   0.03  -0.05
  15   1    -0.01  -0.02   0.00    -0.01  -0.02   0.00     0.00   0.03  -0.03
  16   1    -0.02  -0.01   0.03    -0.01  -0.02  -0.01     0.02   0.02  -0.04
  17   6    -0.04   0.08   0.05    -0.04  -0.10  -0.00     0.07   0.03  -0.07
  18   1    -0.01   0.04   0.01    -0.01  -0.03  -0.00     0.02   0.01  -0.01
  19   1    -0.02   0.02   0.03    -0.01  -0.03  -0.00     0.02   0.01  -0.02
  20   1    -0.01   0.01   0.00    -0.01  -0.03  -0.00     0.01   0.01  -0.02
  21   1     0.01   0.04  -0.03    -0.01  -0.01  -0.00     0.02   0.00   0.00
  22   6    -0.03  -0.04   0.09    -0.07   0.10  -0.02     0.06  -0.07   0.13
  23   8    -0.04  -0.00   0.06    -0.07  -0.03  -0.01     0.08   0.02  -0.07
  24   7     0.01  -0.02   0.15    -0.13   0.13  -0.05     0.26  -0.03   0.31
  25   1     0.01   0.01   0.04    -0.04   0.00  -0.02     0.11   0.02   0.07
  26   1     0.00  -0.01   0.05    -0.04   0.06  -0.02     0.07  -0.03   0.13
  27   7    -0.08  -0.10   0.11    -0.05   0.25  -0.00    -0.14  -0.22   0.22
  28   1    -0.02  -0.03   0.04    -0.01   0.09  -0.00    -0.04  -0.08   0.10
  29   1    -0.03  -0.03   0.02    -0.00   0.06   0.01    -0.08  -0.07   0.03
  30   6    -0.01   0.09  -0.15     0.20   0.15   0.03     0.07   0.04   0.07
  31   8    -0.02   0.10  -0.17     0.19   0.14   0.04     0.07   0.04   0.06
  32   7     0.06   0.15  -0.13     0.10   0.11  -0.00     0.09   0.03   0.07
  33   1     0.03   0.05  -0.03    -0.00   0.01  -0.01     0.02   0.00   0.02
  34   1     0.02   0.04  -0.04     0.04   0.04  -0.00     0.03   0.01   0.02
  35   7    -0.09   0.04  -0.19     0.36   0.26   0.07     0.08   0.05   0.09
  36   1    -0.02   0.01  -0.05     0.10   0.07   0.02     0.03   0.01   0.03
  37   1    -0.04   0.00  -0.06     0.12   0.08   0.03     0.02   0.02   0.03
  38   6     0.01  -0.09  -0.10    -0.02  -0.03   0.03    -0.22  -0.03  -0.03
  39   8    -0.00  -0.08  -0.07    -0.06  -0.08   0.02    -0.13   0.04  -0.07
  40   7     0.01  -0.07  -0.16     0.10   0.05   0.03    -0.23  -0.04   0.01
  41   1    -0.00  -0.00  -0.04     0.04   0.02   0.01    -0.03  -0.00   0.01
  42   1     0.01  -0.02  -0.05     0.03   0.02   0.01    -0.09  -0.03   0.02
  43   7     0.03  -0.16  -0.10    -0.10  -0.08   0.03    -0.40  -0.10  -0.02
  44   1     0.01  -0.05  -0.04    -0.01  -0.02   0.01    -0.13  -0.04  -0.00
  45   1     0.01  -0.05  -0.02    -0.05  -0.04   0.01    -0.11  -0.02  -0.02
  46   6     0.06  -0.11   0.13    -0.01  -0.05  -0.03    -0.03   0.00  -0.03
  47   8     0.04   0.06  -0.06     0.21   0.16   0.03     0.07   0.02   0.08
  48   7     0.25  -0.33   0.16     0.04  -0.23  -0.10    -0.11   0.00  -0.09
  49   1     0.09  -0.09  -0.00     0.07  -0.06  -0.02    -0.02   0.00  -0.01
  50   1     0.07  -0.12   0.09    -0.03  -0.11  -0.04    -0.05  -0.00  -0.05
  51   7    -0.09  -0.10   0.37    -0.30  -0.11  -0.05    -0.07  -0.02  -0.10
  52   1    -0.02  -0.07   0.14    -0.13  -0.07  -0.02    -0.04  -0.01  -0.05
  53   1    -0.06   0.01   0.09    -0.10   0.01   0.00    -0.00  -0.00  -0.01
                      7                      8                      9
                        a                      a                      a 
 Frequencies --    25.5678                27.2848                34.0080
 Red. masses --    11.7446                12.8715                12.6904
 Frc consts  --     0.0000                 0.0000                 0.0000
 IR Inten    --     2.0427                 2.5894                 2.4166
 Raman Activ --     0.0000                 0.0000                 0.0000
 Depolar     --     0.0000                 0.0000                 0.0000
 Atom AN      X      Y      Z        X      Y      Z        X      Y      Z
   1   8    -0.25  -0.12  -0.03     0.00   0.07  -0.13    -0.22  -0.03  -0.26
   2   6    -0.21  -0.03   0.11     0.01  -0.03  -0.04    -0.18   0.00  -0.11
   3   1    -0.08  -0.01   0.06     0.02  -0.02  -0.00    -0.06   0.00  -0.03
   4   1    -0.08  -0.02   0.03    -0.02  -0.02  -0.01    -0.07   0.01  -0.02
   5   6    -0.06   0.08   0.13     0.04  -0.06  -0.02    -0.06  -0.02  -0.05
   6   1    -0.02   0.05   0.06     0.01  -0.02  -0.00    -0.02   0.01   0.01
   7   1    -0.01   0.03   0.04     0.02  -0.02  -0.01    -0.01  -0.02  -0.03
   8   7     0.08   0.08   0.04     0.03  -0.06  -0.00     0.05  -0.05  -0.01
   9   6     0.09   0.04   0.01     0.06  -0.05  -0.01     0.07   0.01   0.03
  10   1     0.02   0.03   0.02     0.02  -0.01  -0.01     0.01   0.03   0.02
  11   1     0.05   0.01  -0.02     0.02  -0.02  -0.00     0.04  -0.00   0.02
  12   1     0.01  -0.02  -0.00     0.02  -0.02   0.00     0.01  -0.00   0.00
  13   6     0.17   0.20   0.06     0.01  -0.07  -0.02     0.10  -0.04   0.03
  14   1     0.04   0.08   0.04     0.00  -0.02  -0.01     0.03   0.01   0.02
  15   1     0.05   0.06   0.02    -0.00  -0.02  -0.01     0.02  -0.02  -0.00
  16   1     0.08   0.06  -0.00     0.00  -0.02  -0.00     0.05  -0.02   0.02
  17   6     0.11  -0.03  -0.05     0.03  -0.06   0.03     0.07  -0.16  -0.04
  18   1     0.01  -0.03  -0.02     0.01  -0.01   0.01     0.01  -0.05  -0.02
  19   1     0.06  -0.01  -0.03     0.00  -0.02   0.02     0.04  -0.05  -0.00
  20   1     0.03  -0.00  -0.01     0.00  -0.02   0.00     0.02  -0.06  -0.02
  21   1    -0.05  -0.02  -0.01     0.02   0.04  -0.02    -0.04  -0.00  -0.07
  22   6     0.11  -0.08  -0.02     0.03   0.01   0.01     0.05  -0.00   0.01
  23   8     0.08   0.16   0.15     0.05  -0.04  -0.04     0.04   0.12   0.06
  24   7     0.08  -0.24  -0.13     0.05   0.04   0.04     0.06  -0.07  -0.03
  25   1     0.00  -0.03  -0.01     0.02   0.00   0.01     0.01   0.00   0.00
  26   1     0.03  -0.10  -0.06     0.01   0.02   0.02     0.02  -0.04  -0.01
  27   7     0.24  -0.23  -0.11    -0.01   0.04   0.04     0.09  -0.08  -0.03
  28   1     0.07  -0.11  -0.06    -0.00   0.02   0.02     0.02  -0.04  -0.02
  29   1     0.07  -0.03  -0.01    -0.00   0.00   0.00     0.02  -0.01  -0.00
  30   6    -0.06   0.03  -0.05     0.01   0.11  -0.05     0.01   0.13   0.03
  31   8    -0.07   0.00  -0.01     0.23   0.31  -0.01    -0.15   0.13  -0.13
  32   7    -0.29  -0.06  -0.13    -0.30  -0.16  -0.17     0.37   0.21   0.14
  33   1    -0.11  -0.03  -0.03    -0.09  -0.06  -0.06     0.10   0.04   0.01
  34   1    -0.06   0.00  -0.04    -0.11  -0.07  -0.05     0.09   0.03   0.06
  35   7     0.12   0.14  -0.05     0.08   0.19   0.02    -0.10   0.14   0.16
  36   1     0.04   0.05  -0.02    -0.02   0.01   0.00    -0.03   0.02   0.06
  37   1     0.09   0.06   0.01     0.09   0.11   0.04    -0.12   0.01   0.01
  38   6    -0.04  -0.01   0.02    -0.00  -0.05   0.01     0.06  -0.09  -0.05
  39   8     0.07   0.11   0.06    -0.07  -0.11   0.01    -0.02  -0.14  -0.01
  40   7    -0.12  -0.05  -0.01     0.21   0.11  -0.01     0.07  -0.07  -0.11
  41   1    -0.03  -0.00  -0.00     0.07   0.05  -0.00     0.00  -0.01  -0.03
  42   1    -0.06  -0.05  -0.00     0.06   0.04  -0.00     0.05   0.00  -0.05
  43   7    -0.09  -0.10   0.03    -0.14  -0.17   0.01     0.17  -0.10  -0.06
  44   1    -0.05  -0.04   0.00    -0.02  -0.04  -0.00     0.06  -0.02  -0.02
  45   1    -0.01  -0.01   0.01    -0.07  -0.08   0.00     0.04  -0.04  -0.00
  46   6     0.01   0.03  -0.00    -0.09  -0.01   0.07    -0.11   0.03   0.11
  47   8     0.05   0.15  -0.06    -0.37  -0.22  -0.06    -0.08  -0.05   0.27
  48   7     0.11  -0.07   0.01    -0.01   0.18   0.23    -0.24   0.14   0.09
  49   1     0.06  -0.02  -0.01    -0.05   0.04   0.07    -0.08   0.04   0.04
  50   1     0.02  -0.04   0.02     0.04   0.09   0.09    -0.07   0.05  -0.01
  51   7    -0.13   0.02   0.06     0.13   0.03   0.07    -0.04   0.03  -0.01
  52   1    -0.04  -0.02   0.03     0.09   0.05   0.04    -0.02   0.03  -0.02
  53   1    -0.06   0.03   0.01     0.02  -0.03  -0.02     0.02  -0.01   0.01
                     10                     11                     12
                        a                      a                      a 
 Frequencies --    39.4844                42.8903                50.3290
 Red. masses --    12.5467                12.8868                13.0825
 Frc consts  --     0.0000                 0.0000                 0.0000
 IR Inten    --     3.4596                 1.5925                 0.2231
 Raman Activ --     0.0000                 0.0000                 0.0000
 Depolar     --     0.0000                 0.0000                 0.0000
 Atom AN      X      Y      Z        X      Y      Z        X      Y      Z
   1   8     0.02   0.03  -0.02    -0.09  -0.15   0.08    -0.08   0.01   0.11
   2   6     0.03  -0.04   0.07    -0.07  -0.15   0.11    -0.08   0.09   0.07
   3   1     0.02  -0.02   0.04    -0.02  -0.05   0.06    -0.04   0.03   0.02
   4   1    -0.01  -0.03   0.02    -0.03  -0.06   0.02    -0.01   0.03   0.02
   5   6     0.07   0.01   0.07    -0.05  -0.05   0.08    -0.10   0.13   0.05
   6   1     0.02  -0.02   0.04    -0.02  -0.00   0.02    -0.03   0.05   0.01
   7   1     0.05   0.03   0.02    -0.02  -0.01   0.03    -0.04   0.03   0.02
   8   7    -0.01   0.05  -0.04     0.02  -0.05  -0.01    -0.06   0.13   0.06
   9   6    -0.16  -0.05  -0.06     0.10  -0.10  -0.08    -0.05   0.14   0.07
  10   1    -0.05  -0.04   0.01     0.03  -0.02  -0.03    -0.02   0.05   0.03
  11   1    -0.06  -0.01  -0.04     0.04  -0.03  -0.04     0.00   0.04   0.02
  12   1    -0.06  -0.02  -0.03     0.03  -0.06  -0.01    -0.02   0.03   0.01
  13   6     0.06   0.06   0.00     0.01   0.07  -0.05    -0.03   0.13   0.07
  14   1     0.02  -0.01   0.03     0.00   0.03  -0.02    -0.01   0.05   0.02
  15   1     0.05   0.04   0.01    -0.02   0.03  -0.00    -0.02   0.03   0.02
  16   1     0.00   0.03  -0.02     0.02   0.02  -0.03     0.00   0.03   0.02
  17   6     0.01   0.17  -0.16     0.02  -0.10   0.02    -0.05   0.07   0.04
  18   1    -0.01   0.05  -0.06     0.01  -0.05   0.01    -0.02   0.01   0.01
  19   1    -0.01   0.06  -0.07     0.02  -0.03  -0.01    -0.00   0.02   0.01
  20   1     0.03   0.07  -0.04    -0.01  -0.02   0.02    -0.02   0.02   0.01
  21   1     0.03   0.02  -0.00    -0.01  -0.03   0.03    -0.02  -0.02   0.01
  22   6    -0.06  -0.04   0.07     0.04   0.01  -0.02    -0.08   0.05   0.03
  23   8    -0.07  -0.19   0.26     0.04   0.06  -0.09    -0.14   0.32   0.17
  24   7    -0.25  -0.01  -0.07     0.10  -0.00   0.02    -0.10  -0.10  -0.04
  25   1    -0.11  -0.03  -0.01     0.04   0.01   0.00    -0.04   0.01   0.01
  26   1    -0.07   0.03  -0.06     0.03  -0.01   0.02    -0.01  -0.07  -0.03
  27   7     0.12   0.11   0.00    -0.02  -0.03  -0.00    -0.01  -0.10  -0.04
  28   1     0.04   0.06  -0.04    -0.01  -0.02   0.01     0.00  -0.07  -0.03
  29   1     0.07   0.02   0.02    -0.02  -0.00  -0.01    -0.01   0.01   0.01
  30   6     0.11   0.06   0.01     0.07   0.05  -0.02     0.14  -0.08  -0.01
  31   8     0.15   0.10  -0.01     0.07  -0.04   0.07     0.10  -0.11  -0.07
  32   7     0.22   0.09   0.04     0.28   0.35   0.08     0.21  -0.09   0.00
  33   1     0.06   0.02   0.00     0.06   0.10   0.04     0.05  -0.04  -0.01
  34   1     0.03  -0.00   0.00     0.03   0.08  -0.02     0.05  -0.04   0.00
  35   7     0.03   0.01   0.00    -0.05  -0.11  -0.19     0.20  -0.03   0.05
  36   1    -0.01  -0.01  -0.00    -0.04  -0.03  -0.08     0.04  -0.03   0.01
  37   1    -0.01  -0.00  -0.01    -0.06  -0.09  -0.08     0.02  -0.02  -0.00
  38   6    -0.00  -0.01  -0.03    -0.05   0.05   0.07    -0.05   0.03  -0.07
  39   8     0.32   0.27  -0.02    -0.12  -0.00   0.07    -0.19  -0.10  -0.11
  40   7    -0.25  -0.19  -0.06     0.01   0.10   0.10     0.19   0.21  -0.05
  41   1    -0.03  -0.02  -0.01     0.00   0.02   0.03     0.05   0.04  -0.01
  42   1    -0.12  -0.11  -0.01     0.01   0.04   0.03     0.06   0.07  -0.01
  43   7    -0.14  -0.17  -0.03    -0.06   0.08   0.08    -0.16   0.01  -0.08
  44   1    -0.10  -0.09  -0.02    -0.00   0.03   0.02    -0.01   0.02  -0.02
  45   1     0.01   0.00  -0.01    -0.03   0.01   0.02    -0.08  -0.04  -0.03
  46   6    -0.04  -0.06   0.00    -0.07   0.01  -0.09     0.08  -0.17  -0.05
  47   8    -0.18  -0.18  -0.04    -0.35  -0.00  -0.42     0.02  -0.32  -0.02
  48   7    -0.05   0.04   0.06     0.13  -0.04   0.02     0.03  -0.05  -0.02
  49   1    -0.04   0.01   0.02     0.00  -0.02  -0.05    -0.02  -0.01   0.01
  50   1     0.01   0.03   0.02     0.07  -0.01   0.07     0.02   0.01  -0.01
  51   7     0.09  -0.03   0.00     0.02   0.08   0.16     0.21  -0.17  -0.14
  52   1     0.05   0.01   0.01     0.06   0.02   0.10     0.07  -0.02  -0.05
  53   1     0.03  -0.03  -0.01    -0.03   0.02   0.01     0.07  -0.07  -0.05
                     13                     14                     15
                        a                      a                      a 
 Frequencies --    57.8669                61.6028                75.2420
 Red. masses --    12.7965                12.6227                13.6334
 Frc consts  --     0.0000                 0.0000                 0.0000
 IR Inten    --     0.7318                 1.8432                 6.6590
 Raman Activ --     0.0000                 0.0000                 0.0000
 Depolar     --     0.0000                 0.0000                 0.0000
 Atom AN      X      Y      Z        X      Y      Z        X      Y      Z
   1   8    -0.02   0.00  -0.09    -0.17   0.12   0.00    -0.04   0.08  -0.05
   2   6    -0.01  -0.06   0.00    -0.12  -0.07   0.18    -0.03   0.00   0.01
   3   1     0.01  -0.02   0.02     0.00  -0.03   0.10     0.00  -0.00   0.01
   4   1    -0.02  -0.03   0.00    -0.09  -0.06   0.05    -0.03  -0.01   0.01
   5   6     0.04  -0.04   0.01    -0.04  -0.01   0.20    -0.01  -0.01   0.03
   6   1     0.01  -0.01   0.02    -0.01  -0.01   0.07    -0.00  -0.00   0.01
   7   1     0.02  -0.00   0.00     0.01   0.02   0.06    -0.00  -0.00   0.01
   8   7     0.04  -0.03  -0.03    -0.05   0.02   0.09    -0.00  -0.01   0.03
   9   6     0.01  -0.07  -0.05     0.04  -0.08  -0.03     0.07  -0.02  -0.00
  10   1     0.00  -0.02  -0.00     0.02  -0.03  -0.03     0.02  -0.01  -0.02
  11   1     0.00  -0.02  -0.03     0.00  -0.02  -0.04     0.01  -0.01  -0.00
  12   1    -0.00  -0.03  -0.02     0.03  -0.05   0.01     0.03  -0.01   0.01
  13   6     0.07   0.01  -0.02    -0.11   0.14   0.00    -0.06   0.02  -0.01
  14   1     0.02  -0.00   0.00    -0.03   0.04  -0.02    -0.01   0.01  -0.02
  15   1     0.03   0.01  -0.00    -0.05   0.06   0.02    -0.03   0.01   0.00
  16   1     0.02   0.01  -0.02    -0.03   0.05  -0.02    -0.02   0.01  -0.01
  17   6     0.05  -0.01  -0.07    -0.06   0.04   0.14    -0.02  -0.03   0.09
  18   1     0.01  -0.01  -0.02    -0.01  -0.02   0.06     0.01  -0.02   0.04
  19   1     0.01  -0.00  -0.03    -0.02   0.02   0.01    -0.00  -0.01   0.02
  20   1     0.02   0.00  -0.02    -0.03   0.04   0.06    -0.02  -0.00   0.03
  21   1     0.01   0.01  -0.02     0.00   0.03  -0.03     0.00   0.01  -0.03
  22   6     0.03  -0.03   0.08     0.01   0.00  -0.11     0.15  -0.08   0.10
  23   8     0.03  -0.12   0.21     0.04  -0.04  -0.34     0.20  -0.36   0.22
  24   7    -0.09  -0.01  -0.01     0.16   0.06   0.02    -0.01   0.04   0.04
  25   1    -0.05  -0.02   0.01     0.08   0.01  -0.01    -0.03  -0.03   0.01
  26   1    -0.03   0.02  -0.03     0.04   0.02   0.05    -0.01   0.06  -0.01
  27   7     0.16   0.05   0.03    -0.18   0.00  -0.02     0.31   0.11   0.08
  28   1     0.04   0.03  -0.02    -0.05   0.01   0.04     0.08   0.07  -0.01
  29   1     0.07   0.01   0.02    -0.08  -0.01  -0.03     0.12  -0.01   0.03
  30   6    -0.09  -0.02  -0.04     0.02   0.02  -0.09     0.01   0.03  -0.06
  31   8     0.04   0.12  -0.02     0.09   0.13  -0.16    -0.01   0.05  -0.10
  32   7     0.01   0.00  -0.01     0.08  -0.06  -0.10     0.02  -0.01  -0.07
  33   1     0.06   0.04   0.01     0.05  -0.01  -0.04     0.00  -0.01  -0.03
  34   1     0.01  -0.00   0.00     0.02  -0.03  -0.01     0.01  -0.01  -0.01
  35   7    -0.45  -0.24  -0.13    -0.13  -0.04  -0.06     0.04   0.07  -0.02
  36   1    -0.09  -0.05  -0.02    -0.02  -0.02   0.00     0.01   0.01  -0.00
  37   1    -0.09  -0.03  -0.02    -0.02   0.02  -0.01     0.00   0.02  -0.01
  38   6    -0.02   0.07   0.03     0.02   0.04   0.06    -0.20   0.07  -0.03
  39   8    -0.05   0.04   0.02     0.04   0.23   0.27    -0.46  -0.06   0.02
  40   7     0.32   0.34   0.03    -0.11   0.06  -0.15    -0.29   0.04  -0.08
  41   1     0.08   0.09   0.01    -0.04   0.05  -0.04    -0.09   0.01  -0.02
  42   1     0.07   0.08   0.02    -0.04  -0.02  -0.07    -0.02   0.06  -0.04
  43   7    -0.32  -0.13   0.05     0.13  -0.20   0.08     0.13   0.28  -0.05
  44   1    -0.06  -0.03   0.01     0.03  -0.09  -0.02     0.07   0.09  -0.02
  45   1    -0.13  -0.08   0.01     0.07  -0.05   0.07     0.03   0.06   0.00
  46   6     0.07   0.04   0.01     0.08  -0.08   0.01     0.04  -0.06  -0.02
  47   8     0.23   0.12   0.12     0.16  -0.14   0.14     0.04  -0.10  -0.00
  48   7     0.01  -0.02  -0.07    -0.01  -0.02  -0.03     0.02  -0.03  -0.02
  49   1     0.03  -0.00  -0.01    -0.00  -0.00   0.02     0.00  -0.01   0.00
  50   1    -0.02  -0.02  -0.04    -0.01   0.00  -0.03     0.01  -0.00  -0.01
  51   7    -0.04   0.01  -0.04     0.11  -0.11  -0.12     0.07  -0.06  -0.06
  52   1    -0.04  -0.01  -0.03     0.01  -0.02  -0.05     0.02  -0.01  -0.02
  53   1     0.00   0.02   0.01     0.05  -0.04  -0.02     0.02  -0.02  -0.02
                     16                     17                     18
                        a                      a                      a 
 Frequencies --    75.8002                87.4868                96.2847
 Red. masses --    13.9725                13.1599                11.5950
 Frc consts  --     0.0000                 0.0000                 0.0000
 IR Inten    --     3.3546                 5.7461                16.1089
 Raman Activ --     0.0000                 0.0000                 0.0000
 Depolar     --     0.0000                 0.0000                 0.0000
 Atom AN      X      Y      Z        X      Y      Z        X      Y      Z
   1   8    -0.08  -0.05  -0.01    -0.14  -0.04   0.16    -0.16  -0.11  -0.17
   2   6    -0.08   0.11  -0.04    -0.11  -0.04   0.21    -0.15   0.12  -0.18
   3   1    -0.06   0.04  -0.04    -0.03  -0.02   0.09    -0.09   0.05  -0.10
   4   1    -0.00   0.07  -0.00    -0.05  -0.04   0.05    -0.01   0.09  -0.03
   5   6    -0.04   0.06  -0.01    -0.07   0.07   0.18    -0.11   0.01  -0.12
   6   1    -0.01   0.02   0.00    -0.02   0.02   0.06    -0.03   0.02  -0.03
   7   1    -0.00   0.01  -0.01    -0.01   0.04   0.06    -0.03  -0.03  -0.05
   8   7    -0.03   0.06   0.04    -0.06   0.11   0.05    -0.06  -0.03   0.05
   9   6    -0.08   0.10   0.09    -0.14   0.01   0.00    -0.18   0.14   0.22
  10   1    -0.02   0.01   0.02    -0.04  -0.01   0.02    -0.06   0.05   0.09
  11   1    -0.04   0.03   0.04    -0.04   0.01  -0.02    -0.04   0.03   0.11
  12   1    -0.02   0.06   0.02    -0.05  -0.01  -0.00    -0.08   0.08   0.04
  13   6     0.02   0.00   0.08     0.02   0.17   0.07     0.08  -0.18   0.18
  14   1     0.00  -0.01   0.04     0.00   0.05   0.04     0.02  -0.05   0.08
  15   1     0.02  -0.00   0.01     0.02   0.06   0.02     0.05  -0.08   0.02
  16   1     0.00  -0.00   0.03     0.01   0.05   0.00     0.03  -0.06   0.08
  17   6    -0.01   0.04  -0.03    -0.04   0.14  -0.07    -0.01  -0.10  -0.11
  18   1    -0.02   0.01  -0.01    -0.03   0.04  -0.03    -0.03  -0.00  -0.06
  19   1     0.00   0.01  -0.01    -0.01   0.04  -0.03     0.01  -0.04  -0.00
  20   1     0.00   0.01  -0.01     0.01   0.05  -0.02     0.02  -0.06  -0.06
  21   1    -0.05  -0.04  -0.01    -0.02   0.01   0.04    -0.05  -0.01  -0.02
  22   6     0.10  -0.10  -0.05     0.09  -0.04  -0.06     0.06   0.00  -0.05
  23   8     0.17  -0.42  -0.18     0.14  -0.20  -0.18     0.09  -0.02  -0.13
  24   7     0.10   0.09   0.04     0.14   0.08   0.02     0.13   0.03   0.01
  25   1     0.04  -0.02  -0.01     0.05  -0.01  -0.01     0.05   0.01  -0.00
  26   1     0.01   0.08   0.03     0.03   0.04   0.03     0.03   0.02   0.02
  27   7     0.04   0.10   0.03     0.02   0.05   0.00     0.00   0.01  -0.01
  28   1     0.01   0.07   0.03     0.00   0.03   0.02    -0.00  -0.00   0.01
  29   1     0.02  -0.02  -0.01     0.00  -0.02  -0.02    -0.01  -0.01  -0.02
  30   6    -0.06  -0.07  -0.01     0.04  -0.00   0.05     0.02   0.09   0.06
  31   8    -0.37  -0.32  -0.11     0.18   0.08   0.12     0.20   0.22   0.13
  32   7     0.07   0.04   0.05    -0.03  -0.01   0.04    -0.03   0.04   0.04
  33   1    -0.03  -0.02  -0.00     0.00   0.01   0.02     0.01   0.02   0.01
  34   1     0.04   0.02   0.02    -0.02  -0.00  -0.00    -0.03  -0.01   0.00
  35   7     0.24   0.13   0.09    -0.09  -0.11  -0.02    -0.15  -0.04  -0.02
  36   1     0.06   0.03   0.02    -0.02  -0.02  -0.01    -0.04  -0.01  -0.00
  37   1    -0.02  -0.03  -0.02     0.02  -0.00   0.01     0.01   0.02   0.02
  38   6     0.03   0.05   0.01     0.05  -0.13  -0.20    -0.02   0.06   0.10
  39   8     0.10   0.13   0.04     0.03  -0.31  -0.39     0.11   0.09   0.00
  40   7     0.21   0.22  -0.02     0.13  -0.18  -0.02    -0.13  -0.07   0.20
  41   1     0.03   0.04  -0.01     0.06  -0.06  -0.01    -0.00  -0.01   0.06
  42   1     0.01   0.01  -0.01     0.05  -0.00   0.02    -0.04  -0.01   0.07
  43   7    -0.19  -0.16   0.03    -0.02   0.09  -0.22    -0.10   0.17   0.10
  44   1    -0.05  -0.05  -0.00    -0.01   0.05  -0.02    -0.05   0.05   0.05
  45   1    -0.06  -0.06   0.01    -0.03   0.02  -0.10    -0.01   0.08   0.00
  46   6    -0.03  -0.01  -0.01    -0.03   0.05   0.05     0.10  -0.10  -0.08
  47   8    -0.10  -0.03  -0.07     0.01   0.07   0.09     0.09  -0.14  -0.09
  48   7     0.00   0.00   0.02    -0.05   0.04   0.03     0.10  -0.09  -0.08
  49   1    -0.01  -0.00  -0.00    -0.01   0.01   0.01     0.03  -0.02  -0.02
  50   1     0.01   0.01   0.01    -0.02   0.01  -0.00     0.04  -0.02  -0.01
  51   7     0.00   0.00   0.02    -0.06   0.04   0.03     0.14  -0.11  -0.10
  52   1     0.01   0.00   0.01    -0.02   0.01   0.00     0.03  -0.02  -0.04
  53   1    -0.01  -0.00  -0.00    -0.01   0.02   0.02     0.04  -0.04  -0.03
                     19                     20                     21
                        a                      a                      a 
 Frequencies --   103.2514               116.6781               123.1428
 Red. masses --    12.0338                12.2310                10.9101
 Frc consts  --     0.0000                 0.0000                 0.0000
 IR Inten    --    13.2714                10.0448                 6.0610
 Raman Activ --     0.0000                 0.0000                 0.0000
 Depolar     --     0.0000                 0.0000                 0.0000
 Atom AN      X      Y      Z        X      Y      Z        X      Y      Z
   1   8     0.03   0.04   0.04    -0.01   0.01  -0.03     0.12  -0.07  -0.01
   2   6     0.03  -0.10   0.01    -0.02   0.05  -0.06     0.11  -0.05   0.07
   3   1     0.04  -0.04   0.00    -0.01   0.02  -0.01     0.03  -0.01   0.03
   4   1    -0.00  -0.04  -0.00     0.01   0.01  -0.03     0.02  -0.02   0.02
   5   6    -0.04  -0.14  -0.01    -0.05   0.12  -0.09     0.17  -0.05   0.09
   6   1    -0.01  -0.08  -0.00    -0.01   0.03  -0.03     0.05  -0.04   0.05
   7   1     0.01  -0.02   0.00    -0.02   0.05  -0.02     0.08   0.00   0.02
   8   7    -0.23  -0.11  -0.03    -0.09   0.15  -0.18     0.08  -0.02   0.02
   9   6    -0.29  -0.15  -0.04    -0.17   0.08  -0.18    -0.29  -0.07   0.11
  10   1    -0.08  -0.07  -0.01    -0.05   0.01  -0.03    -0.09  -0.06   0.10
  11   1    -0.11  -0.04  -0.01    -0.06   0.03  -0.07    -0.11  -0.02   0.03
  12   1    -0.08  -0.03  -0.01    -0.06   0.02  -0.06    -0.13   0.01  -0.01
  13   6    -0.25  -0.18  -0.03    -0.02   0.15  -0.13     0.29  -0.08   0.19
  14   1    -0.07  -0.08  -0.01    -0.01   0.03  -0.02     0.07  -0.03   0.11
  15   1    -0.06  -0.05  -0.01     0.01   0.05  -0.04     0.13  -0.03   0.04
  16   1    -0.10  -0.05  -0.01    -0.01   0.05  -0.05     0.09  -0.02   0.05
  17   6    -0.24   0.07  -0.02    -0.07   0.18  -0.23     0.12   0.14  -0.30
  18   1    -0.06   0.04  -0.00    -0.03   0.04  -0.07    -0.01   0.04  -0.12
  19   1    -0.11   0.03  -0.01    -0.02   0.05  -0.08     0.02   0.05  -0.12
  20   1    -0.05   0.04  -0.00    -0.01   0.06  -0.06     0.11   0.07  -0.09
  21   1     0.02   0.01   0.01    -0.01   0.01  -0.00     0.03  -0.02  -0.00
  22   6     0.24   0.12   0.06     0.04  -0.00   0.01    -0.02   0.03  -0.06
  23   8     0.24   0.36   0.12     0.05  -0.02   0.03    -0.03   0.09  -0.11
  24   7     0.31  -0.01   0.03     0.03   0.00   0.00     0.04   0.01  -0.02
  25   1     0.08   0.05   0.03     0.00   0.01   0.00     0.02   0.01  -0.01
  26   1     0.09  -0.01   0.02     0.00   0.02   0.00     0.01  -0.02   0.00
  27   7     0.29   0.01   0.02     0.07   0.02   0.01    -0.09  -0.02  -0.04
  28   1     0.08  -0.06  -0.02     0.02  -0.00  -0.01    -0.03  -0.01   0.01
  29   1     0.07   0.02   0.01     0.03  -0.01   0.00    -0.04   0.01  -0.02
  30   6    -0.01  -0.02  -0.02    -0.02  -0.01   0.13     0.03  -0.02  -0.12
  31   8    -0.05  -0.06  -0.04     0.02   0.08   0.08    -0.00  -0.10  -0.08
  32   7     0.01   0.00  -0.02    -0.00  -0.13   0.13     0.01   0.08  -0.13
  33   1    -0.00  -0.00  -0.00     0.02  -0.03   0.03    -0.02   0.01  -0.03
  34   1     0.01   0.01  -0.00     0.00  -0.04   0.05     0.00   0.03  -0.04
  35   7     0.04   0.01  -0.01    -0.07  -0.00   0.22     0.09  -0.01  -0.20
  36   1     0.01   0.00  -0.00    -0.03  -0.02   0.07     0.03   0.01  -0.06
  37   1    -0.00  -0.00  -0.01    -0.04   0.01   0.06     0.03  -0.01  -0.05
  38   6     0.02   0.04  -0.03     0.02  -0.15   0.15    -0.12   0.00   0.07
  39   8     0.08   0.10  -0.03    -0.18  -0.23   0.30    -0.32  -0.08   0.16
  40   7     0.01   0.04  -0.04     0.06  -0.07   0.04    -0.08   0.09  -0.01
  41   1     0.00   0.01  -0.01    -0.00   0.00   0.01    -0.04   0.02  -0.00
  42   1    -0.02  -0.01  -0.01     0.07   0.02  -0.01     0.01   0.04  -0.02
  43   7    -0.06  -0.03  -0.03     0.24  -0.23   0.18     0.05   0.02   0.07
  44   1    -0.02  -0.01  -0.01     0.09  -0.07   0.01     0.05   0.01   0.00
  45   1    -0.00   0.00  -0.01     0.05  -0.11   0.08     0.00  -0.02   0.04
  46   6    -0.02   0.01   0.02     0.03   0.00  -0.09    -0.03   0.02   0.08
  47   8    -0.01   0.01   0.03    -0.02   0.03  -0.19     0.00   0.00   0.15
  48   7    -0.03   0.02   0.02     0.11  -0.07  -0.08    -0.10   0.06   0.07
  49   1    -0.01   0.00   0.01     0.03  -0.02  -0.04    -0.03   0.02   0.03
  50   1    -0.01   0.01   0.00     0.04  -0.03   0.00    -0.04   0.02  -0.00
  51   7    -0.02   0.01   0.01     0.02   0.01   0.00    -0.04   0.01   0.01
  52   1    -0.00   0.00   0.00     0.01  -0.01   0.01    -0.01   0.01  -0.00
  53   1    -0.00   0.00   0.01    -0.01   0.01  -0.01     0.00  -0.00   0.01
                     22                     23                     24
                        a                      a                      a 
 Frequencies --   125.2978               129.7547               172.1585
 Red. masses --    12.1166                12.5261                12.4105
 Frc consts  --     0.0000                 0.0000                 0.0000
 IR Inten    --    23.2001                 9.1189                 9.2466
 Raman Activ --     0.0000                 0.0000                 0.0000
 Depolar     --     0.0000                 0.0000                 0.0000
 Atom AN      X      Y      Z        X      Y      Z        X      Y      Z
   1   8     0.01  -0.08   0.13    -0.02  -0.23   0.09     0.11  -0.15   0.26
   2   6    -0.01   0.03  -0.05    -0.05   0.07  -0.11     0.08  -0.06   0.03
   3   1    -0.02   0.02  -0.03    -0.07   0.04  -0.07     0.01  -0.01  -0.00
   4   1     0.04   0.02  -0.03     0.05   0.07  -0.03     0.07  -0.01  -0.01
   5   6    -0.11   0.08  -0.12    -0.16   0.08  -0.15    -0.07  -0.01  -0.05
   6   1    -0.03   0.04  -0.06    -0.05   0.05  -0.08    -0.02   0.02  -0.05
   7   1    -0.06   0.02  -0.02    -0.09   0.00  -0.04    -0.06  -0.01   0.00
   8   7    -0.06   0.07  -0.12    -0.07   0.04  -0.03     0.01  -0.04  -0.01
   9   6     0.04   0.09  -0.13     0.00   0.17   0.06    -0.01   0.02   0.04
  10   1     0.01   0.04  -0.05    -0.00   0.08   0.01    -0.01   0.03   0.03
  11   1     0.02   0.02  -0.04     0.02   0.04   0.05     0.02   0.00   0.02
  12   1     0.02   0.01  -0.03    -0.00   0.06   0.01    -0.03  -0.00  -0.00
  13   6    -0.10   0.10  -0.15    -0.06  -0.01  -0.00     0.07  -0.04   0.03
  14   1    -0.03   0.03  -0.05    -0.02   0.00  -0.00     0.02  -0.01   0.03
  15   1    -0.04   0.03  -0.04    -0.02  -0.02  -0.01     0.03  -0.01   0.01
  16   1    -0.03   0.03  -0.04    -0.01  -0.01   0.01     0.02  -0.01   0.01
  17   6    -0.07  -0.00  -0.02    -0.06  -0.11   0.01     0.03  -0.10  -0.06
  18   1    -0.01  -0.00   0.00    -0.02  -0.04   0.00    -0.00  -0.01  -0.03
  19   1    -0.01  -0.01   0.01     0.01  -0.04   0.01     0.01  -0.04   0.01
  20   1    -0.04  -0.01  -0.01    -0.04  -0.05  -0.00     0.01  -0.05  -0.04
  21   1    -0.03  -0.02   0.05    -0.03  -0.07   0.02    -0.01  -0.01   0.11
  22   6     0.02  -0.02   0.03     0.02  -0.02   0.02     0.00  -0.00   0.00
  23   8     0.03  -0.06   0.06     0.03  -0.07   0.03     0.00  -0.01  -0.00
  24   7    -0.01  -0.00   0.01     0.00  -0.00   0.01     0.00  -0.01  -0.00
  25   1    -0.01  -0.00   0.01    -0.01   0.00   0.00    -0.00   0.01   0.00
  26   1    -0.01   0.02  -0.00    -0.00   0.02   0.00    -0.00   0.01   0.00
  27   7     0.06   0.02   0.02     0.05   0.02   0.02     0.00   0.00  -0.00
  28   1     0.02   0.00  -0.01     0.01   0.00  -0.00     0.00  -0.00  -0.00
  29   1     0.03  -0.01   0.01     0.02  -0.01   0.00     0.00  -0.00  -0.00
  30   6    -0.02   0.09  -0.12     0.21  -0.15  -0.04    -0.09   0.12   0.17
  31   8    -0.03  -0.08   0.07     0.40  -0.07   0.03    -0.07   0.09   0.31
  32   7    -0.12   0.35  -0.13     0.10  -0.18  -0.08    -0.22   0.27   0.18
  33   1    -0.08   0.09  -0.00     0.04  -0.03   0.00    -0.10   0.07   0.07
  34   1    -0.05   0.11  -0.07     0.02  -0.05  -0.03    -0.08   0.08   0.01
  35   7     0.08   0.03  -0.38     0.09  -0.27  -0.12    -0.09   0.07   0.02
  36   1     0.04   0.05  -0.13     0.03  -0.06  -0.04    -0.01   0.05  -0.01
  37   1     0.08  -0.01  -0.09     0.08  -0.03  -0.01     0.05   0.03   0.03
  38   6     0.06  -0.08   0.14    -0.01   0.06  -0.03    -0.00   0.04  -0.19
  39   8     0.09  -0.13   0.09    -0.05   0.17   0.13    -0.10   0.15  -0.01
  40   7     0.08  -0.12   0.22    -0.07   0.10  -0.18    -0.01   0.17  -0.38
  41   1     0.02  -0.04   0.06    -0.01   0.04  -0.05    -0.02   0.05  -0.11
  42   1     0.02  -0.03   0.07    -0.02   0.01  -0.06    -0.02   0.01  -0.12
  43   7     0.02  -0.02   0.15     0.10  -0.11  -0.02     0.14  -0.19  -0.19
  44   1    -0.01  -0.00   0.05     0.03  -0.05  -0.04     0.06  -0.08  -0.10
  45   1    -0.00  -0.00   0.03     0.04  -0.04   0.03     0.05  -0.08   0.00
  46   6     0.02  -0.08   0.10    -0.10   0.12   0.09     0.04  -0.07  -0.02
  47   8     0.09  -0.17   0.28    -0.08   0.17   0.11     0.04  -0.10  -0.01
  48   7    -0.13   0.05   0.08    -0.11   0.11   0.09     0.03  -0.05  -0.03
  49   1    -0.04   0.02   0.07    -0.03   0.03   0.02     0.01  -0.01   0.01
  50   1    -0.04   0.04  -0.01    -0.05   0.02   0.00     0.02  -0.00   0.00
  51   7     0.08  -0.11  -0.08    -0.17   0.13   0.11     0.10  -0.08  -0.07
  52   1     0.01  -0.00  -0.06    -0.04   0.02   0.05     0.02  -0.01  -0.04
  53   1     0.05  -0.06  -0.01    -0.04   0.05   0.04     0.03  -0.04  -0.03
                     25                     26                     27
                        a                      a                      a 
 Frequencies --   193.0597               201.3916               247.9883
 Red. masses --     3.5792                10.0473                 3.6273
 Frc consts  --     0.0000                 0.0000                 0.0000
 IR Inten    --    11.4247                 5.3612                20.5076
 Raman Activ --     0.0000                 0.0000                 0.0000
 Depolar     --     0.0000                 0.0000                 0.0000
 Atom AN      X      Y      Z        X      Y      Z        X      Y      Z
   1   8     0.00   0.02  -0.00    -0.06  -0.43  -0.35    -0.00   0.05  -0.02
   2   6     0.01  -0.01   0.01    -0.06   0.09  -0.09     0.00  -0.01   0.00
   3   1     0.01  -0.00   0.01    -0.12   0.06  -0.06     0.01  -0.01   0.01
   4   1    -0.00  -0.01   0.00    -0.00   0.10   0.02    -0.01  -0.01  -0.00
   5   6     0.00   0.00   0.01     0.31   0.01   0.10    -0.01   0.00  -0.00
   6   1     0.00   0.00   0.00     0.09  -0.07   0.12    -0.00   0.00  -0.01
   7   1    -0.00  -0.00   0.00     0.20   0.02  -0.01    -0.01   0.00   0.00
   8   7     0.02  -0.00   0.01     0.06   0.08   0.07    -0.00   0.00  -0.00
   9   6     0.01  -0.00   0.01     0.03  -0.01   0.01     0.00   0.00  -0.00
  10   1    -0.00   0.01   0.02     0.05  -0.10  -0.08    -0.00   0.01   0.01
  11   1     0.02   0.00  -0.00    -0.13   0.00   0.03     0.02   0.00  -0.00
  12   1    -0.01  -0.01  -0.00     0.09   0.08   0.05    -0.01  -0.01  -0.01
  13   6     0.02   0.00   0.00    -0.17  -0.04  -0.05     0.00  -0.00   0.00
  14   1     0.01  -0.00  -0.00    -0.04  -0.01  -0.08     0.00  -0.01   0.00
  15   1     0.00   0.00   0.00    -0.09  -0.04  -0.02     0.01   0.00   0.00
  16   1     0.00   0.00  -0.00    -0.07  -0.02   0.03    -0.00   0.00  -0.00
  17   6     0.02  -0.01   0.00    -0.01   0.30   0.19    -0.00  -0.00  -0.00
  18   1     0.00   0.00  -0.00     0.03  -0.02   0.12    -0.00   0.02  -0.01
  19   1     0.01  -0.00   0.01    -0.02   0.12  -0.09    -0.00  -0.00   0.02
  20   1     0.01  -0.01  -0.00    -0.02   0.21   0.15     0.00  -0.02  -0.01
  21   1     0.00   0.00  -0.00    -0.04  -0.08  -0.05     0.01   0.02  -0.01
  22   6    -0.03  -0.01  -0.01    -0.01   0.01   0.01    -0.00   0.00  -0.00
  23   8    -0.02  -0.01  -0.02    -0.02   0.04   0.02     0.00  -0.00  -0.00
  24   7     0.07  -0.28  -0.11    -0.01  -0.01  -0.01     0.00  -0.00  -0.00
  25   1    -0.08   0.34   0.15    -0.01   0.01   0.01     0.00   0.00  -0.00
  26   1    -0.14   0.45   0.18    -0.01   0.01   0.00    -0.00   0.00   0.00
  27   7    -0.05   0.29   0.12    -0.01   0.00   0.00    -0.00  -0.00  -0.00
  28   1     0.03  -0.47  -0.19    -0.00  -0.02  -0.01    -0.00   0.00   0.00
  29   1     0.05  -0.34  -0.15    -0.00  -0.01  -0.00    -0.00   0.00   0.00
  30   6    -0.00  -0.00  -0.01    -0.00   0.00   0.07     0.02  -0.03  -0.00
  31   8    -0.00  -0.00  -0.01     0.03  -0.02   0.16    -0.01  -0.04  -0.03
  32   7     0.00  -0.01  -0.01    -0.06   0.11   0.08     0.10   0.03   0.02
  33   1     0.00  -0.00  -0.00    -0.07   0.00   0.02    -0.12  -0.09  -0.04
  34   1     0.00  -0.00   0.00    -0.05   0.02  -0.01    -0.05  -0.04  -0.02
  35   7     0.00   0.00   0.00    -0.01  -0.06  -0.06    -0.06  -0.07  -0.02
  36   1    -0.00  -0.00   0.00     0.02   0.01  -0.02     0.07   0.03   0.04
  37   1    -0.01  -0.00  -0.00     0.08   0.01   0.02     0.17   0.12   0.08
  38   6    -0.00  -0.00  -0.00    -0.01  -0.01  -0.04    -0.00  -0.00   0.01
  39   8    -0.00  -0.01  -0.01    -0.05  -0.02  -0.01    -0.00  -0.01   0.00
  40   7     0.00  -0.00   0.01     0.01   0.02  -0.06     0.01   0.01   0.01
  41   1    -0.00  -0.00   0.00     0.00  -0.00  -0.02    -0.01  -0.01   0.00
  42   1     0.00   0.00   0.00    -0.00   0.00  -0.01    -0.02  -0.02   0.00
  43   7    -0.00   0.01  -0.00     0.04  -0.03  -0.04     0.00   0.00   0.01
  44   1    -0.01   0.00   0.00     0.01  -0.02  -0.02     0.01   0.01   0.00
  45   1    -0.01   0.00  -0.00     0.00  -0.02  -0.00     0.00   0.01   0.00
  46   6    -0.00   0.00   0.00     0.00  -0.01   0.00    -0.02   0.02   0.01
  47   8     0.00   0.00   0.00     0.01  -0.01   0.01    -0.02   0.01  -0.00
  48   7    -0.00   0.00  -0.00    -0.01  -0.00  -0.00    -0.19  -0.06  -0.22
  49   1     0.00   0.00   0.00     0.00   0.00   0.01     0.22   0.05   0.25
  50   1     0.00   0.00   0.00     0.00   0.00   0.00     0.31   0.12   0.38
  51   7    -0.00   0.00   0.00     0.02  -0.01  -0.01     0.20   0.05   0.20
  52   1    -0.00   0.00   0.00    -0.01  -0.00  -0.01    -0.38  -0.05  -0.30
  53   1    -0.00   0.00   0.00    -0.00  -0.01  -0.01    -0.23  -0.03  -0.22
                     28                     29                     30
                        a                      a                      a 
 Frequencies --   256.9373               261.1821               270.8952
 Red. masses --     5.4299                10.6320                 5.0067
 Frc consts  --     0.0000                 0.0000                 0.0000
 IR Inten    --     3.5678                19.7379                 1.9024
 Raman Activ --     0.0000                 0.0000                 0.0000
 Depolar     --     0.0000                 0.0000                 0.0000
 Atom AN      X      Y      Z        X      Y      Z        X      Y      Z
   1   8     0.08  -0.29   0.15     0.19  -0.45   0.15    -0.02  -0.11  -0.28
   2   6     0.06  -0.02   0.03     0.17  -0.16   0.11     0.02  -0.26   0.07
   3   1    -0.03   0.01  -0.02     0.00  -0.03   0.07     0.05  -0.10   0.16
   4   1     0.06   0.03   0.01     0.08  -0.06   0.00    -0.07  -0.19  -0.02
   5   6     0.01   0.01   0.01     0.01   0.06  -0.02     0.07   0.07  -0.03
   6   1     0.00   0.00  -0.01     0.00   0.02  -0.06     0.02   0.02  -0.03
   7   1    -0.00   0.01   0.01    -0.05   0.03   0.02    -0.01   0.04   0.02
   8   7    -0.01   0.01   0.01    -0.04   0.07   0.01     0.02   0.10  -0.01
   9   6    -0.01   0.03   0.02    -0.02   0.17   0.09     0.06   0.22   0.08
  10   1     0.01  -0.02  -0.02    -0.03   0.10   0.06    -0.07   0.28   0.20
  11   1    -0.05   0.01   0.03     0.06   0.04   0.03     0.31   0.06  -0.05
  12   1     0.02   0.04   0.02    -0.05   0.02  -0.00    -0.17  -0.13  -0.08
  13   6    -0.03   0.02   0.00    -0.08   0.00   0.01    -0.09  -0.12  -0.02
  14   1    -0.01   0.04  -0.01    -0.02  -0.01  -0.01    -0.02  -0.19   0.02
  15   1    -0.03  -0.01  -0.01    -0.03  -0.00  -0.00     0.08   0.04   0.02
  16   1     0.02  -0.00   0.02    -0.04   0.00   0.01    -0.18   0.01  -0.06
  17   6    -0.01  -0.02  -0.00    -0.04  -0.01   0.02    -0.02   0.18   0.09
  18   1    -0.01  -0.11   0.03    -0.02  -0.08   0.03     0.01   0.29  -0.05
  19   1     0.03   0.01  -0.10     0.03   0.00  -0.05    -0.08   0.01   0.26
  20   1    -0.03   0.07   0.06    -0.03   0.04   0.04     0.05  -0.12  -0.11
  21   1    -0.01  -0.10   0.04     0.03  -0.12   0.05     0.04   0.04  -0.04
  22   6     0.00  -0.00   0.00     0.00  -0.01  -0.00     0.00  -0.01  -0.01
  23   8     0.00  -0.00   0.00     0.00  -0.01  -0.00     0.00  -0.01  -0.01
  24   7    -0.00   0.00   0.00    -0.00   0.01   0.01    -0.00   0.02   0.01
  25   1     0.00  -0.00  -0.00     0.00  -0.01  -0.00     0.01  -0.02  -0.01
  26   1     0.00  -0.00  -0.00     0.00  -0.01  -0.00     0.01  -0.02  -0.01
  27   7     0.00   0.00   0.00     0.00   0.01   0.01    -0.01   0.00   0.00
  28   1     0.00  -0.00  -0.00     0.00  -0.01  -0.01    -0.00  -0.00   0.00
  29   1     0.00  -0.00  -0.00     0.00  -0.01  -0.00    -0.00  -0.01  -0.00
  30   6    -0.02   0.07  -0.09    -0.05   0.10  -0.15    -0.01  -0.02   0.02
  31   8     0.03   0.13  -0.10    -0.12   0.14  -0.27     0.01  -0.03   0.05
  32   7    -0.16  -0.12  -0.14     0.22  -0.02  -0.11    -0.07   0.00   0.02
  33   1     0.29   0.20   0.06    -0.11  -0.16  -0.14     0.05   0.05   0.04
  34   1     0.11   0.07   0.02    -0.02  -0.09  -0.01     0.02   0.03   0.01
  35   7     0.10   0.22   0.12    -0.27   0.15   0.07     0.09  -0.01  -0.01
  36   1    -0.19  -0.09  -0.03     0.06   0.06   0.13    -0.04  -0.03  -0.04
  37   1    -0.49  -0.24  -0.19     0.13   0.27   0.14    -0.11  -0.11  -0.07
  38   6     0.01   0.01  -0.00     0.01  -0.01   0.03    -0.01   0.00   0.00
  39   8     0.02   0.01  -0.01     0.04  -0.03  -0.01    -0.02   0.00   0.01
  40   7    -0.03  -0.04   0.01     0.01  -0.03   0.05    -0.01   0.01  -0.01
  41   1     0.02   0.03   0.01    -0.01  -0.00   0.01    -0.00   0.00  -0.00
  42   1     0.07   0.07  -0.01    -0.00  -0.01   0.01     0.00   0.00  -0.00
  43   7    -0.02   0.01  -0.00    -0.03   0.04   0.02     0.00  -0.01   0.00
  44   1    -0.02  -0.01  -0.00    -0.01   0.02   0.02     0.02   0.00  -0.00
  45   1    -0.01  -0.00  -0.00    -0.01   0.02  -0.01     0.00  -0.00   0.01
  46   6     0.01   0.01   0.01    -0.00   0.00  -0.03     0.00   0.00   0.01
  47   8     0.02   0.01   0.02    -0.02  -0.00  -0.04     0.01   0.00   0.01
  48   7    -0.07  -0.03  -0.09     0.05  -0.00   0.02    -0.01  -0.00  -0.01
  49   1     0.09   0.02   0.09    -0.03  -0.01  -0.05     0.01   0.00   0.01
  50   1     0.12   0.04   0.14    -0.04  -0.02  -0.06     0.01   0.01   0.02
  51   7     0.07   0.01   0.04    -0.02   0.01  -0.01     0.00  -0.00  -0.00
  52   1    -0.12  -0.01  -0.10     0.04   0.00   0.04    -0.01  -0.00  -0.01
  53   1    -0.06  -0.01  -0.06     0.02   0.01   0.02    -0.00  -0.00  -0.00
                     31                     32                     33
                        a                      a                      a 
 Frequencies --   302.6250               313.9105               320.5930
 Red. masses --     2.7001                 9.1079                 4.4594
 Frc consts  --     0.0000                 0.0000                 0.0000
 IR Inten    --   133.2162                 5.8072                 8.9455
 Raman Activ --     0.0000                 0.0000                 0.0000
 Depolar     --     0.0000                 0.0000                 0.0000
 Atom AN      X      Y      Z        X      Y      Z        X      Y      Z
   1   8    -0.00   0.01  -0.00     0.22  -0.00  -0.38    -0.03   0.21  -0.09
   2   6    -0.00  -0.00  -0.01     0.19   0.06  -0.02    -0.01  -0.25   0.09
   3   1     0.00  -0.00  -0.00     0.06   0.01   0.01     0.10  -0.11   0.15
   4   1    -0.00  -0.00  -0.00     0.02   0.00   0.00    -0.08  -0.19  -0.01
   5   6    -0.01  -0.01  -0.01     0.06  -0.00   0.03    -0.05   0.03  -0.04
   6   1    -0.00  -0.00  -0.00     0.02  -0.04  -0.03    -0.01   0.02  -0.03
   7   1    -0.00  -0.01  -0.01     0.01   0.00   0.01    -0.03   0.03   0.01
   8   7     0.00  -0.01   0.01    -0.14   0.02   0.10    -0.01   0.04  -0.07
   9   6     0.00  -0.01   0.01    -0.23  -0.04   0.09     0.07   0.26   0.08
  10   1    -0.00   0.01   0.02    -0.11   0.07   0.15     0.01   0.14   0.02
  11   1     0.02  -0.00  -0.00     0.08  -0.01  -0.05     0.08   0.06   0.07
  12   1    -0.01  -0.02  -0.00    -0.18  -0.12  -0.04    -0.00   0.06   0.01
  13   6    -0.00   0.00   0.01    -0.05   0.41   0.05    -0.03  -0.19  -0.01
  14   1     0.00  -0.02   0.01    -0.02   0.13   0.04    -0.01   0.18  -0.08
  15   1     0.01   0.02   0.01    -0.02   0.18   0.07    -0.18  -0.25  -0.11
  16   1    -0.02   0.01  -0.01     0.03   0.14  -0.09     0.18  -0.15   0.21
  17   6     0.00  -0.00   0.01    -0.09  -0.34   0.07     0.00   0.03  -0.11
  18   1     0.00   0.00   0.00    -0.05  -0.26   0.06    -0.00  -0.29   0.07
  19   1    -0.00   0.00   0.00     0.10  -0.10  -0.10     0.07   0.07  -0.36
  20   1     0.01   0.01   0.00    -0.11  -0.03   0.09    -0.06   0.25   0.16
  21   1     0.00  -0.00  -0.00     0.07   0.01  -0.09     0.05   0.07  -0.04
  22   6     0.00   0.01  -0.00     0.00  -0.01  -0.01     0.00  -0.02   0.00
  23   8     0.00   0.00  -0.00     0.00  -0.01  -0.01     0.00  -0.02  -0.00
  24   7     0.01  -0.01  -0.00    -0.00   0.03   0.01    -0.02   0.02   0.01
  25   1    -0.00   0.01   0.00     0.01  -0.03  -0.02     0.00  -0.02  -0.01
  26   1    -0.00   0.01   0.01     0.02  -0.05  -0.02     0.01  -0.04  -0.02
  27   7    -0.00  -0.01  -0.01    -0.00   0.03   0.01     0.00   0.03   0.01
  28   1    -0.00   0.02   0.01     0.00  -0.05  -0.02     0.01  -0.04  -0.02
  29   1    -0.00   0.01   0.01     0.00  -0.03  -0.01     0.01  -0.02  -0.01
  30   6    -0.00  -0.01  -0.00    -0.00  -0.02   0.05    -0.00  -0.03   0.05
  31   8    -0.02  -0.02  -0.00    -0.00  -0.03   0.07     0.00  -0.04   0.06
  32   7     0.01   0.01   0.01    -0.05   0.03   0.05    -0.04   0.02   0.05
  33   1    -0.02  -0.02  -0.01    -0.01   0.02   0.02    -0.01   0.01   0.02
  34   1    -0.01  -0.00  -0.00    -0.01   0.02   0.00    -0.01   0.02   0.00
  35   7    -0.00  -0.01  -0.01     0.05  -0.04  -0.03     0.06  -0.05  -0.03
  36   1     0.01   0.01   0.00     0.00   0.00  -0.03     0.01  -0.00  -0.03
  37   1     0.02   0.01   0.01     0.02  -0.04  -0.02     0.02  -0.04  -0.01
  38   6    -0.03   0.01  -0.02     0.01  -0.01  -0.01     0.01   0.00  -0.01
  39   8    -0.00   0.02  -0.02     0.01   0.00  -0.01     0.01   0.01  -0.00
  40   7    -0.05  -0.04   0.00     0.01  -0.01  -0.00     0.00  -0.00  -0.00
  41   1     0.04   0.05   0.00     0.00  -0.01  -0.00     0.00   0.00  -0.00
  42   1     0.19   0.21  -0.01    -0.01  -0.01   0.01     0.01   0.01  -0.00
  43   7     0.28   0.19   0.07    -0.00  -0.00  -0.02     0.00  -0.01  -0.00
  44   1    -0.66  -0.44  -0.09     0.01   0.00  -0.00    -0.02  -0.01  -0.00
  45   1    -0.29  -0.24  -0.07     0.00   0.00  -0.00    -0.00  -0.00  -0.00
  46   6     0.00  -0.00   0.00     0.00  -0.00   0.00     0.00  -0.00   0.00
  47   8     0.00  -0.00   0.00     0.00  -0.00   0.00     0.00  -0.00   0.00
  48   7    -0.00  -0.00  -0.00    -0.00   0.00   0.00    -0.01   0.00   0.00
  49   1     0.00   0.00   0.00    -0.00   0.00   0.00     0.00   0.00   0.01
  50   1     0.00   0.00   0.00     0.00   0.00   0.00     0.00   0.00   0.00
  51   7    -0.00  -0.00  -0.00     0.00  -0.00  -0.00    -0.00  -0.00  -0.00
  52   1     0.00   0.00   0.00    -0.00  -0.00  -0.00     0.00   0.00   0.00
  53   1     0.00   0.00   0.00     0.00  -0.00  -0.00     0.00  -0.00   0.00
                     34                     35                     36
                        a                      a                      a 
 Frequencies --   330.3067               344.5164               352.3844
 Red. masses --     3.6277                 3.4431                 3.7489
 Frc consts  --     0.0000                 0.0000                 0.0000
 IR Inten    --   498.0062                 3.7839               404.9558
 Raman Activ --     0.0000                 0.0000                 0.0000
 Depolar     --     0.0000                 0.0000                 0.0000
 Atom AN      X      Y      Z        X      Y      Z        X      Y      Z
   1   8     0.02   0.01  -0.06     0.08  -0.06  -0.21     0.00  -0.00  -0.01
   2   6     0.02  -0.03   0.02     0.10  -0.18   0.13     0.00  -0.01   0.01
   3   1     0.02  -0.01   0.03     0.07  -0.07   0.13     0.00  -0.01   0.01
   4   1    -0.01  -0.03  -0.00    -0.03  -0.12   0.02    -0.00  -0.01   0.00
   5   6    -0.01   0.02  -0.01     0.02   0.04   0.04     0.00   0.00   0.00
   6   1    -0.00   0.00  -0.02     0.01   0.01  -0.02     0.00  -0.00   0.00
   7   1    -0.01   0.01   0.01    -0.02   0.03   0.04     0.00   0.00   0.00
   8   7    -0.02   0.02   0.01    -0.04   0.08  -0.02    -0.00   0.00  -0.00
   9   6    -0.01   0.04   0.02    -0.09   0.15   0.05    -0.01   0.01   0.00
  10   1    -0.01   0.02   0.01     0.07  -0.19  -0.19     0.00  -0.01  -0.01
  11   1     0.01   0.01   0.00    -0.36   0.03   0.15    -0.02   0.00   0.01
  12   1    -0.01   0.00   0.00     0.17   0.30   0.11     0.01   0.02   0.00
  13   6    -0.01   0.02   0.01    -0.04   0.12  -0.02    -0.00   0.01  -0.00
  14   1    -0.00  -0.01   0.01    -0.02   0.23  -0.07    -0.00   0.02  -0.01
  15   1     0.01   0.02   0.01    -0.16  -0.08  -0.05    -0.01  -0.01  -0.01
  16   1    -0.01   0.01  -0.01     0.15  -0.03   0.11     0.01  -0.00   0.01
  17   6    -0.01  -0.02   0.00    -0.02  -0.14  -0.02    -0.00  -0.01  -0.00
  18   1    -0.01  -0.06   0.02    -0.03   0.20  -0.11    -0.00   0.01  -0.01
  19   1     0.02   0.00  -0.05    -0.01  -0.11   0.28    -0.00  -0.01   0.02
  20   1    -0.02   0.03   0.03     0.03  -0.27  -0.18     0.00  -0.02  -0.01
  21   1     0.01   0.01  -0.02     0.07   0.03  -0.04     0.00  -0.01  -0.01
  22   6    -0.02   0.10   0.04    -0.00   0.00   0.01     0.00  -0.00  -0.00
  23   8    -0.00   0.01   0.03    -0.00   0.00   0.01    -0.00  -0.00  -0.00
  24   7     0.10  -0.26  -0.11    -0.01  -0.01  -0.00    -0.00   0.01   0.00
  25   1    -0.06   0.24   0.12    -0.00   0.00   0.00     0.00  -0.00  -0.00
  26   1    -0.14   0.51   0.18    -0.00   0.01   0.00     0.00  -0.01  -0.00
  27   7     0.00  -0.27  -0.12     0.01  -0.00   0.00     0.00   0.01   0.00
  28   1    -0.04   0.53   0.19     0.00   0.00  -0.00     0.00  -0.01  -0.01
  29   1    -0.03   0.24   0.12     0.00   0.01   0.00     0.00  -0.01  -0.00
  30   6    -0.00  -0.00   0.01    -0.01  -0.01   0.01     0.02   0.01   0.01
  31   8     0.00  -0.00   0.01    -0.01  -0.01   0.01    -0.01  -0.00  -0.01
  32   7    -0.00   0.01   0.01    -0.00   0.01   0.01    -0.04  -0.03  -0.01
  33   1    -0.01  -0.00  -0.00    -0.02  -0.01  -0.00     0.09   0.06   0.03
  34   1    -0.01  -0.00  -0.00    -0.01  -0.00  -0.00     0.07   0.04   0.03
  35   7     0.01  -0.00  -0.00     0.02  -0.00  -0.00    -0.01  -0.01  -0.01
  36   1    -0.00  -0.00  -0.01    -0.01  -0.00  -0.01     0.04   0.02   0.01
  37   1    -0.01  -0.01  -0.01    -0.02  -0.03  -0.02     0.02   0.01   0.01
  38   6     0.00  -0.01  -0.00     0.00   0.01   0.00    -0.00  -0.00   0.00
  39   8    -0.00  -0.01  -0.00     0.01   0.01   0.00    -0.00  -0.00  -0.00
  40   7     0.01   0.00   0.00    -0.00   0.01  -0.00     0.00   0.01   0.00
  41   1    -0.00  -0.01   0.00    -0.00  -0.00  -0.00    -0.00  -0.00  -0.00
  42   1    -0.02  -0.02   0.00     0.00   0.00  -0.00    -0.01  -0.01   0.00
  43   7    -0.01   0.00  -0.00     0.01   0.00   0.01     0.01   0.01   0.00
  44   1     0.02   0.02   0.00    -0.03  -0.02  -0.00    -0.01  -0.01  -0.00
  45   1     0.01   0.01   0.00    -0.00  -0.00  -0.00    -0.01  -0.00  -0.00
  46   6    -0.00  -0.00  -0.00     0.01   0.00   0.01    -0.08  -0.02  -0.07
  47   8     0.00   0.00  -0.00     0.01   0.00   0.00    -0.04   0.00  -0.05
  48   7     0.00   0.00   0.01    -0.01  -0.00  -0.01     0.16   0.08   0.25
  49   1    -0.01  -0.00  -0.01     0.01   0.00   0.01    -0.16  -0.04  -0.19
  50   1    -0.01  -0.00  -0.01     0.02   0.01   0.02    -0.34  -0.14  -0.38
  51   7     0.01   0.00   0.00    -0.02  -0.00  -0.01     0.25   0.01   0.18
  52   1    -0.01  -0.00  -0.01     0.02   0.00   0.02    -0.46  -0.09  -0.36
  53   1    -0.00  -0.00  -0.00     0.01   0.00   0.01    -0.18  -0.02  -0.18
                     37                     38                     39
                        a                      a                      a 
 Frequencies --   364.8769               373.9322               395.2214
 Red. masses --     4.6410                 5.2676                 3.3437
 Frc consts  --     0.0000                 0.0000                 0.0000
 IR Inten    --     5.1600                 1.8841               119.5124
 Raman Activ --     0.0000                 0.0000                 0.0000
 Depolar     --     0.0000                 0.0000                 0.0000
 Atom AN      X      Y      Z        X      Y      Z        X      Y      Z
   1   8     0.02  -0.10   0.01     0.02  -0.01  -0.14    -0.01  -0.01   0.02
   2   6     0.01  -0.00  -0.14     0.04  -0.21  -0.06    -0.00  -0.01   0.00
   3   1    -0.02   0.00  -0.03     0.06  -0.09   0.11    -0.00  -0.00  -0.00
   4   1     0.03  -0.02  -0.07    -0.01  -0.17  -0.08     0.00   0.00   0.00
   5   6    -0.06   0.05  -0.16    -0.21   0.13  -0.24     0.01   0.00   0.00
   6   1    -0.02   0.06  -0.07    -0.07   0.13  -0.19     0.00  -0.01   0.01
   7   1    -0.06  -0.03  -0.06    -0.20  -0.00  -0.03     0.01   0.01   0.00
   8   7     0.02   0.01   0.02     0.00   0.06   0.01    -0.00   0.01  -0.02
   9   6    -0.12  -0.24  -0.12    -0.03  -0.06  -0.07    -0.01   0.01  -0.01
  10   1    -0.08  -0.01   0.10     0.06  -0.19  -0.15    -0.01   0.01   0.00
  11   1     0.10  -0.04  -0.17    -0.23  -0.00  -0.00     0.00   0.00  -0.00
  12   1    -0.15  -0.23  -0.08     0.13   0.09   0.06    -0.01   0.00  -0.01
  13   6     0.19   0.08   0.12     0.24   0.00   0.20     0.00  -0.01  -0.01
  14   1     0.03   0.38  -0.01     0.06  -0.21   0.21    -0.00   0.01  -0.01
  15   1    -0.16  -0.20  -0.08     0.29   0.14   0.10    -0.00  -0.01  -0.01
  16   1     0.37  -0.10   0.23    -0.08   0.07  -0.09     0.01  -0.01   0.01
  17   6    -0.06   0.20   0.28    -0.06   0.12   0.25    -0.00  -0.01   0.01
  18   1     0.06   0.17   0.09     0.05  -0.07   0.16     0.00  -0.01   0.01
  19   1    -0.10   0.05   0.19    -0.03   0.07  -0.05     0.00  -0.00  -0.00
  20   1    -0.03  -0.00   0.04    -0.09   0.14   0.17    -0.01  -0.00   0.01
  21   1    -0.02  -0.02   0.02     0.03   0.03  -0.02    -0.01  -0.01   0.00
  22   6    -0.00  -0.01  -0.00     0.00   0.00  -0.00     0.00  -0.00  -0.00
  23   8    -0.00  -0.02  -0.00     0.00   0.01   0.00    -0.00  -0.00   0.00
  24   7     0.01  -0.01  -0.00    -0.00   0.01   0.00     0.00   0.00   0.00
  25   1     0.00   0.01   0.00     0.00  -0.01  -0.01     0.00   0.00  -0.00
  26   1    -0.01   0.03   0.02     0.01  -0.03  -0.01     0.00  -0.01  -0.00
  27   7     0.00  -0.01  -0.01    -0.00   0.01   0.01    -0.00   0.00   0.00
  28   1    -0.00   0.03   0.01     0.00  -0.05  -0.01     0.00  -0.00  -0.00
  29   1     0.00   0.01   0.00    -0.00  -0.01  -0.01     0.00  -0.00  -0.00
  30   6     0.00   0.01  -0.02    -0.01  -0.01   0.01     0.03   0.05   0.00
  31   8     0.00   0.00  -0.01    -0.00  -0.00   0.01    -0.01   0.02  -0.01
  32   7     0.01  -0.01  -0.02    -0.01   0.00   0.01    -0.04  -0.07  -0.03
  33   1     0.00  -0.00  -0.01    -0.01  -0.00   0.00     0.18   0.11   0.04
  34   1     0.00  -0.00  -0.00    -0.00   0.00   0.00     0.09   0.04   0.03
  35   7    -0.02   0.01   0.01     0.01  -0.01  -0.01    -0.02   0.02  -0.00
  36   1    -0.00  -0.00   0.01    -0.00  -0.00  -0.01     0.01   0.01   0.01
  37   1    -0.01   0.01   0.00    -0.00  -0.02  -0.01     0.03   0.03   0.01
  38   6     0.01   0.01   0.00     0.00  -0.01  -0.00    -0.06  -0.10   0.02
  39   8     0.01   0.01   0.00     0.00  -0.01  -0.00    -0.04  -0.11  -0.01
  40   7    -0.01  -0.00  -0.00     0.01   0.00  -0.01     0.17   0.24  -0.05
  41   1    -0.00   0.00  -0.00    -0.00   0.00  -0.00    -0.01  -0.06  -0.02
  42   1     0.00   0.00  -0.00    -0.01  -0.02  -0.00    -0.59  -0.60   0.06
  43   7    -0.00  -0.00   0.00    -0.01   0.01  -0.00     0.16   0.14   0.06
  44   1    -0.01  -0.00   0.00     0.01   0.01   0.00    -0.19  -0.09   0.02
  45   1     0.00   0.01   0.00    -0.01  -0.00  -0.01    -0.07  -0.04  -0.04
  46   6     0.00   0.00  -0.00    -0.00  -0.00  -0.00    -0.01  -0.00   0.00
  47   8    -0.00  -0.00  -0.00     0.00   0.00   0.00    -0.01  -0.01  -0.00
  48   7     0.00  -0.00  -0.00     0.00   0.00   0.00    -0.01  -0.01  -0.01
  49   1     0.00  -0.00  -0.00    -0.00  -0.00  -0.00     0.00  -0.00   0.00
  50   1     0.00   0.00   0.00    -0.00  -0.00  -0.00     0.03   0.01   0.04
  51   7    -0.00   0.00  -0.00     0.00  -0.00   0.00    -0.01  -0.00  -0.01
  52   1     0.00   0.00   0.00    -0.01  -0.00  -0.00     0.03   0.01   0.02
  53   1     0.00   0.00   0.00    -0.00   0.00  -0.00     0.01  -0.01   0.00
                     40                     41                     42
                        a                      a                      a 
 Frequencies --   427.7378               443.8560               444.0725
 Red. masses --     8.8874                 1.5786                 1.6751
 Frc consts  --     0.0000                 0.0000                 0.0000
 IR Inten    --     0.4260                 4.2452                10.8663
 Raman Activ --     0.0000                 0.0000                 0.0000
 Depolar     --     0.0000                 0.0000                 0.0000
 Atom AN      X      Y      Z        X      Y      Z        X      Y      Z
   1   8    -0.14   0.09   0.19    -0.01   0.01   0.02    -0.00   0.00  -0.00
   2   6    -0.11  -0.13  -0.06    -0.01  -0.01  -0.01    -0.00   0.00   0.00
   3   1    -0.01  -0.04  -0.01    -0.00  -0.00  -0.00    -0.00   0.00  -0.00
   4   1    -0.03  -0.04  -0.02    -0.00  -0.00  -0.00    -0.00   0.00   0.00
   5   6     0.13  -0.04  -0.06     0.02  -0.01  -0.00     0.00   0.00   0.00
   6   1     0.04  -0.01   0.07     0.00  -0.01   0.01     0.00  -0.00   0.00
   7   1     0.10   0.01  -0.03     0.02   0.00  -0.00     0.00   0.00   0.00
   8   7     0.26  -0.01  -0.21     0.01  -0.00  -0.02    -0.00   0.00  -0.00
   9   6    -0.36   0.14   0.11    -0.02   0.02   0.01    -0.00   0.00  -0.00
  10   1    -0.12  -0.04   0.17    -0.01   0.01   0.01    -0.00   0.00   0.00
  11   1    -0.16   0.03   0.10     0.00   0.00   0.01     0.00   0.00  -0.00
  12   1    -0.22   0.16  -0.08    -0.02   0.01  -0.01    -0.00  -0.00  -0.00
  13   6     0.11   0.02  -0.35     0.01   0.00  -0.02     0.00  -0.00  -0.00
  14   1     0.04  -0.03  -0.13     0.00   0.00  -0.00     0.00  -0.00   0.00
  15   1     0.01   0.05  -0.06     0.00   0.00  -0.00     0.00  -0.00  -0.00
  16   1    -0.02   0.02  -0.13     0.01   0.00  -0.01     0.00  -0.00   0.00
  17   6     0.18  -0.09   0.30     0.00  -0.01   0.02    -0.00  -0.00   0.00
  18   1     0.15  -0.06   0.17     0.01  -0.00   0.01     0.00  -0.00   0.00
  19   1     0.05  -0.03   0.10    -0.00  -0.00   0.01     0.00  -0.00   0.00
  20   1    -0.09  -0.02   0.13    -0.01  -0.00   0.01    -0.00  -0.00   0.00
  21   1    -0.04   0.01   0.04    -0.00  -0.00   0.00     0.00   0.00   0.00
  22   6    -0.03  -0.00  -0.01     0.06   0.01   0.01     0.01   0.00   0.00
  23   8    -0.03  -0.00   0.00     0.06   0.01   0.01     0.01   0.00   0.00
  24   7     0.03  -0.01   0.03    -0.03   0.12  -0.01    -0.00   0.01  -0.00
  25   1     0.03   0.03   0.01    -0.01  -0.48  -0.17    -0.00  -0.04  -0.02
  26   1     0.01  -0.03   0.03    -0.12   0.45   0.03    -0.01   0.04   0.00
  27   7     0.02   0.01  -0.03    -0.00  -0.13   0.00     0.00  -0.01   0.00
  28   1     0.01   0.03  -0.02     0.02  -0.46  -0.04     0.00  -0.04  -0.00
  29   1     0.03  -0.01   0.00    -0.19   0.46   0.15    -0.02   0.04   0.01
  30   6     0.01   0.00  -0.01     0.00   0.00  -0.00     0.01  -0.02  -0.01
  31   8     0.00  -0.01  -0.01    -0.00  -0.00  -0.00     0.02  -0.01  -0.01
  32   7     0.00  -0.01  -0.01    -0.00  -0.00  -0.00     0.00   0.03  -0.01
  33   1     0.01   0.01   0.00     0.01   0.01   0.00    -0.04  -0.02  -0.00
  34   1     0.01   0.00  -0.00     0.01   0.00   0.00    -0.03  -0.00  -0.02
  35   7    -0.01   0.00   0.01    -0.00   0.00  -0.00     0.01  -0.00   0.03
  36   1     0.01   0.00   0.01     0.00   0.00   0.00    -0.01  -0.01   0.01
  37   1     0.01   0.02   0.01     0.01   0.01   0.00    -0.04  -0.01  -0.01
  38   6     0.01  -0.00  -0.00     0.00  -0.00   0.00     0.00  -0.00   0.00
  39   8     0.00   0.00   0.01    -0.00  -0.00   0.00     0.00  -0.00   0.00
  40   7    -0.00  -0.01  -0.01     0.00   0.00  -0.00     0.00   0.00  -0.00
  41   1    -0.00   0.00  -0.00    -0.00   0.00  -0.00     0.00   0.00  -0.00
  42   1     0.03   0.02  -0.01     0.00  -0.00  -0.00    -0.02  -0.02   0.00
  43   7    -0.01   0.01  -0.01    -0.00   0.00   0.00     0.00   0.01   0.00
  44   1     0.00   0.01   0.01    -0.00  -0.00   0.00    -0.00   0.00   0.00
  45   1     0.00   0.01  -0.01     0.00   0.00  -0.00    -0.01  -0.00  -0.00
  46   6    -0.00   0.00   0.00     0.00  -0.00  -0.00    -0.04   0.04   0.03
  47   8    -0.00  -0.00   0.00     0.00  -0.00  -0.00    -0.05   0.04   0.03
  48   7    -0.00  -0.00  -0.00     0.01   0.01   0.01    -0.08  -0.08  -0.06
  49   1     0.00  -0.00  -0.00    -0.04  -0.01  -0.03     0.45   0.05   0.28
  50   1     0.00  -0.00   0.00     0.03   0.02   0.03    -0.31  -0.24  -0.26
  51   7     0.00   0.00  -0.00    -0.01  -0.01  -0.01     0.12   0.06   0.06
  52   1     0.01   0.00   0.00    -0.03  -0.01  -0.01     0.34   0.16   0.17
  53   1    -0.00  -0.00  -0.00     0.02   0.01   0.03    -0.28  -0.17  -0.40
                     43                     44                     45
                        a                      a                      a 
 Frequencies --   453.7839               455.4868               457.3455
 Red. masses --     4.3754                 6.7546                 8.5498
 Frc consts  --     0.0000                 0.0000                 0.0000
 IR Inten    --   386.2254               199.0246                 4.7687
 Raman Activ --     0.0000                 0.0000                 0.0000
 Depolar     --     0.0000                 0.0000                 0.0000
 Atom AN      X      Y      Z        X      Y      Z        X      Y      Z
   1   8     0.00  -0.01  -0.02     0.01  -0.01  -0.05     0.00  -0.01   0.01
   2   6     0.00   0.10   0.08     0.01   0.03   0.04     0.00  -0.01  -0.01
   3   1    -0.02   0.03   0.04     0.00   0.01   0.04     0.00  -0.00  -0.01
   4   1     0.01   0.02   0.01    -0.00  -0.01  -0.00     0.00  -0.00  -0.00
   5   6    -0.01   0.15   0.02    -0.03   0.11   0.00    -0.00  -0.02  -0.01
   6   1    -0.01   0.07  -0.03    -0.01   0.06  -0.04    -0.00  -0.00  -0.00
   7   1    -0.04   0.03   0.02    -0.06   0.01   0.01    -0.00  -0.01  -0.00
   8   7     0.06   0.10   0.02     0.05   0.06   0.07     0.00  -0.02   0.01
   9   6    -0.05  -0.08  -0.08     0.00  -0.08  -0.01     0.01   0.00   0.02
  10   1    -0.02  -0.05   0.01     0.00  -0.05   0.01     0.00   0.00   0.00
  11   1    -0.03  -0.01  -0.08    -0.02  -0.01  -0.04     0.00  -0.00   0.01
  12   1    -0.03  -0.06  -0.03     0.00  -0.05   0.00     0.00   0.01   0.01
  13   6    -0.07  -0.12  -0.00    -0.08  -0.05   0.02     0.00   0.02  -0.01
  14   1    -0.01  -0.06  -0.04    -0.01  -0.03  -0.03    -0.00   0.01  -0.00
  15   1    -0.02  -0.06  -0.02    -0.04  -0.03   0.00    -0.00   0.01   0.00
  16   1    -0.06  -0.04   0.05    -0.06  -0.02   0.03     0.00   0.01  -0.01
  17   6     0.10  -0.08  -0.00     0.09  -0.01  -0.04    -0.00   0.02  -0.00
  18   1     0.01  -0.05  -0.00    -0.01  -0.01  -0.03     0.00   0.01  -0.00
  19   1     0.08  -0.03  -0.01     0.05  -0.01  -0.01    -0.01   0.01  -0.00
  20   1     0.00  -0.03   0.00     0.04  -0.02  -0.02     0.01   0.01  -0.00
  21   1     0.02   0.05   0.03    -0.00  -0.03  -0.03    -0.00  -0.00   0.00
  22   6    -0.13  -0.02  -0.02    -0.25  -0.03  -0.03    -0.01  -0.00  -0.00
  23   8    -0.14  -0.02  -0.02    -0.27  -0.04  -0.04    -0.01  -0.00  -0.00
  24   7     0.08  -0.01   0.15     0.15  -0.04   0.29     0.00  -0.00   0.01
  25   1     0.12  -0.03  -0.02     0.24  -0.06  -0.03     0.01  -0.00  -0.00
  26   1     0.01  -0.01   0.14     0.01   0.01   0.28    -0.00   0.00   0.01
  27   7     0.11   0.05  -0.13     0.20   0.08  -0.25     0.01   0.00  -0.01
  28   1     0.04  -0.01  -0.14     0.07   0.03  -0.26     0.00   0.00  -0.01
  29   1     0.10   0.07   0.05     0.20   0.11   0.08     0.01   0.00   0.00
  30   6    -0.06  -0.07  -0.03     0.04   0.04   0.03    -0.03   0.04   0.03
  31   8     0.10   0.05   0.01    -0.06  -0.03  -0.00    -0.05   0.04   0.03
  32   7     0.11   0.11   0.03    -0.07  -0.07  -0.01     0.01  -0.05   0.03
  33   1    -0.42  -0.28  -0.12     0.27   0.18   0.08     0.06   0.01  -0.01
  34   1    -0.22  -0.13  -0.08     0.14   0.08   0.06     0.01  -0.03   0.03
  35   7     0.07   0.03   0.07    -0.04  -0.02  -0.05     0.00   0.02  -0.05
  36   1    -0.11  -0.07  -0.03     0.07   0.04   0.01     0.02   0.04  -0.03
  37   1    -0.30  -0.19  -0.12     0.19   0.11   0.07     0.03  -0.02  -0.02
  38   6     0.00  -0.01   0.01     0.00   0.00  -0.00    -0.01   0.01  -0.01
  39   8     0.00  -0.02  -0.00    -0.00   0.01   0.01    -0.00   0.01  -0.02
  40   7     0.01   0.03  -0.02     0.00  -0.02   0.01    -0.00   0.00   0.02
  41   1     0.04   0.03  -0.00    -0.03  -0.02  -0.00     0.00  -0.00   0.01
  42   1    -0.13  -0.13   0.01     0.08   0.08  -0.01    -0.00   0.01   0.01
  43   7     0.03   0.04   0.02    -0.03  -0.03  -0.01     0.01  -0.01  -0.00
  44   1    -0.00  -0.00   0.00    -0.03  -0.01   0.01     0.02  -0.00  -0.01
  45   1    -0.07  -0.05  -0.01     0.08   0.08  -0.00    -0.01  -0.03   0.01
  46   6     0.04   0.02  -0.02    -0.03  -0.01   0.01     0.21  -0.17  -0.17
  47   8     0.03  -0.02   0.01    -0.02   0.02  -0.00     0.23  -0.18  -0.19
  48   7     0.03   0.03  -0.00    -0.02  -0.02   0.00    -0.11   0.39  -0.09
  49   1     0.03   0.01   0.02    -0.02  -0.01  -0.01    -0.09   0.14   0.26
  50   1    -0.06  -0.02  -0.08     0.04   0.02   0.05    -0.03   0.26  -0.20
  51   7    -0.01   0.01   0.03     0.01  -0.00  -0.02    -0.19  -0.16   0.33
  52   1    -0.13  -0.06  -0.05     0.08   0.04   0.03    -0.02  -0.21   0.26
  53   1     0.04   0.06   0.09    -0.03  -0.04  -0.06    -0.27   0.13   0.03
                     46                     47                     48
                        a                      a                      a 
 Frequencies --   459.7366               464.8116               475.0091
 Red. masses --     6.8942                 3.8534                 7.8711
 Frc consts  --     0.0000                 0.0000                 0.0000
 IR Inten    --    12.8919                 9.4964                12.9545
 Raman Activ --     0.0000                 0.0000                 0.0000
 Depolar     --     0.0000                 0.0000                 0.0000
 Atom AN      X      Y      Z        X      Y      Z        X      Y      Z
   1   8     0.00  -0.02  -0.03     0.00   0.01   0.02     0.00  -0.01   0.04
   2   6     0.00   0.14   0.15    -0.00  -0.07  -0.08    -0.00   0.01   0.03
   3   1    -0.02   0.04   0.09     0.01  -0.02  -0.07    -0.01   0.01  -0.04
   4   1    -0.01   0.01   0.03     0.01   0.01  -0.01    -0.01   0.05   0.04
   5   6     0.06   0.28   0.07    -0.01  -0.19  -0.02     0.15  -0.11   0.11
   6   1     0.02   0.07   0.01    -0.00  -0.07   0.02     0.05  -0.16   0.16
   7   1     0.01   0.09   0.03     0.03  -0.04  -0.01     0.20   0.05   0.01
   8   7     0.04   0.24  -0.05    -0.06  -0.14  -0.01    -0.22   0.04  -0.22
   9   6    -0.12  -0.06  -0.25     0.08   0.07   0.11     0.05   0.22  -0.23
  10   1    -0.04  -0.07  -0.02     0.02   0.07  -0.01     0.01   0.12  -0.11
  11   1    -0.05   0.01  -0.17     0.04  -0.00   0.10     0.07   0.05  -0.02
  12   1    -0.05  -0.09  -0.07     0.04   0.06   0.03     0.05   0.05  -0.04
  13   6    -0.04  -0.25   0.05     0.07   0.14  -0.01     0.25  -0.06   0.11
  14   1    -0.00  -0.12   0.00     0.01   0.07   0.03     0.04  -0.01   0.18
  15   1     0.03  -0.14  -0.05     0.02   0.08   0.03     0.19  -0.04  -0.03
  16   1    -0.09  -0.09   0.12     0.07   0.05  -0.07     0.11  -0.03   0.04
  17   6     0.08  -0.20   0.05    -0.10   0.11  -0.02    -0.30  -0.10   0.09
  18   1     0.01  -0.11   0.02    -0.01   0.06   0.00    -0.02  -0.02   0.07
  19   1     0.13  -0.08   0.04    -0.09   0.05  -0.02    -0.07  -0.04   0.07
  20   1    -0.06  -0.11   0.01     0.01   0.06   0.00    -0.16  -0.05   0.03
  21   1     0.00  -0.02  -0.02     0.00   0.02   0.02    -0.00  -0.02  -0.00
  22   6     0.10   0.02   0.01    -0.05  -0.01  -0.01    -0.07  -0.01  -0.01
  23   8     0.11   0.02   0.02    -0.06  -0.01  -0.01    -0.09  -0.01  -0.01
  24   7    -0.06   0.02  -0.12     0.03  -0.01   0.06     0.04  -0.02   0.09
  25   1    -0.10   0.02   0.01     0.05  -0.01  -0.00     0.07  -0.01  -0.01
  26   1    -0.00  -0.00  -0.11     0.00  -0.00   0.05     0.00  -0.00   0.09
  27   7    -0.08  -0.04   0.10     0.04   0.02  -0.05     0.05   0.03  -0.08
  28   1    -0.03  -0.01   0.11     0.01   0.01  -0.05     0.02   0.01  -0.08
  29   1    -0.09  -0.04  -0.03     0.04   0.01   0.01     0.06   0.02   0.02
  30   6     0.01   0.01   0.02    -0.00  -0.02  -0.00     0.01  -0.01   0.01
  31   8    -0.02   0.01  -0.00     0.04   0.02  -0.00    -0.00   0.00  -0.01
  32   7    -0.03  -0.02   0.01     0.02   0.04   0.01    -0.02   0.01   0.01
  33   1     0.07   0.05   0.03    -0.12  -0.07  -0.02    -0.00   0.01   0.02
  34   1     0.03   0.02   0.01    -0.06  -0.03  -0.03    -0.00   0.01  -0.00
  35   7    -0.00  -0.01  -0.02     0.02   0.00   0.03     0.00  -0.01   0.01
  36   1     0.02   0.01  -0.00    -0.03  -0.02  -0.01     0.01   0.00   0.00
[...]
  44   1    -0.00   0.00  -0.00    -0.00   0.00  -0.00     0.30  -0.54   0.39
  45   1     0.00  -0.00  -0.00     0.00  -0.00  -0.00    -0.42   0.42   0.28
  46   6    -0.00   0.00   0.00    -0.01   0.00   0.00    -0.00  -0.00  -0.00
  47   8     0.00  -0.00  -0.00     0.00  -0.00  -0.00    -0.00   0.00   0.00
  48   7    -0.00  -0.00   0.00    -0.00  -0.00   0.00    -0.00  -0.00   0.00
  49   1    -0.00   0.01  -0.00    -0.00   0.03  -0.00    -0.00   0.01  -0.00
  50   1     0.00  -0.00  -0.00     0.01  -0.01  -0.01     0.00  -0.00  -0.00
  51   7     0.00  -0.00  -0.00     0.00   0.00  -0.00     0.00  -0.00  -0.00
  52   1     0.00  -0.00  -0.00     0.01  -0.01  -0.01    -0.00   0.00   0.00
  53   1    -0.00  -0.00   0.00    -0.02  -0.01   0.02     0.00   0.00  -0.00
                    142                    143                    144
                        a                      a                      a 
 Frequencies --  3496.3192              3499.3860              3500.1392
 Red. masses --     1.4394                 1.4384                 1.4637
 Frc consts  --     0.0000                 0.0000                 0.0000
 IR Inten    --    39.2737                37.7382                 4.3486
 Raman Activ --     0.0000                 0.0000                 0.0000
 Depolar     --     0.0000                 0.0000                 0.0000
 Atom AN      X      Y      Z        X      Y      Z        X      Y      Z
   1   8    -0.00  -0.00   0.00    -0.00   0.00  -0.00     0.00  -0.00   0.00
   2   6     0.00   0.00  -0.00     0.00  -0.00   0.00     0.00   0.00  -0.00
   3   1    -0.00  -0.00  -0.00     0.00   0.00   0.00    -0.00  -0.00  -0.00
   4   1    -0.00  -0.00   0.00    -0.00   0.00  -0.00     0.00  -0.00   0.00
   5   6     0.00   0.00   0.00    -0.00  -0.00  -0.00    -0.00   0.00  -0.00
   6   1    -0.00   0.00   0.00     0.00  -0.00   0.00     0.00   0.00   0.00
   7   1     0.00   0.00  -0.00    -0.00   0.00  -0.00    -0.00   0.00   0.00
   8   7    -0.00  -0.00   0.00    -0.00  -0.00  -0.00     0.00  -0.00  -0.00
   9   6    -0.00   0.00  -0.00    -0.00  -0.00   0.00    -0.00  -0.00   0.00
  10   1     0.00   0.00  -0.00    -0.00  -0.00   0.00     0.00   0.00   0.00
  11   1     0.00  -0.00  -0.00     0.00   0.00   0.00    -0.00   0.00   0.00
  12   1     0.00  -0.00  -0.00     0.00  -0.00  -0.00     0.00  -0.00  -0.00
  13   6     0.00  -0.00   0.00    -0.00  -0.00  -0.00    -0.00   0.00   0.00
  14   1     0.00   0.00   0.00     0.00  -0.00   0.00     0.00   0.00   0.00
  15   1    -0.00   0.00  -0.00    -0.00   0.00  -0.00    -0.00   0.00  -0.00
  16   1     0.00  -0.00  -0.00    -0.00  -0.00  -0.00    -0.00  -0.00   0.00
  17   6    -0.00   0.00   0.00    -0.00   0.00  -0.00    -0.00   0.00   0.00
  18   1     0.00  -0.00  -0.00     0.00  -0.00  -0.00     0.00  -0.00  -0.00
  19   1     0.00  -0.00  -0.00    -0.00   0.00   0.00    -0.00   0.00   0.00
  20   1     0.00   0.00  -0.00    -0.00  -0.00   0.00    -0.00  -0.00   0.00
  21   1    -0.00   0.00  -0.00     0.00  -0.00   0.00    -0.00   0.00  -0.00
  22   6     0.00   0.00  -0.00    -0.00   0.00  -0.00    -0.00  -0.00  -0.00
  23   8    -0.00  -0.00   0.00    -0.00  -0.00  -0.00     0.00   0.00   0.00
  24   7     0.00   0.00  -0.00     0.08   0.07  -0.09    -0.00  -0.00   0.00
  25   1     0.00  -0.00   0.00     0.22  -0.14   0.42    -0.00   0.00  -0.00
  26   1    -0.00  -0.00  -0.00    -0.53  -0.12  -0.09     0.00   0.00   0.00
  27   7    -0.00   0.00  -0.00    -0.07   0.04  -0.09    -0.00   0.00  -0.00
  28   1     0.00   0.00   0.00     0.48   0.02   0.03     0.00   0.00   0.00
  29   1    -0.00  -0.00   0.00    -0.23  -0.18   0.31    -0.00  -0.00   0.00
  30   6     0.00   0.00  -0.00    -0.00  -0.00   0.00     0.00  -0.00   0.00
  31   8    -0.00  -0.00   0.00     0.00   0.00  -0.00     0.00  -0.00  -0.00
  32   7    -0.00  -0.00  -0.00     0.00  -0.00   0.00     0.00  -0.00   0.01
  33   1     0.00  -0.00   0.00    -0.00   0.00  -0.00    -0.01   0.03  -0.02
  34   1    -0.00   0.00   0.00    -0.00   0.00   0.00     0.01  -0.01  -0.01
  35   7    -0.00   0.00   0.00     0.00  -0.00   0.00    -0.00   0.00  -0.00
  36   1     0.00  -0.00  -0.00    -0.00   0.00   0.00     0.01  -0.01  -0.01
  37   1    -0.00  -0.00   0.00     0.00   0.00  -0.00    -0.00  -0.00   0.01
  38   6    -0.00   0.00   0.00    -0.00   0.00   0.00     0.00   0.00  -0.00
  39   8    -0.00  -0.00   0.00     0.00  -0.00  -0.00     0.00  -0.00  -0.00
  40   7    -0.00   0.00  -0.00     0.00  -0.00  -0.00     0.00  -0.00   0.00
  41   1     0.00   0.00  -0.00    -0.00  -0.00   0.00    -0.00  -0.00   0.00
  42   1     0.00  -0.00   0.00    -0.00   0.00  -0.00    -0.00   0.00  -0.00
  43   7    -0.00  -0.00   0.00     0.00   0.00  -0.00     0.00   0.00  -0.00
  44   1    -0.00   0.00  -0.00     0.00  -0.00   0.00     0.00  -0.00   0.00
  45   1     0.00  -0.00  -0.00    -0.00   0.00   0.00    -0.00   0.00   0.00
  46   6    -0.00  -0.00  -0.00     0.00  -0.00   0.00     0.00  -0.00  -0.00
  47   8    -0.00  -0.00   0.00     0.00   0.00  -0.00    -0.00   0.00   0.00
  48   7    -0.08  -0.05   0.07     0.00   0.00  -0.00     0.09   0.06  -0.09
  49   1    -0.04   0.42  -0.06     0.00  -0.00   0.00     0.05  -0.51   0.07
  50   1     0.35  -0.24  -0.21    -0.00   0.00   0.00    -0.40   0.28   0.24
  51   7     0.01  -0.14  -0.00    -0.00   0.00  -0.00     0.00  -0.12   0.00
  52   1    -0.33   0.29   0.34     0.00  -0.00  -0.00    -0.27   0.24   0.28
  53   1     0.29   0.23  -0.34    -0.00  -0.00   0.00     0.25   0.20  -0.29
                    145                    146                    147
                        a                      a                      a 
 Frequencies --  3503.3455              3526.0572              3526.5037
 Red. masses --     1.4622                 1.9333                 2.0473
 Frc consts  --     0.0000                 0.0000                 0.0000
 IR Inten    --     7.7827                26.3099                93.6267
 Raman Activ --     0.0000                 0.0000                 0.0000
 Depolar     --     0.0000                 0.0000                 0.0000
 Atom AN      X      Y      Z        X      Y      Z        X      Y      Z
   1   8     0.00  -0.00   0.00     0.00  -0.00  -0.00    -0.00   0.00  -0.00
   2   6    -0.00  -0.00   0.00    -0.00  -0.00   0.00    -0.00  -0.00  -0.00
   3   1    -0.00   0.00  -0.00     0.00   0.00   0.00     0.00   0.00   0.00
   4   1    -0.00  -0.00   0.00    -0.00   0.00  -0.00    -0.00   0.00  -0.00
   5   6     0.00  -0.00   0.00     0.00   0.00  -0.00     0.00   0.00  -0.00
   6   1    -0.00   0.00  -0.00    -0.00   0.00  -0.00    -0.00  -0.00  -0.00
   7   1     0.00   0.00  -0.00     0.00  -0.00   0.00     0.00  -0.00  -0.00
   8   7    -0.00   0.00  -0.00     0.00  -0.00  -0.00    -0.00   0.00  -0.00
   9   6     0.00   0.00   0.00     0.00   0.00   0.00     0.00   0.00   0.00
  10   1    -0.00  -0.00   0.00    -0.00   0.00  -0.00    -0.00   0.00  -0.00
  11   1     0.00   0.00   0.00    -0.00  -0.00  -0.00    -0.00  -0.00  -0.00
  12   1     0.00  -0.00  -0.00    -0.00   0.00  -0.00    -0.00   0.00   0.00
  13   6     0.00   0.00   0.00    -0.00   0.00  -0.00     0.00   0.00  -0.00
  14   1    -0.00  -0.00  -0.00     0.00   0.00   0.00    -0.00   0.00  -0.00
  15   1     0.00   0.00   0.00     0.00  -0.00   0.00     0.00  -0.00   0.00
  16   1     0.00   0.00   0.00    -0.00  -0.00  -0.00    -0.00  -0.00  -0.00
  17   6     0.00  -0.00   0.00     0.00  -0.00  -0.00     0.00  -0.00  -0.00
  18   1    -0.00   0.00   0.00    -0.00   0.00   0.00    -0.00   0.00   0.00
  19   1     0.00   0.00   0.00    -0.00  -0.00  -0.00     0.00  -0.00  -0.00
  20   1    -0.00   0.00  -0.00    -0.00  -0.00   0.00     0.00  -0.00   0.00
  21   1    -0.00   0.00  -0.00     0.00  -0.00   0.00     0.01  -0.01   0.01
  22   6    -0.00  -0.00  -0.00    -0.00  -0.00   0.00    -0.00  -0.00   0.00
  23   8     0.01   0.00   0.00     0.00  -0.00  -0.00     0.00   0.00  -0.00
  24   7    -0.07  -0.06   0.08     0.00   0.00  -0.00     0.00   0.00  -0.00
  25   1    -0.20   0.12  -0.38     0.00  -0.00   0.00     0.00  -0.00   0.00
  26   1     0.45   0.10   0.08    -0.00  -0.00  -0.00    -0.00  -0.00  -0.00
  27   7    -0.07   0.05  -0.11    -0.00  -0.00  -0.00     0.00  -0.00   0.00
  28   1     0.54   0.03   0.04     0.00   0.00   0.00    -0.00  -0.00  -0.00
  29   1    -0.27  -0.21   0.37    -0.00   0.00   0.00     0.00   0.00  -0.00
  30   6    -0.00   0.00  -0.00    -0.00   0.00  -0.00    -0.00   0.01  -0.00
  31   8     0.00  -0.00   0.00    -0.00   0.00   0.00     0.00  -0.00  -0.00
  32   7    -0.00   0.00  -0.00    -0.05   0.09  -0.03    -0.13   0.22  -0.08
  33   1     0.00  -0.00   0.00     0.13  -0.26   0.17     0.33  -0.65   0.42
  34   1     0.00  -0.00  -0.00     0.07  -0.07  -0.06     0.16  -0.17  -0.14
  35   7     0.00  -0.00   0.00     0.00   0.00  -0.01     0.01   0.00  -0.02
  36   1    -0.00   0.00   0.00     0.00  -0.00  -0.00     0.00  -0.00  -0.00
  37   1     0.00   0.00  -0.00    -0.01  -0.01   0.03    -0.02  -0.02   0.07
  38   6     0.00   0.00  -0.00    -0.00   0.00  -0.01     0.00  -0.00   0.00
  39   8     0.00  -0.00   0.00     0.00  -0.00   0.00    -0.00   0.00  -0.00
  40   7     0.00  -0.00   0.00    -0.14   0.13  -0.15     0.06  -0.05   0.06
  41   1     0.00   0.00  -0.00    -0.03   0.01   0.09     0.01  -0.00  -0.04
  42   1    -0.00   0.00  -0.00     0.55  -0.48   0.50    -0.23   0.19  -0.20
  43   7     0.00   0.00  -0.00     0.01  -0.02  -0.01    -0.01   0.01   0.00
  44   1     0.00  -0.00   0.00    -0.01   0.01  -0.01     0.00  -0.01   0.00
  45   1    -0.00   0.00   0.00    -0.05   0.05   0.03     0.02  -0.02  -0.01
  46   6    -0.00   0.00   0.00    -0.00   0.00   0.00    -0.00   0.00   0.00
  47   8     0.00  -0.00  -0.00     0.00  -0.00  -0.00     0.00  -0.00  -0.00
  48   7    -0.00  -0.00   0.00     0.00  -0.00  -0.00     0.00  -0.00  -0.00
  49   1    -0.00   0.00  -0.00     0.00  -0.00   0.00     0.00  -0.00   0.00
  50   1     0.00  -0.00  -0.00    -0.01   0.00   0.00    -0.02   0.01   0.01
  51   7    -0.00   0.00   0.00     0.00  -0.00  -0.00     0.00  -0.00  -0.00
  52   1     0.00  -0.00  -0.00    -0.00   0.00   0.00    -0.01   0.01   0.01
  53   1    -0.00  -0.00   0.00     0.00   0.00  -0.00     0.00   0.00  -0.00
                    148                    149                    150
                        a                      a                      a 
 Frequencies --  3559.5059              3560.6694              3560.8765
 Red. masses --     2.1880                 2.0435                 2.1704
 Frc consts  --     0.0000                 0.0000                 0.0000
 IR Inten    --    12.3606                44.4632                 4.2909
 Raman Activ --     0.0000                 0.0000                 0.0000
 Depolar     --     0.0000                 0.0000                 0.0000
 Atom AN      X      Y      Z        X      Y      Z        X      Y      Z
   1   8    -0.00   0.00  -0.00     0.00  -0.00   0.00    -0.00   0.00  -0.00
   2   6    -0.00  -0.00   0.00     0.00   0.00  -0.00     0.00  -0.00  -0.00
   3   1     0.00   0.00   0.00    -0.00  -0.00  -0.00     0.00   0.00   0.00
   4   1    -0.00   0.00  -0.00     0.00  -0.00   0.00    -0.00  -0.00   0.00
   5   6     0.00  -0.00  -0.00    -0.00   0.00  -0.00     0.00  -0.00   0.00
   6   1     0.00  -0.00  -0.00     0.00  -0.00   0.00    -0.00  -0.00   0.00
   7   1     0.00  -0.00  -0.00    -0.00   0.00   0.00    -0.00   0.00  -0.00
   8   7     0.00   0.00  -0.00    -0.00   0.00  -0.00    -0.00   0.00  -0.00
   9   6     0.00  -0.00   0.00    -0.00  -0.00   0.00     0.00   0.00  -0.00
  10   1    -0.00  -0.00   0.00     0.00  -0.00   0.00    -0.00  -0.00   0.00
  11   1    -0.00   0.00   0.00     0.00   0.00   0.00    -0.00  -0.00   0.00
  12   1    -0.00   0.00   0.00     0.00  -0.00  -0.00    -0.00  -0.00   0.00
  13   6     0.00   0.00   0.00    -0.00   0.00  -0.00     0.00  -0.00   0.00
  14   1    -0.00  -0.00   0.00     0.00  -0.00   0.00    -0.00  -0.00   0.00
  15   1    -0.00  -0.00   0.00    -0.00  -0.00   0.00    -0.00   0.00  -0.00
  16   1    -0.00   0.00   0.00     0.00   0.00   0.00    -0.00  -0.00   0.00
  17   6     0.00  -0.00  -0.00    -0.00   0.00   0.00     0.00  -0.00   0.00
  18   1    -0.00   0.00   0.00     0.00  -0.00  -0.00     0.00  -0.00   0.00
  19   1    -0.00   0.00   0.00     0.00  -0.00   0.00     0.00   0.00   0.00
  20   1     0.00  -0.00   0.00    -0.00   0.00   0.00     0.00   0.00  -0.00
  21   1     0.00  -0.00   0.00    -0.00   0.00  -0.00     0.00  -0.00   0.00
  22   6    -0.00  -0.00   0.00     0.00  -0.00   0.00    -0.00  -0.00   0.00
  23   8     0.00   0.00  -0.00    -0.00   0.00  -0.00     0.00  -0.00   0.00
  24   7     0.00   0.00   0.00     0.00  -0.00   0.00     0.00  -0.00   0.00
  25   1    -0.00   0.00  -0.00    -0.00   0.00  -0.00    -0.00   0.00  -0.00
  26   1    -0.00  -0.00  -0.00    -0.00  -0.00  -0.00    -0.00  -0.00  -0.00
  27   7    -0.00  -0.00   0.00    -0.00  -0.00   0.00    -0.00  -0.00   0.00
  28   1     0.00   0.00   0.00     0.00   0.00   0.00     0.00   0.00   0.00
  29   1     0.00   0.00  -0.00     0.00   0.00  -0.00     0.00   0.00  -0.00
  30   6    -0.00   0.00   0.00     0.01  -0.00  -0.01    -0.00   0.00   0.00
  31   8     0.00   0.00  -0.00    -0.00   0.00   0.00     0.00  -0.00  -0.00
  32   7    -0.00   0.00  -0.00     0.01  -0.02   0.01    -0.00   0.00  -0.00
  33   1     0.00  -0.01   0.00    -0.02   0.05  -0.03     0.00  -0.01   0.01
  34   1     0.00  -0.00  -0.00    -0.02   0.02   0.02     0.00  -0.00  -0.00
  35   7    -0.01  -0.00   0.02     0.09   0.02  -0.26    -0.01  -0.00   0.04
  36   1     0.01  -0.01  -0.01    -0.15   0.17   0.13     0.02  -0.03  -0.02
  37   1     0.02   0.02  -0.06    -0.22  -0.25   0.84     0.03   0.04  -0.13
  38   6     0.00  -0.00   0.00     0.00  -0.00  -0.00     0.01  -0.01  -0.00
  39   8    -0.00   0.00  -0.00    -0.00   0.00  -0.00    -0.00   0.00   0.00
  40   7     0.00  -0.00   0.00     0.00  -0.00  -0.00     0.01  -0.01   0.01
  41   1     0.00  -0.00  -0.00    -0.00   0.00   0.01     0.00  -0.00  -0.01
  42   1    -0.00   0.00  -0.00    -0.00   0.00  -0.00    -0.05   0.04  -0.04
  43   7     0.00  -0.00   0.00     0.03  -0.04   0.00     0.18  -0.23   0.01
  44   1    -0.00   0.00  -0.00    -0.04   0.07  -0.05    -0.24   0.45  -0.36
  45   1    -0.00   0.00   0.00    -0.07   0.07   0.05    -0.45   0.43   0.32
  46   6     0.00   0.01  -0.01     0.00  -0.00  -0.00    -0.00  -0.00   0.00
  47   8    -0.00  -0.00   0.00    -0.00   0.00   0.00     0.00  -0.00  -0.00
  48   7    -0.09   0.17   0.03    -0.02   0.03   0.01     0.00  -0.01  -0.00
  49   1     0.03  -0.45   0.07     0.00  -0.07   0.01    -0.00   0.02  -0.00
  50   1     0.31  -0.19  -0.19     0.06  -0.04  -0.03    -0.01   0.01   0.01
  51   7     0.15  -0.00  -0.17     0.00   0.00  -0.00    -0.00  -0.00   0.00
  52   1    -0.27   0.27   0.29     0.00  -0.00  -0.00     0.00  -0.00  -0.00
  53   1    -0.31  -0.27   0.35    -0.00  -0.00   0.00     0.00   0.00  -0.00
                    151                    152                    153
                        a                      a                      a 
 Frequencies --  3563.5880              3565.0569              3569.0483
 Red. masses --     2.1903                 2.1747                 2.1765
 Frc consts  --     0.0000                 0.0000                 0.0000
 IR Inten    --    13.2217                19.4072                11.0052
 Raman Activ --     0.0000                 0.0000                 0.0000
 Depolar     --     0.0000                 0.0000                 0.0000
 Atom AN      X      Y      Z        X      Y      Z        X      Y      Z
   1   8     0.00  -0.00   0.00    -0.00   0.00  -0.00    -0.00   0.00   0.00
   2   6     0.00   0.00  -0.00    -0.00  -0.00   0.00     0.00  -0.00   0.00
   3   1    -0.00  -0.00   0.00     0.00   0.00   0.00    -0.00  -0.00   0.00
   4   1     0.00   0.00   0.00    -0.00   0.00  -0.00    -0.00   0.00  -0.00
   5   6     0.00  -0.00   0.00     0.00  -0.00   0.00    -0.00   0.00  -0.00
   6   1    -0.00   0.00   0.00    -0.00   0.00  -0.00     0.00  -0.00   0.00
   7   1     0.00   0.00  -0.00     0.00  -0.00  -0.00    -0.00  -0.00   0.00
   8   7     0.00   0.00   0.00     0.00   0.00  -0.00     0.00  -0.00   0.00
   9   6    -0.00  -0.00  -0.00     0.00  -0.00  -0.00    -0.00  -0.00  -0.00
  10   1     0.00   0.00   0.00    -0.00  -0.00  -0.00     0.00   0.00  -0.00
  11   1    -0.00  -0.00  -0.00    -0.00   0.00   0.00    -0.00   0.00  -0.00
  12   1    -0.00   0.00   0.00    -0.00   0.00   0.00    -0.00   0.00  -0.00
  13   6     0.00   0.00   0.00     0.00  -0.00   0.00    -0.00  -0.00  -0.00
  14   1    -0.00  -0.00  -0.00    -0.00  -0.00   0.00     0.00   0.00   0.00
  15   1     0.00   0.00  -0.00    -0.00   0.00  -0.00    -0.00  -0.00   0.00
  16   1     0.00   0.00   0.00    -0.00   0.00   0.00    -0.00   0.00   0.00
  17   6     0.00  -0.00   0.00     0.00  -0.00  -0.00    -0.00   0.00  -0.00
  18   1     0.00   0.00  -0.00    -0.00   0.00   0.00     0.00  -0.00  -0.00
  19   1     0.00  -0.00  -0.00    -0.00   0.00   0.00    -0.00  -0.00  -0.00
  20   1     0.00   0.00  -0.00     0.00   0.00  -0.00    -0.00  -0.00   0.00
  21   1    -0.00   0.00  -0.00     0.00  -0.00   0.00     0.00  -0.00   0.00
  22   6    -0.00  -0.00   0.01    -0.00   0.00  -0.00    -0.01  -0.00  -0.00
  23   8     0.00   0.00  -0.00     0.00   0.00   0.00     0.00   0.00   0.00
  24   7     0.17  -0.01   0.13    -0.00   0.00  -0.00    -0.16   0.01  -0.12
  25   1    -0.21   0.15  -0.45     0.00  -0.00   0.00     0.19  -0.14   0.41
  26   1    -0.45  -0.11  -0.06     0.00   0.00   0.00     0.43   0.11   0.06
  27   7    -0.18  -0.06   0.08     0.00   0.00  -0.00    -0.19  -0.06   0.09
  28   1     0.43   0.01   0.04    -0.00  -0.00  -0.00     0.47   0.01   0.05
  29   1     0.25   0.21  -0.37    -0.00  -0.00   0.00     0.26   0.21  -0.38
  30   6     0.00   0.00  -0.00    -0.00   0.00   0.00     0.00  -0.00  -0.00
  31   8    -0.00  -0.00   0.00    -0.00   0.00  -0.00    -0.00   0.00  -0.00
  32   7     0.00  -0.00   0.00    -0.00   0.01   0.00     0.00  -0.00   0.00
  33   1    -0.00   0.00  -0.00     0.01  -0.01   0.01    -0.00   0.00  -0.00
  34   1     0.00  -0.00  -0.00     0.01  -0.01  -0.01    -0.00   0.00   0.00
  35   7    -0.00  -0.00   0.00    -0.01  -0.00   0.02     0.00   0.00  -0.00
  36   1     0.00  -0.00  -0.00     0.02  -0.02  -0.02    -0.00   0.00   0.00
  37   1     0.00   0.00  -0.00     0.02   0.02  -0.07    -0.00  -0.00   0.00
  38   6     0.00   0.00  -0.00     0.00  -0.00   0.00    -0.00  -0.00   0.00
  39   8    -0.00  -0.00   0.00     0.00  -0.00   0.00     0.00   0.00  -0.00
  40   7    -0.00   0.00   0.00     0.00  -0.00   0.00     0.00  -0.00   0.00
  41   1     0.00   0.00  -0.00     0.00  -0.00  -0.00    -0.00  -0.00   0.00
  42   1     0.00  -0.00   0.00    -0.00   0.00  -0.00    -0.00   0.00  -0.00
  43   7    -0.00   0.00   0.00     0.00  -0.00   0.00     0.00  -0.00  -0.00
  44   1     0.00  -0.00   0.00    -0.00   0.00  -0.00    -0.00   0.00  -0.00
  45   1     0.00  -0.00  -0.00    -0.00   0.00   0.00    -0.00   0.00   0.00
  46   6    -0.00   0.00   0.00    -0.01   0.01   0.01     0.00  -0.00  -0.00
  47   8     0.00  -0.00   0.00     0.00  -0.00  -0.00    -0.00   0.00   0.00
  48   7    -0.00   0.00   0.00    -0.11   0.20   0.04     0.00  -0.00  -0.00
  49   1     0.00  -0.00   0.00     0.03  -0.52   0.08    -0.00   0.00  -0.00
  50   1     0.00  -0.00  -0.00     0.37  -0.23  -0.23    -0.00   0.00   0.00
  51   7    -0.00  -0.00   0.00    -0.13   0.00   0.14     0.00  -0.00  -0.00
  52   1     0.00  -0.00  -0.00     0.24  -0.24  -0.26    -0.00   0.00   0.00
  53   1     0.00   0.00  -0.00     0.26   0.22  -0.29    -0.00  -0.00   0.00
