      -----------------------------------------------------------      
     |                   =====================                   |     
     |                           x T B                           |     
     |                   =====================                   |     
     |                         S. Grimme                         |     
     |          Mulliken Center for Theoretical Chemistry        |     
     |                    University of Bonn                     |     
      -----------------------------------------------------------      

   * xtb version 6.6.1 (unknown-commit) compiled by '@Linux' on 12/27/2023

   xtb is free software: you can redistribute it and/or modify it under
   the terms of the GNU Lesser General Public License as published by
   the Free Software Foundation, either version 3 of the License, or
   (at your option) any later version.
   
   xtb is distributed in the hope that it will be useful,
   but WITHOUT ANY WARRANTY; without even the implied warranty of
   MERCHANTABILITY or FITNESS FOR A PARTICULAR PURPOSE.  See the
   GNU Lesser General Public License for more details.
   
   Cite this work as:
   * C. Bannwarth, E. Caldeweyher, S. Ehlert, A. Hansen, P. Pracht,
     J. Seibert, S. Spicher, S. Grimme, WIREs Comput. Mol. Sci., 2020, 11,
     e01493. DOI: 10.1002/wcms.1493
   
   for GFN2-xTB:
   * C. Bannwarth, S. Ehlert and S. Grimme., J. Chem. Theory Comput., 2019,
     15, 1652-1671. DOI: 10.1021/acs.jctc.8b01176
   for GFN1-xTB:
   * S. Grimme, C. Bannwarth, P. Shushkov, J. Chem. Theory Comput., 2017,
     13, 1989-2009. DOI: 10.1021/acs.jctc.7b00118
   for GFN0-xTB:
   * P. Pracht, E. Caldeweyher, S. Ehlert, S. Grimme, ChemRxiv, 2019, preprint.
     DOI: 10.26434/chemrxiv.8326202.v1
   for GFN-FF:
   * S. Spicher and S. Grimme, Angew. Chem. Int. Ed., 2020, 59, 15665-15673.
     DOI: 10.1002/anie.202004239
   
   for ALPB and GBSA implicit solvation:
   * S. Ehlert, M. Stahn, S. Spicher, S. Grimme, J. Chem. Theory Comput.,
     2021, 17, 4250-4261. DOI: 10.1021/acs.jctc.1c00471
   
   for DFT-D4:
   * E. Caldeweyher, C. Bannwarth and S. Grimme, J. Chem. Phys., 2017,
     147, 034112. DOI: 10.1063/1.4993215
   * E. Caldeweyher, S. Ehlert, A. Hansen, H. Neugebauer, S. Spicher,
     C. Bannwarth and S. Grimme, J. Chem. Phys., 2019, 150, 154122.
     DOI: 10.1063/1.5090222
   * E. Caldeweyher, J.-M. Mewes, S. Ehlert and S. Grimme, Phys. Chem. Chem. Phys.
     2020, 22, 8499-8512. DOI: 10.1039/D0CP00502A
   
   for sTDA-xTB:
   * S. Grimme and C. Bannwarth, J. Chem. Phys., 2016, 145, 054103.
     DOI: 10.1063/1.4959605
   
   in the mass-spec context:
   * V. Asgeirsson, C. Bauer and S. Grimme, Chem. Sci., 2017, 8, 4879.
     DOI: 10.1039/c7sc00601b
   * J. Koopman and S. Grimme, ACS Omega 2019, 4, 12, 15120-15133.
     DOI: 10.1021/acsomega.9b02011
   
   for metadynamics refer to:
   * S. Grimme, J. Chem. Theory Comput., 2019, 155, 2847-2862
     DOI: 10.1021/acs.jctc.9b00143
   
   for SPH calculations refer to:
   * S. Spicher and S. Grimme, J. Chem. Theory Comput., 2021, 17, 1701-1714
     DOI: 10.1021/acs.jctc.0c01306
   
   with help from (in alphabetical order)
   P. Atkinson, C. Bannwarth, F. Bohle, G. Brandenburg, E. Caldeweyher
   M. Checinski, S. Dohm, S. Ehlert, S. Ehrlich, I. Gerasimov, C. Hölzer
   A. Katbashev, J. Koopman, C. Lavigne, S. Lehtola, F. März, M. Müller,
   F. Musil, H. Neugebauer, J. Pisarek, C. Plett, P. Pracht, F. Pultar,
   J. Seibert, P. Shushkov, S. Spicher, M. Stahn, M. Steiner, T. Strunk,
   J. Stückrath, T. Rose, and J. Unsleber
   
 * started run on 2024/01/10 at 18:32:28.818     

           -------------------------------------------------
          |                Calculation Setup                |
           -------------------------------------------------

          program call               : xtb struc.xyz --gfn2 --hess
          hostname                   : swaroop
          coordinate file            : struc.xyz
          omp threads                :                     1

   ID    Z sym.   atoms
    1    8 O      1, 23, 31, 39, 47
    2    6 C      2, 5, 9, 13, 17, 22, 30, 38, 46
    3    1 H      3, 4, 6, 7, 10-12, 14-16, 18-21, 25, 26, 28, 29, 33, 34,
                  36, 37, 41, 42, 44, 45, 49, 50, 52, 53
    4    7 N      8, 24, 27, 32, 35, 40, 43, 48, 51

molecular fragmentation (1/2 indicates fragments):
11111111111111111111122222222222222222222222222222222
# atoms in fragment 1/2:    21    32
 fragment masses (1/2) :      104.17      240.22
CMA distance (Bohr)    :   4.221
constraining FC (au)   :  0.0500

           -------------------------------------------------
          |                 G F N 2 - x T B                 |
           -------------------------------------------------

        Reference                      10.1021/acs.jctc.8b01176
      * Hamiltonian:
        H0-scaling (s, p, d)           1.850000    2.230000    2.230000
        zeta-weighting                 0.500000
      * Dispersion:
        s8                             2.700000
        a1                             0.520000
        a2                             5.000000
        s9                             5.000000
      * Repulsion:
        kExp                           1.500000    1.000000
        rExp                           1.000000
      * Coulomb:
        alpha                          2.000000
        third order                    shell-resolved
        anisotropic                    true
        a3                             3.000000
        a5                             4.000000
        cn-shift                       1.200000
        cn-exp                         4.000000
        max-rad                        5.000000


          ...................................................
          :                      SETUP                      :
          :.................................................:
          :  # basis functions                 122          :
          :  # atomic orbitals                 122          :
          :  # shells                           76          :
          :  # electrons                       140          :
          :  max. iterations                   250          :
          :  Hamiltonian                  GFN2-xTB          :
          :  restarted?                      false          :
          :  GBSA solvation                  false          :
          :  PC potential                    false          :
          :  electronic temp.          300.0000000     K    :
          :  accuracy                    1.0000000          :
          :  -> integral cutoff          0.2500000E+02      :
          :  -> integral neglect         0.1000000E-07      :
          :  -> SCF convergence          0.1000000E-05 Eh   :
          :  -> wf. convergence          0.1000000E-03 e    :
          :  Broyden damping             0.4000000          :
          ...................................................

 iter      E             dE          RMSdq      gap      omega  full diag
   1    -81.5530388 -0.815530E+02  0.435E+00    5.12       0.0  T
   2    -81.8392313 -0.286193E+00  0.237E+00    6.05       1.0  T
   3    -81.8447694 -0.553812E-02  0.115E+00    5.85       1.0  T
   4    -81.8461050 -0.133558E-02  0.239E-01    5.95       1.0  T
   5    -81.8469761 -0.871102E-03  0.919E-02    5.88       1.0  T
   6    -81.8470011 -0.249740E-04  0.268E-02    5.90       1.0  T
   7    -81.8470055 -0.444254E-05  0.780E-03    5.90       1.8  T
   8    -81.8470058 -0.279154E-06  0.262E-03    5.90       5.3  T
   9    -81.8470058 -0.119154E-07  0.822E-04    5.90      16.7  T
  10    -81.8470058 -0.404128E-08  0.171E-04    5.90      80.3  T

   *** convergence criteria satisfied after 10 iterations ***

         #    Occupation            Energy/Eh            Energy/eV
      -------------------------------------------------------------
         1        2.0000           -0.7913184             -21.5329
       ...           ...                  ...                  ...
        64        2.0000           -0.4974959             -13.5376
        65        2.0000           -0.4964673             -13.5096
        66        2.0000           -0.4942445             -13.4491
        67        2.0000           -0.4929344             -13.4134
        68        2.0000           -0.4927020             -13.4071
        69        2.0000           -0.4910171             -13.3613
        70        2.0000           -0.4873495             -13.2615 (HOMO)
        71                         -0.2706358              -7.3644 (LUMO)
        72                         -0.2678123              -7.2875
        73                         -0.2652439              -7.2177
        74                         -0.2627630              -7.1501
        75                         -0.1486477              -4.0449
       ...                                ...                  ...
       122                          0.5598081              15.2332
      -------------------------------------------------------------
                  HL-Gap            0.2167137 Eh            5.8971 eV
             Fermi-level           -0.3789926 Eh          -10.3129 eV

 SCC (total)                   0 d,  0 h,  0 min,  0.080 sec
 SCC setup                      ...        0 min,  0.000 sec (  0.369%)
 Dispersion                     ...        0 min,  0.001 sec (  0.740%)
 classical contributions        ...        0 min,  0.000 sec (  0.227%)
 integral evaluation            ...        0 min,  0.008 sec (  9.904%)
 iterations                     ...        0 min,  0.043 sec ( 53.871%)
 molecular gradient             ...        0 min,  0.028 sec ( 34.536%)
 printout                       ...        0 min,  0.000 sec (  0.338%)

         :::::::::::::::::::::::::::::::::::::::::::::::::::::
         ::                     SUMMARY                     ::
         :::::::::::::::::::::::::::::::::::::::::::::::::::::
         :: total energy             -80.932286123057 Eh    ::
         :: gradient norm              0.000063928267 Eh/a0 ::
         :: HOMO-LUMO gap              5.897079497021 eV    ::
         ::.................................................::
         :: SCC energy               -81.847005841140 Eh    ::
         :: -> isotropic ES            0.290935601656 Eh    ::
         :: -> anisotropic ES         -0.026419541238 Eh    ::
         :: -> anisotropic XC          0.020790726765 Eh    ::
         :: -> dispersion             -0.044324430164 Eh    ::
         :: repulsion energy           0.913316497135 Eh    ::
         :: add. restraining           0.000000000000 Eh    ::
         :: total charge               1.000000000000 e     ::
         :::::::::::::::::::::::::::::::::::::::::::::::::::::

           ------------------------------------------------- 
          |                Numerical Hessian                |
           ------------------------------------------------- 
step length          :   0.00500
SCC accuracy         :   0.30000
Hessian scale factor :   1.00000
frozen atoms in %    :   0.00000    0
RMS gradient         :   0.00006
estimated CPU  time      0.24 min
estimated wall time      0.24 min

writing file <hessian>.

 projected vibrational frequencies (cm⁻¹)
eigval :       -0.00    -0.00    -0.00     0.00     0.00     0.00
eigval :       -7.48    14.50    19.00    27.56    30.97    36.88
eigval :       39.28    39.85    45.24    50.54    61.21    64.20
eigval :       67.68    78.93    81.26    88.16    95.03   102.58
eigval :      117.58   126.47   132.04   161.46   169.61   180.98
eigval :      182.55   185.40   186.08   238.24   270.79   282.79
eigval :      304.32   326.15   330.73   355.76   383.47   385.16
eigval :      415.14   419.49   423.57   427.30   444.12   450.18
eigval :      454.74   461.68   463.19   468.79   474.13   480.01
eigval :      483.92   491.43   499.34   502.83   530.59   538.12
eigval :      553.69   563.71   575.29   658.07   666.12   674.33
eigval :      674.85   680.02   713.48   750.71   772.15   788.56
eigval :      879.25   931.20   946.45   960.75   965.06   986.90
eigval :      995.16  1006.04  1008.62  1012.65  1019.30  1025.14
eigval :     1026.93  1038.90  1043.49  1081.30  1086.58  1089.94
eigval :     1093.96  1098.63  1108.35  1130.88  1172.22  1221.63
eigval :     1252.75  1283.35  1300.30  1331.36  1339.04  1352.21
eigval :     1354.09  1362.38  1363.22  1392.61  1397.52  1402.94
eigval :     1430.35  1438.70  1444.22  1446.42  1449.58  1455.81
eigval :     1456.55  1457.89  1464.53  1473.16  1475.08  1477.69
eigval :     1492.63  1497.34  1500.53  1512.44  1515.94  1654.44
eigval :     1693.22  1710.62  1726.50  2936.35  2955.77  2995.59
eigval :     3001.66  3036.84  3037.80  3040.17  3043.17  3044.82
eigval :     3051.03  3056.51  3059.25  3064.06  3149.45  3212.43
eigval :     3257.56  3368.98  3483.13  3498.50  3499.98  3504.28
eigval :     3504.71  3514.66  3529.00  3533.72  3546.07  3564.14
eigval :     3564.47  3569.96  3572.12
           -------------------------------------------------
          |                Property Printout                |
           -------------------------------------------------

    * Orbital Energies and Occupations

         #    Occupation            Energy/Eh            Energy/eV
      -------------------------------------------------------------
         1        2.0000           -0.7913187             -21.5329
       ...           ...                  ...                  ...
        58        2.0000           -0.5053166             -13.7504
        59        2.0000           -0.5042024             -13.7200
        60        2.0000           -0.5036083             -13.7039
        61        2.0000           -0.5022305             -13.6664
        62        2.0000           -0.5012368             -13.6393
        63        2.0000           -0.4984660             -13.5640
        64        2.0000           -0.4974971             -13.5376
        65        2.0000           -0.4964670             -13.5096
        66        2.0000           -0.4942449             -13.4491
        67        2.0000           -0.4929354             -13.4135
        68        2.0000           -0.4927024             -13.4071
        69        2.0000           -0.4910172             -13.3613
        70        2.0000           -0.4873507             -13.2615 (HOMO)
        71                         -0.2706365              -7.3644 (LUMO)
        72                         -0.2678155              -7.2876
        73                         -0.2652433              -7.2176
        74                         -0.2627637              -7.1502
        75                         -0.1486479              -4.0449
        76                         -0.1014464              -2.7605
        77                         -0.0975854              -2.6554
        78                         -0.0802887              -2.1848
        79                         -0.0779139              -2.1201
        80                         -0.0708843              -1.9289
        81                         -0.0682637              -1.8575
       ...                                ...                  ...
       122                          0.5598081              15.2332
      -------------------------------------------------------------
                  HL-Gap            0.2167142 Eh            5.8971 eV
             Fermi-level           -0.3789936 Eh          -10.3129 eV

     #   Z          covCN         q      C6AA      α(0)
     1   8 O        1.654    -0.463    22.115     6.348
     2   6 C        3.673     0.072    19.598     6.345
     3   1 H        0.924     0.053     2.285     2.364
     4   1 H        0.924     0.050     2.325     2.384
     5   6 C        3.761    -0.061    21.716     6.643
     6   1 H        0.924     0.117     1.638     2.001
     7   1 H        0.924     0.073     2.058     2.244
     8   7 N        3.623     0.160    18.544     6.396
     9   6 C        3.732    -0.120    22.888     6.829
    10   1 H        0.925     0.108     1.710     2.045
    11   1 H        0.925     0.112     1.679     2.026
    12   1 H        0.925     0.107     1.724     2.053
    13   6 C        3.735    -0.116    22.818     6.817
    14   1 H        0.925     0.117     1.642     2.004
    15   1 H        0.925     0.074     2.039     2.233
    16   1 H        0.925     0.119     1.622     1.992
    17   6 C        3.723    -0.109    22.692     6.803
    18   1 H        0.925     0.078     2.003     2.213
    19   1 H        0.925     0.108     1.713     2.047
    20   1 H        0.925     0.120     1.615     1.987
    21   1 H        0.803     0.332     0.632     1.249
    22   6 C        2.675     0.342    21.198     7.534
    23   8 O        0.860    -0.526    24.359     6.617
    24   7 N        2.644    -0.296    27.620     7.805
    25   1 H        0.860     0.202     1.098     1.641
    26   1 H        0.860     0.184     1.190     1.709
    27   7 N        2.643    -0.305    27.856     7.839
    28   1 H        0.860     0.191     1.155     1.683
    29   1 H        0.859     0.243     0.913     1.497
    30   6 C        2.675     0.346    21.129     7.522
    31   8 O        0.860    -0.520    24.241     6.601
    32   7 N        2.646    -0.289    27.449     7.781
    33   1 H        0.860     0.199     1.110     1.650
    34   1 H        0.861     0.186     1.179     1.701
    35   7 N        2.646    -0.290    27.478     7.785
    36   1 H        0.861     0.186     1.181     1.702
    37   1 H        0.860     0.199     1.109     1.650
    38   6 C        2.675     0.341    21.200     7.534
    39   8 O        0.861    -0.536    24.604     6.650
    40   7 N        2.644    -0.306    27.877     7.842
    41   1 H        0.859     0.249     0.889     1.477
    42   1 H        0.861     0.181     1.208     1.721
    43   7 N        2.645    -0.290    27.473     7.784
    44   1 H        0.861     0.186     1.182     1.703
    45   1 H        0.861     0.198     1.117     1.655
    46   6 C        2.675     0.340    21.224     7.539
    47   8 O        0.860    -0.533    24.535     6.641
    48   7 N        2.645    -0.296    27.639     7.808
    49   1 H        0.860     0.195     1.130     1.665
    50   1 H        0.861     0.181     1.206     1.720
    51   7 N        2.644    -0.306    27.883     7.842
    52   1 H        0.860     0.177     1.234     1.740
    53   1 H        0.860     0.238     0.933     1.513

 Mol. C6AA /au·bohr⁶  :      21796.243796
 Mol. C8AA /au·bohr⁸  :     454261.364474
 Mol. α(0) /au        :        220.577216


Wiberg/Mayer (AO) data.
largest (>0.10) Wiberg bond orders for each atom

 ---------------------------------------------------------------------------
     #   Z sym  total        # sym  WBO       # sym  WBO       # sym  WBO
 ---------------------------------------------------------------------------
     1   8 O    1.959 --     2 C    1.024    21 H    0.828
     2   6 C    3.965 --     1 O    1.024     5 C    0.986     3 H    0.969
                             4 H    0.963
     3   1 H    0.997 --     2 C    0.969
     4   1 H    0.997 --     2 C    0.963
     5   6 C    3.936 --     2 C    0.986     7 H    0.970     6 H    0.955
                             8 N    0.939
     6   1 H    0.986 --     5 C    0.955
     7   1 H    0.995 --     5 C    0.970
     8   7 N    3.823 --    17 C    0.959    13 C    0.957     9 C    0.953
                             5 C    0.939
     9   6 C    3.915 --    10 H    0.970    12 H    0.968    11 H    0.966
                             8 N    0.953
    10   1 H    0.988 --     9 C    0.970
    11   1 H    0.987 --     9 C    0.966
    12   1 H    0.989 --     9 C    0.968
    13   6 C    3.921 --    15 H    0.979    16 H    0.964    14 H    0.960
                             8 N    0.957
    14   1 H    0.986 --    13 C    0.960
    15   1 H    0.994 --    13 C    0.979
    16   1 H    0.986 --    13 C    0.964
    17   6 C    3.926 --    18 H    0.979    19 H    0.972    20 H    0.961
                             8 N    0.959
    18   1 H    0.994 --    17 C    0.979
    19   1 H    0.988 --    17 C    0.972
    20   1 H    0.986 --    17 C    0.961
    21   1 H    0.890 --     1 O    0.828
    22   6 C    3.960 --    23 O    1.473    27 N    1.270    24 N    1.199
    23   8 O    1.921 --    22 C    1.473    27 N    0.143    24 N    0.123
    24   7 N    3.306 --    22 C    1.199    26 H    0.947    25 H    0.942
                            23 O    0.123
    25   1 H    0.959 --    24 N    0.942
    26   1 H    0.966 --    24 N    0.947
    27   7 N    3.350 --    22 C    1.270    28 H    0.938    29 H    0.867
                            23 O    0.143
    28   1 H    0.964 --    27 N    0.938
    29   1 H    0.941 --    27 N    0.867
    30   6 C    3.959 --    31 O    1.539    32 N    1.208    35 N    1.206
    31   8 O    1.896 --    30 C    1.539    32 N    0.144    35 N    0.143
    32   7 N    3.323 --    30 C    1.208    34 H    0.947    33 H    0.943
                            31 O    0.144
    33   1 H    0.960 --    32 N    0.943
    34   1 H    0.965 --    32 N    0.947
    35   7 N    3.321 --    30 C    1.206    36 H    0.947    37 H    0.943
                            31 O    0.143
    36   1 H    0.965 --    35 N    0.947
    37   1 H    0.960 --    35 N    0.943
    38   6 C    3.960 --    39 O    1.471    40 N    1.267    43 N    1.210
    39   8 O    1.906 --    38 C    1.471    40 N    0.143    43 N    0.130
    40   7 N    3.349 --    38 C    1.267    42 H    0.947    41 H    0.862
                            39 O    0.143
    41   1 H    0.938 --    40 N    0.862
    42   1 H    0.967 --    40 N    0.947
    43   7 N    3.325 --    38 C    1.210    44 H    0.947    45 H    0.944
                            39 O    0.130
    44   1 H    0.965 --    43 N    0.947
    45   1 H    0.961 --    43 N    0.944
    46   6 C    3.959 --    47 O    1.523    51 N    1.233    48 N    1.195
    47   8 O    1.879 --    46 C    1.523    51 N    0.146    48 N    0.138
    48   7 N    3.311 --    46 C    1.195    50 H    0.948    49 H    0.945
                            47 O    0.138
    49   1 H    0.962 --    48 N    0.945
    50   1 H    0.967 --    48 N    0.948
    51   7 N    3.327 --    46 C    1.233    52 H    0.949    53 H    0.893
                            47 O    0.146
    52   1 H    0.969 --    51 N    0.949
    53   1 H    0.943 --    51 N    0.893
 ---------------------------------------------------------------------------

Topologies differ in total number of bonds
Writing topology from bond orders to xtbtopo.mol

molecular dipole:
                 x           y           z       tot (Debye)
 q only:       -0.730       1.129       1.534
   full:       -1.256       0.791       1.555       5.464
molecular quadrupole (traceless):
                xx          xy          yy          xz          yz          zz
 q only:      -17.437      11.066     -19.722      27.501      25.656      37.158
  q+dip:      -21.064      12.061     -24.868      32.604      30.567      45.931
   full:      -21.184      11.911     -24.042      32.447      30.595      45.227

           -------------------------------------------------
          |               Frequency Printout                |
           -------------------------------------------------
 projected vibrational frequencies (cm⁻¹)
eigval :       -0.00    -0.00    -0.00     0.00     0.00     0.00
eigval :       -7.48    14.50    19.00    27.56    30.97    36.88
eigval :       39.28    39.85    45.24    50.54    61.21    64.20
eigval :       67.68    78.93    81.26    88.16    95.03   102.58
eigval :      117.58   126.47   132.04   161.46   169.61   180.98
eigval :      182.55   185.40   186.08   238.24   270.79   282.79
eigval :      304.32   326.15   330.73   355.76   383.47   385.16
eigval :      415.14   419.49   423.57   427.30   444.12   450.18
eigval :      454.74   461.68   463.19   468.79   474.13   480.01
eigval :      483.92   491.43   499.34   502.83   530.59   538.12
eigval :      553.69   563.71   575.29   658.07   666.12   674.33
eigval :      674.85   680.02   713.48   750.71   772.15   788.56
eigval :      879.25   931.20   946.45   960.75   965.06   986.90
eigval :      995.16  1006.04  1008.62  1012.65  1019.30  1025.14
eigval :     1026.93  1038.90  1043.49  1081.30  1086.58  1089.94
eigval :     1093.96  1098.63  1108.35  1130.88  1172.22  1221.63
eigval :     1252.75  1283.35  1300.30  1331.36  1339.04  1352.21
eigval :     1354.09  1362.38  1363.22  1392.61  1397.52  1402.94
eigval :     1430.35  1438.70  1444.22  1446.42  1449.58  1455.81
eigval :     1456.55  1457.89  1464.53  1473.16  1475.08  1477.69
eigval :     1492.63  1497.34  1500.53  1512.44  1515.94  1654.44
eigval :     1693.22  1710.62  1726.50  2936.35  2955.77  2995.59
eigval :     3001.66  3036.84  3037.80  3040.17  3043.17  3044.82
eigval :     3051.03  3056.51  3059.25  3064.06  3149.45  3212.43
eigval :     3257.56  3368.98  3483.13  3498.50  3499.98  3504.28
eigval :     3504.71  3514.66  3529.00  3533.72  3546.07  3564.14
eigval :     3564.47  3569.96  3572.12
 reduced masses (amu)
   1: 12.86   2: 12.46   3: 12.67   4: 12.43   5: 12.55   6: 12.61   7: 11.13   8: 12.07
   9: 11.97  10: 12.13  11: 12.41  12: 12.64  13: 12.37  14: 12.51  15: 12.39  16: 12.59
  17: 12.75  18: 13.00  19: 11.86  20: 13.32  21: 12.05  22: 12.64  23: 12.54  24: 12.71
  25: 11.07  26: 12.57  27: 12.50  28: 12.14  29: 11.39  30: 10.72  31:  9.67  32:  5.38
  33:  6.01  34: 13.85  35:  2.82  36:  7.40  37:  6.94  38:  4.67  39:  3.60  40:  5.93
  41:  1.88  42:  3.88  43:  2.07  44:  2.92  45:  3.28  46:  8.20  47:  1.65  48:  4.05
  49:  8.31  50:  8.13  51:  8.10  52:  7.29  53:  6.41  54:  1.94  55:  5.09  56:  8.41
  57:  3.95  58:  3.37  59:  9.53  60: 11.15  61: 11.41  62: 11.36  63:  8.58  64:  8.74
  65:  9.11  66: 11.49  67:  9.50  68:  7.04  69:  4.82  70:  2.16  71:  8.97  72:  2.55
  73:  6.71  74:  8.80  75:  5.24  76:  5.00  77:  5.00  78:  4.61  79:  8.79  80:  7.88
  81:  9.24  82:  7.73  83:  9.26  84:  8.76  85:  8.81  86:  3.20  87:  4.50  88:  9.70
  89:  9.02  90:  8.39  91:  7.70  92:  7.60  93:  3.95  94:  8.13  95:  3.23  96:  3.61
  97:  6.93  98:  8.02  99:  7.19 100:  3.58 101:  4.74 102:  5.98 103:  5.07 104:  3.74
 105:  5.22 106:  4.34 107:  2.81 108:  2.55 109:  2.61 110:  1.72 111:  1.66 112:  3.15
 113:  1.81 114:  3.00 115:  3.11 116:  2.27 117:  2.70 118:  1.70 119:  1.64 120:  1.63
 121:  1.79 122:  8.03 123:  7.86 124:  8.99 125:  9.58 126: 12.34 127: 12.66 128: 12.74
 129: 12.84 130:  1.92 131:  1.51 132:  1.95 133:  1.55 134:  1.58 135:  1.55 136:  1.74
 137:  1.87 138:  1.63 139:  1.79 140:  1.75 141:  1.80 142:  1.89 143:  1.82 144:  1.82
 145:  1.88 146:  1.69 147:  1.46 148:  1.45 149:  1.44 150:  1.46 151:  1.45 152:  1.89
 153:  1.96 154:  1.89 155:  2.17 156:  2.19 157:  2.18 158:  2.18 159:  2.19
 IR intensities (km·mol⁻¹)
   1:  1.25   2:  2.14   3:  1.73   4:  1.12   5:  0.85   6:  2.30   7:  0.06   8:  0.80
   9:  1.06  10:  2.58  11:  3.25  12:  1.10  13:  2.40  14:  1.71  15:  0.97  16:  0.14
  17:  0.58  18:  1.79  19:  1.48  20:  5.72  21:  5.31  22:  9.13  23: 10.40  24:  8.82
  25: 17.13  26: 11.87  27:  7.07  28: 22.76  29: 19.73  30: 34.65  31: 82.61  32: 79.31
  33: 27.83  34:  5.05  35:176.07  36:  4.22  37:  1.30  38: 11.49  39:508.59  40:  4.15
  41:  3.23  42:  0.05  43: 56.17  44: 74.54  45:198.40  46: 14.38  47: 17.05  48:303.27
  49:  2.40  50: 52.16  51:  4.26  52: 16.09  53: 10.98  54:  0.77  55: 10.10  56: 52.51
  57:114.08  58: 29.82  59: 34.35  60: 17.13  61:  4.69  62: 44.20  63: 15.02  64: 34.80
  65:  7.54  66: 20.83  67: 28.16  68:194.50  69:108.20  70:127.26  71: 16.45  72:538.58
  73:  3.74  74:  9.49  75:  1.50  76:  5.59  77:  0.94  78:  2.53  79:  0.11  80: 16.54
  81: 11.93  82: 16.05  83:  5.95  84:  4.50  85:  2.81  86:  3.01  87: 31.39  88:  1.96
  89:  0.82  90:  1.86  91:  6.06  92: 15.26  93: 14.24  94: 39.05  95: 21.48  96:  3.57
  97:  7.03  98: 15.43  99:  8.78 100:  7.20 101:  2.79 102: 84.56 103:186.65 104: 41.44
 105:152.64 106: 20.99 107: 37.27 108: 15.72 109:  2.87 110:  3.62 111:  1.20 112: 10.34
 113:  4.91 114:  4.15 115:  5.24 116:  6.89 117:  6.14 118:  7.38 119: 17.57 120: 10.64
 121:  8.05 122:355.49 123:551.79 124:703.82 125:461.22 126:234.10 127:****** 128:******
 129:510.70 130: 21.12 131: 36.53 132:  9.71 133:  3.34 134: 30.62 135:  3.89 136:  2.98
 137:  0.78 138: 27.21 139: 26.02 140: 14.22 141:  5.72 142:  1.66 143:286.14 144:949.47
 145:****** 146:599.60 147: 18.82 148: 17.90 149: 37.39 150:  8.89 151: 19.24 152: 29.89
 153: 20.94 154: 15.99 155: 15.24 156: 13.06 157:  9.20 158: 11.75 159: 15.22
 Raman intensities (amu)
Molecule has no symmetry elements
It seems to be the C1 point group
   1:  0.00   2:  0.00   3:  0.00   4:  0.00   5:  0.00   6:  0.00   7:  0.00   8:  0.00
   9:  0.00  10:  0.00  11:  0.00  12:  0.00  13:  0.00  14:  0.00  15:  0.00  16:  0.00
  17:  0.00  18:  0.00  19:  0.00  20:  0.00  21:  0.00  22:  0.00  23:  0.00  24:  0.00
  25:  0.00  26:  0.00  27:  0.00  28:  0.00  29:  0.00  30:  0.00  31:  0.00  32:  0.00
  33:  0.00  34:  0.00  35:  0.00  36:  0.00  37:  0.00  38:  0.00  39:  0.00  40:  0.00
  41:  0.00  42:  0.00  43:  0.00  44:  0.00  45:  0.00  46:  0.00  47:  0.00  48:  0.00
  49:  0.00  50:  0.00  51:  0.00  52:  0.00  53:  0.00  54:  0.00  55:  0.00  56:  0.00
  57:  0.00  58:  0.00  59:  0.00  60:  0.00  61:  0.00  62:  0.00  63:  0.00  64:  0.00
  65:  0.00  66:  0.00  67:  0.00  68:  0.00  69:  0.00  70:  0.00  71:  0.00  72:  0.00
  73:  0.00  74:  0.00  75:  0.00  76:  0.00  77:  0.00  78:  0.00  79:  0.00  80:  0.00
  81:  0.00  82:  0.00  83:  0.00  84:  0.00  85:  0.00  86:  0.00  87:  0.00  88:  0.00
  89:  0.00  90:  0.00  91:  0.00  92:  0.00  93:  0.00  94:  0.00  95:  0.00  96:  0.00
  97:  0.00  98:  0.00  99:  0.00 100:  0.00 101:  0.00 102:  0.00 103:  0.00 104:  0.00
 105:  0.00 106:  0.00 107:  0.00 108:  0.00 109:  0.00 110:  0.00 111:  0.00 112:  0.00
 113:  0.00 114:  0.00 115:  0.00 116:  0.00 117:  0.00 118:  0.00 119:  0.00 120:  0.00
 121:  0.00 122:  0.00 123:  0.00 124:  0.00 125:  0.00 126:  0.00 127:  0.00 128:  0.00
 129:  0.00 130:  0.00 131:  0.00 132:  0.00 133:  0.00 134:  0.00 135:  0.00 136:  0.00
 137:  0.00 138:  0.00 139:  0.00 140:  0.00 141:  0.00 142:  0.00 143:  0.00 144:  0.00
 145:  0.00 146:  0.00 147:  0.00 148:  0.00 149:  0.00 150:  0.00 151:  0.00 152:  0.00
 153:  0.00 154:  0.00 155:  0.00 156:  0.00 157:  0.00 158:  0.00 159:  0.00
 output can be read by thermo (or use thermo option).
 writing <g98.out> molden fake output.
 recommended (thermochemical) frequency scaling factor: 1.0
           -------------------------------------------------
          |             Thermodynamic Functions             |
           -------------------------------------------------

c1  symmetry found (for desy threshold:  0.10E+00) used in thermo
 inverting freq            1   7.4795895039147382     

          ...................................................
          :                      SETUP                      :
          :.................................................:
          :  # frequencies                         153      :
          :  # imaginary freq.                       0      :
          :  linear?                             false      :
          :  only rotor calc.                    false      :
          :  symmetry                               c1      :
          :  rotational number                       1      :
          :  scaling factor                  1.0000000      :
          :  rotor cutoff                   50.0000000 cm⁻¹ :
          :  imag. cutoff                  -20.0000000 cm⁻¹ :
          :.................................................:

    mode    ω/cm⁻¹     T·S(HO)/kcal·mol⁻¹    T·S(FR)/kcal·mol⁻¹   T·S(vib)
   ------------------------------------------------------------------------
       1      7.48    -2.56053 (  0.05%)    -1.61918 ( 99.95%)    -1.61965
       2     14.50    -2.16855 (  0.70%)    -1.42324 ( 99.30%)    -1.42847
       3     19.00    -2.00851 (  2.04%)    -1.34319 ( 97.96%)    -1.35677
       4     27.56    -1.78826 (  8.45%)    -1.23298 ( 91.55%)    -1.27989
       5     30.97    -1.71917 ( 12.83%)    -1.19838 ( 87.17%)    -1.26522
       6     36.88    -1.61599 ( 22.84%)    -1.14669 ( 77.16%)    -1.25386
       7     39.28    -1.57869 ( 27.59%)    -1.12798 ( 72.41%)    -1.25232
       8     39.85    -1.57028 ( 28.74%)    -1.12377 ( 71.26%)    -1.25209
       9     45.24    -1.49531 ( 40.13%)    -1.08615 ( 59.87%)    -1.25034
      10     50.54    -1.42999 ( 51.07%)    -1.05335 ( 48.93%)    -1.24570
      11     61.21    -1.31721 ( 69.19%)    -0.99662 ( 30.81%)    -1.21842
      12     64.20    -1.28914 ( 73.10%)    -0.98248 ( 26.90%)    -1.20666
      13     67.68    -1.25811 ( 77.05%)    -0.96684 ( 22.95%)    -1.19126
      14     78.93    -1.16792 ( 86.13%)    -0.92128 ( 13.87%)    -1.13372
      15     81.26    -1.15095 ( 87.46%)    -0.91268 ( 12.54%)    -1.12107
      16     88.16    -1.10330 ( 90.62%)    -0.88853 (  9.38%)    -1.08316
      17     95.03    -1.05955 ( 92.88%)    -0.86630 (  7.12%)    -1.04580
      18    102.58    -1.01509 ( 94.66%)    -0.84364 (  5.34%)    -1.00593
      19    117.58    -0.93610 ( 96.83%)    -0.80321 (  3.17%)    -0.93190
      20    126.47    -0.89417 ( 97.62%)    -0.78164 (  2.38%)    -0.89149
      21    132.04    -0.86943 ( 97.99%)    -0.76886 (  2.01%)    -0.86741
      22    161.46    -0.75510 ( 99.09%)    -0.70928 (  0.91%)    -0.75468
      23    169.61    -0.72743 ( 99.25%)    -0.69469 (  0.75%)    -0.72719
      24    180.98    -0.69120 ( 99.42%)    -0.67547 (  0.58%)    -0.69111
      25    182.55    -0.68638 ( 99.44%)    -0.67290 (  0.56%)    -0.68631
      26    185.40    -0.67778 ( 99.47%)    -0.66831 (  0.53%)    -0.67773
      27    186.08    -0.67575 ( 99.48%)    -0.66723 (  0.52%)    -0.67571
      28    238.24    -0.54144 ( 99.81%)    -0.59404 (  0.19%)    -0.54154
      29    270.79    -0.47440 ( 99.88%)    -0.55610 (  0.12%)    -0.47450
      30    282.79    -0.45222 ( 99.90%)    -0.54326 (  0.10%)    -0.45231
   ------------------------------------------------------------------------

   temp. (K)  partition function   enthalpy   heat capacity  entropy
                                   cal/mol     cal/K/mol   cal/K/mol   J/K/mol
 298.15  VIB  0.589E+18            19599.552    103.681    129.963
         ROT  0.141E+08              888.752      2.981     35.701
         INT  0.834E+25            20488.305    106.662    165.664
         TR   0.618E+28             1481.254      4.968     43.384
         TOT                       21969.5586   111.6304   209.0484   874.6585

       T/K    H(0)-H(T)+PV         H(T)/Eh          T*S/Eh         G(T)/Eh
   ------------------------------------------------------------------------
    298.15    0.350107E-01    0.474242E+00    0.993256E-01    0.374917E+00
   ------------------------------------------------------------------------

         :::::::::::::::::::::::::::::::::::::::::::::::::::::
         ::                  THERMODYNAMIC                  ::
         :::::::::::::::::::::::::::::::::::::::::::::::::::::
         :: total free energy         -80.557369539034 Eh   ::
         ::.................................................::
         :: total energy              -80.932286123388 Eh   ::
         :: zero point energy           0.439231498775 Eh   ::
         :: G(RRHO) w/o ZPVE           -0.064314914421 Eh   ::
         :: G(RRHO) contrib.            0.374916584354 Eh   ::
         :::::::::::::::::::::::::::::::::::::::::::::::::::::
imag cut-off (cm-1) :    5.00
 found            1  significant imaginary frequency
 writing imag mode distorted coords to xtbhess.xyz
 for further optimization.

           -------------------------------------------------
          | TOTAL ENERGY              -80.932286123388 Eh   |
          | TOTAL ENTHALPY            -80.458043904510 Eh   |
          | TOTAL FREE ENERGY         -80.557369539034 Eh   |
          | GRADIENT NORM               0.000063685971 Eh/α |
          | HOMO-LUMO GAP               5.897094188646 eV   |
           -------------------------------------------------

------------------------------------------------------------------------
 * finished run on 2024/01/10 at 18:32:43.235     
------------------------------------------------------------------------
 total:
 * wall-time:     0 d,  0 h,  0 min, 14.418 sec
 *  cpu-time:     0 d,  0 h,  0 min, 14.369 sec
 * ratio c/w:     0.997 speedup
 SCF:
 * wall-time:     0 d,  0 h,  0 min,  0.080 sec
 *  cpu-time:     0 d,  0 h,  0 min,  0.058 sec
 * ratio c/w:     0.720 speedup
 analytical hessian:
 * wall-time:     0 d,  0 h,  0 min, 14.310 sec
 *  cpu-time:     0 d,  0 h,  0 min, 14.283 sec
 * ratio c/w:     0.998 speedup

