 Entering Gaussian System
 *********************************************
 Gaussian 98:
 frequency output generated by the xtb code
 *********************************************
                         Standard orientation:
 --------------------------------------------------------------------
  Center     Atomic     Atomic              Coordinates (Angstroms)
  Number     Number      Type              X           Y           Z
 --------------------------------------------------------------------
    1          8             0       -1.878675   -1.331280   -3.430058
    2          6             0       -0.632790   -0.764653   -3.141607
    3          1             0        0.041812   -1.086114   -3.938443
    4          1             0       -0.687732    0.332329   -3.175926
    5          6             0       -0.095095   -1.121853   -1.751157
    6          1             0       -0.871936   -0.879479   -1.024778
    7          1             0        0.791665   -0.521816   -1.533623
    8          7             0        0.296384   -2.543074   -1.534962
    9          6             0        0.664269   -2.683667   -0.114990
   10          1             0        1.496863   -2.010761    0.094225
   11          1             0        0.961819   -3.709154    0.093995
   12          1             0       -0.179178   -2.415761    0.518121
   13          6             0        1.474789   -2.873952   -2.352543
   14          1             0        1.234211   -2.808155   -3.410267
   15          1             0        1.805732   -3.887218   -2.133659
   16          1             0        2.275216   -2.174506   -2.113502
   17          6             0       -0.812301   -3.458150   -1.845200
   18          1             0       -1.110514   -3.352202   -2.886427
   19          1             0       -1.671328   -3.217156   -1.221667
   20          1             0       -0.509424   -4.486313   -1.655492
   21          1             0       -2.515782   -1.047398   -2.751828
   22          6             0        2.966431    0.478577    0.073672
   23          8             0        2.680815   -0.474813   -0.646344
   24          7             0        2.709046    1.759626   -0.264101
   25          1             0        2.142249    1.918312   -1.079251
   26          1             0        2.668711    2.463449    0.462804
   27          7             0        3.557750    0.306018    1.286622
   28          1             0        3.932555    1.104810    1.767481
   29          1             0        3.982977   -0.585051    1.476321
   30          6             0       -0.905069    1.875967    0.137006
   31          8             0       -0.706505    0.900955    0.882461
   32          7             0       -1.792388    1.804757   -0.876216
   33          1             0       -2.377555    0.977950   -0.969650
   34          1             0       -2.040192    2.621960   -1.403654
   35          7             0       -0.220967    3.019140    0.275917
   36          1             0       -0.401913    3.807943   -0.317493
   37          1             0        0.513239    3.100168    0.983722
   38          6             0       -3.492914   -1.148668    0.082851
   39          8             0       -3.168688   -0.674093   -1.008294
   40          7             0       -4.603974   -1.908198    0.213491
   41          1             0       -5.225844   -1.975558   -0.573509
   42          1             0       -4.943236   -2.208260    1.109435
   43          7             0       -2.698253   -1.024764    1.167604
   44          1             0       -3.054838   -1.257885    2.077831
   45          1             0       -1.947602   -0.323293    1.123736
   46          6             0        1.719528    2.430028    3.128682
   47          8             0        1.887861    3.100094    2.107884
   48          7             0        0.816870    1.438916    3.192501
   49          1             0        0.276649    1.196463    2.359083
   50          1             0        0.717572    0.877824    4.017988
   51          7             0        2.486680    2.636868    4.231601
   52          1             0        2.235096    2.238374    5.118808
   53          1             0        3.046763    3.472448    4.248506
 --------------------------------------------------------------------
     1 basis functions        1 primitive gaussians
     1 alpha electrons        1 beta electrons

 Harmonic frequencies (cm**-1), IR intensities (km*mol⁻¹),
 Raman scattering activities (A**4/amu), Raman depolarization ratios,
 reduced masses (AMU), force constants (mDyne/A) and normal coordinates:
                      1                      2                      3
                        a                      a                      a 
 Frequencies --    10.4670                23.1605                27.2803
 Red. masses --    11.7027                12.3513                11.1656
 Frc consts  --     0.0000                 0.0000                 0.0000
 IR Inten    --     0.3161                 0.4544                 0.4406
 Raman Activ --     0.0000                 0.0000                 0.0000
 Depolar     --     0.0000                 0.0000                 0.0000
 Atom AN      X      Y      Z        X      Y      Z        X      Y      Z
   1   8     0.03  -0.19   0.03    -0.19  -0.27   0.02    -0.06  -0.02  -0.11
   2   6     0.02  -0.11  -0.02    -0.16  -0.17  -0.13    -0.01  -0.09  -0.17
   3   1     0.01  -0.05   0.00    -0.06  -0.07  -0.04    -0.01  -0.07  -0.04
   4   1    -0.00  -0.03  -0.04    -0.05  -0.05  -0.07     0.03  -0.03  -0.09
   5   6     0.02   0.03   0.02    -0.05  -0.03  -0.13    -0.03   0.05  -0.13
   6   1     0.01   0.03  -0.00    -0.00  -0.00  -0.03    -0.01   0.06  -0.05
   7   1     0.00   0.02  -0.01    -0.02   0.01  -0.07     0.00   0.00  -0.06
   8   7     0.02   0.06   0.18     0.04   0.01  -0.04    -0.16   0.05   0.06
   9   6     0.04   0.21   0.18     0.10   0.14  -0.04    -0.26   0.18   0.10
  10   1     0.01   0.06   0.03     0.02   0.06  -0.04    -0.07   0.05   0.03
  11   1     0.01   0.07   0.08     0.05   0.05   0.01    -0.09   0.05   0.07
  12   1     0.01   0.08   0.05     0.03   0.04  -0.01    -0.08   0.08   0.00
  13   6     0.01  -0.04   0.19     0.02   0.01  -0.06    -0.11  -0.12   0.17
  14   1    -0.00  -0.05   0.05    -0.01  -0.02  -0.02    -0.01  -0.06   0.04
  15   1     0.00  -0.00   0.09     0.02   0.01  -0.00    -0.06  -0.04   0.08
  16   1     0.00  -0.00   0.03    -0.00   0.02  -0.04    -0.02  -0.05   0.05
  17   6     0.01   0.02   0.28     0.07  -0.07   0.07    -0.18   0.08   0.08
  18   1    -0.00  -0.02   0.08     0.01  -0.05   0.02    -0.03  -0.01   0.01
  19   1     0.01   0.02   0.08     0.03  -0.02   0.03    -0.06   0.06  -0.00
  20   1     0.01   0.01   0.11     0.04  -0.01   0.04    -0.08   0.02   0.07
  21   1     0.00  -0.03  -0.00    -0.04  -0.05   0.01    -0.01   0.02  -0.03
  22   6     0.07   0.15  -0.10    -0.04   0.08  -0.10    -0.07  -0.02  -0.00
  23   8     0.05   0.16  -0.10    -0.04   0.22  -0.29    -0.09  -0.01  -0.02
  24   7    -0.04   0.15  -0.07     0.19   0.16  -0.00    -0.04  -0.02   0.01
  25   1    -0.04   0.03  -0.00     0.10   0.09  -0.03    -0.01   0.00   0.00
  26   1    -0.01   0.03  -0.01     0.05   0.02   0.02    -0.00  -0.01   0.01
  27   7     0.21   0.18  -0.17    -0.30  -0.14  -0.01    -0.09  -0.05   0.00
  28   1     0.06   0.05  -0.05    -0.08  -0.07   0.04    -0.02  -0.02   0.00
  29   1     0.08   0.05  -0.06    -0.12  -0.06  -0.01    -0.03  -0.02  -0.00
  30   6    -0.05   0.00   0.02     0.14  -0.06  -0.00     0.02   0.08   0.05
  31   8    -0.07  -0.04  -0.03     0.10  -0.06   0.03     0.05   0.06   0.02
  32   7    -0.04   0.05   0.00     0.17  -0.05  -0.02     0.01   0.11   0.06
  33   1    -0.01   0.01  -0.01     0.03  -0.01  -0.00     0.00   0.03   0.01
  34   1    -0.01   0.02   0.01     0.06  -0.01  -0.01     0.00   0.03   0.02
  35   7    -0.06  -0.01   0.09     0.18  -0.08  -0.01     0.01   0.09   0.09
  36   1    -0.01   0.01   0.03     0.06  -0.02  -0.01    -0.00   0.03   0.03
  37   1    -0.02  -0.01   0.03     0.04  -0.02   0.01     0.01   0.02   0.02
  38   6    -0.09   0.05  -0.11    -0.00   0.06   0.03     0.19  -0.11  -0.08
  39   8    -0.04   0.06  -0.10     0.02   0.04   0.02     0.05   0.09  -0.05
  40   7    -0.11   0.07  -0.17    -0.04   0.13   0.04     0.32  -0.28  -0.10
  41   1    -0.02   0.02  -0.06    -0.01   0.04   0.01     0.06  -0.06  -0.01
  42   1    -0.04   0.02  -0.05    -0.01   0.04   0.01     0.11  -0.11  -0.03
  43   7    -0.14   0.03  -0.08     0.00   0.04   0.03     0.31  -0.21  -0.15
  44   1    -0.05   0.01  -0.03    -0.00   0.02   0.01     0.11  -0.09  -0.04
  45   1    -0.03   0.00  -0.01     0.01   0.00   0.00     0.05  -0.02  -0.03
  46   6     0.03  -0.19  -0.01    -0.05   0.01   0.14     0.04   0.04   0.04
  47   8    -0.04  -0.09   0.06     0.08  -0.06   0.13     0.07   0.03   0.03
  48   7     0.06  -0.23  -0.06    -0.08   0.04   0.12     0.04   0.05   0.04
  49   1     0.00  -0.04  -0.01    -0.00  -0.00   0.02     0.01   0.01   0.01
  50   1     0.03  -0.09  -0.03    -0.05   0.03   0.04     0.00   0.02   0.01
  51   7     0.11  -0.32  -0.04    -0.17   0.07   0.21     0.03   0.05   0.05
  52   1     0.04  -0.11  -0.02    -0.07   0.04   0.06     0.00   0.02   0.01
  53   1     0.02  -0.08   0.01    -0.04   0.01   0.06     0.01   0.01   0.01
                      4                      5                      6
                        a                      a                      a 
 Frequencies --    33.5227                35.9815                42.5097
 Red. masses --    12.1383                11.7890                12.0017
 Frc consts  --     0.0000                 0.0000                 0.0000
 IR Inten    --     0.5206                 3.5092                 6.8061
 Raman Activ --     0.0000                 0.0000                 0.0000
 Depolar     --     0.0000                 0.0000                 0.0000
 Atom AN      X      Y      Z        X      Y      Z        X      Y      Z
   1   8     0.03   0.18   0.04     0.04   0.08   0.11    -0.11  -0.09   0.25
   2   6     0.01   0.17   0.07     0.03   0.07   0.11    -0.13  -0.01   0.22
   3   1     0.01   0.05   0.02     0.01   0.03   0.03    -0.04   0.03   0.05
   4   1     0.00   0.05   0.02     0.00   0.02   0.05    -0.06  -0.00   0.09
   5   6    -0.01   0.15   0.07     0.06   0.01   0.08    -0.05  -0.08   0.17
   6   1    -0.00   0.05   0.02     0.03   0.01   0.04    -0.01  -0.05   0.07
   7   1     0.00   0.04   0.02     0.03  -0.01   0.01    -0.02  -0.01   0.05
   8   7    -0.04   0.16   0.08     0.00  -0.01   0.04     0.07  -0.08   0.04
   9   6    -0.01   0.15   0.07     0.19  -0.03  -0.01     0.22  -0.16  -0.01
  10   1     0.01   0.04   0.01     0.08  -0.03  -0.04     0.06  -0.04  -0.02
  11   1    -0.01   0.04   0.02     0.03  -0.02  -0.01     0.08  -0.05  -0.03
  12   1     0.00   0.06   0.02     0.09   0.02   0.03     0.08  -0.07   0.03
  13   6    -0.07   0.10   0.05    -0.13  -0.09  -0.12     0.00   0.06  -0.11
  14   1    -0.03   0.03   0.02    -0.08  -0.04  -0.02    -0.03   0.03  -0.02
  15   1    -0.02   0.03   0.02    -0.04  -0.03  -0.03     0.03   0.02  -0.05
  16   1    -0.01   0.03   0.01    -0.02  -0.03  -0.07    -0.01   0.03  -0.05
  17   6    -0.07   0.17   0.11    -0.10   0.06   0.19     0.09  -0.12   0.08
  18   1    -0.03   0.05   0.03    -0.07   0.03   0.07    -0.02  -0.00   0.04
  19   1    -0.01   0.06   0.04     0.00   0.03   0.10     0.05  -0.08   0.07
  20   1    -0.03   0.05   0.04    -0.04   0.01   0.04     0.06  -0.04  -0.03
  21   1     0.00   0.03   0.01     0.01   0.02   0.03    -0.04  -0.01   0.05
  22   6     0.14   0.01   0.03     0.13  -0.12  -0.16    -0.05   0.01   0.04
  23   8     0.09   0.06  -0.00     0.22  -0.11  -0.24    -0.02   0.02   0.02
  24   7     0.42   0.05  -0.02    -0.09  -0.14  -0.04     0.05   0.02   0.00
  25   1     0.15   0.04  -0.03    -0.05  -0.04   0.01     0.04   0.01  -0.02
  26   1     0.10   0.01  -0.01    -0.03  -0.05   0.01     0.01   0.01  -0.00
  27   7    -0.06  -0.08   0.12     0.28  -0.14  -0.24    -0.20  -0.01   0.11
  28   1     0.00  -0.04   0.05     0.05  -0.03  -0.05    -0.05  -0.01   0.04
  29   1    -0.06  -0.04   0.05     0.12  -0.02  -0.09    -0.07  -0.01   0.04
  30   6    -0.02  -0.09  -0.10    -0.02   0.03   0.03    -0.02   0.12  -0.03
  31   8    -0.07  -0.08  -0.07    -0.03   0.01   0.01    -0.07   0.14  -0.02
  32   7    -0.17  -0.03   0.03    -0.04   0.07   0.05     0.00   0.15  -0.05
  33   1    -0.06  -0.00   0.02    -0.01   0.02   0.01    -0.01   0.05  -0.01
  34   1    -0.02  -0.02  -0.02    -0.01   0.02   0.02     0.01   0.04  -0.01
  35   7     0.21  -0.21  -0.31    -0.01   0.02   0.06     0.01   0.11  -0.02
  36   1     0.04  -0.05  -0.07     0.00   0.01   0.02     0.01   0.03  -0.01
  37   1     0.05  -0.05  -0.07     0.01  -0.00   0.01     0.00   0.02  -0.00
  38   6    -0.05  -0.12   0.03    -0.01   0.01  -0.05     0.00   0.03  -0.12
  39   8    -0.11  -0.08   0.05    -0.06   0.11  -0.02    -0.22   0.31  -0.09
  40   7     0.01  -0.22   0.03     0.04  -0.07  -0.09     0.12  -0.14  -0.14
  41   1    -0.00  -0.06   0.01     0.01  -0.01  -0.02     0.00  -0.01  -0.02
  42   1     0.01  -0.07   0.01     0.01  -0.04  -0.03     0.07  -0.09  -0.04
  43   7    -0.05  -0.09   0.03    -0.00  -0.03  -0.05     0.14  -0.11  -0.22
  44   1    -0.00  -0.04   0.01     0.01  -0.03  -0.02     0.07  -0.08  -0.06
  45   1    -0.02  -0.01   0.01    -0.01  -0.00  -0.01     0.01   0.00  -0.04
  46   6    -0.04  -0.05  -0.08    -0.11   0.06   0.07     0.03  -0.02  -0.03
  47   8     0.01  -0.09  -0.11     0.05  -0.09   0.00     0.03   0.00  -0.02
  48   7    -0.10  -0.01  -0.08    -0.08   0.03   0.05    -0.09   0.09  -0.01
  49   1    -0.02  -0.01  -0.02    -0.01  -0.00   0.01    -0.03   0.04  -0.00
  50   1    -0.03   0.00  -0.02    -0.08   0.06   0.04    -0.01   0.01  -0.01
  51   7    -0.06  -0.07  -0.08    -0.34   0.26   0.18     0.16  -0.18  -0.09
  52   1    -0.03  -0.01  -0.02    -0.11   0.09   0.05     0.04  -0.04  -0.02
  53   1    -0.01  -0.02  -0.02    -0.08   0.06   0.04     0.06  -0.06  -0.02
                      7                      8                      9
                        a                      a                      a 
 Frequencies --    43.4355                49.9385                54.5726
 Red. masses --    12.6122                12.2063                12.3805
 Frc consts  --     0.0000                 0.0000                 0.0000
 IR Inten    --     0.5539                 1.8323                 2.3515
 Raman Activ --     0.0000                 0.0000                 0.0000
 Depolar     --     0.0000                 0.0000                 0.0000
 Atom AN      X      Y      Z        X      Y      Z        X      Y      Z
   1   8    -0.10  -0.00   0.09     0.13   0.05  -0.02     0.09   0.01  -0.02
   2   6    -0.06  -0.02   0.02     0.13   0.02  -0.03     0.05   0.03   0.04
   3   1    -0.03  -0.01   0.00     0.03   0.00  -0.01     0.02   0.02   0.02
   4   1    -0.01  -0.00   0.00     0.04   0.01  -0.01     0.01   0.01   0.02
   5   6    -0.02  -0.00   0.01     0.14   0.04  -0.04     0.02   0.01   0.05
   6   1    -0.00  -0.00   0.01     0.05   0.04  -0.00     0.00  -0.00   0.01
   7   1    -0.01   0.00  -0.00     0.06  -0.00  -0.03     0.01   0.00   0.02
   8   7    -0.00   0.00   0.01     0.05   0.02   0.01     0.02   0.00   0.04
   9   6    -0.04  -0.00   0.02     0.15   0.07  -0.01     0.07   0.00   0.02
  10   1    -0.02   0.01   0.01     0.07  -0.00  -0.04     0.03  -0.01  -0.01
  11   1    -0.00   0.00   0.00     0.02   0.01   0.01     0.02  -0.00   0.00
  12   1    -0.02  -0.01  -0.00     0.07   0.06   0.01     0.03   0.01   0.02
  13   6     0.03   0.04   0.03    -0.06  -0.13  -0.07    -0.02  -0.02  -0.02
  14   1     0.02   0.02   0.01    -0.04  -0.06  -0.02    -0.02  -0.01  -0.00
  15   1     0.01   0.01   0.00    -0.03  -0.04  -0.01    -0.00  -0.00  -0.00
  16   1     0.00   0.01   0.02     0.00  -0.05  -0.06    -0.00  -0.00  -0.02
  17   6     0.03  -0.02  -0.03    -0.06   0.09   0.16    -0.01   0.02   0.08
  18   1     0.01  -0.01  -0.01    -0.04   0.02   0.05    -0.02   0.01   0.03
  19   1     0.00  -0.01  -0.02     0.00   0.06   0.06     0.01   0.00   0.04
  20   1     0.01  -0.00  -0.01    -0.04   0.02   0.06    -0.00   0.00   0.01
  21   1    -0.02   0.01   0.02     0.04   0.00   0.00     0.01   0.00  -0.01
  22   6     0.02   0.01   0.06    -0.05  -0.07  -0.03    -0.05  -0.02   0.03
  23   8    -0.02  -0.00   0.11     0.20  -0.03  -0.22     0.03   0.02  -0.04
  24   7    -0.05   0.01   0.08    -0.09  -0.07   0.06     0.06  -0.00   0.03
  25   1    -0.04  -0.01   0.04     0.04  -0.00  -0.02     0.07   0.02  -0.02
  26   1    -0.01   0.00   0.02    -0.06  -0.03   0.03    -0.00   0.00   0.01
  27   7     0.14   0.04   0.01    -0.34  -0.17   0.10    -0.29  -0.09   0.14
  28   1     0.05   0.02  -0.01    -0.12  -0.05   0.06    -0.08  -0.03   0.06
  29   1     0.05   0.02  -0.01    -0.07  -0.04   0.02    -0.10  -0.03   0.05
  30   6     0.06   0.04  -0.18    -0.07   0.10  -0.05    -0.05  -0.06   0.09
  31   8     0.18  -0.03  -0.33     0.03   0.08  -0.13     0.07  -0.14  -0.02
  32   7    -0.01   0.09  -0.13    -0.05   0.06  -0.08    -0.14  -0.01   0.17
  33   1    -0.00   0.02  -0.03     0.01   0.00  -0.02    -0.02  -0.01   0.02
  34   1    -0.03   0.03  -0.01    -0.04   0.02  -0.00    -0.05   0.01   0.07
  35   7     0.03   0.05  -0.14    -0.23   0.18   0.06    -0.12  -0.03   0.15
  36   1    -0.02   0.03  -0.00    -0.06   0.05   0.02    -0.06  -0.00   0.06
  37   1    -0.00   0.01  -0.03    -0.05   0.05   0.01    -0.01  -0.01   0.02
  38   6     0.08   0.06   0.10     0.10   0.02   0.11    -0.06   0.00  -0.10
  39   8    -0.08   0.11   0.08     0.20  -0.11   0.09    -0.08   0.02  -0.11
  40   7     0.03   0.19   0.28     0.10   0.05   0.14    -0.15   0.14  -0.08
  41   1    -0.03   0.07   0.11     0.04  -0.01   0.03    -0.05   0.05  -0.02
  42   1     0.06   0.03   0.09     0.01   0.04   0.04    -0.03   0.02  -0.02
  43   7     0.33  -0.10  -0.04     0.04   0.15   0.15     0.01  -0.13  -0.14
  44   1     0.12  -0.02   0.00    -0.00   0.07   0.04     0.00  -0.03  -0.04
  45   1     0.08  -0.02  -0.04     0.02   0.03   0.02     0.01  -0.04  -0.03
  46   6    -0.12  -0.10  -0.02    -0.07  -0.08  -0.05     0.12   0.06  -0.08
  47   8    -0.14   0.01   0.07    -0.15  -0.01  -0.01     0.02   0.14  -0.06
  48   7     0.04  -0.28  -0.22    -0.14  -0.03  -0.05     0.47  -0.26  -0.21
  49   1     0.03  -0.06  -0.08    -0.04   0.00  -0.02     0.11  -0.07  -0.05
  50   1     0.01  -0.10  -0.07    -0.01  -0.04  -0.03     0.12  -0.05  -0.05
  51   7    -0.30  -0.08   0.09     0.06  -0.24  -0.11    -0.05   0.30  -0.01
  52   1    -0.08  -0.06   0.01     0.02  -0.07  -0.03     0.01   0.05  -0.01
  53   1    -0.11  -0.00   0.06     0.02  -0.07  -0.02    -0.07   0.12   0.01
                     10                     11                     12
                        a                      a                      a 
 Frequencies --    58.7967                62.8530                69.5311
 Red. masses --    12.3525                12.0152                12.4084
 Frc consts  --     0.0000                 0.0000                 0.0000
 IR Inten    --     0.7556                 0.9852                 4.9368
 Raman Activ --     0.0000                 0.0000                 0.0000
 Depolar     --     0.0000                 0.0000                 0.0000
 Atom AN      X      Y      Z        X      Y      Z        X      Y      Z
   1   8     0.15   0.16  -0.05     0.05   0.14   0.01    -0.10  -0.03   0.01
   2   6     0.13   0.09   0.06     0.04   0.10   0.11    -0.09   0.02  -0.05
   3   1     0.05   0.03   0.02     0.02   0.05   0.03    -0.03   0.00  -0.02
   4   1     0.05   0.03   0.03     0.01   0.03   0.06    -0.04   0.00  -0.02
   5   6     0.05   0.01   0.06    -0.02  -0.02   0.10    -0.02   0.07  -0.06
   6   1     0.01   0.01   0.01    -0.00  -0.01   0.03     0.00   0.03  -0.01
   7   1     0.02  -0.01   0.03     0.00  -0.02   0.04    -0.00   0.02  -0.04
   8   7    -0.03  -0.01   0.04    -0.09  -0.05   0.03    -0.02   0.08  -0.02
   9   6     0.00  -0.04   0.03     0.04  -0.10  -0.01     0.06   0.13  -0.04
  10   1     0.01  -0.03   0.00     0.03  -0.04  -0.02     0.03   0.04  -0.03
  11   1    -0.01  -0.02   0.00     0.00  -0.04  -0.02     0.02   0.04  -0.00
  12   1     0.01  -0.00   0.01     0.03  -0.02   0.02     0.03   0.05   0.00
  13   6    -0.07  -0.08   0.01    -0.18  -0.09  -0.09    -0.07   0.04  -0.08
  14   1    -0.03  -0.03   0.00    -0.08  -0.03  -0.02    -0.04   0.00  -0.02
  15   1    -0.03  -0.03   0.01    -0.05  -0.03  -0.03    -0.02   0.01  -0.02
  16   1    -0.01  -0.03  -0.01    -0.04  -0.03  -0.05    -0.01   0.01  -0.04
  17   6    -0.09   0.06   0.06    -0.17   0.04   0.10    -0.05   0.07   0.09
  18   1    -0.04   0.03   0.02    -0.08   0.03   0.04    -0.03   0.01   0.03
  19   1    -0.02   0.03   0.03    -0.03   0.01   0.06    -0.00   0.03   0.04
  20   1    -0.04   0.01   0.01    -0.06   0.00   0.00    -0.01   0.02   0.03
  21   1     0.03   0.03  -0.02     0.01   0.02   0.00    -0.02  -0.00   0.00
  22   6    -0.06   0.08  -0.08    -0.13   0.12  -0.01     0.09  -0.06   0.12
  23   8    -0.01   0.02  -0.01    -0.14   0.10   0.05     0.09   0.05   0.00
  24   7    -0.06   0.06  -0.22    -0.14   0.11  -0.07    -0.00  -0.03   0.35
  25   1    -0.00  -0.00  -0.07    -0.04   0.02  -0.02    -0.01   0.01   0.11
  26   1    -0.02   0.03  -0.07    -0.03   0.04  -0.03    -0.01  -0.03   0.11
  27   7    -0.13   0.22  -0.03    -0.13   0.20  -0.01     0.21  -0.23   0.06
  28   1    -0.05   0.07  -0.02    -0.04   0.06  -0.01     0.08  -0.08   0.03
  29   1    -0.04   0.07   0.02    -0.04   0.06   0.02     0.08  -0.06  -0.04
  30   6     0.05  -0.13   0.01     0.15  -0.05  -0.09     0.01  -0.07  -0.05
  31   8     0.07  -0.15   0.01     0.04  -0.01   0.00    -0.09   0.01   0.08
  32   7     0.15  -0.17  -0.07     0.36  -0.15  -0.27     0.29  -0.25  -0.30
  33   1     0.03  -0.04  -0.01     0.06  -0.02  -0.04     0.04  -0.05  -0.05
  34   1     0.03  -0.04   0.00     0.09  -0.04  -0.07     0.06  -0.06  -0.07
  35   7    -0.04  -0.09   0.10     0.12  -0.04  -0.05    -0.14   0.01   0.01
  36   1     0.00  -0.03   0.01     0.07  -0.03  -0.04     0.00  -0.03  -0.05
  37   1    -0.00  -0.03   0.02     0.01  -0.00   0.01    -0.05   0.03   0.02
  38   6     0.00  -0.02  -0.02     0.01  -0.02   0.01    -0.06  -0.05  -0.02
  39   8    -0.07  -0.01  -0.03     0.03  -0.01   0.03    -0.14  -0.02  -0.03
  40   7    -0.19   0.30   0.12     0.15  -0.26  -0.07    -0.11   0.02   0.03
  41   1    -0.08   0.11   0.05     0.05  -0.08  -0.03    -0.04   0.02   0.02
  42   1    -0.02   0.05   0.04     0.02  -0.05  -0.02    -0.01  -0.01   0.01
  43   7     0.25  -0.36  -0.14    -0.13   0.18   0.08     0.04  -0.18  -0.08
  44   1     0.08  -0.08  -0.03    -0.04   0.03   0.02     0.02  -0.05  -0.02
  45   1     0.07  -0.09  -0.04    -0.03   0.04   0.02     0.00  -0.04  -0.02
  46   6    -0.02   0.00   0.02     0.03  -0.04   0.04     0.01   0.10   0.00
  47   8     0.05  -0.11  -0.04    -0.02   0.04   0.09    -0.19   0.24   0.05
  48   7    -0.22   0.19   0.16     0.20  -0.20  -0.06     0.07   0.06   0.03
  49   1    -0.04   0.02   0.04     0.05  -0.04  -0.02    -0.01   0.03   0.02
  50   1    -0.05   0.05   0.04     0.05  -0.06  -0.02     0.06  -0.01  -0.00
  51   7     0.07  -0.05  -0.03    -0.06   0.02   0.10     0.19   0.02  -0.10
  52   1     0.00   0.02   0.00    -0.01  -0.02   0.02     0.09  -0.02  -0.03
  53   1     0.05  -0.03  -0.03    -0.05   0.02   0.04     0.03   0.02  -0.03
                     13                     14                     15
                        a                      a                      a 
 Frequencies --    77.7451                85.4294                92.1940
 Red. masses --    12.1423                12.2398                12.6229
 Frc consts  --     0.0000                 0.0000                 0.0000
 IR Inten    --     3.9557                 4.0175                 1.2374
 Raman Activ --     0.0000                 0.0000                 0.0000
 Depolar     --     0.0000                 0.0000                 0.0000
 Atom AN      X      Y      Z        X      Y      Z        X      Y      Z
   1   8     0.09  -0.07  -0.14    -0.21  -0.10   0.07    -0.08  -0.01   0.09
   2   6     0.05  -0.04  -0.04    -0.14  -0.08  -0.14    -0.04  -0.00  -0.06
   3   1     0.03   0.01  -0.01    -0.07  -0.04  -0.06    -0.03  -0.02  -0.03
   4   1     0.01  -0.01   0.01    -0.04  -0.02  -0.06    -0.01  -0.00  -0.04
   5   6     0.00  -0.10  -0.03     0.04   0.02  -0.18     0.07   0.09  -0.08
   6   1    -0.00  -0.03  -0.01     0.05   0.04  -0.02     0.04   0.04  -0.01
   7   1     0.00  -0.04   0.00     0.03  -0.00  -0.10     0.03   0.02  -0.05
   8   7    -0.07  -0.13  -0.06    -0.01   0.02  -0.12     0.08   0.11  -0.01
   9   6     0.13  -0.11  -0.10     0.12   0.10  -0.13     0.08   0.15  -0.00
  10   1     0.05  -0.04  -0.06     0.05   0.02  -0.07     0.03   0.04  -0.01
  11   1     0.03  -0.04  -0.04     0.03   0.03  -0.03     0.01   0.04   0.01
  12   1     0.07  -0.02   0.00     0.05   0.05  -0.02     0.03   0.06  -0.00
  13   6    -0.20  -0.21  -0.21    -0.11  -0.10  -0.20     0.07   0.06   0.00
  14   1    -0.10  -0.09  -0.05    -0.05  -0.02  -0.05     0.02   0.02  -0.00
  15   1    -0.05  -0.06  -0.05    -0.06  -0.04  -0.06     0.01   0.01   0.00
  16   1    -0.04  -0.06  -0.11    -0.00  -0.05  -0.07     0.03   0.01   0.00
  17   6    -0.17  -0.05   0.12    -0.09   0.05   0.08     0.07   0.09   0.04
  18   1    -0.09  -0.01   0.05    -0.05  -0.02   0.02     0.02   0.00   0.01
  19   1    -0.01   0.00   0.08    -0.01   0.05   0.03     0.02   0.04   0.00
  20   1    -0.06  -0.02   0.02    -0.04   0.02   0.05     0.02   0.03   0.04
  21   1     0.01  -0.03  -0.04    -0.03  -0.01   0.03    -0.01   0.01   0.03
  22   6    -0.00   0.10   0.09     0.12   0.02   0.16    -0.12  -0.08   0.02
  23   8    -0.16   0.17   0.10     0.20  -0.13   0.37     0.20  -0.18   0.00
  24   7     0.04   0.14   0.17     0.15  -0.04  -0.12    -0.52  -0.18   0.02
  25   1    -0.03   0.05   0.07     0.05  -0.06  -0.04    -0.14  -0.08   0.00
  26   1     0.03   0.03   0.05     0.03   0.02  -0.06    -0.14  -0.03  -0.01
  27   7     0.15   0.03   0.01     0.07   0.30   0.24    -0.15   0.09   0.06
  28   1     0.07  -0.00  -0.00     0.00   0.11   0.03    -0.10   0.06   0.01
  29   1     0.03  -0.00  -0.02     0.01   0.09   0.13     0.04   0.06   0.01
  30   6    -0.02   0.01   0.01     0.01  -0.04   0.03     0.08  -0.09  -0.04
  31   8     0.05   0.01  -0.01     0.10  -0.13  -0.10     0.09  -0.09  -0.03
  32   7    -0.29   0.10   0.26     0.03   0.00   0.01    -0.11  -0.02   0.13
  33   1    -0.04   0.01   0.04     0.01   0.00  -0.00    -0.03  -0.00   0.03
  34   1    -0.04   0.01   0.03    -0.02   0.02   0.05     0.00  -0.01   0.01
  35   7     0.20  -0.09  -0.23    -0.14   0.02   0.22     0.31  -0.20  -0.29
  36   1    -0.01   0.00  -0.00    -0.03   0.01   0.06     0.03  -0.03  -0.03
  37   1     0.03  -0.00  -0.03    -0.00  -0.01   0.03     0.04  -0.03  -0.04
  38   6     0.06  -0.00  -0.04    -0.01   0.02   0.00    -0.05   0.01  -0.02
  39   8     0.11  -0.11  -0.08     0.01   0.05   0.02    -0.09   0.07  -0.01
  40   7    -0.01   0.11   0.00     0.02  -0.05  -0.06    -0.03  -0.02  -0.04
  41   1    -0.00   0.03   0.00     0.01  -0.01  -0.02    -0.01  -0.00  -0.01
  42   1    -0.01   0.05   0.00    -0.00  -0.01  -0.02    -0.00  -0.02  -0.01
  43   7     0.07   0.00  -0.05    -0.07   0.06   0.03    -0.04   0.00  -0.03
  44   1     0.01   0.02  -0.01    -0.02   0.01   0.01    -0.00  -0.01  -0.01
  45   1     0.02  -0.00  -0.02    -0.01   0.00   0.01    -0.01  -0.00  -0.00
  46   6    -0.01   0.07   0.06    -0.01  -0.02  -0.05     0.05   0.04   0.05
  47   8    -0.10   0.19   0.13     0.08  -0.09  -0.09     0.00   0.11   0.10
  48   7    -0.04   0.09   0.04    -0.07   0.04  -0.02     0.03   0.06   0.05
  49   1    -0.00   0.02   0.01     0.00  -0.01  -0.01     0.02   0.01   0.01
  50   1     0.03  -0.02  -0.01    -0.02   0.02  -0.00     0.04  -0.01  -0.00
  51   7     0.09  -0.07   0.02    -0.06   0.02  -0.02     0.11  -0.04   0.03
  52   1     0.04  -0.04  -0.00    -0.03   0.02  -0.00     0.04  -0.02   0.01
  53   1     0.02  -0.02   0.02    -0.01   0.00  -0.01     0.03  -0.01   0.02
                     16                     17                     18
                        a                      a                      a 
 Frequencies --    97.6767               112.8388               123.6622
 Red. masses --    13.7510                11.3995                12.9514
 Frc consts  --     0.0000                 0.0000                 0.0000
 IR Inten    --     5.7856                22.8388                14.8111
 Raman Activ --     0.0000                 0.0000                 0.0000
 Depolar     --     0.0000                 0.0000                 0.0000
 Atom AN      X      Y      Z        X      Y      Z        X      Y      Z
   1   8     0.05  -0.01  -0.05    -0.09   0.27   0.26     0.11  -0.04  -0.14
   2   6    -0.02   0.06   0.09     0.15  -0.11  -0.07     0.08  -0.02  -0.07
   3   1     0.02   0.05   0.03    -0.03  -0.13  -0.04     0.03  -0.01  -0.01
   4   1    -0.03   0.02   0.05     0.14  -0.03  -0.07     0.02  -0.01  -0.03
   5   6    -0.10   0.01   0.10     0.28  -0.08  -0.12     0.01  -0.02  -0.05
   6   1    -0.04  -0.02   0.02     0.12   0.03  -0.01    -0.01  -0.01  -0.02
   7   1    -0.04   0.01   0.05     0.12  -0.06  -0.08     0.00  -0.00  -0.00
   8   7    -0.04   0.03   0.06     0.08  -0.14  -0.06     0.01  -0.02  -0.03
   9   6    -0.05  -0.01   0.06    -0.08  -0.13  -0.02     0.01   0.01  -0.02
  10   1    -0.02   0.00   0.02    -0.03  -0.04   0.02     0.01  -0.00  -0.01
  11   1    -0.01  -0.00   0.01    -0.03  -0.04   0.01    -0.01   0.00   0.00
  12   1    -0.02  -0.01   0.02    -0.04  -0.04  -0.03     0.00   0.02  -0.01
  13   6    -0.02   0.11   0.06     0.12  -0.31   0.08     0.01  -0.04  -0.01
  14   1    -0.01   0.03   0.02     0.08  -0.06   0.02     0.00  -0.03  -0.00
  15   1     0.01   0.04   0.02    -0.03  -0.11   0.02     0.00  -0.01   0.01
  16   1    -0.02   0.05   0.02     0.06  -0.13   0.06     0.00  -0.01  -0.01
  17   6     0.00  -0.01   0.01    -0.02   0.01  -0.15     0.00  -0.01  -0.01
  18   1    -0.00   0.01   0.01     0.05  -0.01  -0.06     0.00  -0.01  -0.00
  19   1    -0.00  -0.03   0.01    -0.02   0.06  -0.09     0.00   0.00  -0.00
  20   1     0.02  -0.00  -0.02    -0.06  -0.00  -0.00    -0.00  -0.00   0.00
  21   1    -0.01  -0.01  -0.03     0.03   0.12   0.09     0.01   0.00  -0.06
  22   6    -0.02  -0.01  -0.01     0.03   0.08  -0.03     0.05   0.00  -0.01
  23   8    -0.07   0.04  -0.06     0.03   0.15  -0.12     0.10  -0.03   0.01
  24   7    -0.02   0.01   0.09     0.08   0.12   0.06     0.08  -0.00  -0.08
  25   1    -0.01   0.02   0.03     0.03   0.05   0.02     0.03  -0.01  -0.03
  26   1     0.01  -0.01   0.03     0.02   0.02   0.03    -0.00  -0.00  -0.02
  27   7     0.04  -0.12  -0.05    -0.00  -0.02  -0.03    -0.01   0.06   0.02
  28   1     0.04  -0.04  -0.01     0.01  -0.02   0.01    -0.02   0.02   0.01
  29   1     0.02  -0.03  -0.05    -0.00  -0.01  -0.03    -0.01   0.02   0.03
  30   6     0.12  -0.14  -0.03    -0.01  -0.06   0.01    -0.04   0.02   0.00
  31   8     0.49  -0.34  -0.35     0.01  -0.10  -0.03     0.03   0.11   0.11
  32   7    -0.01  -0.07   0.08    -0.03  -0.03   0.03    -0.06  -0.12   0.03
  33   1     0.02  -0.03  -0.00    -0.02  -0.00   0.02    -0.02  -0.03   0.02
  34   1    -0.06   0.01   0.09    -0.01  -0.00   0.02    -0.02  -0.04  -0.01
  35   7    -0.12  -0.03   0.19    -0.02  -0.06   0.03    -0.07   0.04  -0.11
  36   1    -0.10   0.02   0.10    -0.02  -0.01   0.02    -0.03   0.00  -0.04
  37   1    -0.01  -0.01   0.02    -0.01  -0.01   0.01    -0.03   0.02  -0.02
  38   6    -0.04   0.03  -0.06    -0.11   0.06   0.05    -0.08   0.09  -0.03
  39   8    -0.12  -0.01  -0.11    -0.23   0.27   0.12    -0.41   0.04  -0.17
  40   7     0.08  -0.15   0.00    -0.02  -0.10  -0.02     0.09  -0.11   0.29
  41   1     0.01  -0.06   0.01    -0.02  -0.00   0.00    -0.03  -0.06   0.12
  42   1     0.02  -0.01   0.01     0.00  -0.06  -0.01     0.08   0.02   0.11
  43   7    -0.09   0.27  -0.07    -0.10  -0.00   0.04     0.09   0.33  -0.20
  44   1    -0.00   0.06  -0.01    -0.01  -0.04   0.01     0.08   0.07  -0.04
  45   1     0.01   0.03  -0.04    -0.03  -0.00   0.02     0.02   0.10  -0.08
  46   6     0.00   0.07  -0.01    -0.03   0.05  -0.01    -0.01  -0.07   0.11
  47   8     0.03   0.11   0.01    -0.08   0.16   0.04    -0.20  -0.20   0.02
  48   7    -0.16   0.22   0.02    -0.03   0.05  -0.05     0.09  -0.16   0.31
  49   1     0.02   0.01  -0.02    -0.00   0.01  -0.02     0.00  -0.05   0.10
  50   1     0.01   0.01  -0.02     0.02  -0.01  -0.03     0.04  -0.02   0.10
  51   7     0.07  -0.05  -0.03     0.02  -0.03  -0.03     0.10   0.12   0.00
  52   1     0.01  -0.01  -0.01     0.01  -0.02  -0.01     0.07   0.05   0.02
  53   1     0.03  -0.02  -0.00    -0.00  -0.00   0.01     0.01   0.05  -0.04
                     19                     20                     21
                        a                      a                      a 
 Frequencies --   137.5704               147.0264               159.6500
 Red. masses --    13.4112                13.3798                12.5862
 Frc consts  --     0.0000                 0.0000                 0.0000
 IR Inten    --     1.8288                15.4392                13.5778
 Raman Activ --     0.0000                 0.0000                 0.0000
 Depolar     --     0.0000                 0.0000                 0.0000
 Atom AN      X      Y      Z        X      Y      Z        X      Y      Z
   1   8     0.16  -0.02  -0.17     0.02   0.08   0.06     0.13  -0.02  -0.29
   2   6     0.14  -0.03  -0.11     0.07  -0.00  -0.05     0.09  -0.04  -0.10
   3   1     0.05  -0.02  -0.02     0.00  -0.03  -0.02     0.06  -0.02   0.00
   4   1     0.05  -0.01  -0.04     0.04  -0.00  -0.04     0.03  -0.01  -0.03
   5   6     0.04  -0.00  -0.07     0.11   0.06  -0.06    -0.13  -0.04  -0.01
   6   1    -0.00  -0.00  -0.04     0.04   0.03  -0.01    -0.09  -0.04  -0.04
   7   1     0.01   0.00  -0.00     0.03   0.02  -0.03    -0.07   0.01   0.05
   8   7     0.06   0.01  -0.03     0.12   0.08   0.01    -0.02  -0.01   0.00
   9   6     0.11   0.07  -0.03     0.19   0.12  -0.01     0.03   0.04  -0.01
  10   1     0.04   0.02  -0.03     0.05   0.04  -0.02     0.03  -0.01  -0.02
  11   1     0.02   0.02   0.00     0.06   0.04   0.00    -0.02   0.01   0.01
  12   1     0.04   0.04  -0.00     0.06   0.04   0.01     0.02   0.05   0.00
  13   6     0.03  -0.04  -0.05     0.06   0.01  -0.05    -0.02   0.06  -0.02
  14   1    -0.01  -0.04  -0.01    -0.00  -0.02  -0.01    -0.03  -0.05  -0.01
  15   1     0.02  -0.00   0.01     0.02   0.01   0.00     0.05   0.04   0.04
  16   1     0.01   0.00  -0.04     0.02   0.01  -0.04    -0.03   0.07  -0.05
  17   6     0.04   0.00   0.06     0.08   0.07   0.13     0.03  -0.09   0.04
  18   1    -0.00  -0.01   0.02    -0.01   0.02   0.04    -0.05   0.02   0.03
  19   1     0.02   0.01   0.03     0.04   0.03   0.06     0.03  -0.09   0.07
  20   1     0.01   0.00   0.02     0.03   0.02   0.03     0.06  -0.03  -0.06
  21   1     0.03  -0.00  -0.06     0.02   0.04   0.02     0.01   0.02  -0.11
  22   6    -0.07   0.01   0.06    -0.20  -0.03   0.08     0.04  -0.04  -0.02
  23   8    -0.16   0.02   0.07    -0.55   0.00   0.16     0.09  -0.08  -0.00
  24   7    -0.09   0.01   0.10    -0.08  -0.01   0.10     0.01  -0.06  -0.07
  25   1    -0.04   0.01   0.04    -0.08   0.00   0.07     0.02  -0.02  -0.03
  26   1     0.00   0.00   0.03     0.02  -0.01   0.03     0.01  -0.00  -0.04
  27   7     0.01  -0.02   0.01     0.05  -0.14  -0.07     0.00   0.02   0.00
  28   1     0.01  -0.01   0.00     0.07  -0.06  -0.03    -0.01   0.01   0.00
  29   1     0.00  -0.01  -0.01    -0.02  -0.06  -0.04    -0.00   0.01   0.02
  30   6    -0.03   0.10  -0.05    -0.02  -0.09   0.03     0.08  -0.03   0.20
  31   8    -0.08   0.09  -0.10     0.00  -0.07   0.08    -0.05  -0.03   0.30
  32   7     0.01   0.14  -0.10    -0.02  -0.14   0.05     0.15  -0.05   0.17
  33   1    -0.01   0.05  -0.01    -0.00  -0.04   0.01     0.01  -0.00   0.06
  34   1    -0.02   0.04  -0.01     0.00  -0.04   0.00     0.06  -0.02   0.03
  35   7    -0.02   0.11   0.04    -0.04  -0.09  -0.01     0.16  -0.09   0.16
  36   1     0.02   0.03   0.00    -0.01  -0.03  -0.02     0.06  -0.04   0.02
  37   1     0.01   0.01  -0.01     0.00  -0.02  -0.02     0.04  -0.01   0.05
  38   6    -0.19  -0.11   0.06     0.07   0.11   0.02    -0.02   0.10   0.07
  39   8    -0.34  -0.11   0.04     0.05   0.21   0.05    -0.14   0.25   0.10
  40   7    -0.15  -0.17   0.22     0.11   0.06  -0.05     0.08  -0.04   0.07
  41   1    -0.07  -0.06   0.08     0.03   0.03  -0.02    -0.00   0.01   0.04
  42   1    -0.01  -0.04   0.07     0.03  -0.00  -0.02     0.04  -0.02   0.02
  43   7    -0.10  -0.08   0.00     0.05   0.08   0.03     0.03   0.04   0.05
  44   1    -0.01  -0.02   0.01     0.02  -0.01   0.00     0.03  -0.03   0.01
  45   1    -0.04  -0.02  -0.01     0.02   0.02   0.01     0.00   0.02   0.03
  46   6     0.16   0.01   0.00    -0.03  -0.09  -0.11    -0.15   0.04  -0.14
  47   8     0.48  -0.03   0.02     0.01  -0.27  -0.24    -0.15   0.25  -0.04
  48   7     0.03   0.12  -0.16    -0.05  -0.06   0.02    -0.12   0.02  -0.30
  49   1     0.02   0.05  -0.06    -0.02  -0.03   0.01    -0.04   0.02  -0.08
  50   1    -0.06   0.05  -0.04    -0.04   0.03   0.03    -0.02  -0.02  -0.09
  51   7    -0.05  -0.08   0.18    -0.04   0.09  -0.16    -0.15  -0.14  -0.12
  52   1    -0.08  -0.02   0.03    -0.00   0.06  -0.02    -0.04  -0.08  -0.05
  53   1     0.02  -0.05   0.08     0.00   0.02  -0.09    -0.05  -0.03   0.01
                     22                     23                     24
                        a                      a                      a 
 Frequencies --   176.2872               179.0291               190.7177
 Red. masses --    10.6225                12.9044                12.5723
 Frc consts  --     0.0000                 0.0000                 0.0000
 IR Inten    --     4.8460                16.2926                 8.3857
 Raman Activ --     0.0000                 0.0000                 0.0000
 Depolar     --     0.0000                 0.0000                 0.0000
 Atom AN      X      Y      Z        X      Y      Z        X      Y      Z
   1   8     0.03  -0.21   0.21    -0.07   0.11  -0.10     0.14  -0.20  -0.06
   2   6    -0.09   0.09   0.11    -0.01  -0.04  -0.01     0.01   0.02   0.03
   3   1    -0.03   0.09   0.01     0.00  -0.03   0.01     0.03   0.05   0.01
   4   1    -0.10   0.02   0.06     0.03  -0.01  -0.01    -0.05   0.00   0.03
   5   6     0.15   0.09   0.02    -0.13  -0.08   0.03     0.00   0.00   0.02
   6   1     0.10   0.05   0.05    -0.06  -0.04  -0.01     0.00   0.00   0.01
   7   1     0.08  -0.00  -0.05    -0.05  -0.01   0.04     0.01  -0.01   0.01
   8   7     0.00   0.04  -0.02    -0.08  -0.07   0.01    -0.05  -0.02  -0.03
   9   6    -0.07  -0.05  -0.02    -0.07  -0.04   0.01    -0.07  -0.06  -0.03
  10   1    -0.05   0.01   0.03    -0.01  -0.02  -0.00    -0.04  -0.00   0.01
  11   1     0.02  -0.01  -0.03    -0.04  -0.01   0.01     0.00  -0.01  -0.02
  12   1    -0.04  -0.07  -0.01    -0.01   0.01   0.00    -0.03  -0.05  -0.01
  13   6    -0.01  -0.04  -0.01    -0.04   0.01   0.03    -0.05  -0.02  -0.02
  14   1     0.03   0.10  -0.00    -0.02  -0.04   0.01    -0.00   0.03  -0.01
  15   1    -0.09  -0.06  -0.08     0.03   0.02   0.04    -0.04  -0.02  -0.03
  16   1     0.04  -0.09   0.07    -0.04   0.04  -0.01    -0.00  -0.03   0.02
  17   6    -0.07   0.15  -0.07    -0.03  -0.11  -0.03    -0.06   0.00  -0.07
  18   1     0.10  -0.07  -0.06    -0.06   0.03   0.01     0.05  -0.05  -0.04
  19   1    -0.07   0.17  -0.14     0.01  -0.10   0.05    -0.05   0.06  -0.08
  20   1    -0.10   0.05   0.14     0.03  -0.04  -0.10    -0.05   0.01   0.06
  21   1    -0.01  -0.08   0.05    -0.02   0.04  -0.03     0.01  -0.05  -0.04
  22   6    -0.01   0.02   0.01     0.07   0.11   0.07     0.01   0.10   0.07
  23   8    -0.00   0.05  -0.03     0.32   0.19  -0.09     0.17   0.18  -0.07
  24   7    -0.06   0.03   0.06    -0.17   0.12   0.28    -0.17   0.11   0.26
  25   1    -0.01   0.02   0.01    -0.02   0.04   0.06    -0.05   0.04   0.08
  26   1    -0.01   0.01   0.02    -0.07   0.01   0.10    -0.07   0.00   0.09
  27   7    -0.00  -0.01  -0.00    -0.01   0.06   0.13    -0.01   0.01   0.09
  28   1    -0.01  -0.00   0.01    -0.04   0.02   0.05    -0.01   0.00   0.03
  29   1     0.01  -0.00  -0.01     0.07   0.04  -0.01     0.06   0.02  -0.03
  30   6     0.00  -0.02   0.12    -0.15  -0.13  -0.05     0.18   0.10   0.05
  31   8    -0.05   0.05   0.28    -0.17  -0.09   0.03     0.18   0.04  -0.02
  32   7     0.04  -0.16   0.12    -0.14  -0.19  -0.05     0.13   0.20   0.09
  33   1     0.02  -0.05   0.03    -0.03  -0.06  -0.01     0.02   0.07   0.03
  34   1     0.04  -0.07  -0.02    -0.02  -0.06  -0.04     0.03   0.07   0.05
  35   7     0.02  -0.03   0.04    -0.16  -0.14  -0.08     0.21   0.08   0.06
  36   1     0.02  -0.03  -0.02    -0.02  -0.05  -0.05     0.06   0.02   0.02
  37   1     0.01   0.00   0.00    -0.03  -0.04  -0.04     0.07   0.01   0.01
  38   6     0.05   0.01  -0.10     0.10   0.12   0.02    -0.09  -0.05   0.04
  39   8    -0.02  -0.19  -0.24     0.08   0.17   0.02    -0.07   0.03   0.10
  40   7     0.06   0.04   0.12     0.15   0.07  -0.03    -0.10  -0.07  -0.02
  41   1    -0.00  -0.03   0.05     0.04   0.03  -0.01    -0.03   0.00  -0.01
  42   1     0.04   0.06   0.06     0.04   0.02  -0.01    -0.03  -0.04  -0.01
  43   7     0.11   0.20  -0.18     0.10   0.12   0.01    -0.09  -0.15   0.07
  44   1     0.04   0.07  -0.04     0.03   0.01  -0.00    -0.03  -0.04   0.02
  45   1     0.03   0.05  -0.06     0.03   0.03   0.01    -0.03  -0.04   0.03
  46   6    -0.01  -0.01  -0.11     0.11  -0.05  -0.05    -0.07  -0.11  -0.12
  47   8     0.17   0.05  -0.06     0.33  -0.19  -0.11    -0.10  -0.29  -0.26
  48   7    -0.06   0.04  -0.26     0.02   0.04  -0.06    -0.07  -0.09   0.06
  49   1    -0.02   0.03  -0.07     0.01   0.01  -0.02    -0.02  -0.05   0.02
  50   1    -0.06   0.03  -0.07    -0.05   0.05   0.00    -0.02   0.01   0.04
  51   7    -0.15  -0.13   0.00    -0.03   0.01   0.04    -0.01   0.16  -0.24
  52   1    -0.08  -0.05  -0.02    -0.05   0.03   0.01     0.04   0.08  -0.04
  53   1    -0.02  -0.05   0.04     0.02  -0.02   0.00     0.00   0.04  -0.14
                     25                     26                     27
                        a                      a                      a 
 Frequencies --   193.5835               221.7643               248.2037
 Red. masses --    12.3341                12.3923                 5.7078
 Frc consts  --     0.0000                 0.0000                 0.0000
 IR Inten    --     1.8813               131.5940                 3.2888
 Raman Activ --     0.0000                 0.0000                 0.0000
 Depolar     --     0.0000                 0.0000                 0.0000
 Atom AN      X      Y      Z        X      Y      Z        X      Y      Z
   1   8     0.32  -0.43  -0.09    -0.03   0.04   0.04     0.14  -0.33   0.27
   2   6     0.05   0.07   0.04    -0.00  -0.01   0.00     0.06  -0.00   0.01
   3   1     0.06   0.12   0.01    -0.01  -0.01  -0.00     0.01   0.01  -0.00
   4   1    -0.10   0.02   0.05     0.01  -0.00  -0.00    -0.04  -0.01  -0.03
   5   6     0.05   0.08   0.03     0.02  -0.00  -0.00     0.16   0.13  -0.02
   6   1     0.02   0.03   0.01     0.01   0.00  -0.00     0.06   0.07   0.00
   7   1     0.02   0.01   0.00     0.01  -0.00  -0.00     0.07   0.01  -0.02
   8   7    -0.03   0.05  -0.04     0.02  -0.00   0.00    -0.03   0.09  -0.06
   9   6    -0.05  -0.04  -0.05     0.01  -0.00   0.00    -0.18  -0.03  -0.03
  10   1    -0.04   0.01   0.01     0.02  -0.02  -0.00     0.08  -0.18  -0.02
  11   1     0.02  -0.01  -0.04    -0.02  -0.01   0.00    -0.29  -0.07   0.03
  12   1    -0.03  -0.05  -0.02     0.01   0.02  -0.00    -0.00   0.20  -0.03
  13   6    -0.05   0.04  -0.07     0.02  -0.01   0.00    -0.03  -0.00  -0.02
  14   1    -0.01   0.08  -0.02     0.00  -0.01   0.00    -0.05  -0.18  -0.01
  15   1    -0.06  -0.02  -0.08     0.01  -0.00   0.01     0.08   0.06   0.14
  16   1     0.01  -0.03   0.02     0.00   0.00  -0.01    -0.05   0.09  -0.13
  17   6    -0.05   0.08  -0.06     0.02   0.01  -0.00    -0.05   0.13  -0.17
  18   1     0.10  -0.10  -0.06    -0.01   0.02   0.00    -0.22   0.29   0.03
  19   1    -0.07   0.13  -0.13     0.01  -0.01   0.01     0.09  -0.18   0.18
  20   1    -0.07   0.04   0.14     0.01  -0.00  -0.02     0.09   0.01  -0.38
  21   1     0.02  -0.10  -0.08     0.01  -0.01   0.03     0.04  -0.08   0.07
  22   6     0.00  -0.02  -0.03    -0.02   0.00   0.01    -0.01   0.01   0.00
  23   8    -0.04  -0.04   0.00    -0.01   0.02  -0.01    -0.03   0.01   0.01
  24   7     0.05  -0.02  -0.07    -0.06  -0.00   0.03     0.01   0.02   0.00
  25   1     0.01  -0.01  -0.02    -0.01   0.00   0.01    -0.00   0.01   0.01
  26   1     0.02   0.00  -0.02     0.01   0.01  -0.00     0.00   0.00   0.00
  27   7    -0.01  -0.01  -0.03    -0.01  -0.02   0.01     0.00   0.01  -0.01
  28   1     0.00  -0.00  -0.01     0.02  -0.01  -0.01     0.00   0.00  -0.00
  29   1    -0.02  -0.01   0.00     0.01  -0.00  -0.02    -0.00  -0.00  -0.00
  30   6    -0.13  -0.09  -0.09    -0.08  -0.07  -0.01     0.01   0.01   0.00
  31   8    -0.17  -0.13  -0.12    -0.43  -0.26  -0.16     0.02   0.01   0.01
  32   7    -0.09  -0.02  -0.14     0.04   0.37  -0.16     0.00  -0.02   0.01
  33   1    -0.05   0.00  -0.03    -0.03   0.14  -0.10    -0.00  -0.00   0.01
  34   1    -0.03   0.01  -0.00     0.07   0.15   0.00    -0.01  -0.00   0.00
  35   7    -0.10  -0.13  -0.02     0.20  -0.30   0.32    -0.00   0.01  -0.01
  36   1    -0.02  -0.02   0.00     0.14  -0.05   0.11    -0.00   0.00  -0.00
  37   1    -0.03  -0.04  -0.00     0.05  -0.15   0.10     0.00   0.01  -0.00
  38   6     0.02   0.13   0.12     0.06   0.01  -0.03    -0.01  -0.01  -0.00
  39   8    -0.03   0.38   0.21     0.02  -0.14  -0.11    -0.01  -0.01  -0.00
  40   7     0.09  -0.00  -0.05     0.08  -0.01   0.17    -0.01   0.01   0.01
  41   1     0.02   0.06  -0.01    -0.01  -0.03   0.07     0.00  -0.01  -0.00
  42   1     0.02  -0.04  -0.03     0.03   0.07   0.08     0.01  -0.02   0.00
  43   7     0.01  -0.04   0.14     0.08   0.15  -0.07    -0.01  -0.00   0.00
  44   1     0.01  -0.06   0.03     0.02   0.07  -0.01    -0.00   0.00   0.00
  45   1     0.00  -0.01   0.05     0.02   0.05  -0.05    -0.01   0.00   0.00
  46   6     0.05   0.05   0.08    -0.01   0.03  -0.01     0.00  -0.00  -0.00
  47   8     0.01   0.07   0.10    -0.08   0.03  -0.02     0.01  -0.01  -0.00
  48   7     0.05   0.03   0.07     0.01   0.00   0.04    -0.00   0.00  -0.00
  49   1     0.02   0.01   0.02    -0.01  -0.01   0.03     0.00  -0.00  -0.00
  50   1     0.02  -0.01   0.01     0.01   0.01   0.02     0.00  -0.00  -0.00
  51   7     0.07   0.01   0.08     0.05   0.10  -0.09    -0.01  -0.00   0.00
  52   1     0.02  -0.00   0.02     0.07   0.01  -0.02    -0.00  -0.00   0.00
  53   1     0.01   0.01   0.03     0.02   0.03  -0.05    -0.00  -0.00   0.00
                     28                     29                     30
                        a                      a                      a 
 Frequencies --   282.9360               287.6102               310.3997
 Red. masses --     6.6458                 3.4461                 7.7615
 Frc consts  --     0.0000                 0.0000                 0.0000
 IR Inten    --     0.2653                 1.1444                 2.4477
 Raman Activ --     0.0000                 0.0000                 0.0000
 Depolar     --     0.0000                 0.0000                 0.0000
 Atom AN      X      Y      Z        X      Y      Z        X      Y      Z
   1   8     0.02   0.03  -0.12     0.04   0.08   0.14    -0.20  -0.02  -0.35
   2   6    -0.18   0.36   0.09    -0.01   0.15   0.11    -0.26   0.03   0.06
   3   1    -0.03   0.30  -0.03     0.01   0.08   0.02    -0.04   0.09   0.01
   4   1    -0.18   0.10   0.20    -0.03   0.04   0.08    -0.12   0.01   0.10
   5   6     0.09  -0.04  -0.11    -0.04  -0.03   0.04    -0.05  -0.05   0.02
   6   1     0.08  -0.00   0.02    -0.03  -0.04   0.00     0.00  -0.04   0.04
   7   1     0.06  -0.04  -0.08    -0.02  -0.01   0.05    -0.03   0.02  -0.03
   8   7     0.04  -0.09  -0.06    -0.02  -0.05  -0.08     0.15  -0.01   0.05
   9   6    -0.08   0.28   0.02    -0.07   0.21  -0.04     0.21  -0.17   0.03
  10   1    -0.06   0.12  -0.01     0.07  -0.03  -0.08     0.25  -0.26  -0.06
  11   1     0.01   0.11   0.08    -0.16   0.04   0.10    -0.21  -0.13   0.03
  12   1    -0.05   0.09  -0.04     0.02   0.24  -0.04     0.17   0.20   0.04
  13   6     0.04  -0.33   0.05    -0.04  -0.12  -0.08     0.22  -0.15   0.20
  14   1     0.06   0.05   0.01    -0.11  -0.39  -0.02     0.10  -0.08   0.05
  15   1    -0.13  -0.16  -0.07     0.19   0.09   0.25     0.04  -0.04   0.11
  16   1     0.09  -0.22   0.11    -0.11   0.16  -0.28     0.06  -0.04   0.06
  17   6     0.15  -0.25   0.03     0.11  -0.20  -0.08    -0.05   0.29  -0.07
  18   1    -0.07   0.03   0.05     0.22  -0.28  -0.10     0.04   0.10  -0.03
  19   1     0.09  -0.21   0.13    -0.08   0.08  -0.23    -0.02   0.18  -0.06
  20   1     0.15  -0.07  -0.14    -0.01  -0.02   0.25    -0.13   0.06  -0.00
  21   1    -0.03  -0.08  -0.02     0.01   0.00   0.04    -0.10  -0.03  -0.12
  22   6    -0.01   0.00   0.00    -0.00  -0.01   0.01    -0.01   0.00   0.00
  23   8    -0.02  -0.00   0.01    -0.01  -0.01   0.01    -0.02   0.01   0.00
  24   7     0.00  -0.00  -0.00     0.00  -0.01  -0.00     0.01   0.02   0.01
  25   1    -0.00  -0.00   0.00    -0.00  -0.00  -0.00    -0.00   0.01   0.01
  26   1     0.00   0.00  -0.00     0.00   0.00  -0.00     0.00  -0.00   0.01
  27   7     0.00  -0.01  -0.00     0.01   0.01   0.01     0.00   0.01  -0.00
  28   1     0.00  -0.00  -0.00     0.00   0.00  -0.00     0.00   0.00  -0.00
  29   1    -0.01  -0.00  -0.00    -0.00   0.00   0.01     0.00   0.00   0.00
  30   6    -0.00   0.00   0.00     0.00   0.00  -0.00     0.00   0.00  -0.00
  31   8    -0.01   0.00  -0.00     0.00   0.00   0.00     0.00   0.00  -0.00
  32   7     0.00   0.01  -0.01     0.00  -0.00   0.00     0.00   0.00  -0.00
  33   1    -0.00   0.00   0.00     0.00  -0.00  -0.00     0.00  -0.00   0.00
  34   1    -0.02   0.01   0.02     0.00  -0.00  -0.00    -0.01   0.00   0.01
  35   7     0.01  -0.00   0.00    -0.00   0.00  -0.00     0.00   0.00  -0.00
  36   1     0.01  -0.00  -0.00    -0.00   0.00  -0.00     0.00  -0.00  -0.00
  37   1     0.00  -0.00  -0.00    -0.00   0.00  -0.00     0.00   0.00  -0.00
  38   6    -0.00   0.01   0.01     0.00  -0.01  -0.01     0.00   0.01   0.01
  39   8    -0.01   0.04   0.02     0.01  -0.02  -0.01    -0.00   0.03   0.02
  40   7     0.00  -0.00   0.00    -0.00   0.01  -0.01    -0.00   0.03   0.00
  41   1    -0.00   0.01   0.00     0.00  -0.00  -0.01     0.01  -0.02  -0.00
  42   1    -0.00   0.00   0.00     0.00  -0.01  -0.01     0.04  -0.07  -0.01
  43   7    -0.01  -0.01   0.02     0.01   0.01  -0.01    -0.00  -0.02   0.02
  44   1    -0.01  -0.00   0.00     0.00   0.00  -0.00    -0.01   0.00   0.00
  45   1    -0.00  -0.00   0.01    -0.00   0.01  -0.00    -0.01   0.00   0.01
  46   6    -0.00   0.00   0.00     0.00  -0.00  -0.00     0.00  -0.00  -0.00
  47   8    -0.00   0.00   0.00     0.00   0.00   0.00     0.00  -0.00  -0.00
  48   7     0.00  -0.00   0.00    -0.00   0.00  -0.00    -0.00   0.00   0.00
  49   1    -0.00   0.00   0.00     0.00  -0.00  -0.00     0.00  -0.00  -0.00
  50   1    -0.00   0.00   0.00     0.00  -0.00  -0.00     0.01  -0.01  -0.00
  51   7     0.00   0.00  -0.00    -0.00  -0.00   0.00     0.00   0.00  -0.00
  52   1     0.00  -0.00  -0.00    -0.00   0.00   0.00    -0.00   0.00   0.00
  53   1     0.00   0.00  -0.00    -0.00  -0.00   0.00    -0.00   0.00  -0.00
                     31                     32                     33
                        a                      a                      a 
 Frequencies --   321.1043               331.4784               347.9001
 Red. masses --     2.7443                 2.5034                 2.2552
 Frc consts  --     0.0000                 0.0000                 0.0000
 IR Inten    --   143.5750                 2.2670                43.2743
 Raman Activ --     0.0000                 0.0000                 0.0000
 Depolar     --     0.0000                 0.0000                 0.0000
 Atom AN      X      Y      Z        X      Y      Z        X      Y      Z
   1   8    -0.03  -0.00  -0.03    -0.05  -0.05  -0.11     0.00   0.00   0.00
   2   6    -0.04   0.01   0.01    -0.10   0.05   0.04    -0.00   0.00  -0.00
   3   1    -0.01   0.02   0.00    -0.01   0.05   0.02    -0.00   0.00  -0.00
   4   1    -0.02   0.00   0.01    -0.07   0.01   0.05    -0.00   0.00   0.00
   5   6     0.01   0.01  -0.00     0.03   0.02   0.00     0.00   0.00  -0.00
   6   1     0.01   0.00   0.01     0.04   0.01   0.04     0.00   0.00  -0.00
   7   1     0.00   0.01  -0.01     0.01   0.01  -0.04     0.00   0.00  -0.00
   8   7     0.02   0.01   0.00     0.05   0.02  -0.00     0.01   0.00   0.00
   9   6     0.02  -0.02   0.00     0.05  -0.03  -0.01    -0.00  -0.00   0.00
  10   1    -0.01   0.01   0.01    -0.23   0.27   0.09    -0.01   0.00   0.01
  11   1     0.03  -0.00  -0.01     0.40   0.08  -0.11     0.01   0.00  -0.00
  12   1    -0.00  -0.03   0.00    -0.11  -0.40   0.00    -0.01  -0.01  -0.00
  13   6     0.03  -0.03   0.04     0.07  -0.16   0.10     0.00  -0.00  -0.00
  14   1     0.00  -0.07   0.01    -0.04  -0.37   0.02    -0.00  -0.00  -0.00
  15   1     0.04   0.01   0.06     0.17   0.06   0.29     0.00   0.00   0.00
  16   1    -0.01   0.02  -0.03    -0.06   0.12  -0.18     0.00   0.00  -0.00
  17   6    -0.02   0.06  -0.01    -0.06   0.19  -0.07     0.01  -0.00   0.01
  18   1    -0.01   0.03   0.00    -0.06   0.14   0.00     0.00  -0.00   0.00
  19   1    -0.00   0.01   0.00     0.01   0.03   0.03     0.00  -0.00   0.00
  20   1    -0.01   0.01  -0.02    -0.04   0.03  -0.11     0.00   0.00   0.00
  21   1    -0.01  -0.03   0.00    -0.03  -0.03  -0.04     0.00   0.00   0.00
  22   6     0.00  -0.00  -0.00     0.01  -0.01   0.00     0.01   0.01  -0.01
  23   8    -0.00  -0.00   0.00     0.02  -0.01   0.00    -0.00   0.01  -0.00
  24   7    -0.00  -0.00  -0.00    -0.01  -0.02  -0.01    -0.00  -0.00  -0.01
  25   1     0.00  -0.00  -0.00    -0.00  -0.01  -0.00    -0.01  -0.00   0.00
  26   1    -0.00  -0.00  -0.00    -0.00  -0.00  -0.01     0.01   0.01  -0.01
  27   7    -0.00  -0.00   0.00    -0.00  -0.00   0.01    -0.05  -0.02   0.05
  28   1     0.01   0.00  -0.00    -0.00   0.00   0.00     0.09  -0.00  -0.06
  29   1     0.00   0.00  -0.00     0.00   0.00   0.00     0.07   0.02  -0.07
  30   6     0.01   0.01  -0.00    -0.01  -0.00   0.00    -0.04   0.02   0.04
  31   8     0.00   0.01   0.00    -0.01  -0.00  -0.00    -0.06   0.02   0.05
  32   7    -0.01   0.00   0.01     0.00   0.00  -0.01     0.04   0.01  -0.02
  33   1     0.02  -0.01  -0.01    -0.00   0.00   0.00     0.00   0.01  -0.01
  34   1     0.03  -0.01  -0.03    -0.01   0.01   0.01     0.02   0.00  -0.01
  35   7    -0.01   0.02  -0.02     0.01  -0.01   0.00     0.03  -0.01  -0.03
  36   1    -0.01   0.00  -0.00     0.00  -0.00   0.00    -0.07   0.04   0.07
  37   1    -0.00   0.01  -0.00     0.00  -0.00   0.00    -0.03   0.01   0.03
  38   6    -0.03   0.04   0.03     0.01   0.00  -0.00    -0.00   0.00  -0.00
  39   8     0.02   0.01   0.04    -0.01   0.01   0.00    -0.00   0.00  -0.01
  40   7     0.10  -0.32  -0.07    -0.01   0.04   0.01     0.01  -0.00   0.01
  41   1    -0.14   0.36   0.06     0.02  -0.05  -0.01    -0.00  -0.00   0.00
  42   1    -0.38   0.69   0.09     0.06  -0.10  -0.01     0.00   0.00   0.00
  43   7    -0.00   0.01  -0.03    -0.01  -0.00   0.02     0.01  -0.01  -0.00
  44   1     0.12  -0.20  -0.02    -0.02   0.03   0.00    -0.01   0.02  -0.00
  45   1     0.04  -0.05  -0.00    -0.00  -0.00   0.00    -0.01   0.01   0.00
  46   6     0.00  -0.00  -0.00    -0.00   0.00   0.00     0.07  -0.07  -0.06
  47   8     0.00  -0.00  -0.00    -0.00   0.00   0.00     0.03  -0.04  -0.04
  48   7    -0.00   0.00   0.00     0.00  -0.00  -0.00    -0.17   0.14   0.09
  49   1     0.00   0.00  -0.00    -0.00   0.00   0.00     0.10  -0.09  -0.04
  50   1     0.01  -0.00  -0.00    -0.01   0.01   0.00     0.56  -0.47  -0.25
  51   7    -0.01  -0.00   0.00     0.00   0.00  -0.00     0.04  -0.05   0.02
  52   1     0.00  -0.01  -0.00     0.00  -0.00  -0.00    -0.33   0.31   0.06
  53   1     0.00  -0.00   0.00     0.00  -0.00  -0.00    -0.14   0.10   0.00
                     34                     35                     36
                        a                      a                      a 
 Frequencies --   376.7874               378.5538               397.0155
 Red. masses --     6.1091                 3.0524                 3.7118
 Frc consts  --     0.0000                 0.0000                 0.0000
 IR Inten    --     2.3242                 5.6805               145.2510
 Raman Activ --     0.0000                 0.0000                 0.0000
 Depolar     --     0.0000                 0.0000                 0.0000
 Atom AN      X      Y      Z        X      Y      Z        X      Y      Z
   1   8     0.05  -0.06   0.09     0.02  -0.03   0.07     0.00   0.00  -0.01
   2   6     0.08  -0.14   0.11     0.05  -0.08   0.05    -0.01   0.01   0.00
   3   1     0.04  -0.11   0.08     0.02  -0.07   0.04    -0.00   0.01  -0.00
   4   1     0.07  -0.04  -0.05     0.04  -0.02  -0.03    -0.01   0.00   0.00
   5   6    -0.21  -0.02   0.20    -0.12  -0.01   0.11     0.02  -0.00  -0.01
   6   1    -0.13  -0.09   0.01    -0.08  -0.05  -0.01     0.01   0.00   0.00
   7   1    -0.11   0.04   0.14    -0.07   0.02   0.08     0.01  -0.01  -0.01
   8   7    -0.02   0.04   0.01    -0.02   0.02   0.01    -0.01  -0.01  -0.01
   9   6     0.19   0.30  -0.02     0.11   0.16  -0.01    -0.01  -0.01  -0.02
  10   1     0.04   0.14  -0.09     0.02   0.07  -0.05    -0.00  -0.00  -0.01
  11   1     0.12   0.11   0.04     0.07   0.06   0.02    -0.00  -0.00  -0.01
  12   1     0.08   0.09   0.02     0.05   0.05   0.01    -0.00  -0.00  -0.00
  13   6    -0.10  -0.21   0.01    -0.05  -0.12   0.02     0.02   0.02   0.01
  14   1     0.00   0.00   0.00     0.00   0.00   0.00     0.01   0.00   0.00
  15   1    -0.15  -0.11  -0.03    -0.08  -0.06  -0.02     0.02   0.01   0.01
  16   1     0.05  -0.16   0.04     0.02  -0.09   0.03    -0.01   0.02   0.01
  17   6     0.01   0.13  -0.34     0.00   0.07  -0.19    -0.03  -0.01   0.02
  18   1     0.06   0.13  -0.10     0.03   0.07  -0.06    -0.02  -0.01   0.01
  19   1    -0.03  -0.02  -0.12    -0.02  -0.01  -0.07    -0.00   0.00   0.01
  20   1    -0.01   0.02  -0.17    -0.01   0.01  -0.09    -0.01  -0.00   0.01
  21   1     0.00   0.01   0.00     0.00   0.04  -0.00     0.00  -0.02   0.01
  22   6     0.00  -0.00   0.00     0.01  -0.00   0.01     0.01   0.00   0.03
  23   8    -0.00  -0.01   0.01    -0.01   0.01   0.00    -0.01   0.02   0.01
  24   7     0.01  -0.01  -0.01    -0.05  -0.02   0.01    -0.05  -0.01   0.03
  25   1    -0.00  -0.01  -0.00     0.04  -0.00  -0.03     0.03   0.00  -0.02
  26   1    -0.02  -0.00  -0.00     0.04   0.02  -0.02     0.05   0.03  -0.03
  27   7    -0.00  -0.01   0.01     0.04  -0.00  -0.02     0.15   0.01  -0.13
  28   1     0.01  -0.00  -0.01    -0.04  -0.01   0.04    -0.27  -0.02   0.22
  29   1     0.00  -0.00  -0.00    -0.04  -0.01   0.03    -0.15  -0.04   0.14
  30   6    -0.00   0.00  -0.00     0.01  -0.02  -0.00     0.05  -0.03  -0.06
  31   8    -0.01  -0.01  -0.02     0.03   0.01   0.03     0.02  -0.03  -0.04
  32   7    -0.02   0.01   0.05     0.03  -0.01  -0.08    -0.07   0.05   0.08
  33   1     0.03  -0.01  -0.06    -0.06   0.03   0.09     0.02  -0.00  -0.04
  34   1     0.25  -0.09  -0.24    -0.39   0.15   0.40     0.22  -0.07  -0.21
  35   7     0.03  -0.01  -0.02    -0.07   0.02   0.04    -0.04   0.02   0.06
  36   1    -0.21   0.11   0.21     0.38  -0.20  -0.38     0.05  -0.02  -0.03
  37   1    -0.04   0.02   0.04     0.07  -0.03  -0.07     0.02  -0.02  -0.02
  38   6    -0.00  -0.00   0.01     0.02  -0.01  -0.01    -0.01   0.00   0.00
  39   8     0.00  -0.00   0.01     0.02  -0.02  -0.01    -0.00   0.01   0.00
  40   7    -0.00  -0.00  -0.00     0.00   0.01  -0.02    -0.00  -0.01   0.01
  41   1     0.00  -0.00  -0.00     0.01   0.01  -0.01    -0.01  -0.00   0.01
  42   1     0.00  -0.01  -0.00    -0.03   0.04  -0.00     0.01  -0.01   0.00
  43   7     0.00  -0.01   0.00     0.01   0.03  -0.01    -0.01  -0.01   0.00
  44   1     0.00  -0.00   0.00     0.03  -0.03  -0.00    -0.01   0.00   0.00
  45   1    -0.00   0.00  -0.00     0.01  -0.00  -0.00    -0.00  -0.00  -0.00
  46   6     0.01  -0.01  -0.00    -0.02   0.02   0.01    -0.09   0.06   0.04
  47   8     0.01  -0.01  -0.00    -0.03   0.02   0.01    -0.07   0.03   0.04
  48   7    -0.00   0.00  -0.00     0.01  -0.00   0.00     0.09  -0.09  -0.09
  49   1    -0.00  -0.00  -0.00    -0.00   0.00   0.00    -0.04   0.03  -0.00
  50   1    -0.01   0.01   0.00     0.02  -0.01  -0.01    -0.17   0.14   0.06
  51   7    -0.01   0.02  -0.00     0.05  -0.07   0.01     0.24  -0.17  -0.02
  52   1     0.04  -0.03  -0.01    -0.12   0.11   0.02    -0.41   0.51   0.12
  53   1     0.01  -0.00  -0.00    -0.04   0.02   0.00    -0.05   0.04  -0.09
                     37                     38                     39
                        a                      a                      a 
 Frequencies --   428.2243               431.9383               452.9791
 Red. masses --     8.6625                 3.5469                 2.2371
 Frc consts  --     0.0000                 0.0000                 0.0000
 IR Inten    --     5.9243               435.3962                 7.1800
 Raman Activ --     0.0000                 0.0000                 0.0000
 Depolar     --     0.0000                 0.0000                 0.0000
 Atom AN      X      Y      Z        X      Y      Z        X      Y      Z
   1   8     0.13  -0.04   0.23    -0.02   0.00  -0.01     0.01  -0.00   0.02
   2   6     0.07   0.13  -0.03    -0.00  -0.01  -0.01     0.01  -0.00   0.02
   3   1     0.02   0.05  -0.01    -0.00  -0.01  -0.00     0.00   0.00   0.01
   4   1    -0.00   0.04   0.01     0.00  -0.00   0.00     0.00  -0.00   0.01
   5   6    -0.16  -0.09  -0.06     0.02   0.01  -0.00    -0.02  -0.03   0.01
   6   1    -0.12  -0.11  -0.07     0.01   0.02  -0.00    -0.02  -0.03  -0.01
   7   1    -0.09  -0.01   0.11     0.01  -0.00  -0.02    -0.02   0.00   0.02
   8   7    -0.12  -0.11  -0.29    -0.02   0.01   0.04     0.04  -0.01  -0.04
   9   6     0.07   0.08  -0.33     0.02  -0.01   0.03    -0.04   0.03  -0.01
  10   1     0.02   0.04  -0.15     0.01  -0.01   0.00    -0.02   0.01   0.01
  11   1     0.05   0.04  -0.07     0.00  -0.01   0.00    -0.01   0.01   0.01
  12   1     0.05   0.03  -0.06     0.01  -0.00   0.02    -0.02   0.01  -0.02
  13   6     0.31   0.05   0.23    -0.05   0.00   0.00     0.05  -0.01  -0.04
  14   1     0.27   0.02   0.03    -0.03   0.00   0.00     0.02   0.00  -0.01
  15   1     0.10   0.03   0.12    -0.01  -0.00  -0.00     0.01  -0.00  -0.01
  16   1     0.01   0.05   0.21    -0.01  -0.00  -0.01     0.01  -0.00  -0.00
  17   6    -0.32  -0.04   0.13     0.02  -0.01  -0.03    -0.01   0.03   0.03
  18   1    -0.19  -0.04   0.06     0.02   0.00  -0.01    -0.02   0.01   0.01
  19   1    -0.02   0.07   0.11    -0.01  -0.02  -0.02     0.01   0.03   0.02
  20   1    -0.12  -0.02   0.07     0.01  -0.00  -0.01    -0.02   0.01   0.01
  21   1     0.05  -0.01   0.08    -0.00   0.03  -0.02     0.00  -0.00   0.01
  22   6     0.01   0.02   0.01    -0.00   0.02   0.01    -0.01  -0.06   0.04
  23   8     0.01   0.01   0.01     0.01   0.01   0.02    -0.11   0.05  -0.05
  24   7    -0.02  -0.00  -0.02     0.04   0.02  -0.05     0.16  -0.04  -0.08
  25   1     0.01  -0.01  -0.02    -0.14  -0.02   0.09    -0.21  -0.05   0.15
  26   1    -0.00   0.01  -0.02     0.06   0.01  -0.02     0.17   0.02  -0.04
  27   7     0.02  -0.02  -0.02    -0.01  -0.04  -0.00    -0.06  -0.06   0.09
  28   1    -0.01  -0.02   0.03    -0.12  -0.01   0.09    -0.47   0.11   0.18
  29   1    -0.05  -0.03   0.01     0.07   0.02  -0.03     0.62   0.23  -0.22
  30   6    -0.02   0.00   0.02    -0.13   0.05   0.11     0.01  -0.01  -0.02
  31   8    -0.00   0.01   0.01    -0.04   0.03   0.06     0.01  -0.00  -0.01
  32   7     0.02  -0.01  -0.02     0.16  -0.07  -0.19    -0.03   0.01   0.03
  33   1    -0.00   0.00   0.01    -0.00  -0.00   0.04    -0.00  -0.00  -0.01
  34   1    -0.04   0.02   0.04    -0.36   0.12   0.35     0.06  -0.02  -0.06
  35   7     0.02  -0.01  -0.02     0.17  -0.10  -0.14    -0.04   0.02   0.04
  36   1    -0.06   0.03   0.05    -0.40   0.20   0.40     0.09  -0.04  -0.08
  37   1    -0.01   0.00   0.00    -0.02   0.00   0.03     0.01  -0.01  -0.01
  38   6    -0.00  -0.01   0.02     0.02  -0.02  -0.02    -0.00   0.00   0.00
  39   8    -0.00  -0.02   0.01     0.02  -0.01  -0.01    -0.00  -0.00   0.00
  40   7    -0.01   0.01  -0.03    -0.00   0.02   0.01    -0.00  -0.00  -0.00
  41   1     0.02  -0.00  -0.02     0.01  -0.02  -0.01    -0.00   0.00  -0.00
  42   1    -0.02  -0.01  -0.02    -0.01   0.03   0.00     0.00  -0.00  -0.00
  43   7     0.02   0.03  -0.01    -0.02   0.05  -0.01     0.00  -0.00  -0.00
  44   1     0.03  -0.00   0.00     0.05  -0.10  -0.01    -0.00   0.00   0.00
  45   1     0.01   0.00  -0.02     0.02  -0.02   0.01    -0.00   0.00  -0.00
  46   6     0.01  -0.00  -0.01    -0.03   0.01   0.01    -0.01   0.03  -0.00
  47   8     0.01  -0.00  -0.01    -0.01   0.01   0.01    -0.00  -0.01  -0.02
  48   7    -0.01   0.01   0.01     0.04  -0.05  -0.07     0.01   0.01   0.02
  49   1     0.00  -0.00   0.00     0.00   0.00  -0.02     0.00  -0.00   0.01
  50   1     0.01  -0.01  -0.00    -0.15   0.12   0.05     0.01  -0.00   0.00
  51   7    -0.01   0.01   0.00     0.06  -0.05  -0.01     0.02  -0.01  -0.00
  52   1     0.02  -0.03  -0.01    -0.12   0.18   0.05     0.03  -0.07  -0.02
  53   1    -0.00   0.00   0.01     0.04  -0.02  -0.06    -0.08   0.05   0.06
                     40                     41                     42
                        a                      a                      a 
 Frequencies --   455.3154               458.8629               467.0976
 Red. masses --     8.0215                 4.1892                 8.1599
 Frc consts  --     0.0000                 0.0000                 0.0000
 IR Inten    --     5.9759                73.0630                 6.9053
 Raman Activ --     0.0000                 0.0000                 0.0000
 Depolar     --     0.0000                 0.0000                 0.0000
 Atom AN      X      Y      Z        X      Y      Z        X      Y      Z
   1   8    -0.03   0.01  -0.04    -0.03   0.01  -0.06     0.01  -0.01   0.03
   2   6     0.01  -0.15   0.17    -0.01  -0.07   0.07     0.00   0.03  -0.02
   3   1     0.01  -0.01   0.04    -0.00   0.00   0.01     0.01  -0.01   0.01
   4   1     0.02  -0.04   0.10     0.00  -0.02   0.05     0.00   0.01  -0.03
   5   6     0.02  -0.28   0.10     0.09  -0.10   0.02    -0.08   0.06   0.01
   6   1    -0.03  -0.16   0.02     0.06   0.00   0.03    -0.07  -0.04  -0.02
   7   1    -0.05  -0.02   0.07     0.05  -0.04  -0.04    -0.06   0.05   0.05
   8   7     0.28  -0.18  -0.09     0.03  -0.10   0.03     0.06   0.08  -0.04
   9   6    -0.27   0.19   0.08    -0.03   0.08   0.07    -0.06  -0.05  -0.02
  10   1    -0.13   0.09   0.09    -0.02   0.04  -0.01    -0.02  -0.03   0.04
  11   1    -0.09   0.08   0.16    -0.00   0.03   0.07    -0.03  -0.02  -0.03
  12   1    -0.18   0.10  -0.12    -0.02   0.04  -0.01    -0.04  -0.04  -0.03
  13   6     0.21   0.05  -0.33     0.01   0.08  -0.07     0.03  -0.09  -0.03
  14   1    -0.01   0.06  -0.08    -0.03   0.04  -0.01     0.01  -0.03  -0.01
  15   1     0.11   0.02  -0.16     0.05   0.03  -0.05    -0.04  -0.04   0.01
  16   1     0.04   0.04  -0.10    -0.02   0.05  -0.03     0.03  -0.05  -0.02
  17   6    -0.08   0.22   0.09    -0.06   0.03  -0.04     0.09   0.04   0.07
  18   1    -0.09   0.11   0.05    -0.01   0.04  -0.01     0.00  -0.02   0.02
  19   1     0.05   0.17   0.08    -0.01   0.03  -0.01     0.03   0.01   0.03
  20   1    -0.15   0.02   0.00    -0.05  -0.01  -0.03     0.04   0.02   0.04
  21   1    -0.03   0.01  -0.04    -0.02   0.00  -0.02     0.00   0.01   0.00
  22   6     0.01  -0.01  -0.02     0.02   0.07   0.06    -0.04  -0.18  -0.11
  23   8     0.02  -0.01  -0.01     0.02   0.05   0.08    -0.11  -0.16  -0.15
  24   7     0.00  -0.00   0.01    -0.12   0.01  -0.02     0.12  -0.05   0.31
  25   1     0.01   0.00  -0.00     0.05  -0.02  -0.06     0.17   0.15   0.02
  26   1    -0.04  -0.02   0.02     0.08   0.09  -0.09    -0.01  -0.10   0.16
  27   7    -0.05   0.02   0.04     0.23  -0.08  -0.20     0.06   0.28  -0.14
  28   1     0.15   0.00  -0.11    -0.40  -0.08   0.39    -0.25   0.17  -0.01
  29   1    -0.00   0.00  -0.02    -0.28  -0.12   0.18    -0.04   0.11   0.24
  30   6    -0.00   0.01  -0.00    -0.02  -0.00   0.02    -0.02   0.03  -0.01
  31   8    -0.01   0.01  -0.01    -0.01  -0.00   0.02    -0.03   0.03  -0.01
  32   7     0.00  -0.02  -0.00     0.03   0.02  -0.03    -0.01  -0.06  -0.02
  33   1     0.01  -0.01   0.00     0.00   0.01  -0.01     0.01  -0.03   0.03
  34   1    -0.04  -0.00   0.02    -0.03   0.03   0.04    -0.07  -0.02   0.02
  35   7     0.02  -0.00   0.00     0.01  -0.02  -0.04     0.05  -0.02   0.03
  36   1    -0.01   0.01   0.02    -0.07   0.02   0.05    -0.00   0.03   0.05
  37   1     0.00  -0.00   0.01     0.00   0.00  -0.01     0.00  -0.02   0.02
  38   6    -0.01   0.01   0.02     0.00   0.01  -0.02    -0.00  -0.02   0.06
  39   8    -0.02  -0.01   0.02     0.01   0.02  -0.02    -0.05  -0.04   0.04
  40   7    -0.01  -0.01  -0.03     0.02  -0.01   0.02    -0.04   0.01  -0.07
  41   1     0.02  -0.00  -0.02    -0.02   0.01   0.02     0.06  -0.02  -0.07
  42   1    -0.03   0.00  -0.01     0.01   0.02   0.02    -0.07  -0.00  -0.05
  43   7     0.03   0.00  -0.00    -0.01  -0.04   0.01     0.08   0.05  -0.01
  44   1     0.01   0.02   0.01    -0.05   0.05   0.00     0.06   0.01   0.01
  45   1    -0.00   0.01  -0.01    -0.01  -0.01   0.01     0.01   0.03  -0.03
  46   6    -0.01  -0.00   0.01     0.04  -0.01  -0.04    -0.04  -0.10   0.10
  47   8    -0.01   0.02   0.02     0.05  -0.06  -0.06     0.07  -0.04   0.16
  48   7     0.02  -0.02  -0.03    -0.07   0.08   0.07    -0.15  -0.02  -0.15
  49   1    -0.01   0.01  -0.00     0.02  -0.02   0.00     0.01   0.04  -0.09
  50   1    -0.06   0.04   0.02     0.16  -0.13  -0.06     0.01  -0.15  -0.13
  51   7     0.02  -0.01   0.00    -0.05   0.06  -0.01     0.06   0.18  -0.05
  52   1    -0.05   0.09   0.03     0.17  -0.27  -0.08     0.19   0.04   0.03
  53   1     0.05  -0.03  -0.05    -0.15   0.10   0.13     0.04   0.04  -0.15
                     43                     44                     45
                        a                      a                      a 
 Frequencies --   471.1173               475.1896               481.3623
 Red. masses --     8.5595                 7.9430                 8.3221
 Frc consts  --     0.0000                 0.0000                 0.0000
 IR Inten    --    31.0958                49.0876                27.8711
 Raman Activ --     0.0000                 0.0000                 0.0000
 Depolar     --     0.0000                 0.0000                 0.0000
 Atom AN      X      Y      Z        X      Y      Z        X      Y      Z
   1   8    -0.00  -0.00  -0.02     0.00   0.01  -0.06     0.01   0.01  -0.05
   2   6    -0.01   0.02  -0.04     0.00  -0.05   0.04     0.01  -0.03   0.02
   3   1     0.00   0.00  -0.01    -0.01   0.04  -0.02    -0.01   0.04  -0.02
   4   1    -0.01   0.01  -0.02    -0.01  -0.01   0.07    -0.01  -0.01   0.07
   5   6    -0.03   0.05  -0.01     0.18  -0.13  -0.05     0.15  -0.12  -0.05
   6   1    -0.03  -0.01  -0.02     0.14   0.08   0.04     0.11   0.06   0.03
   7   1    -0.02   0.02   0.02     0.12  -0.10  -0.12     0.10  -0.08  -0.10
   8   7     0.03   0.05   0.01    -0.14  -0.18   0.09    -0.10  -0.16   0.09
   9   6    -0.03  -0.06   0.02     0.15   0.13   0.06     0.13   0.11   0.07
  10   1    -0.01  -0.03   0.03     0.05   0.07  -0.09     0.03   0.06  -0.07
  11   1    -0.02  -0.03  -0.02     0.08   0.06   0.07     0.08   0.05   0.06
  12   1    -0.02  -0.03   0.00     0.09   0.07   0.06     0.07   0.05   0.05
  13   6    -0.02  -0.05  -0.02    -0.06   0.20   0.08    -0.05   0.17   0.06
  14   1    -0.02  -0.02  -0.00    -0.02   0.08   0.03    -0.02   0.07   0.02
  15   1    -0.03  -0.02   0.00     0.08   0.08  -0.02     0.07   0.07  -0.02
  16   1     0.01  -0.03  -0.02    -0.08   0.12   0.04    -0.06   0.10   0.03
  17   6     0.07   0.01   0.02    -0.19  -0.08  -0.16    -0.15  -0.06  -0.13
  18   1     0.02  -0.01   0.01    -0.00   0.04  -0.05     0.00   0.04  -0.04
  19   1     0.02  -0.01   0.01    -0.07  -0.02  -0.07    -0.06  -0.01  -0.06
  20   1     0.03   0.01   0.01    -0.09  -0.04  -0.08    -0.08  -0.03  -0.07
  21   1     0.01  -0.02   0.01     0.00  -0.03   0.00     0.01  -0.04   0.02
  22   6     0.03   0.09   0.06    -0.00   0.03   0.02    -0.04  -0.15  -0.07
  23   8     0.06   0.09   0.08    -0.00   0.01   0.04    -0.10  -0.10  -0.15
  24   7    -0.10   0.02  -0.13     0.01   0.01  -0.09     0.10  -0.07   0.23
  25   1    -0.04  -0.06  -0.04    -0.05  -0.04   0.00     0.07   0.10   0.05
  26   1     0.04   0.07  -0.10    -0.01   0.01  -0.03     0.02  -0.08   0.13
  27   7     0.02  -0.14   0.03    -0.03  -0.06   0.03    -0.03   0.22  -0.02
  28   1     0.03  -0.10   0.08     0.03  -0.02  -0.01    -0.01   0.14  -0.14
  29   1    -0.03  -0.07  -0.07     0.07   0.00  -0.08     0.03   0.11   0.13
  30   6    -0.02   0.07  -0.05    -0.01   0.07  -0.05    -0.00  -0.02   0.01
  31   8    -0.01   0.07  -0.05    -0.03   0.06  -0.07     0.01  -0.02   0.03
  32   7    -0.06  -0.08  -0.01    -0.06  -0.12   0.03     0.02   0.07  -0.02
  33   1    -0.01  -0.04   0.04     0.03  -0.07   0.05    -0.02   0.04  -0.02
  34   1    -0.02  -0.06  -0.06    -0.05  -0.08  -0.05     0.03   0.04   0.01
  35   7     0.08  -0.02   0.12     0.06   0.02   0.10    -0.01  -0.03  -0.01
  36   1     0.08   0.03   0.06     0.12  -0.00  -0.01    -0.04   0.00   0.02
  37   1     0.03  -0.08   0.04     0.01  -0.04   0.04     0.00  -0.00  -0.01
  38   6    -0.02  -0.07   0.26     0.00  -0.01   0.01    -0.00  -0.03   0.09
  39   8    -0.22  -0.17   0.18    -0.02  -0.00   0.01    -0.08  -0.06   0.07
  40   7    -0.16   0.04  -0.27    -0.01   0.01  -0.01    -0.06   0.02  -0.08
  41   1     0.21  -0.01  -0.27    -0.00   0.02  -0.01     0.08  -0.02  -0.10
  42   1    -0.27  -0.07  -0.19     0.00  -0.02  -0.01    -0.09  -0.03  -0.06
  43   7     0.32   0.21  -0.02     0.01   0.02  -0.00     0.10   0.09  -0.01
  44   1     0.24   0.04   0.05     0.03  -0.04  -0.00     0.11  -0.03   0.01
  45   1     0.05   0.10  -0.13    -0.01   0.01   0.00     0.01   0.04  -0.04
  46   6     0.01   0.01  -0.02    -0.05  -0.11   0.14     0.03   0.09  -0.11
  47   8    -0.00   0.00  -0.02     0.06  -0.02   0.23    -0.06   0.03  -0.19
  48   7     0.01   0.01   0.02    -0.15  -0.05  -0.21     0.13   0.04   0.16
  49   1    -0.00  -0.01   0.01    -0.00   0.07  -0.11    -0.00  -0.05   0.09
  50   1     0.01   0.01   0.01    -0.06  -0.12  -0.13     0.05   0.10   0.10
  51   7    -0.00  -0.01   0.00     0.08   0.20  -0.04    -0.06  -0.17   0.02
  52   1    -0.01  -0.03  -0.01     0.18   0.14   0.07    -0.16  -0.09  -0.05
  53   1    -0.03   0.02   0.03     0.12  -0.01  -0.23    -0.10   0.01   0.18
                     46                     47                     48
                        a                      a                      a 
 Frequencies --   487.9579               494.0340               499.9018
 Red. masses --     2.4972                 3.4003                 3.2467
 Frc consts  --     0.0000                 0.0000                 0.0000
 IR Inten    --   167.8182               106.3219                46.4018
 Raman Activ --     0.0000                 0.0000                 0.0000
 Depolar     --     0.0000                 0.0000                 0.0000
 Atom AN      X      Y      Z        X      Y      Z        X      Y      Z
   1   8     0.00   0.00   0.01     0.00   0.00   0.01    -0.00   0.01   0.00
   2   6     0.01   0.00  -0.01     0.00   0.00  -0.00     0.00   0.00  -0.01
   3   1    -0.00  -0.00  -0.00     0.00  -0.00   0.00    -0.00   0.01  -0.01
   4   1     0.00   0.00  -0.00     0.00   0.00  -0.00    -0.00   0.00   0.00
   5   6     0.01   0.00  -0.01    -0.01   0.01   0.00    -0.01  -0.01  -0.01
   6   1     0.00   0.00  -0.00    -0.01  -0.00  -0.00    -0.02  -0.01  -0.02
   7   1     0.00  -0.00  -0.01    -0.01   0.00   0.01    -0.01   0.01   0.01
   8   7    -0.02   0.00   0.01     0.00   0.01  -0.01     0.03   0.00   0.01
   9   6     0.03   0.01   0.00    -0.00  -0.00  -0.01    -0.02  -0.01   0.02
  10   1     0.02  -0.00  -0.01     0.00  -0.00   0.00    -0.01  -0.00   0.02
  11   1     0.01   0.00  -0.00    -0.00  -0.00  -0.00    -0.01  -0.00   0.01
  12   1     0.02   0.01   0.01    -0.00  -0.00  -0.00    -0.01  -0.01  -0.00
  13   6    -0.02   0.01   0.02     0.00  -0.01   0.00     0.00  -0.01  -0.02
  14   1    -0.00   0.00   0.00     0.00  -0.00  -0.00    -0.01  -0.00  -0.00
  15   1    -0.00   0.00   0.01    -0.00  -0.00   0.00     0.00  -0.00  -0.01
  16   1    -0.01   0.00   0.01     0.00  -0.00   0.00     0.00  -0.00  -0.01
  17   6    -0.01  -0.01  -0.02     0.00   0.00   0.00     0.01   0.02   0.02
  18   1     0.01  -0.00  -0.01    -0.00  -0.00   0.00    -0.00   0.01   0.01
  19   1    -0.01  -0.01  -0.01     0.00  -0.00   0.00     0.00   0.01   0.00
  20   1     0.00  -0.00  -0.01     0.00   0.00   0.00    -0.00   0.00  -0.00
  21   1     0.01  -0.03   0.02    -0.00   0.00   0.00     0.01  -0.03   0.03
  22   6    -0.00  -0.02  -0.00     0.02  -0.01  -0.02    -0.00  -0.00   0.00
  23   8    -0.01  -0.00  -0.02     0.02  -0.01  -0.03    -0.01   0.01  -0.00
  24   7     0.02  -0.01   0.01    -0.02  -0.01   0.01    -0.02  -0.01   0.02
  25   1    -0.02   0.00   0.02    -0.05   0.01   0.04     0.06   0.01  -0.04
  26   1     0.01  -0.01   0.01     0.07  -0.00   0.00    -0.01   0.01  -0.01
  27   7    -0.00   0.02   0.00    -0.06   0.03   0.05     0.03   0.00  -0.01
  28   1    -0.02   0.02  -0.00     0.17   0.00  -0.12    -0.04   0.00   0.03
  29   1     0.02   0.02   0.01    -0.03  -0.00  -0.01    -0.00   0.00   0.01
  30   6    -0.01   0.01   0.01    -0.02   0.05  -0.02    -0.01   0.03  -0.02
  31   8    -0.01   0.02   0.01    -0.02   0.05  -0.03    -0.01   0.02  -0.02
  32   7     0.00  -0.03  -0.02    -0.02  -0.08  -0.01    -0.01  -0.02  -0.00
  33   1     0.01  -0.02  -0.01     0.02  -0.04   0.03     0.00  -0.01   0.02
  34   1    -0.07   0.01   0.05    -0.06  -0.04  -0.01    -0.00  -0.02  -0.02
  35   7     0.02  -0.02   0.00     0.06  -0.00   0.05     0.03   0.00   0.03
  36   1    -0.02   0.02   0.04     0.02   0.03   0.05     0.03   0.01   0.01
[...]
  44   1     0.01   0.01  -0.01    -0.01  -0.01   0.02     0.00   0.00  -0.00
  45   1    -0.11  -0.10   0.01     0.11   0.10  -0.01    -0.00  -0.00   0.00
  46   6    -0.00  -0.00  -0.01    -0.00   0.00   0.00     0.00   0.01  -0.01
  47   8     0.00  -0.00  -0.00     0.00   0.00   0.00    -0.00  -0.01   0.01
  48   7    -0.11  -0.06  -0.14     0.02   0.01   0.03    -0.01  -0.01  -0.01
  49   1     0.39   0.18   0.60    -0.08  -0.03  -0.12     0.02   0.01   0.04
  50   1     0.01   0.05  -0.08    -0.00  -0.01   0.02     0.00   0.00  -0.00
  51   7     0.00  -0.00   0.01    -0.00   0.00  -0.00    -0.00  -0.00   0.00
  52   1    -0.00  -0.00   0.01     0.00   0.00  -0.00    -0.00  -0.00   0.01
  53   1     0.01   0.01   0.00    -0.00  -0.00  -0.00     0.01   0.01  -0.00
                    142                    143                    144
                        a                      a                      a 
 Frequencies --  3389.2761              3485.5236              3487.8691
 Red. masses --     1.8758                 1.4566                 1.4533
 Frc consts  --     0.0000                 0.0000                 0.0000
 IR Inten    --   306.9230                21.1739                17.0390
 Raman Activ --     0.0000                 0.0000                 0.0000
 Depolar     --     0.0000                 0.0000                 0.0000
 Atom AN      X      Y      Z        X      Y      Z        X      Y      Z
   1   8    -0.16   0.07   0.17    -0.00  -0.00  -0.00    -0.00   0.00   0.00
   2   6    -0.01  -0.00   0.00     0.00  -0.00   0.00     0.00  -0.00   0.00
   3   1     0.01  -0.01  -0.01     0.00  -0.00  -0.00     0.00  -0.00  -0.00
   4   1     0.00   0.00  -0.00     0.00   0.00  -0.00    -0.00   0.00  -0.00
   5   6    -0.00   0.00   0.00    -0.00  -0.00  -0.00    -0.00  -0.00  -0.00
   6   1     0.01  -0.00  -0.01    -0.00   0.00   0.00     0.00  -0.00  -0.00
   7   1    -0.00  -0.00   0.00     0.00   0.00   0.00     0.00   0.00   0.00
   8   7    -0.00   0.00   0.00    -0.00   0.00   0.00    -0.00  -0.00   0.00
   9   6    -0.00   0.00  -0.00    -0.00  -0.00  -0.00    -0.00  -0.00  -0.00
  10   1    -0.00   0.00  -0.00     0.00   0.00   0.00     0.00   0.00   0.00
  11   1     0.00  -0.00   0.00    -0.00  -0.00   0.00    -0.00  -0.00  -0.00
  12   1     0.00  -0.00  -0.00     0.00   0.00   0.00     0.00  -0.00  -0.00
  13   6     0.00   0.00   0.00    -0.00  -0.00  -0.00    -0.00  -0.00  -0.00
  14   1    -0.00   0.00  -0.00     0.00  -0.00   0.00    -0.00  -0.00  -0.00
  15   1     0.00  -0.00   0.00    -0.00  -0.00   0.00    -0.00  -0.00  -0.00
  16   1    -0.00   0.00  -0.00     0.00   0.00   0.00     0.00   0.00   0.00
  17   6    -0.00   0.00   0.00    -0.00   0.00  -0.00    -0.00   0.00  -0.00
  18   1    -0.00   0.00   0.00     0.00  -0.00   0.00    -0.00  -0.00   0.00
  19   1     0.00  -0.00  -0.00     0.00  -0.00  -0.00     0.00  -0.00  -0.00
  20   1     0.00  -0.00   0.00    -0.00   0.00   0.00    -0.00  -0.00  -0.00
  21   1     0.64  -0.29  -0.66     0.00   0.00   0.00     0.00  -0.00  -0.00
  22   6    -0.00   0.00  -0.00     0.00   0.00   0.00     0.00   0.00   0.00
  23   8     0.00   0.00   0.00    -0.00  -0.00  -0.00    -0.00  -0.00  -0.00
  24   7    -0.00   0.01   0.01     0.00  -0.00  -0.00    -0.00   0.01  -0.00
  25   1     0.01  -0.00   0.01    -0.00   0.00  -0.01     0.01  -0.00   0.02
  26   1     0.00  -0.03  -0.03    -0.00   0.01   0.01    -0.00  -0.02  -0.02
  27   7    -0.00  -0.00   0.00     0.01   0.00   0.01     0.14  -0.01   0.12
  28   1     0.00   0.00   0.00    -0.02  -0.04  -0.03    -0.25  -0.57  -0.34
  29   1     0.00  -0.00   0.00    -0.02   0.04  -0.01    -0.27   0.61  -0.12
  30   6     0.00   0.00  -0.00     0.00   0.00   0.00     0.00  -0.00   0.00
  31   8    -0.00  -0.00   0.00    -0.00  -0.00  -0.00    -0.00   0.00   0.00
  32   7    -0.02  -0.02  -0.00    -0.00   0.00  -0.00    -0.00   0.00  -0.00
  33   1     0.06   0.08   0.01     0.00   0.00   0.00     0.00   0.00   0.00
  34   1     0.00  -0.02   0.01     0.00  -0.00   0.00     0.00  -0.00   0.00
  35   7     0.00   0.00   0.00    -0.00  -0.00  -0.00     0.00   0.00   0.00
  36   1     0.00  -0.00   0.00    -0.00   0.00  -0.00     0.00  -0.00   0.00
  37   1    -0.00  -0.00  -0.00     0.01   0.00   0.01    -0.00  -0.00  -0.00
  38   6    -0.00  -0.01   0.01     0.00   0.00   0.00     0.00   0.00  -0.00
  39   8     0.00   0.00  -0.01    -0.00  -0.00  -0.00    -0.00  -0.00   0.00
  40   7    -0.00   0.00  -0.00     0.00   0.00   0.00    -0.00  -0.00   0.00
  41   1     0.01   0.00   0.02    -0.00  -0.00  -0.00     0.00   0.00   0.00
  42   1     0.00   0.00  -0.01    -0.00  -0.00   0.00     0.00   0.00  -0.00
  43   7    -0.01  -0.00  -0.00    -0.00  -0.00  -0.00    -0.00  -0.00  -0.00
  44   1    -0.00  -0.00   0.00    -0.00  -0.00   0.00    -0.00  -0.00   0.00
  45   1     0.03   0.02  -0.00     0.00   0.00   0.00     0.00   0.00  -0.00
  46   6     0.00  -0.00   0.00    -0.00   0.00   0.00    -0.00  -0.00  -0.00
  47   8     0.00   0.00   0.00     0.00   0.00  -0.00     0.00   0.00   0.00
  48   7     0.00   0.00   0.00    -0.00   0.00  -0.01     0.00   0.00   0.00
  49   1    -0.00  -0.00  -0.00     0.01   0.00   0.01    -0.00  -0.00  -0.00
  50   1     0.00  -0.00   0.00    -0.00  -0.01   0.02     0.00  -0.00   0.00
  51   7     0.00   0.00  -0.00     0.06   0.08   0.16    -0.00  -0.00  -0.01
  52   1     0.00   0.00  -0.00     0.17   0.29  -0.59    -0.01  -0.02   0.05
  53   1    -0.00  -0.00  -0.00    -0.40  -0.58   0.00     0.03   0.04  -0.00
                    145                    146                    147
                        a                      a                      a 
 Frequencies --  3492.0752              3516.6104              3528.0906
 Red. masses --     1.4528                 1.8794                 1.9548
 Frc consts  --     0.0000                 0.0000                 0.0000
 IR Inten    --    25.7125                 9.9089                19.4348
 Raman Activ --     0.0000                 0.0000                 0.0000
 Depolar     --     0.0000                 0.0000                 0.0000
 Atom AN      X      Y      Z        X      Y      Z        X      Y      Z
   1   8    -0.00   0.00   0.00     0.00  -0.00  -0.00     0.00  -0.00  -0.00
   2   6    -0.00   0.00  -0.00     0.00  -0.00  -0.00    -0.00  -0.00  -0.00
   3   1     0.00  -0.00  -0.00    -0.00   0.00   0.00     0.00  -0.00  -0.00
   4   1     0.00   0.00   0.00     0.00   0.00  -0.00    -0.00   0.00  -0.00
   5   6    -0.00   0.00   0.00    -0.00  -0.00   0.00    -0.00  -0.00  -0.00
   6   1     0.00  -0.00  -0.00     0.00  -0.00  -0.00    -0.00  -0.00   0.00
   7   1     0.00   0.00   0.00     0.00   0.00   0.00     0.00   0.00   0.00
   8   7    -0.00   0.00   0.00     0.00   0.00  -0.00    -0.00   0.00   0.00
   9   6    -0.00  -0.00   0.00     0.00  -0.00  -0.00    -0.00  -0.00   0.00
  10   1     0.00   0.00   0.00     0.00   0.00  -0.00     0.00   0.00  -0.00
  11   1    -0.00   0.00   0.00    -0.00   0.00  -0.00    -0.00  -0.00  -0.00
  12   1     0.00  -0.00  -0.00    -0.00   0.00   0.00     0.00  -0.00  -0.00
  13   6    -0.00  -0.00  -0.00     0.00  -0.00  -0.00    -0.00  -0.00  -0.00
  14   1    -0.00  -0.00  -0.00     0.00  -0.00  -0.00    -0.00  -0.00  -0.00
  15   1    -0.00  -0.00   0.00    -0.00   0.00  -0.00    -0.00   0.00  -0.00
  16   1     0.00   0.00   0.00     0.00  -0.00   0.00     0.00   0.00   0.00
  17   6    -0.00   0.00   0.00     0.00  -0.00  -0.00    -0.00  -0.00  -0.00
  18   1    -0.00   0.00  -0.00     0.00  -0.00  -0.00     0.00  -0.00   0.00
  19   1     0.00  -0.00  -0.00    -0.00  -0.00   0.00    -0.00  -0.00   0.00
  20   1    -0.00   0.00   0.00    -0.00   0.00  -0.00    -0.00   0.00  -0.00
  21   1     0.01  -0.01  -0.01    -0.00   0.00   0.00    -0.00   0.00   0.00
  22   6     0.00   0.00   0.00    -0.00   0.00   0.00    -0.01  -0.00  -0.01
  23   8    -0.00  -0.00  -0.00     0.00  -0.00  -0.00     0.00  -0.00   0.00
  24   7     0.00  -0.00   0.00    -0.00  -0.00  -0.00    -0.13   0.01  -0.23
  25   1    -0.00   0.00  -0.00     0.00  -0.00   0.00     0.52  -0.16   0.77
  26   1     0.00  -0.00  -0.00    -0.00   0.00   0.00    -0.02   0.13   0.11
  27   7     0.00  -0.00   0.00     0.00   0.00   0.00    -0.00   0.03   0.00
  28   1    -0.00  -0.00  -0.00    -0.00  -0.00  -0.00    -0.02  -0.03  -0.02
  29   1    -0.00   0.00  -0.00    -0.00   0.00  -0.00     0.03  -0.06   0.01
  30   6     0.00   0.00   0.00     0.00  -0.00   0.00     0.00   0.00   0.00
  31   8    -0.00  -0.00   0.00     0.00   0.00  -0.00    -0.00   0.00  -0.00
  32   7    -0.00  -0.00  -0.00    -0.00  -0.00   0.00    -0.00   0.01  -0.00
  33   1     0.01   0.01   0.00     0.00   0.00   0.00    -0.00  -0.00  -0.00
  34   1     0.00  -0.01   0.00    -0.00   0.01  -0.00     0.01  -0.02   0.02
  35   7    -0.00  -0.00   0.00     0.00   0.00  -0.00    -0.00  -0.00  -0.00
  36   1    -0.00   0.00  -0.00     0.00  -0.01   0.00    -0.00   0.00  -0.00
  37   1     0.00   0.00   0.00    -0.00  -0.00  -0.00     0.00   0.00   0.00
  38   6     0.00  -0.00  -0.00    -0.01  -0.00   0.00    -0.00  -0.00   0.00
  39   8    -0.00  -0.00   0.00     0.00   0.00  -0.00     0.00   0.00  -0.00
  40   7     0.17   0.07  -0.02    -0.01  -0.00  -0.02     0.00   0.00   0.00
  41   1    -0.42  -0.05  -0.56     0.05   0.01   0.07    -0.00  -0.00  -0.00
  42   1    -0.21  -0.20   0.62    -0.00  -0.00   0.00     0.00   0.00  -0.00
  43   7    -0.01  -0.01   0.01    -0.10  -0.07   0.23     0.00   0.00  -0.00
  44   1     0.02   0.01  -0.05     0.34   0.23  -0.87    -0.00  -0.00   0.00
  45   1     0.01   0.01   0.00     0.04   0.04   0.02    -0.00  -0.00   0.00
  46   6     0.00   0.00   0.00    -0.00  -0.00  -0.00     0.00   0.00  -0.00
  47   8    -0.00  -0.00  -0.00     0.00  -0.00   0.00    -0.00  -0.00   0.00
  48   7    -0.00  -0.00  -0.00     0.00   0.00  -0.00    -0.00  -0.00   0.00
  49   1     0.00   0.00   0.00    -0.00  -0.00  -0.00     0.00   0.00   0.00
  50   1     0.00   0.00  -0.00    -0.00  -0.01   0.01     0.00   0.01  -0.01
  51   7    -0.00  -0.00  -0.00     0.00   0.00   0.00     0.00  -0.00   0.00
  52   1    -0.00  -0.00   0.00     0.00   0.00   0.00     0.00   0.00  -0.01
  53   1     0.00   0.00  -0.00    -0.00  -0.00  -0.00    -0.00  -0.00   0.00
                    148                    149                    150
                        a                      a                      a 
 Frequencies --  3530.8867              3536.6170              3538.0091
 Red. masses --     1.9125                 1.9001                 1.9256
 Frc consts  --     0.0000                 0.0000                 0.0000
 IR Inten    --     2.7918                33.5269                11.3474
 Raman Activ --     0.0000                 0.0000                 0.0000
 Depolar     --     0.0000                 0.0000                 0.0000
 Atom AN      X      Y      Z        X      Y      Z        X      Y      Z
   1   8     0.00  -0.00  -0.00     0.00  -0.00  -0.00     0.00  -0.00  -0.00
   2   6    -0.00  -0.00  -0.00    -0.00  -0.00  -0.00     0.00   0.00   0.00
   3   1     0.00  -0.00  -0.00     0.00  -0.00  -0.00     0.00  -0.00  -0.00
   4   1    -0.00   0.00   0.00    -0.00   0.00   0.00    -0.00  -0.00   0.00
   5   6     0.00   0.00  -0.00     0.00  -0.00  -0.00     0.00   0.00  -0.00
   6   1    -0.00  -0.00   0.00    -0.00  -0.00  -0.00    -0.00   0.00   0.00
   7   1     0.00   0.00  -0.00     0.00   0.00  -0.00    -0.00  -0.00  -0.00
   8   7    -0.00   0.00   0.00    -0.00   0.00   0.00     0.00  -0.00   0.00
   9   6     0.00  -0.00  -0.00     0.00  -0.00  -0.00     0.00   0.00  -0.00
  10   1     0.00  -0.00   0.00     0.00   0.00   0.00    -0.00  -0.00   0.00
  11   1    -0.00   0.00   0.00    -0.00   0.00   0.00     0.00  -0.00  -0.00
  12   1    -0.00  -0.00   0.00    -0.00  -0.00   0.00     0.00   0.00   0.00
  13   6     0.00   0.00  -0.00     0.00   0.00  -0.00     0.00   0.00  -0.00
  14   1    -0.00   0.00   0.00     0.00   0.00   0.00     0.00   0.00   0.00
  15   1    -0.00   0.00   0.00    -0.00   0.00  -0.00     0.00  -0.00  -0.00
  16   1    -0.00  -0.00  -0.00     0.00   0.00  -0.00    -0.00  -0.00  -0.00
  17   6     0.00  -0.00  -0.00     0.00  -0.00  -0.00    -0.00   0.00  -0.00
  18   1    -0.00   0.00   0.00    -0.00   0.00   0.00     0.00   0.00   0.00
  19   1    -0.00   0.00   0.00    -0.00   0.00   0.00     0.00   0.00  -0.00
  20   1     0.00   0.00   0.00    -0.00   0.00   0.00     0.00  -0.00  -0.00
  21   1    -0.00   0.00   0.00    -0.00   0.00   0.00    -0.00   0.00   0.00
  22   6     0.00  -0.00   0.00     0.00   0.00   0.00     0.00   0.00   0.00
  23   8     0.00   0.00   0.00    -0.00  -0.00  -0.00     0.00  -0.00  -0.00
  24   7     0.00   0.00   0.01     0.00  -0.00   0.00     0.00  -0.00   0.00
  25   1    -0.01   0.00  -0.02    -0.01   0.00  -0.02    -0.00   0.00  -0.01
  26   1     0.00  -0.01  -0.01     0.00   0.00   0.00     0.00   0.00   0.00
  27   7     0.00  -0.00  -0.00    -0.00  -0.00  -0.00    -0.00   0.01   0.00
  28   1     0.00   0.00   0.00     0.00   0.00   0.00    -0.00  -0.01  -0.01
  29   1    -0.00   0.00  -0.00     0.00  -0.00   0.00     0.00  -0.01   0.00
  30   6     0.00   0.00   0.00    -0.00   0.01  -0.01    -0.00  -0.00   0.00
  31   8    -0.00  -0.00  -0.00     0.00  -0.00   0.00    -0.00   0.00  -0.00
  32   7    -0.03   0.17  -0.09    -0.03   0.15  -0.09    -0.00  -0.00   0.00
  33   1    -0.06  -0.06  -0.02    -0.05  -0.06  -0.01     0.00   0.00   0.00
  34   1     0.17  -0.57   0.37     0.16  -0.53   0.35    -0.00   0.01  -0.01
  35   7     0.04  -0.13   0.11    -0.04   0.14  -0.12    -0.00   0.01  -0.01
  36   1    -0.12   0.52  -0.39     0.13  -0.55   0.41     0.01  -0.03   0.02
  37   1    -0.04  -0.02  -0.03     0.04   0.02   0.03     0.00   0.00   0.00
  38   6     0.00   0.00  -0.00     0.00   0.00  -0.00     0.00   0.00   0.00
  39   8     0.00  -0.00   0.00    -0.00  -0.00   0.00    -0.00  -0.00  -0.00
  40   7    -0.00  -0.00   0.00    -0.00  -0.00   0.00    -0.00  -0.00  -0.00
  41   1     0.00   0.00   0.00    -0.00  -0.00  -0.00     0.00   0.00   0.00
  42   1     0.00   0.00  -0.01     0.00   0.00  -0.01    -0.00  -0.00   0.00
  43   7    -0.00  -0.00   0.00     0.00   0.00   0.00    -0.00  -0.00   0.00
  44   1     0.00   0.00  -0.01     0.00   0.00  -0.00     0.00   0.00  -0.01
  45   1    -0.00  -0.00   0.00    -0.00  -0.00   0.00     0.00   0.00   0.00
  46   6    -0.00  -0.00   0.00     0.00   0.00  -0.00     0.00   0.00   0.01
  47   8    -0.00   0.00  -0.00     0.00  -0.00   0.00    -0.00   0.00  -0.00
  48   7    -0.00  -0.00   0.01    -0.00   0.00  -0.00    -0.01  -0.13   0.21
  49   1    -0.00  -0.00  -0.00     0.00   0.00   0.00    -0.05  -0.03  -0.06
  50   1     0.00   0.02  -0.03    -0.00  -0.01   0.01     0.09   0.52  -0.76
  51   7     0.00   0.00  -0.00    -0.00  -0.01   0.00     0.04   0.06  -0.04
  52   1    -0.00  -0.00   0.01     0.00   0.01  -0.02    -0.04  -0.07   0.15
  53   1    -0.00  -0.01  -0.00     0.01   0.01   0.00    -0.11  -0.16  -0.01
                    151                    152                    153
                        a                      a                      a 
 Frequencies --  3547.8076              3551.2650              3556.1083
 Red. masses --     2.1487                 2.1754                 2.1818
 Frc consts  --     0.0000                 0.0000                 0.0000
 IR Inten    --    18.4099                10.7125                18.1742
 Raman Activ --     0.0000                 0.0000                 0.0000
 Depolar     --     0.0000                 0.0000                 0.0000
 Atom AN      X      Y      Z        X      Y      Z        X      Y      Z
   1   8    -0.00   0.00   0.00    -0.00  -0.00   0.00    -0.00   0.00   0.00
   2   6    -0.00   0.00   0.00     0.00   0.00   0.00     0.00   0.00  -0.00
   3   1     0.00  -0.00  -0.00     0.00  -0.00  -0.00    -0.00   0.00   0.00
   4   1    -0.00  -0.00   0.00     0.00  -0.00   0.00     0.00   0.00  -0.00
   5   6     0.00   0.00  -0.00     0.00   0.00   0.00    -0.00  -0.00   0.00
   6   1     0.00   0.00   0.00    -0.00   0.00   0.00     0.00  -0.00   0.00
   7   1    -0.00  -0.00   0.00    -0.00  -0.00  -0.00    -0.00   0.00   0.00
   8   7     0.00  -0.00   0.00     0.00   0.00   0.00    -0.00   0.00   0.00
   9   6    -0.00  -0.00  -0.00     0.00   0.00   0.00     0.00  -0.00  -0.00
  10   1    -0.00   0.00   0.00    -0.00  -0.00  -0.00     0.00   0.00  -0.00
  11   1    -0.00  -0.00  -0.00     0.00   0.00   0.00    -0.00   0.00  -0.00
  12   1     0.00   0.00  -0.00    -0.00   0.00   0.00    -0.00   0.00   0.00
  13   6     0.00  -0.00   0.00     0.00   0.00   0.00     0.00  -0.00   0.00
  14   1    -0.00  -0.00  -0.00     0.00   0.00   0.00     0.00  -0.00  -0.00
  15   1    -0.00   0.00  -0.00     0.00  -0.00   0.00    -0.00   0.00  -0.00
  16   1    -0.00  -0.00   0.00    -0.00  -0.00  -0.00    -0.00   0.00   0.00
  17   6    -0.00   0.00   0.00     0.00  -0.00   0.00     0.00  -0.00   0.00
  18   1    -0.00   0.00  -0.00     0.00   0.00   0.00    -0.00  -0.00  -0.00
  19   1     0.00   0.00  -0.00    -0.00   0.00   0.00     0.00  -0.00   0.00
  20   1    -0.00   0.00  -0.00     0.00  -0.00   0.00    -0.00   0.00   0.00
  21   1     0.00   0.00  -0.00     0.00  -0.00  -0.00     0.00  -0.00  -0.00
  22   6     0.00  -0.00  -0.00     0.00   0.01   0.00     0.00   0.00   0.00
  23   8     0.00   0.00   0.00    -0.00  -0.00  -0.00    -0.00  -0.00  -0.00
  24   7     0.00   0.00   0.00     0.01   0.00   0.02     0.00  -0.00   0.00
  25   1    -0.00   0.00  -0.00    -0.04   0.01  -0.06    -0.00   0.00  -0.00
  26   1     0.00  -0.00  -0.00     0.00  -0.02  -0.02     0.00  -0.00  -0.00
  27   7     0.00  -0.02  -0.00    -0.01   0.29   0.05     0.00  -0.00  -0.00
  28   1     0.01   0.02   0.01    -0.25  -0.51  -0.32     0.00   0.00   0.00
  29   1    -0.02   0.04  -0.01     0.29  -0.61   0.14    -0.00   0.00  -0.00
  30   6    -0.00  -0.00   0.00     0.00   0.00  -0.00     0.00  -0.00   0.00
  31   8    -0.00   0.00  -0.00    -0.00  -0.00   0.00     0.00   0.00  -0.00
  32   7     0.00  -0.00   0.00    -0.00   0.00  -0.00    -0.00  -0.00   0.00
  33   1     0.00   0.00   0.00     0.00   0.00  -0.00     0.01   0.01   0.00
  34   1    -0.00   0.01  -0.01     0.00  -0.00   0.00    -0.00   0.01  -0.01
  35   7     0.00  -0.00   0.00     0.00  -0.00   0.00     0.00  -0.00   0.00
  36   1    -0.00   0.01  -0.01    -0.00   0.00  -0.00    -0.00   0.00  -0.00
  37   1    -0.01  -0.00  -0.01    -0.00  -0.00  -0.00    -0.00  -0.00  -0.00
  38   6    -0.00   0.00  -0.00    -0.00  -0.00  -0.00     0.00  -0.00   0.01
  39   8    -0.00  -0.00  -0.00     0.00  -0.00   0.00    -0.00  -0.00  -0.00
  40   7    -0.00   0.00  -0.00     0.00  -0.00   0.00     0.05  -0.04   0.29
  41   1     0.00   0.00   0.00    -0.00  -0.00  -0.00    -0.42  -0.05  -0.51
  42   1    -0.00  -0.00   0.00     0.00   0.00  -0.00     0.24   0.21  -0.61
  43   7    -0.00  -0.00   0.00    -0.00  -0.00   0.00    -0.01  -0.00   0.01
  44   1     0.00   0.00  -0.00     0.00   0.00  -0.00     0.02   0.01  -0.06
  45   1     0.00   0.00   0.00     0.00   0.00  -0.00     0.00   0.00   0.00
  46   6    -0.01  -0.01   0.01    -0.00  -0.00  -0.00    -0.00  -0.00   0.00
  47   8     0.00   0.00  -0.00     0.00   0.00   0.00     0.00   0.00  -0.00
  48   7    -0.00  -0.04   0.06     0.00   0.00  -0.00     0.00  -0.00   0.00
  49   1    -0.02  -0.01  -0.02    -0.00   0.00  -0.00    -0.00  -0.00  -0.00
  50   1     0.03   0.15  -0.22    -0.00  -0.00   0.00     0.00   0.00  -0.00
  51   7    -0.13  -0.20   0.15    -0.01  -0.01   0.01    -0.00  -0.00   0.00
  52   1     0.16   0.26  -0.59     0.01   0.01  -0.03     0.00   0.00  -0.00
  53   1     0.35   0.52   0.02     0.02   0.03   0.00     0.00   0.00   0.00
