      -----------------------------------------------------------      
     |                   =====================                   |     
     |                           x T B                           |     
     |                   =====================                   |     
     |                         S. Grimme                         |     
     |          Mulliken Center for Theoretical Chemistry        |     
     |                    University of Bonn                     |     
      -----------------------------------------------------------      

   * xtb version 6.6.1 (unknown-commit) compiled by '@Linux' on 12/27/2023

   xtb is free software: you can redistribute it and/or modify it under
   the terms of the GNU Lesser General Public License as published by
   the Free Software Foundation, either version 3 of the License, or
   (at your option) any later version.
   
   xtb is distributed in the hope that it will be useful,
   but WITHOUT ANY WARRANTY; without even the implied warranty of
   MERCHANTABILITY or FITNESS FOR A PARTICULAR PURPOSE.  See the
   GNU Lesser General Public License for more details.
   
   Cite this work as:
   * C. Bannwarth, E. Caldeweyher, S. Ehlert, A. Hansen, P. Pracht,
     J. Seibert, S. Spicher, S. Grimme, WIREs Comput. Mol. Sci., 2020, 11,
     e01493. DOI: 10.1002/wcms.1493
   
   for GFN2-xTB:
   * C. Bannwarth, S. Ehlert and S. Grimme., J. Chem. Theory Comput., 2019,
     15, 1652-1671. DOI: 10.1021/acs.jctc.8b01176
   for GFN1-xTB:
   * S. Grimme, C. Bannwarth, P. Shushkov, J. Chem. Theory Comput., 2017,
     13, 1989-2009. DOI: 10.1021/acs.jctc.7b00118
   for GFN0-xTB:
   * P. Pracht, E. Caldeweyher, S. Ehlert, S. Grimme, ChemRxiv, 2019, preprint.
     DOI: 10.26434/chemrxiv.8326202.v1
   for GFN-FF:
   * S. Spicher and S. Grimme, Angew. Chem. Int. Ed., 2020, 59, 15665-15673.
     DOI: 10.1002/anie.202004239
   
   for ALPB and GBSA implicit solvation:
   * S. Ehlert, M. Stahn, S. Spicher, S. Grimme, J. Chem. Theory Comput.,
     2021, 17, 4250-4261. DOI: 10.1021/acs.jctc.1c00471
   
   for DFT-D4:
   * E. Caldeweyher, C. Bannwarth and S. Grimme, J. Chem. Phys., 2017,
     147, 034112. DOI: 10.1063/1.4993215
   * E. Caldeweyher, S. Ehlert, A. Hansen, H. Neugebauer, S. Spicher,
     C. Bannwarth and S. Grimme, J. Chem. Phys., 2019, 150, 154122.
     DOI: 10.1063/1.5090222
   * E. Caldeweyher, J.-M. Mewes, S. Ehlert and S. Grimme, Phys. Chem. Chem. Phys.
     2020, 22, 8499-8512. DOI: 10.1039/D0CP00502A
   
   for sTDA-xTB:
   * S. Grimme and C. Bannwarth, J. Chem. Phys., 2016, 145, 054103.
     DOI: 10.1063/1.4959605
   
   in the mass-spec context:
   * V. Asgeirsson, C. Bauer and S. Grimme, Chem. Sci., 2017, 8, 4879.
     DOI: 10.1039/c7sc00601b
   * J. Koopman and S. Grimme, ACS Omega 2019, 4, 12, 15120-15133.
     DOI: 10.1021/acsomega.9b02011
   
   for metadynamics refer to:
   * S. Grimme, J. Chem. Theory Comput., 2019, 155, 2847-2862
     DOI: 10.1021/acs.jctc.9b00143
   
   for SPH calculations refer to:
   * S. Spicher and S. Grimme, J. Chem. Theory Comput., 2021, 17, 1701-1714
     DOI: 10.1021/acs.jctc.0c01306
   
   with help from (in alphabetical order)
   P. Atkinson, C. Bannwarth, F. Bohle, G. Brandenburg, E. Caldeweyher
   M. Checinski, S. Dohm, S. Ehlert, S. Ehrlich, I. Gerasimov, C. Hölzer
   A. Katbashev, J. Koopman, C. Lavigne, S. Lehtola, F. März, M. Müller,
   F. Musil, H. Neugebauer, J. Pisarek, C. Plett, P. Pracht, F. Pultar,
   J. Seibert, P. Shushkov, S. Spicher, M. Stahn, M. Steiner, T. Strunk,
   J. Stückrath, T. Rose, and J. Unsleber
   
 * started run on 2024/01/10 at 15:35:41.835     

           -------------------------------------------------
          |                Calculation Setup                |
           -------------------------------------------------

          program call               : xtb struc.xyz --gfn2 --hess
          hostname                   : swaroop
          coordinate file            : struc.xyz
          omp threads                :                     1

   ID    Z sym.   atoms
    1    8 O      1, 23, 31, 39, 47
    2    6 C      2, 5, 9, 13, 17, 22, 30, 38, 46
    3    1 H      3, 4, 6, 7, 10-12, 14-16, 18-21, 25, 26, 28, 29, 33, 34,
                  36, 37, 41, 42, 44, 45, 49, 50, 52, 53
    4    7 N      8, 24, 27, 32, 35, 40, 43, 48, 51

molecular fragmentation (1/2 indicates fragments):
11111111111111111111122222222222222222222222222222222
# atoms in fragment 1/2:    21    32
 fragment masses (1/2) :      104.17      240.22
CMA distance (Bohr)    :   7.952
constraining FC (au)   :  0.0500

           -------------------------------------------------
          |                 G F N 2 - x T B                 |
           -------------------------------------------------

        Reference                      10.1021/acs.jctc.8b01176
      * Hamiltonian:
        H0-scaling (s, p, d)           1.850000    2.230000    2.230000
        zeta-weighting                 0.500000
      * Dispersion:
        s8                             2.700000
        a1                             0.520000
        a2                             5.000000
        s9                             5.000000
      * Repulsion:
        kExp                           1.500000    1.000000
        rExp                           1.000000
      * Coulomb:
        alpha                          2.000000
        third order                    shell-resolved
        anisotropic                    true
        a3                             3.000000
        a5                             4.000000
        cn-shift                       1.200000
        cn-exp                         4.000000
        max-rad                        5.000000


          ...................................................
          :                      SETUP                      :
          :.................................................:
          :  # basis functions                 122          :
          :  # atomic orbitals                 122          :
          :  # shells                           76          :
          :  # electrons                       140          :
          :  max. iterations                   250          :
          :  Hamiltonian                  GFN2-xTB          :
          :  restarted?                      false          :
          :  GBSA solvation                  false          :
          :  PC potential                    false          :
          :  electronic temp.          300.0000000     K    :
          :  accuracy                    1.0000000          :
          :  -> integral cutoff          0.2500000E+02      :
          :  -> integral neglect         0.1000000E-07      :
          :  -> SCF convergence          0.1000000E-05 Eh   :
          :  -> wf. convergence          0.1000000E-03 e    :
          :  Broyden damping             0.4000000          :
          ...................................................

 iter      E             dE          RMSdq      gap      omega  full diag
   1    -81.5583577 -0.815584E+02  0.427E+00    5.05       0.0  T
   2    -81.8354284 -0.277071E+00  0.234E+00    5.89       1.0  T
   3    -81.8410001 -0.557167E-02  0.114E+00    5.57       1.0  T
   4    -81.8423622 -0.136205E-02  0.241E-01    5.60       1.0  T
   5    -81.8432884 -0.926272E-03  0.917E-02    5.53       1.0  T
   6    -81.8433128 -0.243901E-04  0.262E-02    5.56       1.0  T
   7    -81.8433168 -0.402397E-05  0.751E-03    5.56       1.8  T
   8    -81.8433171 -0.279869E-06  0.264E-03    5.55       5.2  T
   9    -81.8433171 -0.160308E-07  0.906E-04    5.55      15.2  T
  10    -81.8433171 -0.645895E-08  0.185E-04    5.55      74.1  T

   *** convergence criteria satisfied after 10 iterations ***

         #    Occupation            Energy/Eh            Energy/eV
      -------------------------------------------------------------
         1        2.0000           -0.8127860             -22.1170
       ...           ...                  ...                  ...
        64        2.0000           -0.5043145             -13.7231
        65        2.0000           -0.5029397             -13.6857
        66        2.0000           -0.5008866             -13.6298
        67        2.0000           -0.4984314             -13.5630
        68        2.0000           -0.4951140             -13.4727
        69        2.0000           -0.4933417             -13.4245
        70        2.0000           -0.4913758             -13.3710 (HOMO)
        71                         -0.2873284              -7.8186 (LUMO)
        72                         -0.2727725              -7.4225
        73                         -0.2712680              -7.3816
        74                         -0.2676742              -7.2838
        75                         -0.1675198              -4.5584
       ...                                ...                  ...
       122                          0.5489291              14.9371
      -------------------------------------------------------------
                  HL-Gap            0.2040475 Eh            5.5524 eV
             Fermi-level           -0.3893521 Eh          -10.5948 eV

 SCC (total)                   0 d,  0 h,  0 min,  0.085 sec
 SCC setup                      ...        0 min,  0.000 sec (  0.336%)
 Dispersion                     ...        0 min,  0.001 sec (  0.692%)
 classical contributions        ...        0 min,  0.000 sec (  0.220%)
 integral evaluation            ...        0 min,  0.008 sec (  9.690%)
 iterations                     ...        0 min,  0.047 sec ( 55.488%)
 molecular gradient             ...        0 min,  0.028 sec ( 33.249%)
 printout                       ...        0 min,  0.000 sec (  0.311%)

         :::::::::::::::::::::::::::::::::::::::::::::::::::::
         ::                     SUMMARY                     ::
         :::::::::::::::::::::::::::::::::::::::::::::::::::::
         :: total energy             -80.935340497459 Eh    ::
         :: gradient norm              0.000092591340 Eh/a0 ::
         :: HOMO-LUMO gap              5.552414441792 eV    ::
         ::.................................................::
         :: SCC energy               -81.843317140406 Eh    ::
         :: -> isotropic ES            0.297505901565 Eh    ::
         :: -> anisotropic ES         -0.028573351295 Eh    ::
         :: -> anisotropic XC          0.020502565176 Eh    ::
         :: -> dispersion             -0.047183038820 Eh    ::
         :: repulsion energy           0.905974411513 Eh    ::
         :: add. restraining           0.000000000000 Eh    ::
         :: total charge               1.000000000000 e     ::
         :::::::::::::::::::::::::::::::::::::::::::::::::::::

           ------------------------------------------------- 
          |                Numerical Hessian                |
           ------------------------------------------------- 
step length          :   0.00500
SCC accuracy         :   0.30000
Hessian scale factor :   1.00000
frozen atoms in %    :   0.00000    0
RMS gradient         :   0.00009
estimated CPU  time      0.24 min
estimated wall time      0.24 min

writing file <hessian>.

 projected vibrational frequencies (cm⁻¹)
eigval :       -0.00    -0.00     0.00     0.00     0.00     0.00
eigval :       10.47    23.16    27.28    33.52    35.98    42.51
eigval :       43.44    49.94    54.57    58.80    62.85    69.53
eigval :       77.75    85.43    92.19    97.68   112.84   123.66
eigval :      137.57   147.03   159.65   176.29   179.03   190.72
eigval :      193.58   221.76   248.20   282.94   287.61   310.40
eigval :      321.10   331.48   347.90   376.79   378.55   397.02
eigval :      428.22   431.94   452.98   455.32   458.86   467.10
eigval :      471.12   475.19   481.36   487.96   494.03   499.90
eigval :      510.01   516.81   541.45   546.84   557.89   559.54
eigval :      575.97   579.64   637.68   666.21   671.16   676.02
eigval :      677.66   696.43   723.66   762.04   775.09   812.59
eigval :      905.43   920.98   972.18   975.64   983.28   986.91
eigval :      994.43  1007.32  1011.49  1017.45  1019.77  1027.26
eigval :     1029.82  1033.09  1037.24  1084.65  1085.98  1091.78
eigval :     1098.97  1102.17  1103.58  1124.06  1158.97  1218.82
eigval :     1243.71  1269.40  1313.84  1323.12  1347.02  1354.96
eigval :     1356.92  1359.81  1375.77  1396.00  1403.42  1413.43
eigval :     1419.60  1435.74  1440.82  1446.83  1452.81  1454.44
eigval :     1456.92  1459.76  1464.52  1465.02  1467.56  1480.05
eigval :     1481.42  1499.65  1504.34  1513.18  1527.81  1639.73
eigval :     1678.28  1697.50  1716.52  2892.28  2980.89  2982.72
eigval :     3015.37  3019.34  3038.88  3041.77  3042.73  3045.46
eigval :     3047.29  3049.46  3055.00  3063.36  3099.16  3152.55
eigval :     3214.80  3294.50  3376.82  3389.28  3485.52  3487.87
eigval :     3492.08  3516.61  3528.09  3530.89  3536.62  3538.01
eigval :     3547.81  3551.27  3556.11
           -------------------------------------------------
          |                Property Printout                |
           -------------------------------------------------

    * Orbital Energies and Occupations

         #    Occupation            Energy/Eh            Energy/eV
      -------------------------------------------------------------
         1        2.0000           -0.8127852             -22.1170
       ...           ...                  ...                  ...
        58        2.0000           -0.5194550             -14.1351
        59        2.0000           -0.5187419             -14.1157
        60        2.0000           -0.5099512             -13.8765
        61        2.0000           -0.5090560             -13.8521
        62        2.0000           -0.5083150             -13.8320
        63        2.0000           -0.5057686             -13.7627
        64        2.0000           -0.5043148             -13.7231
        65        2.0000           -0.5029412             -13.6857
        66        2.0000           -0.5008886             -13.6299
        67        2.0000           -0.4984326             -13.5630
        68        2.0000           -0.4951155             -13.4728
        69        2.0000           -0.4933439             -13.4246
        70        2.0000           -0.4913780             -13.3711 (HOMO)
        71                         -0.2873286              -7.8186 (LUMO)
        72                         -0.2727751              -7.4226
        73                         -0.2712676              -7.3816
        74                         -0.2676784              -7.2839
        75                         -0.1675190              -4.5584
        76                         -0.1126409              -3.0651
        77                         -0.1010327              -2.7492
        78                         -0.0942008              -2.5633
        79                         -0.0905388              -2.4637
        80                         -0.0830709              -2.2605
        81                         -0.0730481              -1.9877
       ...                                ...                  ...
       122                          0.5489275              14.9371
      -------------------------------------------------------------
                  HL-Gap            0.2040494 Eh            5.5525 eV
             Fermi-level           -0.3893533 Eh          -10.5948 eV

     #   Z          covCN         q      C6AA      α(0)
     1   8 O        1.655    -0.453    21.899     6.317
     2   6 C        3.673     0.070    19.628     6.349
     3   1 H        0.924     0.060     2.204     2.322
     4   1 H        0.923     0.048     2.342     2.393
     5   6 C        3.768    -0.076    21.984     6.682
     6   1 H        0.924     0.110     1.693     2.035
     7   1 H        0.924     0.115     1.654     2.011
     8   7 N        3.623     0.155    18.619     6.409
     9   6 C        3.735    -0.113    22.744     6.806
    10   1 H        0.924     0.131     1.531     1.935
    11   1 H        0.925     0.084     1.940     2.178
    12   1 H        0.925     0.091     1.866     2.136
    13   6 C        3.725    -0.108    22.667     6.798
    14   1 H        0.925     0.094     1.843     2.123
    15   1 H        0.925     0.087     1.906     2.159
    16   1 H        0.925     0.128     1.553     1.949
    17   6 C        3.719    -0.099    22.522     6.779
    18   1 H        0.925     0.120     1.614     1.986
    19   1 H        0.925     0.092     1.862     2.134
    20   1 H        0.925     0.081     1.965     2.192
    21   1 H        0.804     0.329     0.640     1.257
    22   6 C        2.675     0.345    21.137     7.523
    23   8 O        0.860    -0.535    24.578     6.647
    24   7 N        2.646    -0.302    27.781     7.828
    25   1 H        0.860     0.189     1.166     1.692
    26   1 H        0.860     0.225     0.986     1.556
    27   7 N        2.646    -0.298    27.691     7.815
    28   1 H        0.860     0.189     1.163     1.689
    29   1 H        0.860     0.194     1.139     1.671
    30   6 C        2.675     0.338    21.261     7.545
    31   8 O        0.860    -0.542    24.733     6.668
    32   7 N        2.645    -0.313    28.055     7.867
    33   1 H        0.860     0.233     0.953     1.529
    34   1 H        0.861     0.179     1.220     1.730
    35   7 N        2.644    -0.307    27.910     7.846
    36   1 H        0.861     0.180     1.216     1.727
    37   1 H        0.859     0.247     0.896     1.483
    38   6 C        2.675     0.341    21.200     7.534
    39   8 O        0.861    -0.532    24.508     6.637
    40   7 N        2.644    -0.290    27.471     7.784
    41   1 H        0.860     0.206     1.075     1.624
    42   1 H        0.860     0.186     1.178     1.700
    43   7 N        2.642    -0.323    28.325     7.904
    44   1 H        0.860     0.175     1.240     1.744
    45   1 H        0.859     0.245     0.905     1.490
    46   6 C        2.675     0.341    21.200     7.534
    47   8 O        0.860    -0.521    24.257     6.603
    48   7 N        2.643    -0.305    27.861     7.839
    49   1 H        0.859     0.243     0.912     1.496
    50   1 H        0.861     0.177     1.233     1.739
    51   7 N        2.644    -0.296    27.622     7.806
    52   1 H        0.860     0.183     1.199     1.715
    53   1 H        0.860     0.202     1.095     1.639

 Mol. C6AA /au·bohr⁶  :      21794.583703
 Mol. C8AA /au·bohr⁸  :     454460.122388
 Mol. α(0) /au        :        220.557605


Wiberg/Mayer (AO) data.
largest (>0.10) Wiberg bond orders for each atom

 ---------------------------------------------------------------------------
     #   Z sym  total        # sym  WBO       # sym  WBO       # sym  WBO
 ---------------------------------------------------------------------------
     1   8 O    1.962 --     2 C    1.021    21 H    0.851
     2   6 C    3.965 --     1 O    1.021     5 C    0.995     3 H    0.965
                             4 H    0.960
     3   1 H    0.996 --     2 C    0.965
     4   1 H    0.997 --     2 C    0.960
     5   6 C    3.920 --     2 C    0.995     6 H    0.951     7 H    0.947
                             8 N    0.927
     6   1 H    0.988 --     5 C    0.951
     7   1 H    0.987 --     5 C    0.947
     8   7 N    3.821 --    17 C    0.961    13 C    0.959     9 C    0.956
                             5 C    0.927
     9   6 C    3.923 --    11 H    0.978    12 H    0.976     8 N    0.956
                            10 H    0.954
    10   1 H    0.983 --     9 C    0.954
    11   1 H    0.993 --     9 C    0.978
    12   1 H    0.992 --     9 C    0.976
    13   6 C    3.925 --    15 H    0.977    14 H    0.973    16 H    0.965
                             8 N    0.959
    14   1 H    0.991 --    13 C    0.973
    15   1 H    0.992 --    13 C    0.977
    16   1 H    0.984 --    13 C    0.965
    17   6 C    3.930 --    20 H    0.978    19 H    0.976    18 H    0.966
                             8 N    0.961
    18   1 H    0.986 --    17 C    0.966
    19   1 H    0.992 --    17 C    0.976
    20   1 H    0.993 --    17 C    0.978
    21   1 H    0.892 --     1 O    0.851
    22   6 C    3.958 --    23 O    1.521    24 N    1.233    27 N    1.194
    23   8 O    1.886 --    22 C    1.521    24 N    0.143    27 N    0.134
    24   7 N    3.324 --    22 C    1.233    25 H    0.945    26 H    0.900
                            23 O    0.143
    25   1 H    0.964 --    24 N    0.945
    26   1 H    0.949 --    24 N    0.900
    27   7 N    3.302 --    22 C    1.194    28 H    0.945    29 H    0.945
                            23 O    0.134
    28   1 H    0.964 --    27 N    0.945
    29   1 H    0.962 --    27 N    0.945
    30   6 C    3.960 --    31 O    1.445    35 N    1.269    32 N    1.238
    31   8 O    1.916 --    30 C    1.445    35 N    0.135    32 N    0.129
    32   7 N    3.328 --    30 C    1.238    34 H    0.948    33 H    0.883
                            31 O    0.129
    33   1 H    0.945 --    32 N    0.883
    34   1 H    0.968 --    32 N    0.948
    35   7 N    3.351 --    30 C    1.269    36 H    0.948    37 H    0.862
                            31 O    0.135
    36   1 H    0.967 --    35 N    0.948
    37   1 H    0.939 --    35 N    0.862
    38   6 C    3.959 --    39 O    1.488    43 N    1.238    40 N    1.218
    39   8 O    1.904 --    38 C    1.488    43 N    0.139    40 N    0.134
    40   7 N    3.331 --    38 C    1.218    42 H    0.946    41 H    0.940
                            39 O    0.134
    41   1 H    0.957 --    40 N    0.940
    42   1 H    0.965 --    40 N    0.946
    43   7 N    3.314 --    38 C    1.238    44 H    0.949    45 H    0.859
                            39 O    0.139
    44   1 H    0.969 --    43 N    0.949
    45   1 H    0.940 --    43 N    0.859
    46   6 C    3.960 --    47 O    1.491    48 N    1.260    51 N    1.197
    47   8 O    1.923 --    46 C    1.491    48 N    0.147    51 N    0.126
    48   7 N    3.348 --    46 C    1.260    50 H    0.949    49 H    0.869
                            47 O    0.147
    49   1 H    0.941 --    48 N    0.869
    50   1 H    0.969 --    48 N    0.949
    51   7 N    3.306 --    46 C    1.197    52 H    0.947    53 H    0.942
                            47 O    0.126
    52   1 H    0.966 --    51 N    0.947
    53   1 H    0.959 --    51 N    0.942
 ---------------------------------------------------------------------------

Topologies differ in total number of bonds
Writing topology from bond orders to xtbtopo.mol

molecular dipole:
                 x           y           z       tot (Debye)
 q only:       -0.123      -2.272       0.981
   full:       -0.538      -1.710       1.878       6.599
molecular quadrupole (traceless):
                xx          xy          yy          xz          yz          zz
 q only:       -4.736       9.100       6.922       4.651      12.727      -2.186
  q+dip:       -1.859       9.230       5.454       4.144      11.682      -3.595
   full:       -1.329       8.838       5.097       3.702      11.835      -3.769

           -------------------------------------------------
          |               Frequency Printout                |
           -------------------------------------------------
 projected vibrational frequencies (cm⁻¹)
eigval :       -0.00    -0.00     0.00     0.00     0.00     0.00
eigval :       10.47    23.16    27.28    33.52    35.98    42.51
eigval :       43.44    49.94    54.57    58.80    62.85    69.53
eigval :       77.75    85.43    92.19    97.68   112.84   123.66
eigval :      137.57   147.03   159.65   176.29   179.03   190.72
eigval :      193.58   221.76   248.20   282.94   287.61   310.40
eigval :      321.10   331.48   347.90   376.79   378.55   397.02
eigval :      428.22   431.94   452.98   455.32   458.86   467.10
eigval :      471.12   475.19   481.36   487.96   494.03   499.90
eigval :      510.01   516.81   541.45   546.84   557.89   559.54
eigval :      575.97   579.64   637.68   666.21   671.16   676.02
eigval :      677.66   696.43   723.66   762.04   775.09   812.59
eigval :      905.43   920.98   972.18   975.64   983.28   986.91
eigval :      994.43  1007.32  1011.49  1017.45  1019.77  1027.26
eigval :     1029.82  1033.09  1037.24  1084.65  1085.98  1091.78
eigval :     1098.97  1102.17  1103.58  1124.06  1158.97  1218.82
eigval :     1243.71  1269.40  1313.84  1323.12  1347.02  1354.96
eigval :     1356.92  1359.81  1375.77  1396.00  1403.42  1413.43
eigval :     1419.60  1435.74  1440.82  1446.83  1452.81  1454.44
eigval :     1456.92  1459.76  1464.52  1465.02  1467.56  1480.05
eigval :     1481.42  1499.65  1504.34  1513.18  1527.81  1639.73
eigval :     1678.28  1697.50  1716.52  2892.28  2980.89  2982.72
eigval :     3015.37  3019.34  3038.88  3041.77  3042.73  3045.46
eigval :     3047.29  3049.46  3055.00  3063.36  3099.16  3152.55
eigval :     3214.80  3294.50  3376.82  3389.28  3485.52  3487.87
eigval :     3492.08  3516.61  3528.09  3530.89  3536.62  3538.01
eigval :     3547.81  3551.27  3556.11
 reduced masses (amu)
   1: 12.81   2: 12.56   3: 12.09   4: 12.25   5: 12.66   6: 12.80   7: 11.70   8: 12.35
   9: 11.17  10: 12.14  11: 11.79  12: 12.00  13: 12.61  14: 12.21  15: 12.38  16: 12.35
  17: 12.02  18: 12.41  19: 12.14  20: 12.24  21: 12.62  22: 13.75  23: 11.40  24: 12.95
  25: 13.41  26: 13.38  27: 12.59  28: 10.62  29: 12.90  30: 12.57  31: 12.33  32: 12.39
  33:  5.71  34:  6.65  35:  3.45  36:  7.76  37:  2.74  38:  2.50  39:  2.26  40:  6.11
  41:  3.05  42:  3.71  43:  8.66  44:  3.55  45:  2.24  46:  8.02  47:  4.19  48:  8.16
  49:  8.56  50:  7.94  51:  8.32  52:  2.50  53:  3.40  54:  3.25  55:  3.86  56:  8.50
  57:  9.42  58:  8.16  59: 10.83  60: 10.33  61:  6.81  62:  9.40  63:  3.68  64: 10.48
  65:  8.63  66: 11.84  67: 10.88  68:  4.98  69:  2.54  70:  9.20  71:  1.91  72:  2.47
  73:  7.18  74:  8.22  75:  5.20  76:  4.60  77:  4.54  78:  4.68  79:  7.32  80:  9.11
  81:  8.10  82:  9.59  83:  5.49  84:  9.69  85:  6.77  86:  3.93  87:  9.85  88:  6.61
  89:  8.51  90:  8.22  91:  4.52  92:  6.74  93:  8.36  94:  8.64  95:  2.87  96:  5.36
  97:  7.57  98:  8.31  99:  5.33 100:  3.76 101:  4.60 102:  4.85 103:  4.10 104:  5.75
 105:  4.97 106:  4.55 107:  2.53 108:  2.57 109:  2.08 110:  2.46 111:  1.64 112:  3.33
 113:  2.41 114:  2.26 115:  1.75 116:  3.45 117:  2.83 118:  1.77 119:  1.85 120:  1.63
 121:  1.75 122:  7.96 123:  8.77 124:  8.64 125:  9.62 126: 12.13 127: 12.60 128: 12.63
 129: 12.71 130:  1.76 131:  1.73 132:  1.72 133:  1.75 134:  1.73 135:  1.72 136:  1.74
 137:  1.57 138:  1.86 139:  1.83 140:  1.87 141:  1.54 142:  1.71 143:  1.83 144:  1.82
 145:  1.78 146:  1.77 147:  1.69 148:  1.88 149:  1.46 150:  1.45 151:  1.45 152:  1.88
 153:  1.95 154:  1.91 155:  1.90 156:  1.93 157:  2.15 158:  2.18 159:  2.18
 IR intensities (km·mol⁻¹)
   1:  0.55   2:  2.11   3:  3.45   4:  2.26   5:  1.08   6:  0.78   7:  0.32   8:  0.45
   9:  0.44  10:  0.52  11:  3.51  12:  6.81  13:  0.55  14:  1.83  15:  2.35  16:  0.76
  17:  0.99  18:  4.94  19:  3.96  20:  4.02  21:  1.24  22:  5.79  23: 22.84  24: 14.81
  25:  1.83  26: 15.44  27: 13.58  28:  4.85  29: 16.29  30:  8.39  31:  1.88  32:131.59
  33:  3.29  34:  0.27  35:  1.14  36:  2.45  37:143.57  38:  2.27  39: 43.27  40:  2.32
  41:  5.68  42:145.25  43:  5.92  44:435.40  45:  7.18  46:  5.98  47: 73.06  48:  6.91
  49: 31.10  50: 49.09  51: 27.87  52:167.82  53:106.32  54: 46.40  55: 68.43  56: 17.67
  57: 29.84  58:  9.41  59: 23.31  60: 42.47  61:231.75  62:277.90  63:145.52  64:  7.28
  65: 60.26  66:138.78  67: 58.27  68: 62.52  69: 14.53  70:  0.79  71: 34.51  72:663.19
  73:  9.49  74:  5.48  75:  4.42  76:  3.63  77:  3.01  78:  1.70  79: 13.35  80: 12.65
  81: 17.36  82: 10.43  83: 33.14  84:  3.41  85:  8.09  86:  4.91  87:  2.79  88: 17.47
  89:  0.44  90:  0.40  91: 18.00  92:  6.73  93:  3.48  94: 37.23  95: 12.24  96:  6.39
  97:  2.86  98:  3.01  99:  2.79 100: 20.20 101: 43.29 102: 75.16 103:266.62 104: 68.34
 105: 34.39 106: 13.38 107: 24.67 108:  6.57 109: 19.09 110: 17.75 111:  2.42 112: 15.88
 113:  5.01 114:  0.66 115:  9.18 116: 11.43 117:  7.18 118:  9.65 119:  8.10 120: 45.17
 121: 28.13 122:261.31 123:****** 124: 47.61 125:351.64 126:191.40 127: 80.07 128:******
 129:961.26 130: 29.74 131: 31.10 132: 26.96 133: 44.61 134: 14.15 135:  5.70 136:  3.76
 137: 14.96 138:  6.94 139:  8.26 140:  7.84 141:  3.58 142:  4.04 143:****** 144:109.53
 145:****** 146:584.79 147:295.77 148:306.92 149: 21.17 150: 17.04 151: 25.71 152:  9.91
 153: 19.43 154:  2.79 155: 33.53 156: 11.35 157: 18.41 158: 10.71 159: 18.17
 Raman intensities (amu)
Molecule has no symmetry elements
It seems to be the C1 point group
   1:  0.00   2:  0.00   3:  0.00   4:  0.00   5:  0.00   6:  0.00   7:  0.00   8:  0.00
   9:  0.00  10:  0.00  11:  0.00  12:  0.00  13:  0.00  14:  0.00  15:  0.00  16:  0.00
  17:  0.00  18:  0.00  19:  0.00  20:  0.00  21:  0.00  22:  0.00  23:  0.00  24:  0.00
  25:  0.00  26:  0.00  27:  0.00  28:  0.00  29:  0.00  30:  0.00  31:  0.00  32:  0.00
  33:  0.00  34:  0.00  35:  0.00  36:  0.00  37:  0.00  38:  0.00  39:  0.00  40:  0.00
  41:  0.00  42:  0.00  43:  0.00  44:  0.00  45:  0.00  46:  0.00  47:  0.00  48:  0.00
  49:  0.00  50:  0.00  51:  0.00  52:  0.00  53:  0.00  54:  0.00  55:  0.00  56:  0.00
  57:  0.00  58:  0.00  59:  0.00  60:  0.00  61:  0.00  62:  0.00  63:  0.00  64:  0.00
  65:  0.00  66:  0.00  67:  0.00  68:  0.00  69:  0.00  70:  0.00  71:  0.00  72:  0.00
  73:  0.00  74:  0.00  75:  0.00  76:  0.00  77:  0.00  78:  0.00  79:  0.00  80:  0.00
  81:  0.00  82:  0.00  83:  0.00  84:  0.00  85:  0.00  86:  0.00  87:  0.00  88:  0.00
  89:  0.00  90:  0.00  91:  0.00  92:  0.00  93:  0.00  94:  0.00  95:  0.00  96:  0.00
  97:  0.00  98:  0.00  99:  0.00 100:  0.00 101:  0.00 102:  0.00 103:  0.00 104:  0.00
 105:  0.00 106:  0.00 107:  0.00 108:  0.00 109:  0.00 110:  0.00 111:  0.00 112:  0.00
 113:  0.00 114:  0.00 115:  0.00 116:  0.00 117:  0.00 118:  0.00 119:  0.00 120:  0.00
 121:  0.00 122:  0.00 123:  0.00 124:  0.00 125:  0.00 126:  0.00 127:  0.00 128:  0.00
 129:  0.00 130:  0.00 131:  0.00 132:  0.00 133:  0.00 134:  0.00 135:  0.00 136:  0.00
 137:  0.00 138:  0.00 139:  0.00 140:  0.00 141:  0.00 142:  0.00 143:  0.00 144:  0.00
 145:  0.00 146:  0.00 147:  0.00 148:  0.00 149:  0.00 150:  0.00 151:  0.00 152:  0.00
 153:  0.00 154:  0.00 155:  0.00 156:  0.00 157:  0.00 158:  0.00 159:  0.00
 output can be read by thermo (or use thermo option).
 writing <g98.out> molden fake output.
 recommended (thermochemical) frequency scaling factor: 1.0
           -------------------------------------------------
          |             Thermodynamic Functions             |
           -------------------------------------------------

c1  symmetry found (for desy threshold:  0.10E+00) used in thermo

          ...................................................
          :                      SETUP                      :
          :.................................................:
          :  # frequencies                         153      :
          :  # imaginary freq.                       0      :
          :  linear?                             false      :
          :  only rotor calc.                    false      :
          :  symmetry                               c1      :
          :  rotational number                       1      :
          :  scaling factor                  1.0000000      :
          :  rotor cutoff                   50.0000000 cm⁻¹ :
          :  imag. cutoff                  -20.0000000 cm⁻¹ :
          :.................................................:

    mode    ω/cm⁻¹     T·S(HO)/kcal·mol⁻¹    T·S(FR)/kcal·mol⁻¹   T·S(vib)
   ------------------------------------------------------------------------
       1     10.47    -2.36146 (  0.19%)    -1.51965 ( 99.81%)    -1.52126
       2     23.16    -1.89114 (  4.40%)    -1.28446 ( 95.60%)    -1.31116
       3     27.28    -1.79426 (  8.14%)    -1.23597 ( 91.86%)    -1.28142
       4     33.52    -1.67239 ( 16.81%)    -1.17494 ( 83.19%)    -1.25856
       5     35.98    -1.63055 ( 21.15%)    -1.15397 ( 78.85%)    -1.25475
       6     42.51    -1.53206 ( 34.32%)    -1.10459 ( 65.68%)    -1.25129
       7     43.44    -1.51934 ( 36.29%)    -1.09821 ( 63.71%)    -1.25102
       8     49.94    -1.43703 ( 49.88%)    -1.05688 ( 50.12%)    -1.24649
       9     54.57    -1.38473 ( 58.66%)    -1.03060 ( 41.34%)    -1.23834
      10     58.80    -1.34083 ( 65.66%)    -1.00851 ( 34.34%)    -1.22672
      11     62.85    -1.30159 ( 71.40%)    -0.98875 ( 28.60%)    -1.21213
      12     69.53    -1.24227 ( 78.90%)    -0.95884 ( 21.10%)    -1.18247
      13     77.75    -1.17680 ( 85.39%)    -0.92576 ( 14.61%)    -1.14013
      14     85.43    -1.12167 ( 89.50%)    -0.89784 ( 10.50%)    -1.09816
      15     92.19    -1.07720 ( 92.04%)    -0.87527 (  7.96%)    -1.06113
      16     97.68    -1.04357 ( 93.57%)    -0.85816 (  6.43%)    -1.03166
      17    112.84    -0.95989 ( 96.29%)    -0.81541 (  3.71%)    -0.95452
      18    123.66    -0.90707 ( 97.40%)    -0.78828 (  2.60%)    -0.90398
      19    137.57    -0.84597 ( 98.28%)    -0.75671 (  1.72%)    -0.84444
      20    147.03    -0.80809 ( 98.68%)    -0.73702 (  1.32%)    -0.80715
      21    159.65    -0.76145 ( 99.05%)    -0.71261 (  0.95%)    -0.76099
      22    176.29    -0.70583 ( 99.36%)    -0.68325 (  0.64%)    -0.70569
      23    179.03    -0.69723 ( 99.40%)    -0.67868 (  0.60%)    -0.69711
      24    190.72    -0.66214 ( 99.53%)    -0.65994 (  0.47%)    -0.66213
      25    193.58    -0.65391 ( 99.56%)    -0.65552 (  0.44%)    -0.65392
      26    221.76    -0.57979 ( 99.74%)    -0.61526 (  0.26%)    -0.57988
      27    248.20    -0.51976 ( 99.84%)    -0.58190 (  0.16%)    -0.51987
      28    282.94    -0.45195 ( 99.90%)    -0.54310 (  0.10%)    -0.45204
      29    287.61    -0.44364 ( 99.91%)    -0.53824 (  0.09%)    -0.44373
   ------------------------------------------------------------------------

   temp. (K)  partition function   enthalpy   heat capacity  entropy
                                   cal/mol     cal/K/mol   cal/K/mol   J/K/mol
 298.15  VIB  0.923E+16            18809.458    103.077    122.823
         ROT  0.111E+08              888.752      2.981     35.223
         INT  0.103E+24            19698.210    106.058    158.045
         TR   0.618E+28             1481.254      4.968     43.384
         TOT                       21179.4641   111.0262   201.4297   842.7817

       T/K    H(0)-H(T)+PV         H(T)/Eh          T*S/Eh         G(T)/Eh
   ------------------------------------------------------------------------
    298.15    0.337516E-01    0.474130E+00    0.957057E-01    0.378424E+00
   ------------------------------------------------------------------------

         :::::::::::::::::::::::::::::::::::::::::::::::::::::
         ::                  THERMODYNAMIC                  ::
         :::::::::::::::::::::::::::::::::::::::::::::::::::::
         :: total free energy         -80.556916693194 Eh   ::
         ::.................................................::
         :: total energy              -80.935340497876 Eh   ::
         :: zero point energy           0.440377911411 Eh   ::
         :: G(RRHO) w/o ZPVE           -0.061954106728 Eh   ::
         :: G(RRHO) contrib.            0.378423804683 Eh   ::
         :::::::::::::::::::::::::::::::::::::::::::::::::::::

           -------------------------------------------------
          | TOTAL ENERGY              -80.935340497876 Eh   |
          | TOTAL ENTHALPY            -80.461210962046 Eh   |
          | TOTAL FREE ENERGY         -80.556916693194 Eh   |
          | GRADIENT NORM               0.000092363869 Eh/α |
          | HOMO-LUMO GAP               5.552467991499 eV   |
           -------------------------------------------------

------------------------------------------------------------------------
 * finished run on 2024/01/10 at 15:35:56.610     
------------------------------------------------------------------------
 total:
 * wall-time:     0 d,  0 h,  0 min, 14.775 sec
 *  cpu-time:     0 d,  0 h,  0 min, 14.714 sec
 * ratio c/w:     0.996 speedup
 SCF:
 * wall-time:     0 d,  0 h,  0 min,  0.085 sec
 *  cpu-time:     0 d,  0 h,  0 min,  0.058 sec
 * ratio c/w:     0.684 speedup
 analytical hessian:
 * wall-time:     0 d,  0 h,  0 min, 14.663 sec
 *  cpu-time:     0 d,  0 h,  0 min, 14.629 sec
 * ratio c/w:     0.998 speedup

