 Entering Gaussian System
 *********************************************
 Gaussian 98:
 frequency output generated by the xtb code
 *********************************************
                         Standard orientation:
 --------------------------------------------------------------------
  Center     Atomic     Atomic              Coordinates (Angstroms)
  Number     Number      Type              X           Y           Z
 --------------------------------------------------------------------
    1          8             0        1.076419    1.329310    0.767851
    2          6             0       -0.230477    1.674285    0.409763
    3          1             0       -0.789420    2.029347    1.286944
    4          1             0       -0.147616    2.511623   -0.288925
    5          6             0       -1.069682    0.544969   -0.199222
    6          1             0       -2.007805    0.996665   -0.526824
    7          1             0       -1.273097   -0.222618    0.550983
    8          7             0       -0.491459   -0.160975   -1.376593
    9          6             0       -1.583230   -0.945388   -1.980142
   10          1             0       -1.981488   -1.625798   -1.229284
   11          1             0       -1.205856   -1.520153   -2.823084
   12          1             0       -2.360896   -0.266318   -2.324838
   13          6             0        0.574867   -1.087789   -0.964034
   14          1             0        1.436464   -0.545716   -0.578977
   15          1             0        0.897280   -1.678332   -1.819019
   16          1             0        0.182956   -1.754631   -0.198109
   17          6             0        0.020239    0.793645   -2.368532
   18          1             0        0.323434    0.258712   -3.266465
   19          1             0        0.884361    1.319311   -1.969433
   20          1             0       -0.773841    1.496893   -2.617668
   21          1             0        1.055562    0.595122    1.427996
   22          6             0        2.138387   -1.248619    2.853630
   23          8             0        1.074225   -0.722543    2.512568
   24          7             0        2.228564   -1.922824    4.030917
   25          1             0        1.480067   -1.819546    4.693375
   26          1             0        3.117035   -2.229429    4.384565
   27          7             0        3.244414   -1.207711    2.101881
   28          1             0        4.068405   -1.709559    2.379897
   29          1             0        3.229801   -0.832094    1.154328
   30          6             0       -3.922753    2.561380   -2.675334
   31          8             0       -2.942186    1.895956   -2.374222
   32          7             0       -3.858037    3.589259   -3.555159
   33          1             0       -2.959891    3.864760   -3.909117
   34          1             0       -4.641720    4.189838   -3.733313
   35          7             0       -5.148117    2.321440   -2.147359
   36          1             0       -5.969711    2.796489   -2.473145
   37          1             0       -5.270581    1.511159   -1.567043
   38          6             0       -1.948349   -2.721644    1.946362
   39          8             0       -1.748385   -2.315791    0.808534
   40          7             0       -1.315259   -2.198608    3.019797
   41          1             0       -0.517035   -1.588965    2.856204
   42          1             0       -1.397183   -2.638710    3.918513
   43          7             0       -2.835918   -3.717855    2.202694
   44          1             0       -3.101305   -3.966223    3.137997
   45          1             0       -3.408826   -4.047630    1.446749
   46          6             0        4.114820    0.826587   -0.801518
   47          8             0        3.605846   -0.247848   -0.500562
   48          7             0        3.457723    1.998883   -0.632279
   49          1             0        2.624958    1.956822   -0.052617
   50          1             0        3.953444    2.871458   -0.678980
   51          7             0        5.352762    0.900914   -1.348324
   52          1             0        5.720598    1.759431   -1.715814
   53          1             0        5.807166    0.042691   -1.605894
 --------------------------------------------------------------------
     1 basis functions        1 primitive gaussians
     1 alpha electrons        1 beta electrons

 Harmonic frequencies (cm**-1), IR intensities (km*mol⁻¹),
 Raman scattering activities (A**4/amu), Raman depolarization ratios,
 reduced masses (AMU), force constants (mDyne/A) and normal coordinates:
                      1                      2                      3
                        a                      a                      a 
 Frequencies --    -7.1661                13.0787                15.2400
 Red. masses --    11.1203                12.1021                12.0044
 Frc consts  --     0.0000                 0.0000                 0.0000
 IR Inten    --     0.0060                 0.3937                 1.5678
 Raman Activ --     0.0000                 0.0000                 0.0000
 Depolar     --     0.0000                 0.0000                 0.0000
 Atom AN      X      Y      Z        X      Y      Z        X      Y      Z
   1   8    -0.02  -0.00  -0.00    -0.02   0.00  -0.04    -0.09  -0.04   0.10
   2   6    -0.02  -0.01  -0.01    -0.02   0.00  -0.03    -0.08  -0.05   0.10
   3   1    -0.01  -0.00  -0.00    -0.00   0.00  -0.01    -0.02  -0.02   0.03
   4   1    -0.00  -0.00  -0.00    -0.01   0.00  -0.01    -0.03  -0.01   0.03
   5   6    -0.01  -0.01  -0.02    -0.02   0.00  -0.03    -0.07  -0.05   0.09
   6   1    -0.00  -0.01  -0.01    -0.01   0.00  -0.01    -0.02  -0.01   0.02
   7   1    -0.00  -0.00  -0.01    -0.01   0.00  -0.01    -0.02  -0.02   0.02
   8   7     0.01  -0.01  -0.02    -0.02   0.01  -0.04    -0.06  -0.05   0.10
   9   6     0.02  -0.02  -0.03    -0.03   0.03  -0.05    -0.05  -0.04   0.08
  10   1     0.01  -0.01  -0.01    -0.01   0.01  -0.02    -0.02  -0.01   0.02
  11   1     0.01  -0.00  -0.01    -0.01   0.01  -0.01    -0.01  -0.01   0.02
  12   1     0.00  -0.01  -0.01    -0.00   0.01  -0.01    -0.01  -0.01   0.02
  13   6     0.01  -0.00  -0.01    -0.03  -0.01  -0.03    -0.07  -0.05   0.10
  14   1     0.00   0.00  -0.00    -0.01  -0.01   0.00    -0.02  -0.02   0.03
  15   1     0.01   0.00  -0.00    -0.01   0.00  -0.01    -0.02  -0.02   0.03
  16   1     0.00  -0.00  -0.00    -0.02  -0.01  -0.02    -0.02  -0.01   0.03
  17   6     0.01  -0.00  -0.01    -0.01   0.01  -0.02    -0.04  -0.05   0.10
  18   1     0.00  -0.00  -0.00    -0.00   0.00  -0.01    -0.01  -0.01   0.03
  19   1     0.00   0.00  -0.00    -0.00  -0.00  -0.00    -0.01  -0.01   0.03
  20   1     0.00  -0.00  -0.00     0.00   0.01  -0.00    -0.01  -0.01   0.03
  21   1    -0.01  -0.00  -0.00    -0.01   0.00  -0.01    -0.02  -0.01   0.02
  22   6    -0.02   0.01   0.01    -0.02   0.20   0.15     0.08  -0.02  -0.00
  23   8    -0.02  -0.00  -0.00    -0.06   0.08   0.04     0.04  -0.10   0.03
  24   7    -0.02   0.01   0.01    -0.03   0.38   0.26     0.16  -0.04  -0.02
  25   1    -0.01   0.00   0.00    -0.02   0.12   0.06     0.04  -0.03   0.00
  26   1    -0.01   0.01   0.00    -0.00   0.14   0.09     0.05   0.00  -0.01
  27   7    -0.01   0.02   0.02     0.01   0.20   0.21     0.06   0.06  -0.03
  28   1    -0.00   0.01   0.01     0.01   0.08   0.08     0.03   0.03  -0.02
  29   1    -0.00   0.00   0.00     0.00   0.01   0.04     0.00   0.02  -0.01
  30   6     0.01   0.02   0.02     0.01   0.09   0.06     0.14   0.11  -0.14
  31   8     0.00  -0.02  -0.03     0.01   0.07  -0.00     0.05   0.03  -0.01
  32   7    -0.10  -0.34  -0.40     0.01   0.16   0.13     0.37   0.07  -0.20
  33   1    -0.05  -0.17  -0.22     0.00   0.05   0.04     0.12  -0.01  -0.03
  34   1    -0.02  -0.08  -0.11     0.00   0.05   0.05     0.12   0.04  -0.09
  35   7     0.14   0.43   0.51     0.02   0.08   0.06     0.06   0.29  -0.29
  36   1     0.03   0.11   0.15     0.01   0.03   0.03     0.04   0.10  -0.11
  37   1     0.05   0.18   0.23     0.00   0.01   0.00    -0.02   0.09  -0.07
  38   6     0.01  -0.03  -0.03     0.07  -0.15  -0.10     0.02  -0.11   0.08
  39   8     0.01  -0.02  -0.03    -0.02  -0.03  -0.09    -0.05  -0.06   0.10
  40   7    -0.01  -0.04  -0.03     0.09  -0.22  -0.09     0.10  -0.18   0.07
  41   1    -0.00  -0.01  -0.00     0.01  -0.03  -0.02     0.02  -0.04   0.02
  42   1    -0.00  -0.01  -0.01     0.05  -0.09  -0.04     0.04  -0.06   0.02
  43   7     0.02  -0.05  -0.05     0.18  -0.27  -0.17     0.03  -0.12   0.09
  44   1     0.01  -0.02  -0.02     0.07  -0.10  -0.05     0.02  -0.04   0.03
  45   1     0.01  -0.01  -0.02     0.04  -0.06  -0.05    -0.01  -0.02   0.03
  46   6    -0.00   0.02   0.03    -0.03  -0.15  -0.05    -0.14   0.09  -0.08
  47   8     0.00   0.02   0.02    -0.01  -0.15   0.09    -0.09   0.08  -0.06
  48   7    -0.01   0.02   0.02    -0.04  -0.15  -0.16    -0.19   0.07  -0.03
  49   1    -0.01   0.00   0.00    -0.01  -0.03  -0.03    -0.04   0.01   0.01
  50   1    -0.01   0.01   0.01    -0.01  -0.04  -0.07    -0.06   0.02  -0.02
  51   7     0.00   0.03   0.04    -0.05  -0.21  -0.09    -0.20   0.15  -0.18
  52   1    -0.00   0.01   0.01    -0.02  -0.07  -0.05    -0.07   0.05  -0.05
  53   1     0.00   0.01   0.01    -0.01  -0.06  -0.00    -0.05   0.05  -0.06
                      4                      5                      6
                        a                      a                      a 
 Frequencies --    22.2747                24.5437                32.3633
 Red. masses --    11.8800                12.0922                12.3602
 Frc consts  --     0.0000                 0.0000                 0.0000
 IR Inten    --     1.7219                 0.2875                 4.4937
 Raman Activ --     0.0000                 0.0000                 0.0000
 Depolar     --     0.0000                 0.0000                 0.0000
 Atom AN      X      Y      Z        X      Y      Z        X      Y      Z
   1   8     0.09   0.01   0.15     0.00   0.03  -0.12     0.03   0.10   0.09
   2   6     0.09   0.08   0.16    -0.02   0.03  -0.03     0.01   0.04   0.08
   3   1     0.03   0.02   0.05     0.01   0.01  -0.00     0.00   0.00   0.03
   4   1     0.04   0.03   0.06    -0.02   0.01  -0.01    -0.01   0.01   0.03
   5   6     0.03   0.15   0.11    -0.05   0.02   0.02     0.06   0.01   0.07
   6   1     0.01   0.06   0.04    -0.02   0.00   0.03     0.01  -0.01   0.03
   7   1    -0.00   0.04   0.02     0.00   0.00   0.01     0.03  -0.00   0.02
   8   7    -0.01   0.19   0.09    -0.12   0.03  -0.02     0.08   0.07   0.05
   9   6    -0.04   0.23   0.06    -0.14   0.01   0.06     0.09   0.04   0.03
  10   1    -0.02   0.06   0.01    -0.02  -0.00   0.02     0.04  -0.00   0.00
  11   1    -0.02   0.07   0.01    -0.05   0.01   0.01     0.03   0.02   0.00
  12   1    -0.00   0.08   0.03    -0.05  -0.00   0.03     0.02   0.00   0.02
  13   6    -0.04   0.12   0.04    -0.07   0.05  -0.09     0.11   0.09   0.01
  14   1    -0.00   0.02   0.01    -0.02   0.02  -0.04     0.02   0.03   0.02
  15   1    -0.02   0.04   0.00    -0.03   0.02  -0.03     0.04   0.04  -0.01
  16   1    -0.02   0.03   0.01    -0.00   0.01  -0.02     0.04   0.01  -0.01
  17   6     0.02   0.19   0.11    -0.20   0.04  -0.05     0.02   0.11   0.07
  18   1     0.00   0.06   0.03    -0.07   0.01  -0.02     0.01   0.04   0.01
  19   1     0.01   0.04   0.04    -0.05   0.02  -0.03     0.00   0.04   0.02
  20   1     0.01   0.06   0.04    -0.07   0.01  -0.00    -0.00   0.03   0.03
  21   1     0.01  -0.01   0.03     0.01   0.02  -0.02     0.01   0.03   0.03
  22   6     0.08  -0.06   0.04    -0.02   0.00  -0.04    -0.14  -0.06   0.05
  23   8     0.07  -0.10   0.04     0.02   0.14   0.01    -0.09   0.13   0.11
  24   7     0.10  -0.04   0.05    -0.04   0.01  -0.04    -0.26  -0.22  -0.03
  25   1     0.03  -0.01   0.02     0.01   0.04   0.00    -0.07  -0.05  -0.01
  26   1     0.03  -0.00   0.02    -0.01  -0.02  -0.02    -0.08  -0.10  -0.01
  27   7     0.08  -0.05   0.04    -0.07  -0.16  -0.12    -0.13  -0.11   0.08
  28   1     0.02  -0.01   0.01    -0.03  -0.07  -0.04    -0.06  -0.07   0.01
  29   1     0.02  -0.02   0.01    -0.02  -0.04  -0.03    -0.02  -0.00   0.03
  30   6    -0.11  -0.05  -0.13    -0.11   0.07  -0.07     0.01  -0.02   0.02
  31   8    -0.02   0.18   0.05    -0.22   0.01   0.07    -0.01  -0.01   0.12
  32   7    -0.24  -0.21  -0.34     0.06   0.02  -0.12     0.07  -0.07  -0.03
  33   1    -0.07  -0.03  -0.08     0.03  -0.02  -0.01     0.02  -0.02   0.00
  34   1    -0.09  -0.10  -0.13     0.03   0.02  -0.06     0.02  -0.02  -0.03
  35   7    -0.11  -0.19  -0.20    -0.19   0.20  -0.20    -0.02   0.01  -0.04
  36   1    -0.05  -0.10  -0.08    -0.03   0.07  -0.08     0.00  -0.00  -0.03
  37   1    -0.00  -0.02  -0.01    -0.09   0.07  -0.04    -0.01   0.01   0.00
  38   6    -0.01   0.00  -0.04     0.17  -0.05   0.06     0.11   0.00  -0.02
  39   8    -0.11   0.17  -0.00     0.17  -0.06   0.06     0.31  -0.15  -0.05
  40   7     0.10  -0.17  -0.02     0.08   0.07   0.06    -0.17   0.26   0.03
  41   1     0.03  -0.04  -0.00     0.01   0.04   0.02    -0.04   0.07   0.02
  42   1     0.05  -0.08  -0.02     0.03   0.02   0.02    -0.07   0.10   0.02
  43   7    -0.02  -0.01  -0.11     0.33  -0.18   0.06     0.20  -0.08  -0.05
  44   1     0.01  -0.03  -0.03     0.09  -0.04   0.02     0.01   0.01  -0.02
  45   1    -0.03   0.03  -0.03     0.10  -0.07   0.02     0.11  -0.07  -0.03
  46   6     0.01  -0.10  -0.02     0.09  -0.06   0.11    -0.05  -0.03  -0.12
  47   8     0.01  -0.11   0.01    -0.05  -0.05  -0.05     0.07  -0.02   0.13
  48   7     0.05  -0.10   0.03     0.18  -0.02   0.15    -0.15  -0.05  -0.29
  49   1     0.02  -0.02   0.02     0.02   0.00   0.01    -0.02  -0.00  -0.04
  50   1     0.02  -0.03   0.00     0.07  -0.02   0.07    -0.06  -0.01  -0.12
  51   7    -0.02  -0.13  -0.11     0.18  -0.12   0.30    -0.13  -0.03  -0.28
  52   1    -0.01  -0.04  -0.03     0.08  -0.03   0.11    -0.06  -0.01  -0.12
  53   1    -0.01  -0.04  -0.04     0.03  -0.04   0.07    -0.02  -0.01  -0.04
                      7                      8                      9
                        a                      a                      a 
 Frequencies --    40.0082                51.6119                52.2096
 Red. masses --    12.4283                12.3835                12.5517
 Frc consts  --     0.0000                 0.0000                 0.0000
 IR Inten    --     5.7851                 0.7094                 0.1662
 Raman Activ --     0.0000                 0.0000                 0.0000
 Depolar     --     0.0000                 0.0000                 0.0000
 Atom AN      X      Y      Z        X      Y      Z        X      Y      Z
   1   8    -0.00  -0.11   0.02     0.16   0.01  -0.05     0.07   0.14  -0.09
   2   6    -0.03  -0.13   0.09     0.14   0.04  -0.03     0.04   0.08  -0.03
   3   1    -0.00  -0.07   0.04     0.05   0.03  -0.01     0.02   0.03  -0.00
   4   1    -0.03  -0.02   0.05     0.04  -0.00  -0.02    -0.00   0.02  -0.02
   5   6    -0.00  -0.13   0.04     0.09   0.02   0.07     0.03   0.04   0.06
   6   1    -0.01  -0.04   0.03     0.02   0.00   0.03     0.00   0.00   0.02
   7   1     0.02  -0.06  -0.00     0.04   0.02   0.04     0.02   0.02   0.03
   8   7    -0.01  -0.00  -0.04     0.01  -0.03   0.07    -0.01   0.00   0.07
   9   6     0.01  -0.02  -0.06    -0.04  -0.02   0.14    -0.02  -0.02   0.13
  10   1     0.02  -0.03  -0.03    -0.00  -0.00   0.05    -0.00   0.00   0.05
  11   1     0.00   0.02  -0.04    -0.03  -0.01   0.04    -0.01  -0.01   0.04
  12   1    -0.01  -0.01   0.01    -0.01  -0.00   0.05    -0.01  -0.01   0.04
  13   6     0.05   0.02  -0.15     0.02  -0.03   0.03     0.01   0.02   0.06
  14   1     0.01   0.01  -0.03     0.01  -0.01  -0.01     0.01   0.01   0.01
  15   1     0.02   0.04  -0.06    -0.01  -0.02   0.01    -0.01  -0.00   0.02
  16   1     0.03  -0.02  -0.06     0.01  -0.00   0.02     0.01   0.01   0.03
  17   6    -0.11   0.10   0.02    -0.03  -0.07   0.01    -0.04  -0.03   0.02
  18   1    -0.03   0.06  -0.01    -0.03  -0.03   0.00    -0.02  -0.02   0.01
  19   1    -0.03   0.03   0.01     0.00  -0.02  -0.02    -0.01  -0.01  -0.01
  20   1    -0.05   0.02   0.03    -0.01  -0.02   0.01    -0.01  -0.01   0.01
  21   1     0.02  -0.04  -0.00     0.03   0.01  -0.01     0.03   0.03  -0.03
  22   6     0.14   0.02   0.07    -0.12   0.11  -0.06    -0.05  -0.02  -0.10
  23   8     0.11  -0.11   0.00    -0.19   0.02  -0.07    -0.02  -0.06  -0.28
  24   7     0.18   0.13   0.13    -0.10   0.02  -0.12    -0.23  -0.09  -0.13
  25   1     0.03   0.01   0.02    -0.04  -0.04  -0.04    -0.09  -0.04  -0.07
  26   1     0.05   0.06   0.05    -0.02   0.02  -0.03    -0.07  -0.02   0.00
  27   7     0.17   0.10   0.12    -0.08   0.35   0.01     0.08   0.10   0.10
  28   1     0.06   0.05   0.05    -0.02   0.10  -0.00     0.01   0.03   0.05
  29   1     0.04   0.00   0.02    -0.03   0.09  -0.00     0.05   0.02   0.03
  30   6    -0.10   0.00   0.05     0.00  -0.05   0.08    -0.01  -0.02   0.05
  31   8    -0.22  -0.07   0.24    -0.04  -0.05   0.26    -0.06  -0.03   0.16
  32   7     0.10  -0.07  -0.02     0.12  -0.12   0.01     0.08  -0.06   0.01
  33   1     0.05  -0.04   0.02     0.05  -0.04   0.03     0.03  -0.02   0.02
  34   1     0.05  -0.00  -0.04     0.04  -0.03  -0.03     0.03  -0.01  -0.02
  35   7    -0.20   0.15  -0.10    -0.06   0.01  -0.04    -0.06   0.03  -0.04
  36   1    -0.03   0.05  -0.06    -0.00   0.00  -0.04    -0.01   0.01  -0.03
  37   1    -0.09   0.06  -0.01    -0.04   0.02   0.01    -0.03   0.02   0.00
  38   6    -0.04   0.04  -0.11    -0.08  -0.09  -0.03    -0.06  -0.05   0.03
  39   8     0.19  -0.23  -0.18    -0.02  -0.11  -0.02    -0.20   0.05   0.05
  40   7    -0.07   0.12  -0.14    -0.14  -0.09  -0.00     0.12  -0.21  -0.01
  41   1     0.01  -0.01  -0.04    -0.04  -0.02   0.01     0.02  -0.05  -0.02
  42   1    -0.08   0.09  -0.02    -0.05  -0.02   0.00     0.06  -0.07  -0.01
  43   7    -0.28   0.28  -0.04    -0.11  -0.09  -0.07    -0.09  -0.03   0.05
  44   1    -0.10   0.12  -0.01    -0.05  -0.02  -0.02     0.00  -0.02   0.02
  45   1    -0.05   0.05  -0.01    -0.02  -0.02  -0.03    -0.06   0.03   0.02
  46   6     0.03  -0.03   0.02     0.11   0.04  -0.04     0.10   0.03  -0.02
  47   8     0.09  -0.06   0.06    -0.01   0.09  -0.10     0.20   0.04   0.12
  48   7    -0.05  -0.07  -0.06     0.35   0.12   0.27    -0.10  -0.01  -0.46
  49   1    -0.01  -0.02  -0.01     0.09   0.04   0.07    -0.03   0.00  -0.13
  50   1    -0.02  -0.01  -0.02     0.12   0.02   0.07    -0.04   0.01  -0.14
  51   7     0.04   0.02   0.06     0.01  -0.09  -0.29     0.23   0.07   0.26
  52   1    -0.00   0.01   0.00     0.03  -0.03  -0.05     0.04   0.01   0.02
  53   1     0.03   0.01   0.03    -0.04  -0.03  -0.12     0.10   0.02   0.14
                     10                     11                     12
                        a                      a                      a 
 Frequencies --    59.4689                63.9681                66.9669
 Red. masses --    13.0717                12.6066                12.8343
 Frc consts  --     0.0000                 0.0000                 0.0000
 IR Inten    --     2.1894                 3.1564                 3.8199
 Raman Activ --     0.0000                 0.0000                 0.0000
 Depolar     --     0.0000                 0.0000                 0.0000
 Atom AN      X      Y      Z        X      Y      Z        X      Y      Z
   1   8     0.05  -0.14   0.04     0.07  -0.20  -0.11    -0.18   0.23   0.01
   2   6     0.11  -0.00  -0.09     0.06  -0.11  -0.02    -0.21   0.06   0.07
   3   1     0.02   0.02  -0.04     0.03  -0.03   0.01    -0.07  -0.02   0.03
   4   1     0.07  -0.01  -0.03     0.01  -0.03  -0.00    -0.10   0.03   0.03
   5   6     0.04   0.06  -0.11    -0.01  -0.07  -0.01    -0.11  -0.01   0.03
   6   1     0.02   0.03  -0.04    -0.00  -0.00   0.01    -0.04  -0.02  -0.00
   7   1    -0.01   0.02  -0.03    -0.00  -0.02  -0.01    -0.02  -0.01   0.01
   8   7     0.02   0.01  -0.10    -0.09  -0.06  -0.06     0.00   0.04   0.06
   9   6     0.01  -0.05  -0.00    -0.14   0.03  -0.04     0.08   0.01  -0.04
  10   1     0.02  -0.01   0.02    -0.05   0.01  -0.01     0.02  -0.01  -0.03
  11   1    -0.00  -0.03   0.00    -0.06   0.01  -0.02     0.05   0.01  -0.01
  12   1    -0.01  -0.03  -0.00    -0.03   0.02  -0.00     0.02  -0.01  -0.03
  13   6     0.06   0.07  -0.08    -0.11  -0.12  -0.11     0.01   0.07   0.11
  14   1     0.02   0.03  -0.04    -0.02  -0.05  -0.03    -0.01   0.02   0.05
  15   1     0.01   0.01  -0.02    -0.04  -0.03  -0.04     0.02   0.03   0.03
  16   1     0.03   0.03  -0.01    -0.04  -0.04  -0.04    -0.01   0.01   0.02
  17   6    -0.06  -0.03  -0.17    -0.05  -0.05  -0.04     0.03   0.09   0.12
  18   1    -0.02  -0.02  -0.04    -0.04  -0.01  -0.02     0.05   0.04   0.04
  19   1    -0.02   0.01  -0.07    -0.00  -0.04  -0.01    -0.01   0.04   0.06
  20   1    -0.03  -0.02  -0.05    -0.00   0.01   0.01     0.00   0.01   0.01
  21   1    -0.01  -0.02   0.02     0.02  -0.04  -0.01    -0.01   0.04  -0.02
  22   6    -0.01  -0.05   0.13     0.05   0.01   0.06     0.07  -0.01  -0.10
  23   8    -0.01  -0.01   0.24     0.03  -0.04   0.09     0.12  -0.06  -0.31
  24   7    -0.01  -0.29   0.01     0.02  -0.29  -0.11    -0.13  -0.12  -0.16
  25   1    -0.00  -0.11   0.01    -0.01  -0.15  -0.04    -0.07  -0.06  -0.08
  26   1    -0.00  -0.09  -0.01     0.01  -0.07  -0.02    -0.05  -0.02   0.00
  27   7     0.02   0.15   0.18     0.15   0.40   0.21     0.25   0.20   0.16
  28   1     0.00   0.02   0.02     0.04   0.09   0.03     0.05   0.04   0.06
  29   1    -0.00   0.06   0.06     0.03   0.11   0.06     0.08   0.03   0.03
  30   6    -0.14  -0.01  -0.07     0.02   0.13  -0.04    -0.04  -0.02  -0.07
  31   8    -0.26  -0.24  -0.25     0.16   0.36  -0.02    -0.09  -0.17  -0.27
  32   7    -0.02   0.10   0.06    -0.20   0.09  -0.12    -0.03   0.08   0.04
  33   1    -0.00  -0.01  -0.00    -0.07   0.07  -0.03    -0.01  -0.00  -0.02
  34   1     0.02   0.07   0.04    -0.08  -0.01  -0.03     0.00   0.04   0.04
  35   7    -0.15   0.17  -0.00     0.07  -0.08  -0.02    -0.01   0.06   0.04
  36   1    -0.02   0.09   0.02    -0.01  -0.07  -0.01     0.00   0.04   0.04
  37   1    -0.07   0.02  -0.03     0.06  -0.01   0.01    -0.01  -0.01  -0.02
  38   6     0.05   0.06   0.05     0.03  -0.01   0.04     0.04   0.00  -0.00
  39   8     0.09   0.28   0.14     0.05  -0.13   0.01    -0.05  -0.11  -0.06
  40   7     0.12  -0.19   0.14    -0.07   0.15   0.02     0.10   0.12  -0.09
  41   1     0.02  -0.04   0.06    -0.01   0.03   0.00     0.03   0.02  -0.05
  42   1     0.02  -0.08   0.02    -0.03   0.06   0.02     0.05   0.05  -0.01
  43   7    -0.02   0.09  -0.13     0.10  -0.06   0.11     0.08   0.01   0.16
  44   1    -0.01  -0.02  -0.05     0.02   0.01   0.03     0.04   0.03   0.05
  45   1    -0.01   0.07  -0.05     0.04  -0.05   0.03     0.01  -0.02   0.06
  46   6     0.04   0.01   0.02    -0.03   0.02   0.03     0.02  -0.11   0.06
  47   8     0.12   0.01   0.14    -0.08   0.07   0.09     0.01  -0.12   0.09
  48   7     0.02  -0.01   0.03    -0.01   0.05  -0.08     0.11  -0.10   0.23
  49   1     0.02  -0.01   0.03    -0.01   0.02  -0.03     0.03  -0.02   0.06
  50   1    -0.01   0.00  -0.01     0.00   0.01  -0.03     0.03  -0.03   0.04
  51   7    -0.03   0.02  -0.13     0.01  -0.05   0.11    -0.06  -0.16  -0.12
  52   1    -0.02   0.01  -0.05     0.01  -0.02   0.02    -0.01  -0.04  -0.02
  53   1    -0.00   0.01  -0.03    -0.00  -0.02   0.05    -0.03  -0.05  -0.05
                     13                     14                     15
                        a                      a                      a 
 Frequencies --    75.6676                80.3559                81.2141
 Red. masses --    13.3771                13.5601                12.8680
 Frc consts  --     0.0000                 0.0000                 0.0000
 IR Inten    --     2.9182                 9.1095                 0.2282
 Raman Activ --     0.0000                 0.0000                 0.0000
 Depolar     --     0.0000                 0.0000                 0.0000
 Atom AN      X      Y      Z        X      Y      Z        X      Y      Z
   1   8    -0.04   0.14  -0.12     0.01   0.06   0.02    -0.05   0.07   0.15
   2   6    -0.07   0.03  -0.07    -0.01   0.02   0.06    -0.03   0.07   0.06
   3   1    -0.02   0.00  -0.02     0.00   0.01   0.02    -0.02   0.03   0.01
   4   1    -0.04   0.01  -0.03    -0.02   0.00   0.01     0.00   0.02   0.02
   5   6    -0.01  -0.03  -0.03    -0.01  -0.02   0.12    -0.02   0.07   0.05
   6   1    -0.01  -0.03  -0.00    -0.01  -0.01   0.05    -0.00   0.02   0.01
   7   1     0.01  -0.01  -0.00     0.02  -0.00   0.04    -0.01   0.02   0.01
   8   7    -0.00  -0.02  -0.04    -0.04  -0.01   0.10     0.00   0.06   0.07
   9   6     0.00  -0.00  -0.07    -0.04  -0.06   0.16     0.02   0.06   0.05
  10   1    -0.00  -0.00  -0.02     0.01  -0.02   0.05     0.00   0.02   0.01
  11   1     0.00   0.00  -0.02    -0.02  -0.02   0.04     0.01   0.02   0.02
  12   1     0.00   0.00  -0.02    -0.02  -0.03   0.05     0.01   0.02   0.01
  13   6    -0.02  -0.03  -0.03     0.02   0.04   0.05    -0.02   0.05   0.10
  14   1    -0.01  -0.01   0.01     0.00   0.02   0.00    -0.00   0.01   0.02
  15   1     0.01   0.00  -0.01     0.00   0.02   0.01    -0.01   0.01   0.03
  16   1    -0.02  -0.02  -0.03     0.02   0.01   0.02    -0.01   0.02   0.03
  17   6     0.03  -0.01  -0.01    -0.12  -0.00   0.06     0.04   0.04   0.07
  18   1     0.01   0.00  -0.01    -0.04  -0.00   0.02     0.02   0.01   0.03
  19   1     0.01  -0.01   0.00    -0.04   0.01   0.00     0.01   0.01   0.03
  20   1     0.01   0.01   0.00    -0.05  -0.01   0.02     0.01   0.01   0.01
  21   1     0.01   0.05  -0.01     0.01   0.02   0.01    -0.02   0.02   0.04
  22   6    -0.00   0.04   0.04    -0.07   0.04  -0.02     0.01   0.09  -0.05
  23   8     0.09   0.29   0.13    -0.09   0.07   0.02    -0.07   0.06   0.15
  24   7    -0.12  -0.15  -0.05    -0.05   0.09   0.00     0.21  -0.10  -0.19
  25   1    -0.02  -0.01  -0.00    -0.00   0.03   0.01     0.07  -0.08  -0.02
  26   1    -0.04  -0.08  -0.02    -0.01   0.01  -0.01     0.08  -0.02  -0.09
  27   7    -0.01  -0.05   0.04    -0.12  -0.05  -0.08    -0.04   0.36  -0.13
  28   1    -0.03  -0.07  -0.02    -0.03  -0.01  -0.02    -0.00   0.08  -0.09
  29   1    -0.00   0.01   0.02    -0.03  -0.01  -0.02    -0.05   0.08  -0.04
  30   6     0.06  -0.03   0.07    -0.01   0.09  -0.13     0.05  -0.09  -0.00
  31   8     0.08   0.03   0.20     0.07   0.14  -0.35     0.01  -0.20  -0.09
  32   7     0.09  -0.10   0.00    -0.21   0.18  -0.06     0.10  -0.05   0.07
  33   1     0.03  -0.02   0.02    -0.08   0.07  -0.05     0.03  -0.04  -0.00
  34   1     0.02  -0.03  -0.02    -0.07   0.04   0.03     0.03  -0.00   0.02
  35   7     0.04  -0.06  -0.00     0.07  -0.00   0.03     0.06  -0.03   0.05
  36   1     0.01  -0.03  -0.02    -0.00  -0.02   0.04     0.02   0.01   0.03
  37   1     0.01  -0.00   0.02     0.05  -0.02  -0.02     0.01  -0.02  -0.00
  38   6     0.12  -0.00  -0.05     0.06  -0.16   0.04     0.01   0.01  -0.04
  39   8     0.13  -0.03  -0.07     0.35  -0.36   0.02     0.16   0.04  -0.01
  40   7     0.40  -0.24  -0.12     0.10  -0.25   0.05    -0.12  -0.01   0.04
  41   1     0.09  -0.05  -0.03     0.03  -0.07   0.02    -0.03   0.00   0.04
  42   1     0.07  -0.03  -0.02    -0.05  -0.01   0.03    -0.06   0.00   0.01
  43   7    -0.15   0.26   0.00    -0.28   0.15   0.04    -0.03   0.01  -0.19
  44   1    -0.01   0.05   0.00    -0.09   0.04   0.01    -0.03  -0.01  -0.06
  45   1    -0.06   0.09   0.01    -0.05   0.03  -0.01     0.02   0.00  -0.07
  46   6    -0.15   0.01   0.04     0.10   0.00  -0.04    -0.08  -0.12  -0.05
  47   8    -0.35   0.10   0.09     0.15  -0.02  -0.04    -0.20  -0.16  -0.30
  48   7     0.03   0.11   0.01     0.07  -0.02  -0.04    -0.12  -0.14  -0.14
  49   1    -0.00   0.06  -0.01     0.02  -0.01  -0.01    -0.04  -0.04  -0.05
  50   1     0.04   0.01  -0.01     0.01  -0.00  -0.01    -0.02  -0.04   0.02
  51   7    -0.15  -0.22   0.04     0.11   0.05  -0.04     0.08  -0.12   0.31
  52   1     0.00  -0.08   0.01     0.02   0.02  -0.02     0.04  -0.03   0.11
  53   1    -0.08  -0.08   0.02     0.04   0.02  -0.01     0.02  -0.03   0.08
                     16                     17                     18
                        a                      a                      a 
 Frequencies --    86.5744                94.0127               100.7412
 Red. masses --    13.2177                13.4707                11.0661
 Frc consts  --     0.0000                 0.0000                 0.0000
 IR Inten    --    10.8199                 0.5492                 3.4527
 Raman Activ --     0.0000                 0.0000                 0.0000
 Depolar     --     0.0000                 0.0000                 0.0000
 Atom AN      X      Y      Z        X      Y      Z        X      Y      Z
   1   8    -0.24   0.04   0.05     0.06   0.07   0.10     0.04  -0.11  -0.09
   2   6    -0.19  -0.01  -0.08     0.11   0.09  -0.09    -0.03  -0.10   0.15
   3   1    -0.08  -0.00  -0.04     0.01   0.07  -0.05     0.02  -0.08   0.08
   4   1    -0.04  -0.01  -0.03     0.07   0.00  -0.05    -0.05   0.00   0.08
   5   6    -0.10  -0.05  -0.12     0.09   0.08  -0.03    -0.03  -0.06   0.08
   6   1    -0.03  -0.03  -0.04     0.02   0.02  -0.01    -0.03  -0.02   0.07
   7   1    -0.02  -0.02  -0.04     0.03   0.04   0.00     0.03  -0.05   0.00
   8   7    -0.01  -0.01  -0.11     0.03   0.01  -0.02    -0.13   0.15  -0.08
   9   6     0.06  -0.10  -0.11    -0.01  -0.05   0.12    -0.13   0.14  -0.06
  10   1     0.03  -0.03  -0.03     0.02  -0.00   0.06    -0.01   0.02  -0.02
  11   1     0.03  -0.02  -0.03    -0.02  -0.03   0.04    -0.05   0.07  -0.04
  12   1     0.00  -0.05  -0.03    -0.01  -0.02   0.04    -0.05   0.04   0.01
  13   6     0.05   0.08  -0.08     0.06   0.05  -0.03    -0.02   0.15  -0.32
  14   1     0.00   0.04  -0.02     0.03   0.02  -0.04    -0.00   0.04  -0.09
  15   1     0.03   0.03  -0.02    -0.00  -0.00  -0.00    -0.02   0.09  -0.13
  16   1     0.03   0.02  -0.02     0.04   0.03   0.02     0.03   0.00  -0.11
  17   6    -0.08   0.03  -0.10    -0.06  -0.06  -0.13    -0.27   0.30  -0.00
  18   1    -0.02   0.02  -0.03    -0.04  -0.04  -0.03    -0.09   0.13  -0.03
  19   1    -0.03   0.02  -0.03    -0.01  -0.01  -0.07    -0.08   0.09  -0.00
  20   1    -0.03  -0.00  -0.02    -0.02  -0.02  -0.03    -0.10   0.08   0.04
  21   1    -0.07   0.01   0.01    -0.01  -0.02  -0.02     0.03  -0.04  -0.03
  22   6    -0.07   0.04  -0.06     0.00  -0.11  -0.08    -0.05  -0.00  -0.00
  23   8    -0.10   0.00  -0.06    -0.04  -0.40  -0.39    -0.06  -0.05  -0.06
  24   7    -0.07  -0.02  -0.09    -0.05   0.13   0.06    -0.06   0.05   0.02
  25   1    -0.02  -0.02  -0.03    -0.05   0.02  -0.02    -0.02   0.01  -0.00
  26   1    -0.02   0.00  -0.02    -0.02   0.09   0.07    -0.02   0.02   0.02
  27   7    -0.05   0.15  -0.02     0.11  -0.04   0.07    -0.04   0.01   0.02
  28   1    -0.01   0.04  -0.01     0.05   0.04   0.07    -0.01   0.01   0.01
  29   1    -0.01   0.02  -0.01     0.03  -0.04   0.01    -0.01  -0.00   0.00
  30   6     0.07   0.05   0.09     0.02   0.01   0.00     0.17  -0.14  -0.01
  31   8     0.15   0.25   0.32     0.04   0.05   0.01     0.19  -0.24  -0.13
  32   7     0.02  -0.07  -0.05    -0.01   0.01  -0.01     0.19  -0.08   0.09
  33   1     0.01   0.01   0.02    -0.00   0.01  -0.00     0.04  -0.05  -0.02
  34   1    -0.01  -0.05  -0.05    -0.01  -0.00  -0.00     0.05  -0.03   0.01
  35   7     0.05  -0.08  -0.04     0.02  -0.02   0.00     0.22  -0.15   0.07
  36   1     0.01  -0.05  -0.03     0.00  -0.01  -0.00     0.06  -0.01   0.07
  37   1     0.03   0.01   0.03     0.01  -0.00   0.00     0.07  -0.04   0.02
  38   6     0.07   0.04   0.10     0.10   0.03   0.05    -0.02   0.00   0.08
  39   8     0.13   0.14   0.15     0.35   0.05   0.10    -0.05   0.06   0.11
  40   7     0.09  -0.10   0.16    -0.07   0.01   0.17    -0.00  -0.05   0.11
  41   1     0.02  -0.02   0.05     0.01  -0.03   0.06    -0.00  -0.01   0.03
  42   1     0.01  -0.04   0.03    -0.04  -0.01   0.03     0.01  -0.03   0.02
  43   7     0.00   0.08  -0.00     0.02   0.06  -0.13    -0.01  -0.01   0.07
  44   1    -0.00  -0.00  -0.01    -0.04   0.02  -0.05    -0.00  -0.01   0.02
  45   1     0.00   0.05  -0.01     0.04   0.03  -0.06    -0.01   0.01   0.02
  46   6     0.06  -0.11   0.01    -0.18   0.01   0.05     0.02   0.03  -0.01
  47   8     0.27  -0.25  -0.09    -0.30   0.05   0.05    -0.02   0.07   0.03
  48   7    -0.10  -0.24   0.20    -0.10   0.06   0.04     0.07   0.06  -0.03
  49   1    -0.03  -0.10   0.05    -0.02   0.03   0.01     0.02   0.02  -0.01
  50   1    -0.07  -0.04   0.06    -0.01   0.00   0.01     0.02   0.01  -0.02
  51   7     0.01   0.15  -0.06    -0.17  -0.11   0.09     0.02  -0.03  -0.03
  52   1    -0.04   0.07   0.01    -0.02  -0.04   0.02     0.01  -0.02  -0.02
  53   1     0.04   0.07  -0.04    -0.07  -0.04   0.03    -0.01  -0.02  -0.00
                     19                     20                     21
                        a                      a                      a 
 Frequencies --   101.9908               117.8408               124.1639
 Red. masses --    11.3319                11.4988                11.0349
 Frc consts  --     0.0000                 0.0000                 0.0000
 IR Inten    --    13.9636                 7.8910                14.0610
 Raman Activ --     0.0000                 0.0000                 0.0000
 Depolar     --     0.0000                 0.0000                 0.0000
 Atom AN      X      Y      Z        X      Y      Z        X      Y      Z
   1   8     0.05  -0.07  -0.03    -0.02  -0.15  -0.20    -0.14   0.12  -0.07
   2   6    -0.01  -0.14   0.09    -0.09  -0.12   0.11    -0.22  -0.09   0.08
   3   1    -0.00  -0.10   0.05     0.01  -0.07   0.07    -0.06  -0.07   0.04
   4   1    -0.04  -0.01   0.06    -0.07  -0.01   0.06    -0.12  -0.01   0.03
   5   6     0.09  -0.15  -0.03    -0.12  -0.09   0.09    -0.09  -0.19   0.07
   6   1     0.02  -0.05  -0.01    -0.03  -0.02   0.02    -0.04  -0.09   0.02
   7   1     0.03  -0.07  -0.03    -0.04  -0.03   0.02    -0.00  -0.06   0.02
   8   7     0.22   0.01  -0.08    -0.10  -0.09   0.11     0.01  -0.11   0.08
   9   6     0.26   0.07  -0.26    -0.14   0.11  -0.08     0.15  -0.31   0.09
  10   1     0.06  -0.00  -0.11    -0.08   0.03  -0.05     0.07  -0.10   0.03
  11   1     0.10   0.05  -0.09    -0.04   0.04  -0.03     0.07  -0.08   0.03
  12   1     0.08   0.03  -0.07    -0.01   0.07  -0.02     0.01  -0.13   0.01
  13   6     0.16  -0.05  -0.10    -0.25  -0.26   0.12     0.19   0.10   0.06
  14   1     0.05  -0.03  -0.01    -0.05  -0.11   0.04     0.03   0.08   0.00
  15   1     0.05   0.00  -0.04    -0.10  -0.09   0.04     0.08   0.04   0.02
  16   1     0.04  -0.03  -0.04    -0.11  -0.06   0.03     0.10   0.02   0.03
  17   6     0.28   0.15   0.11     0.15  -0.07   0.25    -0.20  -0.01   0.05
  18   1     0.11   0.08   0.02     0.07  -0.01   0.07    -0.04   0.01   0.01
  19   1     0.07   0.03   0.08     0.04  -0.06   0.12    -0.08   0.04   0.01
  20   1     0.08   0.05   0.03     0.08   0.01   0.05    -0.10  -0.04   0.02
  21   1     0.03  -0.03  -0.02     0.02  -0.04  -0.05     0.00   0.04  -0.01
  22   6    -0.09   0.03  -0.05    -0.04   0.00  -0.04     0.07  -0.02   0.02
  23   8    -0.13  -0.04  -0.07    -0.04  -0.03  -0.13     0.08  -0.01   0.06
  24   7    -0.05   0.08  -0.04    -0.11   0.07  -0.01     0.12  -0.05   0.02
  25   1    -0.02   0.01  -0.01    -0.04   0.02  -0.02     0.04  -0.00   0.02
  26   1    -0.01   0.03  -0.01    -0.03   0.02   0.02     0.04   0.00  -0.00
  27   7    -0.10   0.07  -0.06    -0.01  -0.02   0.00     0.05  -0.05  -0.01
  28   1    -0.02   0.03  -0.01    -0.00   0.01   0.02     0.01  -0.02  -0.01
  29   1    -0.03   0.01  -0.02     0.01  -0.00   0.00     0.01  -0.00   0.00
  30   6    -0.12   0.07  -0.02    -0.01  -0.02   0.00     0.01   0.06  -0.01
  31   8    -0.15   0.07   0.00    -0.03  -0.05  -0.01     0.05   0.15   0.02
  32   7    -0.11   0.06  -0.04     0.01  -0.02   0.01    -0.07   0.04  -0.06
  33   1    -0.02   0.02   0.01     0.00  -0.01   0.00    -0.02   0.04   0.01
  34   1    -0.02   0.03   0.00     0.01   0.00   0.01    -0.02   0.01   0.01
  35   7    -0.14   0.11  -0.04    -0.01   0.00   0.01     0.01   0.00  -0.01
  36   1    -0.03   0.02  -0.03    -0.00   0.00   0.00    -0.01  -0.03  -0.02
  37   1    -0.05   0.02  -0.02    -0.01  -0.00  -0.00     0.02  -0.00  -0.01
  38   6    -0.02  -0.06   0.18     0.13   0.14  -0.03    -0.08   0.08  -0.04
  39   8    -0.01  -0.03   0.22     0.29   0.28   0.03    -0.07   0.27   0.03
  40   7     0.00  -0.13   0.22     0.04   0.02   0.08    -0.17   0.01   0.05
  41   1    -0.01  -0.03   0.06     0.01   0.01   0.05    -0.04   0.01   0.03
  42   1     0.00  -0.04   0.05    -0.01  -0.02   0.01    -0.03  -0.04  -0.00
  43   7    -0.05  -0.05   0.17     0.07   0.15  -0.28     0.01  -0.05  -0.24
  44   1    -0.02  -0.00   0.05    -0.00  -0.00  -0.09    -0.01  -0.05  -0.08
  45   1    -0.02   0.01   0.05     0.05   0.06  -0.11     0.01   0.02  -0.08
  46   6    -0.04   0.00  -0.04     0.07   0.04  -0.01     0.07   0.03  -0.04
  47   8    -0.17   0.05  -0.11     0.11   0.04   0.03    -0.08   0.13   0.04
  48   7     0.04   0.06  -0.09     0.07   0.03  -0.01     0.21   0.13  -0.14
  49   1     0.01   0.03  -0.03     0.01   0.01  -0.01     0.05   0.07  -0.05
  50   1     0.03   0.00  -0.01     0.01   0.01  -0.02     0.08   0.02  -0.06
  51   7     0.01  -0.11   0.06     0.06   0.06  -0.05     0.09  -0.19  -0.04
  52   1     0.03  -0.04   0.03     0.00   0.01  -0.03     0.06  -0.08  -0.03
  53   1    -0.01  -0.04   0.02     0.02   0.02  -0.02    -0.01  -0.08   0.01
                     22                     23                     24
                        a                      a                      a 
 Frequencies --   136.7644               165.1353               165.8012
 Red. masses --    11.6248                11.7878                 4.1028
 Frc consts  --     0.0000                 0.0000                 0.0000
 IR Inten    --    18.0451                21.8929                18.0240
 Raman Activ --     0.0000                 0.0000                 0.0000
 Depolar     --     0.0000                 0.0000                 0.0000
 Atom AN      X      Y      Z        X      Y      Z        X      Y      Z
   1   8     0.21  -0.07   0.10     0.07   0.29  -0.09    -0.03  -0.05   0.04
   2   6     0.15  -0.15   0.14     0.02   0.07  -0.09    -0.01   0.00   0.01
   3   1     0.05  -0.06   0.05    -0.00   0.03  -0.03    -0.01   0.00   0.00
   4   1     0.02  -0.04   0.04    -0.03  -0.00  -0.05     0.01   0.00   0.01
   5   6     0.19  -0.21   0.20     0.13  -0.10   0.08    -0.03   0.04  -0.02
   6   1     0.03  -0.08   0.10    -0.00  -0.08   0.07    -0.01   0.02  -0.01
   7   1     0.10  -0.07   0.06     0.11  -0.03   0.04    -0.02   0.01  -0.01
   8   7     0.08  -0.13   0.09     0.02  -0.04  -0.03    -0.03   0.03  -0.01
   9   6     0.02  -0.13   0.18    -0.09   0.10  -0.02    -0.01   0.01  -0.01
  10   1     0.02  -0.03   0.06    -0.04   0.04  -0.01    -0.00   0.00  -0.00
  11   1    -0.01  -0.04   0.04    -0.05   0.02  -0.01    -0.00   0.00   0.00
  12   1    -0.00  -0.04   0.07    -0.00   0.06   0.00    -0.00  -0.00  -0.01
  13   6     0.18  -0.09  -0.13    -0.02  -0.15  -0.18    -0.03   0.04   0.01
  14   1     0.05  -0.02  -0.04    -0.01  -0.07  -0.01    -0.01   0.02  -0.00
  15   1     0.04   0.01  -0.07     0.00   0.01  -0.08    -0.01   0.01   0.01
  16   1     0.09  -0.06  -0.05    -0.02  -0.09  -0.09    -0.01   0.02   0.01
  17   6    -0.12  -0.03   0.07     0.03   0.00   0.02    -0.02   0.01  -0.02
  18   1    -0.07   0.01  -0.00    -0.03   0.02  -0.01     0.01  -0.00   0.00
  19   1    -0.03  -0.00  -0.01     0.04  -0.04   0.00    -0.01   0.01  -0.00
  20   1    -0.06  -0.02   0.06     0.02   0.03   0.04    -0.00  -0.00  -0.02
  21   1     0.06  -0.03   0.02     0.05   0.08  -0.02    -0.02  -0.01   0.01
  22   6    -0.07   0.08  -0.07     0.15   0.09  -0.04    -0.03  -0.03   0.02
  23   8    -0.06   0.14  -0.09     0.28   0.31  -0.03    -0.05  -0.08   0.02
  24   7    -0.14   0.07  -0.09     0.00  -0.02  -0.08    -0.01  -0.01   0.04
  25   1    -0.04   0.02  -0.03     0.01   0.06  -0.01    -0.01  -0.02   0.01
  26   1    -0.05  -0.00  -0.02    -0.01  -0.02  -0.01    -0.00   0.00   0.01
  27   7    -0.07   0.08  -0.06     0.22  -0.08   0.02    -0.04   0.01   0.02
  28   1    -0.02   0.02  -0.01     0.02  -0.09   0.00    -0.00   0.02   0.01
  29   1    -0.01   0.02  -0.02     0.08  -0.02   0.00    -0.02   0.00   0.01
  30   6    -0.02   0.03  -0.04    -0.00  -0.00  -0.01     0.03  -0.02   0.02
  31   8    -0.01   0.03  -0.10    -0.01  -0.02  -0.03     0.02  -0.03   0.01
  32   7    -0.07   0.05  -0.04    -0.02  -0.03  -0.06    -0.04  -0.20  -0.26
  33   1    -0.02   0.03   0.00     0.01   0.05   0.06     0.07   0.21   0.32
  34   1    -0.01   0.03   0.03     0.02   0.06   0.09     0.12   0.28   0.43
  35   7    -0.01   0.04   0.01     0.00   0.04   0.04     0.04   0.16   0.23
  36   1    -0.01  -0.01  -0.02    -0.01  -0.05  -0.07    -0.02  -0.28  -0.35
  37   1     0.00  -0.01  -0.03    -0.01  -0.04  -0.06    -0.04  -0.20  -0.28
  38   6     0.04   0.13  -0.09    -0.13  -0.08   0.06     0.03   0.01  -0.01
  39   8    -0.14   0.21  -0.11     0.01   0.00   0.14     0.00  -0.01  -0.02
  40   7     0.19   0.08  -0.16    -0.30  -0.11   0.19     0.06   0.02  -0.03
  41   1     0.03   0.04  -0.05    -0.08  -0.03   0.07     0.02   0.00  -0.01
  42   1     0.07   0.02  -0.04    -0.08  -0.05   0.04     0.01   0.01  -0.01
  43   7     0.12   0.09  -0.03    -0.15  -0.14  -0.15     0.03   0.02   0.04
  44   1     0.07   0.01  -0.00    -0.07  -0.07  -0.06     0.01   0.02   0.01
  45   1     0.00   0.04   0.01     0.00  -0.03  -0.07    -0.00   0.01   0.02
  46   6    -0.11  -0.04   0.04    -0.04  -0.02   0.07     0.02   0.01  -0.03
  47   8    -0.05  -0.12  -0.05     0.05  -0.08   0.08    -0.01   0.02  -0.05
  48   7    -0.19  -0.11   0.14    -0.10  -0.07   0.11     0.03   0.02  -0.03
  49   1    -0.05  -0.05   0.03    -0.03  -0.03   0.02     0.01   0.00  -0.01
  50   1    -0.07  -0.02   0.04    -0.04  -0.01   0.01     0.01   0.00   0.00
  51   7    -0.12   0.08   0.07    -0.09   0.07  -0.01     0.03  -0.00  -0.00
  52   1    -0.05   0.04   0.04    -0.04   0.03   0.01     0.01  -0.00   0.00
  53   1    -0.02   0.04  -0.00    -0.00   0.03   0.00     0.00  -0.00  -0.00
                     25                     26                     27
                        a                      a                      a 
 Frequencies --   174.6696               179.2384               244.3123
 Red. masses --    13.4415                11.8671                11.1103
 Frc consts  --     0.0000                 0.0000                 0.0000
 IR Inten    --    33.5627                12.5652                37.3075
 Raman Activ --     0.0000                 0.0000                 0.0000
 Depolar     --     0.0000                 0.0000                 0.0000
 Atom AN      X      Y      Z        X      Y      Z        X      Y      Z
   1   8     0.02  -0.12  -0.05     0.14  -0.37  -0.46    -0.00   0.08  -0.53
   2   6     0.03  -0.02   0.01     0.08  -0.06   0.07    -0.03   0.17  -0.32
   3   1     0.02  -0.01   0.01     0.10  -0.07   0.09     0.05   0.13  -0.09
   4   1     0.01   0.00   0.01    -0.00   0.03   0.07    -0.02  -0.01  -0.16
   5   6    -0.03   0.05  -0.03    -0.13   0.16  -0.06     0.01  -0.04   0.13
   6   1     0.00   0.03  -0.02     0.00   0.10  -0.07    -0.05  -0.10   0.07
   7   1    -0.03   0.02  -0.01    -0.12   0.05  -0.03     0.11   0.00   0.08
   8   7    -0.00   0.03  -0.00     0.01   0.10   0.07     0.04   0.02   0.12
   9   6     0.02  -0.00  -0.00     0.14  -0.09   0.07     0.07   0.02   0.06
  10   1     0.01  -0.00   0.00     0.07  -0.04   0.02     0.01   0.01   0.02
  11   1     0.01  -0.00   0.00     0.07  -0.01   0.02     0.03  -0.00   0.03
  12   1     0.00  -0.01  -0.00     0.01  -0.06   0.02     0.03   0.01   0.00
  13   6    -0.00   0.05   0.05     0.07   0.22   0.21     0.08  -0.00  -0.01
  14   1    -0.01   0.02   0.02     0.04   0.09  -0.03     0.03  -0.01  -0.00
  15   1     0.01   0.01   0.02    -0.03  -0.02   0.10     0.02   0.03  -0.03
  16   1    -0.00   0.02   0.02     0.05   0.14   0.14     0.04  -0.03  -0.02
  17   6     0.01   0.01  -0.01    -0.02   0.07   0.01     0.00   0.14   0.22
  18   1     0.01  -0.00   0.00     0.05   0.00   0.03    -0.08   0.08   0.01
  19   1    -0.01   0.01  -0.00    -0.05   0.07   0.02     0.06  -0.03   0.04
  20   1    -0.00  -0.00  -0.01    -0.03  -0.03  -0.05     0.02   0.09   0.15
  21   1    -0.00  -0.03  -0.01     0.06  -0.07  -0.08    -0.01   0.05  -0.10
  22   6     0.01   0.07  -0.19     0.06   0.06  -0.01    -0.07  -0.11   0.09
  23   8    -0.09   0.03  -0.05     0.15   0.21  -0.05    -0.14  -0.25   0.11
  24   7     0.24   0.09  -0.22    -0.12   0.01  -0.03     0.17  -0.08   0.11
  25   1     0.09   0.00  -0.02    -0.04   0.04  -0.02     0.06  -0.07   0.05
  26   1     0.09   0.03  -0.11    -0.05  -0.02   0.01     0.07   0.02  -0.01
  27   7    -0.13   0.07  -0.36     0.13  -0.03   0.06    -0.12   0.03   0.03
  28   1    -0.01   0.05  -0.10     0.01  -0.05   0.02    -0.01   0.04  -0.00
  29   1    -0.03   0.06  -0.08     0.05  -0.02   0.01    -0.06  -0.00   0.00
  30   6     0.00  -0.00   0.01     0.01   0.00   0.01    -0.00  -0.00  -0.01
  31   8     0.00  -0.00   0.01     0.02   0.01   0.02    -0.00  -0.01  -0.02
  32   7     0.00  -0.02  -0.02     0.01  -0.01  -0.01    -0.01   0.01   0.01
  33   1     0.01   0.01   0.02     0.01   0.01   0.01    -0.01  -0.00  -0.01
  34   1     0.01   0.02   0.03     0.01   0.00   0.01    -0.01  -0.01  -0.01
  35   7    -0.00   0.01   0.01     0.01  -0.00   0.01     0.00   0.01   0.01
  36   1    -0.00  -0.02  -0.02     0.00  -0.02  -0.02    -0.00  -0.01  -0.02
  37   1    -0.00  -0.01  -0.02     0.00  -0.01  -0.01    -0.00  -0.01  -0.02
  38   6    -0.00  -0.01   0.01    -0.04  -0.05   0.01     0.01   0.03  -0.02
  39   8     0.01  -0.02   0.01     0.02  -0.05   0.03    -0.01   0.01  -0.03
  40   7    -0.01  -0.00   0.01    -0.09  -0.04   0.04     0.03   0.03  -0.03
  41   1    -0.00  -0.00   0.00    -0.03  -0.00   0.01     0.03  -0.02  -0.01
  42   1    -0.01   0.00   0.00    -0.03  -0.01   0.01     0.04  -0.03  -0.02
  43   7    -0.01  -0.01   0.01    -0.07  -0.04  -0.05     0.08  -0.05   0.03
  44   1    -0.00   0.00   0.00    -0.02  -0.03  -0.02    -0.10   0.15   0.02
  45   1    -0.00  -0.00   0.00     0.00  -0.02  -0.03    -0.07   0.09   0.03
  46   6    -0.01  -0.02   0.23    -0.10  -0.02   0.00    -0.04  -0.03   0.03
  47   8     0.12   0.02   0.66    -0.07  -0.08  -0.10     0.01  -0.07  -0.00
  48   7    -0.07  -0.04   0.01    -0.12  -0.05   0.10    -0.06  -0.05   0.06
  49   1    -0.01   0.01   0.02    -0.04  -0.03   0.01    -0.03  -0.01  -0.00
  50   1    -0.05   0.00  -0.10    -0.04  -0.01   0.04    -0.02  -0.01   0.00
  51   7    -0.13  -0.16  -0.02    -0.09   0.07   0.04    -0.06   0.07   0.01
  52   1    -0.04  -0.07  -0.07    -0.04   0.03   0.03    -0.03   0.03   0.02
  53   1    -0.02  -0.06   0.08    -0.02   0.03  -0.01     0.01   0.03   0.00
                     28                     29                     30
                        a                      a                      a 
 Frequencies --   250.4054               268.5687               298.4009
 Red. masses --     3.2431                 4.4973                 3.0238
 Frc consts  --     0.0000                 0.0000                 0.0000
 IR Inten    --   143.9123                 3.4437               170.0031
 Raman Activ --     0.0000                 0.0000                 0.0000
 Depolar     --     0.0000                 0.0000                 0.0000
 Atom AN      X      Y      Z        X      Y      Z        X      Y      Z
   1   8    -0.00   0.02  -0.12     0.02   0.27  -0.14    -0.03  -0.06   0.03
   2   6    -0.01   0.04  -0.08    -0.11   0.04   0.16    -0.01  -0.01   0.00
   3   1     0.01   0.03  -0.02    -0.02  -0.10   0.10    -0.00   0.01  -0.01
   4   1    -0.01  -0.00  -0.04    -0.12   0.07   0.11     0.01  -0.01  -0.00
   5   6     0.01  -0.02   0.03     0.06   0.01  -0.03    -0.02   0.00  -0.00
   6   1    -0.01  -0.03   0.02     0.02   0.01  -0.02    -0.00   0.00  -0.00
   7   1     0.02  -0.00   0.01    -0.00  -0.01  -0.02    -0.01   0.00  -0.00
   8   7     0.02   0.01   0.02     0.07   0.00  -0.03     0.00   0.01   0.01
   9   6     0.02   0.01   0.02    -0.07   0.08   0.10    -0.01   0.01   0.02
  10   1    -0.01   0.02   0.01     0.08  -0.06   0.01    -0.02   0.02   0.01
  11   1     0.01  -0.01   0.02    -0.10   0.12  -0.07     0.00  -0.02   0.02
  12   1     0.01   0.00  -0.01    -0.08   0.03   0.18     0.01   0.01  -0.02
  13   6     0.03   0.00  -0.01     0.04  -0.11  -0.16     0.01   0.01   0.00
  14   1     0.01  -0.00  -0.00     0.17  -0.05  -0.36     0.00   0.00  -0.00
  15   1     0.01   0.01  -0.01    -0.27  -0.26   0.01     0.00   0.01  -0.00
  16   1     0.01  -0.00  -0.01     0.12   0.17   0.18     0.00   0.00  -0.00
  17   6     0.01   0.04   0.04     0.08  -0.08  -0.10     0.01  -0.00   0.01
  18   1    -0.02   0.02  -0.00     0.25  -0.07   0.08    -0.06   0.00  -0.02
  19   1     0.02  -0.01   0.01    -0.12   0.15   0.05     0.05  -0.05  -0.02
  20   1     0.01   0.03   0.04    -0.04  -0.16  -0.21     0.03   0.04   0.05
  21   1    -0.00   0.01  -0.03     0.06   0.03  -0.08    -0.01  -0.02   0.00
  22   6    -0.02  -0.04   0.02    -0.03  -0.04   0.05     0.01   0.00  -0.01
  23   8    -0.04  -0.09   0.01    -0.05  -0.08   0.06     0.01   0.01  -0.00
  24   7     0.05  -0.03   0.03     0.09  -0.05   0.05    -0.02   0.01   0.00
  25   1     0.02  -0.02   0.01     0.04  -0.03   0.03    -0.01   0.01  -0.01
  26   1     0.03   0.03   0.01     0.04   0.02  -0.00    -0.01   0.00   0.01
  27   7    -0.03   0.01   0.01    -0.06   0.02   0.01     0.02   0.01   0.01
  28   1     0.00   0.02   0.00    -0.01   0.01  -0.01    -0.01  -0.04  -0.01
  29   1    -0.01  -0.00   0.00    -0.03   0.00   0.00     0.00  -0.01  -0.00
  30   6    -0.00  -0.00   0.00     0.00   0.01   0.00    -0.00  -0.01  -0.01
  31   8    -0.01  -0.00  -0.00     0.00   0.01   0.01    -0.00  -0.00  -0.00
  32   7     0.00  -0.00  -0.00    -0.00  -0.00  -0.01     0.01   0.01   0.02
  33   1     0.00   0.00   0.00     0.00   0.01   0.01    -0.00  -0.01  -0.01
  34   1     0.00   0.01   0.01     0.00   0.00   0.01    -0.01  -0.02  -0.02
  35   7    -0.01   0.00  -0.00     0.00  -0.01  -0.01     0.00   0.01   0.02
  36   1    -0.00   0.00   0.00     0.00   0.01   0.01    -0.00  -0.02  -0.03
  37   1    -0.00   0.00   0.00     0.00   0.00   0.01    -0.00  -0.01  -0.02
  38   6     0.03  -0.04   0.01    -0.00  -0.00  -0.01     0.00   0.00  -0.00
  39   8    -0.04  -0.00   0.00    -0.02  -0.01  -0.02     0.00  -0.00  -0.00
  40   7     0.03  -0.01  -0.02     0.01   0.00  -0.02     0.00   0.00  -0.00
  41   1    -0.04   0.05   0.01     0.00   0.00  -0.00    -0.00   0.00  -0.00
  42   1    -0.12   0.14   0.05    -0.00   0.01  -0.00     0.00   0.00   0.00
  43   7    -0.20   0.28   0.03     0.00   0.00   0.02    -0.00   0.00  -0.00
  44   1     0.50  -0.58  -0.02     0.01   0.00   0.01     0.00  -0.00  -0.00
  45   1     0.26  -0.34  -0.04    -0.00  -0.00   0.01     0.00  -0.00  -0.00
  46   6    -0.01  -0.00   0.01    -0.00  -0.01   0.02     0.05   0.03   0.04
  47   8    -0.00  -0.01   0.00     0.03  -0.03   0.03     0.02   0.02  -0.01
  48   7    -0.01  -0.01   0.01    -0.02  -0.03   0.03     0.01   0.00   0.00
  49   1    -0.01  -0.00  -0.00    -0.02  -0.00  -0.01    -0.03   0.00  -0.04
  50   1    -0.00  -0.00  -0.00    -0.02  -0.00  -0.03    -0.06   0.03  -0.12
  51   7    -0.01   0.01   0.00    -0.04   0.02  -0.04    -0.19  -0.06  -0.31
  52   1    -0.01   0.00   0.00     0.03   0.02   0.07     0.41   0.10   0.68
  53   1    -0.00   0.00  -0.00     0.02   0.01   0.03     0.22   0.01   0.34
                     31                     32                     33
                        a                      a                      a 
 Frequencies --   314.2060               319.6099               322.7117
 Red. masses --     5.6324                 7.8076                 4.4666
 Frc consts  --     0.0000                 0.0000                 0.0000
 IR Inten    --     2.9927               103.5492               442.6309
 Raman Activ --     0.0000                 0.0000                 0.0000
 Depolar     --     0.0000                 0.0000                 0.0000
 Atom AN      X      Y      Z        X      Y      Z        X      Y      Z
   1   8    -0.04  -0.11   0.24     0.33   0.28  -0.05     0.15   0.15  -0.02
   2   6     0.13   0.03  -0.27     0.17  -0.03   0.02     0.06  -0.02   0.04
   3   1     0.00   0.16  -0.16     0.06  -0.04   0.03     0.02  -0.04   0.03
   4   1     0.14  -0.08  -0.17    -0.00   0.01   0.02    -0.02   0.01   0.03
   5   6    -0.01  -0.04   0.05     0.06  -0.04   0.04     0.02  -0.00  -0.01
   6   1    -0.01  -0.02   0.03     0.02   0.02   0.05     0.01   0.02   0.01
   7   1     0.01   0.02   0.05     0.02  -0.01   0.01    -0.01  -0.00  -0.01
   8   7    -0.06  -0.07   0.05    -0.13  -0.04  -0.05    -0.05  -0.02  -0.04
   9   6     0.09  -0.08  -0.20     0.06  -0.10  -0.30     0.02  -0.06  -0.13
  10   1     0.16  -0.21  -0.16     0.04  -0.11  -0.15     0.02  -0.05  -0.06
  11   1     0.03   0.20  -0.21     0.08   0.07  -0.13     0.03   0.03  -0.06
  12   1    -0.08  -0.04   0.13    -0.02  -0.05  -0.05    -0.01  -0.03  -0.01
  13   6    -0.07  -0.08   0.06    -0.18   0.02   0.21    -0.09  -0.00   0.08
  14   1     0.09  -0.02  -0.22    -0.13   0.03   0.21    -0.06   0.01   0.08
  15   1    -0.22  -0.22   0.08     0.10   0.08   0.07     0.04   0.02   0.03
  16   1     0.05   0.16   0.21    -0.13  -0.06  -0.03    -0.06  -0.02  -0.01
  17   6    -0.16   0.18   0.22    -0.19   0.01  -0.02    -0.08  -0.01  -0.04
  18   1    -0.05   0.12   0.02     0.13  -0.00   0.06     0.03  -0.00   0.01
  19   1    -0.04   0.04   0.07    -0.17   0.15   0.06    -0.06   0.04   0.01
  20   1    -0.07   0.05   0.12    -0.13  -0.12  -0.13    -0.04  -0.04  -0.04
  21   1    -0.07  -0.03   0.05     0.12   0.08   0.00     0.06   0.04  -0.00
  22   6     0.04   0.04  -0.03    -0.04  -0.05   0.03    -0.02  -0.02   0.01
  23   8     0.06   0.08  -0.02    -0.05  -0.08   0.01    -0.02  -0.03   0.00
  24   7    -0.06   0.02  -0.04     0.06  -0.01   0.04     0.03  -0.01   0.02
  25   1    -0.02   0.03  -0.02     0.02  -0.04   0.02     0.01  -0.02   0.01
  26   1    -0.03  -0.01   0.01     0.02  -0.00  -0.01     0.01  -0.00  -0.01
  27   7     0.05  -0.02  -0.02    -0.05   0.02   0.02    -0.02   0.00   0.01
  28   1     0.01  -0.02  -0.00    -0.01   0.01   0.00    -0.00   0.01   0.00
  29   1     0.02   0.01   0.00    -0.02  -0.01  -0.00    -0.01  -0.00   0.00
  30   6     0.00  -0.00  -0.01     0.01   0.03   0.04    -0.02  -0.06  -0.08
  31   8     0.00  -0.00  -0.01    -0.00   0.00   0.01     0.01   0.01  -0.01
  32   7     0.00   0.01   0.00    -0.03  -0.05  -0.09     0.07   0.12   0.22
  33   1    -0.00  -0.00  -0.01     0.02   0.06   0.08    -0.04  -0.12  -0.20
  34   1    -0.00  -0.00  -0.00     0.04   0.11   0.15    -0.11  -0.27  -0.38
  35   7     0.01   0.00   0.01     0.00  -0.08  -0.09     0.00   0.18   0.23
  36   1    -0.00  -0.02  -0.01     0.02   0.15   0.17    -0.05  -0.36  -0.42
  37   1     0.01  -0.01  -0.01     0.01   0.07   0.10    -0.02  -0.16  -0.23
  38   6    -0.01   0.00  -0.00     0.01   0.01   0.00     0.00   0.01   0.01
  39   8    -0.01   0.01   0.00     0.00   0.01   0.00    -0.00   0.01   0.01
  40   7    -0.00  -0.00   0.00     0.00  -0.00   0.01     0.01  -0.01   0.00
  41   1    -0.00   0.00   0.00     0.00  -0.00   0.00    -0.00   0.01   0.01
  42   1    -0.01   0.00   0.00    -0.00  -0.00   0.00    -0.03   0.02   0.01
  43   7    -0.00  -0.00  -0.00     0.01   0.01   0.00     0.00   0.00  -0.00
  44   1     0.01  -0.01  -0.00     0.01  -0.00   0.00     0.01  -0.01  -0.00
  45   1     0.00  -0.01   0.00     0.00   0.00   0.00     0.00  -0.00  -0.00
  46   6     0.02   0.02  -0.00    -0.03  -0.02   0.02    -0.01  -0.01   0.01
  47   8     0.00   0.04   0.02     0.00  -0.05  -0.01     0.00  -0.02  -0.00
  48   7    -0.00   0.02  -0.03    -0.01  -0.02   0.03    -0.00  -0.01   0.01
  49   1     0.02  -0.01   0.02    -0.01   0.01  -0.00    -0.00   0.01  -0.00
  50   1     0.00   0.01   0.01    -0.01  -0.01  -0.03     0.00  -0.00  -0.01
  51   7     0.02  -0.04  -0.01    -0.06   0.06  -0.02    -0.01   0.03   0.01
  52   1     0.02  -0.02  -0.01     0.02   0.05   0.11    -0.02   0.01  -0.00
  53   1    -0.00  -0.02   0.01     0.04   0.03   0.03     0.00   0.01  -0.01
                     34                     35                     36
                        a                      a                      a 
 Frequencies --   340.3895               342.0818               366.4587
 Red. masses --     3.7489                 3.1227                 7.3807
 Frc consts  --     0.0000                 0.0000                 0.0000
 IR Inten    --     4.7809                84.0701                 1.1361
 Raman Activ --     0.0000                 0.0000                 0.0000
 Depolar     --     0.0000                 0.0000                 0.0000
 Atom AN      X      Y      Z        X      Y      Z        X      Y      Z
   1   8    -0.16  -0.24   0.01     0.00   0.04  -0.02    -0.03  -0.08  -0.01
   2   6    -0.00   0.08  -0.18    -0.01  -0.00   0.01    -0.03  -0.14  -0.10
   3   1    -0.00   0.13  -0.09    -0.00  -0.01   0.01     0.00   0.05  -0.06
   4   1     0.06  -0.03  -0.11    -0.01   0.00   0.01    -0.01  -0.11  -0.11
   5   6    -0.02   0.00   0.07     0.00  -0.01  -0.01     0.04  -0.30   0.24
   6   1    -0.03  -0.04   0.04    -0.00  -0.00  -0.00    -0.07  -0.17   0.18
   7   1     0.05   0.01   0.04     0.00  -0.00  -0.00     0.16  -0.13   0.07
   8   7    -0.01   0.02   0.07     0.01   0.00  -0.01    -0.02   0.03   0.03
   9   6    -0.06   0.04   0.14     0.00   0.01  -0.01    -0.12   0.33  -0.17
  10   1     0.08  -0.07   0.02    -0.01   0.01   0.00    -0.15   0.14  -0.07
  11   1    -0.07   0.12  -0.05     0.00  -0.01   0.01    -0.04   0.05  -0.02
  12   1    -0.08   0.00   0.18     0.01   0.00  -0.01     0.06   0.18  -0.10
  13   6     0.07   0.03  -0.14    -0.00  -0.00   0.01     0.13   0.31   0.24
  14   1    -0.06   0.01   0.15     0.01  -0.00  -0.03     0.03   0.18  -0.04
  15   1     0.16   0.20  -0.12    -0.03  -0.03   0.02     0.02  -0.02   0.14
  16   1    -0.00  -0.16  -0.20     0.01   0.03   0.03     0.11   0.17   0.17
  17   6     0.11  -0.03   0.10    -0.01   0.00  -0.02     0.01  -0.19  -0.19
  18   1     0.41  -0.06   0.19    -0.05   0.01  -0.03     0.02  -0.15   0.00
  19   1    -0.19   0.24   0.18     0.03  -0.03  -0.03    -0.00  -0.01  -0.10
  20   1    -0.06  -0.22  -0.27     0.01   0.03   0.03     0.00  -0.08  -0.13
  21   1    -0.10  -0.03   0.03     0.01   0.01  -0.00    -0.01   0.00   0.02
  22   6     0.02   0.01  -0.02     0.01  -0.02   0.01     0.01   0.00  -0.00
  23   8     0.02   0.02  -0.01     0.00  -0.01   0.01     0.01   0.01  -0.00
  24   7    -0.03   0.06  -0.01     0.09   0.34   0.08    -0.02   0.00  -0.01
  25   1    -0.04  -0.04  -0.03    -0.14  -0.41  -0.10    -0.00   0.01  -0.00
  26   1    -0.04  -0.08  -0.02    -0.14  -0.64  -0.22    -0.01   0.00   0.00
  27   7     0.03  -0.02  -0.01     0.00  -0.09  -0.01     0.01   0.00  -0.00
  28   1     0.02   0.02   0.02     0.09   0.19   0.11    -0.00  -0.01  -0.01
  29   1     0.02   0.01   0.00     0.03   0.04   0.02    -0.00  -0.00  -0.00
  30   6     0.00   0.00  -0.00     0.00   0.00   0.00    -0.00  -0.00   0.00
  31   8     0.01   0.01   0.01    -0.00  -0.00  -0.00     0.00  -0.00  -0.00
  32   7    -0.00   0.01   0.01    -0.00  -0.00  -0.00     0.00   0.00   0.01
  33   1    -0.00  -0.00  -0.01     0.00   0.00   0.00    -0.00  -0.00  -0.01
  34   1    -0.01  -0.03  -0.03     0.00   0.01   0.01    -0.01  -0.02  -0.03
  35   7     0.00   0.01   0.01     0.00  -0.01  -0.00    -0.00   0.01   0.01
  36   1    -0.00  -0.02  -0.03     0.00   0.01   0.01    -0.00  -0.01  -0.01
  37   1    -0.00  -0.01  -0.01     0.00   0.00   0.01    -0.01  -0.00  -0.01
  38   6    -0.01   0.01   0.01    -0.04   0.02   0.02     0.00   0.00  -0.01
  39   8    -0.01   0.02   0.01    -0.02   0.03   0.03    -0.00   0.00  -0.01
  40   7     0.01  -0.01   0.00     0.07  -0.07  -0.04    -0.00   0.00   0.00
  41   1    -0.00   0.00   0.00    -0.02   0.04   0.02     0.00  -0.00   0.01
  42   1    -0.02   0.02   0.01    -0.20   0.20   0.07     0.00  -0.01  -0.00
  43   7     0.00  -0.00  -0.01     0.02  -0.06  -0.02     0.00   0.01   0.01
  44   1     0.01  -0.01  -0.00    -0.04   0.01  -0.01     0.00   0.01   0.00
  45   1     0.00   0.00  -0.00    -0.00   0.01  -0.01     0.00  -0.00   0.00
  46   6     0.01   0.01  -0.01    -0.00  -0.00   0.00    -0.00   0.00  -0.00
  47   8    -0.01   0.02  -0.01    -0.00  -0.00  -0.00    -0.00   0.00  -0.00
  48   7     0.00   0.02  -0.02    -0.01  -0.01   0.01    -0.01   0.00   0.00
  49   1     0.01  -0.01   0.01    -0.00  -0.00  -0.00    -0.00  -0.00   0.00
  50   1     0.00   0.00   0.01    -0.00  -0.00   0.00    -0.00   0.00   0.00
  51   7     0.01  -0.03  -0.01    -0.00  -0.01  -0.00     0.00  -0.01   0.00
  52   1     0.04  -0.01   0.04     0.00  -0.00   0.01    -0.00  -0.01  -0.01
  53   1     0.01  -0.01   0.02    -0.00  -0.00   0.00    -0.01  -0.01  -0.00
                     37                     38                     39
                        a                      a                      a 
 Frequencies --   370.1350               401.6439               428.0428
 Red. masses --     2.1980                 2.8217                 8.8311
 Frc consts  --     0.0000                 0.0000                 0.0000
 IR Inten    --     1.9176               193.7601                 5.5084
 Raman Activ --     0.0000                 0.0000                 0.0000
 Depolar     --     0.0000                 0.0000                 0.0000
 Atom AN      X      Y      Z        X      Y      Z        X      Y      Z
   1   8     0.02  -0.02   0.08     0.00   0.01  -0.01     0.18   0.16   0.08
   2   6     0.07   0.04  -0.08    -0.00   0.01   0.01     0.10  -0.17  -0.09
   3   1     0.00   0.04  -0.04     0.00  -0.00   0.00     0.01  -0.04  -0.04
   4   1     0.04  -0.00  -0.03    -0.00   0.00   0.00     0.02  -0.05  -0.03
   5   6     0.03   0.01  -0.01    -0.00   0.01   0.00    -0.11  -0.06  -0.10
   6   1     0.00  -0.01  -0.01     0.00   0.00  -0.00     0.00   0.06  -0.03
   7   1     0.01   0.02   0.02    -0.01   0.01   0.00    -0.09  -0.01  -0.04
   8   7    -0.01  -0.04   0.00    -0.00  -0.01   0.01    -0.28  -0.09  -0.12
   9   6     0.03  -0.05  -0.06     0.00  -0.00  -0.01    -0.29  -0.21   0.01
  10   1    -0.29   0.29   0.11     0.00  -0.01  -0.01    -0.06  -0.03   0.05
  11   1     0.13  -0.37   0.28     0.00   0.01  -0.01    -0.09  -0.10   0.02
  12   1     0.21   0.00  -0.43    -0.00   0.00   0.01    -0.09  -0.07  -0.01
  13   6    -0.03  -0.10  -0.07     0.01  -0.00  -0.01     0.06   0.34  -0.12
  14   1     0.06  -0.05  -0.14     0.00  -0.00  -0.00    -0.02   0.21  -0.12
  15   1    -0.12  -0.12   0.00    -0.00  -0.00  -0.00     0.03   0.07  -0.01
  16   1     0.02   0.05   0.06     0.01  -0.00   0.00     0.15   0.10   0.04
  17   6    -0.12   0.15   0.13    -0.01  -0.02   0.00     0.29  -0.01   0.27
  18   1     0.19   0.07   0.10    -0.01  -0.01  -0.00     0.14   0.04   0.07
  19   1    -0.19   0.21   0.14     0.00  -0.01  -0.00     0.09  -0.13   0.22
  20   1    -0.13  -0.10  -0.08     0.00  -0.00   0.01     0.19   0.10   0.04
  21   1    -0.02  -0.02   0.01    -0.00   0.01   0.01     0.07   0.04   0.03
  22   6     0.01   0.01  -0.00     0.02   0.03   0.03    -0.02  -0.02   0.00
  23   8     0.01   0.01   0.00     0.02   0.00   0.01    -0.01  -0.01  -0.02
  24   7    -0.01   0.01  -0.00    -0.02   0.03   0.02     0.02   0.02   0.01
  25   1    -0.01   0.00  -0.01     0.02   0.02   0.03     0.01  -0.01   0.01
  26   1    -0.01  -0.01  -0.00    -0.06  -0.28  -0.11     0.00  -0.03  -0.02
  27   7     0.01  -0.01  -0.01    -0.05  -0.05  -0.05    -0.00   0.03   0.02
  28   1     0.01   0.00   0.00     0.11   0.27   0.12    -0.03  -0.06  -0.03
  29   1     0.00   0.01   0.00     0.01   0.03   0.00    -0.02  -0.02  -0.00
  30   6    -0.01   0.00   0.01    -0.00  -0.00  -0.00     0.01  -0.01   0.01
  31   8    -0.00   0.01   0.02    -0.00   0.00  -0.00     0.02  -0.01   0.00
  32   7     0.01  -0.00   0.01     0.00   0.00   0.01    -0.03  -0.00   0.01
  33   1     0.00  -0.00   0.00    -0.00  -0.00  -0.00    -0.01   0.00  -0.01
  34   1    -0.00  -0.02  -0.03    -0.00  -0.00  -0.01    -0.01  -0.00   0.02
  35   7    -0.01   0.00   0.01    -0.00   0.01   0.00    -0.01   0.02  -0.02
  36   1    -0.00  -0.02  -0.01    -0.00  -0.02  -0.02     0.01   0.01  -0.02
  37   1     0.00  -0.01  -0.00     0.00   0.00   0.00    -0.02   0.01   0.00
  38   6     0.01  -0.01  -0.01     0.07  -0.05  -0.04     0.00  -0.00  -0.01
  39   8     0.01  -0.02  -0.01     0.03  -0.07  -0.05     0.00   0.00  -0.00
  40   7    -0.01   0.00  -0.00    -0.20   0.16   0.12    -0.01   0.00   0.00
  41   1     0.00  -0.00  -0.00     0.01  -0.04  -0.04    -0.01   0.01  -0.00
  42   1     0.01  -0.01  -0.00     0.55  -0.54  -0.19     0.02  -0.02  -0.01
  43   7    -0.00   0.00   0.00    -0.08   0.14   0.02    -0.00   0.00   0.01
  44   1    -0.01   0.01   0.00     0.09  -0.06   0.01    -0.00   0.00   0.00
  45   1     0.01  -0.01  -0.00     0.05  -0.08   0.00     0.00  -0.01   0.00
  46   6     0.01   0.01  -0.00    -0.00   0.00  -0.01    -0.01  -0.03   0.02
  47   8     0.00   0.01   0.01    -0.00   0.00  -0.01    -0.01  -0.04   0.02
  48   7    -0.01   0.00  -0.01    -0.00  -0.01   0.02     0.02   0.01  -0.04
  49   1     0.01  -0.01   0.01    -0.01  -0.00  -0.00     0.03   0.03   0.03
  50   1    -0.00   0.00   0.00    -0.03   0.01  -0.05     0.05  -0.02   0.02
  51   7     0.01  -0.01  -0.00     0.01  -0.01   0.00    -0.03   0.04   0.01
  52   1     0.01  -0.00   0.00     0.01  -0.00   0.01    -0.03   0.02   0.01
  53   1    -0.00  -0.01   0.01    -0.01  -0.00  -0.00     0.01   0.03  -0.01
                     40                     41                     42
                        a                      a                      a 
 Frequencies --   435.7566               443.3994               451.5975
 Red. masses --     3.1883                 1.5588                 3.0872
 Frc consts  --     0.0000                 0.0000                 0.0000
 IR Inten    --   208.9653                 3.9753               306.0938
 Raman Activ --     0.0000                 0.0000                 0.0000
 Depolar     --     0.0000                 0.0000                 0.0000
 Atom AN      X      Y      Z        X      Y      Z        X      Y      Z
   1   8    -0.01  -0.01  -0.02     0.00  -0.00   0.00     0.02   0.02  -0.00
   2   6    -0.02   0.02   0.02     0.00   0.01   0.01    -0.00  -0.03  -0.02
   3   1    -0.00  -0.00   0.01     0.00   0.00   0.00    -0.00  -0.01  -0.00
   4   1    -0.01   0.01   0.01     0.00   0.00   0.00    -0.01  -0.01  -0.00
   5   6     0.01   0.00   0.02    -0.01   0.01   0.02     0.01  -0.03  -0.01
   6   1     0.00  -0.01   0.00    -0.01  -0.00   0.01    -0.00  -0.01   0.01
   7   1     0.01   0.00   0.01     0.01  -0.00   0.00     0.01  -0.02  -0.01
   8   7     0.03   0.00   0.02    -0.01   0.01   0.00    -0.01   0.02  -0.04
   9   6     0.03   0.01  -0.00     0.01  -0.02  -0.00    -0.02  -0.02   0.03
  10   1     0.00  -0.00  -0.01     0.01  -0.01  -0.00     0.01   0.00   0.02
  11   1     0.01   0.01  -0.00     0.01  -0.00   0.00    -0.01  -0.02   0.01
  12   1     0.01   0.00  -0.00    -0.00  -0.01  -0.00    -0.01  -0.02   0.01
  13   6    -0.01  -0.04   0.01    -0.02   0.00  -0.01    -0.03   0.03   0.02
  14   1     0.00  -0.02   0.00    -0.00  -0.00  -0.01    -0.01   0.01   0.01
  15   1    -0.01  -0.01  -0.00    -0.01   0.00  -0.01     0.00   0.00   0.02
  16   1    -0.01  -0.01  -0.00    -0.00   0.00  -0.00    -0.01   0.01   0.01
  17   6    -0.03  -0.01  -0.03     0.01  -0.00  -0.01     0.04   0.04  -0.00
  18   1    -0.02  -0.01  -0.01    -0.00  -0.01  -0.00     0.02   0.01  -0.00
  19   1    -0.01   0.01  -0.03     0.01  -0.01  -0.00     0.01   0.00   0.01
  20   1    -0.02  -0.01  -0.00     0.01   0.01  -0.00     0.02   0.02  -0.00
  21   1    -0.01   0.01   0.00    -0.00  -0.00  -0.00     0.00  -0.01  -0.02
  22   6    -0.04  -0.04  -0.03     0.00   0.00   0.00     0.05   0.07   0.06
  23   8    -0.03  -0.02  -0.02     0.00   0.00   0.00     0.07   0.04  -0.01
  24   7     0.05   0.10   0.01    -0.00  -0.00   0.00    -0.08  -0.21  -0.03
  25   1     0.01  -0.05   0.00     0.00   0.01   0.00     0.09   0.22   0.08
  26   1    -0.01  -0.11  -0.07    -0.00  -0.00  -0.00     0.02   0.09   0.03
  27   7     0.05   0.09   0.07    -0.00  -0.00  -0.00    -0.12  -0.13  -0.12
  28   1    -0.12  -0.28  -0.13     0.01   0.01   0.01     0.25   0.62   0.30
  29   1    -0.02  -0.03  -0.00    -0.00   0.00  -0.00    -0.00  -0.02  -0.02
  30   6    -0.00   0.01  -0.00     0.05  -0.04   0.02     0.01  -0.00   0.00
  31   8    -0.01   0.00  -0.00     0.06  -0.03   0.01     0.01  -0.01   0.00
  32   7     0.00   0.00  -0.00    -0.07  -0.09  -0.06    -0.01   0.00   0.01
  33   1     0.00  -0.00   0.00     0.01   0.35   0.35    -0.01  -0.01  -0.02
  34   1     0.00  -0.00  -0.01    -0.18  -0.31  -0.30    -0.00   0.01   0.02
  35   7     0.00  -0.01   0.01     0.03   0.11   0.06     0.00   0.01  -0.01
  36   1    -0.00  -0.01   0.00     0.10   0.37   0.27     0.00   0.00  -0.01
  37   1     0.01  -0.00   0.00    -0.18  -0.25  -0.42    -0.00   0.01   0.01
  38   6     0.01  -0.00  -0.02     0.00   0.00  -0.00    -0.01  -0.00   0.04
  39   8     0.01  -0.00  -0.02    -0.00  -0.00  -0.00    -0.01  -0.00   0.04
  40   7    -0.03   0.01   0.02    -0.00   0.00   0.00     0.06   0.01  -0.04
  41   1    -0.02   0.01  -0.00    -0.00   0.00   0.00     0.03  -0.02  -0.01
  42   1     0.10  -0.10  -0.04     0.00  -0.01  -0.00    -0.12   0.16   0.05
  43   7    -0.01   0.03   0.01    -0.00   0.00  -0.00     0.00  -0.05  -0.04
  44   1     0.02  -0.00   0.01     0.00  -0.00   0.00    -0.02  -0.02  -0.02
  45   1     0.02  -0.02   0.01    -0.00   0.00   0.00    -0.03   0.06  -0.02
  46   6     0.00  -0.04   0.08     0.00   0.00   0.00     0.00  -0.00   0.02
  47   8     0.05  -0.07   0.08     0.00   0.00   0.00     0.04  -0.02   0.02
  48   7    -0.03   0.12  -0.26    -0.00   0.00  -0.00    -0.04   0.05  -0.09
  49   1    -0.00  -0.04  -0.06    -0.00  -0.00  -0.00    -0.03  -0.05  -0.05
  50   1     0.30  -0.09   0.74     0.00  -0.00   0.01     0.12  -0.04   0.37
  51   7    -0.11   0.02  -0.09    -0.00  -0.00  -0.00    -0.05  -0.02  -0.05
  52   1    -0.04   0.02   0.01     0.00  -0.00   0.00     0.02  -0.00   0.03
  53   1     0.08   0.02   0.12     0.00  -0.00   0.00     0.03  -0.01   0.07
                     43                     44                     45
                        a                      a                      a 
 Frequencies --   455.2799               460.1552               461.7325
 Red. masses --     8.3684                 2.5284                 7.8042
 Frc consts  --     0.0000                 0.0000                 0.0000
 IR Inten    --     4.3627                 2.9021                 2.9284
 Raman Activ --     0.0000                 0.0000                 0.0000
 Depolar     --     0.0000                 0.0000                 0.0000
 Atom AN      X      Y      Z        X      Y      Z        X      Y      Z
   1   8    -0.01  -0.03  -0.00    -0.03  -0.03   0.02     0.02  -0.01  -0.01
   2   6    -0.00   0.07   0.05    -0.01  -0.04  -0.03     0.03   0.19   0.14
   3   1     0.02   0.03   0.02    -0.01  -0.01  -0.02     0.05   0.08   0.05
   4   1     0.00   0.01   0.00     0.00  -0.01  -0.01     0.02   0.04   0.02
   5   6    -0.01   0.03   0.12     0.03  -0.04  -0.04    -0.13   0.18   0.23
   6   1    -0.03  -0.03   0.07     0.00  -0.02  -0.01    -0.03   0.05   0.05
   7   1     0.06  -0.00   0.04     0.02  -0.02  -0.01    -0.03   0.06   0.08
   8   7    -0.06   0.09   0.02     0.05   0.01  -0.04    -0.18   0.01   0.21
   9   6     0.09  -0.07  -0.04    -0.01   0.02   0.06     0.13  -0.08  -0.24
  10   1     0.03  -0.02  -0.01     0.01   0.02   0.04    -0.02  -0.07  -0.14
  11   1     0.08  -0.02   0.01    -0.03  -0.01   0.01     0.17   0.02  -0.04
  12   1     0.01  -0.06  -0.05    -0.01   0.01   0.03     0.05  -0.05  -0.15
  13   6    -0.10   0.02  -0.08    -0.02  -0.03   0.06     0.04   0.06  -0.26
  14   1    -0.00  -0.02  -0.04    -0.01  -0.01   0.03     0.04   0.02  -0.14
  15   1    -0.07   0.00  -0.03     0.01  -0.02   0.03    -0.06   0.08  -0.15
  16   1    -0.03   0.01  -0.02    -0.04   0.01   0.01     0.12  -0.04  -0.07
  17   6     0.04  -0.04  -0.06    -0.01   0.07  -0.02     0.01  -0.30   0.04
  18   1     0.00  -0.05   0.00     0.01   0.04  -0.01    -0.04  -0.17   0.05
  19   1     0.03  -0.03  -0.03    -0.01   0.04  -0.00     0.05  -0.13  -0.03
  20   1     0.04   0.00  -0.05    -0.02   0.01   0.00     0.06  -0.04  -0.04
  21   1    -0.01  -0.01  -0.00    -0.01  -0.01  -0.00    -0.00  -0.02  -0.02
  22   6     0.01  -0.00  -0.00    -0.08  -0.06  -0.03    -0.01  -0.00  -0.01
  23   8     0.01  -0.00   0.01    -0.04  -0.04  -0.12    -0.00  -0.00  -0.02
  24   7    -0.01   0.01   0.00    -0.01  -0.03   0.00    -0.01  -0.02  -0.00
  25   1    -0.02  -0.02  -0.02     0.36   0.54   0.32     0.08   0.13   0.07
  26   1    -0.01   0.00   0.01    -0.01  -0.40  -0.31    -0.00  -0.07  -0.06
  27   7     0.01   0.01  -0.01     0.04   0.13   0.14     0.01   0.01   0.02
  28   1    -0.01  -0.02  -0.02    -0.05  -0.10  -0.02     0.01   0.03   0.02
  29   1    -0.00   0.01   0.00    -0.01  -0.08  -0.01     0.00  -0.02  -0.00
  30   6     0.24  -0.16   0.07     0.02  -0.01   0.01    -0.06   0.04  -0.01
  31   8     0.26  -0.18   0.08     0.02  -0.02   0.01    -0.06   0.05  -0.02
  32   7    -0.35  -0.05   0.17    -0.03  -0.00   0.01     0.08   0.01  -0.04
  33   1    -0.21   0.09  -0.18    -0.02   0.01  -0.01     0.05  -0.04   0.03
  34   1    -0.20  -0.09   0.24    -0.02  -0.01   0.02     0.05   0.03  -0.05
  35   7     0.01   0.28  -0.27     0.00   0.02  -0.02    -0.01  -0.07   0.06
  36   1     0.11   0.13  -0.27     0.01   0.01  -0.02    -0.03  -0.04   0.05
  37   1    -0.20   0.20   0.05    -0.02   0.01   0.00     0.05  -0.03   0.01
  38   6    -0.00   0.00  -0.00     0.00   0.00   0.00     0.00   0.01  -0.10
  39   8     0.00   0.00  -0.00     0.00   0.00   0.00     0.07   0.07  -0.07
  40   7    -0.01   0.00   0.00     0.01  -0.01  -0.02    -0.10  -0.10   0.01
  41   1     0.00  -0.00   0.00     0.02  -0.02   0.01    -0.01  -0.04   0.07
  42   1     0.00  -0.01  -0.00    -0.08   0.09   0.03    -0.14   0.00   0.01
  43   7     0.00   0.00   0.00     0.02  -0.02  -0.01     0.05   0.00   0.11
  44   1     0.01  -0.01   0.00     0.04  -0.03   0.00     0.16   0.00   0.07
  45   1    -0.01   0.01   0.01    -0.07   0.07   0.02    -0.15   0.06   0.13
  46   6     0.01   0.01  -0.00    -0.01  -0.05   0.01     0.01   0.04  -0.00
  47   8     0.01   0.01  -0.00    -0.05  -0.03   0.03     0.03   0.03  -0.02
  48   7    -0.02  -0.00   0.01     0.09  -0.00  -0.02    -0.06  -0.00   0.03
  49   1    -0.01  -0.01  -0.00     0.03   0.05   0.01    -0.02  -0.03   0.00
  50   1    -0.01   0.01   0.01     0.02  -0.01  -0.13    -0.04   0.01   0.03
  51   7     0.01  -0.02  -0.00    -0.01   0.07   0.02     0.02  -0.05  -0.01
  52   1     0.01  -0.01  -0.01    -0.04   0.05   0.04     0.03  -0.04  -0.03
  53   1    -0.00  -0.01   0.01     0.01   0.05  -0.07    -0.02  -0.04   0.03
                     46                     47                     48
                        a                      a                      a 
 Frequencies --   466.5499               470.1940               475.7885
 Red. masses --     8.1471                 5.9277                 6.1381
 Frc consts  --     0.0000                 0.0000                 0.0000
 IR Inten    --    34.5463                18.9672                 5.9725
 Raman Activ --     0.0000                 0.0000                 0.0000
 Depolar     --     0.0000                 0.0000                 0.0000
 Atom AN      X      Y      Z        X      Y      Z        X      Y      Z
   1   8    -0.05  -0.06   0.04     0.00  -0.02   0.00     0.01   0.03   0.00
   2   6    -0.01   0.05   0.03     0.01   0.06   0.05     0.01   0.02  -0.01
   3   1    -0.00   0.04   0.00     0.02   0.05   0.01    -0.00  -0.02   0.00
   4   1     0.01  -0.00  -0.01     0.01  -0.00  -0.01     0.01   0.03   0.02
   5   6    -0.03   0.04   0.07    -0.04   0.03   0.15    -0.06   0.11  -0.14
   6   1    -0.01  -0.00   0.02    -0.04  -0.02   0.08     0.06   0.11  -0.16
   7   1     0.00   0.01   0.02     0.05  -0.01   0.04    -0.17   0.08  -0.03
   8   7    -0.01   0.02   0.06    -0.09   0.11   0.04     0.07  -0.23   0.14
   9   6     0.07   0.00  -0.04     0.11  -0.09  -0.06    -0.10   0.19  -0.11
  10   1     0.00  -0.01  -0.03     0.04  -0.04  -0.02    -0.11   0.03  -0.10
  11   1     0.05   0.01  -0.00     0.10  -0.02   0.01    -0.06   0.09  -0.07
  12   1     0.02  -0.01  -0.03     0.01  -0.08  -0.06     0.04   0.16   0.00
  13   6     0.01  -0.01  -0.07    -0.10   0.05  -0.11     0.29  -0.06   0.01
  14   1     0.02  -0.01  -0.04     0.00  -0.01  -0.06     0.05   0.04   0.01
  15   1    -0.04  -0.00  -0.03    -0.07   0.02  -0.05     0.11   0.04  -0.03
  16   1     0.02  -0.00  -0.01    -0.01   0.01  -0.03     0.14  -0.07  -0.01
  17   6    -0.01  -0.06  -0.02     0.08  -0.07  -0.05    -0.19  -0.13   0.15
  18   1    -0.02  -0.04   0.01     0.01  -0.08   0.01    -0.06   0.00   0.02
  19   1     0.01  -0.02  -0.03     0.05  -0.05  -0.03    -0.07   0.00   0.02
  20   1     0.00  -0.02  -0.02     0.06   0.01  -0.06    -0.09  -0.07   0.09
  21   1    -0.03  -0.02   0.00    -0.00  -0.00   0.00     0.00  -0.01  -0.02
  22   6     0.02   0.04  -0.01    -0.00  -0.04   0.02    -0.07   0.03  -0.01
  23   8     0.01   0.04   0.01     0.02  -0.02  -0.03    -0.05   0.04  -0.06
  24   7     0.01  -0.01  -0.04    -0.01  -0.02   0.04     0.07  -0.03  -0.05
  25   1    -0.05  -0.09  -0.06     0.05   0.10   0.06     0.09   0.02   0.06
  26   1     0.01   0.08   0.05    -0.01  -0.06  -0.03     0.05   0.02  -0.07
  27   7    -0.01  -0.05  -0.04    -0.02   0.06   0.00    -0.00  -0.06   0.08
  28   1     0.04   0.09   0.05    -0.01  -0.03  -0.05     0.01   0.05   0.10
  29   1     0.00   0.00  -0.00    -0.04   0.00  -0.00     0.04  -0.04   0.01
  30   6    -0.00   0.00   0.00    -0.04   0.03  -0.01     0.05  -0.04   0.02
  31   8    -0.00   0.00  -0.00    -0.04   0.03  -0.01     0.07  -0.04   0.01
  32   7     0.01   0.00  -0.00     0.05   0.01  -0.02    -0.07  -0.03   0.04
  33   1     0.00  -0.00   0.00     0.03  -0.02   0.02    -0.04   0.03  -0.02
  34   1     0.00  -0.00  -0.01     0.03   0.02  -0.03    -0.04  -0.03   0.05
  35   7    -0.00  -0.00   0.00    -0.01  -0.04   0.04     0.01   0.06  -0.05
  36   1    -0.00  -0.00   0.00    -0.02  -0.03   0.03     0.03   0.04  -0.05
[...]
  44   1     0.00   0.00  -0.01    -0.00   0.00   0.00     0.00  -0.00  -0.00
  45   1     0.01   0.00   0.01    -0.00  -0.00  -0.00     0.00  -0.00  -0.00
  46   6     0.00   0.00   0.00     0.01  -0.01  -0.00    -0.00  -0.00   0.00
  47   8    -0.00  -0.00  -0.00     0.00   0.00  -0.00     0.00   0.00  -0.00
  48   7    -0.01   0.00   0.01     0.18  -0.03  -0.13    -0.00  -0.00  -0.00
  49   1     0.03   0.00  -0.02    -0.78  -0.03   0.53    -0.00  -0.00   0.00
  50   1    -0.00  -0.01   0.00     0.10   0.17  -0.02     0.00   0.00  -0.00
  51   7    -0.00  -0.00  -0.00    -0.00   0.00   0.00     0.00   0.00  -0.00
  52   1    -0.00  -0.00   0.00    -0.00  -0.01   0.00    -0.00  -0.01   0.00
  53   1    -0.00   0.00   0.00    -0.01   0.01   0.00    -0.00   0.01   0.00
                    142                    143                    144
                        a                      a                      a 
 Frequencies --  3495.6722              3499.7611              3500.4144
 Red. masses --     1.4484                 1.4495                 1.4400
 Frc consts  --     0.0000                 0.0000                 0.0000
 IR Inten    --    20.5013                16.1526                35.9502
 Raman Activ --     0.0000                 0.0000                 0.0000
 Depolar     --     0.0000                 0.0000                 0.0000
 Atom AN      X      Y      Z        X      Y      Z        X      Y      Z
   1   8    -0.00  -0.00   0.00     0.00   0.00  -0.00    -0.00  -0.00   0.00
   2   6     0.00   0.00  -0.00    -0.00  -0.00   0.00     0.00   0.00  -0.00
   3   1    -0.00   0.00   0.00    -0.00  -0.00   0.00    -0.00   0.00   0.00
   4   1    -0.00  -0.00  -0.00     0.00   0.00  -0.00    -0.00  -0.00   0.00
   5   6     0.00  -0.00  -0.00     0.00   0.00  -0.00     0.00  -0.00   0.00
   6   1     0.00  -0.00   0.00     0.00  -0.00   0.00    -0.00   0.00  -0.00
   7   1    -0.00   0.00  -0.00    -0.00  -0.00   0.00     0.00  -0.00   0.00
   8   7     0.00  -0.00  -0.00    -0.00  -0.00   0.00    -0.00  -0.00   0.00
   9   6    -0.00   0.00   0.00     0.00   0.00  -0.00     0.00  -0.00   0.00
  10   1     0.00   0.00  -0.00    -0.00  -0.00   0.00     0.00  -0.00   0.00
  11   1     0.00   0.00   0.00     0.00  -0.00  -0.00    -0.00   0.00   0.00
  12   1     0.00  -0.00   0.00    -0.00   0.00  -0.00    -0.00   0.00  -0.00
  13   6    -0.00  -0.00  -0.00     0.00   0.00  -0.00    -0.00  -0.00   0.00
  14   1     0.00   0.00   0.00    -0.00  -0.00  -0.00     0.00  -0.00  -0.00
  15   1     0.00   0.00  -0.00     0.00  -0.00  -0.00     0.00   0.00   0.00
  16   1    -0.00  -0.00   0.00    -0.00  -0.00   0.00     0.00   0.00  -0.00
  17   6    -0.00  -0.00  -0.00    -0.00   0.00   0.00     0.00  -0.00   0.00
  18   1     0.00   0.00   0.00     0.00  -0.00  -0.00    -0.00   0.00   0.00
  19   1     0.00   0.00   0.00    -0.00  -0.00  -0.00    -0.00  -0.00  -0.00
  20   1    -0.00  -0.00   0.00     0.00  -0.00   0.00    -0.00   0.00  -0.00
  21   1     0.00   0.00  -0.00    -0.00  -0.00   0.00     0.00   0.00  -0.00
  22   6     0.00   0.00  -0.00    -0.00  -0.00   0.00     0.00   0.00  -0.00
  23   8     0.00  -0.00   0.00     0.00   0.00  -0.00    -0.00  -0.00   0.00
  24   7    -0.00   0.00  -0.00    -0.00   0.00  -0.00     0.00  -0.00   0.00
  25   1    -0.01   0.00   0.01    -0.00  -0.00   0.00     0.00  -0.00  -0.00
  26   1     0.01  -0.00   0.00     0.00  -0.00   0.00    -0.00   0.00  -0.00
  27   7    -0.00   0.00   0.00     0.00   0.00  -0.00    -0.00  -0.00   0.00
  28   1     0.01  -0.01   0.00    -0.00   0.00  -0.00     0.00  -0.00   0.00
  29   1     0.00   0.01  -0.01    -0.00  -0.00   0.00     0.00   0.00  -0.00
  30   6     0.00  -0.00   0.00     0.00  -0.00   0.00    -0.00  -0.00  -0.00
  31   8    -0.00   0.00  -0.00    -0.00   0.00  -0.00     0.00  -0.00   0.00
  32   7     0.00   0.00  -0.00    -0.00   0.00  -0.00     0.00  -0.09   0.05
  33   1    -0.00  -0.00   0.00    -0.00  -0.00   0.00     0.32   0.09  -0.12
  34   1     0.00  -0.00   0.00     0.00  -0.00   0.00    -0.33   0.24  -0.07
  35   7    -0.00  -0.00   0.00     0.00  -0.00  -0.00    -0.15  -0.04   0.03
  36   1     0.00  -0.00   0.00    -0.00   0.00  -0.00     0.49  -0.30   0.20
  37   1     0.00   0.00  -0.00     0.00  -0.00   0.00     0.05   0.44  -0.32
  38   6     0.00   0.00  -0.00    -0.00  -0.00   0.00     0.00  -0.00   0.00
  39   8    -0.00  -0.00   0.00     0.00   0.00  -0.00    -0.00   0.00  -0.00
  40   7    -0.00  -0.00   0.00     0.01   0.01  -0.01    -0.00  -0.00  -0.00
  41   1     0.00   0.00  -0.00    -0.01  -0.01   0.00     0.00   0.00  -0.00
  42   1    -0.00  -0.00   0.00    -0.00  -0.02   0.04    -0.00  -0.00   0.00
  43   7    -0.00  -0.00   0.00    -0.14  -0.11   0.05    -0.00  -0.00   0.00
  44   1     0.00   0.00  -0.00     0.17   0.18  -0.69     0.00   0.00  -0.00
  45   1     0.00   0.00   0.00     0.36   0.21   0.51     0.00   0.00   0.00
  46   6     0.00   0.00  -0.00    -0.00  -0.00   0.00    -0.00   0.00  -0.00
  47   8    -0.00  -0.00   0.00     0.00   0.00  -0.00    -0.00  -0.00   0.00
  48   7    -0.01  -0.01   0.00     0.00  -0.00  -0.00     0.00   0.00   0.00
  49   1     0.02   0.00  -0.01    -0.00  -0.00   0.00     0.00   0.00  -0.00
  50   1     0.02   0.03  -0.00     0.00   0.00  -0.00    -0.00  -0.00  -0.00
  51   7     0.15   0.01  -0.11    -0.00  -0.00   0.00    -0.00   0.00   0.00
  52   1    -0.25  -0.62   0.25     0.00   0.00  -0.00    -0.00   0.00  -0.00
  53   1    -0.30   0.58   0.16     0.00  -0.00  -0.00     0.00  -0.00  -0.00
                    145                    146                    147
                        a                      a                      a 
 Frequencies --  3504.9336              3523.2518              3527.5201
 Red. masses --     1.4615                 1.9618                 1.9275
 Frc consts  --     0.0000                 0.0000                 0.0000
 IR Inten    --     9.5833                20.4279                10.2161
 Raman Activ --     0.0000                 0.0000                 0.0000
 Depolar     --     0.0000                 0.0000                 0.0000
 Atom AN      X      Y      Z        X      Y      Z        X      Y      Z
   1   8    -0.00   0.00  -0.00    -0.00  -0.00   0.00     0.00  -0.00   0.00
   2   6     0.00   0.00   0.00     0.00  -0.00   0.00    -0.00  -0.00  -0.00
   3   1     0.00  -0.00   0.00    -0.00   0.00   0.00     0.00  -0.00  -0.00
   4   1     0.00   0.00  -0.00     0.00   0.00  -0.00     0.00   0.00  -0.00
   5   6    -0.00   0.00  -0.00    -0.00   0.00   0.00    -0.00   0.00  -0.00
   6   1     0.00  -0.00   0.00     0.00  -0.00   0.00     0.00   0.00  -0.00
   7   1    -0.00   0.00  -0.00     0.00   0.00  -0.00    -0.00  -0.00   0.00
   8   7     0.00  -0.00   0.00    -0.00  -0.00   0.00     0.00   0.00  -0.00
   9   6    -0.00   0.00  -0.00    -0.00   0.00   0.00    -0.00   0.00  -0.00
  10   1    -0.00   0.00   0.00     0.00   0.00  -0.00     0.00   0.00   0.00
  11   1    -0.00   0.00   0.00     0.00  -0.00  -0.00     0.00   0.00   0.00
  12   1     0.00  -0.00   0.00     0.00  -0.00   0.00     0.00  -0.00   0.00
  13   6    -0.00  -0.00  -0.00     0.00   0.00   0.00     0.00   0.00  -0.00
  14   1     0.00   0.00   0.00    -0.00  -0.00  -0.00    -0.00  -0.00  -0.00
  15   1    -0.00   0.00   0.00     0.00  -0.00  -0.00     0.00   0.00  -0.00
  16   1    -0.00  -0.00   0.00     0.00   0.00   0.00    -0.00  -0.00   0.00
  17   6    -0.00   0.00  -0.00    -0.00  -0.00   0.00    -0.00  -0.00   0.00
  18   1    -0.00   0.00   0.00     0.00  -0.00  -0.00     0.00  -0.00  -0.00
  19   1    -0.00  -0.00  -0.00    -0.00   0.00  -0.00     0.00   0.00   0.00
  20   1     0.00  -0.00   0.00     0.00  -0.00   0.00    -0.00  -0.00  -0.00
  21   1    -0.00  -0.00   0.00    -0.00   0.00  -0.00    -0.00   0.00  -0.00
  22   6     0.00  -0.00   0.00    -0.00   0.00   0.00     0.00  -0.00   0.00
  23   8    -0.00   0.00  -0.00     0.00  -0.00   0.00    -0.00   0.00  -0.00
  24   7     0.00  -0.00   0.00     0.00  -0.00   0.00    -0.01   0.00  -0.00
  25   1     0.00  -0.00  -0.00    -0.00   0.00   0.00     0.00  -0.00  -0.00
  26   1    -0.00   0.00  -0.00    -0.00   0.00  -0.00     0.02  -0.01   0.01
  27   7    -0.00   0.00  -0.00     0.00  -0.00   0.00     0.00  -0.00   0.00
  28   1     0.00  -0.00   0.00    -0.01   0.00  -0.00    -0.00   0.00  -0.00
  29   1     0.00  -0.00   0.00     0.00  -0.00   0.00     0.00   0.00  -0.00
  30   6     0.00  -0.00   0.00     0.00  -0.00   0.00     0.00  -0.00   0.00
  31   8    -0.00   0.00  -0.00    -0.00   0.00  -0.00    -0.00   0.00  -0.00
  32   7    -0.00  -0.13   0.08    -0.00   0.00  -0.00    -0.00   0.00  -0.00
  33   1     0.50   0.14  -0.19    -0.00  -0.00   0.00    -0.00  -0.00   0.00
  34   1    -0.49   0.35  -0.10     0.00  -0.00   0.00     0.00  -0.00   0.00
  35   7     0.10   0.03  -0.03    -0.00   0.00  -0.00    -0.00   0.00  -0.00
  36   1    -0.31   0.19  -0.13     0.00  -0.00   0.00     0.00  -0.00   0.00
  37   1    -0.04  -0.30   0.22     0.00   0.00  -0.00     0.00   0.00  -0.00
  38   6    -0.00  -0.00   0.00     0.00   0.00  -0.00     0.00   0.01  -0.00
  39   8     0.00   0.00  -0.00    -0.00  -0.00   0.00    -0.00  -0.00   0.00
  40   7     0.00   0.00  -0.00     0.00   0.00  -0.00     0.05   0.12  -0.23
  41   1    -0.00  -0.00   0.00     0.00   0.00  -0.00    -0.10  -0.07   0.00
  42   1    -0.00  -0.00   0.00    -0.00  -0.00   0.00    -0.08  -0.41   0.85
  43   7    -0.00  -0.00   0.00    -0.00  -0.00   0.00     0.01   0.01   0.02
  44   1     0.00   0.00  -0.00     0.00   0.00  -0.00     0.00   0.00  -0.01
  45   1     0.00   0.00   0.00    -0.00  -0.00  -0.00    -0.04  -0.03  -0.06
  46   6     0.00   0.00  -0.00     0.01   0.00  -0.00     0.00   0.00  -0.00
  47   8    -0.00  -0.00   0.00    -0.00  -0.00   0.00    -0.00  -0.00   0.00
  48   7    -0.00   0.00   0.00     0.16   0.22  -0.04    -0.00  -0.00   0.00
  49   1     0.00   0.00  -0.00    -0.14   0.01   0.10     0.00   0.00  -0.00
  50   1    -0.00  -0.00   0.00    -0.46  -0.82   0.05     0.00   0.00  -0.00
  51   7     0.00  -0.00  -0.00     0.01  -0.02  -0.00    -0.00   0.00   0.00
  52   1    -0.00  -0.00   0.00     0.01   0.01  -0.01    -0.00  -0.00   0.00
  53   1    -0.00   0.00   0.00    -0.03   0.06   0.02     0.00  -0.00  -0.00
                    148                    149                    150
                        a                      a                      a 
 Frequencies --  3529.5619              3556.8221              3561.6352
 Red. masses --     1.8986                 2.1717                 2.1828
 Frc consts  --     0.0000                 0.0000                 0.0000
 IR Inten    --    13.4944                11.4287                13.5204
 Raman Activ --     0.0000                 0.0000                 0.0000
 Depolar     --     0.0000                 0.0000                 0.0000
 Atom AN      X      Y      Z        X      Y      Z        X      Y      Z
   1   8     0.00  -0.00   0.00    -0.00  -0.00   0.00     0.00   0.00   0.00
   2   6    -0.00  -0.00   0.00    -0.00   0.00  -0.00    -0.00   0.00  -0.00
   3   1    -0.00  -0.00  -0.00    -0.00   0.00   0.00     0.00   0.00  -0.00
   4   1    -0.00   0.00  -0.00     0.00  -0.00   0.00    -0.00   0.00  -0.00
   5   6    -0.00  -0.00   0.00     0.00   0.00  -0.00     0.00  -0.00  -0.00
   6   1    -0.00   0.00  -0.00    -0.00  -0.00   0.00    -0.00   0.00   0.00
   7   1     0.00   0.00  -0.00    -0.00  -0.00   0.00     0.00   0.00  -0.00
   8   7    -0.00  -0.00   0.00    -0.00  -0.00  -0.00    -0.00  -0.00  -0.00
   9   6     0.00   0.00   0.00     0.00   0.00  -0.00    -0.00   0.00  -0.00
  10   1     0.00   0.00   0.00    -0.00  -0.00   0.00     0.00   0.00  -0.00
  11   1     0.00  -0.00  -0.00    -0.00   0.00   0.00    -0.00   0.00   0.00
  12   1    -0.00   0.00  -0.00    -0.00   0.00   0.00    -0.00   0.00  -0.00
  13   6     0.00   0.00   0.00    -0.00  -0.00  -0.00    -0.00  -0.00  -0.00
  14   1    -0.00  -0.00   0.00     0.00   0.00   0.00     0.00   0.00   0.00
  15   1    -0.00  -0.00  -0.00    -0.00   0.00   0.00    -0.00   0.00   0.00
  16   1     0.00   0.00  -0.00    -0.00  -0.00  -0.00     0.00   0.00  -0.00
  17   6     0.00   0.00   0.00    -0.00  -0.00  -0.00     0.00   0.00   0.00
  18   1     0.00  -0.00  -0.00    -0.00   0.00   0.00     0.00   0.00   0.00
  19   1    -0.00  -0.00  -0.00     0.00   0.00  -0.00    -0.00  -0.00  -0.00
  20   1    -0.00   0.00   0.00    -0.00   0.00  -0.00    -0.00   0.00  -0.00
  21   1     0.00   0.00  -0.00     0.00   0.00  -0.00     0.00  -0.00   0.00
  22   6    -0.00   0.01  -0.01     0.01  -0.00  -0.00     0.00  -0.00  -0.00
  23   8     0.00  -0.00   0.00    -0.00   0.00   0.00    -0.00   0.00  -0.00
  24   7     0.03  -0.00  -0.01     0.28  -0.07  -0.06     0.00  -0.00  -0.00
  25   1    -0.07   0.01   0.06    -0.51   0.06   0.47    -0.01   0.00   0.01
  26   1    -0.03   0.01  -0.01    -0.57   0.20  -0.24    -0.01   0.00  -0.00
  27   7    -0.21   0.13  -0.09     0.02  -0.01   0.01     0.00  -0.00   0.00
  28   1     0.79  -0.47   0.27    -0.08   0.05  -0.02    -0.01   0.00  -0.00
  29   1    -0.01  -0.02   0.08     0.00   0.00  -0.01     0.00   0.00  -0.01
  30   6    -0.00   0.00   0.00    -0.00  -0.00   0.00     0.00   0.00  -0.00
  31   8     0.00  -0.00  -0.00     0.00  -0.00   0.00    -0.00  -0.00   0.00
  32   7    -0.00   0.00  -0.00    -0.00   0.00   0.00     0.00  -0.00  -0.00
  33   1    -0.00  -0.00   0.00     0.00   0.00  -0.00    -0.00  -0.00   0.00
  34   1     0.00  -0.00   0.00     0.00  -0.00   0.00    -0.00   0.00  -0.00
  35   7    -0.00   0.00  -0.00     0.00  -0.00   0.00    -0.00   0.00  -0.00
  36   1     0.00  -0.00   0.00    -0.00   0.00  -0.00     0.00  -0.00   0.00
  37   1     0.00   0.00  -0.00     0.00   0.00  -0.00    -0.00  -0.00   0.00
  38   6     0.00   0.00   0.00     0.00   0.00   0.00     0.00   0.00   0.00
  39   8     0.00  -0.00  -0.00     0.00   0.00  -0.00    -0.00  -0.00   0.00
  40   7     0.00   0.00  -0.00     0.00   0.00  -0.00    -0.00   0.00  -0.00
  41   1    -0.00   0.00  -0.00    -0.01  -0.00   0.00     0.00   0.00  -0.00
  42   1    -0.00  -0.00   0.01    -0.00  -0.01   0.01    -0.00  -0.00   0.00
  43   7     0.00  -0.00   0.00     0.00   0.00   0.00     0.00   0.00   0.00
  44   1     0.00   0.00  -0.00     0.00   0.00  -0.01     0.00   0.00  -0.00
  45   1    -0.00  -0.00  -0.00    -0.00  -0.00  -0.01    -0.00  -0.00  -0.00
  46   6     0.00   0.00  -0.00    -0.00  -0.00   0.00     0.00  -0.01   0.00
  47   8    -0.00  -0.00   0.00     0.00   0.00  -0.00    -0.00   0.00  -0.00
  48   7     0.00   0.00  -0.00    -0.00  -0.00   0.00    -0.01  -0.01   0.00
  49   1    -0.01  -0.00   0.00     0.00   0.00  -0.00     0.01  -0.00  -0.01
  50   1    -0.00  -0.01   0.00     0.00   0.00   0.00     0.03   0.06  -0.00
  51   7    -0.00  -0.00   0.00    -0.00   0.01  -0.00     0.02  -0.30   0.02
  52   1     0.00   0.01  -0.00    -0.00  -0.01   0.00     0.25   0.56  -0.24
  53   1     0.00  -0.00   0.00     0.01  -0.01  -0.00    -0.32   0.58   0.18
                    151                    152                    153
                        a                      a                      a 
 Frequencies --  3564.8885              3566.0428              3570.7616
 Red. masses --     2.1893                 2.1799                 2.1772
 Frc consts  --     0.0000                 0.0000                 0.0000
 IR Inten    --    13.3240                 8.9464                11.4673
 Raman Activ --     0.0000                 0.0000                 0.0000
 Depolar     --     0.0000                 0.0000                 0.0000
 Atom AN      X      Y      Z        X      Y      Z        X      Y      Z
   1   8     0.00   0.00  -0.00    -0.00   0.00  -0.00     0.00  -0.00   0.00
   2   6    -0.00  -0.00   0.00     0.00   0.00   0.00    -0.00   0.00  -0.00
   3   1     0.00  -0.00  -0.00    -0.00  -0.00  -0.00     0.00  -0.00  -0.00
   4   1     0.00   0.00  -0.00    -0.00  -0.00   0.00    -0.00  -0.00   0.00
   5   6    -0.00   0.00  -0.00    -0.00  -0.00   0.00     0.00  -0.00   0.00
   6   1     0.00  -0.00   0.00    -0.00   0.00  -0.00    -0.00   0.00  -0.00
   7   1    -0.00  -0.00  -0.00     0.00   0.00  -0.00     0.00  -0.00   0.00
   8   7    -0.00   0.00  -0.00     0.00   0.00  -0.00    -0.00   0.00  -0.00
   9   6    -0.00   0.00  -0.00    -0.00  -0.00   0.00     0.00  -0.00   0.00
  10   1    -0.00  -0.00   0.00     0.00   0.00  -0.00     0.00   0.00  -0.00
  11   1    -0.00   0.00  -0.00    -0.00  -0.00   0.00     0.00  -0.00   0.00
  12   1     0.00  -0.00   0.00    -0.00  -0.00   0.00    -0.00   0.00  -0.00
  13   6     0.00   0.00  -0.00    -0.00  -0.00   0.00     0.00   0.00   0.00
  14   1    -0.00  -0.00  -0.00     0.00  -0.00   0.00    -0.00  -0.00  -0.00
  15   1    -0.00  -0.00  -0.00     0.00  -0.00  -0.00     0.00  -0.00  -0.00
  16   1    -0.00  -0.00   0.00     0.00   0.00  -0.00     0.00   0.00  -0.00
  17   6     0.00  -0.00   0.00     0.00  -0.00  -0.00     0.00  -0.00   0.00
  18   1     0.00  -0.00  -0.00    -0.00  -0.00   0.00     0.00  -0.00   0.00
  19   1     0.00   0.00   0.00    -0.00  -0.00   0.00     0.00  -0.00   0.00
  20   1    -0.00   0.00  -0.00    -0.00   0.00  -0.00    -0.00   0.00  -0.00
  21   1    -0.00  -0.00   0.00     0.00  -0.00   0.00    -0.00   0.00  -0.00
  22   6    -0.00  -0.00   0.00    -0.00   0.00   0.00    -0.00   0.00  -0.00
  23   8     0.00   0.00  -0.00     0.00   0.00  -0.00     0.00  -0.00   0.00
  24   7     0.00  -0.00  -0.00    -0.00   0.00   0.00    -0.00   0.00   0.00
  25   1    -0.00   0.00   0.00     0.00  -0.00  -0.00     0.00  -0.00  -0.00
  26   1    -0.00   0.00  -0.00     0.01  -0.00   0.00     0.00  -0.00   0.00
  27   7     0.00   0.00  -0.00    -0.00   0.00  -0.00    -0.00   0.00  -0.00
  28   1    -0.00   0.00  -0.00     0.00  -0.00   0.00     0.00  -0.00   0.00
  29   1    -0.00  -0.00   0.00     0.00  -0.00   0.00    -0.00  -0.00   0.00
  30   6     0.00   0.01  -0.01     0.00   0.00  -0.00     0.01  -0.01   0.00
  31   8    -0.00  -0.00   0.00     0.00  -0.00   0.00    -0.00   0.00  -0.00
  32   7     0.17  -0.03  -0.02     0.00  -0.00  -0.00     0.24  -0.04  -0.03
  33   1    -0.37  -0.12   0.15    -0.01  -0.00   0.00    -0.52  -0.17   0.21
  34   1    -0.27   0.21  -0.06    -0.01   0.00  -0.00    -0.41   0.32  -0.10
  35   7    -0.09   0.19  -0.13    -0.00   0.00  -0.00     0.06  -0.13   0.09
  36   1     0.43  -0.24   0.16     0.01  -0.00   0.00    -0.30   0.17  -0.12
  37   1    -0.08  -0.47   0.34    -0.00  -0.01   0.00     0.06   0.32  -0.23
  38   6    -0.00  -0.00  -0.00     0.00   0.00   0.01     0.00   0.00  -0.00
  39   8     0.00  -0.00   0.00    -0.00  -0.00  -0.00    -0.00  -0.00   0.00
  40   7     0.00   0.00  -0.00    -0.00  -0.01   0.01    -0.00   0.00  -0.00
  41   1    -0.00  -0.00   0.00     0.01   0.01  -0.00     0.00   0.00  -0.00
  42   1    -0.00  -0.00   0.00     0.00   0.03  -0.06    -0.00  -0.00   0.00
  43   7    -0.00  -0.00  -0.00     0.06   0.02   0.29    -0.00  -0.00  -0.00
  44   1    -0.00  -0.00   0.01     0.18   0.16  -0.59    -0.00  -0.00   0.00
  45   1     0.01   0.00   0.01    -0.41  -0.24  -0.52     0.00   0.00   0.00
  46   6    -0.00   0.00   0.00     0.00   0.00   0.00    -0.00  -0.00   0.00
  47   8     0.00   0.00  -0.00    -0.00  -0.00  -0.00     0.00   0.00  -0.00
  48   7     0.00   0.00  -0.00    -0.00   0.00   0.00     0.00   0.00  -0.00
  49   1    -0.00  -0.00   0.00     0.00   0.00  -0.00    -0.00  -0.00   0.00
  50   1    -0.00  -0.00   0.00    -0.00  -0.00   0.00    -0.00  -0.00   0.00
  51   7    -0.00   0.00  -0.00    -0.00   0.00  -0.00    -0.00   0.00  -0.00
  52   1    -0.00  -0.00   0.00    -0.00  -0.00   0.00    -0.00  -0.00   0.00
  53   1     0.00  -0.00  -0.00     0.00  -0.00  -0.00     0.00  -0.00  -0.00
