 Entering Gaussian System
 *********************************************
 Gaussian 98:
 frequency output generated by the xtb code
 *********************************************
                         Standard orientation:
 --------------------------------------------------------------------
  Center     Atomic     Atomic              Coordinates (Angstroms)
  Number     Number      Type              X           Y           Z
 --------------------------------------------------------------------
    1          8             0        1.456419   -0.587704    2.046146
    2          6             0        0.165771   -0.159069    1.715441
    3          1             0       -0.403470   -0.135141    2.648061
    4          1             0        0.188523    0.863258    1.314700
    5          6             0       -0.513150   -1.006312    0.638429
    6          1             0        0.179326   -1.063893   -0.203832
    7          1             0       -1.437165   -0.514637    0.326517
    8          7             0       -0.870984   -2.403616    1.011107
    9          6             0        0.319344   -3.155275    1.437620
   10          1             0        1.093202   -3.067842    0.675358
   11          1             0        0.064194   -4.202134    1.590521
   12          1             0        0.713247   -2.737478    2.361692
   13          6             0       -1.448175   -3.033560   -0.188322
   14          1             0       -0.713208   -3.041160   -0.990113
   15          1             0       -2.322368   -2.462496   -0.498912
   16          1             0       -1.744837   -4.057225    0.032021
   17          6             0       -1.890055   -2.410368    2.071128
   18          1             0       -1.493453   -1.968784    2.981340
   19          1             0       -2.196146   -3.432734    2.284106
   20          1             0       -2.751606   -1.837394    1.727997
   21          1             0        1.931650   -0.770933    1.212323
   22          6             0        3.515217   -1.335719   -0.780704
   23          8             0        2.369197   -1.591294   -0.410483
   24          7             0        4.068582   -0.120353   -0.633842
   25          1             0        3.484827    0.668375   -0.367390
   26          1             0        4.963813    0.085163   -1.039607
   27          7             0        4.290419   -2.283927   -1.370711
   28          1             0        5.268940   -2.127264   -1.532783
   29          1             0        3.973179   -3.237002   -1.350786
   30          6             0        2.003957    2.990188    0.580073
   31          8             0        2.407338    2.119264   -0.197105
   32          7             0        2.859335    3.638759    1.401610
   33          1             0        3.831309    3.388564    1.386527
   34          1             0        2.551918    4.331186    2.058837
   35          7             0        0.709371    3.334811    0.650802
   36          1             0        0.396100    4.069616    1.257498
   37          1             0        0.027604    2.859804    0.056657
   38          6             0       -0.615498    1.172841   -1.865556
   39          8             0       -1.076262    1.789140   -0.896693
   40          7             0        0.695654    1.126358   -2.119758
   41          1             0        1.354181    1.526074   -1.441090
   42          1             0        1.059753    0.579030   -2.877716
   43          7             0       -1.431576    0.472325   -2.695922
   44          1             0       -1.096447    0.122991   -3.575518
   45          1             0       -2.424916    0.584680   -2.586376
   46          6             0       -4.283578    0.258045   -0.072945
   47          8             0       -3.538791   -0.709513    0.060378
   48          7             0       -5.606225    0.177867    0.224704
   49          1             0       -5.994265   -0.725386    0.431212
   50          1             0       -6.243701    0.919552   -0.001569
   51          7             0       -3.846537    1.448790   -0.533423
   52          1             0       -4.441601    2.256474   -0.480503
   53          1             0       -2.838518    1.613936   -0.590275
 --------------------------------------------------------------------
     1 basis functions        1 primitive gaussians
     1 alpha electrons        1 beta electrons

 Harmonic frequencies (cm**-1), IR intensities (km*mol⁻¹),
 Raman scattering activities (A**4/amu), Raman depolarization ratios,
 reduced masses (AMU), force constants (mDyne/A) and normal coordinates:
                      1                      2                      3
                        a                      a                      a 
 Frequencies --    16.0456                20.2270                26.0096
 Red. masses --    12.3368                11.7055                12.5607
 Frc consts  --     0.0000                 0.0000                 0.0000
 IR Inten    --     0.2782                 0.2739                 3.3517
 Raman Activ --     0.0000                 0.0000                 0.0000
 Depolar     --     0.0000                 0.0000                 0.0000
 Atom AN      X      Y      Z        X      Y      Z        X      Y      Z
   1   8    -0.04   0.03   0.03    -0.00  -0.25   0.09     0.20  -0.09   0.05
   2   6    -0.01   0.02  -0.05     0.03  -0.12   0.09     0.18  -0.01   0.13
   3   1    -0.02   0.01  -0.02     0.00  -0.05   0.02     0.06  -0.01   0.05
   4   1     0.00   0.00  -0.02     0.03  -0.02   0.05     0.06   0.01   0.06
   5   6     0.04  -0.01  -0.07     0.01   0.01  -0.00     0.10   0.09   0.10
   6   1     0.02  -0.00  -0.01     0.01   0.02  -0.00     0.02   0.03   0.02
   7   1     0.01  -0.00  -0.03     0.01   0.02   0.01     0.03   0.04   0.05
   8   7     0.04  -0.00  -0.06    -0.04  -0.02  -0.16     0.06   0.09   0.04
   9   6     0.02   0.00  -0.01    -0.06  -0.11  -0.23     0.04   0.01  -0.04
  10   1     0.01  -0.00   0.00    -0.02  -0.01  -0.06     0.01   0.01  -0.02
  11   1     0.01   0.00  -0.00    -0.03  -0.03  -0.10     0.00   0.00  -0.03
  12   1    -0.00   0.00  -0.00    -0.01  -0.07  -0.05     0.02  -0.02  -0.01
  13   6     0.06  -0.02  -0.06    -0.06   0.13  -0.21     0.00   0.17   0.02
  14   1     0.02  -0.01  -0.01    -0.02   0.05  -0.06    -0.01   0.05  -0.00
  15   1     0.02  -0.01  -0.03    -0.01   0.05  -0.04     0.00   0.06   0.02
  16   1     0.02  -0.01  -0.02    -0.03   0.03  -0.09    -0.01   0.05  -0.01
  17   6     0.01   0.01  -0.08    -0.03  -0.10  -0.14     0.09   0.06   0.07
  18   1    -0.00   0.00  -0.02    -0.00  -0.06  -0.03     0.04  -0.00   0.02
  19   1     0.00   0.00  -0.02    -0.02  -0.03  -0.07     0.02   0.02   0.01
  20   1     0.00   0.00  -0.03    -0.00  -0.01  -0.02     0.03   0.03   0.04
  21   1     0.00  -0.00   0.02     0.00  -0.04   0.02     0.04  -0.02   0.00
  22   6     0.13  -0.06   0.17     0.08   0.05   0.11     0.04  -0.04  -0.04
  23   8     0.14  -0.08   0.16     0.06   0.04   0.01     0.04  -0.06  -0.05
  24   7     0.08  -0.02   0.08     0.04   0.07   0.13     0.05  -0.06   0.07
  25   1     0.01  -0.01  -0.01     0.00   0.02   0.01     0.01  -0.02   0.03
  26   1     0.02  -0.01   0.02     0.02   0.02   0.06     0.01  -0.01   0.02
  27   7     0.22  -0.10   0.34     0.17   0.05   0.22     0.02   0.01  -0.14
  28   1     0.06  -0.02   0.10     0.05   0.02   0.08     0.01   0.00  -0.03
  29   1     0.07  -0.03   0.11     0.05   0.01   0.06     0.00   0.00  -0.06
  30   6     0.03  -0.08  -0.09    -0.06   0.07  -0.09    -0.13  -0.10   0.08
  31   8    -0.06  -0.10  -0.15    -0.03   0.06  -0.06    -0.14  -0.23   0.22
  32   7     0.10  -0.16  -0.11    -0.07   0.23  -0.21    -0.15   0.02   0.00
  33   1     0.02  -0.06  -0.04    -0.01   0.08  -0.06    -0.05  -0.03   0.04
  34   1     0.04  -0.04  -0.02    -0.02   0.06  -0.06    -0.05  -0.00   0.00
  35   7     0.05  -0.01  -0.04    -0.09  -0.06  -0.02    -0.15  -0.10   0.02
  36   1     0.03  -0.01   0.00    -0.03   0.01  -0.03    -0.04   0.02  -0.05
  37   1    -0.00   0.01  -0.00    -0.02  -0.03  -0.01    -0.03  -0.02  -0.01
  38   6    -0.17   0.17  -0.06     0.01  -0.13  -0.01    -0.05   0.01  -0.11
  39   8    -0.11   0.10   0.03    -0.01  -0.06  -0.08    -0.10   0.07  -0.19
  40   7    -0.20   0.06  -0.09     0.01  -0.13   0.00    -0.01  -0.25   0.12
  41   1    -0.04  -0.01  -0.03    -0.00  -0.02  -0.01    -0.01  -0.08   0.05
  42   1    -0.07   0.05  -0.06     0.01  -0.06   0.02     0.00  -0.06   0.03
  43   7    -0.28   0.39  -0.15     0.03  -0.26   0.07    -0.05   0.23  -0.30
  44   1    -0.09   0.12  -0.05     0.01  -0.08   0.02     0.01   0.05  -0.07
  45   1    -0.07   0.12  -0.03     0.01  -0.07   0.01    -0.01   0.11  -0.12
  46   6    -0.01  -0.03   0.04    -0.00   0.13   0.12    -0.01   0.04   0.00
  47   8     0.03  -0.03  -0.08    -0.02   0.12   0.05     0.05   0.13   0.23
  48   7     0.00  -0.11   0.10     0.03   0.19   0.28    -0.01   0.02   0.00
  49   1     0.01  -0.04   0.00     0.01   0.05   0.09     0.01   0.01   0.05
  50   1    -0.01  -0.03   0.05     0.01   0.06   0.09    -0.01  -0.02  -0.04
  51   7    -0.07   0.02   0.15    -0.01   0.12   0.07    -0.09  -0.03  -0.25
  52   1    -0.03  -0.00   0.07     0.01   0.04   0.03    -0.03  -0.01  -0.10
  53   1    -0.02   0.02   0.03    -0.00   0.02  -0.01    -0.02   0.01  -0.06
                      4                      5                      6
                        a                      a                      a 
 Frequencies --    27.9291                29.7439                36.8661
 Red. masses --    11.1258                12.4341                12.2216
 Frc consts  --     0.0000                 0.0000                 0.0000
 IR Inten    --     0.4264                 3.3827                 3.3171
 Raman Activ --     0.0000                 0.0000                 0.0000
 Depolar     --     0.0000                 0.0000                 0.0000
 Atom AN      X      Y      Z        X      Y      Z        X      Y      Z
   1   8     0.08   0.02   0.24     0.04  -0.18   0.05     0.01  -0.23   0.08
   2   6     0.02   0.00   0.34     0.07  -0.08   0.01     0.05  -0.10   0.04
   3   1     0.02  -0.06   0.11     0.02  -0.01   0.00     0.01  -0.01   0.01
   4   1    -0.01   0.02   0.15     0.04  -0.03   0.00     0.04  -0.03   0.00
   5   6     0.04   0.16   0.21     0.03  -0.06   0.01    -0.01  -0.08   0.05
   6   1     0.01   0.09   0.06     0.01  -0.02   0.00    -0.01  -0.03   0.01
   7   1     0.01   0.05   0.08     0.02  -0.01   0.00    -0.00  -0.01   0.03
   8   7     0.06   0.10  -0.00    -0.03  -0.05   0.01    -0.06  -0.07   0.07
   9   6     0.04   0.08   0.02    -0.06  -0.09   0.02    -0.06  -0.13  -0.05
  10   1     0.03   0.06   0.03    -0.01  -0.04   0.01    -0.03  -0.05  -0.03
  11   1     0.02   0.02  -0.04    -0.03  -0.02   0.01    -0.03  -0.04  -0.01
  12   1    -0.02  -0.01   0.03    -0.01  -0.03   0.01     0.01  -0.05  -0.02
  13   6     0.21   0.23  -0.14    -0.04  -0.03   0.01    -0.20  -0.02   0.12
  14   1     0.09   0.10  -0.02    -0.01  -0.02   0.01    -0.08  -0.01   0.01
  15   1     0.06   0.07  -0.05    -0.00   0.00   0.00    -0.06   0.00   0.06
  16   1     0.06   0.06  -0.09    -0.02  -0.00   0.00    -0.06  -0.00   0.04
  17   6    -0.05  -0.08  -0.11    -0.03   0.00   0.01     0.04  -0.02   0.17
  18   1    -0.05  -0.04  -0.01    -0.01  -0.00   0.00     0.05  -0.02   0.04
  19   1    -0.00  -0.04  -0.07    -0.02   0.00   0.00    -0.00  -0.00   0.05
  20   1    -0.02  -0.03  -0.04    -0.00   0.01  -0.00     0.01   0.01   0.08
  21   1     0.01   0.03   0.05     0.01  -0.05   0.01     0.01  -0.06   0.02
  22   6    -0.07   0.03  -0.03    -0.01  -0.07  -0.02     0.01   0.03   0.02
  23   8    -0.08   0.14   0.08     0.01  -0.13   0.01     0.05  -0.02   0.10
  24   7    -0.02   0.02  -0.21    -0.03  -0.07   0.02    -0.07   0.09  -0.14
  25   1     0.01   0.02  -0.07    -0.01  -0.03   0.02    -0.02   0.02  -0.04
  26   1    -0.01  -0.02  -0.08    -0.01  -0.01   0.00    -0.02   0.03  -0.05
  27   7    -0.16  -0.08   0.04    -0.01  -0.03  -0.10     0.06   0.02   0.09
  28   1    -0.04  -0.04  -0.01    -0.01  -0.00  -0.03     0.01   0.02   0.01
  29   1    -0.06  -0.02   0.05     0.00  -0.01  -0.04     0.03   0.00   0.06
  30   6     0.05  -0.08  -0.04     0.07   0.16  -0.05     0.02   0.05  -0.03
  31   8     0.06   0.04  -0.20     0.02  -0.01   0.14     0.08   0.23  -0.20
  32   7     0.09  -0.08  -0.08     0.16   0.48  -0.37     0.00   0.05  -0.01
  33   1     0.03  -0.00  -0.06     0.04   0.11  -0.09     0.01   0.06  -0.05
  34   1     0.03  -0.06   0.02     0.05   0.14  -0.11    -0.01  -0.01   0.02
  35   7     0.03  -0.25   0.17     0.07   0.11   0.05    -0.02  -0.14   0.13
  36   1     0.01  -0.07   0.06     0.03   0.09  -0.05    -0.02  -0.07   0.07
  37   1     0.01  -0.05   0.03     0.01   0.01   0.04    -0.00  -0.04   0.03
  38   6    -0.06  -0.03   0.03    -0.04   0.06   0.16     0.07   0.09  -0.10
  39   8    -0.02  -0.05   0.06    -0.02   0.07   0.20     0.07  -0.14   0.04
  40   7    -0.08   0.01  -0.05    -0.04  -0.04   0.21     0.06   0.30  -0.21
  41   1    -0.01   0.01  -0.03    -0.01  -0.02   0.06     0.02   0.07  -0.05
  42   1    -0.03   0.01  -0.02    -0.02  -0.00   0.05     0.02   0.13  -0.09
  43   7    -0.09  -0.07   0.09    -0.08   0.18   0.11     0.09   0.16  -0.18
  44   1    -0.04  -0.02   0.02    -0.02   0.04   0.03     0.02   0.10  -0.07
  45   1    -0.02  -0.03   0.04    -0.02   0.06   0.03     0.02   0.02  -0.03
  46   6    -0.01  -0.02  -0.10    -0.02  -0.05  -0.10    -0.04  -0.02   0.02
  47   8     0.03   0.02  -0.07     0.02  -0.02  -0.08    -0.09  -0.01   0.30
  48   7    -0.03  -0.09  -0.20    -0.05  -0.15  -0.28    -0.07   0.08  -0.10
  49   1    -0.00  -0.03  -0.06    -0.01  -0.05  -0.09    -0.03   0.04   0.02
  50   1    -0.01  -0.03  -0.06    -0.02  -0.04  -0.08    -0.01   0.02  -0.07
  51   7    -0.04   0.00  -0.07    -0.03  -0.01   0.00     0.03  -0.12  -0.19
  52   1    -0.02  -0.01  -0.02    -0.02  -0.01  -0.00     0.02  -0.03  -0.10
  53   1    -0.01   0.01  -0.00    -0.01   0.01   0.03     0.01  -0.04  -0.02
                      7                      8                      9
                        a                      a                      a 
 Frequencies --    41.1498                43.4105                58.2131
 Red. masses --    12.1280                12.3813                12.4065
 Frc consts  --     0.0000                 0.0000                 0.0000
 IR Inten    --     1.4972                 0.7404                 4.7612
 Raman Activ --     0.0000                 0.0000                 0.0000
 Depolar     --     0.0000                 0.0000                 0.0000
 Atom AN      X      Y      Z        X      Y      Z        X      Y      Z
   1   8     0.13  -0.07  -0.15     0.09  -0.21   0.15     0.10  -0.14   0.12
   2   6     0.13   0.01  -0.08     0.16  -0.05  -0.02     0.10  -0.04   0.14
   3   1     0.05   0.02  -0.02     0.02   0.03  -0.02     0.03  -0.02   0.04
   4   1     0.05  -0.00  -0.03     0.09  -0.03  -0.03     0.04  -0.01   0.06
   5   6     0.03   0.03  -0.03     0.15  -0.05  -0.02     0.06   0.04   0.10
   6   1    -0.01  -0.00  -0.02     0.06  -0.05   0.01     0.01   0.02   0.03
   7   1     0.01   0.02   0.01     0.06   0.01  -0.03     0.02   0.03   0.04
   8   7    -0.00   0.05  -0.01    -0.02   0.01   0.05     0.03   0.03   0.01
   9   6     0.01  -0.01  -0.13    -0.12  -0.08   0.18    -0.01  -0.03   0.00
  10   1    -0.02  -0.01  -0.06    -0.02  -0.06   0.07     0.00  -0.00   0.01
  11   1    -0.01  -0.00  -0.03    -0.07  -0.01   0.07    -0.01  -0.01  -0.02
  12   1     0.03  -0.01  -0.05    -0.04  -0.02   0.05    -0.01  -0.03   0.01
  13   6    -0.16   0.08   0.05     0.00  -0.02   0.05     0.05   0.11  -0.05
  14   1    -0.07   0.01  -0.01     0.02  -0.04   0.03     0.02   0.04  -0.01
  15   1    -0.05   0.03   0.04     0.02   0.01  -0.01     0.02   0.04  -0.01
  16   1    -0.05   0.03   0.02    -0.03   0.01   0.03     0.01   0.03  -0.03
  17   6     0.10   0.09   0.10    -0.09   0.18  -0.02    -0.01  -0.01  -0.02
  18   1     0.06   0.02   0.02    -0.03   0.06  -0.01    -0.01  -0.01   0.00
  19   1     0.02   0.03   0.03    -0.06   0.06   0.01    -0.00  -0.01  -0.02
  20   1     0.03   0.04   0.05    -0.00   0.07  -0.04    -0.00  -0.00  -0.01
  21   1     0.02  -0.02  -0.04     0.04  -0.08   0.05     0.02  -0.03   0.03
  22   6     0.12   0.04  -0.00     0.05  -0.04  -0.04    -0.07  -0.03   0.06
  23   8     0.09   0.02  -0.15     0.19  -0.24   0.25    -0.10  -0.09  -0.02
  24   7     0.09   0.06   0.06    -0.14   0.07  -0.28     0.00  -0.11   0.47
  25   1     0.01   0.01  -0.01    -0.05  -0.00  -0.04    -0.01  -0.03   0.12
  26   1     0.03   0.02   0.04    -0.07   0.05  -0.12    -0.01  -0.01   0.12
  27   7     0.22   0.06   0.10     0.09   0.05  -0.14    -0.11   0.10  -0.19
  28   1     0.06   0.02   0.05     0.01   0.06  -0.09    -0.03   0.02  -0.03
  29   1     0.06   0.01   0.01     0.07  -0.00   0.01    -0.04   0.03  -0.12
  30   6     0.03  -0.05  -0.01    -0.12   0.01   0.03    -0.02   0.01  -0.09
  31   8    -0.02  -0.01  -0.09    -0.13   0.06  -0.01    -0.06  -0.10  -0.01
  32   7     0.05  -0.25   0.13    -0.15  -0.08   0.13    -0.04  -0.12   0.02
  33   1     0.01  -0.07   0.01    -0.04  -0.01   0.03    -0.01  -0.03  -0.00
  34   1     0.03  -0.05   0.02    -0.04  -0.02   0.03     0.01   0.04  -0.07
  35   7     0.06   0.08  -0.05    -0.12   0.04   0.01     0.03   0.25  -0.32
  36   1     0.02  -0.01   0.03    -0.04  -0.00   0.02     0.01   0.05  -0.06
  37   1     0.01   0.03  -0.01    -0.03   0.02  -0.00    -0.00   0.03  -0.05
  38   6    -0.11  -0.06   0.14    -0.05  -0.01  -0.01    -0.00   0.05  -0.05
  39   8    -0.07   0.06   0.11    -0.05   0.05  -0.04     0.03  -0.12   0.07
  40   7    -0.14  -0.04   0.05    -0.06   0.06  -0.07    -0.03   0.36  -0.28
  41   1    -0.03   0.00  -0.01    -0.02   0.03  -0.02    -0.00   0.06  -0.06
  42   1    -0.05  -0.05   0.03    -0.01   0.01  -0.01    -0.01   0.11  -0.08
  43   7    -0.16  -0.23   0.32    -0.04  -0.12   0.08     0.00  -0.04   0.02
  44   1    -0.06  -0.08   0.09    -0.02  -0.05   0.03    -0.02   0.03  -0.02
  45   1    -0.04  -0.06   0.10    -0.01  -0.06   0.04    -0.00  -0.06   0.05
  46   6    -0.09   0.04  -0.07     0.08   0.09  -0.08     0.01  -0.03   0.01
  47   8    -0.05   0.12   0.16     0.16   0.12  -0.28     0.01  -0.04  -0.01
  48   7    -0.15  -0.03  -0.34     0.12  -0.01   0.03     0.00  -0.05  -0.02
  49   1    -0.03  -0.01  -0.07     0.05  -0.02  -0.02     0.00  -0.02  -0.01
  50   1    -0.04  -0.02  -0.12     0.02  -0.01   0.04     0.00  -0.01  -0.00
  51   7    -0.10   0.03  -0.12    -0.01   0.17   0.03     0.01  -0.02   0.05
  52   1    -0.04  -0.00  -0.08    -0.01   0.04   0.04     0.00  -0.01   0.01
  53   1    -0.03   0.02   0.01    -0.00   0.05  -0.01     0.00  -0.01   0.02
                     10                     11                     12
                        a                      a                      a 
 Frequencies --    59.1337                61.2557                74.3659
 Red. masses --    12.9822                12.8017                13.5507
 Frc consts  --     0.0000                 0.0000                 0.0000
 IR Inten    --     3.9316                 6.2942                 2.5038
 Raman Activ --     0.0000                 0.0000                 0.0000
 Depolar     --     0.0000                 0.0000                 0.0000
 Atom AN      X      Y      Z        X      Y      Z        X      Y      Z
   1   8     0.16   0.06  -0.17    -0.10  -0.06   0.19    -0.18   0.13   0.12
   2   6     0.10   0.04  -0.02    -0.06  -0.03   0.08    -0.12   0.08  -0.06
   3   1     0.05  -0.01   0.01    -0.04  -0.01   0.01    -0.06   0.04  -0.04
   4   1     0.01   0.02   0.01    -0.00  -0.01   0.02    -0.03   0.02  -0.03
   5   6     0.04   0.07  -0.00    -0.00  -0.00   0.02    -0.01   0.02  -0.08
   6   1    -0.00   0.03  -0.01     0.01   0.02   0.01     0.01   0.00  -0.01
   7   1     0.01   0.02   0.02    -0.00  -0.00   0.01    -0.00  -0.01  -0.04
   8   7     0.06   0.07  -0.03     0.03  -0.03  -0.07     0.01   0.02  -0.07
   9   6     0.06   0.06  -0.04     0.04  -0.05  -0.14     0.03   0.05  -0.06
  10   1     0.02   0.02  -0.01     0.01   0.01  -0.04     0.01   0.02  -0.01
  11   1     0.02   0.02  -0.01     0.02  -0.02  -0.07     0.02   0.01  -0.02
  12   1     0.02   0.02  -0.01     0.01  -0.04  -0.03     0.00   0.02  -0.02
  13   6     0.07   0.08  -0.04     0.01   0.05  -0.09     0.01  -0.00  -0.05
  14   1     0.02   0.03  -0.01    -0.00   0.04  -0.03    -0.00   0.01  -0.02
  15   1     0.02   0.02  -0.01    -0.00   0.01  -0.01    -0.00  -0.01  -0.01
  16   1     0.02   0.02  -0.02     0.01   0.01  -0.05     0.02  -0.00  -0.01
  17   6     0.05   0.03  -0.03     0.05  -0.12  -0.04     0.02   0.01  -0.06
  18   1     0.01   0.01  -0.01     0.02  -0.06  -0.00     0.01  -0.00  -0.02
  19   1     0.02   0.01  -0.01     0.02  -0.04  -0.03     0.01   0.00  -0.02
  20   1     0.01   0.00  -0.01     0.01  -0.03   0.01     0.01   0.01  -0.01
  21   1     0.01   0.01  -0.06    -0.01  -0.00   0.06    -0.01   0.03   0.05
  22   6    -0.07  -0.20  -0.04    -0.02  -0.02  -0.01     0.14  -0.02   0.01
  23   8    -0.16  -0.18  -0.24     0.03   0.03   0.18     0.25  -0.02   0.29
  24   7    -0.17  -0.16  -0.21    -0.04   0.02  -0.36     0.18  -0.01  -0.12
  25   1    -0.05  -0.04  -0.06     0.01   0.01  -0.07     0.05  -0.01   0.00
  26   1    -0.01  -0.06   0.01    -0.02  -0.01  -0.12     0.02   0.00  -0.09
  27   7     0.09  -0.32   0.35    -0.07  -0.13   0.08     0.02  -0.01  -0.19
  28   1     0.03  -0.08   0.12    -0.02  -0.04  -0.02    -0.00  -0.00  -0.09
  29   1     0.02  -0.08   0.11    -0.01  -0.04   0.09     0.01  -0.00  -0.02
  30   6    -0.08   0.05   0.09     0.02   0.11  -0.05     0.02  -0.10   0.07
  31   8    -0.09  -0.04   0.21     0.04   0.04   0.06    -0.10  -0.32   0.25
  32   7    -0.10   0.16   0.02    -0.07  -0.11   0.22     0.13   0.07  -0.18
  33   1    -0.03   0.02   0.04    -0.01  -0.01   0.06     0.01  -0.07   0.01
  34   1    -0.03   0.03   0.01    -0.01   0.08  -0.05     0.04  -0.02  -0.00
  35   7    -0.09   0.06   0.05     0.09   0.44  -0.44     0.04  -0.02   0.09
  36   1    -0.02   0.05  -0.02     0.01   0.07  -0.06     0.04   0.07  -0.05
  37   1    -0.02   0.01   0.01     0.02   0.07  -0.07     0.00   0.01   0.02
  38   6     0.03   0.08   0.00     0.03  -0.00   0.06    -0.01   0.03   0.02
  39   8    -0.04   0.04   0.00     0.02   0.01   0.06    -0.04  -0.01   0.04
  40   7     0.02   0.34  -0.08     0.04  -0.13   0.16    -0.03   0.28  -0.12
  41   1    -0.00   0.07  -0.00     0.01  -0.02   0.04    -0.01   0.04  -0.01
  42   1     0.02   0.07  -0.00     0.01  -0.02   0.03    -0.00   0.05  -0.01
  43   7     0.11  -0.10   0.07     0.02   0.09  -0.01     0.04  -0.17   0.13
  44   1     0.04  -0.01   0.01     0.01   0.03  -0.00     0.01  -0.02   0.02
  45   1     0.03  -0.06   0.02     0.01   0.05  -0.02     0.01  -0.07   0.04
  46   6    -0.01  -0.03   0.01    -0.02  -0.03   0.04    -0.09  -0.01   0.01
  47   8     0.02  -0.02   0.01    -0.03  -0.02   0.17    -0.13  -0.00   0.12
  48   7     0.00  -0.06   0.06    -0.03  -0.01  -0.02    -0.08   0.08   0.12
  49   1     0.01  -0.02   0.02    -0.01   0.00   0.02    -0.03   0.03   0.08
  50   1    -0.01  -0.02   0.01    -0.01  -0.01  -0.02    -0.02   0.02   0.01
  51   7    -0.04  -0.03  -0.02     0.00  -0.07  -0.04    -0.10  -0.09  -0.25
  52   1    -0.02  -0.01  -0.01     0.00  -0.02  -0.03    -0.02  -0.02  -0.08
  53   1    -0.01  -0.00  -0.01     0.00  -0.02   0.00    -0.03  -0.02  -0.04
                     13                     14                     15
                        a                      a                      a 
 Frequencies --    75.7126                81.2663                86.2275
 Red. masses --    12.7390                12.6448                12.3889
 Frc consts  --     0.0000                 0.0000                 0.0000
 IR Inten    --    10.5429                 3.4235                 4.0049
 Raman Activ --     0.0000                 0.0000                 0.0000
 Depolar     --     0.0000                 0.0000                 0.0000
 Atom AN      X      Y      Z        X      Y      Z        X      Y      Z
   1   8     0.07   0.00  -0.04     0.12  -0.03  -0.10     0.07   0.12  -0.13
   2   6     0.07   0.07   0.01     0.10   0.02  -0.02    -0.02  -0.04   0.03
   3   1     0.03   0.02   0.01     0.04   0.00   0.00     0.02  -0.05   0.02
   4   1     0.03   0.02   0.01     0.03   0.01   0.00    -0.05  -0.01   0.02
   5   6    -0.01   0.12   0.01     0.02   0.07  -0.01    -0.01  -0.06   0.04
   6   1    -0.01   0.03  -0.00     0.00   0.01  -0.01    -0.01  -0.00   0.01
   7   1     0.00   0.05   0.01     0.02   0.04  -0.00    -0.01  -0.03   0.02
   8   7    -0.07   0.15  -0.01    -0.07   0.10  -0.02     0.07  -0.09   0.03
   9   6    -0.09   0.09  -0.02    -0.14   0.06   0.11     0.09   0.02   0.17
  10   1    -0.03   0.02  -0.00    -0.02  -0.00   0.05     0.04   0.02   0.07
  11   1    -0.04   0.03  -0.01    -0.06   0.02   0.03     0.05   0.00   0.05
  12   1    -0.02   0.02  -0.00    -0.06   0.02   0.04    -0.01   0.03   0.05
  13   6    -0.10   0.17  -0.01     0.02   0.09  -0.06     0.24  -0.15  -0.02
  14   1    -0.03   0.05  -0.01     0.03   0.01   0.00     0.10  -0.03   0.02
  15   1    -0.03   0.06   0.00     0.02   0.03  -0.04     0.07  -0.06  -0.04
  16   1    -0.04   0.05  -0.01    -0.01   0.03  -0.02     0.08  -0.05  -0.01
  17   6    -0.07   0.17  -0.00    -0.17   0.16  -0.11    -0.05  -0.15  -0.08
  18   1    -0.02   0.06  -0.01    -0.07   0.07  -0.03    -0.06  -0.03  -0.01
  19   1    -0.02   0.05   0.01    -0.05   0.05  -0.02     0.00  -0.05  -0.03
  20   1    -0.02   0.04  -0.01    -0.04   0.04  -0.07    -0.02  -0.06  -0.05
  21   1     0.01   0.00  -0.01     0.01  -0.02  -0.03    -0.00   0.03  -0.04
  22   6     0.13   0.01  -0.04     0.05  -0.03  -0.02     0.03  -0.01  -0.04
  23   8     0.16   0.03   0.02     0.05  -0.07  -0.06     0.04  -0.11  -0.09
  24   7     0.14   0.02  -0.13     0.04  -0.03   0.05    -0.08   0.04  -0.04
  25   1     0.04   0.00  -0.02     0.01  -0.01   0.01    -0.04  -0.00  -0.01
  26   1     0.03   0.00  -0.04     0.01  -0.00   0.02    -0.02   0.03   0.00
  27   7     0.11  -0.02  -0.05     0.08   0.01  -0.04     0.15   0.06   0.00
  28   1     0.03  -0.01  -0.02     0.02   0.01  -0.01     0.04   0.04   0.01
  29   1     0.03  -0.00   0.01     0.02   0.00  -0.03     0.06   0.01  -0.00
  30   6    -0.03  -0.05   0.02     0.11   0.06  -0.02    -0.09  -0.00   0.00
  31   8     0.01  -0.10   0.10     0.20   0.18  -0.10    -0.15  -0.05   0.03
  32   7    -0.07   0.03   0.00     0.05  -0.03   0.13    -0.07  -0.00  -0.03
  33   1    -0.02   0.01   0.02     0.03   0.05  -0.01    -0.02   0.00  -0.02
  34   1    -0.03   0.01  -0.01     0.01   0.03  -0.00    -0.01   0.02  -0.03
  35   7    -0.04  -0.06  -0.06     0.10   0.02  -0.04    -0.08   0.07  -0.03
  36   1    -0.02  -0.01  -0.03     0.01  -0.05   0.04    -0.02   0.00   0.01
  37   1    -0.00  -0.04  -0.01     0.02  -0.01   0.01    -0.03  -0.02   0.03
  38   6     0.08  -0.10  -0.03    -0.01  -0.03   0.11    -0.02  -0.11   0.08
  39   8     0.07  -0.30   0.07    -0.06  -0.15   0.18     0.10  -0.36   0.31
  40   7     0.09  -0.04  -0.02     0.00  -0.05   0.19    -0.05  -0.07  -0.03
  41   1     0.02  -0.03   0.01     0.00   0.00   0.04    -0.01  -0.03  -0.01
  42   1     0.03   0.03  -0.03     0.01   0.03   0.02    -0.03   0.05  -0.06
  43   7     0.11   0.01  -0.15     0.03   0.07  -0.01    -0.13   0.13  -0.00
  44   1     0.03   0.04  -0.06     0.02   0.03  -0.00    -0.06   0.07  -0.02
  45   1     0.03  -0.00  -0.04     0.01   0.00  -0.01    -0.03   0.02   0.05
  46   6    -0.14  -0.07   0.07    -0.12  -0.11  -0.04    -0.01   0.16  -0.03
  47   8    -0.26  -0.17  -0.07    -0.14  -0.14  -0.14    -0.13   0.11   0.06
  48   7    -0.20  -0.04  -0.16    -0.04  -0.01   0.38    -0.04   0.36  -0.09
  49   1    -0.08  -0.02  -0.11    -0.01   0.00   0.13    -0.04   0.12  -0.01
  50   1    -0.03   0.02  -0.01    -0.02  -0.01   0.10     0.02   0.11  -0.05
  51   7     0.03   0.02   0.50    -0.20  -0.20  -0.36     0.13   0.09  -0.12
  52   1     0.03   0.02   0.14    -0.04  -0.05  -0.06     0.06   0.04  -0.03
  53   1     0.01  -0.03   0.10    -0.05  -0.05  -0.08     0.04  -0.00   0.01
                     16                     17                     18
                        a                      a                      a 
 Frequencies --    93.5055               101.4205               111.4727
 Red. masses --    13.5627                11.9319                12.3648
 Frc consts  --     0.0000                 0.0000                 0.0000
 IR Inten    --     8.3489                 4.3026                13.4042
 Raman Activ --     0.0000                 0.0000                 0.0000
 Depolar     --     0.0000                 0.0000                 0.0000
 Atom AN      X      Y      Z        X      Y      Z        X      Y      Z
   1   8     0.04  -0.16  -0.02     0.08  -0.09  -0.10    -0.02   0.03  -0.01
   2   6     0.02  -0.10   0.11     0.01  -0.13   0.11    -0.03  -0.04  -0.02
   3   1     0.03  -0.04   0.04     0.03  -0.08   0.05    -0.01  -0.02  -0.01
   4   1    -0.00  -0.02   0.04    -0.03  -0.02   0.06    -0.02  -0.01  -0.01
   5   6    -0.06  -0.05   0.11    -0.06  -0.06   0.10     0.01  -0.09  -0.02
   6   1    -0.03  -0.02   0.03    -0.02  -0.01   0.02     0.01  -0.03  -0.00
   7   1    -0.01  -0.00   0.04    -0.02  -0.01   0.04     0.00  -0.03  -0.01
   8   7    -0.10  -0.05   0.12    -0.08  -0.08   0.06     0.05  -0.09   0.03
   9   6    -0.09  -0.06   0.07    -0.12  -0.02   0.29     0.07  -0.03   0.05
  10   1    -0.03  -0.02   0.01     0.00  -0.01   0.12     0.02  -0.01   0.01
  11   1    -0.03  -0.02   0.02    -0.03  -0.01   0.08     0.03  -0.01   0.03
  12   1    -0.02  -0.02   0.02    -0.08   0.01   0.10     0.02   0.01   0.01
  13   6    -0.14  -0.04   0.12     0.17  -0.11  -0.04     0.06  -0.13   0.05
  14   1    -0.04  -0.02   0.03     0.09  -0.03   0.03     0.02  -0.04   0.01
  15   1    -0.03   0.00   0.03     0.06  -0.04  -0.06     0.02  -0.04   0.01
  16   1    -0.05  -0.01   0.04     0.04  -0.03  -0.02     0.02  -0.04   0.02
  17   6    -0.08  -0.03   0.12    -0.28  -0.11  -0.13     0.04  -0.07   0.02
  18   1    -0.02  -0.00   0.03    -0.14  -0.01  -0.02     0.01  -0.03   0.01
  19   1    -0.02  -0.01   0.04    -0.07  -0.03  -0.04     0.00  -0.02   0.00
  20   1    -0.02  -0.01   0.04    -0.07  -0.05  -0.09     0.02  -0.01   0.01
  21   1     0.00   0.01  -0.02    -0.00  -0.00  -0.04     0.01   0.02   0.00
  22   6     0.05   0.18  -0.08     0.08   0.04  -0.06     0.09  -0.05  -0.02
  23   8    -0.04   0.44  -0.23     0.08   0.02  -0.12     0.07   0.13  -0.01
  24   7     0.21   0.13  -0.17     0.06   0.05  -0.05     0.30  -0.14   0.02
  25   1     0.07   0.05  -0.06     0.01   0.01  -0.01     0.10  -0.02  -0.00
  26   1     0.08  -0.01  -0.01     0.02   0.02  -0.00     0.08  -0.07  -0.00
  27   7    -0.00  -0.00   0.16     0.15   0.06  -0.02    -0.07  -0.16  -0.06
  28   1     0.01  -0.05   0.07     0.04   0.02   0.01    -0.01  -0.09  -0.02
  29   1    -0.04   0.01   0.05     0.05   0.01  -0.01    -0.06  -0.03  -0.02
  30   6    -0.01  -0.07   0.02     0.05   0.01  -0.02    -0.01  -0.01  -0.06
  31   8    -0.10  -0.26   0.18     0.05  -0.02   0.00     0.24   0.07  -0.04
  32   7     0.04  -0.03  -0.07     0.07  -0.01  -0.01    -0.23   0.09   0.08
  33   1     0.00  -0.05   0.01     0.01  -0.03   0.02    -0.04   0.11   0.02
  34   1     0.02   0.02  -0.04     0.02  -0.02   0.01    -0.11   0.05  -0.03
  35   7     0.03   0.08  -0.09     0.07   0.05  -0.05    -0.06  -0.19  -0.20
  36   1     0.02   0.06  -0.06     0.03   0.04  -0.04    -0.06  -0.09  -0.02
  37   1     0.00   0.01  -0.00     0.02   0.04  -0.04    -0.01  -0.08  -0.04
  38   6    -0.02   0.01   0.01     0.02   0.12  -0.09    -0.03   0.02   0.06
  39   8     0.01  -0.06   0.07    -0.06   0.37  -0.29    -0.17  -0.10   0.08
  40   7    -0.03   0.10  -0.07     0.04   0.08  -0.01    -0.01   0.18   0.11
  41   1    -0.01  -0.02   0.00     0.00   0.02  -0.00    -0.00   0.04   0.04
  42   1    -0.01   0.01  -0.01     0.02  -0.05   0.05     0.01   0.07   0.02
  43   7    -0.04   0.06  -0.01     0.08  -0.08   0.00     0.09   0.01  -0.04
  44   1    -0.02   0.02  -0.01     0.04  -0.04   0.02     0.04   0.03  -0.01
  45   1    -0.01  -0.00   0.02     0.02   0.02  -0.05     0.02  -0.03  -0.01
  46   6     0.08  -0.01  -0.11    -0.10  -0.01   0.10    -0.08   0.15  -0.00
  47   8     0.08  -0.05  -0.30    -0.13  -0.01   0.26     0.09   0.31  -0.02
  48   7     0.13   0.02   0.13    -0.15   0.00  -0.07    -0.08  -0.08  -0.03
  49   1     0.04  -0.00   0.02    -0.05   0.01  -0.01     0.02  -0.04  -0.01
  50   1     0.03   0.01   0.05    -0.03   0.00  -0.04    -0.06  -0.05  -0.00
  51   7     0.04  -0.00  -0.13    -0.05  -0.03   0.11    -0.28   0.25   0.04
  52   1     0.02   0.00   0.01    -0.02  -0.01  -0.02    -0.10   0.05   0.02
  53   1     0.01  -0.00  -0.04    -0.02  -0.01   0.01    -0.08   0.08  -0.00
                     19                     20                     21
                        a                      a                      a 
 Frequencies --   121.7491               125.0619               141.0402
 Red. masses --    12.2740                12.0348                12.3584
 Frc consts  --     0.0000                 0.0000                 0.0000
 IR Inten    --     9.4915                22.8708                 6.2238
 Raman Activ --     0.0000                 0.0000                 0.0000
 Depolar     --     0.0000                 0.0000                 0.0000
 Atom AN      X      Y      Z        X      Y      Z        X      Y      Z
   1   8    -0.04  -0.04   0.02    -0.11   0.21  -0.13    -0.02  -0.01  -0.00
   2   6     0.03   0.03  -0.18    -0.22   0.02   0.16    -0.01   0.02  -0.01
   3   1    -0.02   0.04  -0.07    -0.02  -0.06   0.07    -0.00   0.01  -0.00
   4   1     0.05  -0.00  -0.08    -0.13   0.03   0.09     0.00   0.01   0.00
   5   6     0.11  -0.02  -0.19    -0.24   0.08   0.14    -0.02   0.03  -0.01
   6   1     0.06  -0.04  -0.03    -0.08   0.05   0.03    -0.00   0.01  -0.00
   7   1     0.05   0.01  -0.09    -0.08   0.02   0.06    -0.00   0.01  -0.00
   8   7    -0.05   0.05  -0.11    -0.19   0.04   0.03    -0.05   0.04  -0.02
   9   6    -0.16  -0.00   0.12    -0.13   0.07  -0.06    -0.06   0.03   0.00
  10   1    -0.02  -0.05   0.05    -0.04   0.05  -0.02    -0.01   0.01   0.01
  11   1    -0.08   0.01   0.07    -0.02   0.01  -0.04    -0.02   0.01  -0.00
  12   1    -0.06   0.03   0.03    -0.03   0.01  -0.01    -0.02   0.01   0.00
  13   6     0.05  -0.02  -0.11    -0.17   0.12  -0.02    -0.03   0.04  -0.02
  14   1     0.04  -0.03  -0.01    -0.05   0.06  -0.00    -0.01   0.01  -0.01
  15   1     0.03  -0.00  -0.07    -0.05   0.04   0.01    -0.01   0.01  -0.01
  16   1    -0.00   0.00  -0.02    -0.04   0.03  -0.03    -0.01   0.01  -0.01
  17   6    -0.17   0.23  -0.22    -0.16  -0.13   0.05    -0.06   0.05  -0.03
  18   1    -0.06   0.07  -0.06    -0.05  -0.06   0.03    -0.02   0.02  -0.01
  19   1    -0.09   0.08  -0.06    -0.03  -0.05  -0.02    -0.01   0.01  -0.00
  20   1    -0.02   0.09  -0.10    -0.05  -0.03   0.04    -0.02   0.01  -0.02
  21   1     0.02  -0.01   0.02    -0.06   0.06  -0.05     0.00   0.01   0.00
  22   6    -0.06   0.08   0.01     0.11  -0.07  -0.06     0.11  -0.09  -0.02
  23   8    -0.11   0.20  -0.04     0.16  -0.24  -0.07     0.10   0.05   0.00
  24   7     0.02   0.05  -0.01    -0.02  -0.02  -0.03     0.28  -0.16   0.03
  25   1     0.02   0.02  -0.01    -0.02  -0.02   0.00     0.09  -0.03  -0.00
  26   1     0.02  -0.01   0.01    -0.01   0.02  -0.01     0.07  -0.06  -0.00
  27   7    -0.12  -0.01   0.09     0.25   0.06  -0.12    -0.04  -0.18  -0.09
  28   1    -0.03  -0.03   0.03     0.06   0.05  -0.01    -0.00  -0.09  -0.03
  29   1    -0.06   0.01   0.03     0.11   0.00  -0.03    -0.05  -0.04  -0.03
  30   6    -0.02  -0.03   0.02    -0.00  -0.00  -0.02    -0.14   0.01  -0.06
  31   8    -0.06  -0.07   0.04     0.01   0.00  -0.03     0.01   0.11  -0.10
  32   7     0.01  -0.00  -0.03    -0.01  -0.00  -0.02    -0.28   0.06   0.04
  33   1    -0.00  -0.01  -0.01    -0.00  -0.00  -0.00    -0.06   0.07   0.01
  34   1     0.01  -0.00  -0.01    -0.00  -0.00  -0.00    -0.11   0.01   0.00
  35   7    -0.02  -0.00   0.03    -0.00   0.01  -0.05    -0.18  -0.13  -0.06
  36   1    -0.00  -0.00   0.01    -0.00  -0.01  -0.00    -0.06  -0.05  -0.00
  37   1    -0.01  -0.01   0.02    -0.00  -0.01  -0.00    -0.04  -0.03  -0.03
  38   6     0.02  -0.08   0.03     0.02  -0.02   0.03    -0.04   0.10   0.07
  39   8     0.06  -0.21   0.13     0.01  -0.10   0.08     0.02   0.23   0.05
  40   7     0.01  -0.02  -0.04     0.02   0.03   0.01    -0.07   0.04   0.03
  41   1     0.00  -0.02  -0.00     0.00   0.01   0.00    -0.00   0.02  -0.01
  42   1    -0.00   0.01  -0.02     0.01   0.03  -0.01    -0.03  -0.00   0.01
  43   7    -0.02   0.00  -0.01     0.03   0.02  -0.01    -0.15   0.07   0.21
  44   1    -0.02   0.04  -0.02     0.01   0.02  -0.01    -0.06  -0.02   0.07
  45   1    -0.00   0.01   0.01     0.01  -0.01   0.00    -0.04   0.04   0.07
  46   6     0.12  -0.02   0.14     0.16  -0.01   0.03     0.15  -0.08   0.00
  47   8     0.27   0.12   0.44     0.34   0.11   0.10    -0.02  -0.24   0.08
  48   7     0.10  -0.20  -0.08     0.19  -0.23  -0.00     0.14   0.18  -0.06
  49   1     0.06  -0.05   0.03     0.10  -0.08   0.02    -0.01   0.07  -0.00
  50   1     0.00  -0.08  -0.05     0.02  -0.09   0.00     0.08   0.08  -0.02
  51   7     0.04  -0.04   0.01     0.02   0.02  -0.02     0.38  -0.18  -0.03
  52   1    -0.01  -0.03  -0.06    -0.02  -0.01  -0.02     0.12  -0.03  -0.03
  53   1     0.01   0.01   0.03     0.00   0.03  -0.01     0.11  -0.06   0.02
                     22                     23                     24
                        a                      a                      a 
 Frequencies --   159.0858               172.2576               184.6144
 Red. masses --    13.0981                12.6313                 4.1858
 Frc consts  --     0.0000                 0.0000                 0.0000
 IR Inten    --    16.4117                 5.8086               138.6845
 Raman Activ --     0.0000                 0.0000                 0.0000
 Depolar     --     0.0000                 0.0000                 0.0000
 Atom AN      X      Y      Z        X      Y      Z        X      Y      Z
   1   8     0.36   0.11  -0.49    -0.02   0.01   0.05     0.04  -0.04  -0.16
   2   6     0.16  -0.08  -0.04    -0.01   0.01  -0.01     0.03  -0.00  -0.04
   3   1     0.12  -0.07   0.03    -0.01   0.01  -0.01     0.03   0.00   0.00
   4   1    -0.03  -0.01   0.02     0.00   0.00  -0.00     0.01   0.00  -0.01
   5   6    -0.06  -0.02   0.04     0.04   0.00  -0.03    -0.08   0.03   0.00
   6   1    -0.06   0.01  -0.03     0.02  -0.01  -0.00    -0.05   0.02  -0.02
   7   1    -0.03   0.01   0.06     0.01  -0.00  -0.02    -0.03   0.01   0.03
   8   7    -0.06  -0.05  -0.03     0.02   0.02  -0.01    -0.02   0.02  -0.00
   9   6    -0.04  -0.04  -0.06     0.00  -0.00  -0.01     0.02   0.07  -0.01
  10   1    -0.02  -0.01  -0.02    -0.00  -0.01  -0.01     0.01   0.04   0.00
  11   1    -0.01  -0.01  -0.01    -0.01   0.00   0.01     0.02   0.01  -0.02
  12   1    -0.00  -0.01  -0.02     0.01   0.00  -0.01    -0.01   0.02   0.01
  13   6    -0.06   0.01  -0.05     0.00   0.00   0.00     0.01  -0.01   0.00
  14   1    -0.02  -0.00  -0.01    -0.00  -0.00  -0.00     0.01  -0.01   0.00
  15   1    -0.01   0.02  -0.01    -0.00  -0.00   0.00     0.01  -0.01  -0.01
  16   1    -0.03   0.01  -0.02     0.00   0.00   0.00     0.00  -0.00   0.01
  17   6    -0.05  -0.11  -0.02     0.02   0.05  -0.00    -0.01  -0.03   0.00
  18   1    -0.02  -0.02  -0.01     0.01   0.01  -0.00    -0.01   0.02  -0.01
  19   1     0.01  -0.04  -0.00    -0.00   0.02  -0.00     0.03  -0.02   0.02
  20   1    -0.03  -0.05  -0.01     0.01   0.02   0.00    -0.02  -0.04  -0.01
  21   1     0.01  -0.03  -0.16    -0.00  -0.01   0.02    -0.00  -0.00  -0.05
  22   6    -0.05   0.06   0.19    -0.09   0.08   0.01     0.02   0.00   0.05
  23   8     0.03   0.08   0.50    -0.09  -0.06  -0.02     0.04   0.04   0.14
  24   7    -0.03   0.06   0.01    -0.25   0.15  -0.04     0.04  -0.00  -0.02
  25   1     0.01   0.02   0.03    -0.08   0.03   0.00     0.02  -0.01   0.02
  26   1    -0.03   0.01  -0.05    -0.07   0.06   0.00     0.01  -0.01  -0.00
  27   7    -0.25   0.01   0.04     0.06   0.19   0.06    -0.07  -0.03  -0.01
  28   1    -0.08  -0.01  -0.06     0.01   0.09   0.03    -0.02  -0.02  -0.01
  29   1    -0.07   0.01   0.06     0.06   0.04   0.02    -0.03  -0.01   0.02
  30   6    -0.02  -0.03  -0.01    -0.06  -0.22  -0.16    -0.05   0.02  -0.01
  31   8    -0.00  -0.02  -0.01     0.06  -0.29  -0.09    -0.18  -0.06   0.01
  32   7    -0.01   0.06  -0.08    -0.13  -0.15  -0.19     0.02  -0.26   0.10
  33   1    -0.03  -0.10   0.10    -0.03  -0.01  -0.06     0.09   0.30  -0.38
  34   1    -0.04  -0.13   0.12    -0.04  -0.00  -0.09     0.15   0.45  -0.46
  35   7    -0.01   0.00  -0.06    -0.07  -0.31  -0.27    -0.04   0.04   0.13
  36   1     0.00   0.03  -0.04    -0.03  -0.08  -0.08    -0.02  -0.12   0.18
  37   1    -0.00   0.01  -0.02    -0.02  -0.11  -0.07    -0.04  -0.04   0.11
  38   6     0.00   0.01   0.02     0.15   0.13   0.17     0.02   0.02  -0.01
  39   8    -0.01  -0.00   0.02     0.06   0.17   0.14    -0.03   0.05  -0.05
  40   7     0.01   0.02   0.04     0.15   0.12   0.24     0.03   0.03   0.04
  41   1     0.00   0.01   0.01     0.05   0.01   0.07    -0.00  -0.00   0.03
  42   1     0.00   0.02  -0.00     0.04   0.02   0.07     0.02  -0.02   0.03
  43   7     0.02   0.00   0.02     0.20   0.13   0.16     0.08  -0.04  -0.03
  44   1     0.01   0.01   0.00     0.07   0.01   0.06     0.04  -0.00  -0.00
  45   1     0.00  -0.00   0.00     0.05   0.04   0.02     0.02  -0.00  -0.03
  46   6     0.03   0.00  -0.00    -0.01  -0.02  -0.00     0.02   0.00   0.00
  47   8     0.04   0.01   0.00    -0.03  -0.03  -0.00     0.02   0.01   0.01
  48   7     0.03  -0.01  -0.01    -0.01   0.01   0.02     0.02  -0.01  -0.01
  49   1     0.01  -0.00   0.00    -0.01   0.01   0.00     0.01  -0.00  -0.00
  50   1     0.01  -0.01   0.00     0.00   0.01   0.00     0.00  -0.00  -0.00
  51   7     0.02   0.01  -0.01     0.00  -0.02  -0.02     0.01   0.01   0.01
  52   1     0.00  -0.00  -0.00     0.00  -0.01  -0.00     0.00   0.00  -0.00
  53   1     0.00   0.00  -0.00    -0.00  -0.00   0.01     0.00   0.00  -0.01
                     25                     26                     27
                        a                      a                      a 
 Frequencies --   194.9250               199.3342               207.2939
 Red. masses --    12.3710                 9.5466                12.4153
 Frc consts  --     0.0000                 0.0000                 0.0000
 IR Inten    --    27.0703                 2.6170                63.0038
 Raman Activ --     0.0000                 0.0000                 0.0000
 Depolar     --     0.0000                 0.0000                 0.0000
 Atom AN      X      Y      Z        X      Y      Z        X      Y      Z
   1   8    -0.02  -0.08  -0.06     0.18   0.51   0.08     0.06   0.12  -0.02
   2   6     0.01   0.02  -0.04    -0.03  -0.06   0.13    -0.01  -0.02   0.03
   3   1     0.01   0.02  -0.01    -0.01  -0.11   0.04     0.01  -0.03   0.02
   4   1     0.02   0.00  -0.01    -0.12   0.00   0.08    -0.03  -0.00   0.02
   5   6    -0.06   0.04  -0.01     0.28  -0.17   0.01     0.05  -0.04   0.01
   6   1    -0.03   0.02  -0.02     0.16  -0.08   0.07     0.03  -0.02   0.02
   7   1    -0.03   0.01   0.02     0.12  -0.04  -0.09     0.02  -0.01  -0.02
   8   7    -0.01   0.03  -0.01     0.01  -0.12  -0.03    -0.01  -0.03  -0.00
   9   6     0.02   0.07  -0.01    -0.12  -0.28  -0.02    -0.03  -0.06  -0.00
  10   1     0.01   0.05   0.01    -0.08  -0.23  -0.06    -0.02  -0.05  -0.02
  11   1     0.02   0.01  -0.03    -0.10  -0.04   0.14    -0.02  -0.01   0.03
  12   1    -0.01   0.01   0.01     0.06  -0.00  -0.08     0.01   0.01  -0.02
  13   6     0.02  -0.00  -0.00    -0.14   0.04  -0.04    -0.04   0.00  -0.01
  14   1     0.01  -0.01   0.01    -0.07   0.05  -0.04    -0.02   0.01  -0.01
  15   1     0.01  -0.00  -0.01    -0.06   0.02   0.05    -0.01   0.00   0.01
  16   1     0.00   0.00   0.01    -0.02   0.00  -0.04    -0.01  -0.00  -0.01
  17   6     0.00   0.00   0.00    -0.02   0.06  -0.05    -0.02  -0.01  -0.01
  18   1    -0.01   0.03  -0.01     0.04  -0.12   0.03     0.01  -0.03   0.01
  19   1     0.03  -0.00   0.02    -0.15   0.04  -0.11    -0.03  -0.00  -0.02
  20   1    -0.02  -0.03  -0.01     0.07   0.15   0.03     0.01   0.03   0.01
  21   1    -0.01  -0.03  -0.02     0.04   0.12   0.02     0.01   0.04  -0.01
  22   6    -0.05   0.06   0.03    -0.01   0.00  -0.01     0.01  -0.01   0.01
  23   8    -0.04  -0.05   0.06    -0.02  -0.00  -0.03     0.01   0.01   0.02
  24   7    -0.17   0.10  -0.06    -0.02   0.01  -0.01     0.02  -0.01  -0.02
  25   1    -0.03   0.02   0.04    -0.00   0.00   0.00     0.01  -0.00   0.01
  26   1    -0.04   0.03   0.01    -0.00   0.00   0.01     0.01  -0.01   0.00
  27   7     0.03   0.13   0.04     0.01   0.02  -0.00    -0.01  -0.02  -0.01
  28   1     0.00   0.06   0.01     0.01   0.01   0.02    -0.00  -0.01   0.00
  29   1     0.04   0.02   0.02     0.01   0.00   0.00    -0.01  -0.01   0.01
  30   6     0.21  -0.05   0.09     0.04   0.01   0.02    -0.03   0.01   0.02
  31   8     0.44  -0.14   0.30     0.05  -0.01   0.05     0.02  -0.00   0.06
  32   7    -0.06   0.18   0.21     0.02  -0.01   0.05    -0.12   0.06   0.08
  33   1     0.02   0.18   0.05     0.02   0.07  -0.06    -0.01   0.09  -0.01
  34   1    -0.07   0.18  -0.10     0.03   0.10  -0.09    -0.04   0.09  -0.06
  35   7     0.16  -0.23  -0.16     0.04   0.01  -0.01    -0.04  -0.05  -0.00
  36   1    -0.01  -0.07  -0.07     0.00  -0.03   0.03    -0.02  -0.02   0.00
  37   1     0.07  -0.10  -0.04     0.01  -0.01   0.01     0.01  -0.03  -0.01
  38   6    -0.16  -0.04  -0.09    -0.08  -0.01  -0.02     0.20   0.03  -0.04
  39   8    -0.10  -0.03  -0.08    -0.15  -0.01  -0.05     0.53   0.15   0.01
  40   7    -0.17   0.01  -0.17    -0.07   0.05   0.04     0.16  -0.20  -0.37
  41   1    -0.04  -0.03  -0.04    -0.03   0.01   0.02     0.08  -0.07  -0.13
  42   1    -0.05  -0.01  -0.04    -0.00   0.01   0.02    -0.02  -0.10  -0.10
  43   7    -0.24  -0.05  -0.01    -0.01  -0.05  -0.06    -0.16   0.14   0.24
  44   1    -0.09  -0.04   0.00     0.02  -0.01  -0.01    -0.14   0.01   0.04
  45   1    -0.06  -0.03   0.03    -0.01  -0.02  -0.04    -0.03   0.10   0.14
  46   6     0.06  -0.01   0.01     0.01  -0.01  -0.01    -0.13  -0.02   0.01
  47   8     0.02  -0.04   0.04    -0.04  -0.06  -0.01    -0.05   0.06  -0.03
  48   7     0.05   0.05  -0.04     0.00   0.08  -0.03    -0.11  -0.15   0.09
  49   1     0.00   0.02   0.00    -0.02   0.03  -0.01     0.00  -0.05   0.03
  50   1     0.03   0.03   0.00     0.02   0.03  -0.01    -0.06  -0.06   0.04
  51   7     0.10  -0.03   0.00     0.08  -0.03   0.03    -0.23   0.02  -0.07
  52   1     0.03  -0.01  -0.01     0.03  -0.00   0.00    -0.06   0.00   0.02
  53   1     0.03  -0.01   0.01     0.02  -0.02  -0.00    -0.07   0.02   0.03
                     28                     29                     30
                        a                      a                      a 
 Frequencies --   255.2840               290.2951               300.8456
 Red. masses --     3.7846                 7.4411                 3.0362
 Frc consts  --     0.0000                 0.0000                 0.0000
 IR Inten    --     0.7696                 0.5392               152.9130
 Raman Activ --     0.0000                 0.0000                 0.0000
 Depolar     --     0.0000                 0.0000                 0.0000
 Atom AN      X      Y      Z        X      Y      Z        X      Y      Z
   1   8    -0.09  -0.28  -0.14    -0.05   0.03   0.01     0.06   0.03   0.11
   2   6    -0.08  -0.08   0.06     0.13   0.29  -0.29     0.06   0.01   0.01
   3   1    -0.01  -0.08   0.03     0.01   0.27  -0.10     0.01   0.03   0.00
   4   1    -0.01   0.00   0.08     0.14   0.02  -0.25     0.03  -0.01  -0.02
   5   6    -0.08   0.09  -0.04    -0.04  -0.02   0.09    -0.00   0.00   0.03
   6   1    -0.02   0.04  -0.01    -0.05  -0.04  -0.00    -0.01   0.00   0.00
   7   1    -0.03   0.01  -0.01    -0.03  -0.02   0.04    -0.00   0.01   0.02
   8   7     0.02   0.09  -0.02    -0.01  -0.05   0.13    -0.03  -0.01  -0.03
   9   6     0.06   0.19   0.06    -0.14  -0.22   0.17     0.02   0.06  -0.04
  10   1    -0.09  -0.20  -0.12    -0.05  -0.18   0.02    -0.06  -0.11  -0.10
  11   1    -0.04   0.11   0.34    -0.11  -0.04   0.13    -0.01   0.05   0.17
  12   1     0.19   0.28  -0.15     0.01  -0.02   0.01     0.10   0.15  -0.11
  13   6     0.10  -0.03   0.02     0.10   0.31  -0.12    -0.05  -0.05   0.00
  14   1    -0.05   0.22  -0.07     0.02   0.26  -0.05    -0.02  -0.02  -0.01
  15   1    -0.13  -0.17   0.14    -0.02   0.06   0.05    -0.02  -0.02   0.00
  16   1     0.29  -0.10  -0.05     0.12   0.04  -0.17    -0.01  -0.01   0.02
  17   6     0.03   0.06  -0.00    -0.01  -0.34   0.12    -0.04  -0.07  -0.04
  18   1     0.10  -0.23   0.08    -0.01  -0.12   0.05    -0.07   0.12  -0.06
  19   1    -0.18   0.03  -0.20     0.04  -0.12  -0.02     0.11  -0.03   0.09
  20   1     0.11   0.23   0.11    -0.03  -0.11   0.07    -0.07  -0.15  -0.08
  21   1    -0.05  -0.06  -0.06     0.01  -0.07   0.03     0.02   0.00   0.03
  22   6     0.00  -0.00   0.02    -0.00   0.01  -0.01    -0.01  -0.00  -0.01
  23   8     0.01  -0.01   0.05    -0.01   0.02  -0.03    -0.01   0.00  -0.01
  24   7    -0.00   0.00  -0.01     0.02   0.00  -0.01     0.00  -0.01   0.01
  25   1     0.00  -0.00   0.00     0.01   0.00  -0.00    -0.00  -0.00  -0.01
  26   1    -0.00   0.00  -0.01     0.01  -0.00  -0.00    -0.01   0.00  -0.01
  27   7    -0.01  -0.00  -0.01     0.01   0.01   0.00     0.01   0.00  -0.01
  28   1    -0.00  -0.00  -0.00     0.01  -0.00   0.01     0.01  -0.00   0.02
  29   1     0.00  -0.00   0.01     0.00   0.00  -0.00     0.01  -0.00   0.01
  30   6     0.00   0.00  -0.00     0.00  -0.01  -0.00    -0.00   0.00  -0.00
  31   8    -0.00   0.00  -0.00     0.01  -0.02   0.00    -0.01   0.00  -0.00
  32   7     0.00   0.00  -0.00    -0.01  -0.00  -0.00     0.01  -0.01  -0.00
  33   1    -0.00  -0.01   0.01    -0.00   0.01  -0.00     0.00  -0.01  -0.00
  34   1    -0.00  -0.01   0.01    -0.00   0.01  -0.01     0.01  -0.00   0.00
  35   7     0.00   0.01  -0.00    -0.00  -0.03   0.01    -0.00   0.00   0.01
  36   1     0.00   0.01  -0.01    -0.00  -0.01   0.01     0.00   0.01  -0.01
  37   1     0.00   0.00  -0.00    -0.00   0.00  -0.00    -0.00   0.00  -0.00
  38   6    -0.00  -0.00  -0.00    -0.00   0.00   0.00     0.00  -0.01   0.00
  39   8     0.00  -0.00   0.00    -0.01  -0.00   0.00    -0.00  -0.00   0.00
  40   7    -0.00  -0.01   0.00    -0.00   0.01   0.00     0.01  -0.01   0.01
  41   1    -0.00   0.00  -0.00     0.00  -0.00   0.00     0.00   0.01  -0.00
  42   1    -0.00   0.01  -0.01    -0.00  -0.01   0.01     0.00   0.03  -0.02
  43   7    -0.00   0.00  -0.00     0.00  -0.00   0.00     0.01   0.07  -0.03
  44   1    -0.00  -0.01   0.00    -0.00   0.01  -0.01     0.01  -0.11   0.05
  45   1    -0.00  -0.01   0.01     0.00   0.00  -0.00    -0.00  -0.08   0.04
  46   6     0.00  -0.00  -0.01     0.00   0.00  -0.01    -0.01   0.03   0.04
  47   8     0.00  -0.01  -0.02     0.00   0.00  -0.02    -0.02   0.01  -0.00
  48   7     0.01  -0.00   0.01     0.00   0.00   0.01     0.00  -0.11  -0.31
  49   1     0.00  -0.00  -0.01     0.00  -0.00  -0.02     0.01   0.08   0.38
  50   1     0.00  -0.01  -0.01    -0.00  -0.01  -0.02     0.03   0.21   0.64
  51   7     0.01   0.00   0.00    -0.01   0.01  -0.00    -0.01   0.01   0.02
  52   1     0.00  -0.00   0.00    -0.00   0.00   0.01    -0.03  -0.01  -0.14
  53   1     0.00   0.00  -0.00    -0.00   0.00   0.00    -0.01   0.00  -0.04
                     31                     32                     33
                        a                      a                      a 
 Frequencies --   302.5662               316.4799               336.5698
 Red. masses --     3.2873                 6.4195                 2.9065
 Frc consts  --     0.0000                 0.0000                 0.0000
 IR Inten    --    32.3753                 3.6314                62.7971
 Raman Activ --     0.0000                 0.0000                 0.0000
 Depolar     --     0.0000                 0.0000                 0.0000
 Atom AN      X      Y      Z        X      Y      Z        X      Y      Z
   1   8     0.10   0.05   0.19     0.22   0.11   0.24    -0.03  -0.01  -0.07
   2   6     0.10   0.00   0.03     0.22  -0.01  -0.10    -0.05  -0.01   0.04
   3   1     0.02   0.04   0.00     0.03   0.06  -0.05     0.00  -0.02   0.02
   4   1     0.04  -0.01  -0.02     0.09  -0.03  -0.09    -0.03   0.01   0.03
   5   6    -0.01   0.02   0.03     0.06  -0.06  -0.03     0.00   0.00   0.01
   6   1    -0.02   0.01  -0.00     0.01  -0.05  -0.02     0.01   0.02   0.01
   7   1     0.00   0.03   0.04     0.04   0.03  -0.01    -0.01  -0.01   0.00
   8   7    -0.08  -0.00  -0.07    -0.13  -0.02  -0.02     0.03  -0.01  -0.01
   9   6     0.02   0.14  -0.10     0.06   0.28  -0.04    -0.04  -0.13  -0.01
  10   1    -0.12  -0.20  -0.18     0.07   0.28   0.06     0.01  -0.01   0.02
  11   1    -0.02   0.10   0.30     0.15   0.02  -0.17    -0.03  -0.04  -0.06
  12   1     0.19   0.27  -0.21    -0.11   0.01   0.08    -0.03  -0.09   0.03
  13   6    -0.09  -0.11  -0.01    -0.21  -0.15   0.08     0.05  -0.00  -0.01
  14   1    -0.02  -0.09   0.00    -0.18   0.19  -0.09    -0.04   0.16  -0.05
  15   1    -0.01  -0.02  -0.04    -0.23  -0.21   0.20    -0.08  -0.10   0.09
  16   1    -0.06  -0.01   0.05     0.21  -0.13  -0.01     0.17  -0.06  -0.05
  17   6    -0.07  -0.11  -0.07    -0.21  -0.17  -0.10     0.04   0.12   0.00
  18   1    -0.12   0.22  -0.10    -0.07  -0.13   0.02    -0.02   0.17  -0.05
  19   1     0.20  -0.06   0.17    -0.10  -0.06  -0.13     0.09   0.04   0.12
  20   1    -0.14  -0.27  -0.12    -0.03   0.01  -0.01    -0.03  -0.06  -0.05
  21   1     0.04   0.00   0.06     0.11   0.04   0.09    -0.02   0.03  -0.03
  22   6    -0.01  -0.01  -0.01    -0.01  -0.00  -0.02    -0.01   0.00   0.02
  23   8    -0.01  -0.01  -0.01    -0.01  -0.00  -0.02    -0.00   0.01   0.01
  24   7    -0.00  -0.01   0.00    -0.02  -0.00   0.01     0.02  -0.01   0.04
  25   1    -0.00  -0.00  -0.01    -0.01  -0.00  -0.01    -0.01   0.00  -0.03
  26   1    -0.01  -0.00  -0.02    -0.01   0.00   0.00    -0.06   0.02  -0.14
  27   7     0.01   0.01  -0.02     0.01  -0.00   0.02    -0.04   0.02  -0.22
  28   1     0.01  -0.00   0.04    -0.01   0.01  -0.03     0.09  -0.09   0.44
  29   1     0.02  -0.00   0.02    -0.01   0.00  -0.02     0.06  -0.02   0.25
  30   6     0.00   0.00  -0.00    -0.00  -0.00   0.00    -0.00   0.00   0.01
  31   8     0.01  -0.00  -0.00     0.00  -0.00   0.00    -0.01  -0.00   0.02
  32   7    -0.00   0.00   0.00     0.00  -0.00  -0.00     0.01  -0.00   0.00
  33   1    -0.00  -0.00   0.00     0.00  -0.00  -0.00     0.00  -0.01  -0.00
  34   1    -0.00  -0.00   0.00     0.00  -0.00   0.00     0.01   0.01  -0.01
  35   7     0.00  -0.01  -0.00    -0.00  -0.00  -0.00    -0.00   0.00   0.01
  36   1     0.00   0.00  -0.01    -0.00  -0.01   0.01     0.00   0.02  -0.01
  37   1     0.00   0.00  -0.00    -0.00  -0.00   0.00     0.00   0.00  -0.00
  38   6    -0.00   0.00   0.00    -0.00  -0.00  -0.00     0.01  -0.01  -0.02
  39   8    -0.00   0.00  -0.00    -0.00   0.00  -0.00    -0.01  -0.01  -0.01
  40   7    -0.01   0.01  -0.01     0.00  -0.01   0.01     0.02  -0.05   0.03
  41   1    -0.00  -0.00   0.00     0.00   0.01  -0.00     0.00   0.04  -0.03
  42   1    -0.00  -0.02   0.02     0.00   0.02  -0.01     0.01   0.19  -0.14
  43   7    -0.00  -0.03   0.01     0.00   0.03  -0.01     0.01   0.19  -0.06
  44   1    -0.00   0.05  -0.03     0.01  -0.06   0.03     0.05  -0.44   0.20
  45   1     0.00   0.04  -0.02    -0.00  -0.04   0.02    -0.01  -0.21   0.10
  46   6     0.01  -0.01  -0.02     0.01   0.00  -0.00    -0.01   0.01   0.00
  47   8     0.02   0.01   0.02     0.01   0.00  -0.00     0.00   0.01   0.02
  48   7     0.00   0.05   0.16     0.00  -0.00   0.02    -0.01   0.00   0.05
  49   1    -0.00  -0.04  -0.20     0.00  -0.01  -0.02     0.00  -0.02  -0.05
  50   1    -0.02  -0.12  -0.35    -0.00  -0.01  -0.03    -0.01  -0.04  -0.11
  51   7    -0.01   0.00  -0.02    -0.00   0.01   0.00    -0.01  -0.00   0.01
  52   1     0.01   0.01   0.08    -0.00   0.00   0.00    -0.01  -0.00  -0.02
  53   1     0.00   0.00   0.02    -0.00   0.00  -0.00    -0.00   0.01  -0.01
                     34                     35                     36
                        a                      a                      a 
 Frequencies --   337.0836               340.9850               375.4873
 Red. masses --     2.6417                 2.6543                 7.7409
 Frc consts  --     0.0000                 0.0000                 0.0000
 IR Inten    --    30.5466               153.0983                 1.8824
 Raman Activ --     0.0000                 0.0000                 0.0000
 Depolar     --     0.0000                 0.0000                 0.0000
 Atom AN      X      Y      Z        X      Y      Z        X      Y      Z
   1   8     0.06   0.00   0.08     0.02  -0.00  -0.01     0.07   0.09   0.08
   2   6     0.10   0.05  -0.09     0.00  -0.02   0.00     0.12   0.22   0.03
   3   1     0.01   0.06  -0.04     0.00  -0.02   0.00     0.06   0.18   0.02
   4   1     0.06  -0.01  -0.07    -0.00  -0.00   0.01     0.08   0.02  -0.10
   5   6    -0.03   0.01  -0.00     0.01  -0.01  -0.01    -0.22   0.10   0.25
   6   1    -0.04  -0.01  -0.03     0.00  -0.01  -0.00    -0.15   0.09  -0.00
   7   1    -0.01   0.02   0.03     0.00  -0.01  -0.01    -0.10   0.02   0.17
   8   7    -0.05   0.01   0.01     0.01  -0.00   0.00    -0.05  -0.04   0.05
   9   6     0.05   0.16  -0.01     0.00  -0.00   0.01    -0.05  -0.25  -0.33
  10   1    -0.01   0.03  -0.03     0.02   0.04   0.02    -0.08  -0.06  -0.16
  11   1     0.04   0.05   0.06     0.01  -0.01  -0.04    -0.05  -0.07  -0.13
  12   1     0.04   0.10  -0.04    -0.03  -0.03   0.03     0.09  -0.14  -0.11
  13   6    -0.03  -0.02   0.02    -0.00  -0.01   0.01     0.23  -0.31   0.05
  14   1     0.10  -0.32   0.11    -0.04   0.09  -0.03     0.10  -0.07   0.05
  15   1     0.18   0.18  -0.18    -0.06  -0.06   0.06     0.03  -0.18  -0.06
  16   1    -0.32   0.11   0.10     0.09  -0.03  -0.02     0.14  -0.10   0.06
  17   6    -0.07  -0.18  -0.01     0.01   0.03   0.00    -0.14   0.21  -0.04
  18   1     0.05  -0.33   0.10    -0.01   0.05  -0.01    -0.01   0.00   0.00
  19   1    -0.20  -0.05  -0.24     0.03   0.01   0.04    -0.18   0.10  -0.04
  20   1     0.07   0.16   0.11    -0.01  -0.02  -0.02     0.03   0.16  -0.03
  21   1     0.04   0.01   0.03     0.00   0.01  -0.00     0.00  -0.03   0.02
  22   6    -0.01  -0.00   0.01    -0.01  -0.01   0.03    -0.00  -0.00  -0.00
  23   8    -0.01   0.01   0.00    -0.01   0.00   0.02    -0.00   0.00  -0.00
  24   7     0.01  -0.01   0.04    -0.00  -0.01   0.04     0.01  -0.01  -0.01
  25   1    -0.01   0.00  -0.03    -0.02   0.00  -0.03     0.01  -0.00   0.00
  26   1    -0.05   0.02  -0.11    -0.07   0.02  -0.14     0.01  -0.01   0.01
  27   7    -0.03   0.02  -0.16    -0.04   0.03  -0.24     0.02   0.01   0.01
  28   1     0.07  -0.07   0.34     0.10  -0.09   0.49    -0.00   0.02  -0.03
  29   1     0.05  -0.01   0.19     0.07  -0.02   0.26     0.01  -0.00  -0.01
  30   6     0.00   0.00   0.00     0.01   0.01  -0.01     0.00   0.00  -0.01
  31   8     0.00  -0.00   0.01     0.01   0.01  -0.02     0.00   0.00  -0.01
  32   7     0.00  -0.00   0.00    -0.02   0.01   0.01    -0.01  -0.01   0.01
  33   1     0.00  -0.00   0.00    -0.00   0.01   0.01    -0.00   0.01  -0.00
  34   1     0.00   0.00  -0.00    -0.01  -0.01   0.01    -0.00   0.01  -0.01
  35   7    -0.00  -0.01   0.01     0.00  -0.01  -0.00    -0.00  -0.02   0.02
  36   1     0.00   0.01  -0.01     0.00   0.01  -0.01     0.01   0.04  -0.04
  37   1    -0.00   0.00  -0.00     0.00   0.00  -0.00     0.00   0.01  -0.01
  38   6     0.00  -0.00  -0.00    -0.01   0.01   0.02    -0.00  -0.01   0.01
  39   8    -0.00  -0.00   0.00     0.01   0.01   0.02    -0.00  -0.00   0.01
  40   7     0.00  -0.01   0.01    -0.02   0.05  -0.03    -0.00   0.02  -0.01
  41   1    -0.00   0.01  -0.01    -0.01  -0.03   0.03     0.00  -0.01   0.00
  42   1     0.00   0.05  -0.03    -0.01  -0.21   0.15    -0.00  -0.05   0.04
  43   7     0.00   0.06  -0.02    -0.00  -0.22   0.07     0.00   0.00  -0.00
  44   1     0.02  -0.14   0.07    -0.05   0.51  -0.23    -0.00   0.03  -0.02
  45   1    -0.00  -0.06   0.02     0.01   0.24  -0.11     0.00   0.00   0.00
  46   6    -0.01  -0.01   0.00     0.01  -0.00  -0.01     0.00   0.00  -0.00
  47   8    -0.01  -0.01  -0.00     0.00  -0.01  -0.02    -0.00   0.00   0.00
  48   7    -0.01   0.01   0.01     0.02  -0.01  -0.05     0.00  -0.01   0.00
  49   1    -0.01   0.00  -0.01     0.00   0.02   0.05     0.01  -0.00   0.01
  50   1    -0.00   0.00  -0.01     0.01   0.04   0.11    -0.00  -0.00   0.01
  51   7     0.01  -0.01   0.01    -0.00   0.01  -0.01     0.01   0.00   0.01
  52   1     0.00  -0.00  -0.01     0.00   0.01   0.03    -0.00  -0.00  -0.02
  53   1     0.00  -0.00  -0.00    -0.00  -0.00   0.01     0.00  -0.00  -0.00
                     37                     38                     39
                        a                      a                      a 
 Frequencies --   382.0859               422.4659               435.6773
 Red. masses --     3.4962                 3.4244                 8.1869
 Frc consts  --     0.0000                 0.0000                 0.0000
 IR Inten    --   125.2537               351.1454                16.6055
 Raman Activ --     0.0000                 0.0000                 0.0000
 Depolar     --     0.0000                 0.0000                 0.0000
 Atom AN      X      Y      Z        X      Y      Z        X      Y      Z
   1   8    -0.00  -0.01  -0.03    -0.01  -0.01  -0.02    -0.14  -0.11  -0.15
   2   6    -0.01   0.00  -0.01    -0.01   0.00   0.00    -0.07   0.12  -0.01
   3   1    -0.00  -0.02  -0.00    -0.00  -0.00  -0.00    -0.02   0.04  -0.00
   4   1    -0.01   0.01   0.02    -0.00   0.00   0.00    -0.00   0.03  -0.01
   5   6     0.03  -0.00  -0.02     0.01  -0.00   0.00     0.14  -0.04   0.06
   6   1     0.02  -0.01   0.00     0.01  -0.01   0.01     0.09  -0.04   0.06
   7   1     0.01  -0.00  -0.02     0.00  -0.00  -0.00     0.05  -0.05  -0.07
   8   7     0.01  -0.00  -0.01     0.03  -0.00   0.00     0.21  -0.00   0.24
   9   6    -0.00   0.01   0.03     0.03   0.00   0.01     0.30  -0.10  -0.11
  10   1     0.01   0.01   0.02     0.01  -0.00   0.00     0.01  -0.01  -0.11
  11   1     0.00   0.00   0.00     0.01   0.00   0.00     0.09  -0.03  -0.04
  12   1    -0.02   0.00   0.01     0.01   0.00   0.00     0.17  -0.05  -0.06
  13   6    -0.03   0.02  -0.00    -0.01   0.03   0.01    -0.07   0.18   0.30
  14   1    -0.01   0.00  -0.01    -0.01   0.01  -0.01    -0.08   0.03   0.03
  15   1    -0.01   0.01   0.01    -0.01   0.01   0.02    -0.01   0.10   0.14
  16   1    -0.01   0.01  -0.00    -0.01   0.01  -0.00    -0.06   0.06   0.08
  17   6     0.01  -0.03  -0.01    -0.01   0.00  -0.02    -0.30  -0.03  -0.23
  18   1     0.00  -0.01  -0.00    -0.01   0.01  -0.00    -0.26   0.02  -0.00
  19   1     0.01  -0.01  -0.00     0.00  -0.00  -0.01    -0.10  -0.01  -0.11
  20   1    -0.00  -0.01   0.00    -0.00  -0.00  -0.02    -0.04  -0.03  -0.23
  21   1     0.00   0.02  -0.01    -0.01  -0.01  -0.00    -0.07  -0.05  -0.05
  22   6     0.01  -0.00   0.02     0.03  -0.01   0.03     0.04   0.00   0.03
  23   8     0.01  -0.00   0.02     0.01  -0.01   0.02     0.04   0.01   0.02
  24   7    -0.02   0.01  -0.02    -0.03   0.00  -0.03    -0.08   0.04  -0.06
  25   1     0.00  -0.00   0.02     0.01   0.01  -0.00    -0.01   0.01   0.02
  26   1     0.02  -0.01   0.05     0.06  -0.03   0.12     0.11  -0.03   0.25
  27   7    -0.01  -0.01  -0.01    -0.02  -0.00  -0.05    -0.04  -0.02  -0.07
  28   1    -0.01  -0.00  -0.02    -0.00   0.00  -0.00     0.01  -0.05   0.05
  29   1    -0.01  -0.00   0.00     0.03  -0.01   0.07    -0.02  -0.00   0.05
  30   6     0.02   0.11  -0.13    -0.00  -0.01   0.00    -0.00  -0.00   0.00
  31   8     0.02   0.06  -0.07    -0.00   0.01  -0.02    -0.00  -0.00   0.00
  32   7    -0.04  -0.16   0.14    -0.00   0.04  -0.03     0.00  -0.01  -0.00
  33   1     0.01   0.05  -0.05    -0.00  -0.00   0.01     0.00   0.01  -0.02
  34   1     0.01   0.09  -0.09    -0.02  -0.05   0.05     0.00  -0.01   0.01
  35   7    -0.05  -0.17   0.21     0.02   0.05  -0.04    -0.00  -0.00  -0.00
  36   1     0.13   0.57  -0.61    -0.03  -0.15   0.18     0.00   0.01  -0.01
  37   1     0.02   0.08  -0.08    -0.00   0.01   0.00    -0.00  -0.00   0.00
  38   6    -0.00  -0.06   0.05    -0.00  -0.10   0.10    -0.00   0.01  -0.01
  39   8    -0.01  -0.06   0.05    -0.03  -0.06   0.07     0.00   0.01  -0.00
  40   7     0.00   0.07  -0.04    -0.01   0.19  -0.21    -0.00  -0.02   0.02
  41   1    -0.00  -0.04   0.03    -0.01  -0.04   0.01     0.00   0.00  -0.00
  42   1     0.00  -0.16   0.12     0.00  -0.64   0.44    -0.00   0.09  -0.06
  43   7     0.01   0.08  -0.04     0.02   0.21  -0.10    -0.00  -0.03   0.01
  44   1     0.02  -0.05   0.02     0.07  -0.23   0.12    -0.00   0.03  -0.01
  45   1    -0.00  -0.03   0.01    -0.00  -0.07  -0.01     0.00   0.02  -0.02
  46   6     0.00   0.00   0.01    -0.01   0.00  -0.01    -0.01   0.02  -0.00
  47   8     0.00   0.00   0.01     0.00   0.00  -0.01    -0.02   0.02  -0.00
  48   7     0.00   0.00  -0.01    -0.01   0.02   0.03    -0.01  -0.03   0.02
  49   1     0.00   0.00  -0.00    -0.01  -0.00  -0.03     0.02  -0.02  -0.00
  50   1     0.00  -0.00  -0.02    -0.00  -0.01  -0.03    -0.02  -0.02  -0.01
  51   7    -0.00  -0.00  -0.02     0.02  -0.01   0.07     0.03  -0.01   0.00
  52   1     0.01   0.01   0.05    -0.04  -0.03  -0.18     0.01   0.00  -0.03
  53   1     0.00  -0.00   0.01    -0.00   0.01  -0.02     0.01  -0.01   0.00
                     40                     41                     42
                        a                      a                      a 
 Frequencies --   440.1460               448.8605               458.3400
 Red. masses --     3.6307                 2.8134                 8.2819
 Frc consts  --     0.0000                 0.0000                 0.0000
 IR Inten    --   187.0139               198.8343                 4.8907
 Raman Activ --     0.0000                 0.0000                 0.0000
 Depolar     --     0.0000                 0.0000                 0.0000
 Atom AN      X      Y      Z        X      Y      Z        X      Y      Z
   1   8     0.05   0.04   0.08     0.01   0.01   0.02    -0.02  -0.02  -0.04
   2   6     0.02  -0.03   0.01     0.00  -0.02  -0.01     0.04   0.23   0.12
   3   1     0.00  -0.00  -0.00     0.00   0.00  -0.00     0.01   0.02   0.03
   4   1     0.01  -0.01  -0.00    -0.00  -0.01  -0.01     0.03   0.09   0.09
   5   6    -0.03   0.01  -0.02    -0.03  -0.01   0.00     0.05   0.34  -0.04
   6   1    -0.02   0.01  -0.01    -0.03   0.01  -0.02     0.00   0.14  -0.02
   7   1    -0.01   0.02   0.01    -0.02  -0.00   0.03    -0.02   0.07   0.02
   8   7    -0.09   0.01  -0.08     0.01  -0.03  -0.03     0.19   0.19  -0.20
   9   6    -0.11   0.05   0.03     0.01   0.00   0.04    -0.16  -0.17   0.15
  10   1    -0.01   0.01   0.03     0.01  -0.00   0.02     0.04  -0.14   0.12
  11   1    -0.03   0.01   0.01     0.01   0.00   0.02    -0.18  -0.02   0.02
  12   1    -0.06   0.02   0.02    -0.01   0.01   0.01    -0.10  -0.10   0.09
  13   6     0.03  -0.08  -0.10    -0.02   0.00  -0.03    -0.18  -0.20   0.18
  14   1     0.03  -0.02  -0.01    -0.01   0.00  -0.01    -0.15  -0.16  -0.03
  15   1     0.01  -0.04  -0.05    -0.00   0.01   0.00    -0.09  -0.10   0.09
  16   1     0.02  -0.03  -0.02    -0.02   0.00  -0.01    -0.03  -0.03   0.21
  17   6     0.10  -0.00   0.09     0.03   0.01  -0.01     0.17  -0.21  -0.26
  18   1     0.09  -0.01   0.00     0.02   0.01  -0.01     0.01  -0.12  -0.03
  19   1     0.04  -0.00   0.04     0.00   0.01   0.01     0.11  -0.10  -0.16
  20   1     0.01   0.01   0.08     0.01   0.01   0.00     0.02  -0.09  -0.03
  21   1     0.00  -0.02   0.02     0.01   0.00   0.01    -0.04  -0.04  -0.02
  22   6     0.06  -0.02   0.08    -0.00   0.00  -0.00    -0.00   0.00   0.01
  23   8     0.04   0.05   0.05    -0.00   0.00   0.00    -0.00  -0.01   0.00
  24   7    -0.16   0.03  -0.20    -0.00   0.00  -0.01     0.01   0.00  -0.03
  25   1     0.02   0.03  -0.00     0.00  -0.00   0.00     0.01   0.00   0.01
  26   1     0.35  -0.15   0.74     0.00  -0.00   0.01     0.01  -0.01   0.01
  27   7    -0.03  -0.00  -0.20     0.00   0.00   0.00     0.01   0.01   0.01
  28   1     0.02  -0.03   0.09     0.00  -0.00   0.01     0.01  -0.02   0.05
  29   1     0.05  -0.02   0.15    -0.01   0.00  -0.02    -0.04   0.02  -0.08
  30   6    -0.02  -0.00   0.00     0.00  -0.00  -0.01    -0.01   0.01   0.01
  31   8    -0.00   0.00   0.01     0.00  -0.01  -0.00     0.00   0.01   0.01
  32   7     0.02  -0.01  -0.02    -0.01  -0.01   0.01     0.01  -0.00  -0.01
  33   1     0.01   0.02  -0.05     0.00   0.01  -0.01    -0.00  -0.02   0.00
  34   1     0.01  -0.06   0.06    -0.00   0.01  -0.01     0.01   0.00  -0.00
  35   7    -0.01   0.01  -0.02     0.00  -0.01   0.02    -0.01  -0.00  -0.01
  36   1    -0.01  -0.01   0.00     0.01   0.06  -0.06    -0.01  -0.02   0.02
  37   1    -0.00  -0.01   0.01    -0.00  -0.00   0.01     0.00  -0.00  -0.01
  38   6    -0.00   0.02  -0.01     0.02   0.02  -0.02     0.01  -0.00  -0.01
  39   8    -0.00   0.01  -0.00    -0.01   0.02  -0.03    -0.01  -0.01  -0.01
  40   7    -0.01  -0.03   0.02     0.02  -0.06   0.06     0.01  -0.01   0.01
  41   1     0.01  -0.00  -0.01     0.00   0.02  -0.00     0.00   0.01   0.00
  42   1    -0.00   0.11  -0.08     0.00   0.07  -0.05     0.01  -0.01   0.01
  43   7     0.00  -0.03   0.02    -0.00  -0.00   0.00    -0.00   0.01  -0.00
  44   1     0.01   0.02  -0.00    -0.10   0.21  -0.12    -0.03   0.04  -0.02
  45   1     0.00   0.03  -0.02    -0.00  -0.19   0.20    -0.00  -0.05   0.06
  46   6     0.01  -0.01  -0.00    -0.06   0.04  -0.07     0.01  -0.01   0.00
  47   8     0.00  -0.00  -0.00    -0.02   0.07  -0.07     0.01  -0.01   0.00
  48   7     0.00   0.01  -0.01    -0.04  -0.02   0.16     0.01   0.01  -0.01
  49   1    -0.01   0.01   0.00     0.00  -0.07  -0.18    -0.00   0.01   0.01
  50   1     0.01   0.01   0.02    -0.04  -0.04   0.02     0.01   0.00  -0.01
  51   7    -0.02   0.01  -0.01     0.15  -0.03   0.22    -0.02   0.00  -0.00
  52   1    -0.00   0.00   0.03    -0.16  -0.10  -0.79    -0.01  -0.00   0.02
  53   1    -0.00   0.00  -0.00     0.03   0.04   0.02    -0.01   0.01  -0.00
                     43                     44                     45
                        a                      a                      a 
 Frequencies --   462.4349               465.2876               469.8498
 Red. masses --     3.4725                 5.2849                 6.5189
 Frc consts  --     0.0000                 0.0000                 0.0000
 IR Inten    --    18.4837                60.1286                18.8578
 Raman Activ --     0.0000                 0.0000                 0.0000
 Depolar     --     0.0000                 0.0000                 0.0000
 Atom AN      X      Y      Z        X      Y      Z        X      Y      Z
   1   8     0.00   0.02   0.01     0.02   0.02   0.02    -0.02  -0.03  -0.05
   2   6    -0.01  -0.01  -0.00     0.01   0.00   0.01    -0.01   0.03   0.00
   3   1    -0.00  -0.00  -0.00     0.01   0.01   0.01    -0.02  -0.05  -0.01
   4   1    -0.00  -0.01  -0.00     0.00  -0.00  -0.01    -0.01   0.03   0.05
   5   6     0.01  -0.03   0.00    -0.05   0.01   0.03     0.15   0.06  -0.10
   6   1     0.02  -0.02   0.01    -0.04   0.03  -0.01     0.12  -0.06   0.04
   7   1     0.01   0.00  -0.02    -0.03  -0.00   0.04     0.09   0.03  -0.13
   8   7    -0.05  -0.00   0.02     0.04  -0.03  -0.04    -0.10   0.16   0.08
   9   6    -0.02   0.03  -0.04     0.02  -0.01   0.05    -0.13   0.02  -0.14
  10   1    -0.02   0.01  -0.02     0.02  -0.01   0.03    -0.06   0.01  -0.07
  11   1     0.01   0.01  -0.01     0.00  -0.00   0.02    -0.06   0.01  -0.07
  12   1     0.01   0.01  -0.02    -0.02   0.01   0.02     0.02  -0.05  -0.04
  13   6     0.04  -0.00  -0.03    -0.05  -0.01  -0.02     0.13  -0.04   0.09
  14   1     0.03   0.01   0.01    -0.03  -0.00  -0.02     0.08  -0.01   0.06
  15   1     0.02  -0.01  -0.03    -0.02   0.00   0.02     0.03  -0.06  -0.04
  16   1     0.01  -0.00  -0.02    -0.01  -0.00  -0.00     0.07  -0.02   0.05
  17   6    -0.02   0.01   0.06     0.05   0.02  -0.04    -0.08  -0.10   0.12
  18   1     0.01   0.01   0.01     0.02   0.01  -0.02    -0.04  -0.04   0.05
  19   1    -0.00   0.00   0.02    -0.00   0.01  -0.00     0.04  -0.06  -0.00
  20   1    -0.01   0.00   0.02     0.02   0.01  -0.01    -0.06  -0.07   0.06
  21   1    -0.01  -0.04   0.01    -0.01  -0.02   0.01    -0.00   0.01  -0.02
  22   6     0.14   0.06   0.03     0.00   0.01   0.02     0.02   0.02  -0.01
  23   8     0.17  -0.10  -0.01     0.01  -0.03   0.02     0.03  -0.01  -0.02
  24   7    -0.13   0.18  -0.06    -0.02   0.02  -0.05    -0.01   0.03   0.04
  25   1    -0.06  -0.01   0.09     0.01   0.00   0.02    -0.02  -0.00   0.00
  26   1    -0.03   0.10   0.03     0.00  -0.00  -0.00    -0.02   0.03  -0.01
  27   7    -0.05  -0.09   0.06     0.01   0.03   0.03    -0.03  -0.03   0.00
  28   1     0.09  -0.35   0.33     0.04  -0.07   0.13    -0.02  -0.01  -0.05
  29   1    -0.45   0.11  -0.52    -0.12   0.05  -0.22    -0.00  -0.01   0.07
  30   6    -0.03   0.04   0.04     0.08  -0.11  -0.09     0.03  -0.03  -0.02
  31   8     0.01   0.05   0.06    -0.03  -0.13  -0.14    -0.02  -0.04  -0.04
  32   7     0.08  -0.03  -0.02    -0.19   0.08   0.04    -0.05   0.03   0.01
  33   1     0.02  -0.01  -0.10    -0.02   0.13   0.12    -0.01   0.01   0.07
  34   1     0.07  -0.05   0.06    -0.19   0.01  -0.04    -0.05   0.03  -0.04
  35   7    -0.06  -0.04  -0.08     0.15   0.09   0.13     0.05   0.02   0.04
  36   1    -0.06  -0.03  -0.02     0.13   0.05   0.05     0.04   0.01   0.02
  37   1     0.01  -0.04  -0.03    -0.02   0.08   0.07    -0.00   0.02   0.02
  38   6     0.02  -0.02  -0.03    -0.08   0.04   0.11    -0.01   0.03   0.05
  39   8    -0.02  -0.03  -0.04     0.06   0.06   0.17    -0.00   0.03   0.06
  40   7     0.04   0.03   0.02    -0.14  -0.05  -0.14    -0.04  -0.06  -0.06
  41   1    -0.00   0.02   0.02     0.02  -0.07  -0.06     0.02  -0.02  -0.05
  42   1     0.03  -0.05   0.05    -0.11   0.07  -0.13    -0.05   0.01  -0.06
  43   7    -0.04   0.04   0.01     0.13  -0.11  -0.01     0.08  -0.01  -0.02
  44   1    -0.06   0.00  -0.01     0.25  -0.16   0.13     0.06   0.01   0.01
  45   1    -0.01  -0.04   0.09     0.02   0.30  -0.43     0.02  -0.02  -0.05
  46   6     0.01  -0.02   0.01    -0.02   0.04  -0.04     0.07  -0.17   0.07
  47   8     0.02  -0.01   0.01    -0.04   0.04  -0.02     0.24  -0.06   0.03
  48   7     0.00   0.03  -0.01    -0.01  -0.05   0.05     0.01   0.21  -0.02
  49   1    -0.02   0.02  -0.01     0.03  -0.04  -0.03    -0.25   0.08  -0.38
  50   1     0.02   0.02  -0.00    -0.03  -0.03   0.04     0.20   0.27   0.14
  51   7    -0.03  -0.01  -0.01     0.08   0.01   0.04    -0.26  -0.07   0.03
  52   1    -0.01  -0.01   0.03    -0.00  -0.00  -0.17    -0.17  -0.09  -0.06
  53   1    -0.01   0.01   0.00     0.02  -0.02  -0.01    -0.09   0.09   0.01
                     46                     47                     48
                        a                      a                      a 
 Frequencies --   473.9943               475.3280               479.5125
 Red. masses --     2.8957                 3.8397                 5.8343
 Frc consts  --     0.0000                 0.0000                 0.0000
 IR Inten    --    45.2083                 9.3467                 4.2300
 Raman Activ --     0.0000                 0.0000                 0.0000
 Depolar     --     0.0000                 0.0000                 0.0000
 Atom AN      X      Y      Z        X      Y      Z        X      Y      Z
   1   8    -0.00  -0.00   0.00     0.01   0.01   0.01    -0.01  -0.02  -0.03
   2   6    -0.01  -0.01   0.00     0.00   0.01   0.00    -0.00   0.02   0.00
   3   1    -0.00  -0.00  -0.00     0.00   0.01   0.00    -0.02  -0.06  -0.01
   4   1    -0.00  -0.00  -0.00     0.00   0.00  -0.00    -0.01   0.03   0.06
   5   6     0.01  -0.02   0.00    -0.02   0.01   0.01     0.16   0.08  -0.12
   6   1     0.01  -0.01   0.01    -0.01   0.01  -0.00     0.13  -0.06   0.04
   7   1     0.01  -0.00  -0.01    -0.01   0.00   0.01     0.09   0.04  -0.15
   8   7    -0.02  -0.01   0.01     0.01  -0.01  -0.02    -0.12   0.18   0.06
   9   6     0.00   0.02  -0.01    -0.00  -0.01   0.02    -0.17   0.02  -0.14
  10   1    -0.00   0.01  -0.01     0.01  -0.01   0.01    -0.07   0.00  -0.06
  11   1     0.01   0.00  -0.00    -0.00  -0.00   0.01    -0.08   0.01  -0.08
  12   1     0.00   0.01  -0.01    -0.01  -0.00   0.01     0.00  -0.05  -0.04
  13   6     0.01   0.01  -0.01    -0.01  -0.02  -0.01     0.16  -0.06   0.09
  14   1     0.01   0.00   0.00    -0.01  -0.00  -0.01     0.09  -0.02   0.07
  15   1     0.01   0.01  -0.01    -0.01  -0.01   0.01     0.03  -0.08  -0.05
  16   1    -0.00   0.00  -0.01     0.00  -0.01   0.00     0.09  -0.02   0.06
  17   6    -0.01   0.01   0.02     0.02  -0.00  -0.01    -0.05  -0.13   0.15
  18   1     0.00   0.00   0.00     0.01  -0.00  -0.00    -0.02  -0.06   0.06
  19   1    -0.01   0.00   0.01     0.00   0.00  -0.00     0.07  -0.07  -0.00
  20   1    -0.00   0.00   0.01     0.01   0.00   0.00    -0.06  -0.08   0.08
  21   1    -0.01  -0.01  -0.00    -0.00  -0.01   0.00     0.01   0.02  -0.01
  22   6     0.02   0.01   0.01     0.05   0.01  -0.02     0.10   0.05  -0.06
  23   8     0.03  -0.02   0.01     0.06  -0.00  -0.04     0.12  -0.02  -0.08
  24   7    -0.03   0.03  -0.02    -0.04   0.05   0.05    -0.08   0.12   0.12
  25   1    -0.01   0.01  -0.02    -0.04  -0.00  -0.01    -0.09  -0.01   0.02
  26   1     0.04  -0.01   0.09    -0.01   0.05   0.04    -0.06   0.13  -0.02
  27   7    -0.01  -0.01  -0.01    -0.04  -0.07  -0.02    -0.10  -0.14  -0.01
  28   1     0.01  -0.05   0.05    -0.02  -0.04  -0.06    -0.04  -0.09  -0.13
  29   1    -0.06   0.01  -0.05    -0.02  -0.02   0.09    -0.05  -0.03   0.20
  30   6     0.06  -0.04  -0.10    -0.05   0.13   0.03     0.01   0.00   0.01
  31   8    -0.02  -0.05  -0.15     0.03   0.16   0.06    -0.01  -0.01   0.01
  32   7    -0.11   0.07  -0.01     0.16  -0.04  -0.04     0.01   0.01   0.01
  33   1    -0.11  -0.30   0.49    -0.07  -0.45   0.27     0.01   0.04  -0.04
  34   1    -0.08   0.30  -0.32     0.19   0.27  -0.23    -0.01  -0.03   0.03
  35   7     0.09   0.00   0.16    -0.13  -0.16  -0.05     0.01  -0.01  -0.03
  36   1     0.08  -0.03   0.11    -0.12  -0.07  -0.03    -0.01   0.00  -0.02
[...]
  44   1    -0.00   0.00   0.01    -0.00  -0.00  -0.00    -0.00   0.00   0.00
  45   1     0.03  -0.00  -0.00    -0.00   0.00   0.00     0.00  -0.00  -0.00
  46   6     0.00   0.01  -0.00     0.00  -0.00   0.00     0.00   0.00   0.00
  47   8     0.00  -0.00  -0.00    -0.00   0.00  -0.00     0.00  -0.00  -0.00
  48   7    -0.00  -0.00   0.00    -0.00   0.00   0.00     0.00  -0.00  -0.00
  49   1    -0.00  -0.00   0.00    -0.00  -0.00   0.00    -0.00  -0.00   0.00
  50   1    -0.00   0.00  -0.00    -0.00   0.00  -0.00    -0.00   0.00   0.00
  51   7     0.12   0.03  -0.01    -0.00  -0.00  -0.00     0.00   0.00  -0.00
  52   1     0.04  -0.04  -0.00    -0.00   0.00   0.00     0.00  -0.00   0.00
  53   1    -0.47  -0.08   0.03     0.01   0.00  -0.00    -0.01  -0.00   0.00
                    142                    143                    144
                        a                      a                      a 
 Frequencies --  3487.7092              3495.2413              3496.4435
 Red. masses --     1.4557                 1.4567                 1.4529
 Frc consts  --     0.0000                 0.0000                 0.0000
 IR Inten    --    29.0798                14.5177                16.4424
 Raman Activ --     0.0000                 0.0000                 0.0000
 Depolar     --     0.0000                 0.0000                 0.0000
 Atom AN      X      Y      Z        X      Y      Z        X      Y      Z
   1   8    -0.00   0.00  -0.00    -0.00   0.00   0.00     0.00  -0.00  -0.00
   2   6    -0.00  -0.00   0.00     0.00  -0.00   0.00    -0.00  -0.00  -0.00
   3   1     0.00  -0.00  -0.00    -0.00   0.00   0.00    -0.00   0.00   0.00
   4   1     0.00   0.00   0.00    -0.00  -0.00   0.00    -0.00  -0.00   0.00
   5   6     0.00  -0.00   0.00    -0.00   0.00   0.00     0.00  -0.00   0.00
   6   1     0.00  -0.00  -0.00     0.00  -0.00  -0.00     0.00  -0.00  -0.00
   7   1    -0.00   0.00   0.00     0.00  -0.00   0.00    -0.00   0.00  -0.00
   8   7     0.00   0.00   0.00     0.00  -0.00   0.00    -0.00  -0.00   0.00
   9   6    -0.00  -0.00   0.00    -0.00   0.00   0.00     0.00   0.00  -0.00
  10   1     0.00  -0.00  -0.00     0.00   0.00  -0.00    -0.00  -0.00   0.00
  11   1    -0.00   0.00  -0.00    -0.00  -0.00   0.00     0.00  -0.00   0.00
  12   1    -0.00   0.00   0.00     0.00   0.00   0.00    -0.00  -0.00  -0.00
  13   6     0.00  -0.00   0.00    -0.00   0.00   0.00     0.00  -0.00   0.00
  14   1     0.00  -0.00  -0.00     0.00   0.00  -0.00     0.00  -0.00  -0.00
  15   1    -0.00   0.00   0.00     0.00  -0.00  -0.00    -0.00   0.00  -0.00
  16   1     0.00   0.00  -0.00    -0.00  -0.00   0.00     0.00  -0.00   0.00
  17   6     0.00  -0.00   0.00    -0.00   0.00   0.00     0.00  -0.00   0.00
  18   1     0.00  -0.00  -0.00    -0.00   0.00  -0.00     0.00  -0.00  -0.00
  19   1     0.00   0.00  -0.00    -0.00  -0.00   0.00     0.00  -0.00   0.00
  20   1    -0.00   0.00  -0.00     0.00  -0.00   0.00    -0.00   0.00  -0.00
  21   1     0.00  -0.00   0.00     0.00  -0.00  -0.01    -0.00   0.00   0.00
  22   6     0.00  -0.00  -0.00     0.00  -0.00   0.00    -0.00   0.00   0.00
  23   8    -0.00   0.00  -0.00    -0.00  -0.00   0.00     0.00   0.00  -0.00
  24   7    -0.00   0.00   0.00    -0.01   0.00   0.01     0.00  -0.00  -0.00
  25   1     0.00  -0.00  -0.00     0.01  -0.01  -0.01    -0.00   0.00   0.00
  26   1     0.00   0.00  -0.00     0.03   0.01  -0.02    -0.00  -0.00   0.00
  27   7     0.00  -0.00  -0.00     0.13  -0.13  -0.03    -0.00   0.00   0.00
  28   1    -0.00  -0.00   0.00    -0.71  -0.13   0.12     0.00   0.00  -0.00
  29   1     0.00   0.00  -0.00     0.22   0.61  -0.01    -0.00  -0.00   0.00
  30   6     0.00   0.00   0.00     0.00  -0.00  -0.00    -0.00  -0.00  -0.00
  31   8    -0.00  -0.00  -0.00    -0.00   0.00   0.00     0.00   0.00  -0.00
  32   7    -0.00  -0.00  -0.00     0.00   0.00   0.00    -0.00  -0.00  -0.00
  33   1     0.00  -0.00  -0.00    -0.00   0.00   0.00     0.00  -0.00  -0.00
  34   1    -0.00   0.00   0.00     0.00  -0.00  -0.00    -0.00   0.00   0.00
  35   7    -0.00  -0.00  -0.00     0.00   0.00   0.00     0.00   0.00   0.00
  36   1     0.00  -0.00  -0.00    -0.00   0.00   0.00    -0.00   0.00   0.00
  37   1     0.01   0.01   0.01    -0.00  -0.00  -0.00    -0.00  -0.00  -0.00
  38   6     0.00  -0.00   0.00     0.00  -0.00  -0.00    -0.00  -0.00   0.00
  39   8     0.00  -0.00  -0.00    -0.00   0.00   0.00     0.00   0.00  -0.00
  40   7    -0.00  -0.00  -0.01     0.00  -0.00  -0.00     0.00  -0.00  -0.00
  41   1     0.01   0.01   0.01     0.00  -0.00  -0.00     0.00   0.00  -0.00
  42   1    -0.01   0.01   0.02    -0.00   0.00   0.00    -0.00   0.00   0.00
  43   7     0.13   0.04   0.12    -0.00  -0.00  -0.00     0.00   0.00   0.01
  44   1     0.23  -0.23  -0.55    -0.00   0.00   0.00     0.01  -0.01  -0.03
  45   1    -0.73   0.08   0.10     0.01  -0.00  -0.00    -0.03   0.00   0.00
  46   6     0.00   0.00  -0.00     0.00  -0.00  -0.00    -0.00   0.00  -0.00
  47   8     0.00  -0.00   0.00    -0.00  -0.00   0.00     0.00  -0.00   0.00
  48   7     0.01   0.00   0.00    -0.00  -0.00  -0.00    -0.18  -0.01  -0.00
  49   1    -0.01  -0.03   0.01     0.00   0.00  -0.00     0.24   0.60  -0.14
  50   1    -0.02   0.02  -0.01     0.00  -0.00   0.00     0.45  -0.55   0.16
  51   7     0.01  -0.00   0.00    -0.00  -0.00   0.00     0.01  -0.01  -0.00
  52   1    -0.00   0.00  -0.00    -0.00   0.00   0.00    -0.03   0.04   0.00
  53   1    -0.02  -0.00   0.00     0.00   0.00  -0.00    -0.01  -0.00   0.00
                    145                    146                    147
                        a                      a                      a 
 Frequencies --  3505.6940              3521.4741              3528.6500
 Red. masses --     1.4480                 1.8909                 1.9250
 Frc consts  --     0.0000                 0.0000                 0.0000
 IR Inten    --    20.3375                11.4892                17.0669
 Raman Activ --     0.0000                 0.0000                 0.0000
 Depolar     --     0.0000                 0.0000                 0.0000
 Atom AN      X      Y      Z        X      Y      Z        X      Y      Z
   1   8    -0.00   0.00   0.00     0.00   0.00   0.00    -0.00   0.00   0.00
   2   6    -0.00  -0.00   0.00    -0.00  -0.00   0.00     0.00  -0.00  -0.00
   3   1    -0.00   0.00  -0.00     0.00  -0.00  -0.00    -0.00  -0.00   0.00
   4   1    -0.00  -0.00  -0.00     0.00  -0.00   0.00    -0.00  -0.00  -0.00
   5   6    -0.00  -0.00   0.00     0.00  -0.00  -0.00    -0.00  -0.00  -0.00
   6   1     0.00  -0.00  -0.00    -0.00  -0.00   0.00     0.00   0.00   0.00
   7   1    -0.00   0.00  -0.00    -0.00   0.00  -0.00    -0.00  -0.00   0.00
   8   7     0.00   0.00   0.00     0.00  -0.00   0.00    -0.00   0.00   0.00
   9   6    -0.00  -0.00   0.00    -0.00   0.00  -0.00     0.00   0.00   0.00
  10   1     0.00  -0.00  -0.00    -0.00  -0.00   0.00    -0.00   0.00   0.00
  11   1     0.00   0.00  -0.00     0.00  -0.00   0.00    -0.00  -0.00  -0.00
  12   1    -0.00  -0.00  -0.00     0.00  -0.00   0.00    -0.00  -0.00  -0.00
  13   6     0.00  -0.00  -0.00    -0.00   0.00  -0.00     0.00   0.00  -0.00
  14   1     0.00  -0.00  -0.00    -0.00   0.00   0.00    -0.00   0.00   0.00
  15   1    -0.00   0.00  -0.00     0.00   0.00   0.00     0.00  -0.00   0.00
  16   1     0.00   0.00   0.00     0.00   0.00   0.00     0.00   0.00   0.00
  17   6     0.00  -0.00   0.00    -0.00   0.00   0.00     0.00   0.00  -0.00
  18   1    -0.00  -0.00   0.00     0.00  -0.00  -0.00     0.00  -0.00  -0.00
  19   1     0.00   0.00  -0.00     0.00   0.00  -0.00    -0.00  -0.00   0.00
  20   1    -0.00   0.00  -0.00     0.00  -0.00  -0.00     0.00  -0.00   0.00
  21   1     0.00  -0.00  -0.00    -0.00  -0.00   0.00     0.00  -0.00  -0.00
  22   6     0.00   0.00  -0.00     0.00  -0.00  -0.00    -0.01   0.00   0.01
  23   8    -0.00   0.00   0.00    -0.00   0.00  -0.00     0.00  -0.00  -0.00
  24   7     0.00   0.00  -0.00     0.00   0.00  -0.00    -0.24  -0.03   0.11
  25   1     0.01  -0.01  -0.00     0.00  -0.00  -0.00     0.06  -0.10  -0.02
  26   1    -0.01  -0.00   0.01    -0.00  -0.00   0.00     0.85   0.19  -0.38
  27   7     0.00  -0.00  -0.00    -0.00   0.00   0.00     0.01   0.02  -0.00
  28   1    -0.00  -0.00   0.00     0.00   0.00  -0.00    -0.02  -0.00   0.00
  29   1     0.00   0.00   0.00    -0.00  -0.00   0.00    -0.03  -0.09   0.00
  30   6    -0.00  -0.00  -0.00     0.00   0.00   0.00    -0.00   0.00   0.00
  31   8    -0.00   0.00   0.00    -0.00  -0.00  -0.00     0.00  -0.00  -0.00
  32   7    -0.11  -0.09  -0.12     0.00  -0.00  -0.00    -0.00  -0.00  -0.00
  33   1     0.64  -0.17  -0.02    -0.00  -0.00  -0.00     0.00  -0.00  -0.00
  34   1    -0.24   0.50   0.47    -0.00   0.00   0.00    -0.00   0.01   0.01
  35   7     0.00   0.01   0.01    -0.00   0.00   0.00     0.00  -0.00  -0.00
  36   1     0.01  -0.04  -0.03     0.00  -0.01  -0.01    -0.00   0.00   0.00
  37   1    -0.01  -0.01  -0.01     0.00   0.00   0.00    -0.00  -0.00  -0.00
  38   6    -0.00  -0.00  -0.00     0.00  -0.00  -0.00    -0.00  -0.00  -0.00
  39   8     0.00   0.00   0.00    -0.00   0.00   0.00     0.00   0.00   0.00
  40   7     0.00  -0.00  -0.00    -0.00   0.00   0.00     0.00  -0.00  -0.00
  41   1    -0.01  -0.00  -0.01     0.00   0.00   0.00    -0.00  -0.00  -0.00
  42   1    -0.00   0.00   0.01     0.00  -0.01  -0.01    -0.00   0.01   0.01
  43   7    -0.00   0.00   0.00     0.00  -0.00  -0.00    -0.00   0.00   0.00
  44   1    -0.00  -0.00  -0.00    -0.01   0.01   0.02     0.00  -0.00  -0.00
  45   1     0.00  -0.00  -0.00    -0.00  -0.00   0.00     0.00  -0.00  -0.00
  46   6    -0.00  -0.00   0.00     0.01  -0.00  -0.00     0.00  -0.00   0.00
  47   8     0.00   0.00   0.00    -0.00   0.00   0.00    -0.00   0.00   0.00
  48   7     0.00  -0.00   0.00     0.01   0.02  -0.01     0.00   0.00  -0.00
  49   1     0.00   0.00  -0.00    -0.03  -0.07   0.02    -0.00  -0.00   0.00
  50   1    -0.00   0.00  -0.00     0.00  -0.00   0.00    -0.00  -0.00   0.00
  51   7     0.00   0.00   0.00     0.17  -0.20  -0.01     0.00  -0.00  -0.00
  52   1     0.00  -0.00  -0.00    -0.57   0.77   0.04    -0.00   0.00   0.00
  53   1    -0.00  -0.00   0.00    -0.07  -0.03   0.00    -0.00  -0.00   0.00
                    148                    149                    150
                        a                      a                      a 
 Frequencies --  3535.3977              3539.7232              3552.9305
 Red. masses --     1.8942                 1.9033                 2.1679
 Frc consts  --     0.0000                 0.0000                 0.0000
 IR Inten    --    13.2684                15.6465                21.7093
 Raman Activ --     0.0000                 0.0000                 0.0000
 Depolar     --     0.0000                 0.0000                 0.0000
 Atom AN      X      Y      Z        X      Y      Z        X      Y      Z
   1   8     0.00   0.00  -0.00     0.00   0.00  -0.00    -0.00   0.00   0.00
   2   6    -0.00   0.00  -0.00     0.00   0.00  -0.00     0.00  -0.00   0.00
   3   1     0.00  -0.00  -0.00    -0.00  -0.00   0.00    -0.00   0.00   0.00
   4   1    -0.00   0.00  -0.00     0.00  -0.00  -0.00     0.00   0.00   0.00
   5   6     0.00  -0.00  -0.00    -0.00   0.00  -0.00    -0.00  -0.00   0.00
   6   1    -0.00  -0.00   0.00    -0.00   0.00   0.00     0.00   0.00  -0.00
   7   1     0.00   0.00   0.00     0.00  -0.00   0.00    -0.00  -0.00   0.00
   8   7     0.00  -0.00  -0.00    -0.00  -0.00   0.00    -0.00   0.00  -0.00
   9   6    -0.00  -0.00   0.00     0.00   0.00   0.00     0.00   0.00  -0.00
  10   1     0.00  -0.00  -0.00     0.00   0.00  -0.00    -0.00   0.00  -0.00
  11   1     0.00   0.00  -0.00    -0.00  -0.00   0.00    -0.00   0.00  -0.00
  12   1    -0.00   0.00   0.00     0.00  -0.00  -0.00    -0.00  -0.00   0.00
  13   6    -0.00  -0.00   0.00    -0.00   0.00   0.00     0.00  -0.00   0.00
  14   1     0.00  -0.00  -0.00     0.00  -0.00  -0.00     0.00   0.00  -0.00
  15   1    -0.00   0.00   0.00    -0.00  -0.00   0.00    -0.00   0.00  -0.00
  16   1     0.00   0.00  -0.00    -0.00   0.00   0.00    -0.00   0.00   0.00
  17   6     0.00   0.00   0.00    -0.00   0.00   0.00     0.00  -0.00   0.00
  18   1     0.00   0.00  -0.00    -0.00  -0.00   0.00     0.00  -0.00   0.00
  19   1     0.00  -0.00  -0.00    -0.00   0.00   0.00     0.00   0.00  -0.00
  20   1    -0.00   0.00  -0.00    -0.00  -0.00   0.00    -0.00   0.00  -0.00
  21   1    -0.00  -0.00   0.00    -0.00   0.00   0.00     0.00  -0.00  -0.00
  22   6     0.00  -0.00  -0.00     0.00   0.00  -0.00    -0.00   0.00   0.00
  23   8    -0.00   0.00   0.00    -0.00  -0.00   0.00     0.00  -0.00  -0.00
  24   7    -0.00   0.00   0.00     0.00  -0.00  -0.00    -0.00  -0.00   0.00
  25   1     0.00  -0.00  -0.00    -0.00   0.00   0.00    -0.00   0.00   0.00
  26   1     0.01   0.00  -0.00    -0.00  -0.00   0.00     0.00   0.00  -0.00
  27   7     0.00   0.00   0.00    -0.00  -0.00   0.00     0.00   0.00  -0.00
  28   1    -0.00  -0.00   0.00     0.00   0.00  -0.00    -0.00  -0.00   0.00
  29   1    -0.00  -0.00  -0.00     0.00   0.00  -0.00    -0.00  -0.00   0.00
  30   6    -0.00   0.00   0.00    -0.00  -0.01  -0.01     0.00  -0.00  -0.00
  31   8     0.00  -0.00  -0.00     0.00   0.00   0.00    -0.00   0.00   0.00
  32   7     0.00  -0.00  -0.00    -0.02   0.01   0.00    -0.00   0.00   0.00
  33   1    -0.00   0.00   0.00     0.08  -0.02  -0.00     0.01  -0.00  -0.00
  34   1    -0.00   0.01   0.01     0.00  -0.01  -0.01     0.00  -0.00  -0.00
  35   7    -0.00   0.01   0.01     0.06  -0.19  -0.16    -0.00  -0.00  -0.00
  36   1     0.02  -0.03  -0.03    -0.30   0.70   0.58    -0.01   0.01   0.01
  37   1    -0.00  -0.00  -0.00     0.07   0.03   0.04     0.01   0.00   0.01
  38   6     0.00   0.01   0.01     0.00  -0.00  -0.00     0.01  -0.00  -0.01
  39   8    -0.00  -0.00  -0.00    -0.00   0.00   0.00    -0.00   0.00   0.00
  40   7    -0.08   0.14   0.20    -0.01   0.01   0.01     0.01  -0.02  -0.03
  41   1    -0.05  -0.02  -0.03    -0.00   0.00   0.00     0.01   0.00   0.01
  42   1     0.35  -0.52  -0.72     0.02  -0.03  -0.04    -0.05   0.08   0.11
  43   7     0.04  -0.01  -0.02    -0.00   0.00   0.00     0.22  -0.08  -0.18
  44   1    -0.03   0.03   0.08     0.00  -0.00  -0.01    -0.23   0.25   0.63
  45   1    -0.11   0.01   0.01     0.00  -0.00  -0.00    -0.61   0.06   0.05
  46   6    -0.00   0.00  -0.00    -0.00  -0.00   0.00    -0.00   0.00  -0.00
  47   8     0.00  -0.00  -0.00     0.00   0.00  -0.00     0.00  -0.00   0.00
  48   7    -0.00  -0.00   0.00     0.00   0.00  -0.00    -0.00  -0.00   0.00
  49   1     0.00   0.00  -0.00    -0.00  -0.00   0.00     0.00   0.01  -0.00
  50   1    -0.00  -0.00  -0.00     0.00   0.00   0.00    -0.00   0.00  -0.00
  51   7    -0.00   0.00   0.00     0.00  -0.00  -0.00     0.00   0.00   0.00
  52   1     0.01  -0.01  -0.00    -0.01   0.01   0.00     0.01  -0.01  -0.00
  53   1     0.00   0.00  -0.00    -0.01  -0.00   0.00    -0.01  -0.00   0.00
                    151                    152                    153
                        a                      a                      a 
 Frequencies --  3558.8065              3561.2897              3572.4751
 Red. masses --     2.1714                 2.1775                 2.1860
 Frc consts  --     0.0000                 0.0000                 0.0000
 IR Inten    --     9.0955                10.2715                17.0714
 Raman Activ --     0.0000                 0.0000                 0.0000
 Depolar     --     0.0000                 0.0000                 0.0000
 Atom AN      X      Y      Z        X      Y      Z        X      Y      Z
   1   8     0.00  -0.00  -0.00     0.00   0.00  -0.00     0.00  -0.00  -0.00
   2   6    -0.00   0.00   0.00    -0.00  -0.00   0.00     0.00   0.00  -0.00
   3   1     0.00  -0.00  -0.00     0.00  -0.00  -0.00    -0.00  -0.00   0.00
   4   1     0.00   0.00   0.00     0.00  -0.00   0.00     0.00  -0.00  -0.00
   5   6     0.00  -0.00   0.00     0.00  -0.00   0.00     0.00   0.00  -0.00
   6   1    -0.00   0.00   0.00     0.00  -0.00   0.00     0.00   0.00   0.00
   7   1     0.00   0.00  -0.00    -0.00   0.00  -0.00    -0.00  -0.00   0.00
   8   7    -0.00  -0.00  -0.00    -0.00  -0.00  -0.00    -0.00  -0.00   0.00
   9   6     0.00   0.00  -0.00     0.00   0.00  -0.00     0.00   0.00  -0.00
  10   1    -0.00  -0.00   0.00     0.00  -0.00   0.00    -0.00   0.00   0.00
  11   1     0.00   0.00  -0.00     0.00  -0.00   0.00    -0.00  -0.00   0.00
  12   1     0.00   0.00   0.00     0.00  -0.00  -0.00     0.00   0.00  -0.00
  13   6    -0.00  -0.00   0.00     0.00  -0.00   0.00     0.00   0.00  -0.00
  14   1    -0.00  -0.00  -0.00     0.00  -0.00   0.00    -0.00   0.00   0.00
  15   1    -0.00   0.00  -0.00    -0.00   0.00  -0.00    -0.00  -0.00   0.00
  16   1     0.00   0.00  -0.00     0.00  -0.00   0.00    -0.00  -0.00   0.00
  17   6     0.00  -0.00   0.00     0.00  -0.00   0.00     0.00  -0.00  -0.00
  18   1     0.00   0.00   0.00     0.00  -0.00  -0.00     0.00   0.00   0.00
  19   1     0.00   0.00  -0.00     0.00  -0.00   0.00    -0.00  -0.00   0.00
  20   1    -0.00   0.00  -0.00    -0.00   0.00  -0.00    -0.00   0.00  -0.00
  21   1    -0.00   0.00   0.01    -0.00  -0.00   0.00    -0.00   0.00   0.00
  22   6     0.01   0.01  -0.00    -0.00  -0.00   0.00    -0.00   0.00  -0.00
  23   8    -0.00  -0.00  -0.00     0.00   0.00  -0.00     0.00  -0.00  -0.00
  24   7     0.02   0.00  -0.01    -0.00   0.00   0.00     0.00  -0.00  -0.00
  25   1    -0.01   0.01   0.00     0.00  -0.00  -0.00    -0.00   0.01   0.00
  26   1    -0.08  -0.02   0.03     0.00   0.00  -0.00    -0.00  -0.00   0.00
  27   7     0.22   0.20  -0.03    -0.00  -0.00   0.00     0.00   0.00  -0.00
  28   1    -0.62  -0.09   0.10     0.00   0.00  -0.00    -0.00  -0.00   0.00
  29   1    -0.21  -0.68   0.01     0.00   0.01  -0.00    -0.00  -0.00   0.00
  30   6     0.00  -0.00  -0.00    -0.00  -0.00   0.00     0.01  -0.01  -0.00
  31   8    -0.00   0.00   0.00    -0.00   0.00  -0.00    -0.00   0.00   0.00
  32   7    -0.00   0.00   0.00    -0.00   0.00   0.00     0.23  -0.16  -0.11
  33   1     0.00  -0.00  -0.00     0.00  -0.00   0.00    -0.68   0.16   0.00
  34   1     0.00  -0.00  -0.00     0.00  -0.00  -0.00    -0.19   0.45   0.43
  35   7    -0.00  -0.00  -0.00    -0.00  -0.00  -0.00     0.00  -0.01  -0.01
  36   1    -0.00   0.00   0.00    -0.00   0.00   0.00    -0.02   0.05   0.04
  37   1     0.00   0.00   0.00     0.00   0.00   0.00     0.01   0.00   0.00
  38   6    -0.00   0.00   0.00    -0.00  -0.00  -0.00     0.00  -0.00  -0.00
  39   8     0.00  -0.00  -0.00    -0.00   0.00   0.00    -0.00   0.00   0.00
  40   7    -0.00  -0.00  -0.00    -0.00  -0.00  -0.00    -0.00  -0.00  -0.00
  41   1     0.00   0.00   0.00     0.00   0.00   0.00     0.00   0.00   0.00
  42   1     0.00   0.00  -0.00    -0.00   0.00   0.00    -0.00   0.00   0.00
  43   7    -0.00   0.00   0.00    -0.00   0.00   0.00     0.00  -0.00  -0.00
  44   1     0.00  -0.00  -0.00     0.00  -0.00  -0.00    -0.00   0.00   0.00
  45   1     0.00  -0.00  -0.00     0.01  -0.00  -0.00    -0.00   0.00   0.00
  46   6    -0.00  -0.00   0.00     0.00  -0.01   0.00    -0.00  -0.00   0.00
  47   8     0.00   0.00  -0.00    -0.00   0.00  -0.00     0.00   0.00  -0.00
  48   7     0.00  -0.00   0.00     0.04  -0.29   0.08     0.00  -0.00   0.00
  49   1     0.00   0.00  -0.00     0.28   0.63  -0.15     0.00   0.00  -0.00
  50   1    -0.00   0.00  -0.00    -0.41   0.47  -0.14    -0.00   0.00  -0.00
  51   7     0.00  -0.00  -0.00     0.01  -0.01  -0.00     0.00  -0.00  -0.00
  52   1    -0.00   0.00   0.00    -0.04   0.05   0.00    -0.00   0.00   0.00
  53   1    -0.00  -0.00   0.00    -0.01  -0.00   0.00    -0.00  -0.00   0.00
