      -----------------------------------------------------------      
     |                   =====================                   |     
     |                           x T B                           |     
     |                   =====================                   |     
     |                         S. Grimme                         |     
     |          Mulliken Center for Theoretical Chemistry        |     
     |                    University of Bonn                     |     
      -----------------------------------------------------------      

   * xtb version 6.6.1 (unknown-commit) compiled by '@Linux' on 12/27/2023

   xtb is free software: you can redistribute it and/or modify it under
   the terms of the GNU Lesser General Public License as published by
   the Free Software Foundation, either version 3 of the License, or
   (at your option) any later version.
   
   xtb is distributed in the hope that it will be useful,
   but WITHOUT ANY WARRANTY; without even the implied warranty of
   MERCHANTABILITY or FITNESS FOR A PARTICULAR PURPOSE.  See the
   GNU Lesser General Public License for more details.
   
   Cite this work as:
   * C. Bannwarth, E. Caldeweyher, S. Ehlert, A. Hansen, P. Pracht,
     J. Seibert, S. Spicher, S. Grimme, WIREs Comput. Mol. Sci., 2020, 11,
     e01493. DOI: 10.1002/wcms.1493
   
   for GFN2-xTB:
   * C. Bannwarth, S. Ehlert and S. Grimme., J. Chem. Theory Comput., 2019,
     15, 1652-1671. DOI: 10.1021/acs.jctc.8b01176
   for GFN1-xTB:
   * S. Grimme, C. Bannwarth, P. Shushkov, J. Chem. Theory Comput., 2017,
     13, 1989-2009. DOI: 10.1021/acs.jctc.7b00118
   for GFN0-xTB:
   * P. Pracht, E. Caldeweyher, S. Ehlert, S. Grimme, ChemRxiv, 2019, preprint.
     DOI: 10.26434/chemrxiv.8326202.v1
   for GFN-FF:
   * S. Spicher and S. Grimme, Angew. Chem. Int. Ed., 2020, 59, 15665-15673.
     DOI: 10.1002/anie.202004239
   
   for ALPB and GBSA implicit solvation:
   * S. Ehlert, M. Stahn, S. Spicher, S. Grimme, J. Chem. Theory Comput.,
     2021, 17, 4250-4261. DOI: 10.1021/acs.jctc.1c00471
   
   for DFT-D4:
   * E. Caldeweyher, C. Bannwarth and S. Grimme, J. Chem. Phys., 2017,
     147, 034112. DOI: 10.1063/1.4993215
   * E. Caldeweyher, S. Ehlert, A. Hansen, H. Neugebauer, S. Spicher,
     C. Bannwarth and S. Grimme, J. Chem. Phys., 2019, 150, 154122.
     DOI: 10.1063/1.5090222
   * E. Caldeweyher, J.-M. Mewes, S. Ehlert and S. Grimme, Phys. Chem. Chem. Phys.
     2020, 22, 8499-8512. DOI: 10.1039/D0CP00502A
   
   for sTDA-xTB:
   * S. Grimme and C. Bannwarth, J. Chem. Phys., 2016, 145, 054103.
     DOI: 10.1063/1.4959605
   
   in the mass-spec context:
   * V. Asgeirsson, C. Bauer and S. Grimme, Chem. Sci., 2017, 8, 4879.
     DOI: 10.1039/c7sc00601b
   * J. Koopman and S. Grimme, ACS Omega 2019, 4, 12, 15120-15133.
     DOI: 10.1021/acsomega.9b02011
   
   for metadynamics refer to:
   * S. Grimme, J. Chem. Theory Comput., 2019, 155, 2847-2862
     DOI: 10.1021/acs.jctc.9b00143
   
   for SPH calculations refer to:
   * S. Spicher and S. Grimme, J. Chem. Theory Comput., 2021, 17, 1701-1714
     DOI: 10.1021/acs.jctc.0c01306
   
   with help from (in alphabetical order)
   P. Atkinson, C. Bannwarth, F. Bohle, G. Brandenburg, E. Caldeweyher
   M. Checinski, S. Dohm, S. Ehlert, S. Ehrlich, I. Gerasimov, C. Hölzer
   A. Katbashev, J. Koopman, C. Lavigne, S. Lehtola, F. März, M. Müller,
   F. Musil, H. Neugebauer, J. Pisarek, C. Plett, P. Pracht, F. Pultar,
   J. Seibert, P. Shushkov, S. Spicher, M. Stahn, M. Steiner, T. Strunk,
   J. Stückrath, T. Rose, and J. Unsleber
   
 * started run on 2024/01/10 at 15:32:59.612     

           -------------------------------------------------
          |                Calculation Setup                |
           -------------------------------------------------

          program call               : xtb struc.xyz --gfn2 --hess
          hostname                   : swaroop
          coordinate file            : struc.xyz
          omp threads                :                     1

   ID    Z sym.   atoms
    1    8 O      1, 23, 31, 39, 47
    2    6 C      2, 5, 9, 13, 17, 22, 30, 38, 46
    3    1 H      3, 4, 6, 7, 10-12, 14-16, 18-21, 25, 26, 28, 29, 33, 34,
                  36, 37, 41, 42, 44, 45, 49, 50, 52, 53
    4    7 N      8, 24, 27, 32, 35, 40, 43, 48, 51

molecular fragmentation (1/2 indicates fragments):
11111111111111111111122222222222222222222222222222222
# atoms in fragment 1/2:    21    32
 fragment masses (1/2) :      104.17      240.22
CMA distance (Bohr)    :   6.302
constraining FC (au)   :  0.0500

           -------------------------------------------------
          |                 G F N 2 - x T B                 |
           -------------------------------------------------

        Reference                      10.1021/acs.jctc.8b01176
      * Hamiltonian:
        H0-scaling (s, p, d)           1.850000    2.230000    2.230000
        zeta-weighting                 0.500000
      * Dispersion:
        s8                             2.700000
        a1                             0.520000
        a2                             5.000000
        s9                             5.000000
      * Repulsion:
        kExp                           1.500000    1.000000
        rExp                           1.000000
      * Coulomb:
        alpha                          2.000000
        third order                    shell-resolved
        anisotropic                    true
        a3                             3.000000
        a5                             4.000000
        cn-shift                       1.200000
        cn-exp                         4.000000
        max-rad                        5.000000


          ...................................................
          :                      SETUP                      :
          :.................................................:
          :  # basis functions                 122          :
          :  # atomic orbitals                 122          :
          :  # shells                           76          :
          :  # electrons                       140          :
          :  max. iterations                   250          :
          :  Hamiltonian                  GFN2-xTB          :
          :  restarted?                      false          :
          :  GBSA solvation                  false          :
          :  PC potential                    false          :
          :  electronic temp.          300.0000000     K    :
          :  accuracy                    1.0000000          :
          :  -> integral cutoff          0.2500000E+02      :
          :  -> integral neglect         0.1000000E-07      :
          :  -> SCF convergence          0.1000000E-05 Eh   :
          :  -> wf. convergence          0.1000000E-03 e    :
          :  Broyden damping             0.4000000          :
          ...................................................

 iter      E             dE          RMSdq      gap      omega  full diag
   1    -81.5648546 -0.815649E+02  0.428E+00    5.18       0.0  T
   2    -81.8424968 -0.277642E+00  0.232E+00    6.02       1.0  T
   3    -81.8483052 -0.580835E-02  0.112E+00    5.73       1.0  T
   4    -81.8497865 -0.148133E-02  0.244E-01    5.80       1.0  T
   5    -81.8507061 -0.919581E-03  0.913E-02    5.73       1.0  T
   6    -81.8507306 -0.244662E-04  0.265E-02    5.75       1.0  T
   7    -81.8507344 -0.384798E-05  0.742E-03    5.75       1.9  T
   8    -81.8507347 -0.274505E-06  0.258E-03    5.75       5.3  T
   9    -81.8507347 -0.113798E-07  0.798E-04    5.75      17.2  T
  10    -81.8507347 -0.439817E-08  0.165E-04    5.75      83.4  T

   *** convergence criteria satisfied after 10 iterations ***

         #    Occupation            Energy/Eh            Energy/eV
      -------------------------------------------------------------
         1        2.0000           -0.8039613             -21.8769
       ...           ...                  ...                  ...
        64        2.0000           -0.5003903             -13.6163
        65        2.0000           -0.4995496             -13.5934
        66        2.0000           -0.4980872             -13.5536
        67        2.0000           -0.4958098             -13.4917
        68        2.0000           -0.4946971             -13.4614
        69        2.0000           -0.4914019             -13.3717
        70        2.0000           -0.4896751             -13.3247 (HOMO)
        71                         -0.2783344              -7.5739 (LUMO)
        72                         -0.2716290              -7.3914
        73                         -0.2703521              -7.3567
        74                         -0.2609103              -7.0997
        75                         -0.1591629              -4.3310
       ...                                ...                  ...
       122                          0.5601035              15.2412
      -------------------------------------------------------------
                  HL-Gap            0.2113407 Eh            5.7509 eV
             Fermi-level           -0.3840048 Eh          -10.4493 eV

 SCC (total)                   0 d,  0 h,  0 min,  0.071 sec
 SCC setup                      ...        0 min,  0.000 sec (  0.401%)
 Dispersion                     ...        0 min,  0.001 sec (  0.822%)
 classical contributions        ...        0 min,  0.000 sec (  0.250%)
 integral evaluation            ...        0 min,  0.008 sec ( 11.230%)
 iterations                     ...        0 min,  0.034 sec ( 48.028%)
 molecular gradient             ...        0 min,  0.028 sec ( 38.907%)
 printout                       ...        0 min,  0.000 sec (  0.345%)

         :::::::::::::::::::::::::::::::::::::::::::::::::::::
         ::                     SUMMARY                     ::
         :::::::::::::::::::::::::::::::::::::::::::::::::::::
         :: total energy             -80.939929328883 Eh    ::
         :: gradient norm              0.000148563543 Eh/a0 ::
         :: HOMO-LUMO gap              5.750873964810 eV    ::
         ::.................................................::
         :: SCC energy               -81.850734715247 Eh    ::
         :: -> isotropic ES            0.294757134210 Eh    ::
         :: -> anisotropic ES         -0.030179696452 Eh    ::
         :: -> anisotropic XC          0.019766844215 Eh    ::
         :: -> dispersion             -0.045720094368 Eh    ::
         :: repulsion energy           0.908941354346 Eh    ::
         :: add. restraining           0.000000000000 Eh    ::
         :: total charge               1.000000000000 e     ::
         :::::::::::::::::::::::::::::::::::::::::::::::::::::

           ------------------------------------------------- 
          |                Numerical Hessian                |
           ------------------------------------------------- 
step length          :   0.00500
SCC accuracy         :   0.30000
Hessian scale factor :   1.00000
frozen atoms in %    :   0.00000    0
RMS gradient         :   0.00015
estimated CPU  time      0.24 min
estimated wall time      0.24 min

writing file <hessian>.

 projected vibrational frequencies (cm⁻¹)
eigval :       -0.00    -0.00    -0.00     0.00     0.00     0.00
eigval :       18.00    24.03    28.73    37.18    39.61    47.62
eigval :       49.08    50.30    57.21    59.71    67.34    70.23
eigval :       72.12    80.90    98.52   106.86   109.45   125.18
eigval :      131.99   141.62   150.49   166.22   187.36   188.92
eigval :      210.92   222.93   252.46   254.74   256.74   292.06
eigval :      295.17   299.92   325.92   349.96   375.32   380.35
eigval :      391.41   410.70   429.14   450.71   460.10   462.89
eigval :      464.58   468.79   470.58   472.64   480.15   483.91
eigval :      500.45   513.51   537.23   548.96   554.55   558.08
eigval :      579.35   636.88   655.66   669.08   673.72   676.16
eigval :      689.41   699.54   721.20   752.82   764.49   791.36
eigval :      911.28   922.09   959.47   965.02   965.93   990.11
eigval :      995.96  1003.81  1014.13  1019.24  1023.12  1028.72
eigval :     1033.98  1037.30  1042.20  1085.70  1087.31  1088.49
eigval :     1091.53  1096.49  1102.91  1125.05  1161.25  1223.06
eigval :     1244.65  1272.43  1315.29  1325.61  1349.07  1353.19
eigval :     1361.82  1363.57  1377.99  1393.67  1403.61  1411.61
eigval :     1420.97  1436.85  1439.80  1444.16  1446.46  1450.59
eigval :     1454.70  1458.03  1462.85  1465.94  1468.93  1481.92
eigval :     1485.99  1503.15  1508.55  1515.67  1534.53  1633.94
eigval :     1675.62  1693.79  1712.27  2897.22  2986.23  2999.76
eigval :     3016.06  3023.31  3036.50  3037.76  3040.88  3043.06
eigval :     3044.52  3046.70  3052.17  3061.47  3148.47  3164.39
eigval :     3229.78  3277.89  3303.39  3369.48  3497.92  3498.25
eigval :     3499.08  3522.55  3532.27  3533.96  3538.47  3538.63
eigval :     3562.70  3564.53  3564.62
           -------------------------------------------------
          |                Property Printout                |
           -------------------------------------------------

    * Orbital Energies and Occupations

         #    Occupation            Energy/Eh            Energy/eV
      -------------------------------------------------------------
         1        2.0000           -0.8039606             -21.8769
       ...           ...                  ...                  ...
        58        2.0000           -0.5114269             -13.9166
        59        2.0000           -0.5096132             -13.8673
        60        2.0000           -0.5082210             -13.8294
        61        2.0000           -0.5070134             -13.7965
        62        2.0000           -0.5041274             -13.7180
        63        2.0000           -0.5022536             -13.6670
        64        2.0000           -0.5003906             -13.6163
        65        2.0000           -0.4995495             -13.5934
        66        2.0000           -0.4980886             -13.5537
        67        2.0000           -0.4958102             -13.4917
        68        2.0000           -0.4946970             -13.4614
        69        2.0000           -0.4914040             -13.3718
        70        2.0000           -0.4896774             -13.3248 (HOMO)
        71                         -0.2783358              -7.5739 (LUMO)
        72                         -0.2716294              -7.3914
        73                         -0.2703516              -7.3566
        74                         -0.2609127              -7.0998
        75                         -0.1591620              -4.3310
        76                         -0.1096867              -2.9847
        77                         -0.0933186              -2.5393
        78                         -0.0922861              -2.5112
        79                         -0.0828569              -2.2547
        80                         -0.0800906              -2.1794
        81                         -0.0700281              -1.9056
       ...                                ...                  ...
       122                          0.5601024              15.2412
      -------------------------------------------------------------
                  HL-Gap            0.2113415 Eh            5.7509 eV
             Fermi-level           -0.3840066 Eh          -10.4494 eV

     #   Z          covCN         q      C6AA      α(0)
     1   8 O        1.654    -0.459    22.039     6.337
     2   6 C        3.673     0.072    19.604     6.345
     3   1 H        0.924     0.059     2.216     2.328
     4   1 H        0.923     0.048     2.344     2.394
     5   6 C        3.768    -0.072    21.919     6.672
     6   1 H        0.924     0.105     1.740     2.063
     7   1 H        0.924     0.114     1.666     2.018
     8   7 N        3.623     0.157    18.598     6.405
     9   6 C        3.735    -0.123    22.952     6.837
    10   1 H        0.924     0.129     1.542     1.942
    11   1 H        0.925     0.077     2.013     2.219
    12   1 H        0.925     0.114     1.663     2.017
    13   6 C        3.724    -0.106    22.637     6.794
    14   1 H        0.925     0.092     1.860     2.133
    15   1 H        0.925     0.085     1.929     2.172
    16   1 H        0.925     0.124     1.584     1.968
    17   6 C        3.720    -0.103    22.593     6.789
    18   1 H        0.925     0.117     1.634     1.999
    19   1 H        0.925     0.096     1.825     2.112
    20   1 H        0.925     0.079     1.986     2.204
    21   1 H        0.803     0.329     0.639     1.256
    22   6 C        2.675     0.343    21.172     7.529
    23   8 O        0.860    -0.538    24.646     6.656
    24   7 N        2.645    -0.300    27.738     7.822
    25   1 H        0.860     0.237     0.937     1.517
    26   1 H        0.861     0.179     1.221     1.731
    27   7 N        2.646    -0.295    27.616     7.805
    28   1 H        0.861     0.182     1.204     1.719
    29   1 H        0.860     0.195     1.130     1.665
    30   6 C        2.675     0.339    21.238     7.541
    31   8 O        0.861    -0.550    24.928     6.694
    32   7 N        2.644    -0.305    27.861     7.839
    33   1 H        0.860     0.235     0.943     1.521
    34   1 H        0.861     0.179     1.218     1.729
    35   7 N        2.643    -0.304    27.822     7.834
    36   1 H        0.861     0.179     1.222     1.732
    37   1 H        0.859     0.247     0.896     1.483
    38   6 C        2.675     0.341    21.201     7.535
    39   8 O        0.861    -0.533    24.529     6.640
    40   7 N        2.643    -0.318    28.179     7.884
    41   1 H        0.859     0.242     0.914     1.498
    42   1 H        0.860     0.177     1.233     1.739
    43   7 N        2.644    -0.285    27.354     7.768
    44   1 H        0.861     0.187     1.174     1.697
    45   1 H        0.860     0.207     1.070     1.620
    46   6 C        2.675     0.342    21.193     7.533
    47   8 O        0.861    -0.523    24.300     6.609
    48   7 N        2.644    -0.308    27.924     7.848
    49   1 H        0.860     0.241     0.918     1.501
    50   1 H        0.861     0.178     1.226     1.734
    51   7 N        2.645    -0.289    27.454     7.782
    52   1 H        0.861     0.185     1.188     1.707
    53   1 H        0.860     0.202     1.097     1.641

 Mol. C6AA /au·bohr⁶  :      21795.719219
 Mol. C8AA /au·bohr⁸  :     454462.652923
 Mol. α(0) /au        :        220.557500


Wiberg/Mayer (AO) data.
largest (>0.10) Wiberg bond orders for each atom

 ---------------------------------------------------------------------------
     #   Z sym  total        # sym  WBO       # sym  WBO       # sym  WBO
 ---------------------------------------------------------------------------
     1   8 O    1.960 --     2 C    1.021    21 H    0.837
     2   6 C    3.965 --     1 O    1.021     5 C    0.994     3 H    0.965
                             4 H    0.961
     3   1 H    0.996 --     2 C    0.965
     4   1 H    0.997 --     2 C    0.961
     5   6 C    3.926 --     2 C    0.994     6 H    0.955     7 H    0.953
                             8 N    0.930
     6   1 H    0.989 --     5 C    0.955
     7   1 H    0.987 --     5 C    0.953
     8   7 N    3.822 --    17 C    0.961    13 C    0.961     9 C    0.952
                             5 C    0.930
     9   6 C    3.913 --    11 H    0.979    12 H    0.959    10 H    0.954
                             8 N    0.952
    10   1 H    0.983 --     9 C    0.954
    11   1 H    0.994 --     9 C    0.979
    12   1 H    0.987 --     9 C    0.959
    13   6 C    3.928 --    15 H    0.977    14 H    0.973    16 H    0.964
                             8 N    0.961
    14   1 H    0.991 --    13 C    0.973
    15   1 H    0.993 --    13 C    0.977
    16   1 H    0.985 --    13 C    0.964
    17   6 C    3.930 --    20 H    0.978    19 H    0.973    18 H    0.964
                             8 N    0.961
    18   1 H    0.986 --    17 C    0.964
    19   1 H    0.991 --    17 C    0.973
    20   1 H    0.994 --    17 C    0.978
    21   1 H    0.892 --     1 O    0.837
    22   6 C    3.959 --    23 O    1.514    24 N    1.242    27 N    1.194
    23   8 O    1.879 --    22 C    1.514    24 N    0.147    27 N    0.135
    24   7 N    3.339 --    22 C    1.242    26 H    0.949    25 H    0.894
                            23 O    0.147
    25   1 H    0.944 --    24 N    0.894
    26   1 H    0.968 --    24 N    0.949
    27   7 N    3.309 --    22 C    1.194    28 H    0.948    29 H    0.945
                            23 O    0.135
    28   1 H    0.967 --    27 N    0.948
    29   1 H    0.962 --    27 N    0.945
    30   6 C    3.960 --    31 O    1.427    35 N    1.272    32 N    1.248
    31   8 O    1.903 --    30 C    1.427    35 N    0.131    32 N    0.127
    32   7 N    3.339 --    30 C    1.248    34 H    0.948    33 H    0.883
                            31 O    0.127
    33   1 H    0.944 --    32 N    0.883
    34   1 H    0.967 --    32 N    0.948
    35   7 N    3.351 --    30 C    1.272    36 H    0.948    37 H    0.862
                            31 O    0.131
    36   1 H    0.968 --    35 N    0.948
    37   1 H    0.939 --    35 N    0.862
    38   6 C    3.960 --    39 O    1.477    40 N    1.240    43 N    1.227
    39   8 O    1.899 --    38 C    1.477    40 N    0.136    43 N    0.134
    40   7 N    3.321 --    38 C    1.240    42 H    0.949    41 H    0.866
                            39 O    0.136
    41   1 H    0.941 --    40 N    0.866
    42   1 H    0.969 --    40 N    0.949
    43   7 N    3.342 --    38 C    1.227    44 H    0.946    45 H    0.940
                            39 O    0.134
    44   1 H    0.965 --    43 N    0.946
    45   1 H    0.957 --    43 N    0.940
    46   6 C    3.960 --    47 O    1.485    48 N    1.254    51 N    1.210
    47   8 O    1.923 --    46 C    1.485    48 N    0.143    51 N    0.131
    48   7 N    3.341 --    46 C    1.254    50 H    0.949    49 H    0.871
                            47 O    0.143
    49   1 H    0.942 --    48 N    0.871
    50   1 H    0.968 --    48 N    0.949
    51   7 N    3.323 --    46 C    1.210    52 H    0.947    53 H    0.942
                            47 O    0.131
    52   1 H    0.965 --    51 N    0.947
    53   1 H    0.959 --    51 N    0.942
 ---------------------------------------------------------------------------

Topologies differ in total number of bonds
Writing topology from bond orders to xtbtopo.mol

molecular dipole:
                 x           y           z       tot (Debye)
 q only:        0.481      -1.094       1.201
   full:        0.435      -0.482       1.599       4.386
molecular quadrupole (traceless):
                xx          xy          yy          xz          yz          zz
 q only:       20.006      16.798     -10.508      -3.765      -0.039      -9.498
  q+dip:       27.020      20.273     -16.523      -5.386      -1.994     -10.498
   full:       27.092      19.870     -16.113      -5.494      -1.860     -10.979

           -------------------------------------------------
          |               Frequency Printout                |
           -------------------------------------------------
 projected vibrational frequencies (cm⁻¹)
eigval :       -0.00    -0.00    -0.00     0.00     0.00     0.00
eigval :       18.00    24.03    28.73    37.18    39.61    47.62
eigval :       49.08    50.30    57.21    59.71    67.34    70.23
eigval :       72.12    80.90    98.52   106.86   109.45   125.18
eigval :      131.99   141.62   150.49   166.22   187.36   188.92
eigval :      210.92   222.93   252.46   254.74   256.74   292.06
eigval :      295.17   299.92   325.92   349.96   375.32   380.35
eigval :      391.41   410.70   429.14   450.71   460.10   462.89
eigval :      464.58   468.79   470.58   472.64   480.15   483.91
eigval :      500.45   513.51   537.23   548.96   554.55   558.08
eigval :      579.35   636.88   655.66   669.08   673.72   676.16
eigval :      689.41   699.54   721.20   752.82   764.49   791.36
eigval :      911.28   922.09   959.47   965.02   965.93   990.11
eigval :      995.96  1003.81  1014.13  1019.24  1023.12  1028.72
eigval :     1033.98  1037.30  1042.20  1085.70  1087.31  1088.49
eigval :     1091.53  1096.49  1102.91  1125.05  1161.25  1223.06
eigval :     1244.65  1272.43  1315.29  1325.61  1349.07  1353.19
eigval :     1361.82  1363.57  1377.99  1393.67  1403.61  1411.61
eigval :     1420.97  1436.85  1439.80  1444.16  1446.46  1450.59
eigval :     1454.70  1458.03  1462.85  1465.94  1468.93  1481.92
eigval :     1485.99  1503.15  1508.55  1515.67  1534.53  1633.94
eigval :     1675.62  1693.79  1712.27  2897.22  2986.23  2999.76
eigval :     3016.06  3023.31  3036.50  3037.76  3040.88  3043.06
eigval :     3044.52  3046.70  3052.17  3061.47  3148.47  3164.39
eigval :     3229.78  3277.89  3303.39  3369.48  3497.92  3498.25
eigval :     3499.08  3522.55  3532.27  3533.96  3538.47  3538.63
eigval :     3562.70  3564.53  3564.62
 reduced masses (amu)
   1: 12.49   2: 12.40   3: 12.55   4: 12.36   5: 12.84   6: 12.74   7: 12.25   8: 12.27
   9: 12.10  10: 12.15  11: 12.58  12: 12.52  13: 12.23  14: 12.60  15: 12.95  16: 12.43
  17: 11.01  18: 12.59  19: 13.10  20: 12.61  21: 12.73  22: 11.69  23: 12.50  24: 12.71
  25: 12.15  26: 13.25  27: 13.08  28: 12.86  29:  9.02  30: 12.90  31: 13.31  32: 12.51
  33:  3.92  34:  3.71  35:  2.98  36:  3.41  37:  2.95  38:  7.51  39:  6.69  40:  2.32
  41:  6.92  42:  3.59  43:  2.08  44:  3.13  45:  8.83  46:  4.00  47:  8.42  48:  3.66
  49:  2.93  50:  7.51  51:  6.63  52:  7.52  53:  3.73  54:  8.34  55:  2.07  56:  8.96
  57: 11.29  58: 10.58  59: 11.49  60:  9.05  61: 12.26  62:  3.29  63:  6.87  64: 10.70
  65:  7.85  66: 11.37  67:  6.34  68:  5.23  69:  2.04  70:  1.90  71:  9.14  72:  2.60
  73:  7.04  74:  8.30  75:  4.90  76:  4.98  77:  5.21  78:  4.34  79:  7.41  80:  8.89
  81:  7.52  82:  9.18  83:  5.85  84:  9.65  85:  6.91  86:  3.28  87: 10.12  88:  9.31
  89:  8.64  90:  7.10  91:  8.16  92:  7.55  93:  4.19  94:  8.20  95:  2.88  96:  5.36
  97:  7.24  98:  8.26  99:  5.59 100:  3.64 101:  4.37 102:  4.58 103:  4.98 104:  5.09
 105:  4.02 106:  3.82 107:  2.73 108:  2.56 109:  2.13 110:  2.43 111:  1.63 112:  3.29
 113:  3.16 114:  3.20 115:  1.70 116:  2.01 117:  2.88 118:  1.69 119:  1.81 120:  1.68
 121:  1.75 122:  8.17 123:  9.43 124:  9.22 125: 10.16 126: 11.99 127: 12.57 128: 12.63
 129: 12.75 130:  1.76 131:  1.67 132:  1.71 133:  1.77 134:  1.81 135:  1.66 136:  1.85
 137:  1.65 138:  1.72 139:  1.74 140:  1.55 141:  1.93 142:  1.71 143:  1.81 144:  1.81
 145:  1.77 146:  1.85 147:  1.81 148:  1.71 149:  1.45 150:  1.45 151:  1.45 152:  1.89
 153:  1.91 154:  1.95 155:  1.90 156:  1.91 157:  2.18 158:  2.18 159:  2.19
 IR intensities (km·mol⁻¹)
   1:  0.78   2:  0.80   3:  1.56   4:  2.31   5:  2.34   6:  1.36   7:  0.80   8:  1.27
   9:  1.21  10:  0.16  11:  4.66  12:  0.41  13:  0.26  14:  0.84  15:  2.04  16:  8.16
  17:  0.30  18:  2.05  19:  2.90  20:  2.05  21:  1.71  22:  7.13  23: 24.22  24: 21.60
  25:  5.84  26: 39.57  27:  4.01  28:  0.51  29:  5.96  30:  2.56  31:  9.67  32:100.92
  33: 83.35  34:  9.48  35:168.75  36: 25.42  37:108.41  38:  0.39  39:  0.41  40:  1.14
  41: 11.86  42:107.13  43: 25.85  44:396.99  45:  0.64  46:124.87  47:  8.76  48:131.85
  49:270.81  50: 30.36  51: 38.66  52: 21.84  53: 15.95  54: 13.97  55:  2.60  56: 48.93
  57: 22.46  58: 16.46  59: 11.96  60:  5.23  61: 52.86  62:  4.05  63: 64.73  64: 58.07
  65: 55.37  66: 39.56  67:108.99  68:185.31  69:  4.60  70:148.30  71:  2.88  72:615.99
  73:  4.31  74:  6.49  75:  0.40  76:  9.06  77:  2.06  78:  4.07  79: 13.29  80: 15.53
  81: 29.66  82:  4.09  83: 23.62  84:  1.93  85: 12.95  86:  3.21  87:  4.31  88:  1.19
  89:  1.59  90: 18.27  91:  1.71  92:  4.67  93: 22.25  94: 34.86  95:  9.16  96:  7.81
  97:  2.65  98:  2.39  99:  6.42 100:  3.64 101: 23.26 102:214.53 103: 78.12 104: 65.57
 105: 95.84 106:  3.89 107: 25.76 108:  6.05 109:  9.18 110: 19.35 111:  2.70 112: 11.70
 113: 17.27 114:  2.44 115: 12.17 116:  9.91 117:  8.14 118:  1.58 119: 18.12 120: 61.36
 121:  8.84 122:530.30 123:****** 124: 33.10 125:563.11 126:245.02 127:258.12 128:******
 129:****** 130: 29.99 131: 30.67 132:  5.31 133: 64.89 134:  0.07 135: 28.54 136: 13.31
 137:  1.67 138:  7.49 139:  5.96 140: 19.56 141:  7.76 142:  2.29 143:****** 144:291.29
 145:****** 146:460.44 147:629.43 148:604.84 149: 15.25 150: 29.15 151: 18.65 152: 13.10
 153:  3.04 154: 19.15 155: 20.51 156: 27.54 157:  8.82 158: 13.14 159: 22.53
 Raman intensities (amu)
Molecule has no symmetry elements
It seems to be the C1 point group
   1:  0.00   2:  0.00   3:  0.00   4:  0.00   5:  0.00   6:  0.00   7:  0.00   8:  0.00
   9:  0.00  10:  0.00  11:  0.00  12:  0.00  13:  0.00  14:  0.00  15:  0.00  16:  0.00
  17:  0.00  18:  0.00  19:  0.00  20:  0.00  21:  0.00  22:  0.00  23:  0.00  24:  0.00
  25:  0.00  26:  0.00  27:  0.00  28:  0.00  29:  0.00  30:  0.00  31:  0.00  32:  0.00
  33:  0.00  34:  0.00  35:  0.00  36:  0.00  37:  0.00  38:  0.00  39:  0.00  40:  0.00
  41:  0.00  42:  0.00  43:  0.00  44:  0.00  45:  0.00  46:  0.00  47:  0.00  48:  0.00
  49:  0.00  50:  0.00  51:  0.00  52:  0.00  53:  0.00  54:  0.00  55:  0.00  56:  0.00
  57:  0.00  58:  0.00  59:  0.00  60:  0.00  61:  0.00  62:  0.00  63:  0.00  64:  0.00
  65:  0.00  66:  0.00  67:  0.00  68:  0.00  69:  0.00  70:  0.00  71:  0.00  72:  0.00
  73:  0.00  74:  0.00  75:  0.00  76:  0.00  77:  0.00  78:  0.00  79:  0.00  80:  0.00
  81:  0.00  82:  0.00  83:  0.00  84:  0.00  85:  0.00  86:  0.00  87:  0.00  88:  0.00
  89:  0.00  90:  0.00  91:  0.00  92:  0.00  93:  0.00  94:  0.00  95:  0.00  96:  0.00
  97:  0.00  98:  0.00  99:  0.00 100:  0.00 101:  0.00 102:  0.00 103:  0.00 104:  0.00
 105:  0.00 106:  0.00 107:  0.00 108:  0.00 109:  0.00 110:  0.00 111:  0.00 112:  0.00
 113:  0.00 114:  0.00 115:  0.00 116:  0.00 117:  0.00 118:  0.00 119:  0.00 120:  0.00
 121:  0.00 122:  0.00 123:  0.00 124:  0.00 125:  0.00 126:  0.00 127:  0.00 128:  0.00
 129:  0.00 130:  0.00 131:  0.00 132:  0.00 133:  0.00 134:  0.00 135:  0.00 136:  0.00
 137:  0.00 138:  0.00 139:  0.00 140:  0.00 141:  0.00 142:  0.00 143:  0.00 144:  0.00
 145:  0.00 146:  0.00 147:  0.00 148:  0.00 149:  0.00 150:  0.00 151:  0.00 152:  0.00
 153:  0.00 154:  0.00 155:  0.00 156:  0.00 157:  0.00 158:  0.00 159:  0.00
 output can be read by thermo (or use thermo option).
 writing <g98.out> molden fake output.
 recommended (thermochemical) frequency scaling factor: 1.0
           -------------------------------------------------
          |             Thermodynamic Functions             |
           -------------------------------------------------

c1  symmetry found (for desy threshold:  0.10E+00) used in thermo

          ...................................................
          :                      SETUP                      :
          :.................................................:
          :  # frequencies                         153      :
          :  # imaginary freq.                       0      :
          :  linear?                             false      :
          :  only rotor calc.                    false      :
          :  symmetry                               c1      :
          :  rotational number                       1      :
          :  scaling factor                  1.0000000      :
          :  rotor cutoff                   50.0000000 cm⁻¹ :
          :  imag. cutoff                  -20.0000000 cm⁻¹ :
          :.................................................:

    mode    ω/cm⁻¹     T·S(HO)/kcal·mol⁻¹    T·S(FR)/kcal·mol⁻¹   T·S(vib)
   ------------------------------------------------------------------------
       1     18.00    -2.04029 (  1.65%)    -1.35907 ( 98.35%)    -1.37033
       2     24.03    -1.86941 (  5.06%)    -1.27359 ( 94.94%)    -1.30375
       3     28.73    -1.76358 (  9.83%)    -1.22061 ( 90.17%)    -1.27400
       4     37.18    -1.61116 ( 23.42%)    -1.14426 ( 76.58%)    -1.25360
       5     39.61    -1.57373 ( 28.26%)    -1.12549 ( 71.74%)    -1.25218
       6     47.62    -1.46502 ( 45.15%)    -1.07094 ( 54.85%)    -1.24885
       7     49.08    -1.44727 ( 48.14%)    -1.06203 ( 51.86%)    -1.24749
       8     50.30    -1.43277 ( 50.60%)    -1.05474 ( 49.40%)    -1.24602
       9     57.21    -1.35692 ( 63.16%)    -1.01661 ( 36.84%)    -1.23153
      10     59.71    -1.33172 ( 67.04%)    -1.00393 ( 32.96%)    -1.22369
      11     67.34    -1.26108 ( 76.69%)    -0.96833 ( 23.31%)    -1.19283
      12     70.23    -1.23639 ( 79.56%)    -0.95587 ( 20.44%)    -1.17905
      13     72.12    -1.22081 ( 81.23%)    -0.94801 ( 18.77%)    -1.16962
      14     80.90    -1.15349 ( 87.27%)    -0.91397 ( 12.73%)    -1.12300
      15     98.52    -1.03858 ( 93.78%)    -0.85562 (  6.22%)    -1.02720
      16    106.86    -0.99142 ( 95.43%)    -0.83155 (  4.57%)    -0.98411
      17    109.45    -0.97751 ( 95.83%)    -0.82444 (  4.17%)    -0.97112
      18    125.18    -0.90008 ( 97.52%)    -0.78468 (  2.48%)    -0.89721
      19    131.99    -0.86963 ( 97.98%)    -0.76896 (  2.02%)    -0.86760
      20    141.62    -0.82942 ( 98.47%)    -0.74812 (  1.53%)    -0.82817
      21    150.49    -0.79486 ( 98.80%)    -0.73011 (  1.20%)    -0.79408
      22    166.22    -0.73876 ( 99.19%)    -0.70067 (  0.81%)    -0.73845
      23    187.36    -0.67198 ( 99.50%)    -0.66521 (  0.50%)    -0.67195
      24    188.92    -0.66739 ( 99.51%)    -0.66275 (  0.49%)    -0.66736
      25    210.92    -0.60693 ( 99.69%)    -0.63011 (  0.31%)    -0.60700
      26    222.93    -0.57697 ( 99.75%)    -0.61371 (  0.25%)    -0.57706
      27    252.46    -0.51084 ( 99.85%)    -0.57686 (  0.15%)    -0.51094
      28    254.74    -0.50611 ( 99.85%)    -0.57419 (  0.15%)    -0.50622
      29    256.74    -0.50203 ( 99.86%)    -0.57188 (  0.14%)    -0.50213
      30    292.06    -0.43589 ( 99.91%)    -0.53370 (  0.09%)    -0.43598
      31    295.17    -0.43056 ( 99.92%)    -0.53055 (  0.08%)    -0.43064
      32    299.92    -0.42259 ( 99.92%)    -0.52583 (  0.08%)    -0.42267
   ------------------------------------------------------------------------

   temp. (K)  partition function   enthalpy   heat capacity  entropy
                                   cal/mol     cal/K/mol   cal/K/mol   J/K/mol
 298.15  VIB  0.454E+16            18986.527    104.209    123.658
         ROT  0.117E+08              888.752      2.981     35.325
         INT  0.532E+23            19875.279    107.190    158.983
         TR   0.618E+28             1481.254      4.968     43.384
         TOT                       21356.5333   112.1578   202.3678   846.7070

       T/K    H(0)-H(T)+PV         H(T)/Eh          T*S/Eh         G(T)/Eh
   ------------------------------------------------------------------------
    298.15    0.340338E-01    0.473872E+00    0.961515E-01    0.377720E+00
   ------------------------------------------------------------------------

         :::::::::::::::::::::::::::::::::::::::::::::::::::::
         ::                  THERMODYNAMIC                  ::
         :::::::::::::::::::::::::::::::::::::::::::::::::::::
         :: total free energy         -80.562208963805 Eh   ::
         ::.................................................::
         :: total energy              -80.939929329162 Eh   ::
         :: zero point energy           0.439838044043 Eh   ::
         :: G(RRHO) w/o ZPVE           -0.062117678686 Eh   ::
         :: G(RRHO) contrib.            0.377720365357 Eh   ::
         :::::::::::::::::::::::::::::::::::::::::::::::::::::

           -------------------------------------------------
          | TOTAL ENERGY              -80.939929329162 Eh   |
          | TOTAL ENTHALPY            -80.466057482899 Eh   |
          | TOTAL FREE ENERGY         -80.562208963805 Eh   |
          | GRADIENT NORM               0.000148245651 Eh/α |
          | HOMO-LUMO GAP               5.750895221169 eV   |
           -------------------------------------------------

------------------------------------------------------------------------
 * finished run on 2024/01/10 at 15:33:13.971     
------------------------------------------------------------------------
 total:
 * wall-time:     0 d,  0 h,  0 min, 14.359 sec
 *  cpu-time:     0 d,  0 h,  0 min, 14.322 sec
 * ratio c/w:     0.997 speedup
 SCF:
 * wall-time:     0 d,  0 h,  0 min,  0.071 sec
 *  cpu-time:     0 d,  0 h,  0 min,  0.059 sec
 * ratio c/w:     0.823 speedup
 analytical hessian:
 * wall-time:     0 d,  0 h,  0 min, 14.260 sec
 *  cpu-time:     0 d,  0 h,  0 min, 14.236 sec
 * ratio c/w:     0.998 speedup

