      -----------------------------------------------------------      
     |                   =====================                   |     
     |                           x T B                           |     
     |                   =====================                   |     
     |                         S. Grimme                         |     
     |          Mulliken Center for Theoretical Chemistry        |     
     |                    University of Bonn                     |     
      -----------------------------------------------------------      

   * xtb version 6.6.1 (unknown-commit) compiled by '@Linux' on 12/27/2023

   xtb is free software: you can redistribute it and/or modify it under
   the terms of the GNU Lesser General Public License as published by
   the Free Software Foundation, either version 3 of the License, or
   (at your option) any later version.
   
   xtb is distributed in the hope that it will be useful,
   but WITHOUT ANY WARRANTY; without even the implied warranty of
   MERCHANTABILITY or FITNESS FOR A PARTICULAR PURPOSE.  See the
   GNU Lesser General Public License for more details.
   
   Cite this work as:
   * C. Bannwarth, E. Caldeweyher, S. Ehlert, A. Hansen, P. Pracht,
     J. Seibert, S. Spicher, S. Grimme, WIREs Comput. Mol. Sci., 2020, 11,
     e01493. DOI: 10.1002/wcms.1493
   
   for GFN2-xTB:
   * C. Bannwarth, S. Ehlert and S. Grimme., J. Chem. Theory Comput., 2019,
     15, 1652-1671. DOI: 10.1021/acs.jctc.8b01176
   for GFN1-xTB:
   * S. Grimme, C. Bannwarth, P. Shushkov, J. Chem. Theory Comput., 2017,
     13, 1989-2009. DOI: 10.1021/acs.jctc.7b00118
   for GFN0-xTB:
   * P. Pracht, E. Caldeweyher, S. Ehlert, S. Grimme, ChemRxiv, 2019, preprint.
     DOI: 10.26434/chemrxiv.8326202.v1
   for GFN-FF:
   * S. Spicher and S. Grimme, Angew. Chem. Int. Ed., 2020, 59, 15665-15673.
     DOI: 10.1002/anie.202004239
   
   for ALPB and GBSA implicit solvation:
   * S. Ehlert, M. Stahn, S. Spicher, S. Grimme, J. Chem. Theory Comput.,
     2021, 17, 4250-4261. DOI: 10.1021/acs.jctc.1c00471
   
   for DFT-D4:
   * E. Caldeweyher, C. Bannwarth and S. Grimme, J. Chem. Phys., 2017,
     147, 034112. DOI: 10.1063/1.4993215
   * E. Caldeweyher, S. Ehlert, A. Hansen, H. Neugebauer, S. Spicher,
     C. Bannwarth and S. Grimme, J. Chem. Phys., 2019, 150, 154122.
     DOI: 10.1063/1.5090222
   * E. Caldeweyher, J.-M. Mewes, S. Ehlert and S. Grimme, Phys. Chem. Chem. Phys.
     2020, 22, 8499-8512. DOI: 10.1039/D0CP00502A
   
   for sTDA-xTB:
   * S. Grimme and C. Bannwarth, J. Chem. Phys., 2016, 145, 054103.
     DOI: 10.1063/1.4959605
   
   in the mass-spec context:
   * V. Asgeirsson, C. Bauer and S. Grimme, Chem. Sci., 2017, 8, 4879.
     DOI: 10.1039/c7sc00601b
   * J. Koopman and S. Grimme, ACS Omega 2019, 4, 12, 15120-15133.
     DOI: 10.1021/acsomega.9b02011
   
   for metadynamics refer to:
   * S. Grimme, J. Chem. Theory Comput., 2019, 155, 2847-2862
     DOI: 10.1021/acs.jctc.9b00143
   
   for SPH calculations refer to:
   * S. Spicher and S. Grimme, J. Chem. Theory Comput., 2021, 17, 1701-1714
     DOI: 10.1021/acs.jctc.0c01306
   
   with help from (in alphabetical order)
   P. Atkinson, C. Bannwarth, F. Bohle, G. Brandenburg, E. Caldeweyher
   M. Checinski, S. Dohm, S. Ehlert, S. Ehrlich, I. Gerasimov, C. Hölzer
   A. Katbashev, J. Koopman, C. Lavigne, S. Lehtola, F. März, M. Müller,
   F. Musil, H. Neugebauer, J. Pisarek, C. Plett, P. Pracht, F. Pultar,
   J. Seibert, P. Shushkov, S. Spicher, M. Stahn, M. Steiner, T. Strunk,
   J. Stückrath, T. Rose, and J. Unsleber
   
 * started run on 2024/01/10 at 15:34:42.499     

           -------------------------------------------------
          |                Calculation Setup                |
           -------------------------------------------------

          program call               : xtb struc.xyz --gfn2 --hess
          hostname                   : swaroop
          coordinate file            : struc.xyz
          omp threads                :                     1

   ID    Z sym.   atoms
    1    8 O      1, 23, 31, 39, 47
    2    6 C      2, 5, 9, 13, 17, 22, 30, 38, 46
    3    1 H      3, 4, 6, 7, 10-12, 14-16, 18-21, 25, 26, 28, 29, 33, 34,
                  36, 37, 41, 42, 44, 45, 49, 50, 52, 53
    4    7 N      8, 24, 27, 32, 35, 40, 43, 48, 51

molecular fragmentation (1/2 indicates fragments):
11111111111111111111122222222222222222222222222222222
# atoms in fragment 1/2:    21    32
 fragment masses (1/2) :      104.17      240.22
CMA distance (Bohr)    :   5.599
constraining FC (au)   :  0.0500

           -------------------------------------------------
          |                 G F N 2 - x T B                 |
           -------------------------------------------------

        Reference                      10.1021/acs.jctc.8b01176
      * Hamiltonian:
        H0-scaling (s, p, d)           1.850000    2.230000    2.230000
        zeta-weighting                 0.500000
      * Dispersion:
        s8                             2.700000
        a1                             0.520000
        a2                             5.000000
        s9                             5.000000
      * Repulsion:
        kExp                           1.500000    1.000000
        rExp                           1.000000
      * Coulomb:
        alpha                          2.000000
        third order                    shell-resolved
        anisotropic                    true
        a3                             3.000000
        a5                             4.000000
        cn-shift                       1.200000
        cn-exp                         4.000000
        max-rad                        5.000000


          ...................................................
          :                      SETUP                      :
          :.................................................:
          :  # basis functions                 122          :
          :  # atomic orbitals                 122          :
          :  # shells                           76          :
          :  # electrons                       140          :
          :  max. iterations                   250          :
          :  Hamiltonian                  GFN2-xTB          :
          :  restarted?                      false          :
          :  GBSA solvation                  false          :
          :  PC potential                    false          :
          :  electronic temp.          300.0000000     K    :
          :  accuracy                    1.0000000          :
          :  -> integral cutoff          0.2500000E+02      :
          :  -> integral neglect         0.1000000E-07      :
          :  -> SCF convergence          0.1000000E-05 Eh   :
          :  -> wf. convergence          0.1000000E-03 e    :
          :  Broyden damping             0.4000000          :
          ...................................................

 iter      E             dE          RMSdq      gap      omega  full diag
   1    -81.5580265 -0.815580E+02  0.437E+00    5.08       0.0  T
   2    -81.8423442 -0.284318E+00  0.239E+00    6.07       1.0  T
   3    -81.8481736 -0.582937E-02  0.115E+00    5.76       1.0  T
   4    -81.8496211 -0.144747E-02  0.247E-01    5.84       1.0  T
   5    -81.8505362 -0.915102E-03  0.926E-02    5.76       1.0  T
   6    -81.8505609 -0.247670E-04  0.273E-02    5.78       1.0  T
   7    -81.8505653 -0.435103E-05  0.796E-03    5.78       1.7  T
   8    -81.8505656 -0.306053E-06  0.284E-03    5.78       4.8  T
   9    -81.8505656 -0.240142E-07  0.107E-03    5.78      12.8  T
  10    -81.8505656 -0.611733E-08  0.190E-04    5.78      72.4  T
  11    -81.8505656 -0.378421E-09  0.881E-05    5.78     155.8  T

   *** convergence criteria satisfied after 11 iterations ***

         #    Occupation            Energy/Eh            Energy/eV
      -------------------------------------------------------------
         1        2.0000           -0.7972346             -21.6939
       ...           ...                  ...                  ...
        64        2.0000           -0.4988631             -13.5748
        65        2.0000           -0.4977034             -13.5432
        66        2.0000           -0.4969472             -13.5226
        67        2.0000           -0.4956382             -13.4870
        68        2.0000           -0.4913352             -13.3699
        69        2.0000           -0.4912195             -13.3668
        70        2.0000           -0.4872048             -13.2575 (HOMO)
        71                         -0.2749094              -7.4807 (LUMO)
        72                         -0.2698720              -7.3436
        73                         -0.2681555              -7.2969
        74                         -0.2602113              -7.0807
        75                         -0.1502449              -4.0884
       ...                                ...                  ...
       122                          0.5610105              15.2659
      -------------------------------------------------------------
                  HL-Gap            0.2122954 Eh            5.7769 eV
             Fermi-level           -0.3810571 Eh          -10.3691 eV

 SCC (total)                   0 d,  0 h,  0 min,  0.087 sec
 SCC setup                      ...        0 min,  0.000 sec (  0.334%)
 Dispersion                     ...        0 min,  0.001 sec (  0.674%)
 classical contributions        ...        0 min,  0.000 sec (  0.207%)
 integral evaluation            ...        0 min,  0.008 sec (  9.366%)
 iterations                     ...        0 min,  0.049 sec ( 56.871%)
 molecular gradient             ...        0 min,  0.028 sec ( 32.203%)
 printout                       ...        0 min,  0.000 sec (  0.332%)

         :::::::::::::::::::::::::::::::::::::::::::::::::::::
         ::                     SUMMARY                     ::
         :::::::::::::::::::::::::::::::::::::::::::::::::::::
         :: total energy             -80.936309865614 Eh    ::
         :: gradient norm              0.000050491867 Eh/a0 ::
         :: HOMO-LUMO gap              5.776852935265 eV    ::
         ::.................................................::
         :: SCC energy               -81.850565618201 Eh    ::
         :: -> isotropic ES            0.294120850430 Eh    ::
         :: -> anisotropic ES         -0.028318239235 Eh    ::
         :: -> anisotropic XC          0.020490956123 Eh    ::
         :: -> dispersion             -0.046411956368 Eh    ::
         :: repulsion energy           0.912488521211 Eh    ::
         :: add. restraining           0.000000000000 Eh    ::
         :: total charge               1.000000000000 e     ::
         :::::::::::::::::::::::::::::::::::::::::::::::::::::

           ------------------------------------------------- 
          |                Numerical Hessian                |
           ------------------------------------------------- 
step length          :   0.00500
SCC accuracy         :   0.30000
Hessian scale factor :   1.00000
frozen atoms in %    :   0.00000    0
RMS gradient         :   0.00005
estimated CPU  time      0.24 min
estimated wall time      0.24 min

writing file <hessian>.

 projected vibrational frequencies (cm⁻¹)
eigval :       -0.00    -0.00     0.00     0.00     0.00     0.00
eigval :       16.02    22.10    29.70    37.69    40.77    48.83
eigval :       54.67    56.94    63.16    64.00    69.59    73.69
eigval :       79.44    89.46    93.86   103.80   106.90   109.98
eigval :      120.60   132.77   138.05   144.54   149.30   162.70
eigval :      189.33   198.39   206.92   251.90   277.02   281.51
eigval :      295.83   323.06   350.24   361.64   380.37   386.14
eigval :      393.89   406.14   429.92   444.90   453.90   462.16
eigval :      466.69   468.12   470.65   473.80   477.38   478.97
eigval :      481.24   484.45   500.36   533.76   538.36   542.54
eigval :      555.62   567.35   597.93   654.53   674.88   676.10
eigval :      677.58   678.59   728.50   750.18   766.43   774.91
eigval :      915.93   940.91   958.71   961.23   970.78   985.20
eigval :      990.89  1003.13  1007.89  1015.77  1016.84  1018.37
eigval :     1032.77  1036.59  1043.36  1083.20  1084.96  1087.12
eigval :     1092.11  1093.69  1104.14  1125.34  1162.56  1219.65
eigval :     1244.34  1273.06  1319.11  1324.76  1346.94  1355.56
eigval :     1359.07  1362.68  1371.72  1392.79  1403.72  1407.92
eigval :     1417.43  1436.00  1444.53  1446.27  1453.37  1455.18
eigval :     1456.17  1459.46  1462.31  1464.27  1472.61  1479.46
eigval :     1481.84  1496.88  1502.18  1516.51  1524.11  1644.65
eigval :     1684.21  1711.54  1718.92  2954.18  2982.13  2983.36
eigval :     3005.58  3033.61  3040.23  3040.81  3043.64  3044.94
eigval :     3048.56  3052.45  3060.96  3069.53  3148.83  3237.38
eigval :     3271.25  3382.16  3418.57  3483.91  3492.27  3498.53
eigval :     3504.28  3521.34  3531.94  3532.56  3538.94  3547.99
eigval :     3555.34  3563.53  3570.68
           -------------------------------------------------
          |                Property Printout                |
           -------------------------------------------------

    * Orbital Energies and Occupations

         #    Occupation            Energy/Eh            Energy/eV
      -------------------------------------------------------------
         1        2.0000           -0.7972347             -21.6939
       ...           ...                  ...                  ...
        58        2.0000           -0.5105527             -13.8928
        59        2.0000           -0.5095890             -13.8666
        60        2.0000           -0.5070603             -13.7978
        61        2.0000           -0.5030494             -13.6887
        62        2.0000           -0.5010201             -13.6335
        63        2.0000           -0.5002550             -13.6126
        64        2.0000           -0.4988628             -13.5747
        65        2.0000           -0.4977042             -13.5432
        66        2.0000           -0.4969472             -13.5226
        67        2.0000           -0.4956374             -13.4870
        68        2.0000           -0.4913357             -13.3699
        69        2.0000           -0.4912200             -13.3668
        70        2.0000           -0.4872056             -13.2575 (HOMO)
        71                         -0.2749091              -7.4807 (LUMO)
        72                         -0.2698725              -7.3436
        73                         -0.2681551              -7.2969
        74                         -0.2602119              -7.0807
        75                         -0.1502449              -4.0884
        76                         -0.1100078              -2.9935
        77                         -0.0882332              -2.4009
        78                         -0.0859493              -2.3388
        79                         -0.0806858              -2.1956
        80                         -0.0740354              -2.0146
        81                         -0.0693357              -1.8867
       ...                                ...                  ...
       122                          0.5610100              15.2659
      -------------------------------------------------------------
                  HL-Gap            0.2122965 Eh            5.7769 eV
             Fermi-level           -0.3810573 Eh          -10.3691 eV

     #   Z          covCN         q      C6AA      α(0)
     1   8 O        1.655    -0.456    21.976     6.328
     2   6 C        3.674     0.070    19.639     6.351
     3   1 H        0.924     0.051     2.308     2.376
     4   1 H        0.924     0.054     2.267     2.355
     5   6 C        3.772    -0.081    22.069     6.694
     6   1 H        0.924     0.116     1.650     2.008
     7   1 H        0.924     0.123     1.588     1.971
     8   7 N        3.624     0.156    18.609     6.407
     9   6 C        3.720    -0.104    22.603     6.790
    10   1 H        0.925     0.120     1.614     1.987
    11   1 H        0.925     0.076     2.020     2.223
    12   1 H        0.925     0.102     1.771     2.081
    13   6 C        3.738    -0.113    22.754     6.807
    14   1 H        0.925     0.116     1.647     2.007
    15   1 H        0.925     0.117     1.640     2.003
    16   1 H        0.925     0.083     1.948     2.183
    17   6 C        3.723    -0.106    22.645     6.796
    18   1 H        0.925     0.126     1.569     1.959
    19   1 H        0.925     0.085     1.930     2.173
    20   1 H        0.925     0.084     1.942     2.179
    21   1 H        0.804     0.321     0.660     1.276
    22   6 C        2.675     0.344    21.153     7.526
    23   8 O        0.860    -0.540    24.690     6.662
    24   7 N        2.645    -0.286    27.385     7.772
    25   1 H        0.860     0.207     1.071     1.621
    26   1 H        0.860     0.186     1.179     1.701
    27   7 N        2.644    -0.305    27.867     7.840
    28   1 H        0.861     0.181     1.209     1.722
    29   1 H        0.859     0.248     0.891     1.478
    30   6 C        2.675     0.343    21.179     7.531
    31   8 O        0.861    -0.531    24.484     6.634
    32   7 N        2.645    -0.287    27.403     7.775
    33   1 H        0.861     0.201     1.102     1.645
    34   1 H        0.861     0.187     1.172     1.696
    35   7 N        2.644    -0.301    27.744     7.823
    36   1 H        0.861     0.183     1.195     1.712
    37   1 H        0.860     0.242     0.917     1.500
    38   6 C        2.675     0.343    21.169     7.529
    39   8 O        0.860    -0.528    24.405     6.623
    40   7 N        2.643    -0.319    28.214     7.889
    41   1 H        0.860     0.233     0.952     1.528
    42   1 H        0.860     0.178     1.224     1.733
    43   7 N        2.644    -0.298    27.685     7.814
    44   1 H        0.860     0.183     1.197     1.714
    45   1 H        0.860     0.195     1.132     1.667
    46   6 C        2.675     0.343    21.167     7.529
    47   8 O        0.860    -0.532    24.506     6.637
    48   7 N        2.646    -0.294    27.588     7.801
    49   1 H        0.860     0.196     1.125     1.661
    50   1 H        0.861     0.181     1.207     1.721
    51   7 N        2.645    -0.302    27.786     7.829
    52   1 H        0.860     0.177     1.231     1.738
    53   1 H        0.860     0.234     0.950     1.527

 Mol. C6AA /au·bohr⁶  :      21789.232563
 Mol. C8AA /au·bohr⁸  :     454231.251446
 Mol. α(0) /au        :        220.530540


Wiberg/Mayer (AO) data.
largest (>0.10) Wiberg bond orders for each atom

 ---------------------------------------------------------------------------
     #   Z sym  total        # sym  WBO       # sym  WBO       # sym  WBO
 ---------------------------------------------------------------------------
     1   8 O    1.952 --     2 C    1.015    21 H    0.859
     2   6 C    3.964 --     1 O    1.015     5 C    0.996     3 H    0.963
                             4 H    0.959
     3   1 H    0.997 --     2 C    0.963
     4   1 H    0.997 --     2 C    0.959
     5   6 C    3.916 --     2 C    0.996     6 H    0.952     7 H    0.943
                             8 N    0.927
     6   1 H    0.987 --     5 C    0.952
     7   1 H    0.985 --     5 C    0.943
     8   7 N    3.821 --    17 C    0.962     9 C    0.959    13 C    0.956
                             5 C    0.927
     9   6 C    3.926 --    11 H    0.979    12 H    0.973     8 N    0.959
                            10 H    0.959
    10   1 H    0.986 --     9 C    0.959
    11   1 H    0.994 --     9 C    0.979
    12   1 H    0.990 --     9 C    0.973
    13   6 C    3.922 --    16 H    0.978    14 H    0.968    15 H    0.968
                             8 N    0.956
    14   1 H    0.987 --    13 C    0.968
    15   1 H    0.986 --    13 C    0.968
    16   1 H    0.993 --    13 C    0.978
    17   6 C    3.931 --    20 H    0.978    19 H    0.974     8 N    0.962
                            18 H    0.960
    18   1 H    0.984 --    17 C    0.960
    19   1 H    0.993 --    17 C    0.974
    20   1 H    0.993 --    17 C    0.978
    21   1 H    0.897 --     1 O    0.859
    22   6 C    3.959 --    23 O    1.448    27 N    1.272    24 N    1.224
    23   8 O    1.906 --    22 C    1.448    27 N    0.137    24 N    0.124
    24   7 N    3.330 --    22 C    1.224    26 H    0.946    25 H    0.932
                            23 O    0.124
    25   1 H    0.957 --    24 N    0.932
    26   1 H    0.965 --    24 N    0.946
    27   7 N    3.350 --    22 C    1.272    28 H    0.947    29 H    0.858
                            23 O    0.137
    28   1 H    0.967 --    27 N    0.947
    29   1 H    0.938 --    27 N    0.858
    30   6 C    3.960 --    31 O    1.472    35 N    1.262    32 N    1.215
    31   8 O    1.916 --    30 C    1.472    35 N    0.143    32 N    0.130
    32   7 N    3.329 --    30 C    1.215    34 H    0.946    33 H    0.943
                            31 O    0.130
    33   1 H    0.959 --    32 N    0.943
    34   1 H    0.964 --    32 N    0.946
    35   7 N    3.352 --    30 C    1.262    36 H    0.947    37 H    0.875
                            31 O    0.143
    36   1 H    0.966 --    35 N    0.947
    37   1 H    0.942 --    35 N    0.875
    38   6 C    3.959 --    39 O    1.537    40 N    1.218    43 N    1.194
    39   8 O    1.890 --    38 C    1.537    40 N    0.144    43 N    0.141
    40   7 N    3.310 --    38 C    1.218    42 H    0.948    41 H    0.882
                            39 O    0.144
    41   1 H    0.946 --    40 N    0.882
    42   1 H    0.968 --    40 N    0.948
    43   7 N    3.308 --    38 C    1.194    44 H    0.947    45 H    0.944
                            39 O    0.141
    44   1 H    0.966 --    43 N    0.947
    45   1 H    0.962 --    43 N    0.944
    46   6 C    3.959 --    47 O    1.522    51 N    1.234    48 N    1.196
    47   8 O    1.888 --    46 C    1.522    51 N    0.146    48 N    0.137
    48   7 N    3.311 --    46 C    1.196    50 H    0.948    49 H    0.945
                            47 O    0.137
    49   1 H    0.961 --    48 N    0.945
    50   1 H    0.967 --    48 N    0.948
    51   7 N    3.331 --    46 C    1.234    52 H    0.949    53 H    0.899
                            47 O    0.146
    52   1 H    0.969 --    51 N    0.949
    53   1 H    0.945 --    51 N    0.899
 ---------------------------------------------------------------------------

Topologies differ in total number of bonds
Writing topology from bond orders to xtbtopo.mol

molecular dipole:
                 x           y           z       tot (Debye)
 q only:        0.665      -0.630      -0.323
   full:        0.656      -0.181       0.032       1.731
molecular quadrupole (traceless):
                xx          xy          yy          xz          yz          zz
 q only:        3.280      11.352      17.528     -17.234      -6.152     -20.809
  q+dip:        4.764      16.032      20.935     -21.051     -10.990     -25.699
   full:        4.729      15.869      20.431     -20.922     -10.611     -25.160

           -------------------------------------------------
          |               Frequency Printout                |
           -------------------------------------------------
 projected vibrational frequencies (cm⁻¹)
eigval :       -0.00    -0.00     0.00     0.00     0.00     0.00
eigval :       16.02    22.10    29.70    37.69    40.77    48.83
eigval :       54.67    56.94    63.16    64.00    69.59    73.69
eigval :       79.44    89.46    93.86   103.80   106.90   109.98
eigval :      120.60   132.77   138.05   144.54   149.30   162.70
eigval :      189.33   198.39   206.92   251.90   277.02   281.51
eigval :      295.83   323.06   350.24   361.64   380.37   386.14
eigval :      393.89   406.14   429.92   444.90   453.90   462.16
eigval :      466.69   468.12   470.65   473.80   477.38   478.97
eigval :      481.24   484.45   500.36   533.76   538.36   542.54
eigval :      555.62   567.35   597.93   654.53   674.88   676.10
eigval :      677.58   678.59   728.50   750.18   766.43   774.91
eigval :      915.93   940.91   958.71   961.23   970.78   985.20
eigval :      990.89  1003.13  1007.89  1015.77  1016.84  1018.37
eigval :     1032.77  1036.59  1043.36  1083.20  1084.96  1087.12
eigval :     1092.11  1093.69  1104.14  1125.34  1162.56  1219.65
eigval :     1244.34  1273.06  1319.11  1324.76  1346.94  1355.56
eigval :     1359.07  1362.68  1371.72  1392.79  1403.72  1407.92
eigval :     1417.43  1436.00  1444.53  1446.27  1453.37  1455.18
eigval :     1456.17  1459.46  1462.31  1464.27  1472.61  1479.46
eigval :     1481.84  1496.88  1502.18  1516.51  1524.11  1644.65
eigval :     1684.21  1711.54  1718.92  2954.18  2982.13  2983.36
eigval :     3005.58  3033.61  3040.23  3040.81  3043.64  3044.94
eigval :     3048.56  3052.45  3060.96  3069.53  3148.83  3237.38
eigval :     3271.25  3382.16  3418.57  3483.91  3492.27  3498.53
eigval :     3504.28  3521.34  3531.94  3532.56  3538.94  3547.99
eigval :     3555.34  3563.53  3570.68
 reduced masses (amu)
   1: 12.61   2: 12.61   3: 12.48   4: 12.05   5: 12.66   6: 12.58   7: 12.31   8: 11.87
   9: 12.07  10: 12.64  11: 12.54  12: 12.55  13: 12.74  14: 12.06  15: 12.64  16: 13.02
  17: 12.20  18: 12.07  19: 13.16  20: 12.97  21: 11.98  22: 11.82  23: 11.96  24: 12.86
  25: 11.24  26: 12.71  27: 11.68  28: 13.54  29: 11.83  30: 12.80  31: 13.06  32:  3.55
  33: 11.80  34:  2.09  35:  2.65  36:  5.97  37:  3.43  38:  9.78  39:  1.94  40:  3.02
  41:  7.23  42:  3.44  43:  2.52  44:  3.06  45:  8.63  46:  3.42  47:  3.49  48:  7.60
  49:  4.46  50:  3.80  51:  7.43  52:  4.96  53:  6.65  54:  3.68  55:  4.06  56:  7.85
  57:  8.82  58:  8.95  59: 10.28  60: 11.17  61: 11.53  62: 11.76  63:  2.84  64:  5.53
  65: 10.64  66: 11.81  67: 11.86  68:  8.12  69:  2.13  70:  2.41  71:  8.92  72:  2.44
  73:  7.61  74:  7.44  75:  4.97  76:  4.92  77:  5.04  78:  4.46  79:  7.52  80:  9.02
  81:  9.61  82:  7.73  83:  7.84  84:  6.01  85: 10.00  86:  3.32  87:  7.93  88:  9.42
  89:  8.24  90:  9.19  91:  8.10  92:  7.83  93:  3.89  94:  7.21  95:  2.54  96:  5.18
  97:  7.94  98:  8.29  99:  3.00 100:  6.15 101:  6.02 102:  3.50 103:  5.84 104:  4.99
 105:  4.29 106:  4.26 107:  2.52 108:  2.53 109:  2.04 110:  2.58 111:  1.65 112:  3.26
 113:  3.08 114:  2.08 115:  2.74 116:  1.69 117:  1.80 118:  3.10 119:  1.66 120:  1.79
 121:  1.62 122:  7.52 123:  7.91 124:  9.62 125:  9.59 126: 12.23 127: 12.62 128: 12.77
 129: 12.76 130:  1.86 131:  1.75 132:  1.57 133:  1.78 134:  1.68 135:  1.61 136:  1.72
 137:  1.61 138:  1.78 139:  1.92 140:  1.90 141:  1.66 142:  1.69 143:  1.82 144:  1.78
 145:  1.77 146:  1.69 147:  1.88 148:  1.47 149:  1.45 150:  1.45 151:  1.45 152:  1.91
 153:  1.96 154:  1.91 155:  1.91 156:  2.15 157:  2.17 158:  2.18 159:  2.18
 IR intensities (km·mol⁻¹)
   1:  2.39   2:  1.27   3:  2.47   4:  0.58   5:  0.59   6:  1.37   7:  0.04   8:  1.28
   9:  1.70  10:  0.91  11:  3.05  12:  0.46  13:  2.02  14:  3.35  15:  2.26  16:  3.67
  17: 10.12  18:  3.70  19:  1.58  20:  3.12  21:  7.39  22:  3.63  23:  8.64  24: 16.41
  25: 12.85  26:  6.39  27: 21.22  28:  5.38  29:  8.91  30:  2.86  31: 16.65  32:145.30
  33: 62.57  34:  1.27  35:141.61  36:  0.18  37:  0.54  38:  1.07  39:  0.69  40:201.60
  41:  3.61  42:103.82  43:  7.93  44:360.58  45:  7.71  46: 76.01  47:401.70  48:  5.70
  49: 42.59  50: 75.58  51: 19.72  52: 72.93  53:  1.45  54: 19.93  55: 13.63  56: 18.97
  57: 34.92  58:  4.96  59: 27.63  60:  9.37  61:  9.15  62: 59.71  63:147.50  64: 46.19
  65: 75.35  66: 46.21  67: 64.07  68: 85.53  69: 66.72  70:100.61  71: 35.09  72:519.70
  73:  2.13  74: 12.24  75:  6.33  76:  1.71  77:  0.47  78:  5.13  79: 24.65  80: 15.01
  81:  2.12  82: 16.46  83: 34.36  84: 12.61  85:  4.32  86:  0.83  87: 12.13  88:  0.12
  89: 32.30  90:  1.95  91:  2.71  92:  3.30  93: 15.99  94: 24.00  95: 16.34  96:  4.30
  97:  1.82  98:  3.16  99: 13.92 100:  3.75 101:287.21 102: 83.99 103: 88.88 104: 71.22
 105: 60.37 106: 10.71 107: 24.29 108:  1.88 109:  5.99 110:  9.59 111:  1.27 112:  5.42
 113:  5.60 114:  5.46 115: 12.05 116:  2.60 117: 11.77 118:  8.24 119: 11.41 120: 14.75
 121: 19.11 122:409.80 123:704.75 124:467.68 125:446.10 126:260.10 127:856.25 128:******
 129:402.93 130: 14.39 131: 65.30 132: 31.90 133:  1.77 134: 27.65 135:  3.54 136:  4.08
 137:  9.25 138: 27.69 139:  7.39 140: 28.48 141:  2.76 142:  1.60 143:564.28 144:******
 145:142.37 146:509.03 147:258.11 148: 42.06 149: 15.32 150: 16.46 151: 20.99 152: 15.25
 153: 15.01 154: 17.03 155: 18.68 156: 27.17 157:  9.68 158:  9.48 159: 17.87
 Raman intensities (amu)
Molecule has no symmetry elements
It seems to be the C1 point group
   1:  0.00   2:  0.00   3:  0.00   4:  0.00   5:  0.00   6:  0.00   7:  0.00   8:  0.00
   9:  0.00  10:  0.00  11:  0.00  12:  0.00  13:  0.00  14:  0.00  15:  0.00  16:  0.00
  17:  0.00  18:  0.00  19:  0.00  20:  0.00  21:  0.00  22:  0.00  23:  0.00  24:  0.00
  25:  0.00  26:  0.00  27:  0.00  28:  0.00  29:  0.00  30:  0.00  31:  0.00  32:  0.00
  33:  0.00  34:  0.00  35:  0.00  36:  0.00  37:  0.00  38:  0.00  39:  0.00  40:  0.00
  41:  0.00  42:  0.00  43:  0.00  44:  0.00  45:  0.00  46:  0.00  47:  0.00  48:  0.00
  49:  0.00  50:  0.00  51:  0.00  52:  0.00  53:  0.00  54:  0.00  55:  0.00  56:  0.00
  57:  0.00  58:  0.00  59:  0.00  60:  0.00  61:  0.00  62:  0.00  63:  0.00  64:  0.00
  65:  0.00  66:  0.00  67:  0.00  68:  0.00  69:  0.00  70:  0.00  71:  0.00  72:  0.00
  73:  0.00  74:  0.00  75:  0.00  76:  0.00  77:  0.00  78:  0.00  79:  0.00  80:  0.00
  81:  0.00  82:  0.00  83:  0.00  84:  0.00  85:  0.00  86:  0.00  87:  0.00  88:  0.00
  89:  0.00  90:  0.00  91:  0.00  92:  0.00  93:  0.00  94:  0.00  95:  0.00  96:  0.00
  97:  0.00  98:  0.00  99:  0.00 100:  0.00 101:  0.00 102:  0.00 103:  0.00 104:  0.00
 105:  0.00 106:  0.00 107:  0.00 108:  0.00 109:  0.00 110:  0.00 111:  0.00 112:  0.00
 113:  0.00 114:  0.00 115:  0.00 116:  0.00 117:  0.00 118:  0.00 119:  0.00 120:  0.00
 121:  0.00 122:  0.00 123:  0.00 124:  0.00 125:  0.00 126:  0.00 127:  0.00 128:  0.00
 129:  0.00 130:  0.00 131:  0.00 132:  0.00 133:  0.00 134:  0.00 135:  0.00 136:  0.00
 137:  0.00 138:  0.00 139:  0.00 140:  0.00 141:  0.00 142:  0.00 143:  0.00 144:  0.00
 145:  0.00 146:  0.00 147:  0.00 148:  0.00 149:  0.00 150:  0.00 151:  0.00 152:  0.00
 153:  0.00 154:  0.00 155:  0.00 156:  0.00 157:  0.00 158:  0.00 159:  0.00
 output can be read by thermo (or use thermo option).
 writing <g98.out> molden fake output.
 recommended (thermochemical) frequency scaling factor: 1.0
           -------------------------------------------------
          |             Thermodynamic Functions             |
           -------------------------------------------------

c1  symmetry found (for desy threshold:  0.10E+00) used in thermo

          ...................................................
          :                      SETUP                      :
          :.................................................:
          :  # frequencies                         153      :
          :  # imaginary freq.                       0      :
          :  linear?                             false      :
          :  only rotor calc.                    false      :
          :  symmetry                               c1      :
          :  rotational number                       1      :
          :  scaling factor                  1.0000000      :
          :  rotor cutoff                   50.0000000 cm⁻¹ :
          :  imag. cutoff                  -20.0000000 cm⁻¹ :
          :.................................................:

    mode    ω/cm⁻¹     T·S(HO)/kcal·mol⁻¹    T·S(FR)/kcal·mol⁻¹   T·S(vib)
   ------------------------------------------------------------------------
       1     16.02    -2.10923 (  1.04%)    -1.39355 ( 98.96%)    -1.40102
       2     22.10    -1.91880 (  3.68%)    -1.29830 ( 96.32%)    -1.32112
       3     29.70    -1.74393 ( 11.07%)    -1.21077 ( 88.93%)    -1.26982
       4     37.69    -1.60306 ( 24.42%)    -1.14019 ( 75.58%)    -1.25321
       5     40.77    -1.55675 ( 30.65%)    -1.11697 ( 69.35%)    -1.25178
       6     48.83    -1.45021 ( 47.64%)    -1.06350 ( 52.36%)    -1.24774
       7     54.67    -1.38364 ( 58.84%)    -1.03005 ( 41.16%)    -1.23811
       8     56.94    -1.35969 ( 62.72%)    -1.01800 ( 37.28%)    -1.23230
       9     63.16    -1.29874 ( 71.80%)    -0.98731 ( 28.20%)    -1.21091
      10     64.00    -1.29097 ( 72.86%)    -0.98340 ( 27.14%)    -1.20748
      11     69.59    -1.24176 ( 78.96%)    -0.95858 ( 21.04%)    -1.18218
      12     73.69    -1.20815 ( 82.51%)    -0.94161 ( 17.49%)    -1.16155
      13     79.44    -1.16418 ( 86.43%)    -0.91938 ( 13.57%)    -1.13097
      14     89.46    -1.09478 ( 91.11%)    -0.88420 (  8.89%)    -1.07606
      15     93.86    -1.06677 ( 92.55%)    -0.86997 (  7.45%)    -1.05211
      16    103.80    -1.00826 ( 94.89%)    -0.84015 (  5.11%)    -0.99967
      17    106.90    -0.99117 ( 95.43%)    -0.83142 (  4.57%)    -0.98387
      18    109.98    -0.97472 ( 95.90%)    -0.82301 (  4.10%)    -0.96850
      19    120.60    -0.92152 ( 97.13%)    -0.79572 (  2.87%)    -0.91791
      20    132.77    -0.86627 ( 98.03%)    -0.76723 (  1.97%)    -0.86432
      21    138.05    -0.84399 ( 98.31%)    -0.75568 (  1.69%)    -0.84249
      22    144.54    -0.81777 ( 98.59%)    -0.74206 (  1.41%)    -0.81670
      23    149.30    -0.79938 ( 98.76%)    -0.73247 (  1.24%)    -0.79855
      24    162.70    -0.75079 ( 99.12%)    -0.70701 (  0.88%)    -0.75040
      25    189.33    -0.66618 ( 99.52%)    -0.66211 (  0.48%)    -0.66617
      26    198.39    -0.64041 ( 99.60%)    -0.64825 (  0.40%)    -0.64044
      27    206.92    -0.61737 ( 99.66%)    -0.63579 (  0.34%)    -0.61744
      28    251.90    -0.51199 ( 99.85%)    -0.57752 (  0.15%)    -0.51210
      29    277.02    -0.46273 ( 99.89%)    -0.54936 (  0.11%)    -0.46282
      30    281.51    -0.45453 ( 99.90%)    -0.54460 (  0.10%)    -0.45462
      31    295.83    -0.42944 ( 99.92%)    -0.52989 (  0.08%)    -0.42953
   ------------------------------------------------------------------------

   temp. (K)  partition function   enthalpy   heat capacity  entropy
                                   cal/mol     cal/K/mol   cal/K/mol   J/K/mol
 298.15  VIB  0.723E+16            19252.139    105.590    126.123
         ROT  0.114E+08              888.752      2.981     35.272
         INT  0.824E+23            20140.891    108.571    161.395
         TR   0.618E+28             1481.254      4.968     43.384
         TOT                       21622.1448   113.5389   204.7792   856.7962

       T/K    H(0)-H(T)+PV         H(T)/Eh          T*S/Eh         G(T)/Eh
   ------------------------------------------------------------------------
    298.15    0.344571E-01    0.474419E+00    0.972972E-01    0.377122E+00
   ------------------------------------------------------------------------

         :::::::::::::::::::::::::::::::::::::::::::::::::::::
         ::                  THERMODYNAMIC                  ::
         :::::::::::::::::::::::::::::::::::::::::::::::::::::
         :: total free energy         -80.559188143146 Eh   ::
         ::.................................................::
         :: total energy              -80.936309865652 Eh   ::
         :: zero point energy           0.439961849154 Eh   ::
         :: G(RRHO) w/o ZPVE           -0.062840126648 Eh   ::
         :: G(RRHO) contrib.            0.377121722506 Eh   ::
         :::::::::::::::::::::::::::::::::::::::::::::::::::::

           -------------------------------------------------
          | TOTAL ENERGY              -80.936309865652 Eh   |
          | TOTAL ENTHALPY            -80.461890935490 Eh   |
          | TOTAL FREE ENERGY         -80.559188143146 Eh   |
          | GRADIENT NORM               0.000050378606 Eh/α |
          | HOMO-LUMO GAP               5.776883044921 eV   |
           -------------------------------------------------

------------------------------------------------------------------------
 * finished run on 2024/01/10 at 15:34:57.164     
------------------------------------------------------------------------
 total:
 * wall-time:     0 d,  0 h,  0 min, 14.665 sec
 *  cpu-time:     0 d,  0 h,  0 min, 14.611 sec
 * ratio c/w:     0.996 speedup
 SCF:
 * wall-time:     0 d,  0 h,  0 min,  0.087 sec
 *  cpu-time:     0 d,  0 h,  0 min,  0.059 sec
 * ratio c/w:     0.681 speedup
 analytical hessian:
 * wall-time:     0 d,  0 h,  0 min, 14.551 sec
 *  cpu-time:     0 d,  0 h,  0 min, 14.525 sec
 * ratio c/w:     0.998 speedup

