 Entering Gaussian System
 *********************************************
 Gaussian 98:
 frequency output generated by the xtb code
 *********************************************
                         Standard orientation:
 --------------------------------------------------------------------
  Center     Atomic     Atomic              Coordinates (Angstroms)
  Number     Number      Type              X           Y           Z
 --------------------------------------------------------------------
    1          8             0       -0.349692   -0.640872    2.156928
    2          6             0       -0.797670    0.292591    1.203439
    3          1             0       -1.883318    0.349418    1.310494
    4          1             0       -0.374937    1.282051    1.432851
    5          6             0       -0.379723   -0.037752   -0.227129
    6          1             0        0.669177   -0.345477   -0.193974
    7          1             0       -0.469180    0.854835   -0.847683
    8          7             0       -1.141737   -1.121274   -0.906457
    9          6             0       -1.238325   -2.317350   -0.054821
   10          1             0       -0.249355   -2.580944    0.315039
   11          1             0       -1.648477   -3.145174   -0.629613
   12          1             0       -1.903899   -2.108667    0.782111
   13          6             0       -0.407908   -1.459983   -2.135842
   14          1             0        0.578813   -1.841669   -1.879583
   15          1             0       -0.294467   -0.572061   -2.753970
   16          1             0       -0.947652   -2.220204   -2.697697
   17          6             0       -2.492238   -0.652269   -1.257464
   18          1             0       -3.081650   -0.514257   -0.352622
   19          1             0       -2.990411   -1.395789   -1.876232
   20          1             0       -2.423686    0.286107   -1.804566
   21          1             0        0.520209   -0.981183    1.878531
   22          6             0        3.114603   -1.663853    0.947618
   23          8             0        1.888916   -1.727391    0.870603
   24          7             0        3.800479   -0.563807    0.579447
   25          1             0        3.307376    0.183565    0.090867
   26          1             0        4.802072   -0.588622    0.511595
   27          7             0        3.844916   -2.705245    1.415304
   28          1             0        4.830961   -2.629683    1.586349
   29          1             0        3.356706   -3.490888    1.807085
   30          6             0        1.988016    2.531126   -0.019925
   31          8             0        2.386046    1.554376   -0.663394
   32          7             0        2.616320    2.924477    1.112830
   33          1             0        3.473482    2.470678    1.373618
   34          1             0        2.362087    3.767476    1.594318
   35          7             0        0.907077    3.234060   -0.389430
   36          1             0        0.583336    4.020417    0.142965
   37          1             0        0.350641    2.918527   -1.183898
   38          6             0        0.282373    1.930456   -3.522665
   39          8             0       -0.482655    2.095302   -2.570048
   40          7             0        1.532284    1.456633   -3.351103
   41          1             0        1.900721    1.417097   -2.398034
   42          1             0        2.188980    1.450046   -4.110653
   43          7             0       -0.132161    2.123673   -4.797643
   44          1             0        0.506573    2.106354   -5.571840
   45          1             0       -1.037348    2.535688   -4.941892
   46          6             0       -3.789683   -1.319563    2.785133
   47          8             0       -3.644851   -1.104222    1.587628
   48          7             0       -5.018250   -1.384128    3.357360
   49          1             0       -5.819802   -1.375904    2.751883
   50          1             0       -5.144996   -1.699995    4.301534
   51          7             0       -2.735017   -1.516887    3.609981
   52          1             0       -2.858867   -1.540918    4.605927
   53          1             0       -1.811500   -1.301328    3.254807
 --------------------------------------------------------------------
     1 basis functions        1 primitive gaussians
     1 alpha electrons        1 beta electrons

 Harmonic frequencies (cm**-1), IR intensities (km*mol⁻¹),
 Raman scattering activities (A**4/amu), Raman depolarization ratios,
 reduced masses (AMU), force constants (mDyne/A) and normal coordinates:
                      1                      2                      3
                        a                      a                      a 
 Frequencies --    11.1879                18.6661                28.6338
 Red. masses --    12.3256                12.2790                11.6984
 Frc consts  --     0.0000                 0.0000                 0.0000
 IR Inten    --     0.1502                 0.8397                 0.7897
 Raman Activ --     0.0000                 0.0000                 0.0000
 Depolar     --     0.0000                 0.0000                 0.0000
 Atom AN      X      Y      Z        X      Y      Z        X      Y      Z
   1   8    -0.09   0.07   0.10     0.06  -0.23   0.01     0.06  -0.21  -0.09
   2   6    -0.08   0.04   0.06     0.14  -0.15   0.02     0.11  -0.10  -0.02
   3   1    -0.02  -0.00   0.00     0.04  -0.02  -0.00     0.04  -0.00   0.00
   4   1    -0.04   0.02   0.02     0.06  -0.05   0.02     0.06  -0.04   0.00
   5   6    -0.00   0.06   0.08     0.15  -0.14   0.02     0.04  -0.07  -0.05
   6   1     0.00   0.03   0.04     0.04  -0.06   0.01     0.00  -0.05  -0.03
   7   1    -0.01   0.01   0.02     0.06  -0.04   0.01     0.03  -0.01  -0.00
   8   7     0.08   0.02   0.05     0.10  -0.08  -0.02    -0.09   0.04  -0.09
   9   6     0.08   0.02   0.05    -0.04  -0.07  -0.03    -0.14  -0.00  -0.14
  10   1     0.02   0.02   0.03    -0.02  -0.05   0.00    -0.04  -0.03  -0.06
  11   1     0.04  -0.00   0.01    -0.02  -0.01  -0.01    -0.07   0.02  -0.05
  12   1     0.01  -0.00   0.01    -0.02  -0.01  -0.01    -0.02   0.00  -0.03
  13   6     0.16   0.04   0.09     0.12  -0.13   0.02    -0.18   0.05  -0.14
  14   1     0.05   0.02   0.04     0.02  -0.06   0.02    -0.06  -0.01  -0.07
  15   1     0.05   0.01   0.03     0.06  -0.04   0.01    -0.05   0.02  -0.03
  16   1     0.06   0.00   0.02     0.02  -0.02  -0.00    -0.08   0.04  -0.04
  17   6     0.08  -0.04  -0.02     0.15   0.04  -0.07    -0.07   0.17   0.02
  18   1     0.01  -0.02  -0.01     0.03   0.02  -0.03    -0.00   0.05   0.02
  19   1     0.04  -0.02  -0.01     0.03   0.03  -0.03    -0.05   0.07  -0.00
  20   1     0.02  -0.01  -0.01     0.07   0.01  -0.02    -0.00   0.06   0.02
  21   1    -0.02   0.03   0.04     0.02  -0.06   0.01     0.01  -0.06  -0.03
  22   6     0.01   0.05   0.09     0.13  -0.02  -0.02     0.02   0.04   0.20
  23   8     0.01   0.14   0.17     0.15  -0.14   0.03     0.04  -0.10  -0.02
  24   7     0.08  -0.05  -0.11     0.03   0.04  -0.03    -0.03   0.08   0.21
  25   1     0.03  -0.02  -0.05    -0.01   0.00   0.00    -0.01  -0.01   0.01
  26   1     0.02  -0.04  -0.04     0.01   0.03  -0.02    -0.00   0.05   0.10
  27   7    -0.04   0.08   0.23     0.25   0.03  -0.07     0.04   0.20   0.51
  28   1    -0.01   0.01   0.05     0.07   0.03  -0.03     0.00   0.08   0.17
  29   1    -0.02   0.05   0.10     0.09  -0.01  -0.02     0.01   0.04   0.12
  30   6     0.17  -0.10  -0.12    -0.06   0.02   0.04    -0.01  -0.08  -0.06
  31   8     0.09  -0.12  -0.21    -0.07   0.04   0.03    -0.01  -0.08  -0.09
  32   7     0.32  -0.15  -0.19    -0.04   0.03   0.03    -0.03  -0.14  -0.03
  33   1     0.08  -0.06  -0.07    -0.00   0.02  -0.00    -0.01  -0.04  -0.01
  34   1     0.10  -0.04  -0.03    -0.01   0.01   0.01    -0.00  -0.04  -0.01
  35   7     0.18  -0.06  -0.00    -0.09   0.01   0.08     0.02  -0.05  -0.06
  36   1     0.07  -0.01   0.01    -0.03  -0.00   0.03     0.00  -0.02  -0.01
  37   1     0.02  -0.00   0.01    -0.03  -0.00   0.03     0.00  -0.01  -0.02
  38   6    -0.15   0.08   0.01    -0.16  -0.02   0.10    -0.02   0.05  -0.06
  39   8    -0.08   0.08   0.09    -0.15  -0.07   0.15    -0.02  -0.03  -0.05
  40   7    -0.17   0.01  -0.12    -0.15   0.02   0.05    -0.01   0.09  -0.11
  41   1    -0.02  -0.01  -0.04    -0.03   0.01   0.01    -0.00   0.01  -0.03
  42   1    -0.06   0.01  -0.05    -0.05   0.02   0.01    -0.00   0.04  -0.03
  43   7    -0.27   0.18   0.06    -0.23  -0.02   0.12    -0.04   0.14  -0.05
  44   1    -0.09   0.04  -0.00    -0.07   0.00   0.03    -0.01   0.05  -0.02
  45   1    -0.07   0.06   0.04    -0.07  -0.01   0.04    -0.01   0.03  -0.00
  46   6    -0.09  -0.08  -0.08    -0.07   0.19  -0.11     0.08  -0.00   0.03
  47   8    -0.05  -0.09  -0.08     0.00   0.18  -0.12     0.03   0.10   0.05
  48   7    -0.12  -0.13  -0.15    -0.10   0.39  -0.16     0.11   0.05   0.10
  49   1    -0.02  -0.05  -0.05    -0.02   0.13  -0.05     0.02   0.05   0.04
  50   1    -0.04  -0.03  -0.04    -0.05   0.11  -0.04     0.04  -0.01   0.02
  51   7    -0.13  -0.03  -0.03    -0.13   0.08  -0.07     0.11  -0.18  -0.05
  52   1    -0.05  -0.01  -0.01    -0.05   0.03  -0.02     0.05  -0.07  -0.01
  53   1    -0.03   0.00   0.01    -0.02  -0.01  -0.01     0.03  -0.06  -0.02
                      4                      5                      6
                        a                      a                      a 
 Frequencies --    29.8517                33.6792                40.7665
 Red. masses --    11.7123                12.2657                12.3028
 Frc consts  --     0.0000                 0.0000                 0.0000
 IR Inten    --     0.8320                 1.1924                 9.6213
 Raman Activ --     0.0000                 0.0000                 0.0000
 Depolar     --     0.0000                 0.0000                 0.0000
 Atom AN      X      Y      Z        X      Y      Z        X      Y      Z
   1   8    -0.02  -0.17   0.10    -0.03  -0.08   0.16     0.05   0.16  -0.04
   2   6     0.05  -0.05   0.15     0.01  -0.02   0.18     0.04   0.12  -0.04
   3   1     0.02   0.01   0.04     0.00  -0.00   0.05     0.01   0.04  -0.01
   4   1     0.04  -0.03   0.06     0.00  -0.01   0.07     0.01   0.04  -0.02
   5   6     0.04   0.02   0.13     0.03   0.04   0.17     0.03   0.10  -0.04
   6   1     0.01  -0.01   0.03     0.01   0.01   0.05     0.01   0.03  -0.01
   7   1     0.03   0.02   0.05     0.02   0.02   0.06     0.01   0.03  -0.01
   8   7    -0.03   0.12   0.06     0.02   0.09   0.12     0.02   0.11  -0.03
   9   6    -0.14   0.07  -0.01    -0.03   0.06   0.07    -0.03   0.13   0.00
  10   1    -0.05  -0.01   0.00    -0.01   0.01   0.03    -0.01   0.03   0.01
  11   1    -0.05   0.04  -0.02    -0.01   0.02   0.01    -0.01   0.04   0.00
  12   1    -0.04   0.02  -0.00    -0.02   0.01   0.02    -0.01   0.05  -0.00
  13   6    -0.03   0.11   0.06     0.05   0.11   0.12     0.02   0.04  -0.00
  14   1    -0.02   0.01   0.02     0.01   0.02   0.04     0.00   0.01   0.01
  15   1     0.01   0.04   0.03     0.02   0.04   0.05     0.02   0.00  -0.01
  16   1    -0.02   0.05   0.00     0.02   0.04   0.02     0.00   0.01   0.00
  17   6     0.02   0.23   0.05     0.05   0.13   0.08     0.03   0.13  -0.06
  18   1     0.00   0.07   0.01     0.01   0.04   0.02     0.01   0.05  -0.02
  19   1    -0.01   0.09   0.00     0.01   0.04   0.02     0.01   0.04  -0.01
  20   1     0.03   0.07   0.03     0.03   0.04   0.03     0.02   0.04  -0.02
  21   1    -0.01  -0.04   0.02     0.00  -0.01   0.05     0.01   0.03  -0.01
  22   6    -0.01  -0.04  -0.01     0.08   0.03  -0.06     0.01   0.04  -0.01
  23   8    -0.01  -0.09   0.01     0.08   0.10   0.12     0.01   0.08  -0.03
  24   7    -0.05  -0.01   0.02     0.09  -0.02  -0.22     0.04   0.03   0.00
  25   1    -0.02   0.00   0.02     0.02  -0.01  -0.05     0.01   0.01  -0.00
  26   1    -0.01   0.01   0.01     0.02  -0.02  -0.10     0.01   0.00   0.00
  27   7     0.03  -0.04  -0.07     0.10   0.02  -0.11    -0.02   0.03   0.01
  28   1     0.01  -0.00  -0.02     0.03  -0.00  -0.07    -0.01   0.00   0.00
  29   1     0.02  -0.02  -0.02     0.03   0.02   0.00    -0.01   0.01   0.00
  30   6     0.08   0.18  -0.09    -0.10  -0.11  -0.03     0.00  -0.06   0.08
  31   8     0.04   0.09   0.03     0.02  -0.01  -0.13     0.02  -0.00   0.01
  32   7     0.21   0.40  -0.24    -0.30  -0.27   0.13    -0.14  -0.29   0.26
  33   1     0.06   0.12  -0.06    -0.08  -0.06   0.04    -0.05  -0.10   0.07
  34   1     0.06   0.12  -0.09    -0.10  -0.08   0.04    -0.03  -0.08   0.08
  35   7     0.04   0.12  -0.11    -0.08  -0.10  -0.10     0.13   0.09   0.02
  36   1     0.03   0.06  -0.06    -0.06  -0.06  -0.00     0.02  -0.00   0.04
  37   1     0.00   0.01  -0.01    -0.00  -0.02  -0.04     0.04   0.05  -0.00
  38   6     0.02  -0.11   0.01     0.09   0.00  -0.14    -0.10  -0.12   0.05
  39   8     0.02  -0.09   0.01     0.06  -0.22  -0.15    -0.01   0.17   0.08
  40   7     0.04  -0.07   0.04     0.18   0.23  -0.18    -0.12  -0.18   0.06
  41   1     0.01  -0.01   0.01     0.04   0.04  -0.05    -0.02  -0.01   0.01
  42   1     0.01  -0.03   0.01     0.05   0.10  -0.05    -0.05  -0.11   0.00
  43   7     0.01  -0.21   0.00     0.07   0.03  -0.14    -0.21  -0.47   0.03
  44   1     0.00  -0.06   0.00     0.02   0.05  -0.04    -0.07  -0.16   0.00
  45   1     0.00  -0.06  -0.01    -0.00  -0.03  -0.03    -0.04  -0.09   0.01
  46   6    -0.07  -0.10  -0.03    -0.08   0.00   0.03     0.06  -0.00  -0.08
  47   8    -0.08   0.15   0.01    -0.06   0.12   0.06     0.02   0.23  -0.06
  48   7    -0.08  -0.18  -0.04    -0.10  -0.01  -0.01     0.08  -0.16  -0.07
  49   1    -0.02  -0.00  -0.01    -0.02   0.02  -0.01     0.02  -0.01  -0.01
  50   1    -0.02  -0.09  -0.03    -0.04  -0.03  -0.01     0.03  -0.08  -0.03
  51   7    -0.08  -0.33  -0.08    -0.12  -0.13   0.03     0.09  -0.14  -0.16
  52   1    -0.02  -0.14  -0.02    -0.04  -0.06   0.01     0.03  -0.08  -0.04
  53   1    -0.02  -0.07  -0.01    -0.03  -0.03   0.02     0.02  -0.01  -0.04
                      7                      8                      9
                        a                      a                      a 
 Frequencies --    46.3464                53.0913                55.0999
 Red. masses --    12.7833                12.6229                12.2698
 Frc consts  --     0.0000                 0.0000                 0.0000
 IR Inten    --     3.0100                 0.9890                 2.9768
 Raman Activ --     0.0000                 0.0000                 0.0000
 Depolar     --     0.0000                 0.0000                 0.0000
 Atom AN      X      Y      Z        X      Y      Z        X      Y      Z
   1   8    -0.07  -0.18  -0.06    -0.05  -0.10  -0.03     0.03  -0.17   0.04
   2   6    -0.06  -0.10   0.00    -0.06  -0.05   0.01     0.09  -0.05   0.10
   3   1    -0.02  -0.03   0.01    -0.02  -0.02   0.01     0.03   0.00   0.03
   4   1    -0.01  -0.03   0.01    -0.01  -0.02   0.01     0.04  -0.03   0.05
   5   6    -0.08  -0.02  -0.02    -0.08  -0.02  -0.00     0.07   0.04   0.07
   6   1    -0.02  -0.01  -0.01    -0.02  -0.00  -0.01     0.02  -0.00   0.01
   7   1    -0.03   0.00   0.01    -0.03  -0.00   0.01     0.03   0.03   0.04
   8   7    -0.10   0.01  -0.06    -0.10  -0.01  -0.01     0.04   0.13  -0.01
   9   6    -0.02  -0.05  -0.12    -0.07  -0.02  -0.02     0.03   0.05  -0.11
  10   1     0.00  -0.01  -0.05    -0.02  -0.00  -0.01     0.01  -0.00  -0.05
  11   1    -0.01  -0.01  -0.04    -0.02  -0.01  -0.01    -0.00   0.03  -0.05
  12   1     0.00  -0.03  -0.02    -0.02  -0.01  -0.00     0.01  -0.00  -0.02
  13   6    -0.16   0.10  -0.12    -0.12   0.01  -0.03    -0.00   0.21  -0.05
  14   1    -0.03   0.04  -0.06    -0.03  -0.00  -0.02    -0.00   0.05  -0.03
  15   1    -0.07   0.04  -0.02    -0.04   0.00  -0.00    -0.00   0.07   0.00
  16   1    -0.04   0.03  -0.04    -0.04   0.01  -0.01    -0.01   0.08  -0.03
  17   6    -0.13  -0.01   0.04    -0.10  -0.01   0.03     0.04   0.19   0.07
  18   1    -0.03  -0.03   0.02    -0.02  -0.00   0.01     0.02   0.03   0.03
  19   1    -0.04   0.01   0.00    -0.03  -0.00   0.01     0.00   0.08  -0.00
  20   1    -0.05   0.01   0.03    -0.04  -0.00   0.01     0.01   0.07   0.05
  21   1    -0.01  -0.02  -0.01     0.00   0.01   0.00     0.00  -0.05   0.01
  22   6     0.06   0.11  -0.05     0.15   0.17  -0.06     0.02  -0.04   0.02
  23   8     0.07   0.18  -0.11     0.16   0.26   0.00     0.04  -0.13  -0.01
  24   7     0.14   0.05  -0.10     0.19   0.15  -0.12    -0.04   0.05   0.16
  25   1     0.05   0.02  -0.03     0.05   0.04  -0.03    -0.02   0.00   0.04
  26   1     0.04   0.00  -0.01     0.05   0.03  -0.05    -0.01   0.03   0.04
  27   7     0.00   0.11   0.04     0.14   0.16  -0.09     0.09  -0.04  -0.06
  28   1     0.00   0.02   0.02     0.04   0.04  -0.03     0.02   0.01  -0.00
  29   1    -0.01   0.04   0.01     0.03   0.05  -0.01     0.04  -0.03  -0.04
  30   6     0.13   0.02   0.05     0.01  -0.04   0.02    -0.04  -0.00  -0.05
  31   8     0.24   0.12  -0.04    -0.00  -0.03  -0.01    -0.13  -0.08   0.01
  32   7     0.15  -0.00   0.06     0.05  -0.06   0.01    -0.13  -0.10   0.03
  33   1     0.06   0.02  -0.00     0.01  -0.03  -0.00    -0.05  -0.05   0.03
  34   1     0.02  -0.02   0.04     0.01  -0.03   0.02    -0.00  -0.00  -0.02
  35   7     0.05  -0.08   0.15    -0.01  -0.05   0.09     0.13   0.18  -0.21
  36   1     0.00  -0.03   0.05     0.01  -0.01   0.02     0.04   0.05  -0.05
  37   1     0.02  -0.01   0.03     0.00   0.00   0.01     0.02   0.05  -0.05
  38   6     0.04  -0.05   0.04     0.06  -0.06   0.03    -0.03  -0.03  -0.03
  39   8     0.10  -0.01   0.08     0.06   0.12  -0.01    -0.02   0.10  -0.04
  40   7     0.15   0.26   0.02    -0.11  -0.56   0.08    -0.10  -0.21  -0.02
  41   1     0.05   0.08  -0.00    -0.03  -0.12   0.03    -0.03  -0.05  -0.00
  42   1     0.02   0.03  -0.01    -0.01  -0.15   0.04    -0.02  -0.07  -0.00
  43   7    -0.13  -0.43   0.03     0.24   0.21   0.02     0.00   0.01  -0.04
  44   1    -0.04  -0.08   0.00     0.07  -0.02   0.01    -0.00  -0.04  -0.01
  45   1    -0.04  -0.13   0.02     0.09   0.11  -0.01     0.01   0.03  -0.02
  46   6    -0.08  -0.02   0.04    -0.08  -0.01   0.02    -0.02  -0.05   0.03
  47   8    -0.05  -0.27   0.00    -0.12   0.02   0.02     0.12  -0.34   0.00
  48   7    -0.10   0.12   0.02    -0.08   0.08   0.05    -0.09  -0.13  -0.12
  49   1    -0.02  -0.00  -0.00    -0.03   0.04   0.02    -0.00  -0.12  -0.06
  50   1    -0.04   0.07   0.02    -0.02   0.01   0.01    -0.04   0.02  -0.02
  51   7    -0.11   0.14   0.11    -0.08  -0.14  -0.02    -0.10   0.39   0.23
  52   1    -0.04   0.08   0.03    -0.02  -0.04  -0.01    -0.06   0.14   0.06
  53   1    -0.03   0.00   0.02    -0.02  -0.04  -0.01    -0.02   0.07   0.07
                     10                     11                     12
                        a                      a                      a 
 Frequencies --    59.4722                64.8793                73.6447
 Red. masses --    11.5851                12.5775                12.8449
 Frc consts  --     0.0000                 0.0000                 0.0000
 IR Inten    --     2.4686                 2.2082                 2.8636
 Raman Activ --     0.0000                 0.0000                 0.0000
 Depolar     --     0.0000                 0.0000                 0.0000
 Atom AN      X      Y      Z        X      Y      Z        X      Y      Z
   1   8    -0.03  -0.11   0.05     0.03  -0.03   0.01    -0.13   0.06  -0.05
   2   6    -0.11  -0.06   0.12     0.05  -0.00   0.02     0.00   0.02  -0.11
   3   1    -0.04  -0.05   0.03     0.01   0.00   0.00     0.00   0.03  -0.04
   4   1    -0.06  -0.01   0.06     0.02  -0.00   0.01     0.02   0.00  -0.05
   5   6    -0.07   0.12   0.10     0.06   0.02   0.02     0.02  -0.11  -0.08
   6   1    -0.01   0.08   0.02     0.01  -0.00   0.01    -0.00  -0.06  -0.01
   7   1    -0.06   0.04   0.05     0.02   0.01   0.01     0.04  -0.04  -0.04
   8   7     0.10   0.06   0.01     0.05   0.06  -0.02    -0.06  -0.09  -0.03
   9   6     0.18  -0.01  -0.06     0.00   0.04  -0.06    -0.04  -0.07   0.00
  10   1     0.06   0.02  -0.01    -0.00   0.00  -0.01    -0.01  -0.02   0.00
  11   1     0.09  -0.00  -0.04    -0.00   0.02  -0.03    -0.02  -0.02   0.01
  12   1     0.04  -0.04  -0.02    -0.00   0.01  -0.02    -0.01  -0.01   0.00
  13   6     0.21   0.19   0.04     0.05   0.07  -0.02    -0.14  -0.13  -0.07
  14   1     0.07   0.08   0.02     0.01   0.01  -0.00    -0.04  -0.04  -0.04
  15   1     0.04   0.07   0.03     0.03   0.02   0.00    -0.05  -0.04  -0.03
  16   1     0.09   0.05  -0.01     0.01   0.03  -0.01    -0.06  -0.04  -0.01
  17   6     0.06  -0.10  -0.04     0.06   0.10  -0.03    -0.06  -0.05   0.03
  18   1     0.00  -0.05  -0.02     0.02   0.02  -0.01    -0.01  -0.02   0.02
  19   1     0.05  -0.04  -0.02     0.01   0.04  -0.02    -0.03  -0.01   0.01
  20   1    -0.01  -0.02  -0.01     0.03   0.03   0.00    -0.02  -0.01   0.02
  21   1    -0.01  -0.01  -0.01    -0.00  -0.02  -0.00    -0.02   0.01   0.02
  22   6    -0.09  -0.00  -0.02    -0.04  -0.09  -0.06     0.04  -0.03   0.06
  23   8    -0.10   0.02  -0.13    -0.06  -0.06  -0.00     0.02   0.02   0.38
  24   7    -0.06   0.00   0.07    -0.00  -0.32  -0.60     0.01  -0.11  -0.24
  25   1    -0.01   0.00   0.01    -0.00  -0.07  -0.13    -0.02  -0.02  -0.03
  26   1    -0.01  -0.00   0.04     0.00  -0.07  -0.11    -0.00  -0.04  -0.11
  27   7    -0.15  -0.02   0.01    -0.10   0.08   0.40     0.11  -0.01   0.00
  28   1    -0.04  -0.01   0.02    -0.02   0.00   0.05     0.04  -0.01  -0.06
  29   1    -0.05  -0.01  -0.02    -0.03   0.05   0.16     0.05   0.02   0.06
  30   6    -0.02   0.01  -0.03    -0.09   0.07   0.05     0.04   0.12  -0.03
  31   8    -0.04  -0.02   0.01    -0.04   0.12   0.05    -0.07   0.03   0.07
  32   7    -0.07  -0.02   0.01    -0.09   0.14   0.03    -0.11  -0.01   0.11
  33   1    -0.03  -0.01   0.01    -0.00   0.06  -0.01    -0.05  -0.04   0.05
  34   1    -0.01   0.01  -0.01    -0.03   0.03   0.01     0.02   0.04  -0.02
  35   7     0.06   0.09  -0.11    -0.19  -0.03   0.12     0.33   0.43  -0.31
  36   1     0.01   0.02  -0.03    -0.05  -0.00   0.02     0.07   0.09  -0.06
  37   1     0.01   0.02  -0.03    -0.04  -0.00   0.02     0.05   0.08  -0.04
  38   6    -0.02  -0.00  -0.03     0.01  -0.03   0.02     0.03   0.04   0.06
  39   8    -0.01   0.10  -0.04    -0.03   0.04  -0.02     0.05   0.01   0.09
  40   7    -0.05  -0.07  -0.01    -0.04  -0.16   0.09     0.05   0.09   0.03
  41   1    -0.01  -0.01  -0.00    -0.02  -0.02   0.03     0.01   0.02   0.01
  42   1    -0.01  -0.04  -0.00    -0.00  -0.05   0.03     0.01   0.03   0.00
  43   7    -0.02  -0.07  -0.04     0.09  -0.02   0.00    -0.02   0.03   0.07
  44   1    -0.00  -0.04  -0.01     0.03  -0.03   0.01    -0.01   0.02   0.02
  45   1     0.00  -0.01  -0.02     0.03   0.00  -0.02    -0.01   0.00   0.03
  46   6     0.05  -0.04   0.01     0.06  -0.01  -0.01    -0.02  -0.06   0.01
  47   8     0.05  -0.24  -0.02     0.10  -0.09  -0.02    -0.06  -0.14  -0.01
  48   7     0.07   0.51   0.12     0.06  -0.00  -0.03    -0.00   0.10   0.08
  49   1     0.01   0.17   0.04     0.02  -0.02  -0.01    -0.01   0.03   0.03
  50   1     0.01   0.15   0.04     0.01   0.01  -0.00     0.01   0.03   0.02
  51   7     0.04  -0.36  -0.04     0.05   0.09   0.03     0.00  -0.14  -0.03
  52   1     0.02  -0.04  -0.01     0.01   0.04   0.01     0.01  -0.01  -0.01
  53   1     0.02  -0.14  -0.02     0.02   0.01   0.01    -0.00  -0.04  -0.02
                     13                     14                     15
                        a                      a                      a 
 Frequencies --    77.3558                90.0423                96.4759
 Red. masses --    13.5426                11.6140                12.8551
 Frc consts  --     0.0000                 0.0000                 0.0000
 IR Inten    --    10.1702                 4.0884                 0.0834
 Raman Activ --     0.0000                 0.0000                 0.0000
 Depolar     --     0.0000                 0.0000                 0.0000
 Atom AN      X      Y      Z        X      Y      Z        X      Y      Z
   1   8     0.10  -0.16  -0.01    -0.04   0.06   0.03    -0.07  -0.02   0.02
   2   6     0.00  -0.11   0.06    -0.03   0.01  -0.01     0.01  -0.01  -0.01
   3   1     0.00  -0.05   0.03    -0.01  -0.00  -0.01     0.00   0.01  -0.01
   4   1    -0.01  -0.03   0.03    -0.02   0.01  -0.01     0.01  -0.01  -0.01
   5   6    -0.06  -0.03   0.03     0.03  -0.04   0.02     0.05  -0.06   0.01
   6   1    -0.01   0.02  -0.01    -0.00  -0.04   0.03     0.01  -0.03   0.01
   7   1    -0.05  -0.01   0.01     0.05  -0.01  -0.00     0.03  -0.02  -0.00
   8   7     0.01  -0.11   0.07    -0.03   0.03  -0.03     0.03  -0.05   0.02
   9   6     0.04  -0.08   0.10    -0.34   0.09   0.02    -0.07  -0.02   0.05
  10   1     0.02  -0.02   0.02    -0.13  -0.01   0.06    -0.03  -0.02   0.03
  11   1     0.01  -0.03   0.04    -0.10   0.03  -0.00    -0.03  -0.00   0.02
  12   1     0.02  -0.02   0.03    -0.14   0.06  -0.03    -0.03   0.01   0.01
  13   6     0.07  -0.12   0.10     0.11  -0.17   0.11     0.07  -0.13   0.06
  14   1     0.02  -0.03   0.05    -0.00  -0.10   0.09     0.01  -0.06   0.04
  15   1     0.02  -0.04   0.02     0.11  -0.06   0.03     0.05  -0.04   0.02
  16   1     0.03  -0.04   0.03     0.02  -0.03   0.02     0.01  -0.03   0.01
  17   6    -0.01  -0.19   0.02     0.10   0.23  -0.24     0.06  -0.01  -0.05
  18   1    -0.00  -0.04   0.00    -0.00   0.10  -0.09     0.01   0.01  -0.02
  19   1     0.01  -0.08   0.02     0.02   0.08  -0.08     0.01  -0.00  -0.01
  20   1    -0.01  -0.07  -0.02     0.10   0.06  -0.07     0.03  -0.01  -0.02
  21   1     0.02  -0.04  -0.03    -0.01   0.01   0.01    -0.02  -0.03   0.01
  22   6    -0.05   0.02  -0.15    -0.07   0.06  -0.02    -0.11   0.02  -0.02
  23   8    -0.04  -0.07  -0.51    -0.08   0.08  -0.05    -0.12  -0.26   0.08
  24   7    -0.04   0.03  -0.09    -0.06   0.08   0.06    -0.37   0.15  -0.10
  25   1     0.01   0.01  -0.04    -0.00   0.02   0.01    -0.13   0.02  -0.03
  26   1    -0.00   0.03   0.06    -0.02   0.01   0.02    -0.10   0.09  -0.04
  27   7    -0.12   0.13   0.17    -0.10   0.03  -0.07     0.15   0.19  -0.06
  28   1    -0.04   0.04   0.09    -0.03   0.00  -0.01     0.04   0.11  -0.04
  29   1    -0.04   0.02   0.00    -0.03   0.00  -0.03     0.10   0.02  -0.00
  30   6     0.08   0.10  -0.04     0.08   0.05  -0.02    -0.01   0.02   0.02
  31   8     0.15   0.15  -0.06     0.26   0.19  -0.12    -0.12   0.08  -0.14
  32   7    -0.12  -0.05   0.13    -0.06  -0.03   0.09     0.15  -0.13  -0.02
  33   1    -0.02   0.00   0.03     0.01   0.03   0.01     0.04  -0.06  -0.04
  34   1    -0.01   0.01   0.01    -0.04  -0.02   0.03     0.05  -0.06   0.05
  35   7     0.22   0.23  -0.21     0.04  -0.01  -0.01    -0.06   0.05   0.24
  36   1     0.01   0.02  -0.02    -0.04  -0.05   0.03     0.02   0.03   0.07
  37   1     0.04   0.04  -0.04     0.01  -0.02   0.00    -0.00   0.06   0.04
  38   6     0.03   0.02   0.04    -0.00  -0.09   0.04     0.12   0.09  -0.09
  39   8     0.07   0.00   0.07     0.01  -0.28   0.09     0.28   0.37  -0.05
  40   7     0.02  -0.04  -0.02     0.00  -0.13  -0.05     0.09  -0.02  -0.16
  41   1     0.02  -0.00  -0.01     0.02  -0.02  -0.02     0.04   0.02  -0.05
  42   1     0.00   0.00  -0.01    -0.00   0.02  -0.02     0.01  -0.06  -0.06
  43   7     0.01   0.11   0.06    -0.03   0.15   0.10     0.00  -0.11  -0.10
  44   1    -0.01   0.02   0.01    -0.02   0.05   0.01    -0.02  -0.07  -0.04
  45   1     0.00   0.03   0.03    -0.02   0.02   0.05     0.02   0.01  -0.02
  46   6    -0.08   0.06   0.04     0.06  -0.09   0.01    -0.03  -0.03   0.07
  47   8    -0.07   0.24   0.08    -0.00  -0.34  -0.04    -0.01  -0.05   0.08
  48   7    -0.10  -0.14  -0.01     0.09   0.05   0.10    -0.03   0.00   0.06
  49   1    -0.02  -0.02  -0.01     0.02  -0.02   0.04    -0.01   0.00   0.01
  50   1    -0.03  -0.06  -0.01     0.04   0.05   0.04    -0.01   0.00   0.02
  51   7    -0.10   0.07   0.06     0.10   0.03  -0.01    -0.04  -0.06   0.09
  52   1    -0.03  -0.03   0.01     0.04   0.06  -0.00    -0.01  -0.01   0.02
  53   1    -0.02   0.02   0.03     0.02  -0.01  -0.02    -0.01  -0.02   0.02
                     16                     17                     18
                        a                      a                      a 
 Frequencies --   101.7954               105.4875               113.8199
 Red. masses --    12.2899                13.1432                13.5479
 Frc consts  --     0.0000                 0.0000                 0.0000
 IR Inten    --     7.9617                 8.3255                 6.8063
 Raman Activ --     0.0000                 0.0000                 0.0000
 Depolar     --     0.0000                 0.0000                 0.0000
 Atom AN      X      Y      Z        X      Y      Z        X      Y      Z
   1   8     0.04  -0.09  -0.03    -0.30  -0.21  -0.09     0.03   0.00  -0.07
   2   6    -0.12  -0.08   0.03    -0.16  -0.13  -0.06     0.09   0.02  -0.06
   3   1    -0.04  -0.07   0.01    -0.05  -0.04  -0.04     0.02   0.02  -0.02
   4   1    -0.07  -0.01   0.02    -0.05  -0.04   0.01     0.03   0.00  -0.02
   5   6    -0.08   0.03   0.02    -0.02  -0.03  -0.04     0.10   0.00  -0.05
   6   1    -0.02   0.03   0.01    -0.00  -0.00   0.01     0.03  -0.00  -0.01
   7   1    -0.03   0.01   0.02     0.00  -0.00  -0.00     0.03  -0.00  -0.02
   8   7    -0.01   0.02  -0.05     0.08  -0.02  -0.18     0.07  -0.00  -0.01
   9   6    -0.21   0.05  -0.01     0.02  -0.05  -0.22     0.02   0.03   0.03
  10   1    -0.08   0.00   0.04    -0.00  -0.03  -0.06     0.00   0.01   0.02
  11   1    -0.05   0.02  -0.01     0.00  -0.01  -0.08     0.01   0.01   0.01
  12   1    -0.10   0.03  -0.03     0.00  -0.02  -0.06    -0.00   0.02   0.00
  13   6     0.19  -0.08   0.10     0.19   0.06  -0.12     0.06  -0.07   0.00
  14   1     0.03  -0.04   0.09     0.05   0.02  -0.02     0.01  -0.03   0.01
  15   1     0.11  -0.03   0.03     0.06   0.02  -0.02     0.03  -0.03  -0.01
  16   1     0.07  -0.02   0.01     0.08   0.02  -0.06     0.01  -0.02   0.01
  17   6     0.06   0.06  -0.26     0.09  -0.04  -0.24     0.08   0.02  -0.01
  18   1    -0.01   0.05  -0.10     0.01  -0.02  -0.08     0.02   0.01  -0.00
  19   1     0.03   0.01  -0.08     0.04  -0.01  -0.08     0.02   0.01  -0.00
  20   1     0.05   0.00  -0.09     0.03  -0.01  -0.06     0.02   0.01  -0.00
  21   1     0.01   0.01  -0.02    -0.05  -0.03   0.01     0.02   0.00  -0.00
  22   6     0.10   0.03  -0.05    -0.04   0.02   0.07     0.10  -0.12   0.07
  23   8     0.12   0.09  -0.15    -0.06   0.13   0.25     0.11  -0.09   0.04
  24   7     0.17  -0.01  -0.06     0.00  -0.02   0.03     0.15  -0.14   0.12
  25   1     0.04  -0.01  -0.02     0.00   0.00   0.02     0.06  -0.03   0.03
  26   1     0.04  -0.01  -0.01    -0.00  -0.03  -0.03     0.04  -0.04   0.05
  27   7     0.04   0.03   0.06    -0.07  -0.07  -0.08     0.06  -0.18   0.05
  28   1     0.01  -0.00   0.03    -0.01  -0.03  -0.04     0.01  -0.06   0.02
  29   1    -0.00   0.02   0.01    -0.03  -0.00   0.01     0.00  -0.04   0.01
  30   6    -0.08  -0.08   0.03     0.03   0.03  -0.01     0.05   0.06  -0.02
  31   8    -0.37  -0.32   0.19     0.11   0.08  -0.03     0.30   0.18  -0.04
  32   7     0.10  -0.00  -0.12    -0.02   0.03   0.03    -0.14   0.10   0.09
  33   1    -0.02  -0.07   0.01     0.00   0.02   0.01    -0.00   0.09   0.01
  34   1     0.06   0.01  -0.04    -0.02   0.00   0.01    -0.07   0.03   0.00
  35   7     0.05   0.08  -0.05     0.02   0.00  -0.02    -0.05  -0.10  -0.03
  36   1     0.07   0.08  -0.06    -0.02  -0.02   0.01    -0.04  -0.04  -0.00
  37   1    -0.00   0.02  -0.00     0.00  -0.00  -0.00     0.01  -0.02  -0.03
  38   6     0.03   0.06   0.01    -0.03  -0.01  -0.00    -0.08   0.13  -0.11
  39   8    -0.02   0.09  -0.03    -0.03   0.01  -0.01    -0.10   0.37  -0.18
  40   7     0.06   0.20   0.11    -0.04  -0.05   0.00    -0.14   0.01  -0.02
  41   1    -0.01   0.02   0.04    -0.01   0.00   0.00    -0.03   0.03  -0.01
  42   1     0.02   0.02   0.04    -0.01  -0.01   0.00    -0.04  -0.04  -0.00
  43   7     0.06  -0.11  -0.03    -0.02  -0.00  -0.01    -0.02  -0.01  -0.17
  44   1     0.04  -0.01   0.01    -0.00  -0.00  -0.00     0.00  -0.04  -0.04
  45   1     0.02  -0.03  -0.03    -0.00   0.00  -0.00     0.01   0.02  -0.07
  46   6    -0.04   0.01   0.06     0.07   0.08   0.19    -0.17  -0.04   0.08
  47   8    -0.21  -0.02   0.04     0.19   0.34   0.27    -0.36  -0.10   0.06
  48   7     0.03  -0.08   0.21     0.02  -0.12   0.06    -0.11  -0.03   0.27
  49   1    -0.01  -0.04   0.08     0.02  -0.00  -0.00    -0.05  -0.02   0.10
  50   1     0.04  -0.01   0.06    -0.02  -0.07   0.00     0.01  -0.01   0.08
  51   7     0.05   0.13  -0.03    -0.00   0.01   0.27    -0.08  -0.01  -0.04
  52   1     0.04   0.03  -0.01    -0.02  -0.04   0.07     0.01   0.01  -0.01
  53   1     0.01   0.03  -0.03     0.00   0.01   0.09    -0.03   0.00  -0.03
                     19                     20                     21
                        a                      a                      a 
 Frequencies --   114.7575               125.1886               141.9106
 Red. masses --    12.3264                12.8211                11.8760
 Frc consts  --     0.0000                 0.0000                 0.0000
 IR Inten    --    24.3905                 6.6922                21.0197
 Raman Activ --     0.0000                 0.0000                 0.0000
 Depolar     --     0.0000                 0.0000                 0.0000
 Atom AN      X      Y      Z        X      Y      Z        X      Y      Z
   1   8    -0.01   0.01   0.01     0.08  -0.30   0.10    -0.02   0.18   0.03
   2   6     0.05   0.02  -0.01    -0.06  -0.21   0.20    -0.32   0.03   0.04
   3   1     0.02   0.03   0.01    -0.02  -0.08   0.08    -0.10  -0.08   0.02
   4   1     0.04  -0.00  -0.02    -0.03  -0.06   0.07    -0.17   0.04   0.01
   5   6    -0.02  -0.05  -0.02    -0.14  -0.05   0.14    -0.28   0.12   0.04
   6   1    -0.01  -0.02  -0.01    -0.03   0.01   0.01    -0.07   0.06   0.01
   7   1    -0.00  -0.02  -0.01    -0.07  -0.00   0.07    -0.10   0.04   0.01
   8   7    -0.09  -0.05   0.06    -0.11  -0.07   0.10    -0.15   0.06  -0.02
   9   6    -0.21   0.03   0.15    -0.11  -0.09   0.04    -0.11   0.06  -0.01
  10   1    -0.07  -0.01   0.05    -0.04  -0.02   0.03    -0.03   0.04   0.01
  11   1    -0.08   0.01   0.06    -0.01  -0.03  -0.00    -0.00   0.01  -0.01
  12   1    -0.06   0.05   0.03    -0.05  -0.04  -0.00    -0.05   0.01  -0.02
  13   6    -0.08  -0.23   0.11    -0.04  -0.01   0.11     0.00   0.12   0.05
  14   1    -0.04  -0.09   0.05    -0.02  -0.02   0.04     0.00   0.05   0.04
  15   1     0.01  -0.09   0.01     0.01   0.01   0.05     0.00   0.04   0.02
  16   1    -0.04  -0.06   0.04    -0.01   0.01   0.01     0.03   0.02  -0.00
  17   6    -0.03   0.04  -0.02    -0.10  -0.09   0.04    -0.16  -0.08  -0.15
  18   1    -0.01   0.06  -0.01    -0.03  -0.01   0.01    -0.07  -0.02  -0.06
  19   1    -0.03   0.00   0.02    -0.02  -0.04   0.02    -0.01  -0.05  -0.04
  20   1     0.02  -0.01  -0.04    -0.03  -0.04  -0.01    -0.06  -0.03  -0.06
  21   1     0.00   0.01   0.01     0.03  -0.05   0.01    -0.01   0.06  -0.02
  22   6     0.04   0.01  -0.01    -0.05   0.03   0.08     0.14  -0.16   0.02
  23   8     0.05   0.13  -0.10    -0.07   0.13   0.26     0.18  -0.41  -0.01
  24   7     0.16  -0.04   0.04    -0.02  -0.01   0.01    -0.02  -0.06   0.00
  25   1     0.06  -0.00   0.01    -0.01   0.01   0.02    -0.02  -0.03  -0.01
  26   1     0.04  -0.03   0.02    -0.01  -0.02  -0.03    -0.00   0.03   0.01
  27   7    -0.09  -0.06   0.02    -0.08  -0.05  -0.06     0.39   0.01   0.08
  28   1    -0.03  -0.04   0.03    -0.01  -0.03  -0.05     0.10   0.07   0.02
  29   1    -0.05  -0.00  -0.00    -0.02   0.00   0.01     0.15  -0.02   0.03
  30   6    -0.00  -0.01  -0.01     0.03   0.03  -0.03     0.06   0.02  -0.02
  31   8     0.02  -0.05   0.05     0.11   0.07  -0.04     0.17   0.07  -0.05
  32   7    -0.03   0.04  -0.01    -0.05   0.03   0.02    -0.03   0.00   0.03
  33   1    -0.01   0.01   0.01    -0.00   0.03   0.00     0.00   0.02   0.01
  34   1    -0.01   0.02  -0.02    -0.02   0.01  -0.00    -0.02  -0.00   0.01
  35   7     0.01  -0.03  -0.06     0.01  -0.01  -0.05     0.04  -0.04  -0.05
  36   1     0.01   0.00  -0.03    -0.01  -0.01  -0.01    -0.01  -0.02  -0.00
  37   1     0.00  -0.01  -0.02     0.01  -0.00  -0.02     0.01  -0.02  -0.01
  38   6    -0.03   0.12  -0.05     0.00   0.09  -0.05    -0.02  -0.01   0.02
  39   8    -0.08   0.30  -0.12     0.04   0.27  -0.06    -0.08  -0.03  -0.01
  40   7    -0.05   0.13   0.07    -0.03   0.01  -0.03    -0.03   0.00   0.07
  41   1    -0.03   0.03   0.02    -0.00   0.02  -0.01    -0.01   0.01   0.02
  42   1    -0.01  -0.01   0.02    -0.01  -0.03  -0.01    -0.00   0.00   0.02
  43   7     0.04  -0.04  -0.11    -0.00  -0.02  -0.07     0.04   0.00   0.01
  44   1     0.03  -0.02  -0.01    -0.00  -0.03  -0.02     0.02   0.00   0.01
  45   1     0.03   0.01  -0.06     0.01   0.02  -0.03     0.01  -0.00  -0.01
  46   6     0.10  -0.06   0.02     0.14   0.08  -0.16     0.05   0.01  -0.01
  47   8     0.44  -0.08   0.06     0.02   0.06  -0.22     0.11   0.02  -0.01
  48   7    -0.05   0.08  -0.31     0.21  -0.05  -0.08     0.03   0.02  -0.08
  49   1     0.03   0.05  -0.14     0.04  -0.02   0.00     0.02   0.02  -0.03
  50   1    -0.09   0.03  -0.09     0.09   0.02  -0.01    -0.01   0.02  -0.02
  51   7    -0.10  -0.20   0.25     0.23   0.25  -0.26     0.02  -0.00   0.03
  52   1    -0.08  -0.04   0.06     0.08   0.03  -0.07    -0.00  -0.01   0.01
  53   1    -0.01  -0.06   0.11     0.06   0.04  -0.09     0.01  -0.01   0.02
                     22                     23                     24
                        a                      a                      a 
 Frequencies --   153.9573               164.0010               188.7132
 Red. masses --    12.5380                13.2404                10.8244
 Frc consts  --     0.0000                 0.0000                 0.0000
 IR Inten    --     4.3585                23.7050                 6.0568
 Raman Activ --     0.0000                 0.0000                 0.0000
 Depolar     --     0.0000                 0.0000                 0.0000
 Atom AN      X      Y      Z        X      Y      Z        X      Y      Z
   1   8    -0.01   0.01   0.02    -0.03   0.07   0.01    -0.02  -0.38  -0.42
   2   6     0.06   0.01  -0.01    -0.05   0.02  -0.02     0.18   0.09  -0.03
   3   1     0.02   0.02  -0.01    -0.01  -0.00  -0.01     0.06   0.12   0.04
   4   1     0.03  -0.00  -0.00    -0.02   0.01  -0.01     0.16  -0.03   0.05
   5   6     0.07  -0.02  -0.00    -0.00  -0.01   0.00    -0.12   0.32  -0.16
   6   1     0.02  -0.02   0.00    -0.00  -0.01   0.01    -0.01   0.17  -0.13
   7   1     0.02  -0.01  -0.00     0.01  -0.00  -0.00    -0.15   0.10  -0.03
   8   7     0.05  -0.00  -0.00    -0.01   0.00  -0.02    -0.02   0.15   0.02
   9   6     0.04  -0.01  -0.01    -0.02   0.00  -0.02     0.06   0.26   0.21
  10   1     0.01  -0.01  -0.01    -0.01  -0.00  -0.01     0.02   0.11   0.08
  11   1     0.00   0.00  -0.00    -0.01   0.00  -0.01     0.05   0.04   0.09
  12   1     0.02  -0.00  -0.00    -0.00   0.00  -0.01    -0.00   0.10   0.04
  13   6     0.02  -0.00  -0.02     0.00   0.01  -0.01     0.03  -0.05   0.10
  14   1     0.01  -0.00  -0.01    -0.00   0.00  -0.00     0.00  -0.01   0.06
  15   1    -0.00  -0.00  -0.01     0.00   0.00  -0.00     0.02  -0.04  -0.01
  16   1     0.00  -0.00  -0.00     0.00   0.00  -0.01     0.01  -0.04   0.05
  17   6     0.05   0.03   0.03    -0.01   0.01  -0.02    -0.07  -0.09  -0.06
  18   1     0.02   0.00   0.01    -0.01  -0.01  -0.01     0.00   0.07  -0.02
  19   1     0.01   0.02  -0.00     0.00   0.01  -0.02    -0.02  -0.11   0.09
  20   1     0.02   0.02   0.02    -0.00   0.01   0.01    -0.05  -0.09  -0.13
  21   1    -0.01  -0.02   0.01    -0.00   0.02   0.01     0.01  -0.06  -0.10
  22   6    -0.10   0.07  -0.03     0.06  -0.05   0.02    -0.01  -0.02   0.05
  23   8    -0.11  -0.03   0.04     0.08   0.02  -0.04    -0.01  -0.02   0.16
  24   7    -0.20   0.12  -0.08     0.13  -0.07   0.07    -0.04  -0.02  -0.00
  25   1    -0.06   0.02  -0.03     0.04  -0.02   0.01    -0.02  -0.01   0.00
  26   1    -0.05   0.04  -0.03     0.04  -0.03   0.03    -0.01  -0.01  -0.03
  27   7     0.01   0.15  -0.07    -0.01  -0.11   0.03     0.04  -0.02  -0.01
  28   1     0.01   0.06  -0.04    -0.01  -0.04   0.04     0.01  -0.00  -0.02
  29   1     0.03   0.03  -0.01    -0.02  -0.02   0.01     0.02  -0.00   0.01
  30   6     0.02  -0.11  -0.18    -0.17  -0.02  -0.19    -0.02  -0.00  -0.02
  31   8     0.18  -0.09  -0.19    -0.07  -0.02  -0.16    -0.02   0.01  -0.05
  32   7    -0.07  -0.13  -0.16    -0.24   0.06  -0.19    -0.01  -0.03  -0.02
  33   1    -0.01  -0.02  -0.04    -0.04   0.06  -0.05     0.01   0.00  -0.03
  34   1    -0.05  -0.05  -0.03    -0.08   0.03  -0.08     0.01   0.00  -0.01
  35   7     0.00  -0.21  -0.25    -0.22  -0.12  -0.19    -0.04  -0.01   0.01
  36   1    -0.02  -0.07  -0.06    -0.07  -0.04  -0.05    -0.02  -0.01   0.01
  37   1    -0.01  -0.07  -0.06    -0.05  -0.04  -0.06    -0.01  -0.00   0.00
  38   6     0.00   0.06   0.21     0.17   0.06   0.16     0.02  -0.04   0.05
  39   8    -0.22   0.13   0.07     0.42   0.24   0.34     0.02  -0.10   0.06
  40   7    -0.02   0.16   0.48     0.16  -0.06  -0.07     0.04  -0.00   0.01
  41   1    -0.03   0.03   0.14     0.08  -0.01  -0.03     0.01  -0.00   0.00
  42   1     0.01  -0.00   0.14    -0.00  -0.06  -0.06     0.01   0.02   0.00
  43   7     0.25  -0.09   0.13    -0.17  -0.01   0.28    -0.01   0.02   0.07
  44   1     0.12  -0.02   0.08    -0.11  -0.03   0.02    -0.01   0.01   0.01
  45   1     0.08  -0.03  -0.03    -0.04   0.04   0.15    -0.01  -0.01   0.03
  46   6    -0.02  -0.00   0.00     0.00   0.00   0.01    -0.01  -0.03   0.00
  47   8    -0.04  -0.01   0.00     0.01   0.01   0.01     0.01  -0.06   0.01
  48   7    -0.00  -0.00   0.04     0.00  -0.00  -0.00    -0.02   0.00  -0.01
  49   1    -0.01  -0.01   0.02     0.00   0.00  -0.00    -0.00  -0.01  -0.01
  50   1     0.01  -0.00   0.01    -0.00   0.00  -0.00    -0.01  -0.00  -0.00
  51   7    -0.00   0.00  -0.01     0.00  -0.01   0.01    -0.02   0.01   0.02
  52   1     0.00   0.00  -0.00    -0.00  -0.00   0.00    -0.00  -0.00   0.01
  53   1    -0.00   0.00  -0.01    -0.00   0.00   0.00    -0.00  -0.03  -0.00
                     25                     26                     27
                        a                      a                      a 
 Frequencies --   192.3683               200.0946               255.9791
 Red. masses --    13.1856                12.8383                 2.1410
 Frc consts  --     0.0000                 0.0000                 0.0000
 IR Inten    --    11.2914                59.6591                 3.9600
 Raman Activ --     0.0000                 0.0000                 0.0000
 Depolar     --     0.0000                 0.0000                 0.0000
 Atom AN      X      Y      Z        X      Y      Z        X      Y      Z
   1   8     0.73   0.15   0.08    -0.07  -0.01   0.02     0.12  -0.08  -0.05
   2   6     0.11  -0.15   0.05    -0.03  -0.00   0.01    -0.08  -0.10  -0.00
   3   1     0.03  -0.15   0.07    -0.01  -0.00  -0.01    -0.03  -0.10  -0.01
   4   1    -0.07   0.01  -0.03    -0.01  -0.00   0.01    -0.09  -0.01   0.02
   5   6    -0.08   0.00  -0.06     0.00  -0.02   0.02     0.02   0.02  -0.00
   6   1    -0.01   0.04  -0.07    -0.00  -0.01   0.01     0.00   0.01   0.02
   7   1    -0.08   0.02   0.02     0.01  -0.01  -0.00     0.02   0.01   0.00
   8   7    -0.05  -0.00  -0.12    -0.00  -0.02   0.03     0.01   0.03  -0.00
   9   6    -0.03   0.01  -0.09     0.00  -0.03   0.01     0.00   0.11   0.11
  10   1    -0.02   0.03   0.01     0.00  -0.01  -0.00     0.02  -0.05  -0.09
  11   1     0.03  -0.01  -0.03    -0.00  -0.01   0.00    -0.15   0.06   0.10
  12   1    -0.04  -0.00  -0.05     0.00  -0.01   0.01     0.12   0.10   0.11
  13   6    -0.00   0.03  -0.10    -0.01  -0.00   0.02    -0.04  -0.09   0.01
  14   1    -0.02  -0.03  -0.02    -0.00  -0.01   0.00     0.14   0.36  -0.02
  15   1     0.04   0.02  -0.00     0.00   0.00   0.01    -0.38  -0.13  -0.21
  16   1    -0.01   0.04  -0.06    -0.01   0.01  -0.00     0.18  -0.34   0.24
  17   6    -0.04  -0.06  -0.18    -0.00  -0.01   0.03     0.03   0.07  -0.06
  18   1    -0.01   0.04  -0.05    -0.00  -0.01   0.01    -0.08  -0.22  -0.04
  19   1    -0.02  -0.05  -0.00     0.00   0.00   0.00     0.11   0.15  -0.25
  20   1    -0.01  -0.05  -0.10     0.00   0.00   0.02     0.01   0.15   0.21
  21   1     0.17   0.05  -0.06    -0.01   0.00   0.02     0.03  -0.01  -0.04
  22   6    -0.05   0.02   0.08     0.07  -0.09   0.04    -0.01  -0.00   0.02
  23   8    -0.07   0.08   0.23     0.09   0.02  -0.04    -0.01   0.01   0.05
  24   7    -0.06  -0.01  -0.01     0.16  -0.08   0.16    -0.02  -0.00  -0.00
  25   1    -0.02  -0.00   0.00     0.05  -0.05  -0.00    -0.01   0.00   0.00
  26   1    -0.02  -0.01  -0.03     0.04  -0.05   0.01    -0.00   0.00  -0.00
  27   7    -0.07  -0.04  -0.03    -0.05  -0.18   0.05    -0.02  -0.01   0.00
  28   1    -0.01  -0.03  -0.03    -0.02  -0.07   0.04     0.00  -0.02  -0.02
  29   1    -0.03   0.01   0.02    -0.05  -0.04  -0.00    -0.00  -0.00  -0.01
  30   6    -0.02   0.03  -0.02    -0.10   0.15  -0.15    -0.00   0.01  -0.00
  31   8    -0.02   0.06  -0.07    -0.21   0.32  -0.45     0.00   0.02  -0.02
  32   7     0.02  -0.01  -0.04     0.08  -0.26  -0.11     0.02   0.02  -0.03
  33   1    -0.02  -0.03   0.01     0.04  -0.09  -0.14    -0.03  -0.04   0.03
  34   1    -0.02  -0.04   0.04     0.09  -0.09   0.04    -0.05  -0.05   0.05
  35   7    -0.02   0.05   0.01    -0.13   0.33   0.19    -0.01   0.01   0.01
  36   1    -0.00   0.01   0.01    -0.02   0.04   0.13     0.01   0.02  -0.01
  37   1    -0.01   0.02   0.00    -0.07   0.13   0.06     0.01   0.01  -0.01
  38   6     0.01  -0.01   0.02     0.01  -0.02   0.05     0.01  -0.00  -0.00
  39   8     0.01  -0.02   0.02    -0.10  -0.07  -0.03     0.01   0.00  -0.00
  40   7     0.01  -0.01   0.01     0.01   0.03   0.16     0.00   0.00  -0.01
  41   1     0.01   0.01   0.00    -0.01   0.04   0.05    -0.00  -0.01  -0.00
  42   1     0.00   0.01   0.00     0.02   0.03   0.06    -0.01  -0.03  -0.01
  43   7     0.00  -0.01   0.02     0.18  -0.06  -0.01    -0.00  -0.00  -0.01
  44   1     0.00   0.01   0.01     0.09   0.01   0.03     0.01   0.05   0.01
  45   1     0.00   0.00   0.01     0.05  -0.02  -0.04     0.01   0.03   0.01
  46   6    -0.09  -0.02   0.06     0.01   0.01  -0.01    -0.00  -0.00  -0.00
  47   8    -0.02  -0.01   0.08    -0.00   0.01  -0.02     0.00  -0.00  -0.00
  48   7    -0.13   0.00  -0.02     0.02  -0.00  -0.00     0.00  -0.01  -0.02
  49   1    -0.03   0.03  -0.02     0.00  -0.00   0.00    -0.00   0.02  -0.00
  50   1    -0.06   0.02  -0.00     0.01   0.00   0.00    -0.01   0.04   0.01
  51   7    -0.13  -0.07   0.11     0.02   0.01  -0.02    -0.00  -0.00   0.00
  52   1    -0.04  -0.03   0.03     0.01   0.01  -0.01    -0.00  -0.02  -0.00
  53   1    -0.03  -0.03   0.05     0.00   0.01  -0.01     0.00  -0.01   0.01
                     28                     29                     30
                        a                      a                      a 
 Frequencies --   264.4473               278.0733               286.7832
 Red. masses --     2.7753                 7.1062                 2.7981
 Frc consts  --     0.0000                 0.0000                 0.0000
 IR Inten    --   113.6001                 5.5322               173.4135
 Raman Activ --     0.0000                 0.0000                 0.0000
 Depolar     --     0.0000                 0.0000                 0.0000
 Atom AN      X      Y      Z        X      Y      Z        X      Y      Z
   1   8    -0.05  -0.03  -0.03     0.01  -0.07  -0.04     0.02  -0.02  -0.05
   2   6    -0.05  -0.02  -0.02    -0.35  -0.26  -0.07    -0.04  -0.01  -0.02
   3   1    -0.02  -0.02  -0.02    -0.12  -0.26  -0.07    -0.01  -0.03  -0.01
   4   1    -0.04  -0.00   0.00    -0.29  -0.01   0.04    -0.04   0.00   0.00
   5   6     0.01   0.01  -0.01     0.07   0.04  -0.03    -0.00   0.03  -0.01
   6   1     0.00   0.01   0.00     0.02   0.02   0.02     0.00   0.02  -0.01
   7   1     0.01   0.01   0.00     0.03   0.02   0.01    -0.01   0.01  -0.00
   8   7     0.02   0.00   0.02     0.10   0.06  -0.03     0.02   0.00   0.02
   9   6     0.04   0.01   0.03     0.27   0.18   0.18     0.02  -0.01   0.01
  10   1     0.01   0.02   0.02     0.08   0.16   0.12     0.01  -0.03  -0.03
  11   1     0.03  -0.00   0.00     0.19  -0.02   0.07    -0.03   0.01   0.01
  12   1    -0.00  -0.01  -0.00     0.01   0.03   0.00     0.04   0.00   0.02
  13   6    -0.02  -0.03   0.01    -0.19  -0.21  -0.11     0.01  -0.03   0.02
  14   1    -0.03  -0.08   0.00    -0.09  -0.18  -0.07    -0.02  -0.06   0.01
  15   1     0.06   0.00   0.03     0.03  -0.07  -0.03     0.05  -0.00   0.02
  16   1    -0.05   0.05  -0.03    -0.17   0.01  -0.01    -0.02   0.02  -0.01
  17   6     0.02   0.02   0.05     0.13   0.25   0.10     0.01   0.03   0.06
  18   1     0.02   0.03   0.02     0.08   0.16   0.04    -0.00  -0.03   0.02
  19   1    -0.01  -0.00   0.04    -0.04   0.07   0.10     0.01   0.04  -0.02
  20   1     0.01  -0.01  -0.01     0.08   0.03  -0.03     0.00   0.03   0.06
  21   1    -0.02  -0.02  -0.01     0.04   0.07  -0.00    -0.01  -0.01  -0.04
  22   6     0.01  -0.03  -0.02    -0.01  -0.00  -0.00    -0.03   0.02   0.04
  23   8     0.01  -0.02  -0.01    -0.01  -0.01  -0.00    -0.02   0.00  -0.01
  24   7     0.02  -0.01   0.02    -0.03   0.00  -0.01    -0.01   0.01   0.02
  25   1     0.01  -0.01  -0.02    -0.01   0.00   0.01    -0.00  -0.04  -0.06
  26   1     0.00  -0.01  -0.02    -0.01   0.01   0.02    -0.01  -0.10  -0.18
  27   7    -0.02   0.01   0.09    -0.01   0.01   0.02     0.07  -0.16  -0.29
  28   1     0.02  -0.07  -0.13     0.00  -0.02  -0.03    -0.13   0.33   0.67
  29   1     0.00  -0.05  -0.07     0.00  -0.01  -0.02    -0.05   0.22   0.37
  30   6    -0.01   0.01   0.01     0.00  -0.01  -0.00     0.00   0.01   0.01
  31   8     0.05   0.05  -0.02    -0.01  -0.01   0.00     0.01   0.01   0.01
  32   7     0.14   0.18  -0.22    -0.02  -0.03   0.03     0.01   0.03  -0.02
  33   1    -0.26  -0.29   0.31     0.04   0.05  -0.05    -0.04  -0.04   0.05
  34   1    -0.40  -0.36   0.43     0.06   0.06  -0.07    -0.06  -0.05   0.07
  35   7    -0.04  -0.01   0.01     0.01   0.00  -0.01    -0.01  -0.01   0.01
  36   1     0.14   0.16  -0.16    -0.03  -0.03   0.03     0.03   0.04  -0.04
  37   1     0.05   0.07  -0.06    -0.01  -0.01   0.01     0.01   0.01  -0.01
  38   6    -0.00  -0.01   0.01     0.00   0.00   0.00    -0.01  -0.01  -0.00
  39   8     0.00  -0.01   0.01     0.00  -0.00  -0.00    -0.01  -0.00   0.00
  40   7    -0.00  -0.02   0.00     0.00   0.01  -0.00     0.00  -0.00  -0.00
  41   1     0.01   0.02   0.00     0.00  -0.00  -0.00     0.00   0.01  -0.00
  42   1     0.00   0.02   0.00     0.00  -0.00  -0.00     0.01   0.03   0.00
  43   7    -0.02   0.02   0.02     0.00  -0.00   0.00     0.01   0.03   0.01
  44   1    -0.02  -0.01  -0.00     0.00   0.00   0.00    -0.02  -0.08  -0.01
  45   1    -0.01  -0.01   0.01     0.00   0.00   0.00    -0.02  -0.04  -0.01
  46   6     0.00   0.00  -0.00     0.01   0.00   0.00    -0.00   0.00  -0.00
  47   8     0.00   0.00  -0.01     0.00   0.00  -0.00    -0.00  -0.00  -0.00
  48   7     0.01  -0.00  -0.00     0.01  -0.04  -0.03     0.00  -0.01  -0.01
  49   1     0.00   0.01   0.00    -0.00   0.06   0.00    -0.00   0.01   0.00
  50   1     0.00   0.01   0.00    -0.01   0.10   0.03    -0.00   0.02   0.01
  51   7     0.01   0.01  -0.01     0.01   0.03  -0.00     0.00   0.00  -0.01
  52   1     0.00  -0.01  -0.00     0.00  -0.05  -0.00     0.00  -0.01  -0.00
  53   1     0.00  -0.00  -0.00     0.01  -0.03   0.00     0.00  -0.00  -0.00
                     31                     32                     33
                        a                      a                      a 
 Frequencies --   289.6881               299.4025               309.0654
 Red. masses --     3.0865                 3.2122                 3.3008
 Frc consts  --     0.0000                 0.0000                 0.0000
 IR Inten    --   104.5753               134.0177                60.2312
 Raman Activ --     0.0000                 0.0000                 0.0000
 Depolar     --     0.0000                 0.0000                 0.0000
 Atom AN      X      Y      Z        X      Y      Z        X      Y      Z
   1   8    -0.00  -0.02   0.08    -0.11   0.02   0.21    -0.09   0.01   0.20
   2   6    -0.04  -0.06   0.03     0.08   0.00   0.08     0.06  -0.03   0.07
   3   1    -0.01  -0.03   0.01     0.03   0.05   0.02     0.02   0.03   0.02
   4   1    -0.03  -0.01   0.01     0.07  -0.02   0.01     0.05  -0.02   0.00
   5   6    -0.00  -0.01   0.02     0.03  -0.05   0.04     0.02  -0.05   0.03
   6   1    -0.00  -0.00   0.01     0.01  -0.03   0.01     0.00  -0.03   0.01
   7   1    -0.00   0.00   0.02     0.02  -0.00   0.02     0.02  -0.00   0.02
   8   7     0.01   0.01  -0.02     0.02   0.00  -0.05     0.01   0.00  -0.06
   9   6     0.05   0.04   0.03     0.00   0.04   0.00     0.01   0.06   0.02
  10   1     0.02   0.02  -0.00    -0.01   0.06   0.06    -0.00   0.06   0.05
  11   1     0.01   0.00   0.03     0.07  -0.02  -0.00     0.05  -0.01   0.02
  12   1     0.03   0.02   0.01    -0.06   0.01  -0.05    -0.04   0.03  -0.03
  13   6    -0.07  -0.04  -0.05    -0.07   0.03  -0.11    -0.09   0.01  -0.12
  14   1     0.00   0.03  -0.03     0.05   0.17  -0.07     0.06   0.18  -0.08
  15   1    -0.07  -0.03  -0.05    -0.20  -0.03  -0.11    -0.21  -0.03  -0.12
  16   1    -0.01  -0.05   0.03     0.05  -0.11   0.07     0.05  -0.14   0.08
  17   6     0.02   0.03  -0.05     0.04  -0.03  -0.12     0.02  -0.03  -0.14
  18   1     0.03   0.11  -0.02     0.08   0.25  -0.03     0.06   0.20  -0.04
  19   1    -0.03  -0.03   0.06    -0.07  -0.15   0.20    -0.06  -0.12   0.14
  20   1     0.02  -0.04  -0.10     0.03  -0.15  -0.28     0.02  -0.12  -0.23
  21   1     0.00  -0.00   0.02    -0.03  -0.02   0.08    -0.02  -0.01   0.08
  22   6     0.00  -0.00  -0.00    -0.00  -0.00  -0.01     0.01  -0.01  -0.01
  23   8     0.00  -0.00  -0.01     0.00  -0.01  -0.04     0.01  -0.01  -0.03
  24   7     0.00  -0.00   0.00     0.01   0.00   0.01     0.01   0.00   0.01
  25   1     0.00  -0.00  -0.00     0.00  -0.01  -0.01     0.00  -0.00  -0.00
  26   1    -0.00  -0.00  -0.01    -0.00  -0.02  -0.03     0.00  -0.00  -0.00
  27   7     0.01  -0.01  -0.02     0.02  -0.02  -0.04     0.00  -0.00   0.00
  28   1    -0.01   0.02   0.05    -0.02   0.07   0.13    -0.00   0.01   0.03
  29   1    -0.00   0.01   0.02    -0.01   0.03   0.06    -0.00   0.00   0.00
  30   6     0.00   0.00  -0.00     0.00   0.01   0.00    -0.00   0.00  -0.01
  31   8     0.00   0.00  -0.00     0.01   0.01  -0.00    -0.00   0.00  -0.00
  32   7     0.00   0.01  -0.00     0.00   0.03  -0.01     0.01  -0.01  -0.00
  33   1    -0.01  -0.01   0.01    -0.02  -0.02   0.03    -0.00  -0.01  -0.00
  34   1    -0.01  -0.01   0.01    -0.04  -0.03   0.04     0.00  -0.01   0.01
  35   7    -0.00   0.00   0.00    -0.00   0.01   0.00    -0.01  -0.01   0.01
  36   1     0.00   0.01  -0.00     0.01   0.01  -0.01     0.02   0.03  -0.02
  37   1     0.00   0.00  -0.00     0.00   0.00   0.00     0.00   0.01  -0.01
  38   6     0.00   0.01   0.00     0.02   0.02   0.00    -0.02  -0.02   0.00
  39   8     0.01   0.01   0.00     0.02  -0.01   0.00    -0.02   0.03  -0.00
  40   7    -0.00   0.00   0.00    -0.02   0.02   0.01     0.02  -0.02  -0.02
  41   1    -0.00  -0.01  -0.00    -0.01  -0.06   0.00     0.00   0.06  -0.00
  42   1    -0.01  -0.03  -0.00    -0.04  -0.18  -0.02     0.05   0.22   0.03
  43   7    -0.02  -0.03  -0.01    -0.07  -0.17  -0.06     0.08   0.21   0.08
  44   1     0.02   0.09   0.02     0.12   0.47   0.08    -0.15  -0.58  -0.10
  45   1     0.02   0.05   0.01     0.09   0.24   0.06    -0.11  -0.27  -0.08
  46   6     0.01  -0.03  -0.04    -0.00   0.01  -0.00     0.00   0.00  -0.01
  47   8     0.02  -0.00  -0.03    -0.02  -0.01  -0.01    -0.01  -0.01  -0.01
  48   7    -0.03   0.33   0.12     0.03  -0.10  -0.00     0.02  -0.03   0.01
  49   1     0.06  -0.37  -0.08    -0.02   0.09   0.04    -0.01   0.02   0.02
  50   1     0.06  -0.71  -0.22     0.00   0.20   0.07     0.01   0.05   0.02
  51   7     0.00  -0.05  -0.01     0.00   0.03  -0.01     0.00   0.01  -0.00
  52   1    -0.03   0.22   0.00     0.01  -0.05  -0.00    -0.00  -0.01  -0.00
  53   1    -0.01   0.08   0.01     0.00  -0.02  -0.00     0.00  -0.00   0.00
                     34                     35                     36
                        a                      a                      a 
 Frequencies --   330.9550               343.5915               381.8084
 Red. masses --     7.1232                 1.8486                 7.9909
 Frc consts  --     0.0000                 0.0000                 0.0000
 IR Inten    --     2.9278                 3.1070                 7.6119
 Raman Activ --     0.0000                 0.0000                 0.0000
 Depolar     --     0.0000                 0.0000                 0.0000
 Atom AN      X      Y      Z        X      Y      Z        X      Y      Z
   1   8     0.12   0.03  -0.33    -0.01   0.02   0.13     0.03  -0.03  -0.14
   2   6    -0.17   0.05  -0.11    -0.05  -0.03   0.06    -0.05  -0.13  -0.20
   3   1    -0.05  -0.07  -0.02    -0.02  -0.02   0.01    -0.03  -0.13  -0.12
   4   1    -0.13   0.04  -0.01    -0.03  -0.00   0.02    -0.12  -0.00  -0.02
   5   6    -0.01   0.05  -0.01    -0.02   0.04   0.03     0.28  -0.18  -0.02
   6   1     0.01   0.05   0.03    -0.00   0.03   0.00     0.05  -0.16   0.07
   7   1    -0.01  -0.01  -0.05    -0.02   0.02   0.02     0.20  -0.06  -0.04
   8   7     0.07  -0.06   0.12     0.05   0.04  -0.06     0.05  -0.01   0.07
   9   6    -0.17  -0.25  -0.17     0.04   0.11  -0.01    -0.24   0.20   0.32
  10   1    -0.07  -0.18  -0.08     0.08  -0.26  -0.40    -0.10   0.01   0.14
  11   1    -0.12   0.01  -0.12    -0.48   0.17   0.15    -0.11   0.05   0.14
  12   1    -0.02  -0.09  -0.03     0.41   0.20   0.26    -0.08   0.17   0.05
  13   6     0.15   0.03   0.15    -0.01  -0.05  -0.07     0.04   0.39  -0.05
  14   1     0.10   0.17   0.06    -0.05  -0.14  -0.02     0.03   0.12  -0.07
  15   1    -0.09  -0.02  -0.02     0.11  -0.00   0.02    -0.03   0.19   0.09
  16   1     0.15  -0.11   0.10    -0.09   0.07  -0.06     0.03   0.16  -0.10
  17   6     0.10   0.14   0.33     0.02  -0.07  -0.05    -0.02  -0.24   0.03
  18   1     0.15   0.27   0.14     0.05   0.09  -0.01    -0.02  -0.06  -0.01
  19   1    -0.13  -0.04   0.32    -0.03  -0.10   0.11     0.04  -0.13   0.04
  20   1     0.05  -0.08  -0.11    -0.01  -0.09  -0.14    -0.06  -0.09  -0.04
  21   1     0.02   0.02  -0.14    -0.04  -0.06  -0.01     0.03   0.02  -0.01
  22   6    -0.00   0.01   0.02     0.00   0.00   0.01     0.00   0.01  -0.01
  23   8    -0.01   0.01   0.05     0.00   0.01   0.01     0.00  -0.00   0.00
  24   7    -0.01  -0.00  -0.01     0.01  -0.01  -0.00    -0.02   0.02  -0.01
  25   1    -0.00   0.00   0.01     0.00   0.00   0.01    -0.01   0.00  -0.00
  26   1    -0.00   0.01   0.01     0.00   0.00   0.02    -0.00   0.01  -0.00
  27   7    -0.01  -0.00   0.00     0.00   0.01   0.01    -0.03  -0.01  -0.01
  28   1     0.01  -0.02  -0.04     0.01  -0.02  -0.05    -0.01  -0.00   0.03
  29   1     0.00  -0.00  -0.00     0.01  -0.01  -0.01    -0.03   0.01  -0.00
  30   6    -0.00  -0.00   0.00    -0.00  -0.00   0.00    -0.01  -0.02   0.01
  31   8    -0.00   0.00  -0.00    -0.00  -0.00   0.00     0.00  -0.01   0.01
  32   7    -0.00  -0.00   0.00    -0.00  -0.00   0.00     0.01   0.02  -0.01
  33   1     0.01   0.01  -0.01     0.00   0.00  -0.00    -0.00   0.00   0.01
  34   1     0.01   0.01  -0.01     0.01   0.01  -0.01    -0.01  -0.01   0.01
  35   7     0.00   0.01  -0.00     0.00  -0.00  -0.00     0.02   0.01  -0.01
  36   1    -0.01  -0.01   0.01    -0.01  -0.01   0.01    -0.04  -0.05   0.05
  37   1    -0.00  -0.00   0.00    -0.00  -0.00   0.00    -0.01  -0.00   0.01
  38   6     0.00   0.00   0.00     0.00   0.00   0.00    -0.00   0.01  -0.00
  39   8     0.00   0.01   0.00     0.00   0.00   0.00    -0.00   0.00   0.00
  40   7     0.00  -0.00   0.00     0.00  -0.00  -0.00    -0.01  -0.01   0.01
  41   1     0.00   0.00   0.00     0.00   0.00   0.00    -0.00   0.00   0.00
  42   1     0.00   0.01   0.00     0.00   0.01   0.00    -0.00   0.00   0.00
  43   7     0.00   0.01   0.01    -0.00  -0.00   0.00    -0.00  -0.01  -0.00
  44   1    -0.01  -0.03  -0.01     0.00   0.00   0.00     0.00  -0.00   0.00
  45   1    -0.00  -0.01  -0.00    -0.00   0.00   0.00     0.00   0.00  -0.00
  46   6    -0.01  -0.01   0.01    -0.00  -0.01  -0.03     0.01  -0.01   0.01
  47   8     0.01  -0.01   0.01    -0.02  -0.03  -0.03     0.00  -0.01   0.01
  48   7    -0.03   0.01  -0.02     0.02  -0.02   0.01    -0.01   0.02  -0.02
  49   1     0.00  -0.00  -0.02    -0.01   0.01   0.03     0.01  -0.01  -0.03
  50   1    -0.02  -0.01  -0.01     0.02   0.07   0.03    -0.02  -0.03  -0.02
  51   7    -0.00  -0.00   0.00    -0.00  -0.00  -0.01     0.02   0.01  -0.01
  52   1     0.01  -0.01   0.00    -0.01  -0.00  -0.00     0.01  -0.03  -0.00
  53   1    -0.00  -0.01  -0.01     0.00   0.02   0.02     0.00   0.00  -0.01
                     37                     38                     39
                        a                      a                      a 
 Frequencies --   399.0897               409.7924               422.9681
 Red. masses --     3.3060                 3.1869                 3.0914
 Frc consts  --     0.0000                 0.0000                 0.0000
 IR Inten    --   268.0454               180.5353               190.7652
 Raman Activ --     0.0000                 0.0000                 0.0000
 Depolar     --     0.0000                 0.0000                 0.0000
 Atom AN      X      Y      Z        X      Y      Z        X      Y      Z
   1   8    -0.02   0.01   0.03     0.02  -0.02  -0.02     0.01  -0.00   0.00
   2   6     0.01   0.01   0.02    -0.01  -0.02  -0.01    -0.00  -0.01  -0.00
   3   1     0.00   0.02   0.01    -0.00  -0.02  -0.01    -0.00  -0.01  -0.00
   4   1     0.02  -0.00   0.01    -0.01  -0.00   0.00    -0.01   0.00  -0.00
   5   6    -0.02   0.01  -0.00     0.00  -0.00  -0.00     0.01   0.01  -0.01
   6   1    -0.00   0.01  -0.01     0.00  -0.00  -0.00     0.00   0.02  -0.00
   7   1    -0.02  -0.00  -0.01     0.00  -0.00  -0.00    -0.01   0.01   0.00
   8   7    -0.00   0.01  -0.01    -0.02  -0.00   0.03     0.03  -0.00  -0.01
   9   6     0.02  -0.01  -0.02     0.01  -0.01   0.03    -0.03   0.01  -0.01
  10   1     0.01   0.00  -0.01     0.01   0.00   0.01    -0.02  -0.01   0.01
  11   1     0.01  -0.00  -0.01     0.01  -0.01   0.01    -0.02   0.01  -0.00
  12   1     0.00  -0.01  -0.01     0.00  -0.02   0.01    -0.01   0.01  -0.00
  13   6    -0.00  -0.03   0.00    -0.02   0.03   0.02     0.01  -0.00  -0.02
  14   1     0.00  -0.00   0.00    -0.00   0.01   0.00     0.00   0.00  -0.01
  15   1    -0.00  -0.02  -0.01    -0.01   0.01   0.01    -0.00  -0.00  -0.01
  16   1     0.00  -0.02   0.01    -0.00   0.01   0.00     0.00  -0.00  -0.00
  17   6    -0.00   0.02  -0.00     0.00   0.02  -0.02     0.02  -0.02   0.03
  18   1    -0.00   0.00   0.00    -0.01   0.02  -0.01     0.01  -0.01   0.01
  19   1    -0.00   0.01  -0.01     0.00   0.00  -0.01     0.00  -0.01   0.01
  20   1     0.00   0.01   0.00     0.01   0.00  -0.01    -0.01  -0.00   0.01
  21   1    -0.01  -0.02   0.00    -0.01  -0.03  -0.02     0.02   0.04   0.03
  22   6    -0.01  -0.02  -0.03    -0.00  -0.01  -0.01    -0.04  -0.05  -0.11
  23   8    -0.02  -0.02  -0.01    -0.00  -0.01  -0.00    -0.03  -0.07  -0.05
  24   7     0.02   0.02   0.06     0.00   0.01   0.02     0.07   0.12   0.25
  25   1     0.01  -0.02  -0.03    -0.00  -0.01  -0.01    -0.03  -0.05  -0.01
  26   1    -0.01  -0.07  -0.14    -0.00  -0.03  -0.07    -0.04  -0.35  -0.78
  27   7     0.01   0.03   0.02     0.00   0.01   0.01    -0.03   0.11   0.14
  28   1     0.00   0.02  -0.01     0.00   0.00  -0.01     0.02  -0.01  -0.10
  29   1     0.01  -0.00   0.00     0.01  -0.00   0.00     0.02  -0.05  -0.08
  30   6    -0.09  -0.10   0.09    -0.01  -0.02   0.02     0.03   0.04  -0.01
  31   8    -0.02  -0.05   0.04    -0.00  -0.01   0.01     0.02   0.03   0.00
  32   7     0.11   0.14  -0.14     0.02   0.03  -0.02    -0.04  -0.01   0.05
  33   1    -0.06  -0.07   0.08    -0.02  -0.02   0.02    -0.04  -0.06   0.03
  34   1    -0.09  -0.07   0.09    -0.01  -0.01   0.01     0.12   0.11  -0.11
  35   7     0.14   0.16  -0.14     0.02   0.03  -0.03    -0.05  -0.07   0.02
  36   1    -0.45  -0.50   0.47    -0.09  -0.10   0.09     0.07   0.09  -0.10
  37   1    -0.05  -0.06   0.06    -0.01  -0.01   0.01     0.01  -0.00  -0.02
  38   6     0.01   0.06   0.00     0.00   0.01  -0.00     0.01   0.01  -0.01
  39   8     0.00   0.04  -0.00     0.00   0.01  -0.00     0.01   0.01  -0.02
  40   7    -0.01  -0.08  -0.04    -0.00  -0.01  -0.01     0.01  -0.04   0.02
  41   1     0.00   0.04  -0.01     0.00   0.01  -0.00    -0.01   0.01   0.01
  42   1     0.04   0.19   0.02     0.01   0.03   0.00     0.03   0.07   0.02
  43   7     0.00  -0.05  -0.01    -0.00  -0.01  -0.00    -0.03  -0.01   0.00
  44   1     0.01  -0.00   0.01     0.00   0.00   0.00    -0.01   0.04  -0.00
  45   1     0.02   0.02  -0.01     0.00   0.01  -0.00    -0.01   0.00   0.02
  46   6    -0.00  -0.02  -0.00     0.00   0.11  -0.02     0.00  -0.00   0.00
  47   8     0.01  -0.02  -0.00    -0.04   0.09  -0.03    -0.00  -0.00   0.00
  48   7    -0.00   0.03   0.02     0.06  -0.17  -0.05    -0.00   0.01  -0.00
  49   1     0.00  -0.02   0.00    -0.02   0.08   0.04     0.00  -0.00  -0.01
  50   1     0.00  -0.03  -0.00     0.03   0.15   0.05    -0.00  -0.01  -0.01
  51   7    -0.01   0.07  -0.01    -0.00  -0.31   0.06     0.00   0.01  -0.00
  52   1    -0.00  -0.17  -0.01    -0.02   0.87   0.04     0.00  -0.04  -0.00
  53   1     0.01  -0.02   0.01    -0.04   0.05  -0.02     0.00  -0.00   0.00
                     40                     41                     42
                        a                      a                      a 
 Frequencies --   438.7588               454.4875               457.8105
 Red. masses --     8.8025                 3.0802                 7.8771
 Frc consts  --     0.0000                 0.0000                 0.0000
 IR Inten    --     7.3469               346.0975                 5.1959
 Raman Activ --     0.0000                 0.0000                 0.0000
 Depolar     --     0.0000                 0.0000                 0.0000
 Atom AN      X      Y      Z        X      Y      Z        X      Y      Z
   1   8    -0.05   0.02   0.25     0.01  -0.00  -0.03    -0.00   0.00   0.00
   2   6     0.03  -0.15  -0.02    -0.00   0.00  -0.02    -0.04   0.11   0.13
   3   1     0.01  -0.07  -0.04     0.00   0.01   0.00    -0.02   0.01   0.02
   4   1    -0.03  -0.03   0.01     0.01  -0.00  -0.01    -0.03   0.03   0.08
   5   6     0.11   0.08  -0.10    -0.02  -0.05   0.00     0.04   0.27   0.08
   6   1     0.03   0.03  -0.05    -0.01  -0.03   0.01     0.05   0.19  -0.02
   7   1     0.01   0.05   0.02     0.01  -0.02  -0.00    -0.11   0.07   0.03
   8   7     0.07   0.20  -0.25    -0.05  -0.02   0.01     0.32  -0.01   0.11
   9   6    -0.16   0.28  -0.20     0.04  -0.01   0.03    -0.24  -0.08  -0.02
  10   1    -0.08   0.06   0.03     0.02   0.01  -0.01    -0.14  -0.13   0.09
  11   1    -0.01   0.07  -0.07     0.01  -0.01   0.02    -0.08   0.04  -0.09
  12   1    -0.11   0.09  -0.11     0.02  -0.01   0.02    -0.15   0.00  -0.07
  13   6     0.23  -0.20  -0.07     0.01   0.03   0.03    -0.23  -0.06  -0.21
  14   1     0.04  -0.04   0.09     0.01   0.02   0.02    -0.05  -0.08  -0.22
  15   1     0.12  -0.12  -0.11     0.00   0.01   0.01    -0.11  -0.01  -0.05
  16   1     0.09  -0.11   0.03     0.02   0.00  -0.00    -0.20   0.04  -0.00
  17   6    -0.21  -0.14   0.33    -0.02   0.05  -0.02     0.31  -0.21   0.00
  18   1     0.04  -0.14   0.18    -0.01   0.03  -0.01     0.03  -0.13  -0.03
  19   1    -0.07  -0.08   0.14    -0.01   0.02  -0.01     0.16  -0.06  -0.06
  20   1    -0.24  -0.01   0.12     0.02   0.01  -0.01     0.05  -0.03   0.04
  21   1    -0.01  -0.02   0.09     0.00  -0.00  -0.01    -0.03  -0.03  -0.05
  22   6    -0.01  -0.00  -0.00     0.00   0.01   0.01    -0.06  -0.02   0.00
  23   8    -0.01   0.01  -0.01     0.00   0.01   0.00    -0.07   0.03  -0.02
  24   7     0.01  -0.03  -0.01    -0.01  -0.01  -0.02     0.04  -0.08   0.02
  25   1     0.02   0.00   0.00     0.00  -0.00  -0.01     0.05  -0.00  -0.01
  26   1     0.01   0.01   0.06     0.00   0.04   0.08     0.02  -0.03   0.10
  27   7     0.02   0.01  -0.01     0.00  -0.01  -0.02     0.06   0.05  -0.03
  28   1     0.00   0.02   0.01    -0.00   0.00   0.01     0.02   0.06  -0.05
  29   1     0.02  -0.01  -0.00    -0.00   0.01   0.01     0.07   0.01   0.05
  30   6    -0.00  -0.01  -0.00     0.02  -0.02  -0.02    -0.01   0.00  -0.00
  31   8    -0.00  -0.01  -0.00    -0.00  -0.02  -0.03     0.00   0.00   0.01
  32   7    -0.00  -0.00  -0.00    -0.05  -0.01   0.02     0.01  -0.01  -0.01
  33   1     0.00   0.00  -0.00     0.05   0.09  -0.04    -0.01  -0.02   0.00
  34   1    -0.00  -0.00  -0.00    -0.05  -0.01  -0.01     0.02   0.00  -0.00
  35   7    -0.00   0.00   0.01     0.00  -0.03   0.03    -0.01   0.00  -0.00
  36   1     0.01   0.00   0.00     0.13   0.12  -0.11    -0.00   0.00  -0.00
  37   1    -0.00   0.01  -0.00    -0.03  -0.01   0.03     0.00   0.00  -0.00
  38   6    -0.01  -0.00   0.01     0.03   0.11   0.04     0.02   0.00  -0.01
  39   8    -0.01  -0.00   0.01    -0.02   0.08  -0.00     0.00   0.01  -0.03
  40   7    -0.00  -0.02  -0.02    -0.02  -0.27  -0.07     0.01  -0.04   0.01
  41   1     0.00  -0.00  -0.01    -0.06  -0.02   0.01    -0.01  -0.01   0.01
  42   1     0.01   0.07   0.00     0.20   0.80   0.14     0.04   0.09   0.03
  43   7     0.01  -0.02   0.00    -0.05  -0.19  -0.00    -0.03  -0.01   0.01
  44   1     0.02   0.03   0.01     0.06   0.18   0.05    -0.02   0.02  -0.01
  45   1     0.00  -0.01  -0.00     0.05   0.11   0.02    -0.00   0.01   0.02
  46   6     0.01   0.00   0.04     0.00  -0.00  -0.00     0.00  -0.01   0.07
  47   8    -0.03   0.00   0.03     0.00   0.00  -0.00    -0.04  -0.02   0.07
  48   7    -0.02  -0.00  -0.05    -0.00  -0.00  -0.00    -0.06  -0.00  -0.06
  49   1     0.02   0.03  -0.04    -0.00  -0.01   0.00     0.02   0.10  -0.07
  50   1    -0.04  -0.02  -0.02     0.00   0.01   0.00    -0.09  -0.05  -0.04
  51   7     0.06  -0.01  -0.03    -0.00  -0.00   0.00     0.09   0.01  -0.03
  52   1     0.04   0.08  -0.00    -0.00  -0.00   0.00     0.07   0.04  -0.00
  53   1     0.00   0.00  -0.04    -0.00   0.00   0.00     0.01  -0.01  -0.06
                     43                     44                     45
                        a                      a                      a 
 Frequencies --   462.0654               466.5768               469.4183
 Red. masses --     7.6264                 7.2170                 2.7734
 Frc consts  --     0.0000                 0.0000                 0.0000
 IR Inten    --    13.8852                21.5854                 2.3878
 Raman Activ --     0.0000                 0.0000                 0.0000
 Depolar     --     0.0000                 0.0000                 0.0000
 Atom AN      X      Y      Z        X      Y      Z        X      Y      Z
   1   8    -0.01   0.00   0.02     0.01   0.00   0.00     0.00  -0.00  -0.01
   2   6     0.00  -0.02  -0.01    -0.01  -0.01   0.00    -0.01   0.01   0.00
   3   1     0.00  -0.00  -0.00    -0.00  -0.03  -0.01    -0.00  -0.00  -0.00
   4   1     0.00  -0.00  -0.01    -0.03   0.01   0.01    -0.01   0.00   0.00
   5   6    -0.01  -0.02  -0.02     0.04   0.08  -0.01     0.02   0.00   0.02
   6   1    -0.00  -0.00  -0.01     0.02   0.06  -0.02     0.00  -0.01   0.01
   7   1    -0.01  -0.00  -0.00    -0.03   0.02   0.00     0.02   0.00   0.00
   8   7    -0.02  -0.01  -0.01     0.09   0.02   0.01    -0.00   0.02   0.01
   9   6     0.00   0.01   0.01    -0.11   0.01  -0.02     0.01  -0.00  -0.01
  10   1     0.00   0.01   0.00    -0.06  -0.02   0.06     0.00   0.00  -0.00
  11   1     0.00  -0.00   0.01    -0.01   0.01  -0.04     0.01   0.00  -0.01
  12   1     0.00   0.01   0.00    -0.08   0.01  -0.04    -0.00  -0.01  -0.01
  13   6     0.02   0.01   0.00    -0.03  -0.02  -0.05    -0.01  -0.01   0.02
  14   1     0.01   0.01   0.01    -0.00  -0.02  -0.04    -0.01  -0.00   0.00
  15   1     0.01   0.00   0.00    -0.02  -0.01  -0.02    -0.00  -0.01  -0.00
  16   1     0.02  -0.00  -0.00    -0.03   0.00   0.00    -0.01  -0.00   0.01
  17   6    -0.02   0.02   0.02     0.05  -0.08   0.08    -0.01  -0.01  -0.01
  18   1     0.00   0.00   0.01     0.01  -0.06   0.02    -0.01  -0.00  -0.01
  19   1    -0.01   0.01   0.01     0.04  -0.02   0.00     0.01  -0.01  -0.00
  20   1    -0.00   0.01   0.01    -0.02  -0.01   0.05    -0.01  -0.01  -0.01
  21   1    -0.00  -0.01   0.01     0.00   0.01  -0.00    -0.01  -0.01  -0.02
  22   6     0.03   0.00   0.01    -0.03  -0.01   0.00     0.03   0.00   0.00
  23   8     0.03   0.00   0.01    -0.04   0.01  -0.01     0.03  -0.01   0.01
  24   7    -0.03   0.01  -0.04     0.02  -0.04   0.02    -0.03   0.03  -0.03
  25   1    -0.01  -0.00  -0.01     0.02  -0.00   0.00    -0.00  -0.01  -0.05
  26   1     0.00   0.07   0.09     0.01  -0.02   0.03     0.00   0.08   0.12
  27   7    -0.01  -0.04  -0.01     0.03   0.03  -0.01    -0.02  -0.05  -0.02
  28   1    -0.01  -0.02   0.02     0.01   0.03  -0.03    -0.00  -0.04  -0.02
  29   1    -0.03   0.01   0.01     0.04   0.00   0.02    -0.03   0.05   0.09
  30   6    -0.07   0.16   0.06     0.00  -0.01  -0.01     0.04   0.01  -0.06
  31   8     0.04   0.16   0.14    -0.00  -0.01  -0.01     0.08   0.02  -0.06
  32   7     0.18  -0.13   0.01    -0.02   0.00  -0.00    -0.06   0.08  -0.04
  33   1    -0.09  -0.31  -0.00     0.02   0.03  -0.01    -0.38  -0.44   0.38
  34   1     0.29   0.03   0.02    -0.02  -0.00  -0.00     0.32   0.28  -0.29
  35   7    -0.15  -0.09  -0.19     0.01   0.01   0.02    -0.06  -0.06   0.11
  36   1    -0.14  -0.04  -0.09     0.02   0.01  -0.00     0.00  -0.03   0.05
  37   1     0.04  -0.09  -0.09    -0.00   0.01   0.01     0.02   0.06  -0.02
  38   6     0.17  -0.02  -0.14    -0.00  -0.00   0.01    -0.09   0.02   0.08
  39   8     0.05   0.02  -0.27    -0.00  -0.00   0.01    -0.03  -0.00   0.14
  40   7     0.10  -0.10   0.28     0.00  -0.00  -0.01    -0.05   0.02  -0.15
  41   1    -0.08   0.04   0.13     0.00  -0.00  -0.00     0.04  -0.02  -0.06
  42   1     0.14   0.02   0.17    -0.00   0.02  -0.00    -0.05   0.09  -0.07
  43   7    -0.26   0.09   0.02     0.01  -0.00   0.00     0.12  -0.07  -0.00
  44   1    -0.21   0.16  -0.11     0.01   0.00   0.00     0.11  -0.05   0.07
  45   1    -0.16  -0.10   0.21     0.00  -0.00  -0.00     0.09   0.07  -0.10
  46   6    -0.00   0.00  -0.02    -0.02   0.07  -0.26    -0.00   0.00  -0.01
  47   8     0.01   0.01  -0.02     0.18   0.08  -0.26     0.01   0.00  -0.01
  48   7     0.02   0.00   0.02     0.21  -0.00   0.23     0.00   0.00   0.01
  49   1    -0.01  -0.03   0.02    -0.08  -0.37   0.24    -0.00  -0.02   0.01
  50   1     0.03   0.01   0.01     0.33   0.16   0.15     0.01   0.01   0.01
  51   7    -0.03  -0.00   0.01    -0.35  -0.07   0.12    -0.01  -0.00   0.00
  52   1    -0.02  -0.01   0.00    -0.26  -0.07   0.01    -0.01  -0.01  -0.00
  53   1    -0.00   0.00   0.02    -0.04   0.00   0.20    -0.00   0.00   0.01
                     46                     47                     48
                        a                      a                      a 
 Frequencies --   473.1455               480.3272               483.6364
 Red. masses --     7.1417                 3.5167                 4.9738
 Frc consts  --     0.0000                 0.0000                 0.0000
 IR Inten    --    20.0670                12.1575                 7.4804
 Raman Activ --     0.0000                 0.0000                 0.0000
 Depolar     --     0.0000                 0.0000                 0.0000
 Atom AN      X      Y      Z        X      Y      Z        X      Y      Z
   1   8    -0.00   0.01   0.05     0.00   0.01  -0.01    -0.02   0.02   0.07
   2   6     0.03  -0.08  -0.07     0.00   0.00  -0.01     0.02  -0.06  -0.03
   3   1     0.01   0.01   0.00     0.00  -0.00  -0.00     0.01   0.03   0.03
   4   1     0.04  -0.03  -0.05    -0.00   0.00  -0.00     0.05  -0.03  -0.05
   5   6    -0.10  -0.09  -0.09     0.01  -0.00  -0.00    -0.18  -0.03  -0.11
   6   1    -0.02   0.01  -0.06     0.00  -0.01   0.00    -0.02   0.10  -0.09
   7   1    -0.07  -0.02  -0.01     0.01  -0.00  -0.00    -0.16   0.00  -0.00
   8   7    -0.06  -0.11  -0.05    -0.00   0.01   0.00     0.03  -0.17  -0.08
   9   6     0.04  -0.01   0.12    -0.01   0.01  -0.01    -0.04  -0.02   0.15
  10   1     0.02   0.03   0.02    -0.00   0.00  -0.00    -0.02  -0.00   0.06
  11   1     0.00  -0.03   0.08    -0.00   0.00  -0.00    -0.04  -0.03   0.10
  12   1     0.03   0.03   0.04    -0.00   0.00  -0.00    -0.01   0.07   0.03
  13   6     0.10   0.08  -0.01     0.00  -0.00   0.01     0.11   0.07  -0.12
  14   1     0.03   0.05   0.02     0.00   0.00   0.01     0.04   0.04  -0.04
  15   1     0.02   0.05   0.03     0.00  -0.00   0.00     0.01   0.06   0.02
  16   1     0.08   0.02  -0.05     0.00  -0.00   0.00     0.06   0.04  -0.08
  17   6    -0.01   0.11   0.03    -0.01  -0.01   0.01     0.08   0.09   0.09
  18   1     0.03   0.05   0.02    -0.00  -0.00   0.01     0.06   0.02   0.05
  19   1    -0.06   0.07   0.01    -0.00  -0.01   0.01    -0.05   0.09   0.01
  20   1     0.04   0.04   0.02    -0.01  -0.00   0.00     0.06   0.05   0.07
  21   1    -0.01  -0.02   0.01     0.01   0.03   0.01    -0.01  -0.01   0.02
  22   6    -0.23  -0.08  -0.01    -0.01  -0.00  -0.00    -0.07   0.01   0.05
  23   8    -0.26   0.13  -0.11    -0.01   0.01  -0.01    -0.08   0.03   0.04
  24   7     0.15  -0.26   0.18     0.00  -0.01   0.01     0.07  -0.12  -0.06
  25   1     0.17  -0.03  -0.01     0.01  -0.00  -0.00     0.05   0.03   0.05
  26   1     0.04  -0.18   0.15     0.00  -0.00   0.01     0.02  -0.06   0.03
  27   7     0.19   0.17  -0.09     0.00   0.00  -0.01     0.07   0.10   0.01
  28   1     0.09   0.21  -0.31     0.01   0.00  -0.03    -0.04   0.14   0.26
  29   1     0.27   0.10   0.34     0.01   0.02   0.04     0.07  -0.22  -0.43
  30   6     0.00  -0.02  -0.04     0.00  -0.01  -0.01    -0.05   0.09   0.03
  31   8     0.02  -0.03  -0.03     0.00  -0.01  -0.01     0.00   0.09   0.09
  32   7    -0.05   0.02  -0.03    -0.01   0.01  -0.00     0.10  -0.08   0.02
  33   1    -0.04  -0.02   0.05    -0.01   0.00   0.01    -0.00  -0.11  -0.05
  34   1     0.00   0.04  -0.05    -0.00   0.01  -0.01     0.11  -0.03   0.06
  35   7     0.00   0.05   0.08     0.00   0.00   0.02    -0.08  -0.04  -0.12
  36   1     0.04   0.02   0.04     0.01   0.00   0.01    -0.07   0.01  -0.08
[...]
  44   1     0.00   0.00  -0.00    -0.00  -0.00   0.00     0.00  -0.00  -0.00
  45   1    -0.01   0.00  -0.00     0.00  -0.00  -0.00    -0.00   0.00  -0.00
  46   6     0.00  -0.00  -0.00    -0.00  -0.00  -0.00    -0.01  -0.00  -0.01
  47   8    -0.00   0.00   0.00     0.00   0.00   0.00    -0.00  -0.00   0.01
  48   7    -0.00   0.00   0.00     0.00  -0.00  -0.00     0.00  -0.00  -0.00
  49   1     0.00  -0.00  -0.00     0.00   0.00   0.00     0.01   0.00   0.01
  50   1    -0.00  -0.00  -0.00     0.00   0.00  -0.00     0.00   0.00  -0.01
  51   7     0.00   0.00  -0.00    -0.03  -0.01   0.01    -0.22  -0.05   0.03
  52   1     0.00  -0.00  -0.00    -0.01  -0.00   0.02    -0.04  -0.01   0.23
  53   1    -0.00  -0.00   0.00     0.12   0.03  -0.05     0.85   0.19  -0.33
                    142                    143                    144
                        a                      a                      a 
 Frequencies --  3494.5550              3497.2374              3497.5895
 Red. masses --     1.4508                 1.4492                 1.4504
 Frc consts  --     0.0000                 0.0000                 0.0000
 IR Inten    --    23.1527                18.8608                20.1364
 Raman Activ --     0.0000                 0.0000                 0.0000
 Depolar     --     0.0000                 0.0000                 0.0000
 Atom AN      X      Y      Z        X      Y      Z        X      Y      Z
   1   8    -0.00   0.00  -0.00     0.00  -0.00  -0.00    -0.00   0.00   0.00
   2   6     0.00   0.00   0.00     0.00  -0.00  -0.00    -0.00   0.00  -0.00
   3   1    -0.00  -0.00  -0.00    -0.00  -0.00   0.00     0.00   0.00  -0.00
   4   1    -0.00  -0.00  -0.00     0.00   0.00   0.00    -0.00  -0.00  -0.00
   5   6    -0.00   0.00  -0.00     0.00   0.00   0.00    -0.00   0.00  -0.00
   6   1     0.00  -0.00   0.00    -0.00  -0.00  -0.00     0.00  -0.00   0.00
   7   1     0.00  -0.00   0.00     0.00  -0.00   0.00    -0.00  -0.00   0.00
   8   7     0.00   0.00  -0.00    -0.00  -0.00  -0.00     0.00  -0.00   0.00
   9   6     0.00  -0.00  -0.00     0.00  -0.00  -0.00    -0.00   0.00  -0.00
  10   1     0.00  -0.00   0.00     0.00  -0.00  -0.00     0.00   0.00   0.00
  11   1    -0.00   0.00   0.00    -0.00  -0.00  -0.00    -0.00  -0.00  -0.00
  12   1    -0.00   0.00   0.00    -0.00   0.00   0.00    -0.00   0.00  -0.00
  13   6     0.00   0.00  -0.00     0.00   0.00   0.00    -0.00   0.00  -0.00
  14   1    -0.00   0.00  -0.00    -0.00   0.00  -0.00     0.00  -0.00   0.00
  15   1    -0.00  -0.00   0.00     0.00  -0.00   0.00    -0.00  -0.00   0.00
  16   1    -0.00  -0.00  -0.00     0.00  -0.00   0.00    -0.00  -0.00  -0.00
  17   6     0.00   0.00  -0.00     0.00  -0.00  -0.00    -0.00   0.00   0.00
  18   1    -0.00   0.00  -0.00    -0.00   0.00   0.00     0.00   0.00  -0.00
  19   1    -0.00   0.00   0.00     0.00  -0.00  -0.00    -0.00   0.00  -0.00
  20   1    -0.00  -0.00   0.00     0.00   0.00  -0.00    -0.00  -0.00   0.00
  21   1     0.00  -0.00  -0.00    -0.00   0.00   0.00     0.01  -0.01  -0.00
  22   6     0.00  -0.00   0.00     0.00  -0.00   0.00     0.00  -0.00   0.00
  23   8    -0.00   0.00  -0.00    -0.00  -0.00  -0.00    -0.00  -0.00  -0.00
  24   7     0.00   0.00  -0.00    -0.00   0.00  -0.00    -0.01   0.01  -0.00
  25   1     0.00  -0.00   0.00     0.00  -0.00   0.00     0.01  -0.01   0.01
  26   1    -0.00   0.00   0.00     0.00  -0.00  -0.00     0.05  -0.00  -0.00
  27   7     0.00  -0.00   0.00     0.00  -0.00   0.00     0.10  -0.12   0.09
  28   1    -0.00  -0.00  -0.00    -0.03  -0.00  -0.00    -0.70  -0.07  -0.11
  29   1     0.00   0.00  -0.00     0.01   0.02  -0.01     0.34   0.52  -0.25
  30   6     0.00   0.00   0.00    -0.00  -0.00   0.00     0.00  -0.00   0.00
  31   8    -0.00  -0.00  -0.00     0.00   0.00  -0.00    -0.00   0.00  -0.00
  32   7    -0.00  -0.00  -0.00    -0.00  -0.00  -0.00     0.00   0.00   0.00
  33   1     0.00  -0.00   0.00     0.00  -0.00   0.00    -0.01   0.01  -0.00
  34   1    -0.00   0.00   0.00    -0.00   0.00   0.00     0.00  -0.01  -0.01
  35   7    -0.00   0.00  -0.00    -0.00   0.00  -0.00    -0.00  -0.00  -0.00
  36   1     0.00  -0.01  -0.00     0.00  -0.00  -0.00    -0.00   0.00   0.00
  37   1     0.00   0.00   0.01     0.00   0.00   0.00     0.00   0.00   0.00
  38   6    -0.00  -0.00   0.00    -0.00  -0.00   0.00     0.00  -0.00   0.00
  39   8     0.00  -0.00  -0.00     0.00   0.00  -0.00    -0.00   0.00  -0.00
  40   7     0.00   0.00  -0.01     0.00   0.00  -0.00    -0.00   0.00  -0.00
  41   1     0.01  -0.00   0.01     0.00  -0.00   0.00     0.00  -0.00   0.00
  42   1    -0.03  -0.00   0.03    -0.00  -0.00   0.00     0.00  -0.00  -0.00
  43   7     0.04  -0.06   0.17    -0.00   0.00  -0.00    -0.00   0.00  -0.00
  44   1     0.46  -0.03  -0.54    -0.00   0.00   0.00    -0.00   0.00   0.00
  45   1    -0.62   0.27  -0.09     0.00  -0.00   0.00     0.00  -0.00   0.00
  46   6    -0.00  -0.00   0.00    -0.00  -0.00   0.00     0.00   0.00  -0.00
  47   8     0.00   0.00  -0.00    -0.00   0.00  -0.00    -0.00  -0.00   0.00
  48   7    -0.00  -0.00  -0.00    -0.16  -0.05   0.07     0.01   0.00  -0.00
  49   1     0.00  -0.00   0.00     0.53  -0.02   0.41    -0.02   0.00  -0.02
  50   1     0.00   0.00  -0.00     0.07   0.22  -0.68    -0.00  -0.01   0.02
  51   7     0.00   0.00   0.00     0.01   0.00  -0.01    -0.00  -0.00   0.00
  52   1     0.00   0.00  -0.00    -0.00  -0.00   0.03    -0.00   0.00   0.00
  53   1    -0.00  -0.00   0.00    -0.02  -0.00   0.01     0.00   0.00  -0.00
                    145                    146                    147
                        a                      a                      a 
 Frequencies --  3500.1465              3526.4766              3527.2443
 Red. masses --     1.4518                 1.9063                 1.9025
 Frc consts  --     0.0000                 0.0000                 0.0000
 IR Inten    --    20.9800                11.4784                15.9215
 Raman Activ --     0.0000                 0.0000                 0.0000
 Depolar     --     0.0000                 0.0000                 0.0000
 Atom AN      X      Y      Z        X      Y      Z        X      Y      Z
   1   8     0.00  -0.00  -0.00     0.00  -0.00  -0.00    -0.00   0.00   0.00
   2   6     0.00   0.00  -0.00     0.00  -0.00   0.00     0.00   0.00  -0.00
   3   1    -0.00  -0.00  -0.00    -0.00  -0.00   0.00     0.00   0.00  -0.00
   4   1     0.00  -0.00  -0.00     0.00   0.00   0.00     0.00   0.00   0.00
   5   6     0.00   0.00   0.00    -0.00   0.00  -0.00    -0.00  -0.00   0.00
   6   1    -0.00   0.00  -0.00     0.00  -0.00   0.00     0.00  -0.00  -0.00
   7   1     0.00  -0.00   0.00    -0.00  -0.00   0.00    -0.00   0.00   0.00
   8   7    -0.00  -0.00  -0.00    -0.00  -0.00   0.00    -0.00  -0.00   0.00
   9   6     0.00   0.00   0.00     0.00  -0.00   0.00    -0.00  -0.00  -0.00
  10   1    -0.00   0.00  -0.00    -0.00   0.00  -0.00     0.00  -0.00   0.00
  11   1    -0.00  -0.00  -0.00    -0.00   0.00  -0.00     0.00   0.00   0.00
  12   1     0.00  -0.00  -0.00     0.00  -0.00  -0.00    -0.00  -0.00   0.00
  13   6     0.00   0.00   0.00     0.00  -0.00   0.00    -0.00  -0.00   0.00
  14   1    -0.00   0.00  -0.00    -0.00   0.00   0.00     0.00  -0.00  -0.00
  15   1     0.00  -0.00   0.00     0.00  -0.00  -0.00     0.00  -0.00  -0.00
  16   1    -0.00  -0.00  -0.00    -0.00   0.00  -0.00     0.00   0.00   0.00
  17   6    -0.00   0.00   0.00     0.00  -0.00   0.00    -0.00  -0.00   0.00
  18   1     0.00   0.00  -0.00    -0.00  -0.00   0.00    -0.00   0.00   0.00
  19   1    -0.00  -0.00  -0.00    -0.00  -0.00  -0.00     0.00   0.00   0.00
  20   1     0.00  -0.00   0.00    -0.00   0.00  -0.00    -0.00   0.00  -0.00
  21   1    -0.00   0.00   0.00    -0.00   0.00   0.00     0.00  -0.00  -0.00
  22   6    -0.00  -0.00  -0.00    -0.01   0.01  -0.00     0.00  -0.00   0.00
  23   8     0.00  -0.00   0.00     0.00  -0.00   0.00    -0.00   0.00  -0.00
  24   7     0.00  -0.00   0.00    -0.25   0.02   0.00     0.07  -0.01   0.00
  25   1    -0.01   0.01  -0.01     0.03  -0.07   0.05    -0.01   0.03  -0.02
  26   1    -0.00  -0.00  -0.00     0.91  -0.02  -0.06    -0.27   0.01   0.02
  27   7    -0.00   0.00  -0.00     0.01   0.02  -0.01    -0.00  -0.01   0.00
  28   1     0.02   0.00   0.00    -0.01  -0.00  -0.00     0.00   0.00   0.00
  29   1    -0.01  -0.01   0.01    -0.04  -0.06   0.03     0.01   0.02  -0.01
  30   6     0.00   0.00   0.00    -0.00   0.00   0.00     0.00  -0.00  -0.00
  31   8     0.00  -0.00  -0.00     0.00  -0.00  -0.00    -0.00   0.00   0.00
  32   7     0.10   0.08   0.14    -0.00   0.00   0.00    -0.00   0.00   0.00
  33   1    -0.57   0.32  -0.17     0.00  -0.00   0.00     0.00  -0.00   0.00
  34   1     0.20  -0.60  -0.34     0.00  -0.00  -0.00     0.00  -0.01  -0.00
  35   7    -0.00  -0.01  -0.01     0.00  -0.00  -0.00     0.00  -0.00  -0.00
  36   1    -0.01   0.03   0.02    -0.00   0.01   0.01    -0.00   0.01   0.01
  37   1     0.01   0.00   0.01    -0.00  -0.00  -0.00     0.00   0.00   0.00
  38   6     0.00  -0.00   0.00     0.00   0.00  -0.00     0.00   0.00  -0.01
  39   8    -0.00  -0.00  -0.00    -0.00  -0.00   0.00    -0.00  -0.00   0.00
  40   7    -0.00   0.00  -0.00     0.05  -0.00  -0.06     0.15  -0.00  -0.20
  41   1     0.00  -0.00   0.01     0.01  -0.00   0.02     0.05  -0.00   0.07
  42   1     0.01  -0.00  -0.01    -0.18   0.00   0.21    -0.60   0.01   0.69
  43   7     0.00  -0.00   0.00    -0.01   0.00   0.00    -0.02   0.01   0.00
  44   1     0.00  -0.00  -0.00     0.00   0.00  -0.00     0.01   0.00  -0.01
  45   1    -0.00   0.00  -0.00     0.02  -0.01   0.00     0.08  -0.03   0.01
  46   6     0.00   0.00  -0.00     0.00  -0.00  -0.00     0.00   0.00   0.00
  47   8    -0.00  -0.00   0.00    -0.00   0.00   0.00    -0.00  -0.00  -0.00
  48   7    -0.00  -0.00   0.00    -0.00  -0.00   0.00     0.00   0.00   0.00
  49   1     0.00  -0.00   0.00     0.00  -0.00   0.00    -0.00   0.00  -0.00
  50   1     0.00   0.00  -0.00     0.00   0.00  -0.00    -0.00  -0.00   0.00
  51   7    -0.00  -0.00  -0.00     0.00   0.00  -0.00    -0.00  -0.00  -0.00
  52   1    -0.00  -0.00   0.00    -0.00  -0.00   0.00    -0.00  -0.00   0.00
  53   1     0.00   0.00  -0.00    -0.00  -0.00  -0.00     0.00   0.00  -0.00
                    148                    149                    150
                        a                      a                      a 
 Frequencies --  3533.8327              3536.7335              3559.1606
 Red. masses --     1.9867                 1.9087                 2.1810
 Frc consts  --     0.0000                 0.0000                 0.0000
 IR Inten    --    18.4623                18.8902                15.4322
 Raman Activ --     0.0000                 0.0000                 0.0000
 Depolar     --     0.0000                 0.0000                 0.0000
 Atom AN      X      Y      Z        X      Y      Z        X      Y      Z
   1   8    -0.00   0.00   0.00    -0.00   0.00  -0.00     0.00  -0.00   0.00
   2   6    -0.00   0.00  -0.00     0.00   0.00   0.00    -0.00   0.00  -0.00
   3   1     0.00  -0.00   0.00     0.00   0.00   0.00     0.00   0.00  -0.00
   4   1     0.00  -0.00   0.00    -0.00  -0.00   0.00    -0.00  -0.00  -0.00
   5   6    -0.00  -0.00   0.00    -0.00   0.00  -0.00     0.00  -0.00   0.00
   6   1     0.00  -0.00  -0.00    -0.00   0.00  -0.00    -0.00  -0.00   0.00
   7   1    -0.00   0.00  -0.00     0.00  -0.00   0.00    -0.00   0.00  -0.00
   8   7    -0.00   0.00  -0.00    -0.00  -0.00   0.00    -0.00   0.00  -0.00
   9   6     0.00  -0.00  -0.00     0.00  -0.00  -0.00    -0.00   0.00   0.00
  10   1    -0.00  -0.00  -0.00     0.00   0.00   0.00    -0.00  -0.00   0.00
  11   1     0.00   0.00   0.00    -0.00  -0.00  -0.00    -0.00  -0.00  -0.00
  12   1    -0.00   0.00   0.00    -0.00   0.00   0.00     0.00  -0.00  -0.00
  13   6    -0.00  -0.00  -0.00     0.00   0.00  -0.00     0.00  -0.00  -0.00
  14   1     0.00  -0.00  -0.00    -0.00   0.00  -0.00     0.00  -0.00   0.00
  15   1     0.00   0.00  -0.00     0.00  -0.00   0.00    -0.00   0.00   0.00
  16   1     0.00   0.00   0.00    -0.00  -0.00  -0.00    -0.00  -0.00   0.00
  17   6     0.00  -0.00  -0.00     0.00   0.00  -0.00    -0.00  -0.00   0.00
  18   1    -0.00  -0.00   0.00    -0.00   0.00   0.00     0.00  -0.00   0.00
  19   1     0.00   0.00   0.00    -0.00   0.00  -0.00     0.00  -0.00   0.00
  20   1     0.00  -0.00  -0.00    -0.00  -0.00   0.00     0.00   0.00  -0.00
  21   1     0.01  -0.00  -0.00     0.00  -0.00  -0.00    -0.00   0.00   0.00
  22   6     0.00  -0.00  -0.00     0.00  -0.00   0.00    -0.00   0.00  -0.00
  23   8    -0.00   0.00   0.00    -0.00   0.00  -0.00     0.00  -0.00   0.00
  24   7     0.00  -0.00   0.00     0.00  -0.00   0.00    -0.00   0.00  -0.00
  25   1    -0.00   0.00  -0.00    -0.00   0.00  -0.00     0.00  -0.00   0.00
  26   1    -0.00   0.00   0.00    -0.01   0.00   0.00     0.00  -0.00  -0.00
  27   7    -0.00  -0.00  -0.00    -0.00  -0.00   0.00     0.00   0.00  -0.00
  28   1     0.00   0.00   0.00     0.00   0.00   0.00    -0.00  -0.00  -0.00
  29   1     0.00   0.00  -0.00     0.00   0.00  -0.00    -0.00  -0.00   0.00
  30   6     0.00   0.00  -0.00    -0.00  -0.00  -0.01    -0.00   0.00   0.00
  31   8    -0.00  -0.00   0.00    -0.00   0.00   0.00     0.00  -0.00  -0.00
  32   7    -0.00  -0.00  -0.00    -0.02   0.02  -0.00     0.00  -0.00  -0.00
  33   1     0.00  -0.00   0.00     0.08  -0.04   0.03    -0.01   0.01  -0.00
  34   1    -0.00   0.00   0.00     0.01  -0.02  -0.01    -0.00   0.01   0.01
  35   7    -0.00   0.00   0.00     0.07  -0.20  -0.15     0.00   0.00   0.00
  36   1     0.00  -0.00  -0.00    -0.31   0.75   0.51     0.00  -0.01  -0.00
  37   1    -0.00  -0.00  -0.00     0.06   0.01   0.07    -0.00  -0.00  -0.01
  38   6    -0.00   0.00  -0.00     0.00  -0.00  -0.00    -0.01   0.00   0.00
  39   8    -0.00  -0.00   0.00    -0.00   0.00   0.00     0.00  -0.00  -0.00
  40   7    -0.00  -0.00   0.00    -0.00   0.00   0.00    -0.01  -0.00   0.02
  41   1    -0.00   0.00  -0.00    -0.00   0.00   0.00    -0.00   0.00  -0.01
  42   1     0.00  -0.00  -0.00     0.01  -0.00  -0.01     0.05  -0.00  -0.06
  43   7     0.00  -0.00   0.00    -0.00   0.00   0.00    -0.27   0.08   0.11
  44   1     0.00  -0.00  -0.00     0.01  -0.00  -0.01     0.41  -0.01  -0.52
  45   1    -0.00   0.00  -0.00     0.00  -0.00   0.00     0.61  -0.28   0.11
  46   6     0.01  -0.00  -0.01    -0.00  -0.00   0.00     0.00  -0.00   0.00
  47   8    -0.00   0.00   0.00     0.00   0.00  -0.00    -0.00  -0.00   0.00
  48   7     0.02  -0.00   0.02    -0.00   0.00  -0.00     0.00  -0.00   0.00
  49   1    -0.07   0.00  -0.05     0.00   0.00   0.00    -0.00   0.00  -0.00
  50   1     0.00   0.01  -0.03    -0.00  -0.00   0.00     0.00   0.00  -0.00
  51   7     0.08   0.02  -0.26     0.00   0.00  -0.00    -0.00  -0.00   0.00
  52   1    -0.12  -0.03   0.93    -0.00  -0.00   0.00     0.00   0.00  -0.00
  53   1    -0.19  -0.05   0.05    -0.00  -0.00   0.00     0.00   0.00  -0.00
                    151                    152                    153
                        a                      a                      a 
 Frequencies --  3563.0487              3563.0885              3564.9046
 Red. masses --     2.1799                 2.1813                 2.1808
 Frc consts  --     0.0000                 0.0000                 0.0000
 IR Inten    --    12.2974                11.5448                18.7324
 Raman Activ --     0.0000                 0.0000                 0.0000
 Depolar     --     0.0000                 0.0000                 0.0000
 Atom AN      X      Y      Z        X      Y      Z        X      Y      Z
   1   8    -0.00   0.00   0.00    -0.00   0.00   0.00     0.00  -0.00  -0.00
   2   6     0.00   0.00  -0.00    -0.00  -0.00   0.00     0.00   0.00   0.00
   3   1    -0.00  -0.00   0.00     0.00   0.00  -0.00    -0.00   0.00   0.00
   4   1     0.00   0.00   0.00    -0.00   0.00  -0.00    -0.00  -0.00   0.00
   5   6    -0.00   0.00   0.00    -0.00   0.00  -0.00     0.00   0.00  -0.00
   6   1     0.00  -0.00   0.00     0.00  -0.00   0.00     0.00   0.00  -0.00
   7   1    -0.00  -0.00   0.00    -0.00  -0.00   0.00     0.00  -0.00   0.00
   8   7    -0.00  -0.00  -0.00     0.00  -0.00   0.00    -0.00   0.00  -0.00
   9   6     0.00  -0.00  -0.00    -0.00   0.00   0.00     0.00   0.00   0.00
  10   1     0.00  -0.00  -0.00     0.00   0.00   0.00    -0.00   0.00  -0.00
  11   1     0.00   0.00   0.00    -0.00  -0.00  -0.00    -0.00  -0.00  -0.00
  12   1    -0.00   0.00   0.00     0.00  -0.00  -0.00    -0.00   0.00   0.00
  13   6    -0.00   0.00  -0.00     0.00   0.00  -0.00     0.00   0.00   0.00
  14   1     0.00  -0.00   0.00     0.00  -0.00   0.00    -0.00   0.00  -0.00
  15   1    -0.00  -0.00  -0.00    -0.00   0.00   0.00     0.00  -0.00   0.00
  16   1     0.00   0.00   0.00    -0.00   0.00  -0.00    -0.00  -0.00  -0.00
  17   6     0.00  -0.00  -0.00    -0.00   0.00   0.00     0.00  -0.00  -0.00
  18   1    -0.00  -0.00   0.00     0.00   0.00  -0.00    -0.00   0.00   0.00
  19   1     0.00   0.00   0.00    -0.00  -0.00  -0.00    -0.00   0.00  -0.00
  20   1     0.00  -0.00  -0.00    -0.00  -0.00   0.00    -0.00  -0.00   0.00
  21   1     0.00  -0.00  -0.00     0.00  -0.00  -0.00    -0.00   0.00   0.00
  22   6    -0.00  -0.00   0.00    -0.01  -0.01   0.00    -0.00  -0.00  -0.00
  23   8     0.00   0.00  -0.00     0.00   0.00  -0.00     0.00  -0.00   0.00
  24   7    -0.00   0.00  -0.00    -0.02   0.00  -0.00     0.00  -0.00   0.00
  25   1     0.00  -0.00   0.00     0.00  -0.01   0.00    -0.00   0.01  -0.00
  26   1     0.01  -0.00  -0.00     0.07  -0.00  -0.00     0.00  -0.00  -0.00
  27   7    -0.05  -0.03   0.01    -0.25  -0.15   0.04     0.00   0.00  -0.00
  28   1     0.12   0.01   0.02     0.63   0.04   0.11    -0.01  -0.00  -0.00
  29   1     0.06   0.10  -0.05     0.32   0.54  -0.27    -0.00  -0.01   0.00
  30   6    -0.00   0.00   0.00    -0.00   0.00   0.00     0.01  -0.01  -0.00
  31   8     0.00  -0.00  -0.00     0.00  -0.00  -0.00    -0.00   0.00   0.00
  32   7     0.00  -0.00  -0.00     0.00  -0.00  -0.00     0.20  -0.22  -0.03
  33   1    -0.00   0.00  -0.00    -0.01   0.00  -0.00    -0.59   0.30  -0.19
  34   1    -0.00   0.00   0.00    -0.00   0.00   0.00    -0.16   0.55   0.32
  35   7    -0.00   0.00   0.00     0.00   0.00   0.00     0.00  -0.02  -0.01
  36   1     0.00  -0.00  -0.00     0.00  -0.00  -0.00    -0.03   0.07   0.04
  37   1    -0.00  -0.00  -0.00    -0.00  -0.00  -0.00     0.01   0.00   0.01
  38   6    -0.00   0.00   0.00    -0.00  -0.00   0.00     0.00  -0.00  -0.00
  39   8     0.00   0.00  -0.00     0.00   0.00  -0.00    -0.00   0.00   0.00
  40   7    -0.00   0.00   0.00    -0.00   0.00   0.00     0.00   0.00  -0.00
  41   1    -0.00  -0.00  -0.00    -0.00  -0.00  -0.00     0.00  -0.00   0.01
  42   1     0.00  -0.00  -0.00     0.00  -0.00  -0.00    -0.00   0.00   0.00
  43   7    -0.00   0.00   0.00    -0.00   0.00   0.00     0.00  -0.00  -0.00
  44   1     0.00  -0.00  -0.00     0.00  -0.00  -0.00    -0.01   0.00   0.01
  45   1     0.00  -0.00   0.00     0.00  -0.00   0.00    -0.01   0.00  -0.00
  46   6    -0.01   0.00  -0.01     0.00  -0.00   0.00    -0.00   0.00   0.00
  47   8     0.00  -0.00   0.00    -0.00   0.00  -0.00     0.00  -0.00  -0.00
  48   7    -0.12   0.05  -0.26     0.02  -0.01   0.05     0.00  -0.00   0.00
  49   1     0.55  -0.00   0.40    -0.11   0.00  -0.08    -0.00   0.00  -0.00
  50   1    -0.09  -0.20   0.60     0.02   0.04  -0.12     0.00   0.00  -0.00
  51   7     0.01   0.00  -0.02    -0.00  -0.00   0.00    -0.00  -0.00   0.00
  52   1    -0.01  -0.00   0.08     0.00   0.00  -0.02    -0.00   0.00  -0.00
  53   1    -0.02  -0.00   0.01     0.00   0.00  -0.00     0.00   0.00  -0.00
