      -----------------------------------------------------------      
     |                   =====================                   |     
     |                           x T B                           |     
     |                   =====================                   |     
     |                         S. Grimme                         |     
     |          Mulliken Center for Theoretical Chemistry        |     
     |                    University of Bonn                     |     
      -----------------------------------------------------------      

   * xtb version 6.6.1 (unknown-commit) compiled by '@Linux' on 12/27/2023

   xtb is free software: you can redistribute it and/or modify it under
   the terms of the GNU Lesser General Public License as published by
   the Free Software Foundation, either version 3 of the License, or
   (at your option) any later version.
   
   xtb is distributed in the hope that it will be useful,
   but WITHOUT ANY WARRANTY; without even the implied warranty of
   MERCHANTABILITY or FITNESS FOR A PARTICULAR PURPOSE.  See the
   GNU Lesser General Public License for more details.
   
   Cite this work as:
   * C. Bannwarth, E. Caldeweyher, S. Ehlert, A. Hansen, P. Pracht,
     J. Seibert, S. Spicher, S. Grimme, WIREs Comput. Mol. Sci., 2020, 11,
     e01493. DOI: 10.1002/wcms.1493
   
   for GFN2-xTB:
   * C. Bannwarth, S. Ehlert and S. Grimme., J. Chem. Theory Comput., 2019,
     15, 1652-1671. DOI: 10.1021/acs.jctc.8b01176
   for GFN1-xTB:
   * S. Grimme, C. Bannwarth, P. Shushkov, J. Chem. Theory Comput., 2017,
     13, 1989-2009. DOI: 10.1021/acs.jctc.7b00118
   for GFN0-xTB:
   * P. Pracht, E. Caldeweyher, S. Ehlert, S. Grimme, ChemRxiv, 2019, preprint.
     DOI: 10.26434/chemrxiv.8326202.v1
   for GFN-FF:
   * S. Spicher and S. Grimme, Angew. Chem. Int. Ed., 2020, 59, 15665-15673.
     DOI: 10.1002/anie.202004239
   
   for ALPB and GBSA implicit solvation:
   * S. Ehlert, M. Stahn, S. Spicher, S. Grimme, J. Chem. Theory Comput.,
     2021, 17, 4250-4261. DOI: 10.1021/acs.jctc.1c00471
   
   for DFT-D4:
   * E. Caldeweyher, C. Bannwarth and S. Grimme, J. Chem. Phys., 2017,
     147, 034112. DOI: 10.1063/1.4993215
   * E. Caldeweyher, S. Ehlert, A. Hansen, H. Neugebauer, S. Spicher,
     C. Bannwarth and S. Grimme, J. Chem. Phys., 2019, 150, 154122.
     DOI: 10.1063/1.5090222
   * E. Caldeweyher, J.-M. Mewes, S. Ehlert and S. Grimme, Phys. Chem. Chem. Phys.
     2020, 22, 8499-8512. DOI: 10.1039/D0CP00502A
   
   for sTDA-xTB:
   * S. Grimme and C. Bannwarth, J. Chem. Phys., 2016, 145, 054103.
     DOI: 10.1063/1.4959605
   
   in the mass-spec context:
   * V. Asgeirsson, C. Bauer and S. Grimme, Chem. Sci., 2017, 8, 4879.
     DOI: 10.1039/c7sc00601b
   * J. Koopman and S. Grimme, ACS Omega 2019, 4, 12, 15120-15133.
     DOI: 10.1021/acsomega.9b02011
   
   for metadynamics refer to:
   * S. Grimme, J. Chem. Theory Comput., 2019, 155, 2847-2862
     DOI: 10.1021/acs.jctc.9b00143
   
   for SPH calculations refer to:
   * S. Spicher and S. Grimme, J. Chem. Theory Comput., 2021, 17, 1701-1714
     DOI: 10.1021/acs.jctc.0c01306
   
   with help from (in alphabetical order)
   P. Atkinson, C. Bannwarth, F. Bohle, G. Brandenburg, E. Caldeweyher
   M. Checinski, S. Dohm, S. Ehlert, S. Ehrlich, I. Gerasimov, C. Hölzer
   A. Katbashev, J. Koopman, C. Lavigne, S. Lehtola, F. März, M. Müller,
   F. Musil, H. Neugebauer, J. Pisarek, C. Plett, P. Pracht, F. Pultar,
   J. Seibert, P. Shushkov, S. Spicher, M. Stahn, M. Steiner, T. Strunk,
   J. Stückrath, T. Rose, and J. Unsleber
   
 * started run on 2024/01/10 at 18:33:53.107     

           -------------------------------------------------
          |                Calculation Setup                |
           -------------------------------------------------

          program call               : xtb struc.xyz --gfn2 --hess
          hostname                   : swaroop
          coordinate file            : struc.xyz
          omp threads                :                     1

   ID    Z sym.   atoms
    1    8 O      1, 23, 31, 39, 47
    2    6 C      2, 5, 9, 13, 17, 22, 30, 38, 46
    3    1 H      3, 4, 6, 7, 10-12, 14-16, 18-21, 25, 26, 28, 29, 33, 34,
                  36, 37, 41, 42, 44, 45, 49, 50, 52, 53
    4    7 N      8, 24, 27, 32, 35, 40, 43, 48, 51

molecular fragmentation (1/2 indicates fragments):
11111111111111111111122222222222222222222222222222222
# atoms in fragment 1/2:    21    32
 fragment masses (1/2) :      104.17      240.22
CMA distance (Bohr)    :   3.829
constraining FC (au)   :  0.0500

           -------------------------------------------------
          |                 G F N 2 - x T B                 |
           -------------------------------------------------

        Reference                      10.1021/acs.jctc.8b01176
      * Hamiltonian:
        H0-scaling (s, p, d)           1.850000    2.230000    2.230000
        zeta-weighting                 0.500000
      * Dispersion:
        s8                             2.700000
        a1                             0.520000
        a2                             5.000000
        s9                             5.000000
      * Repulsion:
        kExp                           1.500000    1.000000
        rExp                           1.000000
      * Coulomb:
        alpha                          2.000000
        third order                    shell-resolved
        anisotropic                    true
        a3                             3.000000
        a5                             4.000000
        cn-shift                       1.200000
        cn-exp                         4.000000
        max-rad                        5.000000


          ...................................................
          :                      SETUP                      :
          :.................................................:
          :  # basis functions                 122          :
          :  # atomic orbitals                 122          :
          :  # shells                           76          :
          :  # electrons                       140          :
          :  max. iterations                   250          :
          :  Hamiltonian                  GFN2-xTB          :
          :  restarted?                      false          :
          :  GBSA solvation                  false          :
          :  PC potential                    false          :
          :  electronic temp.          300.0000000     K    :
          :  accuracy                    1.0000000          :
          :  -> integral cutoff          0.2500000E+02      :
          :  -> integral neglect         0.1000000E-07      :
          :  -> SCF convergence          0.1000000E-05 Eh   :
          :  -> wf. convergence          0.1000000E-03 e    :
          :  Broyden damping             0.4000000          :
          ...................................................

 iter      E             dE          RMSdq      gap      omega  full diag
   1    -81.5482637 -0.815483E+02  0.433E+00    5.17       0.0  T
   2    -81.8388781 -0.290614E+00  0.235E+00    5.77       1.0  T
   3    -81.8445528 -0.567464E-02  0.116E+00    5.45       1.0  T
   4    -81.8459185 -0.136574E-02  0.231E-01    5.50       1.0  T
   5    -81.8467544 -0.835921E-03  0.902E-02    5.42       1.0  T
   6    -81.8467774 -0.229162E-04  0.261E-02    5.44       1.0  T
   7    -81.8467827 -0.530713E-05  0.718E-03    5.44       1.9  T
   8    -81.8467829 -0.185117E-06  0.245E-03    5.43       5.6  T
   9    -81.8467829 -0.229585E-07  0.741E-04    5.43      18.5  T
  10    -81.8467829 -0.376100E-08  0.167E-04    5.43      82.0  T

   *** convergence criteria satisfied after 10 iterations ***

         #    Occupation            Energy/Eh            Energy/eV
      -------------------------------------------------------------
         1        2.0000           -0.7952268             -21.6392
       ...           ...                  ...                  ...
        64        2.0000           -0.4989175             -13.5762
        65        2.0000           -0.4959978             -13.4968
        66        2.0000           -0.4911211             -13.3641
        67        2.0000           -0.4907383             -13.3537
        68        2.0000           -0.4874324             -13.2637
        69        2.0000           -0.4849731             -13.1968
        70        2.0000           -0.4783565             -13.0167 (HOMO)
        71                         -0.2787288              -7.5846 (LUMO)
        72                         -0.2696104              -7.3365
        73                         -0.2597678              -7.0686
        74                         -0.2548941              -6.9360
        75                         -0.1467843              -3.9942
       ...                                ...                  ...
       122                          0.5574094              15.1679
      -------------------------------------------------------------
                  HL-Gap            0.1996276 Eh            5.4321 eV
             Fermi-level           -0.3785427 Eh          -10.3007 eV

 SCC (total)                   0 d,  0 h,  0 min,  0.101 sec
 SCC setup                      ...        0 min,  0.000 sec (  0.287%)
 Dispersion                     ...        0 min,  0.001 sec (  0.589%)
 classical contributions        ...        0 min,  0.000 sec (  0.180%)
 integral evaluation            ...        0 min,  0.008 sec (  7.837%)
 iterations                     ...        0 min,  0.063 sec ( 63.066%)
 molecular gradient             ...        0 min,  0.028 sec ( 27.774%)
 printout                       ...        0 min,  0.000 sec (  0.255%)

         :::::::::::::::::::::::::::::::::::::::::::::::::::::
         ::                     SUMMARY                     ::
         :::::::::::::::::::::::::::::::::::::::::::::::::::::
         :: total energy             -80.931974352569 Eh    ::
         :: gradient norm              0.000152101391 Eh/a0 ::
         :: HOMO-LUMO gap              5.432144726769 eV    ::
         ::.................................................::
         :: SCC energy               -81.846782876872 Eh    ::
         :: -> isotropic ES            0.292637457403 Eh    ::
         :: -> anisotropic ES         -0.029599510803 Eh    ::
         :: -> anisotropic XC          0.020745847806 Eh    ::
         :: -> dispersion             -0.044479151529 Eh    ::
         :: repulsion energy           0.913534877252 Eh    ::
         :: add. restraining           0.000000000000 Eh    ::
         :: total charge               1.000000000000 e     ::
         :::::::::::::::::::::::::::::::::::::::::::::::::::::

           ------------------------------------------------- 
          |                Numerical Hessian                |
           ------------------------------------------------- 
step length          :   0.00500
SCC accuracy         :   0.30000
Hessian scale factor :   1.00000
frozen atoms in %    :   0.00000    0
RMS gradient         :   0.00015
estimated CPU  time      0.24 min
estimated wall time      0.24 min

writing file <hessian>.

 projected vibrational frequencies (cm⁻¹)
eigval :       -0.00    -0.00    -0.00     0.00     0.00     0.00
eigval :       17.24    18.19    26.56    34.70    37.25    43.16
eigval :       48.11    56.06    60.14    63.05    67.89    71.69
eigval :       77.70    85.38    94.29   103.19   108.12   115.83
eigval :      123.03   128.91   142.88   155.59   159.50   178.73
eigval :      189.05   212.34   232.64   248.47   270.78   276.02
eigval :      290.38   312.12   325.53   343.62   351.21   384.01
eigval :      388.88   391.50   402.75   436.55   451.07   456.62
eigval :      466.86   470.27   471.89   477.44   479.85   480.88
eigval :      483.35   484.25   498.27   537.65   540.24   543.21
eigval :      544.16   549.83   600.37   643.37   661.35   670.67
eigval :      675.86   676.51   687.03   690.89   728.73   765.06
eigval :      895.67   946.23   959.48   960.73   963.21   966.48
eigval :     1001.95  1002.86  1008.79  1011.82  1013.35  1018.20
eigval :     1029.72  1032.25  1044.19  1085.32  1086.95  1088.07
eigval :     1089.34  1094.36  1115.97  1124.44  1192.07  1238.59
eigval :     1251.33  1272.42  1292.00  1317.76  1353.61  1356.84
eigval :     1359.62  1361.57  1378.76  1380.80  1408.23  1411.27
eigval :     1427.50  1438.17  1449.88  1450.83  1452.40  1456.57
eigval :     1457.95  1461.55  1466.31  1470.05  1476.76  1480.30
eigval :     1487.55  1498.75  1501.76  1510.34  1514.17  1677.44
eigval :     1691.44  1712.53  1721.08  2938.03  2964.83  2978.27
eigval :     3003.89  3028.83  3031.10  3042.57  3045.20  3047.16
eigval :     3050.44  3052.82  3061.04  3063.90  3182.18  3264.49
eigval :     3281.37  3342.43  3371.37  3494.47  3499.74  3499.85
eigval :     3501.80  3525.36  3529.21  3536.52  3539.06  3558.70
eigval :     3565.01  3566.31  3567.92
           -------------------------------------------------
          |                Property Printout                |
           -------------------------------------------------

    * Orbital Energies and Occupations

         #    Occupation            Energy/Eh            Energy/eV
      -------------------------------------------------------------
         1        2.0000           -0.7952261             -21.6392
       ...           ...                  ...                  ...
        58        2.0000           -0.5133563             -13.9691
        59        2.0000           -0.5077931             -13.8178
        60        2.0000           -0.5067401             -13.7891
        61        2.0000           -0.5054353             -13.7536
        62        2.0000           -0.5030150             -13.6877
        63        2.0000           -0.5001793             -13.6106
        64        2.0000           -0.4989178             -13.5762
        65        2.0000           -0.4959989             -13.4968
        66        2.0000           -0.4911224             -13.3641
        67        2.0000           -0.4907398             -13.3537
        68        2.0000           -0.4874340             -13.2638
        69        2.0000           -0.4849740             -13.1968
        70        2.0000           -0.4783576             -13.0168 (HOMO)
        71                         -0.2787282              -7.5846 (LUMO)
        72                         -0.2696092              -7.3364
        73                         -0.2597704              -7.0687
        74                         -0.2548968              -6.9361
        75                         -0.1467833              -3.9942
        76                         -0.1074046              -2.9226
        77                         -0.0898664              -2.4454
        78                         -0.0841031              -2.2886
        79                         -0.0812419              -2.2107
        80                         -0.0785273              -2.1368
        81                         -0.0686629              -1.8684
       ...                                ...                  ...
       122                          0.5574075              15.1678
      -------------------------------------------------------------
                  HL-Gap            0.1996293 Eh            5.4322 eV
             Fermi-level           -0.3785429 Eh          -10.3007 eV

     #   Z          covCN         q      C6AA      α(0)
     1   8 O        1.651    -0.482    22.507     6.404
     2   6 C        3.672     0.056    19.870     6.389
     3   1 H        0.924     0.050     2.316     2.380
     4   1 H        0.924     0.084     1.942     2.179
     5   6 C        3.771    -0.077    21.996     6.683
     6   1 H        0.924     0.124     1.582     1.967
     7   1 H        0.924     0.114     1.663     2.017
     8   7 N        3.623     0.154    18.642     6.413
     9   6 C        3.736    -0.106    22.613     6.786
    10   1 H        0.925     0.083     1.948     2.182
    11   1 H        0.925     0.122     1.597     1.976
    12   1 H        0.925     0.089     1.891     2.151
    13   6 C        3.719    -0.120    22.927     6.839
    14   1 H        0.925     0.128     1.552     1.948
    15   1 H        0.925     0.076     2.018     2.222
    16   1 H        0.925     0.115     1.653     2.011
    17   6 C        3.725    -0.112    22.745     6.810
    18   1 H        0.925     0.119     1.625     1.994
    19   1 H        0.925     0.107     1.721     2.051
    20   1 H        0.925     0.087     1.911     2.162
    21   1 H        0.803     0.340     0.613     1.230
    22   6 C        2.675     0.344    21.154     7.526
    23   8 O        0.860    -0.523    24.296     6.609
    24   7 N        2.645    -0.290    27.489     7.787
    25   1 H        0.860     0.201     1.103     1.645
    26   1 H        0.861     0.182     1.203     1.718
    27   7 N        2.644    -0.306    27.887     7.843
    28   1 H        0.861     0.176     1.238     1.743
    29   1 H        0.860     0.224     0.993     1.561
    30   6 C        2.675     0.341    21.201     7.535
    31   8 O        0.860    -0.526    24.357     6.617
    32   7 N        2.645    -0.289    27.459     7.783
    33   1 H        0.860     0.199     1.109     1.649
    34   1 H        0.861     0.187     1.175     1.698
    35   7 N        2.644    -0.302    27.788     7.829
    36   1 H        0.860     0.181     1.208     1.721
    37   1 H        0.860     0.237     0.935     1.515
    38   6 C        2.675     0.344    21.157     7.527
    39   8 O        0.860    -0.524    24.324     6.612
    40   7 N        2.645    -0.294    27.578     7.799
    41   1 H        0.860     0.199     1.111     1.651
    42   1 H        0.860     0.181     1.210     1.723
    43   7 N        2.644    -0.307    27.912     7.846
    44   1 H        0.860     0.174     1.247     1.750
    45   1 H        0.860     0.229     0.971     1.543
    46   6 C        2.675     0.343    21.166     7.528
    47   8 O        0.861    -0.542    24.739     6.669
    48   7 N        2.645    -0.303    27.812     7.832
    49   1 H        0.860     0.239     0.929     1.510
    50   1 H        0.861     0.178     1.224     1.733
    51   7 N        2.645    -0.289    27.446     7.781
    52   1 H        0.861     0.184     1.189     1.708
    53   1 H        0.860     0.202     1.096     1.640

 Mol. C6AA /au·bohr⁶  :      21770.863269
 Mol. C8AA /au·bohr⁸  :     454050.518423
 Mol. α(0) /au        :        220.426617


Wiberg/Mayer (AO) data.
largest (>0.10) Wiberg bond orders for each atom

 ---------------------------------------------------------------------------
     #   Z sym  total        # sym  WBO       # sym  WBO       # sym  WBO
 ---------------------------------------------------------------------------
     1   8 O    1.987 --     2 C    0.988    21 H    0.817
     2   6 C    3.951 --     5 C    1.009     1 O    0.988     3 H    0.968
                             4 H    0.946
     3   1 H    0.997 --     2 C    0.968
     4   1 H    0.993 --     2 C    0.946
     5   6 C    3.920 --     2 C    1.009     7 H    0.949     6 H    0.940
                             8 N    0.929
     6   1 H    0.985 --     5 C    0.940
     7   1 H    0.987 --     5 C    0.949
     8   7 N    3.820 --     9 C    0.961    17 C    0.959    13 C    0.954
                             5 C    0.929
     9   6 C    3.930 --    10 H    0.977    12 H    0.977     8 N    0.961
                            11 H    0.960
    10   1 H    0.993 --     9 C    0.977
    11   1 H    0.985 --     9 C    0.960
    12   1 H    0.992 --     9 C    0.977
    13   6 C    3.915 --    15 H    0.979    16 H    0.962     8 N    0.954
                            14 H    0.952
    14   1 H    0.984 --    13 C    0.952
    15   1 H    0.994 --    13 C    0.979
    16   1 H    0.987 --    13 C    0.962
    17   6 C    3.925 --    20 H    0.977    19 H    0.973    18 H    0.965
                             8 N    0.959
    18   1 H    0.986 --    17 C    0.965
    19   1 H    0.988 --    17 C    0.973
    20   1 H    0.992 --    17 C    0.977
    21   1 H    0.885 --     1 O    0.817
    22   6 C    3.959 --    23 O    1.529    27 N    1.217    24 N    1.206
    23   8 O    1.901 --    22 C    1.529    27 N    0.145    24 N    0.140
    24   7 N    3.321 --    22 C    1.206    26 H    0.948    25 H    0.943
                            23 O    0.140
    25   1 H    0.960 --    24 N    0.943
    26   1 H    0.967 --    24 N    0.948
    27   7 N    3.318 --    22 C    1.217    28 H    0.950    29 H    0.906
                            23 O    0.145
    28   1 H    0.969 --    27 N    0.950
    29   1 H    0.950 --    27 N    0.906
    30   6 C    3.959 --    31 O    1.490    35 N    1.246    32 N    1.212
    31   8 O    1.909 --    30 C    1.490    35 N    0.140    32 N    0.133
    32   7 N    3.327 --    30 C    1.212    34 H    0.946    33 H    0.943
                            31 O    0.133
    33   1 H    0.960 --    32 N    0.943
    34   1 H    0.965 --    32 N    0.946
    35   7 N    3.336 --    30 C    1.246    36 H    0.948    37 H    0.886
                            31 O    0.140
    36   1 H    0.967 --    35 N    0.948
    37   1 H    0.944 --    35 N    0.886
    38   6 C    3.959 --    39 O    1.532    43 N    1.223    40 N    1.197
    39   8 O    1.900 --    38 C    1.532    43 N    0.146    40 N    0.138
    40   7 N    3.310 --    38 C    1.197    42 H    0.948    41 H    0.943
                            39 O    0.138
    41   1 H    0.960 --    40 N    0.943
    42   1 H    0.967 --    40 N    0.948
    43   7 N    3.321 --    38 C    1.223    44 H    0.950    45 H    0.899
                            39 O    0.146
    44   1 H    0.970 --    43 N    0.950
    45   1 H    0.948 --    43 N    0.899
    46   6 C    3.959 --    47 O    1.481    48 N    1.253    51 N    1.213
    47   8 O    1.881 --    46 C    1.481    48 N    0.143    51 N    0.131
    48   7 N    3.346 --    46 C    1.253    50 H    0.949    49 H    0.880
                            47 O    0.143
    49   1 H    0.943 --    48 N    0.880
    50   1 H    0.968 --    48 N    0.949
    51   7 N    3.327 --    46 C    1.213    52 H    0.947    53 H    0.942
                            47 O    0.131
    52   1 H    0.966 --    51 N    0.947
    53   1 H    0.959 --    51 N    0.942
 ---------------------------------------------------------------------------

Topologies differ in total number of bonds
Writing topology from bond orders to xtbtopo.mol

molecular dipole:
                 x           y           z       tot (Debye)
 q only:       -0.565       0.638       0.371
   full:       -0.658       1.319       0.751       4.205
molecular quadrupole (traceless):
                xx          xy          yy          xz          yz          zz
 q only:      -11.669     -12.285      12.653      10.252      -9.512      -0.984
  q+dip:      -13.852     -16.014      16.226      11.260     -14.228      -2.374
   full:      -13.438     -15.596      15.394      11.189     -13.960      -1.956

           -------------------------------------------------
          |               Frequency Printout                |
           -------------------------------------------------
 projected vibrational frequencies (cm⁻¹)
eigval :       -0.00    -0.00    -0.00     0.00     0.00     0.00
eigval :       17.24    18.19    26.56    34.70    37.25    43.16
eigval :       48.11    56.06    60.14    63.05    67.89    71.69
eigval :       77.70    85.38    94.29   103.19   108.12   115.83
eigval :      123.03   128.91   142.88   155.59   159.50   178.73
eigval :      189.05   212.34   232.64   248.47   270.78   276.02
eigval :      290.38   312.12   325.53   343.62   351.21   384.01
eigval :      388.88   391.50   402.75   436.55   451.07   456.62
eigval :      466.86   470.27   471.89   477.44   479.85   480.88
eigval :      483.35   484.25   498.27   537.65   540.24   543.21
eigval :      544.16   549.83   600.37   643.37   661.35   670.67
eigval :      675.86   676.51   687.03   690.89   728.73   765.06
eigval :      895.67   946.23   959.48   960.73   963.21   966.48
eigval :     1001.95  1002.86  1008.79  1011.82  1013.35  1018.20
eigval :     1029.72  1032.25  1044.19  1085.32  1086.95  1088.07
eigval :     1089.34  1094.36  1115.97  1124.44  1192.07  1238.59
eigval :     1251.33  1272.42  1292.00  1317.76  1353.61  1356.84
eigval :     1359.62  1361.57  1378.76  1380.80  1408.23  1411.27
eigval :     1427.50  1438.17  1449.88  1450.83  1452.40  1456.57
eigval :     1457.95  1461.55  1466.31  1470.05  1476.76  1480.30
eigval :     1487.55  1498.75  1501.76  1510.34  1514.17  1677.44
eigval :     1691.44  1712.53  1721.08  2938.03  2964.83  2978.27
eigval :     3003.89  3028.83  3031.10  3042.57  3045.20  3047.16
eigval :     3050.44  3052.82  3061.04  3063.90  3182.18  3264.49
eigval :     3281.37  3342.43  3371.37  3494.47  3499.74  3499.85
eigval :     3501.80  3525.36  3529.21  3536.52  3539.06  3558.70
eigval :     3565.01  3566.31  3567.92
 reduced masses (amu)
   1: 12.53   2: 12.71   3: 12.34   4: 12.68   5: 12.75   6: 12.35   7: 12.42   8: 11.90
   9: 12.31  10: 11.99  11: 12.48  12: 12.67  13: 12.60  14: 12.06  15: 12.07  16: 12.40
  17: 12.45  18: 12.16  19: 12.79  20: 13.49  21: 12.89  22: 12.60  23: 12.50  24: 13.01
  25: 12.99  26: 11.75  27: 11.55  28: 11.95  29: 11.33  30: 13.52  31: 12.65  32: 12.08
  33:  2.18  34:  2.61  35:  3.17  36:  3.37  37:  7.27  38:  2.58  39:  3.47  40:  7.34
  41:  1.89  42:  3.32  43:  3.31  44:  8.13  45:  3.38  46:  8.95  47:  2.66  48:  8.03
  49:  7.40  50:  6.63  51:  5.05  52:  4.44  53:  5.81  54:  3.04  55:  5.78  56:  4.61
  57:  8.48  58: 10.56  59: 10.15  60: 11.40  61: 11.11  62:  9.25  63:  3.28  64:  3.76
  65:  4.00  66:  9.44  67: 11.93  68: 11.87  69:  7.81  70:  3.75  71:  2.40  72:  9.20
  73:  7.89  74:  7.65  75:  4.98  76:  5.14  77:  5.00  78:  4.92  79:  8.96  80:  7.87
  81:  9.24  82:  8.68  83:  8.29  84:  8.96  85:  5.89  86:  7.46  87:  3.15  88:  9.29
  89:  8.72  90:  8.82  91:  8.71  92:  7.05  93:  4.84  94:  7.39  95:  4.32  96:  5.02
  97:  5.63  98:  7.13  99:  4.42 100:  5.43 101:  4.93 102:  5.57 103:  4.98 104:  5.37
 105:  4.39 106:  4.20 107:  2.48 108:  2.48 109:  2.27 110:  2.28 111:  1.60 112:  2.00
 113:  3.05 114:  3.16 115:  2.79 116:  2.31 117:  2.39 118:  2.07 119:  1.67 120:  1.62
 121:  1.80 122:  7.56 123:  7.96 124:  8.84 125:  9.24 126: 12.64 127: 12.68 128: 12.75
 129: 12.78 130:  1.92 131:  1.57 132:  1.81 133:  1.69 134:  1.68 135:  1.81 136:  1.87
 137:  1.51 138:  1.89 139:  1.59 140:  1.70 141:  1.76 142:  1.78 143:  1.90 144:  1.78
 145:  1.76 146:  1.72 147:  1.69 148:  1.45 149:  1.45 150:  1.45 151:  1.45 152:  1.91
 153:  1.94 154:  1.97 155:  1.91 156:  2.18 157:  2.18 158:  2.18 159:  2.18
 IR intensities (km·mol⁻¹)
   1:  0.99   2:  2.84   3:  0.41   4:  1.48   5:  2.27   6:  1.05   7:  0.03   8:  0.69
   9:  1.79  10:  2.36  11:  0.27  12:  1.97  13:  0.43  14:  0.97  15:  8.18  16:  0.82
  17:  1.90  18:  3.64  19:  1.58  20:  5.40  21: 11.10  22: 13.22  23:  9.33  24:  4.58
  25: 15.62  26:  3.20  27:  7.95  28: 17.98  29: 10.33  30: 42.37  31: 53.90  32: 27.85
  33:126.73  34:145.85  35:  6.76  36:166.54  37:  8.81  38:101.02  39:  1.38  40:  1.34
  41:  2.93  42: 31.79  43:247.68  44: 39.80  45:480.57  46:  3.55  47:221.26  48:  2.12
  49: 39.06  50: 14.36  51: 15.24  52: 39.74  53: 16.54  54:  6.68  55: 10.31  56: 15.67
  57:  2.70  58: 16.13  59: 14.90  60:  5.02  61:  7.73  62: 44.73  63: 86.71  64: 64.26
  65:134.43  66: 54.07  67: 14.19  68: 84.46  69:174.10  70:168.20  71:276.37  72:  3.00
  73: 11.64  74:  9.32  75:  2.47  76:  3.28  77:  1.71  78:  0.47  79: 23.93  80: 12.69
  81:  0.74  82: 33.78  83:  9.95  84:  3.64  85: 21.73  86: 40.33  87:  1.85  88:  0.59
  89:  2.86  90:  2.34  91:  2.11  92:  7.99  93:  7.84  94:  6.59  95: 25.10  96:  0.20
  97:  4.45  98: 11.43  99: 67.02 100: 29.42 101:100.62 102:111.01 103: 74.01 104:157.35
 105: 20.77 106: 55.52 107: 28.33 108:  4.06 109: 24.43 110:  5.79 111:  1.70 112:  0.96
 113:  4.61 114:  1.26 115: 17.63 116:  1.66 117:  9.15 118:  0.01 119: 16.88 120: 27.39
 121: 37.36 122:574.72 123:707.35 124:235.01 125:528.42 126:699.12 127:619.79 128:******
 129:577.03 130: 19.30 131: 57.40 132: 68.81 133:  2.03 134: 33.38 135: 86.91 136:  1.29
 137:  1.22 138:  3.14 139: 23.24 140:  2.97 141: 12.30 142: 11.35 143:446.41 144:896.26
 145:873.57 146:459.57 147:227.02 148: 18.32 149: 19.63 150: 22.04 151: 22.36 152: 14.91
 153: 13.13 154: 16.56 155: 13.66 156: 10.54 157: 14.74 158: 13.83 159: 14.62
 Raman intensities (amu)
Molecule has no symmetry elements
It seems to be the C1 point group
   1:  0.00   2:  0.00   3:  0.00   4:  0.00   5:  0.00   6:  0.00   7:  0.00   8:  0.00
   9:  0.00  10:  0.00  11:  0.00  12:  0.00  13:  0.00  14:  0.00  15:  0.00  16:  0.00
  17:  0.00  18:  0.00  19:  0.00  20:  0.00  21:  0.00  22:  0.00  23:  0.00  24:  0.00
  25:  0.00  26:  0.00  27:  0.00  28:  0.00  29:  0.00  30:  0.00  31:  0.00  32:  0.00
  33:  0.00  34:  0.00  35:  0.00  36:  0.00  37:  0.00  38:  0.00  39:  0.00  40:  0.00
  41:  0.00  42:  0.00  43:  0.00  44:  0.00  45:  0.00  46:  0.00  47:  0.00  48:  0.00
  49:  0.00  50:  0.00  51:  0.00  52:  0.00  53:  0.00  54:  0.00  55:  0.00  56:  0.00
  57:  0.00  58:  0.00  59:  0.00  60:  0.00  61:  0.00  62:  0.00  63:  0.00  64:  0.00
  65:  0.00  66:  0.00  67:  0.00  68:  0.00  69:  0.00  70:  0.00  71:  0.00  72:  0.00
  73:  0.00  74:  0.00  75:  0.00  76:  0.00  77:  0.00  78:  0.00  79:  0.00  80:  0.00
  81:  0.00  82:  0.00  83:  0.00  84:  0.00  85:  0.00  86:  0.00  87:  0.00  88:  0.00
  89:  0.00  90:  0.00  91:  0.00  92:  0.00  93:  0.00  94:  0.00  95:  0.00  96:  0.00
  97:  0.00  98:  0.00  99:  0.00 100:  0.00 101:  0.00 102:  0.00 103:  0.00 104:  0.00
 105:  0.00 106:  0.00 107:  0.00 108:  0.00 109:  0.00 110:  0.00 111:  0.00 112:  0.00
 113:  0.00 114:  0.00 115:  0.00 116:  0.00 117:  0.00 118:  0.00 119:  0.00 120:  0.00
 121:  0.00 122:  0.00 123:  0.00 124:  0.00 125:  0.00 126:  0.00 127:  0.00 128:  0.00
 129:  0.00 130:  0.00 131:  0.00 132:  0.00 133:  0.00 134:  0.00 135:  0.00 136:  0.00
 137:  0.00 138:  0.00 139:  0.00 140:  0.00 141:  0.00 142:  0.00 143:  0.00 144:  0.00
 145:  0.00 146:  0.00 147:  0.00 148:  0.00 149:  0.00 150:  0.00 151:  0.00 152:  0.00
 153:  0.00 154:  0.00 155:  0.00 156:  0.00 157:  0.00 158:  0.00 159:  0.00
 output can be read by thermo (or use thermo option).
 writing <g98.out> molden fake output.
 recommended (thermochemical) frequency scaling factor: 1.0
           -------------------------------------------------
          |             Thermodynamic Functions             |
           -------------------------------------------------

c1  symmetry found (for desy threshold:  0.10E+00) used in thermo

          ...................................................
          :                      SETUP                      :
          :.................................................:
          :  # frequencies                         153      :
          :  # imaginary freq.                       0      :
          :  linear?                             false      :
          :  only rotor calc.                    false      :
          :  symmetry                               c1      :
          :  rotational number                       1      :
          :  scaling factor                  1.0000000      :
          :  rotor cutoff                   50.0000000 cm⁻¹ :
          :  imag. cutoff                  -20.0000000 cm⁻¹ :
          :.................................................:

    mode    ω/cm⁻¹     T·S(HO)/kcal·mol⁻¹    T·S(FR)/kcal·mol⁻¹   T·S(vib)
   ------------------------------------------------------------------------
       1     17.24    -2.06595 (  1.39%)    -1.37191 ( 98.61%)    -1.38159
       2     18.19    -2.03399 (  1.72%)    -1.35593 ( 98.28%)    -1.36762
       3     26.56    -1.81015 (  7.37%)    -1.24393 ( 92.63%)    -1.28567
       4     34.70    -1.65197 ( 18.83%)    -1.16471 ( 81.17%)    -1.25647
       5     37.25    -1.61001 ( 23.56%)    -1.14368 ( 76.44%)    -1.25354
       6     43.16    -1.52310 ( 35.70%)    -1.10010 ( 64.30%)    -1.25110
       7     48.11    -1.45897 ( 46.16%)    -1.06790 ( 53.84%)    -1.24843
       8     56.06    -1.36891 ( 61.24%)    -1.02264 ( 38.76%)    -1.23470
       9     60.14    -1.32755 ( 67.67%)    -1.00183 ( 32.33%)    -1.22224
      10     63.05    -1.29970 ( 71.67%)    -0.98780 ( 28.33%)    -1.21133
      11     67.89    -1.25632 ( 77.26%)    -0.96593 ( 22.74%)    -1.19029
      12     71.69    -1.22433 ( 80.86%)    -0.94979 ( 19.14%)    -1.17180
      13     77.70    -1.17716 ( 85.36%)    -0.92595 ( 14.64%)    -1.14038
      14     85.38    -1.12198 ( 89.48%)    -0.89800 ( 10.52%)    -1.09841
      15     94.29    -1.06412 ( 92.67%)    -0.86862 (  7.33%)    -1.04979
      16    103.19    -1.01165 ( 94.78%)    -0.84188 (  5.22%)    -1.00278
      17    108.12    -0.98461 ( 95.63%)    -0.82807 (  4.37%)    -0.97776
      18    115.83    -0.94476 ( 96.64%)    -0.80766 (  3.36%)    -0.94016
      19    123.03    -0.91004 ( 97.34%)    -0.78981 (  2.66%)    -0.90684
      20    128.91    -0.88317 ( 97.79%)    -0.77596 (  2.21%)    -0.88080
      21    142.88    -0.82436 ( 98.52%)    -0.74549 (  1.48%)    -0.82320
      22    155.59    -0.77599 ( 98.94%)    -0.72024 (  1.06%)    -0.77540
      23    159.50    -0.76199 ( 99.04%)    -0.71290 (  0.96%)    -0.76152
      24    178.73    -0.69815 ( 99.39%)    -0.67917 (  0.61%)    -0.69803
      25    189.05    -0.66701 ( 99.51%)    -0.66255 (  0.49%)    -0.66698
      26    212.34    -0.60328 ( 99.69%)    -0.62812 (  0.31%)    -0.60336
      27    232.64    -0.55411 ( 99.79%)    -0.60108 (  0.21%)    -0.55421
      28    248.47    -0.51919 ( 99.84%)    -0.58158 (  0.16%)    -0.51930
      29    270.78    -0.47442 ( 99.88%)    -0.55611 (  0.12%)    -0.47452
      30    276.02    -0.46458 ( 99.89%)    -0.55043 (  0.11%)    -0.46467
      31    290.38    -0.43880 ( 99.91%)    -0.53541 (  0.09%)    -0.43889
   ------------------------------------------------------------------------

   temp. (K)  partition function   enthalpy   heat capacity  entropy
                                   cal/mol     cal/K/mol   cal/K/mol   J/K/mol
 298.15  VIB  0.139E+17            19374.565    105.672    126.578
         ROT  0.133E+08              888.752      2.981     35.576
         INT  0.184E+24            20263.317    108.653    162.154
         TR   0.618E+28             1481.254      4.968     43.384
         TOT                       21744.5708   113.6211   205.5383   859.9721

       T/K    H(0)-H(T)+PV         H(T)/Eh          T*S/Eh         G(T)/Eh
   ------------------------------------------------------------------------
    298.15    0.346522E-01    0.474020E+00    0.976579E-01    0.376362E+00
   ------------------------------------------------------------------------

         :::::::::::::::::::::::::::::::::::::::::::::::::::::
         ::                  THERMODYNAMIC                  ::
         :::::::::::::::::::::::::::::::::::::::::::::::::::::
         :: total free energy         -80.555612187726 Eh   ::
         ::.................................................::
         :: total energy              -80.931974352894 Eh   ::
         :: zero point energy           0.439367842965 Eh   ::
         :: G(RRHO) w/o ZPVE           -0.063005677797 Eh   ::
         :: G(RRHO) contrib.            0.376362165168 Eh   ::
         :::::::::::::::::::::::::::::::::::::::::::::::::::::

           -------------------------------------------------
          | TOTAL ENERGY              -80.931974352894 Eh   |
          | TOTAL ENTHALPY            -80.457954330619 Eh   |
          | TOTAL FREE ENERGY         -80.555612187726 Eh   |
          | GRADIENT NORM               0.000152032294 Eh/α |
          | HOMO-LUMO GAP               5.432191070887 eV   |
           -------------------------------------------------

------------------------------------------------------------------------
 * finished run on 2024/01/10 at 18:34:07.770     
------------------------------------------------------------------------
 total:
 * wall-time:     0 d,  0 h,  0 min, 14.663 sec
 *  cpu-time:     0 d,  0 h,  0 min, 14.565 sec
 * ratio c/w:     0.993 speedup
 SCF:
 * wall-time:     0 d,  0 h,  0 min,  0.101 sec
 *  cpu-time:     0 d,  0 h,  0 min,  0.058 sec
 * ratio c/w:     0.571 speedup
 analytical hessian:
 * wall-time:     0 d,  0 h,  0 min, 14.536 sec
 *  cpu-time:     0 d,  0 h,  0 min, 14.481 sec
 * ratio c/w:     0.996 speedup

