 Entering Gaussian System
 *********************************************
 Gaussian 98:
 frequency output generated by the xtb code
 *********************************************
                         Standard orientation:
 --------------------------------------------------------------------
  Center     Atomic     Atomic              Coordinates (Angstroms)
  Number     Number      Type              X           Y           Z
 --------------------------------------------------------------------
    1          8             0        0.398915   -0.648021   -1.509712
    2          6             0        0.747426   -1.908099   -1.023196
    3          1             0        0.585192   -2.617978   -1.839487
    4          1             0        1.814744   -1.943233   -0.761482
    5          6             0       -0.014452   -2.332278    0.242436
    6          1             0        0.172244   -1.607159    1.041211
    7          1             0        0.371617   -3.305925    0.550515
    8          7             0       -1.491997   -2.441318    0.110960
    9          6             0       -2.019467   -3.055640    1.341866
   10          1             0       -1.724465   -2.444161    2.192964
   11          1             0       -1.626083   -4.062989    1.460582
   12          1             0       -3.104910   -3.097769    1.271980
   13          6             0       -1.892596   -3.260393   -1.041856
   14          1             0       -2.974818   -3.385227   -1.011390
   15          1             0       -1.409922   -4.234995   -0.998016
   16          1             0       -1.622019   -2.760751   -1.968537
   17          6             0       -2.097589   -1.104370   -0.017957
   18          1             0       -1.702491   -0.604819   -0.899250
   19          1             0       -1.850697   -0.525262    0.870057
   20          1             0       -3.175980   -1.221859   -0.101775
   21          1             0        0.690543    0.021336   -0.837559
   22          6             0        5.510224    4.262131   -2.464200
   23          8             0        4.775000    3.512797   -1.835932
   24          7             0        5.112095    4.872172   -3.607473
   25          1             0        4.145178    4.803764   -3.871459
   26          1             0        5.669163    5.580777   -4.049085
   27          7             0        6.774339    4.537062   -2.061177
   28          1             0        7.416407    5.042895   -2.643816
   29          1             0        7.153208    4.005557   -1.297343
   30          6             0        2.342602    1.728372   -0.307009
   31          8             0        1.470930    1.042977    0.249987
   32          7             0        2.509341    1.732820   -1.638579
   33          1             0        1.934003    1.144809   -2.216221
   34          1             0        3.256453    2.284180   -2.035553
   35          7             0        3.171875    2.536052    0.379037
   36          1             0        3.899686    3.023728   -0.121442
   37          1             0        3.165019    2.528212    1.382041
   38          6             0       -6.056912   -2.829232   -0.122518
   39          8             0       -4.835089   -2.808273   -0.086977
   40          7             0       -6.812111   -1.865097    0.457821
   41          1             0       -6.350136   -1.064365    0.849864
   42          1             0       -7.808208   -1.827731    0.343647
   43          7             0       -6.746200   -3.815619   -0.745411
   44          1             0       -7.745024   -3.887952   -0.682553
   45          1             0       -6.237803   -4.605063   -1.101263
   46          6             0       -0.274018    0.303689    3.415276
   47          8             0       -0.699137   -0.640128    2.759386
   48          7             0       -0.746397    0.566618    4.666431
   49          1             0       -1.326716   -0.129734    5.100068
   50          1             0       -0.279525    1.217715    5.271696
   51          7             0        0.672637    1.143403    2.951503
   52          1             0        0.878927    1.991289    3.448390
   53          1             0        0.943408    1.083090    1.968954
 --------------------------------------------------------------------
     1 basis functions        1 primitive gaussians
     1 alpha electrons        1 beta electrons

 Harmonic frequencies (cm**-1), IR intensities (km*mol⁻¹),
 Raman scattering activities (A**4/amu), Raman depolarization ratios,
 reduced masses (AMU), force constants (mDyne/A) and normal coordinates:
                      1                      2                      3
                        a                      a                      a 
 Frequencies --    -7.1634                 5.8577                 8.0104
 Red. masses --    11.0088                11.9122                11.7271
 Frc consts  --     0.0000                 0.0000                 0.0000
 IR Inten    --     0.0629                 0.6347                 1.2172
 Raman Activ --     0.0000                 0.0000                 0.0000
 Depolar     --     0.0000                 0.0000                 0.0000
 Atom AN      X      Y      Z        X      Y      Z        X      Y      Z
   1   8    -0.04   0.04  -0.01    -0.14   0.20  -0.05    -0.15   0.15  -0.10
   2   6    -0.03   0.03  -0.04    -0.06   0.17  -0.09    -0.07   0.13  -0.13
   3   1    -0.01   0.01  -0.01    -0.02   0.05  -0.03    -0.03   0.04  -0.04
   4   1    -0.01   0.01  -0.02    -0.02   0.06  -0.04    -0.02   0.04  -0.05
   5   6    -0.01   0.01  -0.03    -0.01   0.11  -0.08    -0.01   0.07  -0.11
   6   1     0.00  -0.00  -0.01    -0.00   0.03  -0.02    -0.00   0.02  -0.03
   7   1    -0.00   0.00  -0.02     0.01   0.04  -0.03     0.01   0.02  -0.04
   8   7    -0.01   0.01  -0.01    -0.01   0.06  -0.04    -0.02   0.04  -0.06
   9   6     0.01  -0.01  -0.01     0.05   0.01  -0.03     0.05  -0.01  -0.05
  10   1     0.01  -0.01  -0.00     0.01   0.00  -0.01     0.02  -0.01  -0.01
  11   1     0.00  -0.00  -0.01     0.03   0.01  -0.02     0.03  -0.00  -0.03
  12   1     0.00  -0.00   0.00     0.01  -0.01  -0.00     0.01  -0.01  -0.00
  13   6    -0.03   0.03  -0.01    -0.01   0.06  -0.04    -0.03   0.05  -0.06
  14   1    -0.01   0.01   0.00     0.00   0.00  -0.00    -0.01   0.00  -0.00
  15   1    -0.01   0.01  -0.01     0.01   0.02  -0.02    -0.00   0.02  -0.03
  16   1    -0.01   0.01  -0.00    -0.02   0.02  -0.01    -0.03   0.02  -0.02
  17   6    -0.01   0.01   0.02    -0.07   0.03   0.00    -0.06   0.02  -0.00
  18   1    -0.01   0.01   0.01    -0.03   0.02   0.00    -0.03   0.01  -0.00
  19   1     0.00  -0.00   0.01    -0.02   0.01   0.00    -0.01   0.00   0.00
  20   1    -0.00   0.00   0.01    -0.02  -0.00   0.01    -0.02  -0.00   0.01
  21   1    -0.01   0.01  -0.00    -0.03   0.05  -0.01    -0.04   0.03  -0.02
  22   6     0.00   0.01   0.02     0.12  -0.11   0.03     0.12  -0.04   0.08
  23   8     0.00   0.01   0.01     0.14  -0.10   0.06     0.02   0.01   0.01
  24   7     0.00   0.03   0.03    -0.03   0.19   0.24     0.41  -0.31  -0.15
  25   1     0.00   0.01   0.01    -0.03   0.11   0.12     0.13  -0.12  -0.11
  26   1     0.00   0.01   0.01    -0.00   0.05   0.07     0.13  -0.09  -0.03
  27   7     0.01  -0.01   0.01     0.28  -0.44  -0.22    -0.01   0.15   0.40
  28   1     0.00  -0.00   0.01     0.06  -0.12  -0.07     0.03   0.02   0.13
  29   1     0.00  -0.01   0.00     0.09  -0.17  -0.11    -0.05   0.09   0.16
  30   6    -0.00   0.01   0.00    -0.02   0.07   0.01    -0.05   0.05  -0.05
  31   8    -0.01   0.01   0.00    -0.08   0.12  -0.01    -0.11   0.10  -0.08
  32   7    -0.02   0.03   0.00    -0.03   0.12   0.01    -0.02   0.03  -0.05
  33   1    -0.01   0.01  -0.00    -0.02   0.05  -0.00    -0.01   0.02  -0.02
  34   1    -0.00   0.01   0.00     0.00   0.02   0.01    -0.00   0.01  -0.01
  35   7     0.01  -0.01   0.01     0.04  -0.01   0.04    -0.03   0.01  -0.04
  36   1     0.00  -0.00   0.00     0.02  -0.02   0.02    -0.01   0.00  -0.01
  37   1     0.01  -0.01   0.00     0.01  -0.02   0.01    -0.02   0.01  -0.01
  38   6    -0.01  -0.00  -0.01     0.00  -0.16   0.06    -0.01  -0.11   0.13
  39   8    -0.02   0.02   0.04     0.00  -0.11   0.05    -0.01  -0.08   0.09
  40   7    -0.05   0.30  -0.55    -0.04  -0.24   0.11    -0.02  -0.15   0.19
  41   1    -0.02   0.14  -0.26    -0.02  -0.06   0.03    -0.01  -0.04   0.05
  42   1    -0.01   0.06  -0.17    -0.01  -0.08   0.03    -0.01  -0.05   0.06
  43   7     0.02  -0.34   0.48     0.05  -0.20   0.05    -0.01  -0.13   0.16
  44   1     0.00  -0.08   0.13     0.02  -0.07   0.02    -0.00  -0.04   0.05
  45   1     0.01  -0.14   0.25     0.02  -0.04   0.00    -0.00  -0.03   0.03
  46   6     0.04  -0.04   0.01    -0.04   0.05  -0.02     0.01   0.00  -0.04
  47   8     0.05  -0.04   0.00    -0.02   0.05  -0.03     0.03  -0.01  -0.05
  48   7     0.05  -0.06   0.02    -0.06   0.04  -0.03     0.02  -0.03  -0.03
  49   1     0.01  -0.02   0.00    -0.01   0.01  -0.01     0.02  -0.02  -0.01
  50   1     0.01  -0.02   0.01    -0.02   0.01  -0.01     0.00  -0.00  -0.01
  51   7     0.03  -0.03   0.01    -0.07   0.08  -0.01    -0.04   0.05  -0.06
  52   1     0.01  -0.01   0.01    -0.03   0.03  -0.00    -0.02   0.02  -0.02
  53   1     0.01  -0.00   0.00    -0.02   0.03  -0.00    -0.02   0.02  -0.02
                      4                      5                      6
                        a                      a                      a 
 Frequencies --    13.0627                16.9317                17.8973
 Red. masses --    12.1472                12.1721                11.9189
 Frc consts  --     0.0000                 0.0000                 0.0000
 IR Inten    --     3.2010                 2.2841                 0.3796
 Raman Activ --     0.0000                 0.0000                 0.0000
 Depolar     --     0.0000                 0.0000                 0.0000
 Atom AN      X      Y      Z        X      Y      Z        X      Y      Z
   1   8     0.03  -0.19  -0.10    -0.01   0.10  -0.01     0.06   0.02  -0.06
   2   6     0.00  -0.15  -0.04    -0.04   0.06  -0.06     0.10   0.03  -0.06
   3   1    -0.00  -0.05  -0.00    -0.02   0.03  -0.02     0.04   0.01  -0.02
   4   1     0.00  -0.05  -0.01    -0.01   0.00  -0.02     0.03   0.02  -0.01
   5   6    -0.00  -0.09  -0.02    -0.04   0.04  -0.06     0.10  -0.01  -0.07
   6   1     0.00  -0.02  -0.02    -0.01   0.01  -0.02     0.02  -0.01  -0.02
   7   1    -0.00  -0.02   0.01    -0.01   0.01  -0.02     0.04  -0.00  -0.02
   8   7    -0.00  -0.08  -0.01    -0.04   0.05  -0.06     0.12  -0.06  -0.09
   9   6    -0.01  -0.01   0.02    -0.04   0.05  -0.05     0.12  -0.10  -0.10
  10   1     0.00   0.01  -0.00    -0.01   0.02  -0.02     0.03  -0.03  -0.03
  11   1    -0.00  -0.00   0.02    -0.01   0.02  -0.01     0.04  -0.03  -0.04
  12   1    -0.00  -0.00   0.01    -0.01   0.01  -0.02     0.03  -0.04  -0.03
  13   6    -0.02  -0.13   0.03    -0.05   0.04  -0.05     0.14  -0.04  -0.11
  14   1    -0.00  -0.03   0.01    -0.01   0.01  -0.01     0.04  -0.02  -0.04
  15   1    -0.01  -0.04   0.02    -0.01   0.01  -0.01     0.05  -0.01  -0.04
  16   1    -0.00  -0.05   0.00    -0.02   0.01  -0.02     0.04  -0.00  -0.03
  17   6     0.01  -0.07  -0.08    -0.04   0.04  -0.07     0.07  -0.07  -0.06
  18   1     0.01  -0.04  -0.03    -0.01   0.01  -0.02     0.02  -0.01  -0.01
  19   1     0.01  -0.01  -0.03    -0.01   0.01  -0.02     0.01  -0.02  -0.01
  20   1     0.00  -0.02  -0.02    -0.01   0.01  -0.02     0.02  -0.03  -0.02
  21   1     0.01  -0.04  -0.03     0.01   0.01   0.00    -0.00   0.01  -0.01
  22   6     0.03   0.13   0.15    -0.01   0.02   0.01    -0.03  -0.10   0.01
  23   8    -0.00   0.03  -0.01     0.26  -0.17   0.10     0.03  -0.07   0.16
  24   7     0.07   0.39   0.28    -0.28  -0.14   0.02    -0.15  -0.22  -0.01
  25   1     0.02   0.12   0.06    -0.07  -0.11   0.02    -0.05  -0.07   0.02
  26   1     0.03   0.12   0.12    -0.14  -0.00  -0.02    -0.05  -0.07  -0.03
  27   7     0.03   0.02   0.24    -0.06   0.39  -0.11    -0.01  -0.05  -0.12
  28   1     0.01   0.03   0.10    -0.07   0.14  -0.05    -0.02  -0.02  -0.06
  29   1     0.00  -0.04   0.04     0.04   0.14  -0.03     0.02   0.01  -0.03
  30   6     0.03  -0.10  -0.11     0.20  -0.11   0.08    -0.10   0.06   0.06
  31   8     0.04  -0.14  -0.15     0.18  -0.09   0.06    -0.15   0.07   0.01
  32   7     0.04  -0.09  -0.12     0.20  -0.04   0.08    -0.02   0.05   0.08
  33   1     0.01  -0.02  -0.04     0.04   0.01   0.02     0.01   0.01   0.01
  34   1     0.00  -0.01  -0.03     0.07  -0.02   0.03     0.01   0.01   0.03
  35   7     0.00  -0.09  -0.11     0.28  -0.21   0.12    -0.16   0.08   0.11
  36   1    -0.00  -0.02  -0.03     0.08  -0.07   0.04    -0.03   0.01   0.04
  37   1     0.00  -0.03  -0.03     0.08  -0.08   0.03    -0.06   0.02   0.03
  38   6    -0.01   0.04   0.14    -0.04  -0.06   0.05     0.11   0.12   0.09
  39   8    -0.01  -0.02   0.07    -0.05  -0.00  -0.02     0.14  -0.03  -0.05
  40   7     0.08   0.10   0.18    -0.06  -0.10   0.09     0.32   0.26   0.13
  41   1     0.04   0.02   0.03    -0.02  -0.02   0.01     0.13   0.06   0.01
  42   1     0.02   0.04   0.07    -0.02  -0.04   0.04     0.08   0.10   0.07
  43   7    -0.11   0.05   0.24    -0.03  -0.11   0.12    -0.08   0.19   0.23
  44   1    -0.03   0.03   0.08    -0.01  -0.04   0.05    -0.02   0.09   0.09
  45   1    -0.05   0.00   0.06    -0.00  -0.02   0.03    -0.06   0.03   0.05
  46   6    -0.04   0.09  -0.14    -0.06   0.05  -0.05    -0.14  -0.03  -0.03
  47   8    -0.02   0.05  -0.10    -0.08   0.07  -0.08    -0.02  -0.10  -0.03
  48   7    -0.10   0.19  -0.19    -0.16   0.11  -0.10    -0.21  -0.08  -0.05
  49   1    -0.03   0.06  -0.04    -0.06   0.04  -0.04    -0.04  -0.04  -0.01
  50   1    -0.03   0.06  -0.06    -0.04   0.02  -0.02    -0.08  -0.01  -0.01
  51   7    -0.03   0.06  -0.17     0.02  -0.01   0.00    -0.24   0.07  -0.02
  52   1    -0.02   0.03  -0.06     0.01  -0.00   0.00    -0.09   0.03  -0.01
  53   1     0.00  -0.00  -0.04     0.02  -0.01   0.01    -0.05   0.02  -0.00
                      7                      8                      9
                        a                      a                      a 
 Frequencies --    24.5430                30.8841                34.5293
 Red. masses --    13.0048                11.7500                12.4741
 Frc consts  --     0.0000                 0.0000                 0.0000
 IR Inten    --     1.7836                 2.0256                 1.8605
 Raman Activ --     0.0000                 0.0000                 0.0000
 Depolar     --     0.0000                 0.0000                 0.0000
 Atom AN      X      Y      Z        X      Y      Z        X      Y      Z
   1   8     0.10   0.07   0.15     0.24  -0.16  -0.03    -0.12   0.19   0.13
   2   6     0.01   0.01   0.05     0.11  -0.13   0.07    -0.04   0.17   0.07
   3   1    -0.00   0.02  -0.00     0.04  -0.05   0.03     0.00   0.06   0.01
   4   1     0.00  -0.02   0.02     0.02  -0.05   0.05    -0.01   0.06   0.02
   5   6    -0.04  -0.04   0.00    -0.03  -0.02   0.03    -0.03   0.08   0.04
   6   1    -0.02  -0.02   0.01    -0.01  -0.00   0.01    -0.03   0.02   0.02
   7   1    -0.01  -0.01  -0.00    -0.04  -0.01   0.02     0.01   0.03   0.01
   8   7    -0.04  -0.04  -0.06    -0.03   0.11  -0.09    -0.02  -0.03   0.01
   9   6    -0.08  -0.02  -0.07    -0.16   0.14  -0.12    -0.00  -0.06   0.00
  10   1    -0.03  -0.00  -0.02    -0.05   0.03  -0.03    -0.02  -0.01   0.00
  11   1    -0.02  -0.00  -0.01    -0.07   0.03  -0.03     0.02  -0.01   0.00
  12   1    -0.02  -0.01  -0.03    -0.05   0.07  -0.06     0.00  -0.04  -0.01
  13   6     0.01  -0.05  -0.06    -0.01   0.13  -0.11     0.05  -0.05   0.00
  14   1     0.00  -0.02  -0.03    -0.01   0.06  -0.05     0.02  -0.04  -0.01
  15   1     0.00  -0.01  -0.01    -0.03   0.03  -0.02     0.04  -0.00   0.00
  16   1     0.01  -0.02  -0.02     0.03   0.03  -0.03     0.01  -0.01   0.00
  17   6    -0.02  -0.04  -0.10     0.09   0.15  -0.12    -0.11  -0.06   0.00
  18   1     0.01  -0.01  -0.02     0.05   0.03  -0.03    -0.04  -0.01   0.00
  19   1    -0.02  -0.01  -0.03     0.02   0.04  -0.03    -0.05  -0.01   0.00
  20   1    -0.01  -0.01  -0.04     0.02   0.07  -0.05    -0.03  -0.04  -0.01
  21   1     0.04   0.00   0.05     0.04  -0.03  -0.01    -0.03   0.05   0.04
  22   6     0.03   0.09  -0.12     0.01   0.00   0.02     0.04   0.04  -0.07
  23   8    -0.19   0.36  -0.09     0.02   0.05   0.09     0.07  -0.11  -0.24
  24   7     0.24   0.05  -0.23    -0.02  -0.02   0.03     0.04   0.19   0.01
  25   1     0.06   0.07  -0.07    -0.01   0.00   0.02     0.02   0.04  -0.02
  26   1     0.11  -0.03  -0.07    -0.01  -0.01  -0.01     0.00   0.08   0.03
  27   7     0.07  -0.14  -0.09     0.05  -0.03  -0.05     0.00   0.08   0.02
  28   1     0.06  -0.09  -0.03     0.01  -0.02  -0.02    -0.00   0.05   0.03
  29   1    -0.03  -0.04   0.00     0.02  -0.01  -0.01     0.00  -0.01  -0.02
  30   6     0.13   0.03   0.10    -0.03   0.02  -0.00     0.07  -0.02  -0.03
  31   8     0.29  -0.09   0.19    -0.06   0.04  -0.03    -0.04   0.22   0.06
  32   7    -0.03   0.14   0.09     0.23  -0.23   0.03     0.29  -0.47  -0.00
  33   1    -0.02   0.04   0.03     0.10  -0.10   0.01     0.06  -0.13   0.02
  34   1    -0.04   0.07   0.01     0.06  -0.05   0.01     0.07  -0.13  -0.03
  35   7     0.16   0.06   0.06    -0.24   0.25  -0.01     0.05   0.12  -0.16
  36   1     0.01   0.05  -0.00    -0.06   0.06   0.01     0.02   0.01  -0.06
  37   1     0.07   0.00   0.02    -0.12   0.12  -0.00    -0.04   0.14  -0.04
  38   6    -0.04  -0.04   0.04    -0.05  -0.02   0.05     0.00  -0.04  -0.02
  39   8    -0.04  -0.07  -0.11    -0.06   0.23  -0.20     0.01  -0.22  -0.06
  40   7     0.05  -0.02   0.11    -0.14  -0.17   0.19     0.15   0.07  -0.02
  41   1     0.03  -0.00   0.01    -0.06  -0.01   0.01     0.07   0.00  -0.01
  42   1     0.01   0.00   0.06    -0.04  -0.09   0.09     0.04   0.05   0.00
  43   7    -0.13  -0.05   0.16     0.02  -0.18   0.22    -0.15   0.05  -0.00
  44   1    -0.03  -0.01   0.07     0.01  -0.10   0.10    -0.04   0.05   0.00
  45   1    -0.05  -0.02   0.03     0.03  -0.02   0.03    -0.07  -0.00  -0.00
  46   6    -0.11  -0.05  -0.01     0.01  -0.03   0.01    -0.06  -0.04   0.05
  47   8    -0.18   0.02  -0.08    -0.04   0.01  -0.02    -0.15   0.04  -0.02
  48   7    -0.24  -0.00  -0.06     0.11  -0.12   0.06     0.03  -0.16   0.11
  49   1    -0.10   0.02  -0.04     0.03  -0.04   0.01     0.00  -0.05   0.02
  50   1    -0.06  -0.02   0.00     0.04  -0.04   0.02     0.02  -0.06   0.04
  51   7     0.05  -0.17   0.12    -0.03  -0.01  -0.02    -0.07  -0.02   0.09
  52   1     0.03  -0.06   0.05     0.01  -0.01   0.01     0.01  -0.03   0.05
  53   1     0.04  -0.05   0.04    -0.02   0.01  -0.01    -0.02   0.02   0.02
                     10                     11                     12
                        a                      a                      a 
 Frequencies --    37.8367                44.6228                49.2900
 Red. masses --    12.3795                12.9646                13.0550
 Frc consts  --     0.0000                 0.0000                 0.0000
 IR Inten    --     3.9438                 1.7681                 1.4603
 Raman Activ --     0.0000                 0.0000                 0.0000
 Depolar     --     0.0000                 0.0000                 0.0000
 Atom AN      X      Y      Z        X      Y      Z        X      Y      Z
   1   8     0.04  -0.06  -0.02     0.13   0.00   0.10     0.03  -0.08   0.17
   2   6     0.03  -0.01   0.10     0.11   0.01   0.11    -0.03  -0.10   0.10
   3   1     0.03  -0.02   0.04     0.05   0.00   0.03    -0.01  -0.02   0.02
   4   1     0.00   0.01   0.05     0.03   0.01   0.05    -0.01  -0.04   0.03
   5   6    -0.04   0.07   0.08     0.04   0.00   0.06    -0.06  -0.15   0.07
   6   1    -0.04   0.04   0.01     0.01  -0.01   0.03    -0.02  -0.06   0.03
   7   1    -0.01   0.03   0.06    -0.00  -0.01   0.01    -0.02  -0.05   0.01
   8   7    -0.03  -0.00  -0.01     0.04   0.06  -0.02    -0.07  -0.12   0.05
   9   6    -0.09   0.10   0.02    -0.04  -0.00  -0.09    -0.09  -0.12   0.04
  10   1    -0.05   0.06  -0.01    -0.02  -0.02  -0.01    -0.02  -0.04   0.01
  11   1    -0.02   0.04   0.04    -0.02  -0.01  -0.04    -0.03  -0.04   0.01
  12   1    -0.02   0.01  -0.02    -0.01   0.01  -0.04    -0.03  -0.02   0.01
  13   6     0.08  -0.14   0.05     0.08   0.15  -0.10    -0.07  -0.09   0.04
  14   1     0.03  -0.05  -0.00     0.02   0.05  -0.05    -0.02  -0.02   0.01
  15   1     0.04  -0.03   0.05     0.01   0.04  -0.04    -0.03  -0.03   0.01
  16   1     0.04  -0.07   0.00     0.04   0.06  -0.01    -0.01  -0.03   0.01
  17   6    -0.07  -0.04  -0.19     0.08   0.08   0.03    -0.03  -0.10   0.06
  18   1    -0.01  -0.03  -0.06     0.04   0.04   0.02     0.00  -0.03   0.02
  19   1    -0.05   0.02  -0.07     0.02   0.01   0.02    -0.01  -0.03   0.02
  20   1    -0.02  -0.03  -0.07     0.02   0.03  -0.00    -0.01  -0.02   0.01
  21   1    -0.01   0.00  -0.02     0.02   0.00   0.03     0.03  -0.02   0.03
  22   6     0.03  -0.06   0.05    -0.02  -0.10  -0.06     0.19   0.05  -0.04
  23   8     0.13  -0.15   0.07     0.03  -0.40  -0.36     0.36  -0.06  -0.02
  24   7    -0.05  -0.08   0.08     0.01   0.12   0.04     0.06   0.04  -0.00
  25   1    -0.01  -0.05   0.03     0.02  -0.00  -0.03     0.02  -0.02   0.01
  26   1    -0.03  -0.01   0.02    -0.01   0.08   0.07    -0.01   0.03  -0.00
  27   7     0.02   0.05   0.03    -0.12   0.02   0.17     0.19   0.22  -0.10
  28   1    -0.01   0.03   0.01    -0.03   0.06   0.09     0.02   0.08  -0.04
  29   1     0.02   0.02   0.00    -0.03  -0.04   0.02     0.08   0.06  -0.04
  30   6    -0.09   0.10  -0.04    -0.04   0.01  -0.04     0.04   0.19  -0.04
  31   8    -0.08   0.07  -0.07     0.01   0.05   0.09     0.13   0.14  -0.05
  32   7    -0.19   0.28  -0.05    -0.34   0.12  -0.08    -0.02   0.30  -0.06
  33   1    -0.04   0.06  -0.02    -0.10   0.02   0.00     0.02   0.05  -0.01
  34   1    -0.03   0.05  -0.00    -0.07  -0.01  -0.05     0.01   0.06  -0.01
  35   7    -0.05   0.03  -0.00     0.16  -0.10  -0.16    -0.01   0.28  -0.05
  36   1    -0.00  -0.00   0.01     0.04  -0.05  -0.07     0.01   0.05  -0.01
  37   1     0.01  -0.03  -0.00     0.10  -0.05  -0.04     0.03   0.03  -0.01
  38   6    -0.01  -0.06  -0.04     0.05   0.04  -0.01    -0.12  -0.01   0.01
  39   8    -0.00  -0.20  -0.19     0.06   0.19  -0.18    -0.14  -0.04   0.04
  40   7     0.16   0.02   0.03     0.02  -0.05   0.08    -0.12   0.00  -0.00
  41   1     0.08  -0.00  -0.01    -0.01   0.01  -0.00    -0.03  -0.00   0.00
  42   1     0.04   0.03   0.04     0.00  -0.04   0.05    -0.03   0.01  -0.01
  43   7    -0.18  -0.01   0.06     0.09  -0.05   0.09    -0.14   0.01  -0.02
  44   1    -0.05   0.03   0.04     0.03  -0.04   0.05    -0.04   0.01  -0.01
  45   1    -0.08  -0.02  -0.00     0.04   0.00   0.00    -0.04  -0.00   0.00
  46   6     0.07   0.04  -0.00    -0.08  -0.04   0.07    -0.01  -0.09  -0.04
  47   8    -0.26   0.27  -0.11    -0.03  -0.08   0.09     0.15  -0.21   0.01
  48   7     0.27  -0.01   0.08    -0.15  -0.03   0.05    -0.01  -0.15  -0.03
  49   1     0.02   0.03   0.01    -0.04  -0.01   0.01     0.04  -0.07   0.00
  50   1     0.13  -0.06   0.03    -0.05   0.00   0.01    -0.03  -0.01  -0.02
  51   7     0.29  -0.17   0.04    -0.11  -0.02   0.09    -0.21   0.09  -0.12
  52   1     0.15  -0.08   0.04    -0.04  -0.00   0.02    -0.08   0.03  -0.03
  53   1     0.04  -0.02  -0.00    -0.02  -0.00   0.03    -0.04   0.02  -0.03
                     13                     14                     15
                        a                      a                      a 
 Frequencies --    57.9835                66.5730                72.4104
 Red. masses --    12.6826                11.3734                13.6458
 Frc consts  --     0.0000                 0.0000                 0.0000
 IR Inten    --     2.4996                 3.9933                 4.0592
 Raman Activ --     0.0000                 0.0000                 0.0000
 Depolar     --     0.0000                 0.0000                 0.0000
 Atom AN      X      Y      Z        X      Y      Z        X      Y      Z
   1   8     0.03   0.10   0.03    -0.14  -0.06  -0.01     0.08   0.06   0.05
   2   6    -0.03   0.01  -0.12     0.01   0.02   0.10    -0.01  -0.00  -0.04
   3   1    -0.04   0.03  -0.05     0.04  -0.02   0.04    -0.02   0.02  -0.02
   4   1    -0.01  -0.02  -0.05    -0.00   0.05   0.04    -0.00  -0.03  -0.02
   5   6     0.02  -0.04  -0.10    -0.01   0.01   0.09     0.00  -0.01  -0.04
   6   1     0.02  -0.02  -0.02    -0.01  -0.00   0.03     0.02  -0.01  -0.01
   7   1     0.01  -0.02  -0.05    -0.01   0.00   0.02    -0.01  -0.01  -0.02
   8   7     0.01  -0.04  -0.04    -0.01   0.03   0.05    -0.01   0.06  -0.02
   9   6     0.07   0.00   0.01    -0.02  -0.21  -0.08    -0.01   0.08  -0.01
  10   1     0.03   0.01  -0.01    -0.01  -0.11   0.01     0.01   0.02  -0.00
  11   1     0.02   0.00   0.01    -0.00  -0.07  -0.08    -0.01   0.02  -0.00
  12   1     0.02   0.00   0.02    -0.01  -0.06  -0.03    -0.00   0.03   0.00
  13   6    -0.05  -0.07   0.01     0.02   0.26  -0.13    -0.06   0.07  -0.01
  14   1    -0.02  -0.01   0.02     0.01   0.07  -0.05    -0.02   0.02   0.00
  15   1    -0.02  -0.02   0.01     0.01   0.08  -0.10    -0.02   0.02  -0.01
  16   1    -0.03  -0.03  -0.01     0.01   0.14  -0.00    -0.02   0.02  -0.01
  17   6     0.02  -0.03  -0.04    -0.02   0.05   0.30     0.05   0.08  -0.00
  18   1    -0.01  -0.02  -0.02    -0.00   0.06   0.12     0.02   0.02  -0.00
  19   1     0.02  -0.00  -0.02    -0.01  -0.04   0.12     0.02   0.02  -0.00
  20   1     0.00  -0.01   0.01    -0.00   0.01   0.07     0.01   0.04  -0.00
  21   1     0.01   0.00   0.03    -0.03   0.01  -0.03     0.03  -0.00   0.03
  22   6    -0.00  -0.09   0.01     0.04   0.03   0.02    -0.09  -0.08   0.02
  23   8     0.07  -0.26  -0.08     0.07   0.06   0.09    -0.13  -0.12  -0.04
  24   7    -0.05  -0.02   0.08    -0.00  -0.02   0.01    -0.06  -0.03   0.04
  25   1    -0.01  -0.03   0.01    -0.00  -0.01   0.01    -0.01  -0.01  -0.00
  26   1    -0.03   0.02   0.04    -0.00  -0.01  -0.01    -0.01  -0.01   0.02
  27   7    -0.04  -0.00   0.07     0.06   0.04  -0.05    -0.11  -0.10   0.09
  28   1    -0.02   0.03   0.03     0.01   0.01  -0.02    -0.02  -0.02   0.04
  29   1    -0.00  -0.02   0.00     0.02   0.02  -0.01    -0.04  -0.04   0.02
  30   6    -0.04   0.08   0.03    -0.02   0.00  -0.08     0.03  -0.02   0.08
  31   8     0.12  -0.04   0.13    -0.03  -0.02  -0.15     0.14  -0.10   0.15
  32   7    -0.05  -0.05   0.04     0.07  -0.01  -0.08    -0.04  -0.02   0.08
  33   1     0.03  -0.07   0.03     0.03  -0.01  -0.03    -0.00  -0.03   0.03
  34   1    -0.02  -0.02  -0.00     0.02   0.00  -0.01    -0.02  -0.00   0.01
  35   7    -0.28   0.42  -0.07    -0.11   0.06  -0.05    -0.04   0.11   0.04
  36   1    -0.06   0.08  -0.03    -0.02   0.02  -0.00    -0.01   0.02   0.00
  37   1    -0.04   0.10  -0.02    -0.04   0.01  -0.01     0.02   0.01   0.01
  38   6     0.01   0.03   0.06    -0.00  -0.04  -0.05    -0.11  -0.12  -0.10
  39   8     0.01   0.06   0.24     0.00  -0.11  -0.18    -0.12  -0.31  -0.27
  40   7    -0.09   0.01  -0.03     0.10  -0.01   0.01     0.09  -0.02  -0.01
  41   1    -0.04   0.00   0.02     0.05  -0.01  -0.01     0.07  -0.02  -0.02
  42   1    -0.02  -0.00  -0.04     0.02   0.01   0.03     0.02   0.03   0.03
  43   7     0.11   0.03  -0.05    -0.11  -0.02   0.02    -0.34  -0.03  -0.01
  44   1     0.03  -0.00  -0.04    -0.03   0.01   0.02    -0.09   0.03   0.03
  45   1     0.05   0.01   0.01    -0.05  -0.01  -0.01    -0.13  -0.03  -0.02
  46   6     0.04  -0.02  -0.05     0.02  -0.03   0.05     0.19   0.10  -0.00
  47   8     0.05   0.04  -0.14    -0.03  -0.15   0.26     0.47  -0.01   0.02
  48   7    -0.24   0.10  -0.18    -0.09   0.37  -0.08     0.05   0.09  -0.05
  49   1    -0.12   0.05  -0.08    -0.05   0.14   0.01     0.05  -0.01  -0.01
  50   1    -0.07   0.00  -0.02    -0.01   0.11  -0.05    -0.03   0.05  -0.01
  51   7     0.33  -0.22   0.18     0.21  -0.28  -0.04     0.05   0.29   0.01
  52   1     0.08  -0.06   0.05     0.05  -0.04  -0.06    -0.04   0.10  -0.01
  53   1     0.10  -0.05   0.05     0.04  -0.10  -0.01     0.04   0.06   0.01
                     16                     17                     18
                        a                      a                      a 
 Frequencies --    80.1360                87.4338                98.9550
 Red. masses --    13.7162                13.7916                11.8503
 Frc consts  --     0.0000                 0.0000                 0.0000
 IR Inten    --     4.3483                 3.3512                17.5766
 Raman Activ --     0.0000                 0.0000                 0.0000
 Depolar     --     0.0000                 0.0000                 0.0000
 Atom AN      X      Y      Z        X      Y      Z        X      Y      Z
   1   8     0.12  -0.06  -0.11     0.25  -0.12   0.01     0.01   0.04   0.09
   2   6     0.01  -0.07  -0.08     0.16  -0.08   0.10     0.14   0.06   0.06
   3   1    -0.02  -0.02  -0.02     0.07  -0.03   0.03     0.07   0.02   0.01
   4   1     0.00  -0.04  -0.03     0.04  -0.02   0.06     0.04   0.05   0.03
   5   6    -0.00   0.03  -0.06     0.04  -0.02   0.05     0.13  -0.06   0.01
   6   1     0.02   0.01  -0.03     0.01  -0.01   0.02     0.02  -0.02   0.01
   7   1    -0.02   0.00  -0.01    -0.01  -0.01   0.02     0.05  -0.02  -0.01
   8   7    -0.01   0.13  -0.04     0.04   0.08  -0.05     0.15  -0.14  -0.03
   9   6    -0.01   0.05  -0.07    -0.06   0.06  -0.09     0.16  -0.34  -0.12
  10   1    -0.00   0.00  -0.01    -0.02   0.01  -0.02     0.03  -0.12  -0.01
  11   1    -0.01   0.01  -0.04    -0.03   0.01  -0.03     0.06  -0.09  -0.07
  12   1    -0.00   0.02  -0.02    -0.02   0.03  -0.04     0.05  -0.11  -0.04
  13   6    -0.07   0.22  -0.09     0.04   0.14  -0.09     0.17   0.03  -0.16
  14   1    -0.02   0.06  -0.01     0.01   0.05  -0.03     0.05   0.00  -0.06
  15   1    -0.02   0.06  -0.06     0.00   0.04  -0.04     0.05   0.01  -0.09
  16   1    -0.04   0.09  -0.02     0.03   0.05  -0.02     0.05   0.05  -0.02
  17   6     0.06   0.16   0.06     0.12   0.11  -0.03     0.05  -0.15   0.16
  18   1     0.02   0.06   0.03     0.04   0.03  -0.01     0.00  -0.00   0.06
  19   1     0.02   0.02   0.03     0.04   0.03  -0.01     0.01  -0.07   0.07
  20   1     0.01   0.06   0.02     0.03   0.05  -0.01     0.02  -0.06   0.05
  21   1     0.05  -0.03  -0.02     0.02  -0.01   0.01     0.00   0.01   0.02
  22   6     0.02  -0.02  -0.01     0.00   0.03  -0.01    -0.07  -0.05   0.04
  23   8     0.04  -0.07  -0.05    -0.01   0.05  -0.01    -0.10  -0.05   0.03
  24   7     0.00   0.01   0.01     0.02   0.02  -0.02    -0.06  -0.05   0.04
  25   1     0.00  -0.01  -0.00     0.00   0.01  -0.01    -0.01  -0.01   0.01
  26   1    -0.00   0.01   0.01     0.01   0.00  -0.01    -0.01  -0.02   0.01
  27   7     0.00   0.01   0.01     0.01   0.01  -0.02    -0.08  -0.08   0.06
  28   1    -0.00   0.01   0.01     0.00  -0.00  -0.01    -0.02  -0.02   0.02
  29   1     0.00  -0.00  -0.00    -0.00   0.00  -0.00    -0.03  -0.02   0.02
  30   6     0.06  -0.06  -0.01    -0.07   0.05  -0.00     0.05   0.02   0.02
  31   8     0.28  -0.31   0.02    -0.30   0.31  -0.04     0.09  -0.00   0.04
  32   7    -0.04   0.07  -0.02     0.01  -0.03   0.00     0.03   0.02   0.02
  33   1     0.03  -0.02  -0.00    -0.02   0.02  -0.00     0.00   0.00   0.01
  34   1    -0.02   0.03  -0.01     0.02  -0.03   0.00     0.00   0.01   0.00
  35   7    -0.12   0.16  -0.03     0.15  -0.21   0.02     0.04   0.05   0.01
  36   1    -0.03   0.04  -0.01     0.04  -0.05   0.01     0.01   0.02   0.00
  37   1     0.02  -0.02  -0.01    -0.02   0.01   0.01     0.02   0.01   0.00
  38   6     0.04  -0.09   0.08    -0.11  -0.08   0.11    -0.18   0.05   0.02
  39   8     0.04  -0.32   0.34    -0.13  -0.30   0.41    -0.21   0.13   0.04
  40   7     0.10   0.04  -0.09    -0.10   0.04  -0.07    -0.28  -0.01   0.02
  41   1     0.04  -0.02   0.03    -0.02  -0.02   0.02    -0.09   0.02  -0.01
  42   1     0.03   0.04  -0.05    -0.02   0.05  -0.07    -0.07  -0.01  -0.03
  43   7     0.00   0.03  -0.07    -0.14   0.04  -0.08    -0.13   0.01  -0.01
  44   1    -0.01   0.05  -0.06    -0.04   0.04  -0.06    -0.03  -0.02   0.02
  45   1    -0.02  -0.02   0.02    -0.05  -0.02   0.03    -0.02   0.00   0.02
  46   6    -0.13   0.02   0.06     0.02  -0.03  -0.04     0.00   0.14  -0.09
  47   8    -0.32   0.08   0.08     0.09  -0.01  -0.12    -0.17   0.28  -0.17
  48   7     0.13  -0.06   0.18    -0.16  -0.05  -0.11     0.20   0.01   0.01
  49   1     0.04  -0.01   0.06    -0.06  -0.02  -0.05     0.04   0.01  -0.01
  50   1     0.06  -0.02   0.03    -0.06  -0.02  -0.01     0.08  -0.02   0.01
  51   7    -0.23   0.03  -0.08     0.13  -0.07   0.11     0.01   0.13  -0.10
  52   1     0.00  -0.02  -0.01     0.00  -0.01   0.03     0.05   0.01   0.00
  53   1    -0.05  -0.01  -0.01     0.02   0.01   0.02    -0.00   0.04  -0.03
                     19                     20                     21
                        a                      a                      a 
 Frequencies --   100.9068               112.9536               117.8195
 Red. masses --    12.3254                11.8301                11.9158
 Frc consts  --     0.0000                 0.0000                 0.0000
 IR Inten    --     2.1630                16.6024                12.2694
 Raman Activ --     0.0000                 0.0000                 0.0000
 Depolar     --     0.0000                 0.0000                 0.0000
 Atom AN      X      Y      Z        X      Y      Z        X      Y      Z
   1   8     0.10   0.03  -0.22    -0.02   0.12   0.02    -0.02  -0.03  -0.04
   2   6     0.10   0.04  -0.18     0.09   0.20   0.20    -0.00  -0.02  -0.04
   3   1     0.01   0.00  -0.04     0.08   0.02   0.08    -0.03  -0.01  -0.00
   4   1     0.03   0.01  -0.07     0.02   0.11   0.09     0.01  -0.01  -0.04
   5   6     0.18   0.09  -0.11     0.02   0.25   0.17     0.10   0.05   0.05
   6   1     0.06   0.04  -0.05    -0.03   0.09   0.04     0.06   0.02  -0.00
   7   1     0.07   0.04  -0.02     0.02   0.09   0.08     0.03   0.01   0.01
   8   7     0.19   0.01  -0.01     0.04   0.12   0.05     0.09   0.11   0.21
   9   6     0.25   0.12   0.08    -0.03   0.15   0.04     0.17   0.06   0.20
  10   1     0.08   0.06   0.00    -0.03   0.06   0.01     0.06   0.01   0.06
  11   1     0.08   0.04   0.05     0.00   0.05   0.03     0.05   0.02   0.04
  12   1     0.07   0.02   0.04    -0.01   0.03  -0.01     0.05   0.01   0.08
  13   6     0.13  -0.13   0.11     0.22  -0.02   0.08    -0.03   0.16   0.19
  14   1     0.04  -0.04   0.05     0.07  -0.03  -0.00    -0.01   0.06   0.08
  15   1     0.04  -0.04   0.06     0.09   0.01   0.06    -0.02   0.04   0.03
  16   1     0.02  -0.07   0.01     0.08  -0.02   0.02    -0.03   0.06   0.06
  17   6     0.12  -0.03  -0.11    -0.07   0.04  -0.12     0.10   0.12   0.29
  18   1     0.03  -0.02  -0.05    -0.01   0.00  -0.03     0.01   0.04   0.08
  19   1     0.03   0.02  -0.05    -0.06   0.04  -0.04     0.05   0.02   0.09
  20   1     0.04  -0.02  -0.03    -0.02  -0.02  -0.06     0.03   0.04   0.10
  21   1     0.01   0.01  -0.05    -0.00   0.05  -0.02    -0.01  -0.01  -0.01
  22   6     0.06   0.03  -0.05    -0.11  -0.07   0.09     0.05   0.04   0.05
  23   8     0.09   0.00  -0.08    -0.15  -0.02   0.14     0.07   0.11   0.15
  24   7     0.06   0.06  -0.04    -0.11  -0.11   0.08    -0.00  -0.05   0.02
  25   1     0.02   0.01  -0.01    -0.03  -0.03   0.02    -0.01  -0.01   0.03
  26   1     0.01   0.02  -0.00    -0.02  -0.05   0.00    -0.01  -0.02  -0.01
  27   7     0.06   0.07  -0.04    -0.10  -0.13   0.08     0.08   0.05  -0.06
  28   1     0.01   0.02  -0.01    -0.02  -0.04   0.02     0.01  -0.00  -0.04
  29   1     0.02   0.01  -0.02    -0.04  -0.02   0.03     0.03   0.03  -0.01
  30   6    -0.04  -0.03  -0.01     0.12   0.01  -0.11    -0.04  -0.07  -0.08
  31   8    -0.04  -0.06  -0.04     0.23  -0.08  -0.09     0.03  -0.10   0.00
  32   7    -0.01  -0.01  -0.01     0.05   0.04  -0.13    -0.15  -0.08  -0.11
  33   1     0.01  -0.00  -0.01     0.03  -0.01  -0.03    -0.03  -0.04  -0.02
  34   1     0.00   0.00   0.01     0.01   0.02  -0.04    -0.04  -0.03  -0.04
  35   7    -0.07  -0.02   0.01     0.06   0.09  -0.14    -0.02  -0.03  -0.18
  36   1    -0.01  -0.01   0.01     0.01   0.03  -0.04    -0.02  -0.00  -0.06
  37   1    -0.02  -0.01   0.00     0.03   0.01  -0.04     0.01   0.00  -0.05
  38   6    -0.21  -0.00  -0.03    -0.05   0.01   0.04    -0.03  -0.01  -0.07
  39   8    -0.24   0.02  -0.08    -0.06  -0.01   0.12    -0.03  -0.00  -0.21
  40   7    -0.24  -0.02   0.01    -0.08   0.01  -0.00     0.02  -0.03   0.03
  41   1    -0.06   0.01  -0.02    -0.03   0.00   0.00     0.02   0.01  -0.04
  42   1    -0.06   0.00  -0.02    -0.02   0.01  -0.03     0.01   0.01   0.00
  43   7    -0.25  -0.00  -0.01    -0.03   0.02  -0.02    -0.10  -0.02   0.01
  44   1    -0.07  -0.01   0.03    -0.01   0.00  -0.01    -0.02  -0.01   0.04
  45   1    -0.07  -0.01   0.01    -0.00  -0.00   0.02    -0.04  -0.01  -0.01
  46   6    -0.07  -0.05   0.19    -0.00  -0.16  -0.11    -0.06  -0.04  -0.10
  47   8    -0.08  -0.12   0.33     0.05  -0.29  -0.01    -0.06   0.11  -0.35
  48   7    -0.07   0.11   0.18    -0.02  -0.08  -0.15    -0.16  -0.31  -0.10
  49   1    -0.02   0.04   0.07     0.01  -0.02  -0.02    -0.07  -0.10  -0.09
  50   1    -0.02   0.05   0.03    -0.02   0.01  -0.06    -0.07  -0.11   0.02
  51   7    -0.05  -0.11   0.12    -0.09  -0.15  -0.22    -0.01  -0.00   0.10
  52   1    -0.02  -0.01   0.00    -0.02  -0.03  -0.07     0.02  -0.03   0.07
  53   1    -0.02  -0.05   0.03    -0.00  -0.06  -0.05     0.02   0.03   0.03
                     22                     23                     24
                        a                      a                      a 
 Frequencies --   123.9684               131.1928               171.9323
 Red. masses --    12.5207                11.9061                12.2696
 Frc consts  --     0.0000                 0.0000                 0.0000
 IR Inten    --    17.9637                 6.0289                11.1698
 Raman Activ --     0.0000                 0.0000                 0.0000
 Depolar     --     0.0000                 0.0000                 0.0000
 Atom AN      X      Y      Z        X      Y      Z        X      Y      Z
   1   8    -0.06  -0.10  -0.14    -0.17  -0.06  -0.08    -0.02  -0.19  -0.26
   2   6     0.00  -0.01   0.03     0.06   0.09   0.17    -0.04  -0.10  -0.02
   3   1     0.01  -0.03   0.03     0.10  -0.02   0.08    -0.01  -0.06   0.02
   4   1     0.00   0.02   0.01     0.01   0.11   0.10    -0.01  -0.02   0.00
   5   6     0.03   0.10   0.08    -0.03   0.17   0.13    -0.06   0.10   0.03
   6   1     0.01   0.05   0.00    -0.06   0.08   0.02    -0.03   0.07  -0.03
   7   1     0.01   0.04   0.05     0.01   0.07   0.08    -0.00   0.05   0.06
   8   7     0.03   0.07   0.12    -0.01   0.02  -0.06    -0.06  -0.02   0.00
   9   6     0.05   0.03   0.10    -0.08  -0.06  -0.12    -0.01  -0.10  -0.02
  10   1     0.01   0.01   0.03    -0.05  -0.02  -0.02     0.00  -0.04   0.00
  11   1     0.02   0.01   0.02    -0.01  -0.01  -0.04     0.00  -0.03  -0.03
  12   1     0.01   0.00   0.03    -0.02  -0.03  -0.06    -0.00  -0.03   0.00
  13   6     0.03   0.07   0.10     0.22   0.01  -0.12     0.03  -0.00  -0.03
  14   1     0.01   0.01   0.03     0.07  -0.03  -0.07     0.01  -0.03  -0.01
  15   1     0.01   0.02   0.02     0.09   0.02  -0.03     0.04   0.01  -0.03
  16   1     0.00   0.03   0.03     0.08   0.02  -0.02    -0.01   0.02  -0.00
  17   6    -0.01   0.05   0.13    -0.15  -0.05  -0.09    -0.15  -0.06   0.03
  18   1    -0.01   0.02   0.04    -0.05  -0.01  -0.02    -0.03   0.00   0.03
  19   1    -0.01   0.01   0.04    -0.07  -0.00  -0.03    -0.07  -0.02   0.02
  20   1    -0.00   0.01   0.03    -0.04  -0.05  -0.04    -0.04  -0.04  -0.02
  21   1    -0.02  -0.00  -0.06    -0.07   0.01  -0.04     0.02  -0.02  -0.10
  22   6    -0.01  -0.03  -0.14     0.12   0.08  -0.06    -0.07  -0.04   0.01
  23   8    -0.03  -0.19  -0.36     0.17   0.06  -0.06    -0.10  -0.05  -0.00
  24   7     0.08   0.15  -0.08     0.11   0.08  -0.06    -0.05  -0.03   0.02
  25   1     0.03   0.03  -0.07     0.03   0.02  -0.01    -0.01  -0.01  -0.00
  26   1     0.03   0.06   0.02     0.02   0.04  -0.01    -0.01  -0.02   0.00
  27   7    -0.08  -0.01   0.05     0.14   0.14  -0.10    -0.09  -0.09   0.06
  28   1    -0.01   0.03   0.05     0.03   0.03  -0.04    -0.02  -0.01   0.04
  29   1    -0.03  -0.04  -0.01     0.05   0.04  -0.04    -0.04  -0.03   0.02
  30   6     0.01   0.03   0.16    -0.12  -0.19   0.06     0.14   0.08  -0.15
  31   8    -0.09  -0.04  -0.06    -0.01  -0.37   0.08     0.14   0.05  -0.28
  32   7     0.26   0.17   0.22    -0.19  -0.09   0.05     0.30   0.20  -0.15
  33   1     0.08   0.08   0.02    -0.02  -0.05   0.01     0.08   0.08  -0.07
  34   1     0.07   0.07   0.10    -0.06  -0.02   0.02     0.08   0.08  -0.01
  35   7    -0.14   0.00   0.42    -0.25  -0.07   0.05     0.08   0.08  -0.03
  36   1    -0.00  -0.01   0.16    -0.06  -0.02   0.02     0.04   0.01   0.02
  37   1    -0.04  -0.07   0.11    -0.02  -0.07   0.01     0.03  -0.04  -0.01
  38   6    -0.01  -0.00  -0.02    -0.02   0.02   0.04     0.01   0.01  -0.00
  39   8    -0.01   0.01  -0.06    -0.02   0.02   0.10     0.01   0.02  -0.01
  40   7     0.00  -0.01   0.01    -0.06   0.01   0.00    -0.00  -0.00   0.01
  41   1     0.00   0.00  -0.01    -0.02   0.00   0.01    -0.00   0.00  -0.00
  42   1     0.00   0.00  -0.00    -0.01   0.00  -0.02     0.00   0.00  -0.00
  43   7    -0.02  -0.00   0.00     0.02   0.02  -0.00     0.01   0.00   0.01
  44   1    -0.01  -0.00   0.01     0.00   0.00  -0.01     0.00  -0.00  -0.00
  45   1    -0.01  -0.00  -0.00     0.01   0.00   0.01     0.01   0.00  -0.00
  46   6    -0.01  -0.07  -0.15     0.07   0.04   0.03    -0.01   0.05   0.18
  47   8    -0.06  -0.06  -0.17     0.22   0.06  -0.07     0.13   0.13   0.02
  48   7     0.02  -0.09  -0.15    -0.05  -0.07   0.00    -0.21  -0.14   0.16
  49   1    -0.00  -0.02  -0.04    -0.00  -0.04  -0.02    -0.06  -0.06  -0.01
  50   1     0.01  -0.03  -0.04    -0.04  -0.02   0.02    -0.09  -0.06   0.09
  51   7     0.00  -0.10  -0.17     0.05   0.15   0.14     0.05   0.13   0.39
  52   1     0.00  -0.03  -0.04    -0.02   0.05   0.04    -0.03   0.04   0.11
  53   1    -0.01  -0.02  -0.05     0.03   0.03   0.04     0.01   0.05   0.11
                     25                     26                     27
                        a                      a                      a 
 Frequencies --   172.7859               197.5687               260.9848
 Red. masses --     3.7672                10.6024                 4.0731
 Frc consts  --     0.0000                 0.0000                 0.0000
 IR Inten    --    12.9034                 8.4921                19.5718
 Raman Activ --     0.0000                 0.0000                 0.0000
 Depolar     --     0.0000                 0.0000                 0.0000
 Atom AN      X      Y      Z        X      Y      Z        X      Y      Z
   1   8    -0.04   0.00   0.03     0.51  -0.01  -0.20    -0.13  -0.10  -0.08
   2   6    -0.02  -0.00   0.00    -0.05  -0.11  -0.09    -0.01  -0.04  -0.01
   3   1    -0.00   0.00  -0.00    -0.10  -0.03  -0.01     0.01  -0.03   0.01
   4   1    -0.01   0.00   0.00    -0.01  -0.15  -0.04    -0.00   0.02  -0.00
   5   6    -0.02  -0.03  -0.00    -0.11   0.30  -0.00     0.01  -0.01   0.00
   6   1    -0.00  -0.02   0.00    -0.06   0.17  -0.07     0.01   0.00  -0.00
   7   1    -0.01  -0.01  -0.01    -0.00   0.13   0.11     0.00  -0.00   0.01
   8   7    -0.02  -0.00  -0.01    -0.11   0.03   0.03     0.01   0.01  -0.01
   9   6    -0.03   0.02  -0.01     0.09  -0.16   0.03     0.00   0.02  -0.01
  10   1    -0.00   0.00  -0.00     0.05  -0.07   0.02    -0.01   0.01  -0.00
  11   1    -0.02   0.00  -0.00     0.04  -0.05  -0.05     0.01   0.01   0.01
  12   1    -0.01   0.01   0.00     0.02  -0.06   0.05     0.00  -0.00  -0.01
  13   6    -0.01  -0.00  -0.02    -0.02  -0.00   0.02     0.02   0.01  -0.01
  14   1    -0.00  -0.00  -0.01     0.01  -0.10   0.05     0.01   0.01  -0.01
  15   1    -0.00  -0.00  -0.00     0.09   0.04  -0.04     0.00   0.00   0.00
  16   1     0.00  -0.00  -0.00    -0.10   0.05   0.01     0.02   0.00  -0.00
  17   6     0.02   0.01  -0.02    -0.35  -0.08   0.09     0.00   0.00  -0.01
  18   1     0.01  -0.00  -0.01    -0.06   0.04   0.08    -0.02  -0.01  -0.02
  19   1     0.01   0.00  -0.01    -0.19  -0.05   0.07     0.02   0.01  -0.01
  20   1     0.00   0.01  -0.00    -0.09  -0.08  -0.05    -0.00  -0.00   0.03
  21   1    -0.00   0.00   0.00     0.09  -0.03  -0.01    -0.04  -0.01  -0.03
  22   6    -0.00  -0.00  -0.00     0.01   0.01   0.01     0.02   0.01  -0.02
  23   8    -0.00  -0.00  -0.00     0.01   0.02   0.02     0.02   0.00  -0.01
  24   7    -0.00   0.00  -0.00     0.00  -0.00   0.00    -0.09   0.20   0.19
  25   1     0.00  -0.00  -0.00    -0.00  -0.00   0.01     0.08  -0.24  -0.21
  26   1     0.00  -0.00  -0.00    -0.00   0.00  -0.00     0.16  -0.34  -0.34
  27   7    -0.00  -0.00  -0.00     0.02   0.02  -0.01     0.06  -0.20  -0.14
  28   1    -0.00   0.00   0.00     0.00  -0.00  -0.01    -0.08   0.37   0.24
  29   1    -0.00   0.00   0.00     0.01   0.00  -0.01    -0.05   0.22   0.17
  30   6     0.00  -0.00  -0.00    -0.03   0.02   0.08     0.00   0.02   0.06
  31   8     0.00  -0.00  -0.01    -0.03   0.09   0.19     0.02   0.01   0.08
  32   7     0.01   0.00  -0.00    -0.15  -0.07   0.07    -0.08   0.07   0.04
  33   1     0.00   0.00  -0.00    -0.02  -0.07   0.05     0.10  -0.12   0.03
  34   1     0.00   0.00   0.00    -0.03  -0.06  -0.00     0.03  -0.05   0.02
  35   7    -0.00  -0.00   0.00     0.09  -0.00  -0.04     0.12  -0.05  -0.02
  36   1     0.00  -0.00   0.00    -0.00   0.01  -0.04    -0.05   0.08  -0.03
  37   1    -0.00  -0.00   0.00    -0.01   0.09  -0.01    -0.13   0.23  -0.01
  38   6     0.04   0.00  -0.00     0.01   0.01  -0.00    -0.00   0.00   0.00
  39   8     0.04  -0.01   0.01     0.01   0.03  -0.02    -0.00  -0.00   0.00
  40   7    -0.00  -0.15   0.29    -0.00  -0.01   0.02    -0.00  -0.00  -0.00
  41   1     0.02   0.16  -0.35    -0.00   0.01  -0.02    -0.00  -0.00   0.00
  42   1     0.07   0.24  -0.47     0.00   0.01  -0.03    -0.00  -0.00   0.00
  43   7     0.00   0.14  -0.27     0.02   0.01  -0.01    -0.00  -0.00   0.00
  44   1     0.04  -0.20   0.42     0.01  -0.02   0.03    -0.00   0.00  -0.00
  45   1     0.00  -0.15   0.33     0.01  -0.01   0.02    -0.00   0.00  -0.00
  46   6    -0.00   0.00   0.01     0.03  -0.02  -0.05     0.01  -0.00  -0.00
  47   8    -0.00   0.00   0.02     0.02  -0.06   0.01     0.00  -0.01   0.01
  48   7     0.01   0.01   0.01     0.06   0.05  -0.05     0.00   0.01  -0.00
  49   1    -0.00   0.01   0.00     0.03   0.02   0.00     0.00   0.00   0.00
  50   1    -0.00   0.01   0.00     0.02   0.02  -0.03     0.00   0.00  -0.00
  51   7    -0.00   0.00   0.00    -0.01  -0.02  -0.10    -0.02   0.01  -0.01
  52   1     0.00   0.00   0.00     0.01  -0.01  -0.02     0.02  -0.02   0.01
  53   1    -0.00  -0.00   0.00     0.01  -0.01  -0.03     0.01  -0.01   0.00
                     28                     29                     30
                        a                      a                      a 
 Frequencies --   262.2924               264.3257               274.9850
 Red. masses --    11.6008                 4.1489                 4.9856
 Frc consts  --     0.0000                 0.0000                 0.0000
 IR Inten    --     6.0022                18.4493                 5.5993
 Raman Activ --     0.0000                 0.0000                 0.0000
 Depolar     --     0.0000                 0.0000                 0.0000
 Atom AN      X      Y      Z        X      Y      Z        X      Y      Z
   1   8    -0.43  -0.36  -0.22     0.08   0.09  -0.02     0.08  -0.08  -0.26
   2   6    -0.06  -0.21  -0.08     0.06   0.11   0.06     0.22   0.10   0.12
   3   1    -0.01  -0.10   0.01     0.06   0.03   0.01     0.21  -0.02   0.05
   4   1    -0.01   0.01  -0.06     0.01   0.05   0.06     0.04   0.13   0.16
   5   6     0.06  -0.01   0.03    -0.03  -0.01  -0.03    -0.06   0.02  -0.06
   6   1     0.03   0.03  -0.02    -0.01  -0.03   0.02    -0.04  -0.02   0.01
   7   1     0.01   0.01   0.05    -0.00  -0.01  -0.04    -0.01  -0.00  -0.04
   8   7     0.07   0.05  -0.02    -0.04  -0.03  -0.01    -0.08  -0.01  -0.05
   9   6     0.00   0.08  -0.03     0.02  -0.03   0.02     0.12  -0.05   0.03
  10   1    -0.02   0.04  -0.01    -0.01   0.00  -0.00    -0.06   0.07  -0.02
  11   1     0.01   0.03   0.01     0.03   0.00   0.01     0.17   0.05   0.07
  12   1     0.00   0.01  -0.02     0.01  -0.04   0.00     0.04  -0.17  -0.01
  13   6     0.16   0.05  -0.05    -0.11  -0.02   0.02    -0.26   0.01   0.01
  14   1     0.05  -0.03  -0.01    -0.04   0.08  -0.03    -0.11   0.28  -0.13
  15   1     0.08   0.03  -0.03    -0.11  -0.04   0.05    -0.34  -0.12   0.16
  16   1     0.02   0.04  -0.01     0.04  -0.05   0.00     0.19  -0.15  -0.00
  17   6     0.01   0.02  -0.04    -0.01  -0.01   0.02    -0.14  -0.03   0.04
  18   1    -0.06  -0.01  -0.05    -0.03  -0.02  -0.01    -0.20  -0.07  -0.10
  19   1     0.04   0.03  -0.04     0.03   0.00  -0.01     0.12   0.05  -0.07
  20   1    -0.00  -0.01   0.05    -0.01   0.01   0.04    -0.05  -0.01   0.22
  21   1    -0.12  -0.06  -0.09    -0.01   0.03  -0.00    -0.05   0.02  -0.08
  22   6    -0.01  -0.01   0.02    -0.00  -0.02  -0.01    -0.00   0.01   0.01
  23   8    -0.01   0.00   0.02     0.00  -0.03  -0.03    -0.01   0.01   0.01
  24   7     0.01  -0.09  -0.05     0.02  -0.05  -0.05    -0.00  -0.00   0.00
  25   1    -0.03   0.07   0.08    -0.02   0.06   0.06    -0.00  -0.00   0.00
  26   1    -0.06   0.11   0.11    -0.05   0.11   0.10     0.00  -0.01  -0.01
  27   7    -0.02   0.07   0.06    -0.03   0.07   0.07     0.00  -0.01  -0.01
  28   1     0.03  -0.15  -0.09     0.03  -0.14  -0.08    -0.00   0.01   0.01
  29   1     0.02  -0.08  -0.06     0.01  -0.09  -0.07    -0.00   0.01   0.01
  30   6     0.06   0.11   0.17     0.01  -0.02  -0.04     0.02   0.02   0.05
  31   8     0.08   0.18   0.25     0.05  -0.11  -0.08     0.02   0.05   0.09
  32   7    -0.11  -0.03   0.14    -0.09   0.25  -0.06    -0.01  -0.08   0.05
  33   1    -0.01  -0.07   0.08     0.31  -0.30   0.02    -0.08   0.06   0.01
  34   1    -0.02  -0.06  -0.01     0.12  -0.10   0.03    -0.04   0.01  -0.01
  35   7     0.26   0.13  -0.07     0.09  -0.24   0.05     0.03   0.12  -0.04
  36   1     0.02   0.06  -0.08    -0.13   0.18   0.04     0.05  -0.05  -0.03
  37   1     0.02   0.21  -0.02    -0.42   0.44   0.01     0.15  -0.10  -0.01
  38   6    -0.01   0.00   0.00     0.00  -0.00  -0.00     0.00  -0.01  -0.00
  39   8    -0.01   0.00   0.00     0.00  -0.00  -0.00     0.01  -0.01  -0.01
  40   7    -0.01   0.00  -0.00     0.01  -0.00   0.00     0.03   0.00  -0.00
  41   1    -0.01  -0.00   0.00     0.00   0.00  -0.00     0.01  -0.00   0.00
  42   1    -0.00  -0.00   0.00     0.00   0.00  -0.00     0.01   0.00   0.01
  43   7    -0.01   0.00  -0.00     0.00  -0.00   0.00     0.00   0.00  -0.02
  44   1    -0.00   0.00   0.00     0.00   0.00  -0.00     0.00  -0.01   0.02
  45   1    -0.00  -0.00   0.00     0.00   0.00  -0.00     0.00  -0.01   0.01
  46   6     0.01  -0.01  -0.02     0.01   0.00   0.02     0.00  -0.01  -0.00
  47   8    -0.01  -0.04   0.02     0.02   0.02   0.00    -0.00  -0.02   0.01
  48   7     0.03   0.04  -0.02    -0.03  -0.00   0.01     0.01   0.01  -0.00
  49   1     0.01   0.01   0.01    -0.01  -0.00  -0.01     0.00   0.00   0.00
  50   1     0.01   0.01  -0.01    -0.01  -0.01   0.01    -0.00   0.01  -0.01
  51   7    -0.03  -0.01  -0.05    -0.02   0.02   0.01    -0.01  -0.01  -0.01
  52   1     0.03  -0.03   0.01     0.04  -0.02   0.03     0.00  -0.00  -0.00
  53   1     0.02  -0.00  -0.01     0.02  -0.02   0.01     0.00  -0.00  -0.00
                     31                     32                     33
                        a                      a                      a 
 Frequencies --   312.2511               321.3823               326.7511
 Red. masses --     9.2546                 3.5290                 4.1010
 Frc consts  --     0.0000                 0.0000                 0.0000
 IR Inten    --     1.9162               505.2129                15.0110
 Raman Activ --     0.0000                 0.0000                 0.0000
 Depolar     --     0.0000                 0.0000                 0.0000
 Atom AN      X      Y      Z        X      Y      Z        X      Y      Z
   1   8    -0.07  -0.13   0.41    -0.03  -0.01  -0.01    -0.10  -0.08  -0.11
   2   6     0.08  -0.16   0.08     0.00   0.01   0.01     0.20   0.10   0.17
   3   1     0.00  -0.02   0.00     0.01  -0.00   0.01     0.19  -0.02   0.06
   4   1     0.03  -0.06   0.01     0.00   0.01   0.01     0.04   0.15   0.15
   5   6     0.02  -0.07  -0.02     0.00   0.01   0.01    -0.02  -0.03  -0.02
   6   1     0.01  -0.02  -0.01    -0.00   0.01  -0.00    -0.04  -0.02   0.02
   7   1    -0.05  -0.04   0.02     0.00   0.00   0.01    -0.01  -0.01  -0.01
   8   7     0.01   0.11  -0.12     0.00  -0.01   0.01    -0.03  -0.03  -0.08
   9   6     0.40   0.16   0.07     0.02  -0.01   0.01     0.18   0.02   0.04
  10   1     0.12   0.12  -0.03     0.05  -0.03   0.01     0.38  -0.17   0.03
  11   1     0.22   0.09   0.05    -0.04  -0.02  -0.03    -0.22  -0.12  -0.19
  12   1     0.12  -0.06   0.10     0.00   0.05   0.02     0.03   0.32   0.21
  13   6    -0.07   0.18  -0.14    -0.03  -0.01   0.02    -0.28  -0.04   0.01
  14   1    -0.01  -0.04   0.04    -0.01   0.02  -0.00    -0.07  -0.06   0.12
  15   1     0.07   0.09  -0.14    -0.03  -0.01   0.01    -0.03   0.01  -0.07
  16   1    -0.14   0.13  -0.03     0.01  -0.01   0.00    -0.19   0.02  -0.01
  17   6    -0.32  -0.04  -0.16     0.02  -0.00  -0.01     0.02  -0.01  -0.11
  18   1    -0.23  -0.04  -0.12     0.06   0.02   0.03     0.15   0.05   0.06
  19   1    -0.04   0.07  -0.11    -0.05  -0.02   0.02    -0.14  -0.06   0.05
  20   1    -0.09  -0.11   0.08     0.01   0.00  -0.07     0.02   0.00  -0.21
  21   1     0.00  -0.04   0.11    -0.00   0.00  -0.01    -0.06   0.02  -0.06
  22   6    -0.00  -0.00  -0.00     0.00  -0.00  -0.00     0.00   0.00   0.00
  23   8     0.00  -0.00  -0.00     0.00  -0.00  -0.00    -0.00   0.00   0.00
  24   7     0.00   0.00  -0.00    -0.00   0.00   0.00    -0.00  -0.00   0.00
  25   1     0.00   0.00  -0.00     0.00  -0.00  -0.00    -0.00   0.00   0.00
  26   1     0.00   0.00  -0.00     0.00  -0.00  -0.00    -0.00  -0.00   0.00
  27   7    -0.00  -0.00   0.00    -0.00   0.00   0.00     0.00  -0.00   0.00
  28   1    -0.00   0.00   0.00     0.00  -0.01  -0.00     0.00  -0.00  -0.00
  29   1    -0.00  -0.00   0.00     0.00  -0.00  -0.00     0.00   0.00   0.00
  30   6    -0.01  -0.01  -0.05     0.00   0.00   0.00     0.01   0.01   0.04
  31   8    -0.01  -0.02  -0.07     0.00  -0.00   0.00     0.01   0.01   0.04
  32   7     0.04   0.04  -0.05    -0.00   0.00   0.00    -0.02  -0.02   0.03
  33   1     0.02   0.00  -0.02    -0.00   0.00   0.00    -0.01  -0.00   0.01
  34   1     0.02   0.01   0.00    -0.00   0.00   0.00    -0.01  -0.01   0.00
  35   7    -0.05  -0.05   0.03     0.01   0.00  -0.00     0.04   0.04  -0.02
  36   1    -0.01   0.00   0.03    -0.00   0.00  -0.00     0.01  -0.00  -0.02
  37   1    -0.05  -0.02   0.01    -0.00   0.01  -0.00     0.04   0.01  -0.00
  38   6    -0.00   0.00  -0.00    -0.00  -0.05   0.10     0.00  -0.00  -0.02
  39   8    -0.00   0.01  -0.02    -0.00   0.01   0.02     0.00  -0.00  -0.01
  40   7    -0.00   0.01  -0.01     0.05   0.12  -0.25     0.01  -0.01   0.03
  41   1    -0.00  -0.00   0.01    -0.02  -0.11   0.24     0.01   0.01  -0.03
  42   1    -0.00  -0.02   0.03    -0.05  -0.26   0.46     0.01   0.03  -0.04
  43   7    -0.01   0.01  -0.01    -0.04   0.13  -0.28    -0.00  -0.02   0.03
  44   1     0.00  -0.02   0.03     0.04  -0.28   0.51    -0.01   0.03  -0.06
  45   1    -0.00  -0.00   0.01     0.01  -0.11   0.27    -0.00   0.01  -0.03
  46   6    -0.01  -0.01   0.01     0.00   0.00  -0.01    -0.01   0.01   0.00
  47   8     0.00  -0.01   0.01    -0.00   0.00  -0.01    -0.02   0.02   0.00
  48   7    -0.01  -0.01   0.01    -0.02   0.01  -0.01     0.06  -0.06   0.01
  49   1    -0.01   0.00   0.00     0.02  -0.02   0.00    -0.07   0.05  -0.01
  50   1    -0.01   0.01   0.00     0.04  -0.04   0.01    -0.13   0.13  -0.04
  51   7    -0.00  -0.01   0.00     0.01   0.00   0.01    -0.01   0.01  -0.01
  52   1    -0.00   0.00  -0.01    -0.02   0.01  -0.00     0.06  -0.03   0.03
  53   1    -0.01  -0.01  -0.00    -0.00   0.00  -0.00     0.01  -0.01   0.00
                     34                     35                     36
                        a                      a                      a 
 Frequencies --   333.0193               359.2599               360.9978
 Red. masses --     2.7386                 3.7504                 4.7147
 Frc consts  --     0.0000                 0.0000                 0.0000
 IR Inten    --   115.0665               428.1513                16.2261
 Raman Activ --     0.0000                 0.0000                 0.0000
 Depolar     --     0.0000                 0.0000                 0.0000
 Atom AN      X      Y      Z        X      Y      Z        X      Y      Z
   1   8    -0.03  -0.03  -0.02     0.02   0.01  -0.04    -0.13  -0.05   0.25
   2   6     0.06   0.02   0.04     0.02   0.02   0.01    -0.15  -0.16  -0.05
   3   1     0.05  -0.00   0.01     0.02   0.00   0.00    -0.17  -0.03  -0.01
   4   1     0.01   0.04   0.04     0.00   0.01   0.02    -0.02  -0.12  -0.13
   5   6     0.01  -0.02  -0.01    -0.01  -0.03  -0.01     0.05   0.20   0.11
   6   1     0.00  -0.01   0.00     0.00  -0.02   0.01    -0.02   0.16  -0.05
   7   1    -0.00  -0.01  -0.01    -0.00  -0.01  -0.02     0.03   0.11   0.16
   8   7     0.00   0.00  -0.01    -0.01  -0.01   0.01     0.08   0.07  -0.03
   9   6     0.05   0.01   0.02    -0.03   0.02   0.02     0.17  -0.13  -0.11
  10   1     0.08  -0.03   0.01    -0.02   0.02   0.00     0.13  -0.13   0.00
  11   1    -0.04  -0.02  -0.04     0.00   0.01   0.02    -0.01  -0.07  -0.14
  12   1     0.01   0.07   0.05    -0.01  -0.00  -0.00     0.04   0.03   0.03
  13   6    -0.06   0.00   0.02     0.01  -0.01  -0.00    -0.03   0.05   0.02
  14   1    -0.02  -0.00   0.03     0.01  -0.05   0.02    -0.05   0.33  -0.15
  15   1    -0.01   0.00  -0.01     0.04   0.02  -0.03    -0.31  -0.13   0.21
  16   1    -0.04   0.01   0.00    -0.04   0.03   0.00     0.28  -0.18  -0.01
  17   6    -0.01  -0.00  -0.02    -0.00  -0.01   0.02     0.03   0.05  -0.16
  18   1     0.03   0.02   0.02    -0.02  -0.01  -0.01     0.13   0.04   0.02
  19   1    -0.05  -0.01   0.01     0.02   0.00  -0.00    -0.12  -0.01   0.00
  20   1     0.00  -0.01  -0.06    -0.00   0.00   0.03     0.02   0.00  -0.19
  21   1    -0.01   0.01  -0.02    -0.01   0.01  -0.01     0.03  -0.04   0.07
  22   6    -0.00   0.00   0.00    -0.03   0.08   0.06    -0.00   0.01   0.01
  23   8    -0.00   0.00   0.00     0.00   0.04   0.05     0.00   0.00   0.01
  24   7     0.00  -0.01  -0.00     0.11  -0.18  -0.22     0.02  -0.03  -0.03
  25   1    -0.00   0.00   0.00    -0.05   0.17   0.17    -0.01   0.02   0.02
  26   1    -0.00   0.01   0.01    -0.18   0.37   0.33    -0.03   0.05   0.05
  27   7     0.00  -0.00  -0.00     0.03  -0.27  -0.16     0.00  -0.04  -0.02
  28   1    -0.00   0.01   0.00    -0.13   0.50   0.31    -0.02   0.07   0.04
  29   1    -0.00   0.00   0.00    -0.03   0.19   0.15    -0.00   0.03   0.02
  30   6     0.01   0.00   0.01     0.01  -0.01   0.00    -0.00   0.01  -0.01
  31   8     0.02  -0.00   0.02    -0.00   0.01   0.01    -0.00   0.01  -0.01
  32   7    -0.01   0.00   0.01    -0.03   0.03  -0.00     0.01   0.01  -0.01
  33   1     0.00  -0.01   0.01     0.06  -0.08   0.01     0.00   0.00  -0.00
  34   1    -0.00  -0.00  -0.00     0.04  -0.05   0.00     0.01  -0.00  -0.00
  35   7     0.02   0.01  -0.01    -0.00   0.01   0.01    -0.01  -0.02   0.01
  36   1     0.00   0.01  -0.01     0.02  -0.03   0.00    -0.00   0.01   0.01
  37   1     0.01   0.01  -0.00     0.01  -0.02   0.00    -0.03   0.01   0.00
  38   6    -0.00   0.00  -0.01     0.00   0.00   0.00    -0.00  -0.01   0.00
  39   8    -0.00  -0.00  -0.00     0.00   0.00  -0.00    -0.00  -0.01   0.01
  40   7    -0.01  -0.01   0.03     0.00   0.00  -0.01     0.00  -0.01   0.02
  41   1     0.00   0.01  -0.03    -0.00  -0.00   0.00     0.01   0.00  -0.01
  42   1     0.01   0.03  -0.05    -0.00  -0.01   0.01     0.01   0.03  -0.04
  43   7     0.00  -0.01   0.03    -0.00   0.00  -0.01     0.00  -0.01   0.02
  44   1    -0.00   0.03  -0.05     0.00  -0.01   0.01    -0.01   0.03  -0.05
  45   1    -0.00   0.01  -0.03     0.00  -0.00   0.00    -0.00   0.00  -0.01
  46   6     0.00  -0.03  -0.02    -0.00   0.00  -0.00    -0.00  -0.00  -0.00
  47   8    -0.00  -0.02  -0.02    -0.00   0.00   0.00    -0.00  -0.00  -0.00
  48   7    -0.23   0.23  -0.04     0.01  -0.01   0.00     0.01  -0.00  -0.00
  49   1     0.25  -0.19   0.03    -0.00   0.00  -0.00    -0.01   0.01  -0.00
  50   1     0.56  -0.53   0.17    -0.01   0.01  -0.00    -0.01   0.01  -0.00
  51   7     0.05  -0.04   0.03     0.00  -0.00   0.00     0.01  -0.00   0.00
  52   1    -0.25   0.13  -0.12    -0.01   0.00  -0.00    -0.01   0.01  -0.00
  53   1    -0.05   0.02  -0.01    -0.00   0.00  -0.00    -0.00   0.00  -0.00
                     37                     38                     39
                        a                      a                      a 
 Frequencies --   371.4287               377.5174               404.8096
 Red. masses --     5.3820                 2.9373                 3.4123
 Frc consts  --     0.0000                 0.0000                 0.0000
 IR Inten    --     2.5837                 2.7159               137.1202
 Raman Activ --     0.0000                 0.0000                 0.0000
 Depolar     --     0.0000                 0.0000                 0.0000
 Atom AN      X      Y      Z        X      Y      Z        X      Y      Z
   1   8     0.01   0.02  -0.01     0.08   0.03   0.07    -0.01  -0.00  -0.02
   2   6    -0.13   0.03   0.13     0.02  -0.03  -0.09    -0.01   0.00  -0.00
   3   1    -0.11  -0.01   0.07    -0.01   0.01  -0.04    -0.00  -0.00   0.00
   4   1    -0.03  -0.03  -0.01     0.01  -0.04  -0.03    -0.00   0.00  -0.00
   5   6    -0.03   0.22   0.21     0.02  -0.02  -0.07     0.00  -0.01   0.00
   6   1    -0.07   0.13   0.02     0.04  -0.01  -0.02     0.01  -0.01   0.00
   7   1     0.04   0.11   0.14    -0.03  -0.02  -0.03     0.00  -0.00  -0.01
   8   7     0.01  -0.04   0.00    -0.01   0.08  -0.01     0.00   0.00   0.02
   9   6     0.06  -0.26  -0.10    -0.10   0.07  -0.05    -0.01  -0.01   0.01
  10   1     0.02  -0.13   0.01     0.26  -0.18   0.03    -0.01  -0.00   0.01
  11   1     0.03  -0.08  -0.11    -0.34  -0.13  -0.21     0.00  -0.00   0.00
  12   1     0.02  -0.08  -0.01    -0.05   0.36   0.11    -0.00  -0.01  -0.00
  13   6    -0.21  -0.01   0.05     0.23  -0.07   0.03     0.00   0.02   0.01
  14   1    -0.05  -0.10   0.17     0.06   0.01  -0.07     0.00   0.01   0.00
  15   1     0.04   0.04  -0.10     0.04  -0.03   0.11     0.00   0.01  -0.00
  16   1    -0.25   0.06  -0.01     0.16  -0.08   0.00     0.00   0.01   0.00
  17   6     0.30   0.06  -0.21    -0.19   0.01   0.15    -0.00  -0.00  -0.02
  18   1    -0.08  -0.17  -0.24    -0.34  -0.07  -0.12    -0.00  -0.01  -0.01
  19   1     0.36   0.15  -0.22     0.21   0.08  -0.08     0.00   0.01  -0.01
  20   1     0.06   0.11   0.22    -0.08  -0.03   0.38    -0.00  -0.00   0.00
  21   1     0.00   0.01  -0.01     0.01  -0.01   0.04    -0.01   0.00  -0.01
  22   6    -0.00   0.00  -0.00    -0.00  -0.00  -0.00    -0.00   0.01  -0.00
  23   8    -0.00   0.00  -0.00     0.00  -0.00  -0.00    -0.00   0.01   0.00
  24   7    -0.00   0.00   0.00    -0.00   0.00   0.00    -0.01   0.01   0.00
  25   1     0.00  -0.00  -0.00     0.00  -0.00  -0.00     0.00  -0.01  -0.01
  26   1     0.00  -0.00  -0.00     0.00  -0.00  -0.00     0.01  -0.02  -0.02
  27   7    -0.00   0.00   0.00    -0.00   0.00   0.00    -0.00   0.00   0.01
  28   1     0.00  -0.00  -0.00     0.00  -0.00  -0.00     0.01  -0.04  -0.01
  29   1    -0.00  -0.00  -0.00    -0.00  -0.00  -0.00    -0.01  -0.00   0.00
  30   6     0.00  -0.01  -0.01     0.00  -0.01  -0.03     0.05  -0.02   0.02
  31   8     0.00  -0.00  -0.00     0.00  -0.00  -0.02     0.01   0.02   0.01
  32   7     0.00   0.00  -0.00     0.01   0.01  -0.02    -0.07   0.03  -0.00
  33   1     0.01  -0.01  -0.00     0.01  -0.00  -0.01     0.11  -0.15   0.03
  34   1     0.00  -0.00   0.00     0.01   0.00  -0.00     0.05  -0.08  -0.00
  35   7    -0.01   0.00   0.00    -0.02  -0.02   0.01     0.01   0.03   0.00
  36   1     0.00  -0.00   0.00    -0.00  -0.00   0.01     0.02  -0.01  -0.00
  37   1     0.01  -0.01   0.00    -0.01  -0.02   0.00     0.04  -0.05   0.00
  38   6     0.00  -0.00  -0.01     0.00  -0.01  -0.00     0.00  -0.00   0.00
  39   8     0.00   0.01  -0.02     0.00  -0.01  -0.00     0.00  -0.00   0.00
  40   7     0.01  -0.00  -0.01     0.01  -0.00  -0.01     0.00  -0.00  -0.00
  41   1     0.00  -0.00   0.00    -0.00   0.00  -0.00    -0.00   0.00  -0.00
  42   1    -0.00  -0.01   0.02    -0.00  -0.02   0.02    -0.00  -0.00   0.01
  43   7    -0.01   0.00  -0.01    -0.01   0.00  -0.00    -0.00   0.00  -0.00
  44   1     0.00  -0.01   0.03    -0.00   0.01   0.01    -0.00   0.00   0.00
  45   1    -0.00  -0.00   0.00    -0.01  -0.00   0.00    -0.00  -0.00   0.00
  46   6    -0.00  -0.01   0.00    -0.01   0.00   0.00    -0.10   0.02  -0.06
  47   8     0.00  -0.01   0.00    -0.02   0.01  -0.00    -0.12   0.01  -0.02
  48   7    -0.01   0.01  -0.00     0.00   0.01   0.01     0.18  -0.13   0.01
  49   1     0.00  -0.00  -0.00    -0.01   0.01  -0.00    -0.05   0.07   0.02
  50   1     0.03  -0.03   0.01     0.02  -0.01   0.01    -0.13   0.18  -0.09
  51   7    -0.01  -0.00  -0.00    -0.00  -0.01   0.00     0.24  -0.08   0.16
  52   1    -0.00  -0.00  -0.00    -0.01   0.00  -0.00    -0.65   0.39  -0.34
  53   1     0.00   0.00   0.00    -0.00  -0.00  -0.00    -0.05  -0.01   0.01
                     40                     41                     42
                        a                      a                      a 
 Frequencies --   430.0929               444.8184               446.6085
 Red. masses --     8.5524                 1.8132                 1.9297
 Frc consts  --     0.0000                 0.0000                 0.0000
 IR Inten    --     0.4855                 4.8126                 6.3249
 Raman Activ --     0.0000                 0.0000                 0.0000
 Depolar     --     0.0000                 0.0000                 0.0000
 Atom AN      X      Y      Z        X      Y      Z        X      Y      Z
   1   8    -0.09  -0.11   0.17    -0.00  -0.00   0.00    -0.00  -0.00  -0.01
   2   6     0.15  -0.06   0.01    -0.02  -0.00   0.01     0.00  -0.00  -0.00
   3   1     0.07  -0.02  -0.00    -0.00  -0.00   0.00     0.00  -0.00   0.00
   4   1     0.04   0.02   0.03    -0.01  -0.00   0.01     0.00   0.00   0.00
   5   6    -0.01   0.08  -0.10    -0.03   0.00  -0.00     0.00   0.00  -0.00
   6   1    -0.01   0.04  -0.04    -0.01   0.00  -0.00    -0.00   0.00  -0.00
   7   1    -0.05   0.02   0.02    -0.01   0.00   0.00     0.00   0.00   0.00
   8   7    -0.02   0.23  -0.25    -0.02   0.00  -0.02     0.00  -0.00  -0.00
   9   6     0.06  -0.00  -0.35     0.02   0.00  -0.00    -0.00   0.00   0.00
  10   1    -0.07  -0.00  -0.07     0.00   0.01  -0.01    -0.00   0.00  -0.00
  11   1     0.12   0.04  -0.11     0.02   0.01   0.00    -0.00   0.00   0.00
  12   1     0.02  -0.11  -0.13     0.01  -0.01   0.01    -0.00   0.00   0.00
  13   6    -0.07  -0.36   0.18     0.01  -0.02  -0.01    -0.00   0.00  -0.00
  14   1    -0.01  -0.21   0.15     0.00  -0.01  -0.01    -0.00   0.00  -0.00
  15   1     0.08  -0.05   0.17     0.01  -0.00   0.00    -0.00  -0.00  -0.00
  16   1    -0.14  -0.23  -0.05     0.00  -0.01  -0.01    -0.00   0.00  -0.00
  17   6    -0.03   0.30   0.24     0.02   0.02   0.01     0.00  -0.00   0.00
  18   1    -0.02   0.19   0.12     0.01   0.01   0.01     0.00  -0.00   0.00
  19   1     0.02  -0.03   0.14     0.01  -0.01   0.01     0.00  -0.00   0.00
  20   1    -0.01   0.10   0.08     0.00   0.02  -0.00     0.00  -0.00   0.00
  21   1    -0.02  -0.03   0.04    -0.00  -0.00  -0.00    -0.00   0.00  -0.00
  22   6    -0.00  -0.00   0.00    -0.00   0.00  -0.00    -0.06  -0.06   0.05
  23   8    -0.00  -0.00   0.00     0.00   0.00   0.00    -0.06  -0.07   0.05
  24   7     0.00  -0.00   0.00    -0.00   0.00  -0.00     0.12  -0.08  -0.03
  25   1     0.00   0.00  -0.00     0.00  -0.00  -0.00    -0.07   0.48   0.22
  26   1     0.00   0.00   0.00     0.00  -0.00  -0.00     0.28  -0.32  -0.17
  27   7    -0.00   0.00  -0.00    -0.00  -0.00   0.00    -0.08   0.15   0.01
  28   1    -0.00   0.00   0.00     0.00  -0.00  -0.00    -0.19   0.35   0.08
  29   1     0.00  -0.00  -0.00    -0.00   0.00   0.00     0.23  -0.30  -0.36
  30   6     0.00   0.00  -0.01     0.00  -0.00   0.00     0.02   0.01  -0.01
  31   8     0.01   0.00  -0.01    -0.00   0.00  -0.00     0.02   0.02  -0.01
  32   7     0.00   0.00  -0.01    -0.00   0.00  -0.00    -0.02  -0.01  -0.01
  33   1    -0.00   0.00   0.00     0.01  -0.01   0.00    -0.00  -0.02   0.01
  34   1     0.00   0.00  -0.00     0.00  -0.01  -0.00    -0.01  -0.01  -0.02
  35   7    -0.00  -0.00   0.01    -0.00   0.00   0.00     0.00   0.00   0.03
  36   1    -0.00   0.00   0.01     0.00  -0.00   0.00     0.01  -0.00   0.02
  37   1    -0.01   0.00   0.00     0.01  -0.01   0.00    -0.02  -0.00   0.01
  38   6     0.00   0.01  -0.00     0.09   0.00   0.00    -0.00  -0.00  -0.00
  39   8     0.00   0.00  -0.00     0.10   0.00   0.00    -0.00  -0.00   0.00
  40   7    -0.00   0.00  -0.00    -0.04  -0.13   0.05     0.00   0.00   0.00
  41   1    -0.00  -0.01   0.01    -0.11   0.24  -0.42     0.00   0.00  -0.00
  42   1     0.00   0.00  -0.01    -0.06  -0.33   0.32    -0.00  -0.00   0.00
  43   7     0.00   0.00   0.00    -0.04   0.12  -0.06     0.00  -0.00  -0.00
  44   1     0.00  -0.02   0.03    -0.05   0.34  -0.31    -0.00   0.00  -0.00
  45   1     0.00   0.01  -0.02    -0.14  -0.25   0.42     0.00  -0.00   0.00
  46   6     0.00   0.00  -0.00     0.00   0.00   0.00     0.00   0.00   0.00
  47   8    -0.01   0.00   0.00     0.00   0.00   0.01    -0.00   0.00   0.00
  48   7     0.00  -0.01  -0.00    -0.00  -0.00   0.00    -0.00  -0.00   0.00
  49   1    -0.00  -0.00  -0.00    -0.02   0.01  -0.01    -0.00  -0.00  -0.00
  50   1    -0.01   0.01  -0.00     0.01  -0.02   0.01    -0.00  -0.00   0.00
  51   7     0.01  -0.00   0.00    -0.00   0.00  -0.01     0.00  -0.00  -0.00
  52   1    -0.03   0.02  -0.02     0.01  -0.00  -0.00    -0.00   0.00  -0.00
  53   1    -0.00  -0.00  -0.00    -0.00  -0.00  -0.00    -0.00  -0.00  -0.00
                     43                     44                     45
                        a                      a                      a 
 Frequencies --   454.2855               455.7150               457.2411
 Red. masses --     6.2931                 4.3949                 8.3351
 Frc consts  --     0.0000                 0.0000                 0.0000
 IR Inten    --   173.2666               405.1030                 3.8419
 Raman Activ --     0.0000                 0.0000                 0.0000
 Depolar     --     0.0000                 0.0000                 0.0000
 Atom AN      X      Y      Z        X      Y      Z        X      Y      Z
   1   8    -0.01  -0.00   0.03    -0.02  -0.01   0.02     0.01   0.01   0.01
   2   6     0.11   0.01  -0.04     0.02  -0.01  -0.02     0.00   0.00   0.00
   3   1     0.02  -0.00  -0.01    -0.01   0.00  -0.01    -0.00   0.00  -0.00
   4   1     0.04   0.02  -0.03     0.01  -0.01  -0.03     0.00  -0.00  -0.00
   5   6     0.13   0.05   0.01     0.07   0.01   0.01     0.00  -0.00  -0.00
   6   1     0.02   0.04  -0.02     0.01   0.01  -0.01     0.00  -0.00   0.00
   7   1     0.05   0.03   0.04     0.02   0.01   0.01    -0.00  -0.00  -0.00
   8   7     0.10  -0.02   0.01     0.06  -0.00  -0.00    -0.00   0.01   0.01
   9   6    -0.11   0.03  -0.05    -0.03   0.01  -0.04    -0.00  -0.01  -0.00
  10   1    -0.06   0.01  -0.00    -0.02   0.00  -0.00    -0.00  -0.00   0.00
  11   1    -0.06   0.00   0.01    -0.02   0.00  -0.00     0.00  -0.00  -0.00
  12   1    -0.03   0.03  -0.07    -0.01   0.01  -0.03     0.00  -0.00  -0.00
  13   6    -0.10   0.03   0.04    -0.03   0.01   0.02     0.00   0.00   0.01
  14   1    -0.03   0.02   0.07    -0.01   0.01   0.03     0.00  -0.00   0.00
  15   1    -0.03   0.00  -0.03    -0.02  -0.00  -0.00     0.00   0.00   0.00
  16   1    -0.07   0.02   0.00    -0.03  -0.00  -0.00    -0.00  -0.00   0.00
  17   6    -0.04  -0.09   0.01    -0.01  -0.03   0.01    -0.01   0.01  -0.01
  18   1    -0.05  -0.02  -0.01    -0.02   0.01   0.01    -0.00  -0.00  -0.00
  19   1    -0.02  -0.01  -0.01    -0.02  -0.01   0.01    -0.00   0.00  -0.00
  20   1    -0.01  -0.07   0.02    -0.00  -0.03  -0.00    -0.00  -0.00  -0.00
  21   1     0.04  -0.01  -0.00    -0.06   0.01   0.02     0.00  -0.00   0.00
  22   6     0.02  -0.03   0.02    -0.02   0.04  -0.03     0.19   0.18  -0.16
  23   8    -0.01  -0.02  -0.01     0.02   0.02   0.01     0.21   0.20  -0.18
  24   7     0.01  -0.02   0.02    -0.02   0.03  -0.02    -0.37  -0.12  -0.14
  25   1     0.01  -0.03  -0.01    -0.01   0.05   0.01    -0.18  -0.02   0.27
  26   1    -0.03   0.05   0.04     0.04  -0.06  -0.06    -0.21  -0.08  -0.25
  27   7     0.02   0.01  -0.02    -0.02  -0.01   0.03     0.11  -0.14   0.37
  28   1    -0.03   0.06   0.01     0.04  -0.09  -0.01     0.16   0.03   0.29
  29   1     0.04  -0.01  -0.03    -0.05   0.01   0.04    -0.12  -0.29   0.00
  30   6    -0.06   0.04  -0.00     0.08  -0.06  -0.00    -0.04  -0.03   0.02
  31   8     0.04  -0.07   0.02    -0.05   0.10  -0.03    -0.04  -0.04   0.02
  32   7     0.09  -0.06   0.02    -0.12   0.09  -0.04     0.04   0.02   0.03
  33   1    -0.23   0.29  -0.05     0.32  -0.40   0.07    -0.01   0.06  -0.02
  34   1    -0.11   0.15  -0.01     0.15  -0.21   0.01     0.01   0.02   0.03
  35   7     0.04  -0.06  -0.03    -0.06   0.08   0.05    -0.00  -0.01  -0.05
  36   1    -0.06   0.08  -0.01     0.08  -0.10   0.02    -0.03   0.01  -0.04
  37   1    -0.17   0.22  -0.01     0.23  -0.31   0.01     0.02   0.03  -0.01
  38   6    -0.22  -0.00  -0.01    -0.17  -0.00  -0.01     0.00  -0.00  -0.00
  39   8    -0.25  -0.00  -0.01    -0.19  -0.00  -0.01     0.00   0.00  -0.00
  40   7     0.16   0.20   0.16     0.12   0.16   0.12    -0.00  -0.00  -0.00
  41   1     0.20   0.05  -0.13     0.15   0.03  -0.08    -0.00   0.00  -0.00
  42   1     0.03   0.14   0.21     0.02   0.12   0.15    -0.00  -0.00  -0.00
  43   7     0.17  -0.20  -0.15     0.13  -0.15  -0.11    -0.00   0.00   0.00
  44   1     0.04  -0.14  -0.21     0.03  -0.12  -0.15    -0.00   0.00  -0.00
  45   1     0.19  -0.05   0.14     0.15  -0.03   0.10    -0.00  -0.00   0.00
  46   6    -0.01  -0.01  -0.01    -0.01  -0.01   0.00    -0.01  -0.01  -0.01
  47   8    -0.01  -0.00  -0.01     0.02  -0.00  -0.02    -0.00  -0.01  -0.02
  48   7     0.04  -0.01  -0.00    -0.05   0.05  -0.00     0.01   0.01  -0.00
  49   1    -0.03   0.03  -0.01     0.13  -0.06   0.07     0.02   0.00   0.02
  50   1    -0.01   0.02  -0.01     0.01   0.03  -0.03     0.00   0.02  -0.02
  51   7     0.02   0.00   0.03    -0.03  -0.01  -0.00    -0.00  -0.00   0.02
  52   1    -0.10   0.06  -0.05     0.14  -0.09   0.09    -0.01   0.00   0.00
  53   1     0.02  -0.02   0.01    -0.04   0.05  -0.01     0.00   0.00   0.00
                     46                     47                     48
                        a                      a                      a 
 Frequencies --   462.5320               467.7347               473.7530
 Red. masses --     3.3072                 7.8632                 7.7692
 Frc consts  --     0.0000                 0.0000                 0.0000
 IR Inten    --     8.5903                 1.6321                20.2984
 Raman Activ --     0.0000                 0.0000                 0.0000
 Depolar     --     0.0000                 0.0000                 0.0000
 Atom AN      X      Y      Z        X      Y      Z        X      Y      Z
   1   8     0.01   0.00   0.00     0.05   0.01  -0.10     0.03   0.01  -0.02
   2   6    -0.05  -0.01   0.02    -0.14   0.01   0.06    -0.19  -0.01   0.11
   3   1    -0.02  -0.00   0.01     0.01   0.01   0.00    -0.04  -0.01   0.04
   4   1    -0.01  -0.01   0.01    -0.05  -0.00   0.07    -0.06  -0.03   0.06
   5   6    -0.05   0.02   0.01    -0.21  -0.21  -0.05    -0.27   0.06   0.02
   6   1    -0.03   0.02  -0.00     0.05  -0.21   0.09    -0.13   0.05  -0.01
   7   1    -0.00   0.02   0.02    -0.13  -0.15  -0.20    -0.04   0.05   0.06
   8   7    -0.03  -0.05  -0.06    -0.19   0.22   0.12    -0.17  -0.15  -0.17
   9   6     0.04   0.06   0.02     0.18  -0.25   0.05     0.20   0.16   0.13
  10   1     0.03   0.04  -0.02     0.07  -0.14   0.06     0.16   0.11  -0.05
  11   1     0.01   0.02   0.03     0.14  -0.06  -0.13     0.06   0.05   0.08
  12   1     0.01   0.02   0.03     0.05  -0.15   0.08     0.05   0.05   0.16
  13   6     0.02  -0.04  -0.09     0.24   0.04   0.15     0.13  -0.16  -0.30
  14   1     0.00  -0.01  -0.04     0.07  -0.06  -0.05     0.03  -0.05  -0.17
  15   1     0.00  -0.01  -0.02     0.13   0.05   0.13     0.04  -0.04  -0.04
  16   1     0.02  -0.01  -0.02     0.12  -0.01   0.05     0.11  -0.04  -0.06
  17   6     0.05  -0.01   0.05    -0.03   0.28  -0.20     0.20   0.04   0.16
  18   1     0.02   0.01   0.03     0.06   0.00  -0.07     0.07   0.04   0.07
  19   1     0.03  -0.03   0.03    -0.02   0.12  -0.08     0.15  -0.08   0.08
  20   1     0.01   0.02   0.02    -0.01   0.11  -0.11     0.04   0.13   0.08
  21   1    -0.00   0.00   0.00     0.01   0.01  -0.03     0.03   0.00  -0.01
  22   6     0.01   0.02  -0.01    -0.00  -0.01   0.01     0.01  -0.00   0.00
  23   8     0.01   0.01  -0.01    -0.01  -0.01   0.00    -0.01   0.00  -0.01
  24   7    -0.02   0.00  -0.01     0.01  -0.00   0.01    -0.00  -0.01   0.00
  25   1    -0.01   0.01   0.02     0.00  -0.00  -0.01     0.00  -0.02  -0.00
  26   1    -0.00  -0.01  -0.02     0.00   0.01   0.01    -0.01   0.01   0.01
  27   7     0.00  -0.01   0.02    -0.00   0.01  -0.01     0.01   0.00   0.00
  28   1     0.02  -0.02   0.01    -0.01   0.01  -0.01    -0.00   0.01   0.00
  29   1    -0.02  -0.01   0.01     0.01   0.00  -0.01     0.01  -0.01  -0.01
  30   6     0.02   0.00   0.01    -0.01  -0.00   0.01    -0.01   0.01   0.01
  31   8    -0.02   0.02  -0.02    -0.01  -0.02   0.01    -0.00  -0.02  -0.00
  32   7    -0.04  -0.00   0.01     0.02  -0.00   0.02     0.01  -0.02   0.02
  33   1     0.04  -0.08   0.03    -0.02   0.04  -0.01    -0.04   0.05  -0.00
  34   1     0.02  -0.05  -0.01    -0.01   0.02   0.01    -0.02   0.02  -0.00
  35   7     0.00   0.03   0.02     0.01   0.00  -0.02     0.02  -0.00  -0.01
  36   1     0.02  -0.02   0.00    -0.01   0.00  -0.02    -0.01   0.01  -0.01
[...]
  44   1    -0.00  -0.00   0.00     0.00   0.00  -0.00    -0.00  -0.00   0.00
  45   1     0.00  -0.00  -0.00    -0.00   0.00   0.00     0.00  -0.00  -0.00
  46   6     0.00   0.00  -0.00    -0.00  -0.00   0.00    -0.00   0.00  -0.00
  47   8    -0.00  -0.00   0.00     0.00  -0.00  -0.00     0.00   0.00   0.00
  48   7    -0.00  -0.00  -0.00    -0.00  -0.00   0.00     0.01  -0.01  -0.18
  49   1    -0.00  -0.00   0.00     0.00   0.00  -0.00    -0.39  -0.46   0.27
  50   1     0.00   0.00   0.00    -0.00  -0.00  -0.00     0.34   0.49   0.42
  51   7    -0.00  -0.00   0.00     0.00   0.00  -0.01    -0.00   0.01   0.01
  52   1     0.00   0.01   0.00    -0.00  -0.01  -0.01    -0.01  -0.03  -0.02
  53   1     0.01  -0.00  -0.02    -0.01   0.00   0.04     0.00  -0.00  -0.01
                    142                    143                    144
                        a                      a                      a 
 Frequencies --  3495.1761              3499.0077              3500.0005
 Red. masses --     1.4393                 1.4634                 1.4375
 Frc consts  --     0.0000                 0.0000                 0.0000
 IR Inten    --    40.2286                 4.2529                38.5100
 Raman Activ --     0.0000                 0.0000                 0.0000
 Depolar     --     0.0000                 0.0000                 0.0000
 Atom AN      X      Y      Z        X      Y      Z        X      Y      Z
   1   8     0.00  -0.00   0.00     0.00   0.00   0.00     0.00  -0.00  -0.00
   2   6    -0.00   0.00  -0.00    -0.00   0.00  -0.00    -0.00   0.00   0.00
   3   1    -0.00  -0.00   0.00     0.00   0.00   0.00    -0.00  -0.00  -0.00
   4   1     0.00  -0.00   0.00     0.00  -0.00  -0.00     0.00  -0.00   0.00
   5   6    -0.00   0.00   0.00    -0.00  -0.00   0.00    -0.00   0.00  -0.00
   6   1    -0.00   0.00  -0.00    -0.00  -0.00   0.00    -0.00   0.00   0.00
   7   1     0.00  -0.00   0.00    -0.00   0.00  -0.00     0.00  -0.00   0.00
   8   7     0.00  -0.00   0.00     0.00   0.00  -0.00     0.00  -0.00  -0.00
   9   6     0.00   0.00   0.00    -0.00  -0.00   0.00    -0.00   0.00  -0.00
  10   1    -0.00   0.00  -0.00    -0.00  -0.00  -0.00    -0.00   0.00  -0.00
  11   1     0.00  -0.00   0.00    -0.00   0.00   0.00     0.00  -0.00   0.00
  12   1    -0.00   0.00  -0.00     0.00  -0.00   0.00     0.00   0.00   0.00
  13   6    -0.00   0.00  -0.00    -0.00  -0.00   0.00     0.00   0.00   0.00
  14   1     0.00   0.00  -0.00     0.00  -0.00   0.00    -0.00   0.00   0.00
  15   1     0.00  -0.00   0.00    -0.00   0.00  -0.00     0.00  -0.00   0.00
  16   1    -0.00   0.00   0.00     0.00   0.00  -0.00     0.00   0.00  -0.00
  17   6    -0.00   0.00   0.00    -0.00  -0.00   0.00    -0.00   0.00  -0.00
  18   1     0.00   0.00  -0.00     0.00   0.00  -0.00    -0.00  -0.00   0.00
  19   1    -0.00  -0.00  -0.00    -0.00   0.00   0.00    -0.00  -0.00  -0.00
  20   1     0.00   0.00  -0.00    -0.00  -0.00   0.00     0.00   0.00   0.00
  21   1    -0.00   0.00  -0.00    -0.00  -0.00  -0.00    -0.00   0.00   0.00
  22   6     0.00  -0.00  -0.00     0.00   0.00  -0.00    -0.00  -0.00   0.00
  23   8     0.00  -0.00   0.00    -0.00  -0.00   0.00     0.00   0.00  -0.00
  24   7     0.03  -0.07   0.08    -0.05   0.09  -0.10     0.00  -0.00   0.00
  25   1    -0.39  -0.04  -0.10     0.51   0.05   0.14    -0.00  -0.00  -0.00
  26   1     0.26   0.31  -0.19    -0.32  -0.39   0.24     0.00   0.00  -0.00
  27   7     0.14   0.01   0.02     0.11   0.00   0.02    -0.00  -0.00  -0.00
  28   1    -0.35  -0.30   0.34    -0.27  -0.23   0.26     0.00   0.00  -0.00
  29   1    -0.19   0.28  -0.40    -0.15   0.22  -0.32     0.00  -0.00   0.00
  30   6    -0.00   0.00  -0.00     0.00   0.00   0.00    -0.00  -0.00   0.00
  31   8     0.00  -0.00   0.00     0.00   0.00  -0.00     0.00  -0.00  -0.00
  32   7     0.00  -0.00   0.00     0.00   0.00   0.01     0.00   0.00  -0.00
  33   1    -0.00   0.00  -0.00    -0.02  -0.02  -0.02     0.00   0.00   0.00
  34   1    -0.00   0.00  -0.00     0.01   0.01  -0.01    -0.00  -0.00   0.00
  35   7    -0.00  -0.00  -0.00    -0.00  -0.00  -0.00     0.00   0.00   0.00
  36   1     0.00   0.00  -0.00     0.02   0.01  -0.01    -0.00  -0.00   0.00
  37   1    -0.00  -0.00   0.00    -0.00  -0.00   0.02    -0.00   0.00  -0.00
  38   6     0.00   0.00  -0.00    -0.00  -0.00   0.00    -0.00  -0.00   0.00
  39   8    -0.00  -0.00   0.00     0.00  -0.00  -0.00     0.00  -0.00  -0.00
  40   7     0.00   0.00   0.00     0.00  -0.00  -0.00     0.08  -0.10  -0.03
  41   1    -0.00  -0.00  -0.00     0.00   0.00   0.00     0.22   0.36   0.18
  42   1     0.00   0.00  -0.00    -0.00   0.00  -0.00    -0.51   0.01  -0.06
  43   7    -0.00   0.00   0.00    -0.00  -0.00  -0.00    -0.07  -0.10  -0.04
  44   1    -0.00   0.00  -0.00     0.00   0.00  -0.00     0.52   0.02  -0.03
  45   1     0.00  -0.00  -0.00    -0.00   0.00   0.00    -0.25   0.36   0.17
  46   6    -0.00  -0.00  -0.00    -0.00   0.00  -0.00    -0.00   0.00   0.00
  47   8     0.00  -0.00   0.00     0.00  -0.00  -0.00     0.00  -0.00   0.00
  48   7    -0.00   0.00   0.00     0.00  -0.00  -0.00     0.00   0.00   0.00
  49   1     0.00   0.00  -0.00    -0.00  -0.00   0.00     0.00   0.00  -0.00
  50   1    -0.00  -0.00  -0.00     0.00   0.00   0.00    -0.00  -0.00  -0.00
  51   7    -0.00  -0.00  -0.00     0.00   0.00  -0.00     0.00   0.00  -0.00
  52   1     0.00   0.00   0.00    -0.00  -0.00  -0.00    -0.00  -0.00  -0.00
  53   1     0.00   0.00  -0.00    -0.00   0.00   0.00    -0.00   0.00   0.00
                    145                    146                    147
                        a                      a                      a 
 Frequencies --  3503.9816              3524.6529              3527.2430
 Red. masses --     1.4617                 1.9101                 2.0709
 Frc consts  --     0.0000                 0.0000                 0.0000
 IR Inten    --     7.3359                 9.7318               103.2296
 Raman Activ --     0.0000                 0.0000                 0.0000
 Depolar     --     0.0000                 0.0000                 0.0000
 Atom AN      X      Y      Z        X      Y      Z        X      Y      Z
   1   8    -0.00  -0.00  -0.00    -0.00  -0.00  -0.00    -0.00  -0.00  -0.00
   2   6     0.00   0.00  -0.00    -0.00   0.00  -0.00     0.00  -0.00   0.00
   3   1     0.00  -0.00  -0.00     0.00   0.00   0.00    -0.00  -0.00  -0.00
   4   1    -0.00   0.00   0.00     0.00  -0.00   0.00    -0.00   0.00  -0.00
   5   6     0.00  -0.00  -0.00     0.00   0.00   0.00     0.00   0.00  -0.00
   6   1    -0.00   0.00   0.00    -0.00  -0.00  -0.00     0.00   0.00   0.00
   7   1    -0.00   0.00  -0.00     0.00  -0.00   0.00     0.00   0.00  -0.00
   8   7     0.00  -0.00   0.00    -0.00   0.00   0.00    -0.00  -0.00  -0.00
   9   6    -0.00  -0.00  -0.00     0.00   0.00   0.00     0.00  -0.00  -0.00
  10   1    -0.00   0.00   0.00    -0.00  -0.00   0.00     0.00   0.00   0.00
  11   1    -0.00   0.00  -0.00     0.00  -0.00   0.00    -0.00   0.00   0.00
  12   1     0.00   0.00   0.00    -0.00   0.00   0.00    -0.00  -0.00  -0.00
  13   6    -0.00  -0.00   0.00     0.00  -0.00  -0.00     0.00   0.00  -0.00
  14   1     0.00  -0.00  -0.00     0.00   0.00   0.00    -0.00  -0.00  -0.00
  15   1    -0.00   0.00  -0.00    -0.00   0.00  -0.00    -0.00  -0.00  -0.00
  16   1    -0.00  -0.00   0.00     0.00  -0.00   0.00    -0.00  -0.00   0.00
  17   6    -0.00  -0.00  -0.00    -0.00  -0.00   0.00     0.00   0.00  -0.00
  18   1    -0.00  -0.00   0.00     0.00   0.00  -0.00    -0.00  -0.00   0.00
  19   1    -0.00  -0.00  -0.00    -0.00   0.00  -0.00     0.00   0.00   0.00
  20   1     0.00   0.00   0.00    -0.00   0.00   0.00    -0.00  -0.00  -0.00
  21   1     0.00   0.00   0.00     0.00   0.00   0.00     0.00   0.01   0.01
  22   6     0.00   0.00  -0.00    -0.00  -0.00  -0.00    -0.00  -0.00   0.00
  23   8    -0.00  -0.00   0.00     0.00   0.00  -0.00     0.00   0.00  -0.00
  24   7    -0.00   0.00  -0.00    -0.00  -0.00   0.00     0.00   0.00  -0.00
  25   1     0.00   0.00   0.00    -0.00  -0.00  -0.00     0.00   0.00   0.00
  26   1    -0.00  -0.00   0.00     0.00   0.00  -0.00    -0.01  -0.02   0.01
  27   7     0.00   0.00   0.00    -0.00  -0.00   0.00     0.00   0.00  -0.00
  28   1    -0.00  -0.00   0.00     0.00   0.00  -0.00    -0.01  -0.01   0.01
  29   1    -0.00   0.00  -0.00     0.00  -0.00   0.00    -0.00   0.00  -0.00
  30   6     0.00   0.00   0.00    -0.00  -0.00   0.00    -0.01  -0.01  -0.00
  31   8    -0.00  -0.00  -0.00     0.00   0.00  -0.00     0.00  -0.00   0.00
  32   7     0.00   0.00   0.00     0.01   0.01   0.00    -0.19  -0.18  -0.11
  33   1    -0.00  -0.00  -0.00    -0.03  -0.03  -0.03     0.51   0.52   0.53
  34   1    -0.00  -0.00   0.00    -0.02  -0.01   0.01     0.22   0.16  -0.13
  35   7    -0.00  -0.00  -0.00     0.00   0.00   0.00     0.00   0.00  -0.02
  36   1     0.00   0.00  -0.00    -0.00  -0.00   0.00     0.00   0.00  -0.00
  37   1    -0.00   0.00   0.00    -0.00  -0.00  -0.00    -0.00  -0.00   0.08
  38   6     0.00   0.00   0.00    -0.00  -0.00  -0.00    -0.00   0.00   0.00
  39   8    -0.01  -0.00  -0.00     0.00  -0.00   0.00     0.00   0.00  -0.00
  40   7     0.07  -0.10  -0.04     0.00  -0.00  -0.00     0.00  -0.00  -0.00
  41   1     0.23   0.38   0.19     0.00   0.00   0.00     0.00   0.00   0.00
  42   1    -0.50   0.01  -0.06    -0.00   0.00  -0.00    -0.00   0.00  -0.00
  43   7     0.07   0.10   0.04     0.00   0.00   0.00     0.00   0.00   0.00
  44   1    -0.50  -0.02   0.03    -0.00  -0.00   0.00    -0.00  -0.00   0.00
  45   1     0.25  -0.36  -0.17     0.00  -0.00  -0.00     0.00  -0.00  -0.00
  46   6     0.00   0.00   0.00    -0.00   0.01   0.01     0.00   0.00   0.00
  47   8    -0.00  -0.00  -0.00     0.00  -0.00  -0.00    -0.00  -0.00  -0.00
  48   7     0.00   0.00   0.00    -0.02  -0.02   0.01    -0.00  -0.00   0.00
  49   1     0.00   0.00  -0.00     0.05   0.06  -0.04     0.00   0.00  -0.00
  50   1    -0.00  -0.00  -0.00     0.01   0.01   0.01     0.00   0.00   0.00
  51   7    -0.00  -0.00  -0.00     0.05   0.21   0.15     0.00   0.01   0.01
  52   1     0.00   0.00   0.00    -0.20  -0.80  -0.47    -0.01  -0.05  -0.03
  53   1    -0.00   0.00   0.00     0.03   0.01  -0.09     0.00   0.00  -0.01
                    148                    149                    150
                        a                      a                      a 
 Frequencies --  3557.5728              3558.2848              3559.8630
 Red. masses --     2.1715                 2.1885                 2.0464
 Frc consts  --     0.0000                 0.0000                 0.0000
 IR Inten    --     6.6672                13.1110                42.9009
 Raman Activ --     0.0000                 0.0000                 0.0000
 Depolar     --     0.0000                 0.0000                 0.0000
 Atom AN      X      Y      Z        X      Y      Z        X      Y      Z
   1   8    -0.00  -0.00  -0.00     0.00   0.00   0.00    -0.00  -0.00  -0.00
   2   6     0.00   0.00  -0.00    -0.00   0.00  -0.00     0.00  -0.00   0.00
   3   1    -0.00   0.00   0.00     0.00  -0.00   0.00    -0.00  -0.00  -0.00
   4   1    -0.00   0.00   0.00     0.00  -0.00   0.00    -0.00   0.00   0.00
   5   6     0.00   0.00   0.00    -0.00   0.00   0.00     0.00   0.00   0.00
   6   1     0.00  -0.00  -0.00    -0.00  -0.00  -0.00     0.00  -0.00  -0.00
   7   1     0.00  -0.00   0.00     0.00  -0.00   0.00    -0.00  -0.00  -0.00
   8   7     0.00  -0.00  -0.00     0.00  -0.00   0.00     0.00   0.00  -0.00
   9   6     0.00   0.00   0.00     0.00   0.00   0.00     0.00   0.00   0.00
  10   1    -0.00  -0.00  -0.00    -0.00  -0.00  -0.00    -0.00  -0.00  -0.00
  11   1    -0.00   0.00   0.00     0.00  -0.00   0.00    -0.00   0.00   0.00
  12   1    -0.00   0.00   0.00    -0.00   0.00  -0.00    -0.00  -0.00   0.00
  13   6     0.00  -0.00  -0.00    -0.00   0.00   0.00     0.00  -0.00  -0.00
  14   1    -0.00  -0.00   0.00     0.00   0.00  -0.00    -0.00  -0.00  -0.00
  15   1    -0.00   0.00   0.00     0.00  -0.00   0.00    -0.00   0.00  -0.00
  16   1     0.00   0.00   0.00     0.00   0.00  -0.00    -0.00  -0.00   0.00
  17   6     0.00   0.00   0.00    -0.00   0.00   0.00     0.00   0.00   0.00
  18   1     0.00   0.00   0.00     0.00   0.00  -0.00    -0.00  -0.00   0.00
  19   1    -0.00  -0.00  -0.00    -0.00  -0.00  -0.00    -0.00  -0.00  -0.00
  20   1    -0.00   0.00   0.00     0.00   0.00  -0.00    -0.00  -0.00  -0.00
  21   1     0.00   0.00   0.00    -0.00  -0.00  -0.00     0.00   0.00   0.00
  22   6    -0.00   0.00  -0.00     0.01  -0.00   0.01    -0.00  -0.00   0.00
  23   8     0.00   0.00   0.00    -0.00   0.00  -0.00     0.00   0.00  -0.00
  24   7    -0.00  -0.00   0.00     0.17   0.08  -0.02     0.03   0.01  -0.00
  25   1     0.00   0.00   0.00    -0.43  -0.03  -0.12    -0.07  -0.00  -0.02
  26   1     0.00   0.00  -0.00    -0.22  -0.28   0.18    -0.04  -0.05   0.03
  27   7     0.00   0.00  -0.00    -0.03  -0.14   0.18     0.00   0.00  -0.00
  28   1    -0.00  -0.00   0.00     0.32   0.25  -0.28    -0.01  -0.01   0.01
  29   1     0.00  -0.00   0.00    -0.21   0.28  -0.42     0.00  -0.00   0.00
  30   6    -0.00  -0.00   0.00     0.00   0.00  -0.00    -0.00  -0.00   0.01
  31   8     0.00   0.00  -0.00    -0.00  -0.00   0.00     0.00   0.00  -0.00
  32   7    -0.00  -0.00  -0.00     0.00   0.00   0.00    -0.02  -0.02  -0.01
  33   1     0.00   0.00   0.00    -0.00  -0.00  -0.00     0.04   0.04   0.04
  34   1    -0.00  -0.00   0.00    -0.00  -0.00   0.00     0.03   0.02  -0.02
  35   7     0.00   0.00  -0.00     0.00   0.00  -0.02    -0.05  -0.03   0.27
  36   1    -0.00  -0.00   0.00    -0.01  -0.01   0.01     0.20   0.14  -0.12
  37   1    -0.00  -0.00   0.01    -0.00   0.00   0.05     0.00   0.00  -0.91
  38   6    -0.00  -0.00   0.00     0.00   0.00   0.00    -0.00  -0.00  -0.00
  39   8     0.00   0.00  -0.00    -0.00  -0.00   0.00     0.00   0.00   0.00
  40   7     0.00   0.00   0.00     0.00   0.00   0.00    -0.00  -0.00  -0.00
  41   1    -0.00  -0.00  -0.00    -0.00  -0.00  -0.00     0.00   0.00   0.00
  42   1     0.00   0.00   0.00    -0.00   0.00  -0.00     0.00  -0.00   0.00
  43   7     0.00  -0.00  -0.00    -0.00   0.00   0.00     0.00  -0.00  -0.00
  44   1    -0.00  -0.00   0.00     0.00   0.00  -0.00    -0.00  -0.00   0.00
  45   1    -0.00   0.00   0.00     0.00  -0.00  -0.00    -0.00   0.00   0.00
  46   6     0.01   0.01   0.00     0.00   0.00  -0.00    -0.00  -0.00   0.00
  47   8    -0.00  -0.00  -0.00    -0.00  -0.00   0.00     0.00   0.00   0.00
  48   7     0.18   0.23   0.02     0.00   0.00   0.00     0.00   0.00  -0.00
  49   1    -0.41  -0.48   0.32    -0.00  -0.00   0.00    -0.00  -0.00   0.00
  50   1    -0.29  -0.41  -0.39    -0.00  -0.00  -0.00    -0.00  -0.00  -0.00
  51   7     0.00   0.02   0.01     0.00   0.00   0.00    -0.00   0.00   0.00
  52   1    -0.02  -0.07  -0.04    -0.00  -0.00  -0.00    -0.00  -0.00  -0.00
  53   1     0.00   0.00  -0.01    -0.00   0.00   0.00     0.00  -0.00  -0.01
                    151                    152                    153
                        a                      a                      a 
 Frequencies --  3563.8670              3564.4000              3569.9234
 Red. masses --     2.1747                 2.1910                 2.1773
 Frc consts  --     0.0000                 0.0000                 0.0000
 IR Inten    --    19.9995                13.0881                10.8378
 Raman Activ --     0.0000                 0.0000                 0.0000
 Depolar     --     0.0000                 0.0000                 0.0000
 Atom AN      X      Y      Z        X      Y      Z        X      Y      Z
   1   8     0.00   0.00   0.00     0.00  -0.00  -0.00     0.00   0.00   0.00
   2   6    -0.00   0.00  -0.00    -0.00   0.00   0.00    -0.00  -0.00  -0.00
   3   1     0.00   0.00   0.00    -0.00  -0.00  -0.00    -0.00   0.00   0.00
   4   1     0.00  -0.00   0.00     0.00  -0.00   0.00     0.00   0.00  -0.00
   5   6    -0.00  -0.00  -0.00    -0.00   0.00  -0.00    -0.00   0.00   0.00
   6   1    -0.00  -0.00   0.00    -0.00   0.00   0.00     0.00  -0.00  -0.00
   7   1     0.00   0.00   0.00     0.00  -0.00   0.00     0.00   0.00  -0.00
   8   7     0.00  -0.00   0.00     0.00  -0.00  -0.00    -0.00   0.00  -0.00
   9   6    -0.00  -0.00  -0.00    -0.00  -0.00  -0.00     0.00   0.00   0.00
  10   1     0.00   0.00   0.00     0.00   0.00   0.00     0.00  -0.00  -0.00
  11   1     0.00   0.00  -0.00    -0.00  -0.00   0.00     0.00   0.00  -0.00
  12   1     0.00   0.00  -0.00     0.00  -0.00  -0.00    -0.00   0.00  -0.00
  13   6    -0.00  -0.00   0.00     0.00   0.00  -0.00     0.00   0.00  -0.00
  14   1     0.00   0.00  -0.00    -0.00   0.00   0.00    -0.00   0.00   0.00
  15   1    -0.00   0.00  -0.00     0.00  -0.00   0.00     0.00   0.00   0.00
  16   1     0.00   0.00  -0.00     0.00   0.00   0.00     0.00  -0.00   0.00
  17   6    -0.00  -0.00   0.00    -0.00  -0.00  -0.00     0.00   0.00   0.00
  18   1     0.00   0.00  -0.00    -0.00  -0.00   0.00     0.00  -0.00   0.00
  19   1    -0.00  -0.00   0.00    -0.00   0.00  -0.00     0.00  -0.00  -0.00
  20   1     0.00   0.00  -0.00     0.00   0.00   0.00    -0.00  -0.00  -0.00
  21   1    -0.00  -0.00  -0.00    -0.00   0.00   0.00    -0.00  -0.00  -0.00
  22   6     0.01   0.01  -0.01     0.00   0.00  -0.00    -0.00  -0.00   0.00
  23   8    -0.00  -0.00   0.00    -0.00  -0.00   0.00     0.00   0.00  -0.00
  24   7     0.21   0.10  -0.02     0.00   0.00  -0.00    -0.00  -0.00   0.00
  25   1    -0.51  -0.03  -0.15    -0.01  -0.00  -0.00     0.00   0.00   0.00
  26   1    -0.28  -0.36   0.23    -0.00  -0.00   0.00     0.00   0.00  -0.00
  27   7     0.03   0.11  -0.15     0.00   0.00  -0.00    -0.00  -0.00   0.00
  28   1    -0.27  -0.21   0.24    -0.00  -0.00   0.00     0.00   0.00  -0.00
  29   1     0.17  -0.22   0.33     0.00  -0.00   0.00    -0.00   0.00  -0.00
  30   6     0.00   0.00  -0.00    -0.00   0.00   0.00     0.00  -0.00  -0.00
  31   8     0.00   0.00   0.00     0.00  -0.00  -0.00    -0.00   0.00   0.00
  32   7     0.01   0.00   0.00     0.00   0.00  -0.00    -0.00   0.00   0.00
  33   1    -0.01  -0.01  -0.01    -0.00  -0.00  -0.00    -0.00  -0.00  -0.00
  34   1    -0.01  -0.01   0.01    -0.00  -0.00   0.00     0.00   0.00  -0.00
  35   7     0.01   0.00  -0.02     0.00   0.00  -0.00    -0.00  -0.00   0.00
  36   1    -0.03  -0.02   0.02    -0.00  -0.00   0.00     0.00   0.00  -0.00
  37   1     0.00   0.00   0.08    -0.00   0.00   0.00     0.00  -0.00  -0.00
  38   6     0.00   0.00   0.00     0.00  -0.01  -0.00     0.01   0.00   0.00
  39   8    -0.00  -0.00  -0.00    -0.00   0.00   0.00    -0.00  -0.00  -0.00
  40   7     0.00   0.00   0.00    -0.17  -0.09  -0.06     0.19   0.10   0.07
  41   1    -0.00  -0.00  -0.00     0.21   0.37   0.18    -0.23  -0.42  -0.21
  42   1    -0.01   0.00  -0.00     0.41  -0.02   0.04    -0.49   0.03  -0.05
  43   7    -0.00   0.00   0.00     0.20  -0.10  -0.06     0.17  -0.09  -0.05
  44   1     0.00   0.00  -0.00    -0.47  -0.04   0.03    -0.43  -0.04   0.02
  45   1     0.00  -0.00  -0.00    -0.26   0.43   0.19    -0.22   0.36   0.16
  46   6     0.00  -0.00  -0.00    -0.00   0.00   0.00     0.00  -0.00  -0.00
  47   8    -0.00  -0.00  -0.00     0.00  -0.00  -0.00    -0.00   0.00   0.00
  48   7    -0.00  -0.00  -0.00    -0.00  -0.00   0.00    -0.00  -0.00  -0.00
  49   1     0.00   0.00  -0.00     0.00   0.00  -0.00     0.00   0.00  -0.00
  50   1     0.00   0.00   0.00     0.00   0.00   0.00     0.00   0.00   0.00
  51   7     0.00  -0.00  -0.00     0.00  -0.00  -0.00    -0.00  -0.00  -0.00
  52   1     0.00   0.00   0.00    -0.00   0.00  -0.00     0.00   0.00   0.00
  53   1    -0.00   0.00   0.00    -0.00   0.00   0.00     0.00  -0.00  -0.00
