 Entering Gaussian System
 *********************************************
 Gaussian 98:
 frequency output generated by the xtb code
 *********************************************
                         Standard orientation:
 --------------------------------------------------------------------
  Center     Atomic     Atomic              Coordinates (Angstroms)
  Number     Number      Type              X           Y           Z
 --------------------------------------------------------------------
    1          8             0       -1.315394   -2.600153    1.316227
    2          6             0        0.053991   -2.904559    1.334109
    3          1             0        0.156929   -3.956151    1.628817
    4          1             0        0.505212   -2.784816    0.348090
    5          6             0        0.853683   -2.094219    2.373775
    6          1             0        1.893999   -2.413768    2.290271
    7          1             0        0.487444   -2.339616    3.372634
    8          7             0        0.801269   -0.615532    2.225100
    9          6             0        1.915371   -0.010610    2.975010
   10          1             0        1.888827   -0.326646    4.016125
   11          1             0        1.816492    1.073764    2.918519
   12          1             0        2.866001   -0.306072    2.535943
   13          6             0       -0.461895   -0.086371    2.769477
   14          1             0       -0.505705   -0.255451    3.843626
   15          1             0       -1.304173   -0.589141    2.300007
   16          1             0       -0.498459    0.984154    2.571052
   17          6             0        0.914194   -0.199647    0.817158
   18          1             0        1.765644   -0.677373    0.337571
   19          1             0        1.025631    0.884127    0.794165
   20          1             0        0.011842   -0.467159    0.274026
   21          1             0       -1.524306   -2.093613    0.504544
   22          6             0        1.231235   -2.968818   -2.256676
   23          8             0        1.779873   -2.049722   -1.658272
   24          7             0       -0.112850   -3.140060   -2.242333
   25          1             0       -0.695693   -2.421033   -1.838828
   26          1             0       -0.553603   -3.819976   -2.834504
   27          7             0        1.936762   -3.890470   -2.953270
   28          1             0        1.505504   -4.685761   -3.386733
   29          1             0        2.939473   -3.843605   -2.929120
   30          6             0        0.516132    3.846664    1.664136
   31          8             0        0.739385    2.672268    1.944700
   32          7             0        0.137522    4.240808    0.432833
   33          1             0       -0.127281    3.537916   -0.256724
   34          1             0       -0.171679    5.183129    0.275061
   35          7             0        0.644976    4.830552    2.593325
   36          1             0        0.596337    5.801143    2.342135
   37          1             0        1.054976    4.598418    3.480318
   38          6             0        0.492856    1.602566   -1.906430
   39          8             0       -0.465124    2.276555   -1.508474
   40          7             0        0.355283    0.320363   -2.287414
   41          1             0       -0.506429   -0.134744   -2.006157
   42          1             0        1.157959   -0.295706   -2.308641
   43          7             0        1.738957    2.127339   -1.978169
   44          1             0        2.475377    1.619182   -2.434130
   45          1             0        1.848276    3.120521   -1.868970
   46          6             0       -2.837107   -0.364264   -0.839474
   47          8             0       -1.776795   -1.017218   -0.854217
   48          7             0       -2.862644    0.940644   -1.109515
   49          1             0       -1.991157    1.456031   -1.295275
   50          1             0       -3.725273    1.453609   -1.101294
   51          7             0       -4.002779   -0.969669   -0.527172
   52          1             0       -4.877502   -0.478231   -0.529260
   53          1             0       -4.006896   -1.953942   -0.325301
 --------------------------------------------------------------------
     1 basis functions        1 primitive gaussians
     1 alpha electrons        1 beta electrons

 Harmonic frequencies (cm**-1), IR intensities (km*mol⁻¹),
 Raman scattering activities (A**4/amu), Raman depolarization ratios,
 reduced masses (AMU), force constants (mDyne/A) and normal coordinates:
                      1                      2                      3
                        a                      a                      a 
 Frequencies --    17.6918                23.9890                30.8213
 Red. masses --    12.4657                12.2841                11.6931
 Frc consts  --     0.0000                 0.0000                 0.0000
 IR Inten    --     0.9830                 3.5289                 3.6273
 Raman Activ --     0.0000                 0.0000                 0.0000
 Depolar     --     0.0000                 0.0000                 0.0000
 Atom AN      X      Y      Z        X      Y      Z        X      Y      Z
   1   8     0.12  -0.13  -0.11     0.09   0.15   0.11     0.13  -0.16  -0.08
   2   6     0.12  -0.03  -0.05     0.08   0.09   0.01     0.15  -0.01   0.03
   3   1     0.05  -0.01  -0.02     0.02   0.02  -0.01     0.06  -0.00   0.01
   4   1     0.04   0.00  -0.01     0.01   0.03  -0.00     0.06   0.02   0.02
   5   6     0.03   0.00  -0.01     0.15   0.05  -0.01    -0.03   0.05   0.12
   6   1     0.01   0.01   0.01     0.04   0.01  -0.03     0.00   0.03   0.07
   7   1    -0.00  -0.00  -0.01     0.06   0.01   0.00    -0.04   0.01   0.02
   8   7    -0.02   0.00  -0.00     0.15   0.06   0.04    -0.09   0.05   0.10
   9   6    -0.10   0.05   0.08     0.19   0.04  -0.04    -0.22   0.12   0.23
  10   1    -0.05   0.01   0.02     0.08   0.00  -0.01    -0.10   0.04   0.07
  11   1    -0.04   0.01   0.02     0.05   0.01   0.00    -0.08   0.03   0.06
  12   1    -0.02   0.03   0.04     0.05   0.02  -0.03    -0.04   0.04   0.11
  13   6    -0.08  -0.05  -0.09     0.17   0.03   0.15    -0.18  -0.00  -0.09
  14   1    -0.04  -0.02  -0.03     0.08   0.00   0.04    -0.09   0.00  -0.03
  15   1    -0.01  -0.02  -0.04     0.04   0.01   0.06    -0.03  -0.01  -0.06
  16   1    -0.03  -0.01  -0.02     0.04   0.01   0.05    -0.06  -0.00  -0.03
  17   6     0.06   0.01   0.01     0.02   0.09   0.04     0.07   0.03   0.10
  18   1     0.03   0.01   0.02    -0.00   0.03  -0.01     0.04   0.02   0.06
  19   1     0.01   0.00   0.00     0.01   0.03   0.02     0.01   0.01   0.03
  20   1     0.03  -0.01  -0.02    -0.00   0.03   0.03     0.04  -0.01  -0.00
  21   1     0.03  -0.02  -0.02     0.01   0.02   0.02     0.04  -0.03  -0.02
  22   6    -0.08  -0.07  -0.04    -0.18  -0.10  -0.00    -0.12  -0.01  -0.08
  23   8    -0.05  -0.11  -0.03    -0.17  -0.22   0.12    -0.15  -0.14   0.12
  24   7    -0.09  -0.01  -0.05    -0.20  -0.05  -0.03    -0.13  -0.03  -0.10
  25   1    -0.01   0.00  -0.01    -0.05  -0.02   0.01    -0.03  -0.03   0.01
  26   1    -0.03   0.00  -0.01    -0.06   0.01  -0.03    -0.03   0.03  -0.07
  27   7    -0.13  -0.09  -0.07    -0.24  -0.04  -0.14    -0.13   0.18  -0.34
  28   1    -0.04  -0.02  -0.02    -0.07  -0.00  -0.04    -0.03   0.05  -0.10
  29   1    -0.03  -0.04  -0.02    -0.06  -0.03  -0.02    -0.04   0.03  -0.06
  30   6    -0.19  -0.01   0.01    -0.10   0.03   0.10     0.09   0.07  -0.04
  31   8    -0.21  -0.01   0.02     0.04   0.06   0.12    -0.08   0.07   0.04
  32   7    -0.06  -0.00  -0.03    -0.11  -0.01   0.10     0.15   0.05  -0.07
  33   1     0.02   0.00  -0.02    -0.00  -0.01   0.02     0.01   0.01  -0.00
  34   1    -0.01  -0.00  -0.02    -0.06  -0.01   0.02     0.07   0.02  -0.03
  35   7    -0.38  -0.02   0.05    -0.27   0.04   0.12     0.27   0.13  -0.12
  36   1    -0.10  -0.01   0.02    -0.10   0.01   0.03     0.10   0.03  -0.05
  37   1    -0.13  -0.01   0.03    -0.07   0.03   0.03     0.06   0.03  -0.02
  38   6     0.13  -0.03  -0.10     0.08  -0.03   0.02     0.00   0.01   0.05
  39   8     0.18   0.03  -0.13     0.10  -0.05   0.05    -0.03  -0.04   0.08
  40   7     0.09  -0.04  -0.04     0.09  -0.04   0.05     0.07   0.01   0.06
  41   1     0.02   0.00  -0.01     0.03  -0.02   0.03     0.03  -0.01   0.02
  42   1     0.02  -0.02  -0.01     0.03  -0.01  -0.00     0.02   0.01   0.01
  43   7     0.16  -0.07  -0.14     0.07  -0.00  -0.05    -0.02   0.08   0.04
  44   1     0.03  -0.03  -0.04     0.02   0.00  -0.02    -0.00   0.03   0.00
  45   1     0.05  -0.02  -0.06     0.01   0.00  -0.02    -0.02   0.02   0.01
  46   6     0.11   0.13   0.16     0.01  -0.03  -0.16     0.06  -0.11  -0.00
  47   8     0.09   0.08   0.05     0.03  -0.01  -0.03     0.11  -0.07   0.00
  48   7     0.16   0.13   0.14     0.04  -0.02  -0.13     0.01  -0.11   0.05
  49   1     0.04   0.02   0.01     0.02  -0.01  -0.01    -0.00  -0.02   0.02
  50   1     0.05   0.05   0.07     0.01  -0.01  -0.08    -0.00  -0.04   0.01
  51   7     0.13   0.22   0.37    -0.03  -0.06  -0.41     0.09  -0.20  -0.07
  52   1     0.04   0.07   0.11    -0.01  -0.02  -0.12     0.02  -0.06  -0.01
  53   1     0.03   0.06   0.09    -0.01  -0.01  -0.10     0.04  -0.05  -0.02
                      4                      5                      6
                        a                      a                      a 
 Frequencies --    38.0835                40.8145                43.8182
 Red. masses --    11.9785                12.1197                11.9229
 Frc consts  --     0.0000                 0.0000                 0.0000
 IR Inten    --     0.7905                 1.4468                 4.3394
 Raman Activ --     0.0000                 0.0000                 0.0000
 Depolar     --     0.0000                 0.0000                 0.0000
 Atom AN      X      Y      Z        X      Y      Z        X      Y      Z
   1   8    -0.08  -0.00   0.06    -0.11   0.08   0.12     0.11  -0.12  -0.14
   2   6    -0.09  -0.06   0.11    -0.12  -0.02   0.13     0.11  -0.04  -0.02
   3   1    -0.04  -0.02   0.04    -0.06  -0.00   0.05     0.03  -0.01   0.01
   4   1    -0.01  -0.03   0.04    -0.03  -0.03   0.04     0.05  -0.02   0.00
   5   6    -0.08  -0.07   0.12    -0.07  -0.02   0.09     0.01   0.01   0.02
   6   1    -0.03  -0.04   0.05    -0.03  -0.03   0.03     0.00   0.00   0.04
   7   1    -0.04  -0.01   0.03    -0.03   0.02   0.03    -0.03   0.02  -0.00
   8   7    -0.00  -0.08   0.08     0.04  -0.03   0.02     0.04   0.01  -0.07
   9   6    -0.00  -0.10   0.10     0.07  -0.06  -0.00    -0.05   0.03   0.05
  10   1    -0.02  -0.02   0.03     0.01   0.00   0.00    -0.05   0.02   0.02
  11   1     0.02  -0.03   0.02     0.04  -0.02  -0.02    -0.01   0.01  -0.00
  12   1     0.00  -0.05   0.04     0.01  -0.04   0.01     0.00  -0.00   0.05
  13   6     0.00   0.01   0.01     0.06   0.09  -0.03    -0.03   0.05  -0.24
  14   1    -0.01   0.01   0.00     0.01   0.05  -0.01    -0.05   0.02  -0.07
  15   1    -0.00   0.01  -0.00     0.01   0.03  -0.00     0.01   0.01  -0.10
  16   1     0.02   0.00  -0.01     0.04   0.02  -0.03     0.01   0.01  -0.08
  17   6     0.07  -0.11   0.07     0.08  -0.11  -0.00     0.21  -0.06  -0.07
  18   1     0.02  -0.05   0.03     0.02  -0.06   0.01     0.07  -0.03   0.01
  19   1     0.04  -0.03   0.01     0.05  -0.03  -0.02     0.07  -0.02  -0.03
  20   1     0.02  -0.02   0.01     0.02  -0.02  -0.00     0.08  -0.02  -0.05
  21   1    -0.00   0.01   0.02    -0.01   0.02   0.03     0.04  -0.01  -0.03
  22   6     0.00   0.02   0.08    -0.01   0.06  -0.06    -0.12  -0.06   0.06
  23   8     0.00  -0.03   0.16     0.04  -0.05   0.08    -0.07   0.06  -0.20
  24   7     0.00   0.00   0.10    -0.01   0.07  -0.00    -0.14   0.01   0.16
  25   1     0.00   0.00   0.03     0.01   0.01   0.03    -0.02   0.03   0.01
  26   1     0.00   0.02  -0.00    -0.01   0.06  -0.04    -0.05  -0.04   0.10
  27   7    -0.01   0.10  -0.03    -0.06   0.22  -0.32    -0.20  -0.32   0.33
  28   1    -0.00   0.02   0.00    -0.02   0.07  -0.10    -0.07  -0.09   0.11
  29   1    -0.00   0.01   0.01    -0.02   0.04  -0.08    -0.05  -0.08   0.04
  30   6     0.01  -0.09   0.01    -0.04  -0.04  -0.12     0.00  -0.00  -0.00
  31   8     0.11  -0.11  -0.07     0.18  -0.03  -0.25     0.14  -0.01  -0.14
  32   7    -0.15  -0.06   0.07    -0.24  -0.02  -0.06    -0.19   0.06   0.08
  33   1    -0.03  -0.01   0.01    -0.05  -0.00  -0.03    -0.05   0.02   0.01
  34   1    -0.04  -0.02   0.03    -0.10  -0.01   0.01    -0.07   0.01   0.05
  35   7     0.05  -0.14   0.05    -0.11  -0.09  -0.07     0.03  -0.07   0.07
  36   1    -0.00  -0.03   0.03    -0.07  -0.02  -0.00    -0.02  -0.01   0.04
  37   1     0.04  -0.04  -0.00     0.01  -0.02  -0.04     0.05  -0.03  -0.00
  38   6    -0.02   0.14  -0.19     0.05  -0.02   0.09    -0.02   0.12   0.07
  39   8    -0.05   0.10  -0.16    -0.03  -0.01  -0.10    -0.07   0.09   0.05
  40   7     0.08   0.06   0.08     0.11  -0.01   0.05     0.03   0.16  -0.05
  41   1     0.05   0.00   0.08     0.02  -0.00  -0.03     0.01   0.03  -0.04
  42   1     0.04   0.04  -0.00     0.03  -0.00   0.05     0.01   0.04  -0.01
  43   7    -0.12   0.33  -0.57     0.07  -0.04   0.38    -0.02   0.16   0.22
  44   1    -0.03   0.09  -0.16     0.04  -0.01   0.14     0.01   0.06   0.06
  45   1    -0.07   0.10  -0.21     0.02  -0.01   0.12    -0.01   0.04   0.08
  46   6     0.06   0.02  -0.01     0.03   0.00   0.01     0.06  -0.01  -0.04
  47   8     0.10   0.06   0.07     0.05   0.03   0.06     0.12   0.08   0.01
  48   7     0.03   0.00  -0.09    -0.03  -0.06  -0.29    -0.03  -0.02  -0.08
  49   1     0.00   0.01  -0.03    -0.01  -0.01  -0.08    -0.01   0.01  -0.01
  50   1     0.00  -0.01  -0.04    -0.01  -0.02  -0.07    -0.02  -0.02  -0.03
  51   7     0.08  -0.01  -0.03     0.08   0.04   0.25     0.09  -0.10  -0.09
  52   1     0.02  -0.01  -0.02     0.01   0.00   0.04     0.02  -0.04  -0.03
  53   1     0.03   0.00   0.01     0.03   0.02   0.10     0.04  -0.02  -0.01
                      7                      8                      9
                        a                      a                      a 
 Frequencies --    52.6184                57.3253                61.9434
 Red. masses --    12.5004                12.8142                12.9415
 Frc consts  --     0.0000                 0.0000                 0.0000
 IR Inten    --     1.7720                 0.8080                 0.7417
 Raman Activ --     0.0000                 0.0000                 0.0000
 Depolar     --     0.0000                 0.0000                 0.0000
 Atom AN      X      Y      Z        X      Y      Z        X      Y      Z
   1   8     0.10   0.01  -0.12    -0.05   0.14  -0.12    -0.08   0.13  -0.03
   2   6     0.09   0.03  -0.15    -0.06   0.07  -0.07    -0.07   0.11  -0.01
   3   1     0.04   0.00  -0.07    -0.03   0.02  -0.03    -0.02   0.03  -0.01
   4   1     0.02   0.04  -0.04    -0.01   0.02  -0.02    -0.02   0.03  -0.00
   5   6     0.09  -0.03  -0.11    -0.07   0.03  -0.03    -0.10   0.09   0.01
   6   1     0.03   0.01  -0.05    -0.02  -0.00   0.00    -0.03   0.02   0.02
   7   1     0.04  -0.04  -0.03    -0.04   0.01  -0.02    -0.04   0.03  -0.00
   8   7     0.03  -0.02   0.02    -0.00   0.04  -0.04    -0.04   0.10   0.00
   9   6     0.04  -0.03   0.01     0.00  -0.01  -0.01    -0.07   0.05   0.09
  10   1     0.03  -0.03  -0.00    -0.01   0.00  -0.00    -0.05   0.01   0.02
  11   1    -0.00  -0.01   0.03     0.02  -0.00  -0.01    -0.01   0.02   0.03
  12   1     0.01   0.01  -0.01     0.00  -0.02   0.01    -0.01   0.01   0.05
  13   6     0.03  -0.12   0.12     0.00   0.09  -0.08    -0.06   0.14  -0.09
  14   1     0.03  -0.06   0.03    -0.01   0.03  -0.02    -0.05   0.03  -0.03
  15   1     0.01  -0.04   0.04    -0.00   0.04  -0.03    -0.01   0.06  -0.05
  16   1    -0.01  -0.03   0.06     0.02   0.03  -0.03     0.00   0.04  -0.02
  17   6    -0.05   0.10   0.05     0.05   0.02  -0.04     0.07   0.09   0.01
  18   1    -0.02   0.05  -0.01     0.01  -0.01  -0.00     0.03   0.02   0.02
  19   1    -0.03   0.03   0.04     0.03   0.00  -0.01     0.03   0.02   0.01
  20   1    -0.02   0.03   0.02     0.02   0.01  -0.02     0.03   0.03  -0.02
  21   1     0.01   0.01  -0.02    -0.01   0.01  -0.05    -0.02   0.02  -0.02
  22   6    -0.04  -0.03   0.08     0.02  -0.10   0.01     0.06  -0.09  -0.11
  23   8    -0.10  -0.10   0.24    -0.11  -0.21   0.29     0.05   0.01  -0.29
  24   7    -0.06   0.10  -0.22     0.01  -0.02  -0.39     0.08  -0.26   0.11
  25   1    -0.02   0.02  -0.05    -0.02  -0.02  -0.10     0.02  -0.06   0.01
  26   1    -0.00   0.03  -0.07     0.03   0.01  -0.15     0.02  -0.08   0.04
  27   7     0.02  -0.09   0.23     0.17  -0.06   0.11     0.06  -0.06  -0.18
  28   1     0.01   0.00   0.01     0.07   0.00  -0.03     0.02  -0.05   0.01
  29   1     0.01  -0.04   0.10     0.04  -0.03   0.10     0.02   0.00  -0.07
  30   6     0.00  -0.00   0.05     0.01   0.03  -0.01     0.04   0.05   0.20
  31   8    -0.12   0.00   0.17     0.25   0.06  -0.10     0.21   0.10   0.29
  32   7    -0.03  -0.08   0.04    -0.33   0.01   0.09    -0.18  -0.09   0.24
  33   1    -0.02  -0.03   0.02    -0.06  -0.00   0.02    -0.02  -0.04   0.07
  34   1     0.02  -0.02  -0.01    -0.12  -0.01   0.04    -0.06  -0.03   0.05
  35   7     0.19   0.08  -0.06     0.06   0.02  -0.01     0.08   0.14   0.12
  36   1     0.06   0.02  -0.04    -0.03   0.01   0.01    -0.02   0.03   0.01
  37   1     0.04   0.03  -0.01     0.08   0.01  -0.03     0.06   0.06   0.02
  38   6    -0.03   0.03  -0.01     0.01  -0.01   0.04    -0.01  -0.09  -0.05
  39   8    -0.09  -0.01  -0.08    -0.00  -0.04   0.04     0.05  -0.13   0.12
  40   7     0.04   0.01   0.02     0.05  -0.03   0.06    -0.07  -0.07  -0.14
  41   1     0.01  -0.01   0.00     0.02  -0.01   0.01    -0.01  -0.02  -0.02
  42   1     0.02   0.01   0.01     0.02   0.00   0.01    -0.02  -0.02  -0.06
  43   7    -0.05   0.09   0.03    -0.01   0.03   0.02    -0.01  -0.12  -0.15
  44   1    -0.00   0.03   0.02     0.00   0.02   0.00    -0.02  -0.02  -0.07
  45   1    -0.03   0.03  -0.00    -0.01   0.01   0.00     0.00  -0.03  -0.03
  46   6    -0.02   0.01  -0.07    -0.00  -0.01   0.05     0.00  -0.03  -0.03
  47   8    -0.00   0.05  -0.08    -0.03  -0.06  -0.22     0.01  -0.03  -0.08
  48   7    -0.12  -0.08  -0.50     0.03   0.06   0.41    -0.03  -0.07  -0.21
  49   1    -0.04  -0.01  -0.12     0.01   0.01   0.07    -0.01  -0.02  -0.04
  50   1    -0.03  -0.02  -0.09     0.01   0.02   0.14    -0.00  -0.01  -0.03
  51   7     0.06   0.07   0.34     0.00  -0.04   0.04     0.05   0.01   0.20
  52   1     0.01   0.00   0.05     0.01   0.00   0.08     0.01  -0.00   0.04
  53   1     0.03   0.03   0.12    -0.00  -0.02  -0.04     0.02   0.00   0.06
                     10                     11                     12
                        a                      a                      a 
 Frequencies --    69.1979                72.2567                77.5919
 Red. masses --    12.5808                11.9416                13.3259
 Frc consts  --     0.0000                 0.0000                 0.0000
 IR Inten    --     0.5002                 2.7781                 1.1869
 Raman Activ --     0.0000                 0.0000                 0.0000
 Depolar     --     0.0000                 0.0000                 0.0000
 Atom AN      X      Y      Z        X      Y      Z        X      Y      Z
   1   8     0.12  -0.13  -0.00    -0.10   0.06   0.02     0.13  -0.04  -0.23
   2   6     0.12  -0.02  -0.02    -0.10  -0.03  -0.01     0.12   0.01  -0.15
   3   1     0.05  -0.01  -0.02    -0.04  -0.00   0.01     0.04  -0.00  -0.05
   4   1     0.03   0.01  -0.01    -0.04  -0.03  -0.01     0.05   0.02  -0.03
   5   6     0.08  -0.01  -0.00    -0.01  -0.01  -0.10     0.05  -0.01  -0.09
   6   1     0.03   0.02  -0.01    -0.00   0.00  -0.06     0.02   0.00  -0.01
   7   1     0.03  -0.02  -0.00     0.03  -0.00  -0.02     0.00  -0.01  -0.03
   8   7    -0.01  -0.01   0.05    -0.07  -0.01  -0.10     0.04  -0.01  -0.06
   9   6    -0.03   0.04   0.05     0.03   0.03  -0.26    -0.00  -0.02   0.01
  10   1    -0.00   0.00   0.01     0.06   0.00  -0.08    -0.01  -0.01   0.00
  11   1    -0.03   0.01   0.02    -0.01   0.01  -0.07    -0.00  -0.01   0.01
  12   1    -0.01   0.03   0.01    -0.01   0.02  -0.12     0.01  -0.00   0.01
  13   6    -0.03  -0.10   0.08    -0.00  -0.05   0.08     0.01  -0.04  -0.10
  14   1     0.00  -0.04   0.02     0.05  -0.01   0.03    -0.01  -0.02  -0.03
  15   1    -0.00  -0.04   0.02    -0.02  -0.02   0.06     0.01  -0.01  -0.05
  16   1    -0.03  -0.03   0.03    -0.02  -0.01   0.02     0.00  -0.01  -0.02
  17   6    -0.05   0.03   0.06    -0.26  -0.00  -0.11     0.09   0.03  -0.04
  18   1    -0.01   0.02   0.01    -0.09   0.01  -0.06     0.03   0.01  -0.01
  19   1    -0.03   0.01   0.02    -0.09  -0.00  -0.03     0.03   0.01  -0.00
  20   1    -0.02   0.00   0.02    -0.09  -0.01  -0.00     0.03   0.01  -0.02
  21   1     0.02  -0.01   0.01    -0.02  -0.01  -0.01     0.03   0.00  -0.05
  22   6     0.04   0.04  -0.01    -0.02  -0.12   0.04    -0.03   0.01   0.23
  23   8     0.12   0.03  -0.06    -0.04  -0.10  -0.01    -0.17   0.02   0.37
  24   7     0.04   0.07   0.10    -0.01  -0.31   0.28     0.00  -0.31   0.43
  25   1     0.02   0.02   0.04    -0.00  -0.06   0.04    -0.02  -0.08   0.08
  26   1    -0.01   0.02   0.04    -0.00  -0.06   0.05     0.03  -0.05   0.05
  27   7    -0.04   0.02  -0.06    -0.04  -0.02  -0.12     0.09   0.33  -0.06
  28   1    -0.03   0.01  -0.01    -0.00  -0.04   0.03     0.06   0.04   0.04
  29   1    -0.01   0.00  -0.04    -0.01  -0.00  -0.04     0.02   0.11   0.02
  30   6    -0.08  -0.03  -0.01    -0.07   0.05   0.01     0.04  -0.04  -0.00
  31   8    -0.12  -0.03   0.01    -0.27   0.01  -0.01     0.13  -0.04  -0.04
  32   7    -0.54  -0.11   0.11    -0.12   0.11   0.04     0.05  -0.03   0.00
  33   1    -0.12  -0.03   0.02    -0.04   0.04   0.01     0.02  -0.01  -0.00
  34   1    -0.09  -0.01   0.01     0.01   0.04   0.01    -0.01  -0.01   0.01
  35   7     0.38   0.04  -0.16     0.20   0.03  -0.01    -0.06  -0.07   0.04
  36   1     0.07   0.01  -0.05     0.07   0.01   0.01    -0.03  -0.02   0.02
  37   1     0.15   0.02  -0.06     0.04  -0.01  -0.00    -0.01  -0.02   0.01
  38   6     0.04  -0.07  -0.03     0.09   0.12   0.04    -0.05  -0.03  -0.03
  39   8     0.05   0.02  -0.18     0.04   0.06   0.04    -0.03   0.01  -0.04
  40   7    -0.01  -0.10   0.07     0.21   0.13   0.02    -0.11  -0.00  -0.11
  41   1    -0.01  -0.01   0.01     0.06   0.01  -0.01    -0.03   0.00  -0.03
  42   1    -0.01  -0.04   0.04     0.06   0.05  -0.01    -0.03  -0.00  -0.02
  43   7     0.08  -0.16   0.03     0.06   0.24   0.09    -0.02  -0.10   0.05
  44   1     0.02  -0.07   0.03     0.03   0.09   0.02    -0.01  -0.03   0.02
  45   1     0.03  -0.04  -0.03    -0.01   0.07   0.03     0.01  -0.03   0.03
  46   6    -0.04   0.11   0.00     0.11  -0.05   0.00    -0.07   0.08  -0.05
  47   8    -0.07   0.08   0.12     0.10  -0.09  -0.16    -0.09   0.08  -0.14
  48   7     0.05   0.14   0.07     0.12  -0.04   0.09    -0.07   0.10  -0.00
  49   1     0.02   0.02   0.01     0.03  -0.01   0.01    -0.02   0.02  -0.01
  50   1     0.02   0.04  -0.03     0.03  -0.00   0.06    -0.02   0.03   0.01
  51   7    -0.12   0.16  -0.20     0.14  -0.04   0.12    -0.07   0.10  -0.01
  52   1    -0.02   0.06  -0.06     0.04  -0.01   0.05    -0.02   0.03   0.01
  53   1    -0.05   0.04  -0.05     0.03  -0.02   0.01    -0.02   0.02  -0.01
                     13                     14                     15
                        a                      a                      a 
 Frequencies --    85.4460                87.3219                96.8551
 Red. masses --    12.8176                12.1699                12.9625
 Frc consts  --     0.0000                 0.0000                 0.0000
 IR Inten    --     2.9239                 7.9962                12.8115
 Raman Activ --     0.0000                 0.0000                 0.0000
 Depolar     --     0.0000                 0.0000                 0.0000
 Atom AN      X      Y      Z        X      Y      Z        X      Y      Z
   1   8    -0.10  -0.05   0.07    -0.06   0.29  -0.14    -0.07  -0.25  -0.09
   2   6    -0.08  -0.04   0.04    -0.09   0.08  -0.09    -0.04  -0.09  -0.17
   3   1    -0.02  -0.01   0.03    -0.06   0.01  -0.05     0.02  -0.03  -0.07
   4   1    -0.03  -0.02   0.01    -0.01   0.03  -0.02    -0.03   0.01  -0.05
   5   6    -0.04   0.01  -0.03    -0.04  -0.09   0.01    -0.04  -0.11  -0.15
   6   1    -0.01   0.00  -0.02    -0.02  -0.05   0.00    -0.01  -0.02  -0.06
   7   1     0.00   0.01  -0.00    -0.03  -0.04  -0.01    -0.00  -0.05  -0.05
   8   7    -0.04   0.00  -0.09     0.08  -0.08   0.14    -0.06  -0.11  -0.06
   9   6    -0.01   0.00  -0.12     0.09  -0.21   0.22    -0.04  -0.15  -0.04
  10   1     0.01  -0.00  -0.04     0.01  -0.09   0.06    -0.01  -0.06  -0.02
  11   1    -0.00   0.00  -0.03     0.04  -0.06   0.09    -0.00  -0.04   0.01
  12   1    -0.01  -0.00  -0.05     0.02  -0.07   0.07    -0.01  -0.04  -0.02
  13   6    -0.02   0.02  -0.05     0.09  -0.03   0.15    -0.04  -0.13   0.00
  14   1     0.00   0.01  -0.01     0.02  -0.03   0.04    -0.01  -0.06  -0.00
  15   1    -0.01   0.01  -0.01     0.02   0.01   0.03    -0.02  -0.02  -0.01
  16   1     0.00   0.01  -0.01     0.05  -0.00   0.06    -0.01  -0.03   0.03
  17   6    -0.07  -0.01  -0.09     0.14   0.04   0.17    -0.10   0.01  -0.02
  18   1    -0.02  -0.01  -0.03     0.04   0.01   0.05    -0.04   0.01  -0.03
  19   1    -0.02  -0.00  -0.03     0.05   0.01   0.07    -0.02   0.00   0.02
  20   1    -0.02  -0.00  -0.02     0.04   0.04   0.03    -0.04   0.02  -0.00
  21   1    -0.02  -0.01   0.02     0.01   0.06  -0.05    -0.03  -0.02   0.01
  22   6    -0.11   0.21   0.12    -0.01   0.00  -0.03     0.05  -0.00   0.05
  23   8    -0.10   0.19   0.19     0.03   0.06  -0.15     0.20  -0.09   0.06
  24   7    -0.12   0.31   0.03    -0.01  -0.04   0.12     0.04   0.12   0.16
  25   1    -0.03   0.07   0.03     0.00   0.01   0.01     0.03   0.04   0.05
  26   1    -0.03   0.08   0.02    -0.01  -0.01   0.04    -0.02   0.05   0.04
  27   7    -0.12   0.20   0.16    -0.06  -0.04  -0.02    -0.10  -0.04  -0.05
  28   1    -0.04   0.07   0.02    -0.02  -0.02   0.02    -0.06   0.00  -0.00
  29   1    -0.03   0.05   0.05    -0.02  -0.01  -0.03    -0.02  -0.04  -0.03
  30   6    -0.00  -0.02   0.08    -0.05  -0.05  -0.05     0.07   0.18  -0.03
  31   8     0.02   0.01   0.18    -0.11  -0.01   0.17     0.36   0.28   0.06
  32   7    -0.09  -0.13   0.08     0.03  -0.23  -0.14    -0.02   0.02  -0.07
  33   1    -0.01  -0.05   0.03    -0.01  -0.08  -0.02     0.01  -0.02   0.00
  34   1    -0.02  -0.04  -0.00     0.02  -0.06  -0.07    -0.07  -0.02  -0.03
  35   7     0.06   0.07  -0.02    -0.05   0.11  -0.23    -0.18   0.32  -0.12
  36   1     0.00   0.01  -0.02    -0.01   0.02  -0.11    -0.08   0.07  -0.07
  37   1     0.02   0.04  -0.00    -0.03   0.07  -0.04    -0.01   0.14  -0.04
  38   6     0.06  -0.07  -0.14    -0.04   0.02  -0.06     0.05  -0.01   0.06
  39   8     0.10  -0.12  -0.04    -0.13  -0.01  -0.20     0.01  -0.12   0.13
  40   7     0.00   0.00  -0.44     0.04   0.03  -0.09     0.14  -0.04   0.12
  41   1    -0.00   0.00  -0.13     0.01   0.00  -0.05     0.05  -0.02   0.04
  42   1    -0.00  -0.01  -0.10     0.02   0.01  -0.01     0.05   0.00   0.02
  43   7     0.10  -0.14  -0.03    -0.05   0.07   0.15    -0.02   0.13  -0.05
  44   1     0.02  -0.03  -0.03     0.01   0.03   0.06     0.01   0.05  -0.01
  45   1     0.04  -0.05   0.05    -0.03   0.02   0.04    -0.03   0.03  -0.00
  46   6     0.12  -0.10   0.03     0.04   0.02   0.00    -0.04   0.02   0.06
  47   8     0.17  -0.06   0.03     0.10   0.12  -0.18    -0.00   0.08   0.18
  48   7     0.09  -0.10   0.09    -0.06   0.07   0.24    -0.07   0.01   0.02
  49   1     0.02  -0.02   0.01    -0.03   0.02   0.02    -0.01   0.00   0.02
  50   1     0.02  -0.03   0.02    -0.03   0.00   0.07    -0.02  -0.00  -0.02
  51   7     0.16  -0.18  -0.01     0.11  -0.13  -0.04    -0.03  -0.02  -0.00
  52   1     0.04  -0.06   0.02     0.02  -0.05   0.06    -0.02  -0.02  -0.02
  53   1     0.06  -0.05   0.01     0.06  -0.04  -0.02    -0.00  -0.00   0.01
                     16                     17                     18
                        a                      a                      a 
 Frequencies --   102.1502               109.4362               120.1580
 Red. masses --    12.3075                12.5954                13.6161
 Frc consts  --     0.0000                 0.0000                 0.0000
 IR Inten    --    10.4992                20.1845                 2.6060
 Raman Activ --     0.0000                 0.0000                 0.0000
 Depolar     --     0.0000                 0.0000                 0.0000
 Atom AN      X      Y      Z        X      Y      Z        X      Y      Z
   1   8     0.10  -0.02  -0.04     0.08   0.15  -0.14     0.03   0.14  -0.12
   2   6     0.10   0.02  -0.02     0.07   0.13  -0.05    -0.01  -0.02  -0.02
   3   1     0.04   0.00  -0.03     0.02   0.04  -0.01    -0.04  -0.01  -0.01
   4   1     0.03   0.03  -0.00     0.04   0.03  -0.01     0.02  -0.01   0.00
   5   6     0.02  -0.01   0.06     0.01   0.15  -0.02    -0.01  -0.10   0.04
   6   1     0.01   0.03   0.01     0.01   0.06   0.00    -0.01  -0.05   0.03
   7   1     0.01  -0.04   0.01    -0.00   0.04  -0.01    -0.02  -0.03   0.00
   8   7    -0.13   0.00   0.18    -0.07   0.16  -0.02     0.08  -0.10   0.07
   9   6    -0.09   0.04   0.10    -0.07   0.19  -0.05     0.06  -0.14   0.11
  10   1     0.00   0.01   0.03    -0.01   0.05  -0.02     0.00  -0.04   0.03
  11   1    -0.04   0.01   0.03    -0.03   0.05  -0.02     0.03  -0.04   0.03
  12   1    -0.03   0.03   0.00    -0.02   0.06  -0.02     0.02  -0.05   0.05
  13   6    -0.10  -0.14   0.34    -0.08   0.08   0.01     0.07  -0.04   0.01
  14   1     0.01  -0.05   0.10    -0.01   0.03   0.00     0.01  -0.00   0.00
  15   1    -0.03  -0.06   0.12    -0.02   0.00   0.01     0.02  -0.01  -0.00
  16   1    -0.07  -0.04   0.11    -0.04   0.02  -0.00     0.03  -0.01  -0.01
  17   6    -0.30   0.11   0.18    -0.12   0.13  -0.03     0.14  -0.08   0.07
  18   1    -0.09   0.06   0.02    -0.04   0.03  -0.02     0.05  -0.02   0.03
  19   1    -0.11   0.03   0.07    -0.03   0.04  -0.01     0.03  -0.02   0.02
  20   1    -0.09   0.02   0.07    -0.04   0.04   0.01     0.05  -0.03   0.01
  21   1     0.02  -0.03  -0.02     0.02   0.02  -0.05     0.02  -0.00  -0.06
  22   6    -0.07   0.05  -0.05     0.06   0.03   0.06    -0.03   0.12   0.04
  23   8    -0.16   0.18  -0.18     0.33  -0.12   0.06     0.06   0.13  -0.02
  24   7    -0.06  -0.06  -0.02     0.03   0.28   0.18    -0.03   0.17   0.12
  25   1    -0.03  -0.02  -0.02     0.04   0.10   0.05    -0.01   0.06   0.02
  26   1    -0.00  -0.05   0.02    -0.03   0.11   0.04    -0.02   0.05   0.04
  27   7     0.01   0.02   0.07    -0.20  -0.07  -0.09    -0.11   0.06   0.05
  28   1     0.02  -0.01   0.03    -0.11   0.00   0.00    -0.05   0.02   0.02
  29   1     0.00   0.04   0.00    -0.05  -0.09  -0.03    -0.03   0.00  -0.00
  30   6     0.11  -0.02  -0.10     0.04  -0.19   0.00    -0.09   0.11  -0.08
  31   8     0.42  -0.00  -0.24     0.07  -0.23  -0.04    -0.22   0.08  -0.21
  32   7    -0.04   0.02  -0.04     0.08  -0.17   0.01    -0.12   0.25  -0.04
  33   1     0.01   0.01  -0.02     0.02  -0.04  -0.00    -0.03   0.07  -0.02
  34   1    -0.07  -0.01   0.02     0.02  -0.05   0.01    -0.02   0.07   0.01
  35   7    -0.10  -0.10   0.01     0.00  -0.26   0.06     0.06   0.04  -0.02
  36   1    -0.06  -0.02   0.02    -0.00  -0.07   0.03     0.04   0.02   0.01
  37   1     0.03  -0.02  -0.02    -0.00  -0.08   0.01     0.02  -0.02  -0.01
  38   6     0.03   0.03  -0.04     0.04  -0.06   0.02     0.06  -0.09   0.10
  39   8     0.05   0.05  -0.02    -0.02  -0.17   0.05     0.15  -0.16   0.42
  40   7    -0.01   0.06  -0.11     0.15  -0.09   0.06    -0.02  -0.06   0.02
  41   1    -0.00   0.02  -0.03     0.04  -0.03   0.01     0.00  -0.02   0.03
  42   1    -0.01   0.01  -0.03     0.05  -0.01   0.01    -0.01  -0.02  -0.03
  43   7     0.04  -0.00  -0.01    -0.02   0.07  -0.04     0.03  -0.06  -0.19
  44   1     0.01  -0.01   0.00     0.01   0.04  -0.01    -0.02  -0.01  -0.10
  45   1     0.03  -0.00   0.02    -0.03   0.02  -0.01     0.02  -0.02  -0.02
  46   6     0.05  -0.05  -0.04    -0.09  -0.01  -0.02    -0.04  -0.06  -0.09
  47   8     0.01  -0.14  -0.14    -0.06   0.05  -0.17    -0.11  -0.17  -0.31
  48   7     0.11  -0.05  -0.02    -0.16   0.00   0.07     0.04  -0.06  -0.08
  49   1     0.03  -0.02  -0.01    -0.04  -0.00   0.00     0.03  -0.03   0.02
  50   1     0.04  -0.00   0.02    -0.04  -0.00   0.05     0.03   0.01   0.06
  51   7     0.05   0.02   0.07    -0.03  -0.09   0.08    -0.04   0.05   0.11
  52   1     0.02   0.01   0.01    -0.01  -0.04   0.05    -0.00   0.03   0.03
  53   1    -0.00  -0.00  -0.02     0.01  -0.03   0.00    -0.03   0.00  -0.02
                     19                     20                     21
                        a                      a                      a 
 Frequencies --   126.2543               130.8825               137.9818
 Red. masses --    12.9044                11.1182                12.9819
 Frc consts  --     0.0000                 0.0000                 0.0000
 IR Inten    --     1.3549                 2.4125                21.8597
 Raman Activ --     0.0000                 0.0000                 0.0000
 Depolar     --     0.0000                 0.0000                 0.0000
 Atom AN      X      Y      Z        X      Y      Z        X      Y      Z
   1   8    -0.12   0.06   0.04     0.17  -0.06  -0.22    -0.02   0.05  -0.08
   2   6    -0.08   0.12  -0.17     0.11  -0.17   0.23    -0.03   0.00  -0.05
   3   1     0.00   0.03  -0.10    -0.02  -0.03   0.14    -0.02  -0.00  -0.02
   4   1    -0.06   0.08  -0.06     0.11  -0.12   0.09    -0.00   0.00  -0.01
   5   6     0.01   0.01  -0.16    -0.07  -0.04   0.29    -0.03  -0.03  -0.03
   6   1     0.00   0.01  -0.09    -0.02  -0.02   0.15    -0.01  -0.01  -0.01
   7   1     0.03  -0.03  -0.04    -0.08   0.03   0.07    -0.01  -0.02  -0.01
   8   7    -0.02   0.03   0.02    -0.04  -0.06   0.08    -0.02  -0.03   0.02
   9   6    -0.03  -0.04   0.10     0.07   0.02  -0.15    -0.00  -0.05   0.02
  10   1    -0.02  -0.04   0.02     0.07   0.04  -0.03     0.00  -0.02   0.00
  11   1    -0.01  -0.01   0.05     0.02   0.01  -0.07     0.00  -0.01   0.01
  12   1    -0.01  -0.00   0.03     0.00  -0.01  -0.08    -0.00  -0.02   0.00
  13   6    -0.02  -0.05   0.08     0.04   0.04   0.14    -0.00  -0.03   0.05
  14   1     0.00  -0.04   0.02     0.05   0.06   0.05     0.00  -0.01   0.01
  15   1    -0.00  -0.01   0.02    -0.01  -0.01   0.09    -0.00  -0.01   0.02
  16   1    -0.02  -0.01   0.04     0.01   0.00  -0.00    -0.00  -0.01   0.02
  17   6    -0.00   0.18   0.06    -0.17  -0.22   0.01    -0.03   0.02   0.03
  18   1     0.00   0.07   0.01    -0.07  -0.09  -0.01    -0.01   0.01   0.00
  19   1    -0.01   0.05   0.05    -0.03  -0.07  -0.03    -0.01   0.00   0.01
  20   1     0.00   0.06   0.01    -0.07  -0.06   0.03    -0.01   0.01   0.01
  21   1    -0.04   0.07   0.04     0.11   0.01  -0.05     0.00  -0.00  -0.03
  22   6     0.04  -0.07   0.00     0.05  -0.07  -0.02     0.05  -0.04   0.04
  23   8     0.00  -0.09   0.05     0.07  -0.14   0.04     0.21  -0.17   0.10
  24   7     0.04  -0.08  -0.04     0.04  -0.02  -0.07     0.03   0.13   0.09
  25   1     0.01  -0.02  -0.00     0.02   0.01  -0.02     0.03   0.05   0.03
  26   1     0.01  -0.01  -0.03     0.01   0.02  -0.05    -0.02   0.07  -0.00
  27   7     0.06  -0.03  -0.04     0.03  -0.07  -0.07    -0.12  -0.08  -0.08
  28   1     0.02  -0.02   0.01     0.00  -0.02  -0.02    -0.07  -0.00  -0.02
  29   1     0.02  -0.02   0.02     0.01  -0.04   0.00    -0.03  -0.07  -0.02
  30   6    -0.04  -0.02  -0.09    -0.01   0.05   0.02     0.04   0.16   0.08
  31   8    -0.11  -0.07  -0.27    -0.01   0.07   0.04     0.03   0.14  -0.07
  32   7    -0.05   0.16  -0.03    -0.01   0.03   0.01     0.04   0.33   0.13
  33   1    -0.02   0.05  -0.02    -0.01   0.00   0.01     0.02   0.11   0.01
  34   1    -0.01   0.05   0.02    -0.01   0.01  -0.00     0.02   0.09   0.06
  35   7     0.07  -0.16   0.05    -0.01   0.08  -0.01     0.03   0.04   0.23
  36   1     0.03  -0.03   0.05     0.00   0.02  -0.01     0.02   0.02   0.10
  37   1     0.02  -0.09  -0.00     0.00   0.03  -0.00     0.01  -0.02   0.05
  38   6    -0.03  -0.07   0.03    -0.07  -0.03  -0.02    -0.14   0.00  -0.10
  39   8     0.03  -0.13   0.27    -0.04  -0.08   0.16    -0.10   0.25  -0.39
  40   7    -0.10  -0.01  -0.20    -0.11   0.04  -0.26    -0.25  -0.05   0.07
  41   1    -0.01  -0.01  -0.01    -0.02   0.00  -0.05    -0.08   0.01   0.01
  42   1    -0.02   0.00  -0.08    -0.03   0.02  -0.09    -0.08  -0.02   0.05
  43   7    -0.04  -0.08  -0.05    -0.08  -0.03   0.00    -0.03  -0.25   0.03
  44   1    -0.02  -0.01  -0.05    -0.03   0.01  -0.03    -0.02  -0.13   0.05
  45   1     0.01  -0.03   0.05    -0.01  -0.01   0.06     0.04  -0.07  -0.06
  46   6     0.09   0.09   0.10     0.00   0.16  -0.04     0.07  -0.07  -0.04
  47   8     0.23   0.32   0.34     0.08   0.30  -0.10     0.10  -0.07  -0.12
  48   7    -0.09   0.06  -0.03    -0.15   0.17  -0.02     0.04  -0.07   0.02
  49   1    -0.03   0.03   0.02    -0.04   0.06   0.00    -0.00  -0.00  -0.03
  50   1    -0.04  -0.02  -0.06    -0.05   0.03   0.01     0.00  -0.03   0.01
  51   7     0.16  -0.13  -0.08     0.08   0.02  -0.04     0.13  -0.14   0.01
  52   1     0.02  -0.08  -0.04     0.01  -0.02   0.01     0.03  -0.05   0.04
  53   1     0.10  -0.02   0.03     0.06   0.01  -0.01     0.05  -0.04   0.01
                     22                     23                     24
                        a                      a                      a 
 Frequencies --   154.4037               165.8027               176.2984
 Red. masses --    11.9680                11.5083                11.4503
 Frc consts  --     0.0000                 0.0000                 0.0000
 IR Inten    --     5.5822                 4.5110                32.9315
 Raman Activ --     0.0000                 0.0000                 0.0000
 Depolar     --     0.0000                 0.0000                 0.0000
 Atom AN      X      Y      Z        X      Y      Z        X      Y      Z
   1   8     0.02   0.09   0.25    -0.01  -0.25  -0.19    -0.05  -0.31  -0.01
   2   6    -0.00  -0.03   0.08     0.05   0.07  -0.12     0.03   0.09  -0.13
   3   1    -0.01  -0.01   0.03     0.07   0.01  -0.08     0.09   0.02  -0.10
   4   1    -0.03  -0.02   0.01     0.03   0.09  -0.02    -0.01   0.12  -0.03
   5   6     0.16  -0.05  -0.02    -0.21   0.04   0.10    -0.16   0.06   0.03
   6   1     0.05   0.00  -0.07    -0.06  -0.02   0.13    -0.05  -0.00   0.08
   7   1     0.10  -0.03   0.01    -0.16   0.02  -0.01    -0.12   0.02  -0.02
   8   7     0.04  -0.06   0.04     0.01   0.06   0.07     0.01   0.09   0.04
   9   6    -0.09   0.02   0.16     0.16  -0.12   0.00     0.12  -0.09   0.01
  10   1    -0.05   0.00   0.04     0.05  -0.04  -0.00     0.04  -0.04   0.00
  11   1    -0.05   0.00   0.04     0.09  -0.03   0.01     0.07  -0.02   0.02
  12   1    -0.01   0.03   0.08     0.02  -0.07  -0.02     0.02  -0.05  -0.01
  13   6    -0.05  -0.18  -0.03     0.11   0.25   0.11     0.08   0.23   0.07
  14   1    -0.03  -0.07  -0.01     0.03   0.08   0.03     0.02   0.06   0.02
  15   1     0.01  -0.07  -0.03     0.01   0.11   0.04     0.01   0.10   0.01
  16   1    -0.03  -0.05   0.00     0.07   0.07   0.03     0.06   0.07   0.03
  17   6     0.10  -0.02   0.04    -0.01   0.05   0.06    -0.00   0.10   0.04
  18   1     0.04   0.01   0.02    -0.02  -0.00   0.01    -0.01   0.02   0.00
  19   1     0.02  -0.00   0.02     0.02   0.01   0.02     0.02   0.03   0.02
  20   1     0.04  -0.01  -0.01    -0.02   0.04   0.03    -0.01   0.05   0.02
  21   1    -0.02  -0.02   0.04    -0.01  -0.01  -0.01    -0.06  -0.06   0.02
  22   6     0.08  -0.09   0.01    -0.01  -0.00  -0.02     0.04  -0.05   0.04
  23   8     0.16  -0.20   0.09    -0.04   0.03  -0.04     0.12  -0.13   0.09
  24   7     0.06   0.02  -0.01     0.00  -0.04  -0.01     0.03   0.06   0.01
  25   1     0.03   0.01   0.01    -0.01  -0.02   0.01     0.02   0.00   0.04
  26   1     0.00   0.03  -0.03     0.00  -0.04   0.02    -0.00   0.01   0.02
  27   7    -0.01  -0.10  -0.09     0.03   0.00   0.02    -0.05  -0.05  -0.07
  28   1    -0.03  -0.02  -0.01     0.02   0.01  -0.01    -0.04  -0.01  -0.00
  29   1    -0.00  -0.07  -0.00     0.01   0.02  -0.01    -0.01  -0.05  -0.00
  30   6     0.01   0.05   0.02    -0.02   0.04   0.02    -0.02  -0.05  -0.02
  31   8     0.01   0.05  -0.04    -0.10   0.01  -0.06    -0.05  -0.06   0.01
  32   7     0.02   0.11   0.03    -0.00   0.13   0.04     0.02  -0.07  -0.04
  33   1    -0.01   0.03   0.01     0.01   0.05  -0.00    -0.02  -0.02   0.00
  34   1    -0.02   0.03   0.02     0.02   0.04   0.02    -0.00  -0.02  -0.01
  35   7     0.02   0.02   0.06     0.05  -0.04   0.09     0.00  -0.04  -0.04
  36   1     0.00   0.01   0.03     0.03  -0.00   0.05    -0.01  -0.01  -0.01
  37   1     0.00  -0.01   0.01     0.00  -0.04   0.02    -0.01  -0.01  -0.00
  38   6     0.03   0.10  -0.15     0.16   0.05  -0.10    -0.15   0.01   0.01
  39   8    -0.01  -0.03  -0.08     0.15   0.02  -0.18    -0.17  -0.04   0.11
  40   7     0.09   0.17  -0.51     0.21   0.04  -0.12    -0.14   0.05  -0.16
  41   1     0.02   0.03  -0.17     0.04   0.02  -0.06    -0.02  -0.01  -0.05
  42   1     0.03   0.06  -0.13     0.05   0.00  -0.00    -0.03   0.03  -0.07
  43   7     0.02   0.16   0.07     0.21   0.03  -0.01    -0.21   0.09   0.07
  44   1     0.03   0.09   0.01     0.05   0.01  -0.01    -0.03   0.05   0.03
  45   1    -0.01   0.04   0.11     0.05   0.01  -0.02    -0.07   0.02   0.09
  46   6    -0.13  -0.03   0.01    -0.19  -0.10   0.08     0.14  -0.00  -0.03
  47   8    -0.21  -0.11  -0.01    -0.17  -0.01   0.15     0.03  -0.22  -0.00
  48   7    -0.06  -0.02   0.04    -0.25  -0.10   0.04     0.38  -0.01  -0.03
  49   1    -0.01  -0.02   0.01    -0.07  -0.03  -0.00     0.11  -0.01   0.01
  50   1    -0.01   0.01   0.02    -0.07  -0.03  -0.02     0.12   0.03   0.01
  51   7    -0.22   0.10   0.02    -0.19  -0.17   0.04     0.02   0.27  -0.02
  52   1    -0.05   0.05  -0.02    -0.06  -0.06   0.02     0.03   0.12  -0.08
  53   1    -0.10   0.02  -0.02    -0.03  -0.04   0.05    -0.07   0.06  -0.06
                     25                     26                     27
                        a                      a                      a 
 Frequencies --   202.6734               215.7929               231.9237
 Red. masses --    11.0401                 4.3980                11.4121
 Frc consts  --     0.0000                 0.0000                 0.0000
 IR Inten    --    23.9202               128.5067                10.8916
 Raman Activ --     0.0000                 0.0000                 0.0000
 Depolar     --     0.0000                 0.0000                 0.0000
 Atom AN      X      Y      Z        X      Y      Z        X      Y      Z
   1   8     0.03   0.10  -0.07     0.00  -0.03   0.01     0.14   0.43  -0.31
   2   6     0.01   0.00  -0.00     0.00  -0.01   0.01     0.04   0.07  -0.10
   3   1    -0.02   0.00   0.01     0.00  -0.00   0.00    -0.05   0.01  -0.03
   4   1     0.02  -0.01   0.00    -0.00  -0.00   0.00     0.07   0.01  -0.00
   5   6     0.00  -0.02   0.01     0.00  -0.00   0.01    -0.06  -0.04   0.06
   6   1     0.00  -0.01   0.01     0.00  -0.00   0.01    -0.02  -0.02   0.07
   7   1    -0.00  -0.00   0.00    -0.00   0.00   0.00    -0.07  -0.01  -0.00
   8   7    -0.00  -0.02   0.00     0.01  -0.00   0.01    -0.05  -0.06  -0.01
   9   6    -0.01   0.01  -0.01     0.01  -0.00  -0.00    -0.04  -0.00  -0.07
  10   1     0.00   0.00  -0.00     0.00   0.00   0.00     0.01  -0.00  -0.02
  11   1    -0.01   0.00  -0.00     0.01  -0.00  -0.01    -0.03  -0.00  -0.02
  12   1    -0.00   0.01  -0.01     0.00  -0.00   0.00    -0.01   0.01  -0.04
  13   6    -0.01  -0.03  -0.00     0.01   0.00   0.00    -0.05  -0.04  -0.02
  14   1     0.01   0.01   0.00     0.00  -0.00  -0.00     0.01   0.05   0.00
  15   1    -0.00  -0.03   0.01     0.00   0.00  -0.00    -0.01  -0.07   0.04
  16   1    -0.02  -0.01  -0.02     0.00   0.00   0.00    -0.04  -0.02  -0.07
  17   6    -0.01  -0.04  -0.01     0.01  -0.01   0.00    -0.05  -0.12  -0.03
  18   1    -0.01  -0.02  -0.00     0.01   0.01   0.00    -0.03  -0.06  -0.01
  19   1     0.01  -0.01  -0.01    -0.01  -0.00  -0.00     0.02  -0.04  -0.02
  20   1    -0.01   0.00   0.00     0.00  -0.01  -0.00    -0.03  -0.01   0.00
  21   1     0.02   0.03  -0.02    -0.00  -0.01  -0.00     0.07   0.07  -0.11
  22   6    -0.04   0.05  -0.04    -0.02   0.03   0.02     0.01  -0.02   0.02
  23   8    -0.08   0.09  -0.06    -0.05   0.12  -0.09     0.02  -0.03   0.04
  24   7    -0.02  -0.01  -0.02    -0.04  -0.01  -0.01     0.01   0.02  -0.01
  25   1    -0.02  -0.05   0.05    -0.00   0.07  -0.12     0.00  -0.01   0.02
  26   1    -0.01  -0.10   0.11     0.01   0.14  -0.18    -0.00   0.00   0.00
  27   7     0.03  -0.01   0.16    -0.00   0.16  -0.20    -0.01   0.01  -0.05
  28   1     0.01   0.16  -0.25     0.04  -0.34   0.60    -0.00  -0.04   0.07
  29   1     0.00   0.15  -0.17     0.00  -0.20   0.38    -0.00  -0.04   0.04
  30   6     0.02   0.09   0.07     0.01   0.04   0.03    -0.00  -0.02  -0.00
  31   8    -0.02   0.07  -0.05    -0.01   0.03  -0.02     0.01  -0.01   0.03
  32   7     0.07   0.20   0.07     0.03   0.09   0.03    -0.00  -0.04  -0.01
  33   1    -0.01   0.06   0.03    -0.00   0.02   0.01    -0.01  -0.01   0.00
  34   1    -0.01   0.05   0.04    -0.00   0.02   0.02    -0.01  -0.01  -0.00
  35   7     0.04  -0.01   0.18     0.02  -0.00   0.08    -0.02   0.02  -0.04
  36   1     0.03   0.01   0.08     0.01   0.00   0.04    -0.00   0.00  -0.02
  37   1     0.01  -0.04   0.04     0.00  -0.02   0.02     0.00   0.02  -0.01
  38   6    -0.06  -0.21  -0.07    -0.02  -0.11  -0.03    -0.00   0.06   0.01
  39   8    -0.23  -0.40  -0.22    -0.11  -0.20  -0.13     0.02   0.08   0.05
  40   7     0.28  -0.27  -0.03     0.14  -0.14   0.02    -0.06   0.07  -0.03
  41   1     0.08  -0.11  -0.04     0.04  -0.05  -0.00    -0.02   0.02  -0.01
  42   1     0.10  -0.04   0.04     0.05  -0.02   0.01    -0.02   0.01  -0.02
  43   7    -0.19   0.09   0.07    -0.07   0.02   0.06     0.00   0.02  -0.01
  44   1     0.00   0.08   0.04    -0.00   0.03   0.01     0.00  -0.00   0.01
  45   1    -0.14   0.04   0.00    -0.06   0.02  -0.02     0.02   0.00   0.03
  46   6     0.04   0.06   0.02     0.01   0.03   0.00     0.01  -0.09   0.18
  47   8     0.03   0.02   0.07     0.01   0.02   0.02    -0.02  -0.18   0.40
  48   7     0.11   0.05   0.04     0.03   0.02   0.02     0.19  -0.15  -0.03
  49   1     0.04  -0.01  -0.03     0.01  -0.00  -0.01     0.06  -0.06  -0.01
  50   1     0.03   0.02  -0.03     0.01   0.01  -0.01     0.06  -0.03  -0.14
  51   7    -0.00   0.11  -0.06    -0.00   0.04  -0.02    -0.13   0.01  -0.18
  52   1     0.01   0.06   0.02     0.00   0.02  -0.00     0.02   0.10   0.22
  53   1    -0.01   0.04   0.03    -0.01   0.01  -0.00    -0.03   0.07   0.28
                     28                     29                     30
                        a                      a                      a 
 Frequencies --   259.8258               271.4577               283.1144
 Red. masses --     4.5145                 3.3945                 8.6198
 Frc consts  --     0.0000                 0.0000                 0.0000
 IR Inten    --   137.3314                21.8538                 3.7193
 Raman Activ --     0.0000                 0.0000                 0.0000
 Depolar     --     0.0000                 0.0000                 0.0000
 Atom AN      X      Y      Z        X      Y      Z        X      Y      Z
   1   8     0.10   0.22   0.06    -0.13  -0.20   0.14    -0.19  -0.09  -0.47
   2   6     0.08   0.16  -0.16    -0.03   0.09  -0.05    -0.22  -0.17   0.21
   3   1     0.04   0.02  -0.14     0.06   0.01  -0.08    -0.14  -0.01   0.24
   4   1     0.01   0.14  -0.04    -0.05   0.10  -0.02     0.01  -0.24   0.07
   5   6    -0.06  -0.06   0.08    -0.03   0.01   0.02     0.02   0.10  -0.08
   6   1    -0.01  -0.03   0.10    -0.01  -0.01   0.02    -0.01   0.01  -0.12
   7   1    -0.10  -0.02  -0.01    -0.03   0.00  -0.00     0.11   0.05   0.02
   8   7    -0.03  -0.08   0.01     0.05   0.01   0.03     0.10   0.12  -0.00
   9   6    -0.04   0.00  -0.06     0.01   0.08   0.03     0.08   0.10   0.05
  10   1     0.04  -0.04  -0.03     0.13  -0.13  -0.03     0.09  -0.06  -0.01
  11   1    -0.06  -0.00   0.02    -0.13   0.02   0.16    -0.05   0.03   0.11
  12   1    -0.01   0.05  -0.06     0.00   0.20  -0.11     0.02   0.12  -0.05
  13   6    -0.05  -0.04  -0.05    -0.01  -0.08  -0.01     0.05  -0.07   0.08
  14   1     0.05   0.15   0.01     0.18   0.33   0.06     0.10   0.08   0.04
  15   1    -0.01  -0.13   0.10     0.02  -0.32   0.27     0.03  -0.15   0.12
  16   1    -0.08  -0.04  -0.17    -0.20  -0.09  -0.33    -0.10  -0.04  -0.08
  17   6    -0.01  -0.19  -0.03     0.13  -0.04   0.02     0.14   0.22   0.04
  18   1    -0.05  -0.13  -0.02    -0.03  -0.12  -0.02     0.06   0.09   0.02
  19   1     0.09  -0.07  -0.03     0.17  -0.03  -0.00     0.01   0.07   0.03
  20   1    -0.04   0.02   0.02    -0.01   0.10   0.03     0.06   0.04  -0.01
  21   1    -0.02   0.05   0.02    -0.06  -0.05   0.05     0.06   0.06  -0.09
  22   6    -0.00  -0.00   0.01    -0.00   0.01  -0.01     0.00  -0.01   0.01
  23   8    -0.01   0.00   0.00     0.00   0.01  -0.01    -0.01  -0.01   0.01
  24   7    -0.00   0.01  -0.01    -0.00  -0.01   0.01     0.00   0.01  -0.03
  25   1     0.00  -0.01   0.02    -0.00   0.01  -0.02    -0.00  -0.02   0.02
  26   1    -0.00  -0.01   0.02     0.00   0.01  -0.02    -0.00  -0.03   0.03
  27   7     0.00   0.01  -0.01     0.00  -0.00   0.01    -0.00   0.00  -0.02
  28   1     0.01  -0.01   0.02     0.00   0.00  -0.00     0.00  -0.01   0.02
  29   1     0.00  -0.00   0.01     0.00   0.00  -0.00    -0.00  -0.01   0.01
  30   6    -0.00   0.00   0.01     0.01   0.00   0.00     0.00  -0.01  -0.00
  31   8    -0.00   0.01   0.02     0.01   0.00   0.00     0.01  -0.01  -0.00
  32   7     0.00  -0.01   0.01     0.00  -0.00   0.01    -0.00  -0.01  -0.00
  33   1     0.00  -0.00   0.00    -0.00  -0.00   0.00     0.00  -0.00  -0.00
  34   1    -0.01  -0.00   0.00    -0.01  -0.00   0.01     0.01   0.00  -0.01
  35   7     0.00   0.02  -0.01    -0.03   0.02   0.01     0.03  -0.02  -0.01
  36   1    -0.01   0.00  -0.01     0.05   0.00  -0.02    -0.06  -0.00   0.02
  37   1    -0.01   0.01   0.00     0.03   0.01  -0.01    -0.04  -0.01   0.02
  38   6     0.00   0.01  -0.01     0.00  -0.00   0.00    -0.00   0.01  -0.01
  39   8    -0.00   0.01  -0.04     0.01  -0.00   0.01    -0.00   0.01  -0.01
  40   7     0.00  -0.00  -0.00    -0.00   0.00   0.00    -0.00   0.01  -0.01
  41   1     0.00   0.00   0.00     0.00  -0.00   0.01    -0.00   0.00  -0.01
  42   1    -0.00  -0.00   0.01     0.00   0.00  -0.01    -0.00  -0.00   0.00
  43   7     0.01  -0.01  -0.00     0.01  -0.01   0.01    -0.00   0.01   0.00
  44   1     0.01  -0.01   0.01    -0.01   0.00  -0.02     0.00   0.00   0.01
  45   1     0.01  -0.00   0.00    -0.00   0.00  -0.01     0.00   0.00   0.01
  46   6     0.00  -0.02  -0.00     0.01   0.03  -0.04    -0.02  -0.05   0.04
  47   8     0.03   0.01   0.13    -0.00   0.02  -0.16    -0.02  -0.06   0.14
  48   7     0.01  -0.03  -0.00    -0.05   0.05   0.01     0.07  -0.07  -0.00
  49   1     0.01   0.01   0.07    -0.02   0.01  -0.04     0.03  -0.02   0.03
  50   1     0.02   0.01   0.11    -0.02  -0.00  -0.03     0.03   0.00   0.03
  51   7     0.03   0.02   0.25     0.02  -0.02  -0.11    -0.05   0.03   0.09
  52   1    -0.07  -0.13  -0.55     0.04   0.06   0.29    -0.04  -0.03  -0.25
  53   1    -0.05  -0.09  -0.39     0.04   0.03   0.17    -0.05  -0.02  -0.13
                     31                     32                     33
                        a                      a                      a 
 Frequencies --   294.0567               307.6058               340.4367
 Red. masses --     2.9109                 6.6158                 3.3806
 Frc consts  --     0.0000                 0.0000                 0.0000
 IR Inten    --   185.6440                 2.3818                 0.6930
 Raman Activ --     0.0000                 0.0000                 0.0000
 Depolar     --     0.0000                 0.0000                 0.0000
 Atom AN      X      Y      Z        X      Y      Z        X      Y      Z
   1   8    -0.01  -0.01   0.03    -0.22  -0.13  -0.14    -0.10  -0.03  -0.02
   2   6     0.00   0.03  -0.03    -0.12   0.16  -0.13    -0.04   0.12  -0.01
   3   1     0.01   0.00  -0.04     0.01   0.03  -0.10     0.01   0.02  -0.06
   4   1    -0.01   0.04  -0.01    -0.04   0.11  -0.03    -0.00   0.10   0.01
   5   6    -0.01  -0.02   0.02    -0.04  -0.02   0.03    -0.10  -0.01   0.15
   6   1    -0.00  -0.01   0.01    -0.03  -0.05  -0.00    -0.03  -0.04   0.10
   7   1    -0.02  -0.01  -0.00    -0.02  -0.03  -0.00    -0.09   0.01   0.02
   8   7     0.01  -0.02   0.01     0.12  -0.01   0.10     0.04  -0.02   0.06
   9   6    -0.01   0.03  -0.01     0.04   0.39  -0.08     0.07   0.21  -0.16
  10   1    -0.02   0.05   0.01    -0.13   0.42   0.07     0.30  -0.18  -0.11
  11   1     0.01   0.01  -0.05     0.09   0.10  -0.34    -0.21   0.05   0.20
  12   1     0.00  -0.02   0.02     0.04  -0.09   0.17    -0.01   0.36  -0.31
  13   6     0.00  -0.03   0.00     0.08  -0.19   0.16    -0.04  -0.19   0.01
  14   1     0.01   0.02   0.01     0.05  -0.06   0.05    -0.15  -0.34  -0.05
  15   1     0.00  -0.03   0.02     0.04  -0.09   0.07     0.01   0.12  -0.23
  16   1    -0.01  -0.01  -0.03    -0.04  -0.05   0.05     0.07  -0.00   0.26
  17   6     0.00  -0.03   0.01     0.14  -0.22   0.04     0.16  -0.08   0.05
  18   1     0.00  -0.01   0.01     0.12  -0.00   0.08     0.08  -0.00   0.06
  19   1     0.00  -0.01   0.00    -0.07  -0.05  -0.05     0.01  -0.02   0.01
  20   1     0.00  -0.01   0.00     0.09  -0.18  -0.02     0.08  -0.05  -0.03
  21   1    -0.01  -0.01   0.01    -0.07  -0.00  -0.01    -0.04  -0.01  -0.01
  22   6    -0.00   0.00  -0.00     0.00   0.00   0.01     0.00  -0.00   0.00
  23   8     0.00   0.00  -0.00     0.01  -0.00   0.01     0.00   0.00   0.00
  24   7    -0.00  -0.00   0.01     0.00   0.01   0.00     0.00   0.00  -0.00
  25   1     0.00   0.00  -0.01    -0.00  -0.00   0.00    -0.00  -0.00   0.00
  26   1     0.00   0.01  -0.01     0.00  -0.01   0.01     0.00  -0.01   0.01
  27   7     0.00  -0.00   0.01    -0.01   0.00  -0.00    -0.00   0.00  -0.00
  28   1    -0.00   0.00  -0.00    -0.00   0.00  -0.00    -0.00   0.00  -0.00
  29   1     0.00   0.00  -0.00    -0.00  -0.00  -0.00    -0.00  -0.00  -0.00
  30   6    -0.04   0.02   0.01     0.01   0.00   0.02     0.01   0.00  -0.01
  31   8     0.02   0.03   0.01     0.00   0.00   0.02     0.02   0.00  -0.02
  32   7    -0.03   0.00   0.01     0.01  -0.02   0.01    -0.00   0.01  -0.00
  33   1     0.05   0.01  -0.03    -0.00  -0.01   0.01     0.00   0.00  -0.00
  34   1     0.16   0.04  -0.07    -0.02  -0.01   0.01    -0.00   0.00   0.00
  35   7     0.34  -0.02  -0.13    -0.04   0.02   0.02     0.01  -0.01  -0.00
  36   1    -0.73   0.02   0.25     0.08   0.00  -0.03    -0.03  -0.00   0.01
  37   1    -0.41  -0.01   0.19     0.04   0.01  -0.02    -0.00  -0.00   0.00
  38   6    -0.00  -0.00   0.01    -0.00   0.00  -0.01     0.00  -0.00   0.00
  39   8    -0.01  -0.01   0.01    -0.00  -0.00  -0.00    -0.00  -0.00   0.00
  40   7     0.00  -0.01   0.01    -0.00   0.00  -0.01     0.00  -0.00  -0.00
  41   1     0.00  -0.00   0.00    -0.00   0.00  -0.00    -0.00   0.00  -0.00
  42   1     0.00  -0.00   0.00    -0.00   0.00  -0.00    -0.00  -0.00   0.00
  43   7    -0.02   0.01  -0.03     0.00   0.00   0.01    -0.00  -0.00  -0.00
  44   1     0.01  -0.01   0.04    -0.00   0.00  -0.01    -0.00   0.00  -0.00
  45   1     0.01  -0.01   0.04    -0.00   0.00  -0.01     0.00  -0.00   0.00
  46   6     0.00   0.01  -0.01    -0.00  -0.00   0.00    -0.00   0.00  -0.00
  47   8    -0.00   0.01  -0.02     0.00  -0.00   0.01    -0.00   0.00  -0.00
  48   7    -0.01   0.01   0.00     0.00  -0.00   0.00    -0.00   0.00   0.00
  49   1    -0.00   0.00  -0.01     0.00  -0.00   0.00    -0.00   0.00   0.00
  50   1    -0.01  -0.00  -0.01     0.00   0.00   0.00    -0.00  -0.00  -0.00
  51   7     0.01  -0.01  -0.02     0.00  -0.00  -0.00     0.00  -0.00  -0.00
  52   1     0.01   0.01   0.05     0.00  -0.00   0.00     0.00   0.00   0.01
  53   1     0.01   0.00   0.03    -0.00  -0.00  -0.00     0.00   0.00   0.01
                     34                     35                     36
                        a                      a                      a 
 Frequencies --   346.8371               374.5914               380.2016
 Red. masses --     4.6000                 3.6524                 4.5126
 Frc consts  --     0.0000                 0.0000                 0.0000
 IR Inten    --     0.4054               114.4066                17.5437
 Raman Activ --     0.0000                 0.0000                 0.0000
 Depolar     --     0.0000                 0.0000                 0.0000
 Atom AN      X      Y      Z        X      Y      Z        X      Y      Z
   1   8     0.05   0.07   0.12    -0.01  -0.01   0.02    -0.04  -0.02  -0.03
   2   6     0.05   0.03   0.06     0.00   0.04   0.07    -0.01   0.08   0.12
   3   1     0.02  -0.00  -0.02     0.00   0.01   0.01     0.01   0.02   0.03
   4   1     0.03   0.05   0.03     0.01   0.04   0.03     0.01   0.04   0.04
   5   6    -0.14  -0.02   0.17    -0.02   0.01   0.08    -0.06   0.06   0.16
   6   1    -0.05  -0.05   0.17    -0.01  -0.02   0.04    -0.03  -0.04   0.10
   7   1    -0.15   0.06   0.02    -0.02   0.03   0.02    -0.07   0.07   0.04
   8   7    -0.00  -0.03  -0.06     0.02  -0.01  -0.03     0.10   0.04  -0.03
   9   6     0.14  -0.17  -0.18     0.05  -0.05  -0.04     0.16  -0.03  -0.07
  10   1     0.05  -0.02  -0.04    -0.02   0.04   0.00    -0.03   0.11   0.01
  11   1     0.10  -0.05  -0.08     0.06  -0.01  -0.06     0.15  -0.01  -0.13
  12   1     0.01  -0.12  -0.07     0.01  -0.08   0.02     0.03  -0.15   0.05
  13   6    -0.11  -0.18  -0.15    -0.05  -0.15  -0.06    -0.09  -0.32  -0.14
  14   1     0.01   0.06  -0.02    -0.03  -0.07  -0.02    -0.09  -0.18  -0.06
  15   1     0.01  -0.19   0.02     0.01  -0.05  -0.04     0.04  -0.12  -0.13
  16   1    -0.14  -0.08  -0.14    -0.04  -0.04   0.01    -0.08  -0.08   0.04
  17   6     0.02   0.29   0.04     0.00   0.11  -0.01     0.00   0.25   0.01
  18   1     0.24   0.41   0.10    -0.07  -0.03  -0.06    -0.21  -0.16  -0.14
  19   1    -0.37   0.13   0.09     0.11   0.02   0.03     0.31   0.04   0.06
  20   1     0.17  -0.21  -0.12    -0.05   0.15   0.02    -0.15   0.38   0.10
  21   1    -0.00  -0.02   0.01     0.01   0.05   0.03     0.00  -0.05  -0.04
  22   6     0.01   0.01  -0.00    -0.00  -0.08   0.08    -0.01   0.02  -0.04
  23   8     0.01  -0.00   0.00    -0.02  -0.04   0.04    -0.00   0.01  -0.03
  24   7     0.00  -0.01   0.01     0.04   0.20  -0.19    -0.02  -0.08   0.08
  25   1     0.00   0.01  -0.01    -0.04  -0.08   0.11     0.02   0.03  -0.03
  26   1     0.00   0.03  -0.03    -0.01  -0.47   0.56    -0.00   0.20  -0.24
  27   7    -0.01  -0.02   0.01     0.01   0.07  -0.15     0.01  -0.03   0.06
  28   1    -0.01   0.02  -0.02     0.03  -0.09   0.14    -0.00   0.03  -0.05
  29   1    -0.00  -0.00  -0.01     0.00  -0.04   0.07     0.00   0.02  -0.03
  30   6     0.01   0.00   0.00     0.01   0.00  -0.01    -0.02  -0.01   0.00
  31   8     0.02   0.00   0.01     0.00   0.00  -0.01    -0.02  -0.01   0.00
  32   7    -0.00  -0.01   0.00    -0.02   0.00   0.01     0.02   0.02  -0.01
  33   1     0.00  -0.00  -0.00     0.02   0.00  -0.01    -0.01   0.00   0.01
  34   1     0.00  -0.00  -0.00     0.05   0.02  -0.02    -0.06  -0.01   0.02
  35   7    -0.01  -0.00   0.01    -0.00  -0.00  -0.01     0.01  -0.00  -0.01
  36   1     0.02  -0.00  -0.00    -0.02   0.00   0.00     0.02  -0.00  -0.01
  37   1     0.01  -0.00  -0.00    -0.01  -0.00   0.00    -0.01  -0.00   0.00
  38   6     0.00  -0.00  -0.00    -0.02   0.01  -0.01     0.01   0.00   0.01
  39   8    -0.00  -0.01  -0.01    -0.01   0.01   0.01     0.01   0.00   0.00
  40   7     0.01  -0.01   0.00    -0.00   0.02   0.02    -0.00  -0.00   0.00
  41   1    -0.01   0.01  -0.01     0.00  -0.02  -0.02     0.00  -0.00   0.02
  42   1    -0.00  -0.01   0.01     0.00   0.01  -0.04     0.00   0.00   0.00
  43   7    -0.01   0.01  -0.01     0.06  -0.04   0.13    -0.01   0.00  -0.03
  44   1     0.01  -0.00   0.02    -0.09   0.06  -0.23     0.02  -0.02   0.06
  45   1     0.00  -0.00   0.02    -0.05   0.02  -0.19     0.02  -0.01   0.04
  46   6     0.00   0.01   0.00     0.00   0.01  -0.03    -0.00  -0.01   0.00
  47   8     0.00   0.01  -0.00    -0.00   0.01  -0.05     0.00  -0.01   0.01
  48   7    -0.03   0.01  -0.01    -0.02   0.02   0.01     0.02  -0.01   0.00
  49   1    -0.01   0.01   0.00    -0.01   0.01  -0.00     0.01  -0.00  -0.00
  50   1    -0.01  -0.00   0.01    -0.01  -0.00  -0.01     0.01   0.00  -0.00
  51   7     0.00   0.01  -0.01     0.02  -0.01  -0.00    -0.01   0.00   0.01
  52   1     0.00   0.00   0.00     0.01   0.00   0.04    -0.00   0.00  -0.01
  53   1    -0.00   0.00  -0.01     0.01  -0.00   0.01    -0.01  -0.00  -0.00
                     37                     38                     39
                        a                      a                      a 
 Frequencies --   387.1602               428.0872               434.0440
 Red. masses --     3.5384                 3.0229                 8.4217
 Frc consts  --     0.0000                 0.0000                 0.0000
 IR Inten    --   358.1919               182.8429                 4.6091
 Raman Activ --     0.0000                 0.0000                 0.0000
 Depolar     --     0.0000                 0.0000                 0.0000
 Atom AN      X      Y      Z        X      Y      Z        X      Y      Z
   1   8    -0.01  -0.02   0.01    -0.01  -0.00  -0.01    -0.15  -0.06  -0.14
   2   6    -0.00   0.01   0.02    -0.01   0.01   0.00    -0.06   0.20   0.04
   3   1     0.00   0.00   0.00    -0.00  -0.00  -0.01     0.01   0.05  -0.03
   4   1     0.00   0.01   0.01    -0.00   0.01   0.00    -0.01   0.09   0.02
   5   6     0.01   0.01   0.01     0.01  -0.02   0.02     0.18   0.02   0.06
   6   1     0.00  -0.00   0.00     0.00  -0.01   0.00     0.04  -0.01  -0.10
   7   1     0.01   0.00   0.01     0.00  -0.00   0.00     0.15  -0.03   0.05
   8   7     0.01   0.00  -0.00     0.04  -0.02   0.01     0.22   0.00   0.20
   9   6     0.01  -0.00   0.00     0.02   0.02   0.01     0.24   0.00   0.20
  10   1    -0.00   0.00   0.00     0.00   0.01   0.01     0.08  -0.04   0.04
  11   1     0.01  -0.00  -0.00    -0.01   0.00  -0.00     0.05   0.00   0.09
  12   1     0.00  -0.01   0.01     0.01   0.01   0.01     0.06   0.03   0.03
  13   6     0.00  -0.01  -0.02     0.02  -0.01  -0.04     0.00   0.02  -0.36
  14   1    -0.00  -0.00  -0.00    -0.01  -0.00  -0.01    -0.15   0.07  -0.10
  15   1     0.00  -0.01  -0.01     0.01  -0.00  -0.02     0.07  -0.04  -0.19
  16   1    -0.00  -0.00  -0.00     0.01  -0.00  -0.01     0.00  -0.01  -0.17
  17   6    -0.01   0.00  -0.01    -0.03   0.01   0.01    -0.39  -0.16   0.11
  18   1    -0.01  -0.01  -0.01    -0.03  -0.01  -0.02    -0.11   0.05  -0.06
  19   1     0.00   0.00   0.01     0.00   0.00   0.01    -0.24  -0.03  -0.02
  20   1    -0.01   0.02  -0.00    -0.03   0.02   0.02    -0.14  -0.17   0.14
  21   1    -0.00   0.02   0.02    -0.00  -0.01  -0.01    -0.05  -0.06  -0.06
  22   6    -0.01  -0.03   0.03    -0.00  -0.00   0.00     0.01   0.00   0.00
  23   8    -0.02  -0.01   0.01     0.00  -0.00  -0.00    -0.00   0.01   0.00
  24   7     0.01   0.07  -0.08    -0.00  -0.00  -0.00     0.01  -0.00  -0.00
  25   1    -0.02  -0.03   0.03    -0.00  -0.00  -0.00    -0.00   0.01  -0.02
  26   1    -0.00  -0.20   0.24     0.00   0.00  -0.01     0.00  -0.01   0.01
  27   7     0.00   0.04  -0.07     0.00   0.00   0.00    -0.01  -0.00  -0.00
  28   1     0.02  -0.05   0.07     0.00   0.00  -0.00    -0.01   0.01  -0.01
  29   1     0.00  -0.01   0.04     0.00  -0.00   0.00    -0.00  -0.01   0.00
  30   6    -0.04   0.01   0.02     0.09   0.06  -0.04     0.00  -0.01   0.01
  31   8    -0.02   0.01   0.02     0.04   0.04  -0.07     0.00  -0.01   0.00
  32   7     0.04   0.02  -0.02    -0.22  -0.13   0.09     0.01   0.01   0.01
  33   1    -0.04  -0.00   0.01     0.01   0.02  -0.05     0.00   0.00   0.00
  34   1    -0.13  -0.03   0.05     0.77   0.18  -0.29    -0.03  -0.01   0.02
  35   7     0.02   0.00   0.02    -0.14   0.01   0.10     0.00   0.01  -0.01
  36   1     0.04   0.00  -0.00     0.08   0.01   0.01    -0.01   0.00  -0.01
  37   1     0.02  -0.01  -0.00     0.11  -0.01  -0.04    -0.01   0.01   0.00
  38   6     0.04  -0.01   0.03    -0.01  -0.01   0.02     0.01  -0.00  -0.01
  39   8     0.02   0.02  -0.00    -0.02  -0.02   0.03     0.01  -0.00  -0.01
  40   7     0.03  -0.02   0.05     0.03   0.00  -0.03    -0.02   0.00  -0.02
  41   1    -0.01  -0.00  -0.04     0.01  -0.01  -0.02     0.01  -0.01   0.04
  42   1    -0.00  -0.02  -0.04     0.01   0.01  -0.03     0.00   0.01  -0.03
  43   7    -0.15   0.07  -0.35    -0.05   0.03  -0.05     0.01   0.00   0.03
  44   1     0.23  -0.19   0.60     0.06  -0.08   0.21    -0.01   0.02  -0.03
  45   1     0.16  -0.07   0.42     0.02   0.01  -0.04    -0.01   0.00  -0.01
  46   6    -0.02   0.01  -0.04     0.01   0.01   0.05    -0.01   0.01  -0.01
  47   8    -0.02   0.01  -0.04     0.01  -0.00   0.02    -0.01   0.01   0.01
  48   7    -0.02   0.03   0.04    -0.02  -0.02  -0.08     0.02   0.02   0.02
  49   1    -0.01   0.00  -0.03    -0.00   0.01   0.03     0.01  -0.00  -0.01
  50   1    -0.02  -0.01  -0.09     0.02   0.04   0.23    -0.00  -0.00  -0.08
  51   7     0.02  -0.03   0.02    -0.01   0.01  -0.05     0.02  -0.02   0.02
  52   1    -0.00  -0.02   0.02     0.01   0.02   0.01    -0.01  -0.02  -0.01
  53   1     0.02  -0.01   0.00    -0.01   0.01   0.01     0.02  -0.01   0.00
                     40                     41                     42
                        a                      a                      a 
 Frequencies --   450.6124               454.1134               462.7121
 Red. masses --     3.0675                 7.8317                 6.4344
 Frc consts  --     0.0000                 0.0000                 0.0000
 IR Inten    --   276.1943                 1.9358                 8.2895
 Raman Activ --     0.0000                 0.0000                 0.0000
 Depolar     --     0.0000                 0.0000                 0.0000
 Atom AN      X      Y      Z        X      Y      Z        X      Y      Z
   1   8     0.02   0.01   0.01     0.01  -0.04  -0.04     0.00   0.01   0.00
   2   6    -0.00  -0.03  -0.01     0.03   0.11   0.03    -0.00  -0.03  -0.01
   3   1    -0.01  -0.01  -0.00     0.03   0.04   0.03    -0.00  -0.01  -0.01
   4   1     0.00  -0.01  -0.00    -0.00   0.01   0.00    -0.00  -0.00  -0.00
   5   6    -0.01  -0.04  -0.00     0.14   0.16  -0.09    -0.00  -0.03  -0.00
   6   1    -0.00  -0.01   0.01     0.05   0.14  -0.22     0.00  -0.01   0.00
   7   1    -0.02  -0.01  -0.00     0.23  -0.06   0.02    -0.00  -0.01  -0.00
   8   7    -0.01  -0.03  -0.00    -0.27   0.12   0.21     0.00  -0.02   0.01
   9   6    -0.02   0.02  -0.03     0.18  -0.19  -0.23    -0.01   0.02  -0.01
  10   1     0.00   0.02  -0.00     0.15  -0.01  -0.05     0.01   0.01  -0.00
  11   1    -0.02   0.00  -0.02     0.18  -0.05  -0.10    -0.01   0.01  -0.01
  12   1    -0.00   0.01  -0.01    -0.04  -0.19  -0.18    -0.00   0.01  -0.00
  13   6     0.01   0.01   0.01    -0.39   0.06   0.05     0.01   0.02  -0.01
  14   1     0.01   0.01   0.00    -0.15   0.03   0.02    -0.00   0.01  -0.00
  15   1    -0.01   0.01   0.01    -0.07  -0.02  -0.02     0.00   0.01  -0.01
  16   1     0.01   0.00  -0.00    -0.12   0.01  -0.01     0.01   0.00  -0.01
  17   6     0.03   0.03   0.02     0.19  -0.17   0.19    -0.01   0.02   0.02
  18   1     0.01   0.01   0.00     0.08  -0.13   0.17    -0.01   0.00  -0.00
  19   1     0.01   0.01   0.02     0.12  -0.06  -0.01     0.01   0.01   0.01
  20   1     0.01   0.02   0.00     0.10  -0.03  -0.03    -0.01   0.02   0.01
  21   1     0.01   0.04   0.03     0.01   0.01   0.00     0.00  -0.00  -0.00
  22   6     0.02   0.02   0.01     0.00   0.01   0.00     0.12   0.17   0.10
  23   8     0.01   0.03   0.01     0.00   0.01   0.00     0.04   0.23   0.13
  24   7     0.02  -0.03  -0.01     0.01  -0.01  -0.01     0.17  -0.23  -0.16
  25   1    -0.01  -0.03   0.01    -0.00  -0.01  -0.00    -0.09  -0.14  -0.10
  26   1     0.02   0.03  -0.06     0.01  -0.00  -0.01     0.19  -0.12  -0.07
  27   7    -0.04  -0.01   0.01    -0.01  -0.00   0.00    -0.28  -0.05  -0.01
  28   1    -0.03   0.01   0.00    -0.01  -0.01   0.01    -0.26   0.08   0.00
  29   1    -0.01  -0.01  -0.03    -0.00  -0.00  -0.02    -0.07  -0.23  -0.07
  30   6     0.01   0.02  -0.01     0.01  -0.02   0.02     0.00  -0.01  -0.01
  31   8     0.00   0.02  -0.02    -0.00  -0.03  -0.01     0.01   0.00   0.02
  32   7    -0.05  -0.04   0.01    -0.01   0.03   0.04     0.01   0.02  -0.01
  33   1    -0.02  -0.00   0.00    -0.01   0.02  -0.00     0.03   0.00  -0.01
  34   1     0.22   0.05  -0.08     0.06   0.03   0.01    -0.11  -0.03   0.04
  35   7    -0.04  -0.00   0.03    -0.02   0.03  -0.03     0.02  -0.01  -0.03
  36   1     0.01   0.00   0.01    -0.02   0.00  -0.04     0.06   0.00  -0.00
  37   1     0.05  -0.00  -0.02     0.01   0.04  -0.01    -0.12  -0.03   0.04
  38   6    -0.00   0.00   0.03    -0.01   0.01   0.01    -0.06   0.07   0.05
  39   8    -0.00  -0.01   0.03    -0.01   0.00   0.01    -0.13  -0.02   0.06
  40   7    -0.02   0.02  -0.03     0.02   0.01  -0.01     0.12   0.09  -0.05
  41   1     0.05  -0.04   0.10     0.00   0.00  -0.02     0.11  -0.08   0.06
  42   1     0.02   0.04  -0.08     0.01   0.00   0.03     0.09   0.11  -0.15
  43   7     0.01  -0.01   0.03    -0.01  -0.01  -0.02     0.02  -0.11   0.00
  44   1    -0.00  -0.02   0.01    -0.00  -0.02   0.01    -0.00  -0.23   0.20
  45   1    -0.01   0.01  -0.07     0.02  -0.01   0.01     0.07   0.00  -0.35
  46   6    -0.03  -0.04  -0.15     0.01  -0.01  -0.00     0.05  -0.03   0.02
  47   8     0.00  -0.00  -0.05     0.01  -0.00  -0.01     0.08   0.00   0.01
  48   7     0.04   0.04   0.27    -0.01  -0.01   0.00    -0.08  -0.04   0.00
  49   1    -0.00  -0.01  -0.04    -0.01   0.00   0.00    -0.04   0.01  -0.01
  50   1    -0.10  -0.16  -0.83    -0.01  -0.01  -0.01    -0.02  -0.02   0.11
  51   7     0.01   0.04   0.17    -0.01   0.01  -0.00    -0.03   0.08  -0.03
  52   1    -0.00   0.00  -0.03     0.00   0.02   0.01     0.02   0.06  -0.04
  53   1    -0.03  -0.02  -0.11    -0.02   0.00  -0.01    -0.06   0.03   0.04
                     43                     44                     45
                        a                      a                      a 
 Frequencies --   465.0789               468.5419               472.1694
 Red. masses --     5.3684                 6.5651                 5.9292
 Frc consts  --     0.0000                 0.0000                 0.0000
 IR Inten    --     7.1000                 6.7043                 1.8636
 Raman Activ --     0.0000                 0.0000                 0.0000
 Depolar     --     0.0000                 0.0000                 0.0000
 Atom AN      X      Y      Z        X      Y      Z        X      Y      Z
   1   8    -0.01  -0.02  -0.02    -0.01   0.00  -0.01     0.02   0.04   0.03
   2   6     0.02   0.13   0.06    -0.00   0.02   0.00    -0.04  -0.19  -0.09
   3   1     0.03   0.04   0.03     0.00   0.01   0.00    -0.04  -0.06  -0.05
   4   1     0.01   0.03   0.02     0.00   0.00   0.00    -0.02  -0.04  -0.03
   5   6    -0.03   0.17   0.02    -0.00   0.02  -0.00     0.02  -0.25  -0.02
   6   1    -0.01   0.02   0.03    -0.00   0.00   0.00     0.01  -0.05  -0.02
   7   1    -0.03   0.08   0.01    -0.00   0.01   0.00     0.01  -0.10  -0.01
   8   7     0.03   0.11  -0.13     0.01   0.02  -0.01    -0.01  -0.16   0.16
   9   6    -0.02  -0.11   0.12     0.00  -0.01   0.02     0.02   0.17  -0.13
  10   1    -0.07  -0.10   0.01    -0.00  -0.02   0.00     0.08   0.15  -0.01
  11   1     0.03  -0.03   0.10     0.00  -0.00   0.02    -0.05   0.04  -0.12
  12   1     0.01  -0.04   0.07     0.00   0.00   0.01    -0.00   0.06  -0.07
  13   6     0.04  -0.11   0.08     0.00  -0.01   0.01    -0.01   0.15  -0.13
  14   1     0.06  -0.09   0.02     0.00  -0.01   0.00    -0.08   0.12  -0.03
  15   1     0.01  -0.05   0.04     0.00  -0.00   0.00    -0.01   0.06  -0.05
  16   1    -0.04  -0.02   0.08    -0.00  -0.00   0.01     0.07   0.03  -0.11
  17   6    -0.02  -0.10  -0.20    -0.01  -0.02  -0.02     0.00   0.16   0.26
  18   1     0.01  -0.02  -0.03     0.01   0.01   0.00    -0.03   0.05   0.02
  19   1    -0.05  -0.03  -0.11    -0.03  -0.00  -0.01     0.04   0.04   0.15
  20   1    -0.00  -0.09  -0.04     0.00  -0.03  -0.00    -0.01   0.13   0.06
  21   1    -0.01  -0.01  -0.00    -0.01  -0.02  -0.01     0.01   0.00   0.00
  22   6     0.01   0.03   0.01    -0.11  -0.14  -0.08    -0.01  -0.02  -0.01
  23   8     0.01   0.03   0.02    -0.02  -0.20  -0.12    -0.01  -0.03  -0.02
  24   7     0.02  -0.03  -0.02    -0.16   0.19   0.14    -0.02   0.03   0.02
  25   1    -0.01  -0.02  -0.01     0.07   0.11   0.09     0.01   0.02   0.01
  26   1     0.03  -0.01  -0.02    -0.16   0.12   0.05    -0.02   0.01   0.02
  27   7    -0.04  -0.00   0.00     0.25   0.05   0.02     0.03   0.00  -0.00
  28   1    -0.03   0.01   0.01     0.23  -0.06  -0.02     0.03  -0.01  -0.00
  29   1    -0.01  -0.02  -0.02     0.06   0.19   0.08     0.01   0.02   0.01
  30   6    -0.00  -0.13   0.10     0.02  -0.04   0.00    -0.07   0.03   0.02
  31   8    -0.07  -0.19  -0.06     0.02  -0.04   0.01    -0.08   0.03  -0.01
  32   7     0.12   0.14   0.14    -0.00   0.05   0.03     0.12  -0.04  -0.07
  33   1    -0.05   0.09   0.01     0.02   0.03  -0.01    -0.02  -0.05   0.03
  34   1     0.08   0.06   0.10    -0.07  -0.00   0.06    -0.08  -0.05  -0.02
  35   7    -0.08   0.08  -0.10     0.01   0.02  -0.07    -0.00  -0.04   0.09
  36   1    -0.40  -0.02  -0.14     0.06  -0.00  -0.05    -0.31  -0.01   0.07
  37   1     0.46   0.28  -0.18    -0.15   0.01   0.05     0.48   0.07  -0.17
  38   6    -0.04   0.03   0.02    -0.07   0.10   0.07    -0.02   0.04   0.01
  39   8    -0.06   0.01   0.02    -0.17  -0.03   0.09    -0.05   0.00   0.01
  40   7     0.09   0.02  -0.01     0.15   0.12  -0.06     0.05   0.04  -0.00
  41   1     0.03  -0.02  -0.02     0.08  -0.04  -0.02     0.02  -0.01  -0.02
  42   1     0.04   0.03   0.01     0.08   0.08  -0.08     0.02   0.02   0.01
  43   7    -0.00  -0.07  -0.03     0.03  -0.12  -0.02     0.02  -0.06  -0.02
  44   1    -0.02  -0.06  -0.00    -0.02  -0.27   0.22    -0.02  -0.05  -0.01
  45   1     0.05  -0.02  -0.02     0.10   0.00  -0.41     0.05  -0.02  -0.02
  46   6     0.01  -0.00   0.00     0.06  -0.07   0.00     0.03  -0.04   0.01
  47   8     0.01   0.00   0.00     0.12   0.01  -0.01     0.06   0.00  -0.01
  48   7    -0.01  -0.00   0.01    -0.09  -0.07   0.04    -0.05  -0.04   0.01
  49   1    -0.01   0.00  -0.00    -0.05   0.01   0.00    -0.03   0.00  -0.01
  50   1    -0.01  -0.01  -0.01    -0.05  -0.06  -0.01    -0.02  -0.02   0.07
  51   7    -0.00   0.01  -0.00    -0.04   0.12  -0.01    -0.02   0.06  -0.02
  52   1     0.00   0.01  -0.01     0.04   0.12   0.01     0.02   0.05  -0.03
  53   1    -0.01   0.00   0.00    -0.11   0.03  -0.04    -0.05   0.02   0.02
                     46                     47                     48
                        a                      a                      a 
 Frequencies --   476.4445               481.7554               484.6262
 Red. masses --     5.6719                 2.1217                 8.1189
 Frc consts  --     0.0000                 0.0000                 0.0000
 IR Inten    --     2.4566                 5.6830                26.2100
 Raman Activ --     0.0000                 0.0000                 0.0000
 Depolar     --     0.0000                 0.0000                 0.0000
 Atom AN      X      Y      Z        X      Y      Z        X      Y      Z
   1   8    -0.01  -0.00  -0.02     0.00   0.00   0.00    -0.02  -0.02  -0.03
   2   6    -0.01   0.02   0.01     0.00   0.01   0.01     0.02   0.13   0.06
   3   1     0.00   0.01  -0.00     0.01   0.01   0.01     0.03   0.04   0.02
   4   1     0.00   0.01   0.00    -0.00  -0.00  -0.00     0.01   0.03   0.02
   5   6     0.00   0.01   0.01    -0.01   0.04  -0.01     0.01   0.15   0.01
   6   1    -0.00  -0.00   0.00    -0.00   0.01   0.00    -0.00   0.04  -0.01
   7   1    -0.00   0.01   0.00    -0.00   0.01  -0.00     0.02   0.05   0.01
   8   7     0.03   0.00  -0.01    -0.00   0.03  -0.01    -0.01   0.09  -0.07
   9   6    -0.00   0.00   0.03     0.01  -0.02   0.01     0.00  -0.13   0.06
  10   1    -0.01  -0.01   0.01    -0.01  -0.02   0.00    -0.04  -0.09   0.00
  11   1    -0.00   0.00   0.02     0.01  -0.01   0.01     0.04  -0.03   0.07
  12   1     0.01   0.01   0.02     0.00  -0.01   0.00    -0.00  -0.05   0.03
  13   6     0.03  -0.01  -0.01    -0.01  -0.02   0.02    -0.02  -0.09   0.06
  14   1     0.01  -0.01  -0.00     0.01  -0.01   0.01     0.03  -0.06   0.01
  15   1     0.01  -0.00  -0.00     0.00  -0.01   0.01     0.00  -0.04   0.03
  16   1     0.00  -0.00  -0.00    -0.01  -0.00   0.02    -0.05  -0.02   0.05
  17   6    -0.04  -0.01  -0.02     0.01  -0.02  -0.02    -0.00  -0.12  -0.13
  18   1    -0.01  -0.00  -0.01     0.00  -0.02   0.00     0.01  -0.04  -0.01
  19   1    -0.02  -0.00  -0.01     0.01  -0.01  -0.02    -0.02  -0.03  -0.08
  20   1    -0.02  -0.01   0.00     0.00  -0.01  -0.00     0.01  -0.08  -0.03
  21   1    -0.00  -0.01  -0.01    -0.00  -0.05  -0.03    -0.01  -0.01  -0.01
  22   6     0.01   0.02   0.01    -0.01   0.02  -0.09     0.00  -0.01   0.01
  23   8     0.00   0.02   0.03    -0.04   0.02  -0.08     0.00  -0.00   0.01
  24   7     0.02  -0.02  -0.05    -0.02  -0.03   0.15     0.00   0.01  -0.02
  25   1    -0.01  -0.04   0.03     0.02   0.12  -0.15     0.00  -0.01   0.02
  26   1     0.02  -0.00  -0.02    -0.02  -0.06   0.11    -0.00   0.02  -0.02
  27   7    -0.05  -0.02   0.01     0.07   0.05  -0.05    -0.01  -0.01   0.01
  28   1    -0.02  -0.05   0.10    -0.04   0.27  -0.43     0.01  -0.04   0.06
  29   1    -0.01   0.06  -0.13     0.02  -0.42   0.62    -0.00   0.07  -0.09
  30   6     0.00   0.01  -0.02    -0.01   0.03  -0.01    -0.09   0.22  -0.09
  31   8     0.03   0.03   0.02    -0.00   0.04   0.01    -0.05   0.30   0.06
  32   7    -0.04  -0.03  -0.01    -0.01  -0.03  -0.04     0.02  -0.23  -0.29
  33   1    -0.03  -0.00  -0.00    -0.01  -0.02   0.01     0.01  -0.18   0.03
  34   1     0.07   0.01  -0.03     0.01  -0.01  -0.03    -0.12  -0.12  -0.20
  35   7    -0.00  -0.01   0.01     0.01  -0.02   0.04     0.09  -0.14   0.28
  36   1     0.10   0.00   0.01     0.00   0.00   0.04    -0.09   0.02   0.30
[...]
  44   1    -0.00   0.00   0.00     0.01  -0.01  -0.01     0.02  -0.01  -0.01
  45   1    -0.00  -0.02   0.00     0.00   0.02  -0.00    -0.00   0.00   0.00
  46   6    -0.00   0.00   0.00    -0.01   0.01   0.00     0.00  -0.00  -0.00
  47   8     0.00  -0.00  -0.00     0.00  -0.00  -0.00    -0.00  -0.00   0.00
  48   7     0.02   0.01  -0.00    -0.02  -0.01   0.00     0.00   0.00  -0.00
  49   1    -0.08  -0.05   0.02     0.07   0.04  -0.02    -0.00  -0.00   0.00
  50   1     0.01  -0.00   0.00    -0.01   0.00   0.00    -0.00   0.00   0.00
  51   7     0.00  -0.00  -0.00     0.00  -0.00   0.00    -0.00   0.00  -0.00
  52   1     0.00  -0.00   0.00     0.01  -0.00   0.00    -0.00   0.00  -0.00
  53   1    -0.00   0.00   0.00    -0.00   0.02  -0.00     0.00  -0.01   0.00
                    142                    143                    144
                        a                      a                      a 
 Frequencies --  3436.0007              3491.6884              3497.9633
 Red. masses --     1.6333                 1.4490                 1.4515
 Frc consts  --     0.0000                 0.0000                 0.0000
 IR Inten    --   364.7849                23.0736                29.1144
 Raman Activ --     0.0000                 0.0000                 0.0000
 Depolar     --     0.0000                 0.0000                 0.0000
 Atom AN      X      Y      Z        X      Y      Z        X      Y      Z
   1   8    -0.00   0.01  -0.01     0.00  -0.00   0.00    -0.00   0.00  -0.00
   2   6     0.00  -0.00   0.00    -0.00   0.00  -0.00    -0.00  -0.00  -0.00
   3   1    -0.00   0.00  -0.00    -0.00  -0.00   0.00    -0.00   0.00  -0.00
   4   1     0.00  -0.00  -0.00    -0.00   0.00   0.00     0.00  -0.00   0.00
   5   6     0.00  -0.00   0.00     0.00   0.00  -0.00     0.00  -0.00   0.00
   6   1    -0.00   0.00  -0.00    -0.00   0.00   0.00    -0.00   0.00   0.00
   7   1     0.00   0.00   0.00    -0.00  -0.00   0.00    -0.00   0.00   0.00
   8   7    -0.00  -0.00  -0.00     0.00  -0.00   0.00    -0.00   0.00  -0.00
   9   6     0.00   0.00  -0.00     0.00   0.00  -0.00     0.00  -0.00   0.00
  10   1     0.00  -0.00  -0.00    -0.00  -0.00   0.00    -0.00  -0.00   0.00
  11   1     0.00  -0.00   0.00     0.00  -0.00  -0.00    -0.00   0.00  -0.00
  12   1    -0.00   0.00   0.00    -0.00   0.00   0.00    -0.00  -0.00   0.00
  13   6     0.00  -0.00   0.00     0.00   0.00  -0.00    -0.00  -0.00  -0.00
  14   1    -0.00   0.00  -0.00    -0.00  -0.00   0.00    -0.00  -0.00  -0.00
  15   1     0.00  -0.00   0.00     0.00   0.00   0.00     0.00  -0.00   0.00
  16   1     0.00   0.00   0.00    -0.00  -0.00  -0.00     0.00   0.00  -0.00
  17   6    -0.00  -0.00  -0.00     0.00  -0.00  -0.00    -0.00  -0.00  -0.00
  18   1    -0.00  -0.00  -0.00    -0.00   0.00   0.00    -0.00  -0.00  -0.00
  19   1    -0.00   0.00  -0.00     0.00  -0.00  -0.00    -0.00   0.00   0.00
  20   1     0.01   0.00   0.01     0.00   0.00  -0.00     0.00   0.00   0.00
  21   1     0.01  -0.03   0.05    -0.00   0.00  -0.00     0.00  -0.01   0.02
  22   6    -0.01   0.00  -0.00    -0.00   0.00   0.00    -0.00  -0.00  -0.00
  23   8     0.00   0.00   0.00     0.00  -0.00  -0.00    -0.00   0.00   0.00
  24   7    -0.17   0.11   0.05     0.00  -0.00  -0.00    -0.01   0.00  -0.00
  25   1     0.51  -0.64  -0.37    -0.00   0.00   0.00     0.01  -0.02  -0.01
  26   1     0.12   0.22   0.18    -0.00  -0.00  -0.00     0.01   0.02   0.01
  27   7    -0.00   0.00   0.00    -0.00   0.00   0.00    -0.00   0.00   0.00
  28   1    -0.01  -0.02  -0.01    -0.00  -0.00  -0.00    -0.01  -0.01  -0.01
  29   1     0.03   0.00   0.00     0.00   0.00   0.00     0.01   0.00   0.00
  30   6     0.00   0.00   0.00     0.00  -0.00   0.00     0.00   0.00   0.00
  31   8    -0.00  -0.00  -0.00    -0.00   0.00   0.00     0.00  -0.00   0.00
  32   7    -0.00   0.00   0.00     0.00   0.00   0.00     0.00  -0.00  -0.00
  33   1     0.00  -0.00  -0.00    -0.00  -0.01  -0.01     0.00   0.00   0.00
  34   1     0.00   0.00  -0.00     0.00  -0.00   0.00    -0.00   0.01  -0.00
  35   7     0.00   0.00   0.00     0.00   0.00   0.00     0.01   0.02   0.02
  36   1     0.00  -0.00   0.00     0.00  -0.01   0.00     0.01  -0.11   0.03
  37   1    -0.00   0.00  -0.00    -0.00   0.00  -0.01    -0.04   0.03  -0.09
  38   6    -0.00  -0.00  -0.00     0.00   0.00  -0.00     0.00   0.00   0.00
  39   8    -0.00  -0.00   0.00    -0.00   0.00   0.00    -0.00  -0.00   0.00
  40   7    -0.06   0.00   0.01     0.00  -0.01  -0.00    -0.01  -0.00   0.00
  41   1     0.14   0.08  -0.04     0.01   0.00  -0.00     0.02   0.01  -0.01
  42   1     0.11  -0.09  -0.00    -0.02   0.02   0.00     0.00  -0.00  -0.00
  43   7     0.00  -0.00  -0.00     0.15   0.09  -0.06    -0.00  -0.00   0.00
  44   1    -0.01   0.00   0.00    -0.50   0.37   0.31     0.00  -0.00  -0.00
  45   1     0.00  -0.00  -0.00    -0.07  -0.69  -0.09     0.00   0.01   0.00
  46   6    -0.01   0.00  -0.00     0.00   0.00  -0.00     0.00   0.00  -0.00
  47   8     0.00  -0.00  -0.00    -0.00  -0.00   0.00    -0.00   0.00  -0.00
  48   7    -0.00  -0.01   0.00    -0.00  -0.00   0.00    -0.01   0.00   0.00
  49   1     0.02   0.01  -0.01     0.01   0.00  -0.00     0.01   0.01  -0.00
  50   1    -0.00   0.00   0.00    -0.00   0.00   0.00     0.04  -0.02  -0.00
  51   7    -0.00  -0.01   0.00     0.00   0.00  -0.00     0.15   0.10  -0.04
  52   1     0.02  -0.01   0.00    -0.00   0.00  -0.00    -0.57   0.34  -0.00
  53   1    -0.00   0.03  -0.01     0.00  -0.00   0.00     0.01  -0.69   0.14
                    145                    146                    147
                        a                      a                      a 
 Frequencies --  3498.1124              3502.1704              3526.4673
 Red. masses --     1.4532                 1.4493                 1.9047
 Frc consts  --     0.0000                 0.0000                 0.0000
 IR Inten    --    12.3916                20.7518                13.3676
 Raman Activ --     0.0000                 0.0000                 0.0000
 Depolar     --     0.0000                 0.0000                 0.0000
 Atom AN      X      Y      Z        X      Y      Z        X      Y      Z
   1   8    -0.00   0.00  -0.00     0.00  -0.00   0.00     0.00  -0.00   0.00
   2   6    -0.00  -0.00  -0.00     0.00   0.00  -0.00    -0.00  -0.00  -0.00
   3   1    -0.00   0.00  -0.00    -0.00  -0.00   0.00     0.00   0.00  -0.00
   4   1    -0.00  -0.00   0.00    -0.00   0.00   0.00     0.00   0.00  -0.00
   5   6     0.00  -0.00   0.00     0.00   0.00   0.00     0.00  -0.00  -0.00
   6   1    -0.00   0.00   0.00     0.00  -0.00   0.00    -0.00   0.00   0.00
   7   1     0.00   0.00  -0.00     0.00  -0.00  -0.00     0.00   0.00   0.00
   8   7    -0.00  -0.00  -0.00    -0.00   0.00   0.00     0.00   0.00   0.00
   9   6    -0.00   0.00   0.00     0.00  -0.00   0.00    -0.00  -0.00   0.00
  10   1     0.00   0.00  -0.00    -0.00   0.00  -0.00     0.00   0.00   0.00
  11   1     0.00  -0.00   0.00    -0.00   0.00  -0.00     0.00   0.00   0.00
  12   1    -0.00   0.00   0.00     0.00   0.00   0.00     0.00  -0.00  -0.00
  13   6     0.00   0.00  -0.00    -0.00  -0.00   0.00     0.00  -0.00   0.00
  14   1     0.00   0.00  -0.00     0.00  -0.00  -0.00    -0.00   0.00   0.00
  15   1     0.00  -0.00  -0.00     0.00   0.00   0.00    -0.00  -0.00  -0.00
  16   1    -0.00  -0.00   0.00     0.00   0.00  -0.00    -0.00   0.00   0.00
  17   6    -0.00   0.00  -0.00     0.00  -0.00  -0.00     0.00   0.00   0.00
  18   1    -0.00   0.00  -0.00    -0.00   0.00   0.00     0.00   0.00  -0.00
  19   1    -0.00  -0.00  -0.00     0.00  -0.00   0.00     0.00  -0.00  -0.00
  20   1     0.00   0.00   0.00    -0.00   0.00  -0.00    -0.00  -0.00  -0.00
  21   1     0.00  -0.00   0.00    -0.00   0.00  -0.00    -0.00   0.00  -0.00
  22   6    -0.00  -0.00  -0.00    -0.00   0.00   0.00    -0.00   0.00   0.00
  23   8     0.00   0.00   0.00    -0.00  -0.00  -0.00     0.00  -0.00   0.00
  24   7    -0.00   0.00  -0.00     0.01  -0.01  -0.01     0.00   0.00   0.00
  25   1     0.00  -0.00  -0.00    -0.02   0.03   0.02     0.00  -0.00  -0.00
  26   1     0.00   0.00   0.00     0.01   0.01   0.01    -0.00  -0.00  -0.00
  27   7    -0.00   0.00   0.00    -0.09   0.14   0.08     0.00  -0.00  -0.00
  28   1    -0.00  -0.00  -0.00    -0.33  -0.57  -0.31     0.00   0.00   0.00
  29   1     0.00   0.00   0.00     0.66   0.05   0.02    -0.00  -0.00  -0.00
  30   6    -0.00  -0.00  -0.00    -0.00   0.00   0.00    -0.00   0.01   0.00
  31   8    -0.00   0.00  -0.00     0.00  -0.00  -0.00     0.00  -0.00  -0.00
  32   7    -0.00   0.01   0.00    -0.00   0.00  -0.00    -0.07   0.25  -0.02
  33   1    -0.00  -0.01  -0.01     0.00   0.00   0.00    -0.04  -0.05  -0.07
  34   1     0.01  -0.04   0.01     0.00  -0.00   0.00     0.29  -0.90   0.15
  35   7    -0.05  -0.14  -0.10     0.00  -0.00   0.00     0.01  -0.01   0.02
  36   1    -0.05   0.69  -0.19    -0.00   0.00  -0.00     0.00   0.01  -0.00
  37   1     0.26  -0.17   0.57    -0.00   0.00  -0.00    -0.03   0.02  -0.07
  38   6    -0.00  -0.00  -0.00     0.00   0.00   0.00    -0.00   0.00   0.00
  39   8    -0.00   0.00   0.00     0.00  -0.00  -0.00     0.00  -0.00  -0.00
  40   7    -0.00  -0.00   0.00     0.00  -0.00  -0.00    -0.00  -0.00   0.00
  41   1     0.00   0.00  -0.00    -0.00  -0.00   0.00     0.00   0.00  -0.00
  42   1     0.00  -0.00  -0.00    -0.01   0.01   0.00    -0.00   0.00   0.00
  43   7     0.00   0.00  -0.00    -0.00  -0.00   0.00    -0.00   0.00   0.00
  44   1    -0.01   0.00   0.00     0.00  -0.00  -0.00     0.01  -0.00  -0.00
  45   1    -0.00  -0.01  -0.00     0.00   0.00   0.00    -0.00  -0.00  -0.00
  46   6     0.00   0.00  -0.00     0.00  -0.00   0.00     0.00   0.00  -0.00
  47   8    -0.00   0.00  -0.00     0.00  -0.00  -0.00    -0.00  -0.00   0.00
  48   7    -0.00   0.00   0.00     0.00   0.00  -0.00     0.01  -0.00   0.00
  49   1     0.00   0.00  -0.00    -0.00  -0.00   0.00     0.00   0.00  -0.00
  50   1     0.01  -0.00  -0.00    -0.00   0.00   0.00    -0.02   0.01   0.00
  51   7     0.02   0.02  -0.01    -0.00  -0.00   0.00    -0.00   0.00  -0.00
  52   1    -0.09   0.05  -0.00     0.01  -0.01   0.00     0.00  -0.00  -0.00
  53   1     0.00  -0.11   0.02    -0.00   0.01  -0.00    -0.00  -0.00   0.00
                    148                    149                    150
                        a                      a                      a 
 Frequencies --  3532.4920              3540.0967              3556.9333
 Red. masses --     1.8791                 2.0392                 2.1842
 Frc consts  --     0.0000                 0.0000                 0.0000
 IR Inten    --    15.5020                28.2375                16.2014
 Raman Activ --     0.0000                 0.0000                 0.0000
 Depolar     --     0.0000                 0.0000                 0.0000
 Atom AN      X      Y      Z        X      Y      Z        X      Y      Z
   1   8     0.00  -0.00   0.00    -0.00   0.00  -0.00    -0.00   0.00  -0.00
   2   6    -0.00   0.00   0.00     0.00  -0.00   0.00     0.00  -0.00   0.00
   3   1     0.00   0.00  -0.00    -0.00   0.00   0.00     0.00   0.00  -0.00
   4   1     0.00  -0.00  -0.00     0.00   0.00  -0.00     0.00  -0.00  -0.00
   5   6    -0.00  -0.00  -0.00     0.00  -0.00  -0.00    -0.00  -0.00   0.00
   6   1     0.00  -0.00   0.00    -0.00   0.00  -0.00     0.00  -0.00  -0.00
   7   1     0.00  -0.00  -0.00    -0.00   0.00   0.00     0.00   0.00  -0.00
   8   7    -0.00  -0.00  -0.00    -0.00  -0.00  -0.00     0.00  -0.00  -0.00
   9   6     0.00  -0.00   0.00     0.00   0.00  -0.00    -0.00   0.00   0.00
  10   1     0.00   0.00  -0.00     0.00  -0.00   0.00     0.00  -0.00  -0.00
  11   1    -0.00   0.00  -0.00     0.00  -0.00  -0.00    -0.00  -0.00  -0.00
  12   1     0.00   0.00   0.00    -0.00   0.00   0.00     0.00  -0.00  -0.00
  13   6     0.00  -0.00   0.00    -0.00  -0.00  -0.00    -0.00   0.00  -0.00
  14   1     0.00  -0.00   0.00    -0.00   0.00   0.00     0.00  -0.00  -0.00
  15   1    -0.00  -0.00  -0.00     0.00  -0.00   0.00     0.00   0.00   0.00
  16   1    -0.00   0.00  -0.00     0.00   0.00   0.00    -0.00  -0.00  -0.00
  17   6     0.00  -0.00   0.00    -0.00  -0.00  -0.00    -0.00  -0.00   0.00
  18   1     0.00  -0.00  -0.00    -0.00   0.00  -0.00     0.00  -0.00  -0.00
  19   1     0.00   0.00  -0.00     0.00   0.00   0.00    -0.00   0.00  -0.00
  20   1    -0.00  -0.00   0.00     0.00   0.00   0.00    -0.00  -0.00   0.00
  21   1    -0.00   0.00  -0.00     0.00  -0.01   0.01     0.00  -0.00   0.00
  22   6    -0.00   0.00   0.00    -0.00   0.01   0.01     0.00   0.00  -0.00
  23   8    -0.00  -0.00  -0.00     0.00  -0.00  -0.00    -0.00  -0.00   0.00
  24   7     0.00   0.00   0.00     0.06   0.22   0.17    -0.00  -0.00  -0.00
  25   1     0.00  -0.00  -0.00     0.18  -0.20  -0.10     0.00  -0.00  -0.00
  26   1    -0.01  -0.01  -0.01    -0.40  -0.62  -0.53     0.00   0.00   0.00
  27   7    -0.00  -0.00  -0.00    -0.03  -0.01  -0.01     0.00   0.00   0.00
  28   1     0.00   0.00   0.00     0.02   0.03   0.02    -0.00  -0.00  -0.00
  29   1     0.00   0.00   0.00     0.09   0.00   0.00    -0.00   0.00  -0.00
  30   6    -0.00   0.00   0.00     0.00   0.00   0.00    -0.00  -0.00   0.00
  31   8     0.00  -0.00   0.00    -0.00  -0.00  -0.00    -0.00   0.00  -0.00
  32   7    -0.00   0.01  -0.00     0.00  -0.00  -0.00     0.00  -0.00   0.00
  33   1    -0.00  -0.00  -0.00     0.00   0.00   0.00    -0.00  -0.00  -0.00
  34   1     0.01  -0.03   0.00    -0.00   0.00  -0.00    -0.00   0.01  -0.00
  35   7     0.00  -0.00   0.00    -0.00  -0.00  -0.00    -0.00   0.00  -0.00
  36   1     0.00   0.00  -0.00    -0.00   0.00  -0.00    -0.00  -0.00   0.00
  37   1    -0.00   0.00  -0.00     0.00  -0.00   0.00     0.00  -0.00   0.00
  38   6    -0.00   0.00   0.00     0.00  -0.00  -0.00    -0.00   0.01   0.00
  39   8     0.00  -0.00  -0.00    -0.00   0.00   0.00     0.00  -0.00  -0.00
  40   7     0.00  -0.00  -0.00    -0.00  -0.00   0.00    -0.00   0.00   0.00
  41   1     0.00  -0.00  -0.00     0.02   0.01  -0.00     0.00   0.00  -0.00
  42   1    -0.00   0.00   0.00     0.00  -0.00   0.00     0.01  -0.01  -0.00
  43   7     0.00  -0.00  -0.00    -0.00   0.00   0.00    -0.11   0.26   0.10
  44   1    -0.01   0.00   0.00     0.00  -0.00  -0.00     0.50  -0.33  -0.31
  45   1     0.00   0.00   0.00    -0.00  -0.00  -0.00    -0.09  -0.66  -0.07
  46   6    -0.01  -0.00   0.00    -0.00   0.00  -0.00    -0.00   0.00   0.00
  47   8     0.00  -0.00  -0.00     0.00  -0.00  -0.00     0.00   0.00  -0.00
  48   7    -0.23   0.12   0.00     0.00  -0.00   0.00    -0.00   0.00   0.00
  49   1     0.03   0.04  -0.01     0.00   0.00  -0.00     0.00   0.00  -0.00
  50   1     0.82  -0.49  -0.01    -0.01   0.01   0.00     0.00  -0.00  -0.00
  51   7     0.01  -0.03   0.01     0.00  -0.00  -0.00     0.00  -0.00   0.00
  52   1    -0.02   0.01  -0.00    -0.02   0.01   0.00    -0.01   0.00   0.00
  53   1     0.00   0.09  -0.02     0.00  -0.00   0.00     0.00   0.01  -0.00
                    151                    152                    153
                        a                      a                      a 
 Frequencies --  3563.2146              3563.4466              3569.0695
 Red. masses --     2.1761                 2.1845                 2.1849
 Frc consts  --     0.0000                 0.0000                 0.0000
 IR Inten    --     8.0587                21.5386                14.1399
 Raman Activ --     0.0000                 0.0000                 0.0000
 Depolar     --     0.0000                 0.0000                 0.0000
 Atom AN      X      Y      Z        X      Y      Z        X      Y      Z
   1   8     0.00  -0.00   0.00    -0.00   0.00  -0.00     0.00  -0.00   0.00
   2   6     0.00  -0.00   0.00    -0.00  -0.00  -0.00     0.00   0.00  -0.00
   3   1     0.00   0.00   0.00    -0.00   0.00  -0.00     0.00   0.00  -0.00
   4   1     0.00  -0.00  -0.00     0.00  -0.00  -0.00    -0.00  -0.00   0.00
   5   6     0.00  -0.00   0.00     0.00  -0.00   0.00    -0.00   0.00   0.00
   6   1    -0.00   0.00   0.00    -0.00  -0.00  -0.00     0.00  -0.00   0.00
   7   1     0.00   0.00   0.00    -0.00  -0.00  -0.00     0.00   0.00  -0.00
   8   7    -0.00  -0.00  -0.00     0.00   0.00  -0.00     0.00  -0.00  -0.00
   9   6    -0.00   0.00  -0.00     0.00   0.00   0.00    -0.00  -0.00   0.00
  10   1     0.00   0.00  -0.00    -0.00   0.00  -0.00     0.00   0.00  -0.00
  11   1     0.00  -0.00   0.00     0.00  -0.00   0.00     0.00   0.00   0.00
  12   1     0.00   0.00   0.00    -0.00  -0.00   0.00     0.00  -0.00   0.00
  13   6     0.00   0.00  -0.00    -0.00  -0.00  -0.00    -0.00   0.00   0.00
  14   1    -0.00   0.00   0.00    -0.00  -0.00  -0.00     0.00   0.00  -0.00
  15   1    -0.00   0.00  -0.00     0.00   0.00   0.00    -0.00  -0.00  -0.00
  16   1    -0.00  -0.00   0.00    -0.00   0.00  -0.00     0.00   0.00   0.00
  17   6     0.00   0.00   0.00    -0.00  -0.00  -0.00     0.00  -0.00   0.00
  18   1     0.00   0.00  -0.00     0.00  -0.00  -0.00    -0.00   0.00   0.00
  19   1    -0.00  -0.00  -0.00    -0.00   0.00  -0.00     0.00   0.00  -0.00
  20   1    -0.00   0.00  -0.00     0.00   0.00   0.00    -0.00  -0.00  -0.00
  21   1    -0.00   0.00  -0.00     0.00  -0.00   0.01    -0.00   0.00  -0.00
  22   6     0.00  -0.00  -0.00    -0.00   0.00   0.00    -0.01  -0.00  -0.00
  23   8     0.00   0.00   0.00     0.00   0.00   0.00     0.00   0.00   0.00
  24   7     0.00  -0.00  -0.00    -0.00   0.00   0.00    -0.00  -0.02  -0.02
  25   1    -0.00   0.00   0.00     0.01  -0.01  -0.00    -0.02   0.02   0.01
  26   1     0.00   0.00   0.00    -0.00  -0.01  -0.01     0.04   0.06   0.05
  27   7     0.00   0.00   0.00    -0.00  -0.00  -0.00    -0.25  -0.14  -0.08
  28   1    -0.00  -0.00  -0.00     0.00   0.01   0.00     0.27   0.51   0.28
  29   1    -0.00  -0.00  -0.00     0.01   0.00   0.00     0.70   0.02   0.01
  30   6    -0.00   0.01  -0.01    -0.00   0.00  -0.00    -0.00   0.00   0.00
  31   8     0.00  -0.00   0.00     0.00  -0.00   0.00     0.00  -0.00  -0.00
  32   7    -0.00   0.02  -0.00    -0.00   0.00   0.00    -0.00  -0.00  -0.00
  33   1    -0.00  -0.00  -0.01    -0.00  -0.00  -0.00     0.00   0.00   0.00
  34   1     0.02  -0.06   0.01     0.00  -0.00   0.00     0.00  -0.00   0.00
  35   7    -0.08   0.20  -0.20    -0.00   0.01  -0.01    -0.00   0.00  -0.00
  36   1     0.03  -0.62   0.15     0.00  -0.02   0.01     0.00  -0.00   0.00
  37   1     0.29  -0.15   0.63     0.01  -0.01   0.02     0.00  -0.00   0.00
  38   6    -0.00   0.00   0.00    -0.00   0.00   0.00     0.00   0.00   0.00
  39   8     0.00  -0.00  -0.00     0.00  -0.00  -0.00     0.00  -0.00  -0.00
  40   7     0.00  -0.00  -0.00    -0.00  -0.00   0.00     0.00  -0.00  -0.00
  41   1     0.00   0.00  -0.00     0.01   0.00  -0.00    -0.00  -0.00   0.00
  42   1    -0.00   0.00  -0.00     0.00  -0.00  -0.00    -0.01   0.00   0.00
  43   7     0.00  -0.00  -0.00    -0.00   0.00   0.00    -0.00   0.00   0.00
  44   1    -0.00   0.00   0.00     0.01  -0.00  -0.00     0.00  -0.00  -0.00
  45   1     0.00   0.00   0.00    -0.00  -0.01  -0.00    -0.00  -0.00  -0.00
  46   6     0.00  -0.00   0.00    -0.01   0.01  -0.00     0.00  -0.00   0.00
  47   8    -0.00   0.00   0.00     0.00  -0.00   0.00    -0.00   0.00   0.00
  48   7     0.00  -0.00   0.00    -0.02   0.01   0.00     0.00   0.00  -0.00
  49   1     0.00   0.00  -0.00     0.00   0.00  -0.00    -0.00  -0.00   0.00
  50   1    -0.00   0.00  -0.00     0.07  -0.04  -0.00    -0.00   0.00  -0.00
  51   7     0.01  -0.01   0.00    -0.16   0.25  -0.03     0.00  -0.00   0.00
  52   1    -0.02   0.01   0.00     0.61  -0.33  -0.00    -0.01   0.00   0.00
  53   1     0.00   0.02  -0.00    -0.02  -0.63   0.13     0.00   0.01  -0.00
