 Entering Gaussian System
 *********************************************
 Gaussian 98:
 frequency output generated by the xtb code
 *********************************************
                         Standard orientation:
 --------------------------------------------------------------------
  Center     Atomic     Atomic              Coordinates (Angstroms)
  Number     Number      Type              X           Y           Z
 --------------------------------------------------------------------
    1          8             0       -0.522354   -0.589139   -3.163667
    2          6             0        0.452165   -0.099057   -2.263531
    3          1             0        1.444063   -0.120747   -2.736741
    4          1             0        0.238217    0.937897   -1.980448
    5          6             0        0.457410   -0.881029   -0.952514
    6          1             0       -0.492497   -0.735153   -0.432640
    7          1             0        1.268979   -0.469767   -0.351224
    8          7             0        0.676608   -2.349596   -1.037022
    9          6             0        0.901626   -2.832354    0.337483
   10          1             0        1.813881   -2.388308    0.730104
   11          1             0        0.996727   -3.916186    0.337628
   12          1             0        0.050930   -2.541157    0.951466
   13          6             0        1.858826   -2.660130   -1.850579
   14          1             0        1.684825   -2.386006   -2.888021
   15          1             0        2.070659   -3.726769   -1.802717
   16          1             0        2.712384   -2.110292   -1.455330
   17          6             0       -0.519189   -3.014184   -1.578189
   18          1             0       -0.751579   -2.614701   -2.561626
   19          1             0       -1.354971   -2.813848   -0.909530
   20          1             0       -0.352854   -4.087452   -1.644217
   21          1             0       -0.731826    0.087607   -3.813460
   22          6             0        4.053338    0.197575    0.242053
   23          8             0        3.297227   -0.749307    0.478871
   24          7             0        3.601120    1.456711    0.156448
   25          1             0        2.612942    1.640283    0.356523
   26          1             0        4.223664    2.230438    0.014608
   27          7             0        5.371901   -0.004431   -0.008033
   28          1             0        6.016566    0.763375   -0.061849
   29          1             0        5.751171   -0.918805    0.164769
   30          6             0       -2.162676    3.166509   -0.440097
   31          8             0       -2.581333    2.328360    0.358900
   32          7             0       -3.017168    3.975349   -1.114368
   33          1             0       -3.989797    3.949802   -0.864951
   34          1             0       -2.693943    4.738967   -1.679578
   35          7             0       -0.855742    3.279115   -0.740234
   36          1             0       -0.519394    4.062220   -1.271048
   37          1             0       -0.181307    2.748381   -0.178903
   38          6             0       -3.102693   -1.408639    1.163735
   39          8             0       -1.906914   -1.574208    0.936174
   40          7             0       -3.715349   -0.218622    1.051478
   41          1             0       -3.216246    0.601602    0.729573
   42          1             0       -4.702758   -0.128014    1.205528
   43          7             0       -3.898420   -2.452415    1.527754
   44          1             0       -4.842005   -2.310099    1.838820
   45          1             0       -3.464658   -3.331451    1.745968
   46          6             0        0.450779    1.048506    1.707291
   47          8             0        0.888301    1.696384    0.741650
   48          7             0       -0.768720    1.277045    2.216409
   49          1             0       -1.437064    1.792660    1.641583
   50          1             0       -1.149955    0.640809    2.893710
   51          7             0        1.216589    0.119085    2.315457
   52          1             0        0.844267   -0.450624    3.052426
   53          1             0        2.077756   -0.170814    1.866920
 --------------------------------------------------------------------
     1 basis functions        1 primitive gaussians
     1 alpha electrons        1 beta electrons

 Harmonic frequencies (cm**-1), IR intensities (km*mol⁻¹),
 Raman scattering activities (A**4/amu), Raman depolarization ratios,
 reduced masses (AMU), force constants (mDyne/A) and normal coordinates:
                      1                      2                      3
                        a                      a                      a 
 Frequencies --    12.2607                19.3899                24.7282
 Red. masses --    12.8521                12.3462                12.3362
 Frc consts  --     0.0000                 0.0000                 0.0000
 IR Inten    --     0.6251                 0.5451                 0.8740
 Raman Activ --     0.0000                 0.0000                 0.0000
 Depolar     --     0.0000                 0.0000                 0.0000
 Atom AN      X      Y      Z        X      Y      Z        X      Y      Z
   1   8    -0.35   0.27   0.22     0.35   0.10  -0.25    -0.07  -0.10  -0.00
   2   6    -0.18   0.14   0.10     0.16   0.09  -0.07     0.00  -0.10  -0.06
   3   1    -0.07   0.04  -0.01     0.07   0.04   0.02    -0.01  -0.03  -0.03
   4   1    -0.03   0.04   0.05     0.03   0.02  -0.02     0.01  -0.03  -0.01
   5   6    -0.04   0.06   0.05     0.02   0.05  -0.09     0.06  -0.10  -0.06
   6   1     0.00   0.01   0.04    -0.00   0.02  -0.05     0.02  -0.03  -0.00
   7   1     0.00   0.01  -0.00    -0.01   0.00  -0.00     0.03  -0.03  -0.03
   8   7    -0.04   0.07  -0.06    -0.03   0.05  -0.13     0.05  -0.11  -0.07
   9   6     0.03  -0.02  -0.10    -0.06   0.00  -0.13     0.08  -0.10  -0.07
  10   1     0.01  -0.01  -0.03    -0.02  -0.01  -0.03     0.03  -0.03  -0.03
  11   1     0.02  -0.00  -0.05    -0.03   0.00  -0.05     0.02  -0.03  -0.02
  12   1     0.02  -0.02  -0.01    -0.02   0.00  -0.04     0.03  -0.03  -0.01
  13   6    -0.08   0.13  -0.14    -0.03   0.03  -0.11     0.01  -0.11  -0.10
  14   1    -0.04   0.06  -0.03    -0.00   0.02  -0.03    -0.01  -0.03  -0.03
  15   1    -0.02   0.04  -0.06    -0.02   0.01  -0.04     0.00  -0.03  -0.03
  16   1    -0.02   0.03  -0.04    -0.00  -0.00  -0.03     0.01  -0.03  -0.04
  17   6    -0.06   0.09  -0.04    -0.04   0.10  -0.16     0.02  -0.09  -0.02
  18   1    -0.03   0.04  -0.00    -0.00   0.04  -0.04    -0.00  -0.03  -0.01
  19   1    -0.01   0.01   0.00    -0.01   0.03  -0.05     0.01  -0.02  -0.00
  20   1    -0.02   0.03  -0.03    -0.02   0.03  -0.05     0.00  -0.03  -0.01
  21   1    -0.11   0.08   0.08     0.11   0.02  -0.07    -0.03  -0.02   0.01
  22   6     0.02  -0.01   0.07    -0.04  -0.05   0.08    -0.02  -0.01   0.09
  23   8    -0.02  -0.01  -0.01    -0.05  -0.05   0.08    -0.02  -0.04   0.03
  24   7     0.07   0.01   0.15    -0.03  -0.06   0.03    -0.06  -0.03   0.04
  25   1     0.02   0.01   0.04    -0.01  -0.01   0.00    -0.02  -0.01  -0.01
  26   1     0.03  -0.00   0.06    -0.01  -0.02   0.02    -0.02  -0.00   0.03
  27   7     0.02  -0.04   0.09    -0.03  -0.06   0.16     0.01   0.03   0.26
  28   1     0.01  -0.02   0.04    -0.01  -0.02   0.04    -0.00   0.01   0.08
  29   1    -0.00  -0.02   0.01    -0.01  -0.02   0.05     0.01   0.01   0.08
  30   6     0.09  -0.09  -0.17    -0.05  -0.08  -0.06    -0.05   0.20   0.04
  31   8     0.08  -0.15  -0.26    -0.05   0.01   0.04    -0.09   0.09  -0.11
  32   7     0.12  -0.16  -0.28    -0.05  -0.14  -0.13    -0.02   0.37   0.19
  33   1     0.03  -0.06  -0.10    -0.01  -0.03  -0.03    -0.01   0.09   0.04
  34   1     0.03  -0.03  -0.06    -0.02  -0.06  -0.06     0.00   0.12   0.08
  35   7     0.13  -0.00  -0.04    -0.06  -0.14  -0.11    -0.05   0.22   0.07
  36   1     0.03   0.01   0.00    -0.02  -0.05  -0.05    -0.01   0.08   0.05
  37   1     0.03   0.01   0.01    -0.01  -0.03  -0.02    -0.02   0.03  -0.01
  38   6     0.06  -0.05   0.10     0.03   0.03   0.17     0.15   0.01   0.07
  39   8     0.09  -0.04   0.19    -0.03  -0.00  -0.14     0.18   0.02   0.09
  40   7     0.03  -0.09  -0.09     0.05   0.06   0.36     0.11  -0.04  -0.15
  41   1     0.01  -0.03  -0.04    -0.00   0.01   0.06     0.02  -0.01  -0.06
  42   1     0.01  -0.03  -0.03     0.02   0.02   0.16     0.03  -0.01  -0.02
  43   7     0.09  -0.03   0.21     0.10   0.06   0.39     0.22   0.05   0.29
  44   1     0.02  -0.01   0.04     0.05   0.02   0.16     0.05   0.01   0.06
  45   1     0.03   0.00   0.09     0.03   0.01   0.06     0.07   0.02   0.11
  46   6    -0.00  -0.02   0.01    -0.04   0.00   0.02    -0.11  -0.04  -0.13
  47   8     0.06   0.05   0.09    -0.05  -0.04  -0.01    -0.11  -0.06  -0.15
  48   7    -0.05  -0.07  -0.07    -0.02   0.07   0.05    -0.11   0.00  -0.14
  49   1    -0.00  -0.02  -0.03    -0.00   0.02   0.01    -0.03   0.00  -0.04
  50   1    -0.03  -0.04  -0.04    -0.01   0.03   0.02    -0.03   0.00  -0.04
  51   7    -0.03  -0.04   0.01    -0.07  -0.02   0.01    -0.15  -0.06  -0.13
  52   1    -0.03  -0.03  -0.02    -0.02   0.00   0.01    -0.05  -0.02  -0.04
  53   1    -0.01  -0.01   0.01    -0.02  -0.02   0.00    -0.04  -0.02  -0.03
                      4                      5                      6
                        a                      a                      a 
 Frequencies --    31.5437                37.4492                39.5878
 Red. masses --    12.6278                12.3239                12.7912
 Frc consts  --     0.0000                 0.0000                 0.0000
 IR Inten    --     1.0124                 0.2806                 4.5581
 Raman Activ --     0.0000                 0.0000                 0.0000
 Depolar     --     0.0000                 0.0000                 0.0000
 Atom AN      X      Y      Z        X      Y      Z        X      Y      Z
   1   8     0.37  -0.01  -0.11    -0.03  -0.29  -0.25    -0.15  -0.15  -0.04
   2   6     0.13   0.05   0.08    -0.11  -0.08  -0.23    -0.17  -0.04  -0.04
   3   1     0.06   0.04   0.07    -0.02  -0.01  -0.05    -0.05   0.01  -0.01
   4   1     0.00   0.01   0.02    -0.06  -0.02  -0.10    -0.07  -0.02  -0.02
   5   6    -0.02   0.02   0.07    -0.09   0.06  -0.15    -0.10  -0.03  -0.03
   6   1    -0.02   0.01  -0.01    -0.03   0.02  -0.05    -0.04  -0.04  -0.02
   7   1    -0.02   0.00   0.04    -0.03   0.04  -0.05    -0.05   0.02  -0.01
   8   7    -0.02   0.03   0.06    -0.06   0.06  -0.01     0.06  -0.01  -0.01
   9   6    -0.05   0.00   0.05    -0.00   0.18   0.03     0.03   0.02   0.00
  10   1    -0.02  -0.00   0.02     0.00   0.06  -0.01    -0.01   0.03   0.01
  11   1    -0.02   0.00   0.01     0.00   0.05   0.03     0.04   0.01   0.00
  12   1    -0.02  -0.00   0.01     0.00   0.07   0.01    -0.01  -0.02  -0.01
  13   6    -0.01   0.03   0.07    -0.07   0.01  -0.02     0.13   0.11   0.05
  14   1     0.00   0.02   0.02    -0.03  -0.03  -0.01     0.05   0.03   0.01
  15   1    -0.00   0.01   0.02    -0.01   0.01   0.02     0.07   0.04   0.02
  16   1    -0.00   0.01   0.03    -0.02   0.02  -0.02     0.02   0.05   0.03
  17   6    -0.01   0.04   0.02    -0.05  -0.03   0.09     0.15  -0.14  -0.07
  18   1     0.00   0.02   0.01    -0.03  -0.04   0.02     0.05  -0.05  -0.03
  19   1    -0.01   0.00   0.00    -0.01   0.00   0.03     0.03  -0.06  -0.03
  20   1    -0.00   0.01  -0.00    -0.01  -0.01   0.05     0.08  -0.04  -0.01
  21   1     0.12  -0.01  -0.04    -0.00  -0.10  -0.10    -0.06  -0.04  -0.01
  22   6    -0.05   0.01  -0.12     0.05   0.12   0.04     0.02   0.06   0.03
  23   8    -0.04   0.03  -0.00     0.03   0.10  -0.21    -0.00   0.08  -0.01
  24   7    -0.04   0.02  -0.06     0.08   0.16   0.35     0.06   0.08   0.12
  25   1    -0.00   0.01   0.01     0.02   0.03   0.07     0.01   0.02   0.02
  26   1    -0.01   0.00  -0.05     0.02   0.05   0.13     0.02   0.02   0.03
  27   7    -0.10  -0.02  -0.37     0.05   0.17   0.04     0.01   0.04   0.00
  28   1    -0.02  -0.01  -0.12     0.02   0.05   0.06     0.01   0.01   0.01
  29   1    -0.02  -0.01  -0.10     0.01   0.03  -0.04    -0.00   0.01  -0.01
  30   6     0.05   0.03  -0.00     0.07  -0.06   0.03     0.09   0.08  -0.04
  31   8     0.04  -0.16  -0.21     0.05   0.01   0.11     0.09  -0.05  -0.20
  32   7     0.07   0.05   0.02     0.10  -0.04   0.02     0.11   0.16   0.03
  33   1     0.01  -0.02  -0.03     0.03   0.01   0.02     0.03   0.02  -0.01
  34   1     0.02   0.05   0.05     0.04  -0.03  -0.01     0.03   0.06   0.03
  35   7     0.09   0.22   0.20     0.07  -0.19  -0.04     0.11   0.17   0.04
  36   1     0.02   0.09   0.09     0.03  -0.06  -0.02     0.03   0.07   0.04
  37   1     0.02   0.04   0.05     0.01  -0.04   0.00     0.03   0.03   0.00
  38   6    -0.07  -0.05   0.03    -0.03   0.10   0.01    -0.11  -0.11   0.03
  39   8    -0.09  -0.08   0.04    -0.02   0.15   0.05    -0.22  -0.33  -0.28
  40   7    -0.12  -0.11  -0.28    -0.09   0.05  -0.17     0.09   0.03   0.42
  41   1    -0.03  -0.04  -0.09    -0.02   0.02  -0.03     0.03  -0.02   0.05
  42   1    -0.03  -0.02  -0.04    -0.02   0.01  -0.02     0.03   0.04   0.13
  43   7    -0.03   0.02   0.34     0.02   0.11   0.14    -0.23  -0.01   0.09
  44   1    -0.02   0.01   0.06    -0.00   0.02   0.01    -0.04   0.03   0.08
  45   1    -0.01   0.01   0.12     0.01   0.04   0.05    -0.09  -0.04  -0.04
  46   6    -0.02  -0.03   0.04     0.01  -0.13   0.04     0.01   0.01  -0.03
  47   8     0.02   0.06   0.13     0.03  -0.05   0.12     0.03   0.02  -0.01
  48   7    -0.10  -0.16  -0.07    -0.00  -0.20   0.04    -0.02  -0.01  -0.08
  49   1    -0.02  -0.05  -0.03     0.00  -0.04   0.02     0.00  -0.00  -0.03
  50   1    -0.03  -0.06  -0.04    -0.01  -0.08  -0.01    -0.01   0.00  -0.02
  51   7    -0.01   0.01   0.07     0.01  -0.19  -0.03    -0.00   0.01  -0.01
  52   1    -0.01  -0.02   0.00     0.01  -0.07  -0.02     0.00   0.01   0.00
  53   1     0.01   0.02   0.03     0.01  -0.03  -0.01     0.00   0.01   0.00
                      7                      8                      9
                        a                      a                      a 
 Frequencies --    46.6056                47.9064                53.3596
 Red. masses --    12.7202                12.4006                12.1146
 Frc consts  --     0.0000                 0.0000                 0.0000
 IR Inten    --     4.6053                 2.0806                 1.2751
 Raman Activ --     0.0000                 0.0000                 0.0000
 Depolar     --     0.0000                 0.0000                 0.0000
 Atom AN      X      Y      Z        X      Y      Z        X      Y      Z
   1   8     0.18  -0.08  -0.07    -0.06   0.03   0.11    -0.11   0.20   0.16
   2   6     0.09  -0.02  -0.01     0.01  -0.02   0.06     0.14  -0.04   0.01
   3   1     0.03  -0.00   0.02    -0.01  -0.00   0.00     0.02  -0.07  -0.04
   4   1     0.01  -0.01  -0.01     0.01  -0.01   0.03     0.11   0.00   0.01
   5   6     0.03  -0.00   0.01     0.06  -0.06   0.03     0.12  -0.04   0.01
   6   1     0.01   0.02   0.00     0.02  -0.03   0.01     0.04   0.01   0.00
   7   1     0.02  -0.01  -0.00     0.01  -0.02   0.01     0.04  -0.02  -0.00
   8   7    -0.07  -0.02   0.02     0.11  -0.05  -0.02     0.05  -0.05   0.03
   9   6     0.02  -0.01   0.01     0.08  -0.09  -0.02    -0.14  -0.05   0.06
  10   1     0.02  -0.01  -0.02     0.02  -0.02   0.00    -0.05  -0.03   0.05
  11   1    -0.01  -0.00   0.01     0.03  -0.02  -0.02    -0.06  -0.02   0.02
  12   1     0.03   0.01   0.02     0.02  -0.03  -0.01    -0.06  -0.00  -0.01
  13   6    -0.15  -0.10  -0.08     0.13   0.01   0.00     0.13  -0.12   0.18
  14   1    -0.07  -0.03  -0.02     0.04   0.01   0.00     0.08  -0.04   0.04
  15   1    -0.06  -0.03  -0.02     0.05   0.00  -0.01     0.02  -0.04   0.07
  16   1    -0.03  -0.04  -0.05     0.03   0.01   0.01     0.03  -0.04   0.08
  17   6    -0.15   0.04   0.13     0.13  -0.07  -0.06     0.07   0.02  -0.11
  18   1    -0.06   0.01   0.04     0.04  -0.01  -0.02     0.06   0.01  -0.04
  19   1    -0.02   0.02   0.06     0.03  -0.03  -0.02     0.00   0.02  -0.06
  20   1    -0.06   0.01   0.04     0.05  -0.02  -0.02     0.00   0.00  -0.02
  21   1     0.06  -0.03  -0.03    -0.03   0.02   0.04    -0.03   0.07   0.06
  22   6    -0.02   0.02  -0.01    -0.14   0.04  -0.06     0.08  -0.05   0.01
  23   8    -0.03   0.01  -0.11    -0.08   0.03   0.08     0.05  -0.06  -0.15
  24   7     0.02   0.05   0.21    -0.18   0.04   0.08     0.19   0.02   0.50
  25   1     0.00   0.01   0.05    -0.05   0.00   0.05     0.04   0.01   0.09
  26   1     0.01   0.01   0.05    -0.06   0.01  -0.03     0.05  -0.00   0.10
  27   7    -0.03   0.01  -0.11    -0.20   0.07  -0.40     0.04  -0.08  -0.26
  28   1    -0.00   0.00   0.00    -0.06   0.02  -0.12     0.02  -0.03  -0.01
  29   1    -0.01  -0.00  -0.06    -0.04   0.02  -0.11    -0.00  -0.04  -0.12
  30   6     0.00   0.05  -0.05     0.07   0.03  -0.05    -0.13   0.01   0.01
  31   8    -0.02  -0.05  -0.19    -0.00   0.20   0.07    -0.13   0.04   0.06
  32   7     0.02   0.01  -0.12     0.16   0.10  -0.09    -0.17  -0.05  -0.02
  33   1    -0.00  -0.02  -0.06     0.04   0.07  -0.02    -0.04  -0.01   0.00
  34   1     0.01   0.03   0.01     0.07  -0.01  -0.06    -0.05  -0.01  -0.01
  35   7     0.03   0.21   0.14     0.08  -0.21  -0.16    -0.15   0.04   0.01
  36   1     0.01   0.07   0.05     0.04  -0.07  -0.05    -0.05  -0.00  -0.02
  37   1     0.01   0.05   0.03     0.00  -0.05  -0.01    -0.03   0.01  -0.01
  38   6     0.08  -0.00   0.10     0.11   0.07  -0.01    -0.03   0.05  -0.01
  39   8     0.14   0.14   0.26     0.12   0.02  -0.02    -0.06   0.10  -0.14
  40   7     0.06   0.02   0.45     0.18   0.11   0.05    -0.09   0.03   0.02
  41   1    -0.01   0.01   0.10     0.05   0.03   0.01    -0.04   0.01  -0.00
  42   1    -0.01  -0.04   0.01     0.05   0.04   0.01    -0.02   0.00   0.04
  43   7     0.07  -0.17  -0.38     0.07   0.10  -0.03     0.04   0.04   0.11
  44   1     0.02  -0.07  -0.07     0.02   0.04  -0.01     0.01  -0.00   0.04
  45   1     0.04  -0.04  -0.09     0.01   0.02  -0.02     0.02   0.01   0.01
  46   6    -0.06  -0.01  -0.04    -0.15  -0.08   0.12     0.02   0.01  -0.12
  47   8    -0.00   0.07   0.04    -0.13  -0.08   0.17     0.03   0.03  -0.12
  48   7    -0.09  -0.04  -0.09    -0.15  -0.01   0.14     0.01  -0.03  -0.15
  49   1    -0.01  -0.00  -0.03    -0.02   0.02   0.05    -0.00  -0.01  -0.03
  50   1    -0.04  -0.04  -0.06    -0.05  -0.00   0.03     0.01  -0.01  -0.04
  51   7    -0.11  -0.08  -0.08    -0.23  -0.17   0.07     0.02   0.01  -0.13
  52   1    -0.04  -0.04  -0.04    -0.06  -0.04   0.02     0.01   0.00  -0.03
  53   1    -0.02  -0.01  -0.01    -0.05  -0.04   0.03     0.01   0.01  -0.03
                     10                     11                     12
                        a                      a                      a 
 Frequencies --    56.9321                57.7033                62.1574
 Red. masses --    12.6318                12.4216                11.5762
 Frc consts  --     0.0000                 0.0000                 0.0000
 IR Inten    --     0.9904                 0.7213                 0.7309
 Raman Activ --     0.0000                 0.0000                 0.0000
 Depolar     --     0.0000                 0.0000                 0.0000
 Atom AN      X      Y      Z        X      Y      Z        X      Y      Z
   1   8    -0.11   0.04   0.08     0.02   0.22   0.14    -0.21  -0.03  -0.10
   2   6     0.06  -0.07  -0.04     0.14   0.04   0.06    -0.07  -0.00  -0.22
   3   1     0.00  -0.06  -0.04     0.03  -0.03   0.00    -0.03  -0.03  -0.09
   4   1     0.06  -0.01  -0.01     0.09   0.02   0.02     0.00   0.01  -0.09
   5   6     0.08  -0.04  -0.03     0.10   0.03   0.06    -0.02   0.13  -0.14
   6   1     0.03   0.00  -0.00     0.03   0.03   0.02    -0.01   0.04  -0.05
   7   1     0.03  -0.01  -0.02     0.04  -0.01   0.01    -0.02   0.07  -0.05
   8   7     0.04  -0.05   0.01    -0.02   0.02   0.07     0.05   0.14   0.02
   9   6    -0.05  -0.03   0.03    -0.08   0.00   0.07    -0.09   0.26   0.09
  10   1    -0.01  -0.01   0.02    -0.02  -0.01   0.03    -0.04   0.08   0.04
  11   1    -0.02  -0.01   0.02    -0.04  -0.00   0.02    -0.03   0.07   0.05
  12   1    -0.02   0.01  -0.01    -0.02   0.01   0.01    -0.05   0.09  -0.01
  13   6     0.07  -0.11   0.08    -0.02  -0.08   0.09     0.17   0.11   0.20
  14   1     0.04  -0.04   0.02     0.01  -0.02   0.02     0.09   0.01   0.04
  15   1     0.01  -0.03   0.03    -0.03  -0.03   0.03     0.06   0.03   0.09
  16   1     0.02  -0.03   0.03     0.00  -0.04   0.03     0.03   0.05   0.08
  17   6     0.04  -0.02  -0.04    -0.06   0.12   0.04     0.15   0.03  -0.07
  18   1     0.03  -0.01  -0.02    -0.00   0.04   0.01     0.07  -0.02  -0.04
  19   1     0.00   0.01  -0.03    -0.02   0.05   0.01     0.02   0.02  -0.06
  20   1    -0.00  -0.01   0.00    -0.04   0.03   0.01     0.06   0.01   0.02
  21   1    -0.03   0.02   0.02     0.00   0.07   0.05    -0.07  -0.02  -0.03
  22   6     0.01   0.06  -0.06     0.06   0.10  -0.05    -0.03  -0.13   0.01
  23   8     0.08   0.01  -0.07     0.14   0.06  -0.04    -0.04  -0.10   0.19
  24   7    -0.13   0.01  -0.30    -0.05   0.06  -0.23    -0.02  -0.15  -0.17
  25   1    -0.03  -0.01  -0.05    -0.01  -0.00  -0.05     0.00  -0.03  -0.02
  26   1    -0.04   0.02  -0.04    -0.02   0.03  -0.04    -0.00  -0.05  -0.07
  27   7     0.06   0.19   0.15     0.11   0.21   0.11    -0.05  -0.21  -0.04
  28   1    -0.01   0.07   0.02     0.01   0.07   0.01    -0.01  -0.06  -0.05
  29   1     0.04   0.06   0.05     0.05   0.07   0.04    -0.02  -0.05   0.02
  30   6     0.02   0.02   0.05     0.03  -0.04  -0.06    -0.01  -0.03   0.00
  31   8     0.04   0.06   0.11    -0.02  -0.07  -0.14    -0.06  -0.12  -0.12
  32   7    -0.02  -0.31  -0.31     0.11   0.24   0.19     0.04   0.06   0.05
  33   1    -0.01  -0.10  -0.10     0.03   0.08   0.05     0.01   0.01  -0.00
  34   1    -0.01  -0.05  -0.04     0.05   0.04   0.03     0.02   0.03   0.04
  35   7     0.06   0.29   0.37     0.03  -0.27  -0.25     0.01  -0.01   0.08
  36   1     0.01   0.04   0.05     0.02  -0.05  -0.02     0.01   0.01   0.05
  37   1     0.01   0.07   0.09    -0.00  -0.07  -0.06    -0.00  -0.02   0.02
  38   6    -0.02   0.11  -0.02    -0.09   0.01   0.05     0.06   0.05   0.02
  39   8    -0.05   0.10  -0.13    -0.11   0.04   0.02     0.10   0.29  -0.01
  40   7    -0.01   0.13   0.04    -0.11   0.01   0.19    -0.13  -0.04   0.13
  41   1    -0.01   0.03   0.01    -0.04  -0.00   0.02    -0.07   0.01   0.02
  42   1     0.00   0.04   0.04    -0.04  -0.01   0.03    -0.04  -0.06   0.02
  43   7    -0.01   0.14   0.06    -0.08  -0.03   0.01     0.25  -0.12  -0.04
  44   1     0.00   0.04   0.03    -0.02  -0.01   0.02     0.07  -0.08   0.01
  45   1    -0.01   0.03  -0.01    -0.02  -0.01  -0.01     0.11  -0.01  -0.02
  46   6    -0.03  -0.12   0.01    -0.02  -0.15  -0.08    -0.03  -0.03   0.03
  47   8    -0.03  -0.05   0.07    -0.01  -0.09  -0.03     0.02  -0.03   0.06
  48   7    -0.01  -0.13   0.05    -0.08  -0.31  -0.18    -0.08  -0.08  -0.06
  49   1     0.00  -0.01   0.03    -0.02  -0.08  -0.05    -0.02  -0.03  -0.03
  50   1    -0.01  -0.05  -0.01    -0.03  -0.10  -0.07    -0.03  -0.03  -0.03
  51   7    -0.06  -0.24  -0.12     0.01  -0.13  -0.07    -0.02   0.03   0.12
  52   1    -0.01  -0.07  -0.03     0.01  -0.05  -0.03    -0.02  -0.00   0.02
  53   1    -0.01  -0.04  -0.03     0.02  -0.01  -0.00    -0.00   0.00   0.04
                     13                     14                     15
                        a                      a                      a 
 Frequencies --    77.5024                80.8490                92.7750
 Red. masses --    11.4512                11.7865                13.0130
 Frc consts  --     0.0000                 0.0000                 0.0000
 IR Inten    --     0.7372                 3.6293                 8.8302
 Raman Activ --     0.0000                 0.0000                 0.0000
 Depolar     --     0.0000                 0.0000                 0.0000
 Atom AN      X      Y      Z        X      Y      Z        X      Y      Z
   1   8    -0.17   0.04   0.07     0.05  -0.11   0.05    -0.02   0.07  -0.04
   2   6     0.11  -0.09  -0.16    -0.09   0.10   0.08     0.03   0.04  -0.07
   3   1     0.01  -0.09  -0.10    -0.02   0.08   0.03     0.01  -0.01  -0.02
   4   1     0.11  -0.01  -0.06    -0.09   0.02   0.02     0.03   0.02  -0.03
   5   6     0.17   0.01  -0.10     0.02   0.08   0.07     0.01   0.11  -0.03
   6   1     0.07   0.05  -0.01     0.01   0.00   0.04     0.00   0.04  -0.01
   7   1     0.08  -0.01  -0.06     0.01   0.03   0.01    -0.00   0.04  -0.01
   8   7    -0.03  -0.03  -0.03     0.10   0.10   0.03    -0.01   0.11   0.06
   9   6     0.09   0.06  -0.01     0.33   0.10  -0.01    -0.06   0.16   0.08
  10   1     0.04   0.01  -0.03     0.11   0.04  -0.04    -0.01   0.04   0.02
  11   1     0.01   0.02   0.02     0.11   0.03  -0.01    -0.03   0.04   0.04
  12   1     0.04   0.04   0.01     0.12   0.01   0.03    -0.01   0.06   0.02
  13   6    -0.18  -0.26  -0.16    -0.03   0.17  -0.18     0.01   0.04   0.11
  14   1    -0.09  -0.10  -0.05    -0.07   0.06  -0.04     0.01  -0.00   0.03
  15   1    -0.09  -0.08  -0.03     0.00   0.05  -0.07    -0.01   0.01   0.05
  16   1    -0.01  -0.10  -0.10     0.01   0.05  -0.09     0.00   0.01   0.03
  17   6    -0.19   0.09   0.18     0.03   0.03   0.23    -0.01   0.10   0.06
  18   1    -0.07   0.01   0.05    -0.04  -0.00   0.07    -0.00   0.02   0.01
  19   1    -0.02   0.08   0.08     0.04   0.01   0.10    -0.00   0.03   0.02
  20   1    -0.10   0.02   0.08     0.02   0.01   0.07    -0.01   0.03   0.02
  21   1    -0.06   0.02   0.03    -0.01  -0.04   0.00     0.00   0.01  -0.02
  22   6    -0.01   0.06   0.08     0.14  -0.11   0.05     0.08  -0.02   0.02
  23   8     0.05   0.08   0.30     0.22  -0.11   0.28     0.19  -0.08   0.13
  24   7    -0.04   0.06   0.09     0.10  -0.13  -0.01    -0.01  -0.06   0.06
  25   1    -0.01   0.01   0.03     0.03  -0.03   0.01    -0.01  -0.03   0.00
  26   1    -0.02   0.01  -0.04     0.02  -0.04  -0.06    -0.03  -0.01  -0.03
  27   7    -0.05   0.07  -0.14     0.11  -0.11  -0.14     0.07   0.07  -0.12
  28   1    -0.02   0.02  -0.06     0.02  -0.03  -0.07     0.00   0.03  -0.04
  29   1     0.00   0.03  -0.01     0.04  -0.02  -0.01     0.04   0.03  -0.02
  30   6     0.04  -0.03  -0.00    -0.12   0.04   0.02     0.04  -0.03  -0.02
  31   8     0.05  -0.12  -0.09    -0.19   0.15   0.09     0.15  -0.14  -0.08
  32   7     0.05  -0.00   0.04    -0.09  -0.01  -0.11    -0.03  -0.02   0.10
  33   1     0.01  -0.01  -0.00    -0.02   0.02  -0.02    -0.01  -0.03   0.03
  34   1     0.01   0.01   0.03    -0.01  -0.01  -0.03    -0.03   0.00   0.03
  35   7     0.05   0.03   0.07    -0.12  -0.02   0.05     0.03   0.07  -0.06
  36   1     0.02   0.02   0.03    -0.02  -0.03  -0.01    -0.01   0.04   0.00
  37   1     0.01  -0.01   0.01    -0.03  -0.00   0.02     0.01   0.01  -0.03
  38   6     0.00  -0.03  -0.12    -0.07   0.05  -0.02    -0.03  -0.08   0.03
  39   8    -0.05  -0.03  -0.39    -0.10   0.02  -0.09    -0.02  -0.14   0.13
  40   7    -0.02  -0.03  -0.01    -0.05   0.07   0.01     0.02  -0.08  -0.07
  41   1    -0.02  -0.01  -0.03    -0.02   0.02   0.00     0.02  -0.03  -0.01
  42   1     0.00  -0.01   0.05    -0.01   0.03   0.03     0.00  -0.01  -0.04
  43   7     0.09  -0.03   0.05    -0.09   0.09   0.03    -0.09  -0.05   0.01
  44   1     0.03  -0.02   0.05    -0.02   0.03   0.01    -0.03  -0.00  -0.01
  45   1     0.03  -0.01  -0.03    -0.03   0.01  -0.01    -0.03  -0.01   0.02
  46   6     0.01   0.02   0.08    -0.03  -0.08  -0.09    -0.07  -0.03  -0.06
  47   8    -0.04  -0.10  -0.02     0.02  -0.02  -0.03    -0.08  -0.16  -0.16
  48   7     0.00   0.06   0.06    -0.08  -0.17  -0.18     0.11   0.38   0.23
  49   1    -0.00  -0.01  -0.00    -0.02  -0.02  -0.03     0.03   0.09   0.06
  50   1     0.01   0.05   0.05    -0.03  -0.06  -0.06     0.02   0.11   0.07
  51   7     0.06   0.15   0.20    -0.07  -0.12  -0.11    -0.28  -0.34  -0.32
  52   1     0.03   0.06   0.08    -0.02  -0.03  -0.03    -0.04  -0.02  -0.01
  53   1     0.01   0.03   0.05     0.00  -0.01   0.00    -0.06  -0.08  -0.06
                     16                     17                     18
                        a                      a                      a 
 Frequencies --    99.9907               104.6732               114.6086
 Red. masses --    12.9971                13.5994                13.4204
 Frc consts  --     0.0000                 0.0000                 0.0000
 IR Inten    --     3.8289                 6.3528                35.6366
 Raman Activ --     0.0000                 0.0000                 0.0000
 Depolar     --     0.0000                 0.0000                 0.0000
 Atom AN      X      Y      Z        X      Y      Z        X      Y      Z
   1   8     0.07  -0.06  -0.01     0.04  -0.11   0.10    -0.02  -0.05  -0.09
   2   6    -0.11   0.03   0.14    -0.06  -0.01   0.14    -0.07  -0.05  -0.02
   3   1    -0.02   0.07   0.06    -0.01   0.04   0.05    -0.01  -0.01   0.01
   4   1    -0.09  -0.01   0.06    -0.05  -0.01   0.05    -0.03  -0.02  -0.00
   5   6    -0.09  -0.09   0.06    -0.00  -0.07   0.11    -0.11  -0.09  -0.03
   6   1    -0.03  -0.05   0.02     0.00  -0.03   0.04    -0.04  -0.03  -0.01
   7   1    -0.04  -0.03   0.03     0.00  -0.02   0.03    -0.04  -0.03   0.00
   8   7     0.01  -0.07  -0.07     0.03  -0.07   0.02    -0.13  -0.09  -0.07
   9   6     0.02  -0.16  -0.10     0.11  -0.12  -0.02    -0.23  -0.13  -0.06
  10   1    -0.00  -0.04  -0.02     0.03  -0.04  -0.01    -0.08  -0.04   0.01
  11   1     0.01  -0.04  -0.05     0.03  -0.04  -0.02    -0.06  -0.04  -0.03
  12   1     0.00  -0.06  -0.02     0.04  -0.04   0.01    -0.08  -0.04  -0.03
  13   6     0.04   0.10  -0.08    -0.01   0.01  -0.07    -0.05  -0.07   0.02
  14   1     0.01   0.06  -0.02    -0.02   0.02  -0.01     0.01  -0.01   0.00
  15   1     0.03   0.03  -0.06     0.01   0.00  -0.04    -0.02  -0.02  -0.00
  16   1    -0.00   0.03  -0.00     0.00   0.00  -0.02    -0.02  -0.03   0.03
  17   6     0.06  -0.10  -0.14     0.02  -0.07   0.05    -0.07  -0.07  -0.19
  18   1     0.02  -0.02  -0.04     0.00  -0.03   0.01     0.00  -0.01  -0.06
  19   1     0.01  -0.05  -0.05     0.01  -0.01   0.02    -0.04  -0.03  -0.08
  20   1     0.03  -0.03  -0.05     0.01  -0.02   0.02    -0.02  -0.02  -0.06
  21   1    -0.01  -0.00   0.02    -0.02  -0.02   0.04    -0.01  -0.01  -0.01
  22   6     0.01   0.05   0.06     0.00  -0.01  -0.04     0.06   0.11   0.16
  23   8     0.12  -0.01   0.16    -0.04  -0.01  -0.14     0.13   0.17   0.59
  24   7    -0.08   0.02   0.14     0.03  -0.00  -0.06     0.05   0.10  -0.03
  25   1    -0.03  -0.02   0.00     0.01   0.01   0.00     0.02   0.04   0.03
  26   1    -0.05   0.01  -0.02     0.02  -0.00   0.02     0.01   0.02  -0.09
  27   7     0.01   0.16  -0.09     0.01  -0.04   0.06     0.01   0.05  -0.12
  28   1    -0.02   0.06  -0.02     0.01  -0.01   0.02    -0.00   0.01  -0.09
  29   1     0.03   0.06  -0.01    -0.01  -0.02   0.00     0.01   0.03   0.03
  30   6     0.04  -0.06  -0.02     0.02  -0.08  -0.02    -0.00  -0.00   0.03
  31   8     0.09  -0.19  -0.13     0.08  -0.22  -0.13    -0.00   0.03   0.07
  32   7    -0.01  -0.06   0.05    -0.03   0.02   0.19    -0.01  -0.02   0.02
  33   1    -0.00  -0.04   0.01    -0.01  -0.03   0.03    -0.00  -0.00   0.01
  34   1    -0.01   0.01   0.05    -0.03  -0.00   0.03    -0.01  -0.01  -0.00
  35   7     0.04   0.07   0.04     0.00  -0.05  -0.10    -0.01  -0.04  -0.02
  36   1     0.00   0.03   0.03    -0.01   0.03   0.03    -0.01  -0.01  -0.00
  37   1     0.01  -0.02  -0.02     0.01   0.01  -0.01     0.00   0.02   0.01
  38   6    -0.07   0.18   0.04    -0.04   0.10  -0.10     0.03  -0.00   0.03
  39   8    -0.05   0.34   0.10    -0.07   0.29  -0.34     0.05   0.00   0.09
  40   7    -0.20   0.12   0.06    -0.22   0.03   0.03     0.03  -0.01  -0.01
  41   1    -0.07   0.04   0.01    -0.09   0.02  -0.01     0.01   0.00   0.01
  42   1    -0.06  -0.00  -0.02    -0.06  -0.03   0.05     0.01   0.00  -0.00
  43   7     0.01   0.08  -0.05     0.18  -0.01   0.04     0.02  -0.01  -0.03
  44   1     0.01   0.00   0.01     0.05  -0.05   0.04     0.00  -0.00  -0.01
  45   1     0.03   0.04   0.02     0.09   0.01  -0.03     0.01   0.00   0.01
  46   6     0.02  -0.10  -0.04    -0.01   0.12   0.05     0.10   0.05  -0.05
  47   8    -0.13  -0.38  -0.29     0.10   0.32   0.24     0.17   0.30   0.12
  48   7     0.09   0.02   0.05     0.03   0.19   0.14     0.06  -0.07  -0.09
  49   1     0.01  -0.04  -0.01     0.01   0.04   0.03     0.02   0.01  -0.00
  50   1     0.04   0.05   0.06    -0.01  -0.00  -0.02     0.01  -0.07  -0.08
  51   7     0.14   0.08   0.10    -0.17  -0.16  -0.19     0.04  -0.08  -0.21
  52   1     0.07   0.07   0.08    -0.05  -0.05  -0.06    -0.00  -0.05  -0.09
  53   1     0.02   0.00   0.02    -0.03  -0.02  -0.04     0.03  -0.00  -0.05
                     19                     20                     21
                        a                      a                      a 
 Frequencies --   115.8708               119.2272               133.7019
 Red. masses --    12.2875                12.3514                13.3612
 Frc consts  --     0.0000                 0.0000                 0.0000
 IR Inten    --    14.6431                19.0027                13.2877
 Raman Activ --     0.0000                 0.0000                 0.0000
 Depolar     --     0.0000                 0.0000                 0.0000
 Atom AN      X      Y      Z        X      Y      Z        X      Y      Z
   1   8    -0.07   0.03  -0.02    -0.04   0.02  -0.01     0.03   0.06   0.05
   2   6     0.11  -0.05  -0.16     0.10  -0.07  -0.10     0.05   0.02   0.03
   3   1     0.02  -0.06  -0.08     0.01  -0.05  -0.06     0.01  -0.00   0.00
   4   1     0.08  -0.00  -0.05     0.06  -0.01  -0.03     0.03   0.01   0.01
   5   6     0.17  -0.00  -0.13     0.14  -0.06  -0.10     0.05   0.03   0.03
   6   1     0.05   0.01  -0.03     0.04  -0.01  -0.02     0.01   0.01   0.01
   7   1     0.06   0.00  -0.05     0.05  -0.02  -0.03     0.01   0.01   0.01
   8   7     0.15  -0.01  -0.09     0.13  -0.07  -0.12     0.07   0.03   0.05
   9   6     0.16   0.03  -0.07     0.13  -0.05  -0.11     0.11   0.04   0.04
  10   1     0.05   0.01  -0.03     0.04  -0.01  -0.03     0.03   0.02   0.00
  11   1     0.04   0.01  -0.01     0.04  -0.02  -0.03     0.03   0.01   0.01
  12   1     0.05   0.01  -0.02     0.04  -0.01  -0.03     0.03   0.01   0.02
  13   6     0.11  -0.08  -0.11     0.09  -0.09  -0.14     0.03   0.03   0.00
  14   1     0.03  -0.04  -0.03     0.02  -0.04  -0.04    -0.01  -0.01  -0.00
  15   1     0.02  -0.02  -0.02     0.03  -0.03  -0.03     0.02   0.01   0.01
  16   1     0.04  -0.02  -0.05     0.03  -0.02  -0.05     0.01   0.02  -0.02
  17   6     0.11   0.00  -0.03     0.09  -0.04  -0.09     0.05   0.02   0.10
  18   1     0.02  -0.00  -0.01     0.02  -0.01  -0.02    -0.00   0.01   0.03
  19   1     0.04   0.01   0.00     0.03  -0.01  -0.02     0.02   0.00   0.04
  20   1     0.02   0.00  -0.00     0.02  -0.01  -0.03     0.01   0.01   0.02
  21   1    -0.03   0.01   0.00    -0.03   0.02   0.02     0.00   0.02   0.02
  22   6    -0.06  -0.06   0.03     0.05   0.05  -0.03    -0.20   0.11   0.04
  23   8    -0.03  -0.10   0.05    -0.01   0.13  -0.01    -0.45   0.31   0.12
  24   7    -0.10  -0.08   0.02     0.14   0.08  -0.08     0.05   0.20  -0.03
  25   1    -0.02  -0.02   0.03     0.04   0.03  -0.01     0.02   0.08  -0.02
  26   1    -0.03  -0.02   0.01     0.05   0.01  -0.02     0.05   0.02  -0.02
  27   7    -0.07  -0.04   0.00     0.04  -0.04  -0.02    -0.28  -0.25   0.07
  28   1    -0.02  -0.01  -0.00     0.03  -0.02  -0.01    -0.02  -0.12  -0.00
  29   1    -0.01  -0.01   0.00    -0.01  -0.02   0.01    -0.14  -0.09   0.05
  30   6    -0.05  -0.07  -0.04     0.02   0.01   0.06     0.06  -0.08   0.07
  31   8     0.13  -0.25  -0.13    -0.17   0.11   0.08     0.09  -0.10   0.09
  32   7    -0.21  -0.07   0.19     0.18   0.06  -0.10     0.02  -0.12   0.09
  33   1    -0.05  -0.08   0.05     0.04   0.06  -0.04     0.01  -0.03   0.04
  34   1    -0.10  -0.01   0.04     0.09   0.01  -0.01    -0.00  -0.02   0.03
  35   7    -0.08   0.07  -0.15     0.06  -0.13   0.17     0.05  -0.04   0.07
  36   1    -0.05   0.07   0.01     0.04  -0.06   0.03     0.01  -0.02   0.00
  37   1    -0.01   0.04  -0.04     0.00  -0.05   0.05     0.02  -0.02   0.00
  38   6    -0.06   0.11   0.09    -0.20  -0.05   0.13     0.00   0.04  -0.01
  39   8    -0.06  -0.01   0.29    -0.19   0.08   0.30     0.00   0.02  -0.02
  40   7     0.07   0.19   0.01    -0.35  -0.13   0.02     0.02   0.04  -0.00
  41   1     0.04   0.03  -0.01    -0.10  -0.02   0.03     0.01   0.01   0.00
  42   1     0.01   0.07  -0.06    -0.10  -0.06  -0.02     0.01   0.02   0.01
  43   7    -0.27   0.23  -0.04    -0.17  -0.14   0.06    -0.01   0.05  -0.01
  44   1    -0.07   0.11  -0.02    -0.05  -0.05   0.00    -0.00   0.02   0.00
  45   1    -0.11   0.05   0.04    -0.02  -0.02   0.05    -0.01   0.01  -0.00
  46   6     0.02   0.04   0.07    -0.02   0.09   0.03     0.06  -0.10  -0.18
  47   8    -0.01   0.21   0.17     0.11   0.01   0.03     0.06  -0.13  -0.24
  48   7    -0.01  -0.12   0.07    -0.01   0.26   0.00     0.10  -0.03  -0.14
  49   1    -0.00  -0.03   0.02    -0.00   0.05  -0.02     0.02  -0.01  -0.03
  50   1    -0.00  -0.08  -0.02    -0.02   0.08   0.00     0.03  -0.01  -0.03
  51   7     0.07   0.04   0.02    -0.15   0.01   0.06     0.02  -0.13  -0.22
  52   1     0.01  -0.03  -0.03    -0.05   0.02   0.02    -0.00  -0.03  -0.06
  53   1     0.01   0.01  -0.01    -0.03  -0.00   0.03    -0.01  -0.05  -0.08
                     22                     23                     24
                        a                      a                      a 
 Frequencies --   142.2525               173.7226               182.3429
 Red. masses --    12.9220                12.6915                12.7885
 Frc consts  --     0.0000                 0.0000                 0.0000
 IR Inten    --    10.6132                 2.8094                17.2526
 Raman Activ --     0.0000                 0.0000                 0.0000
 Depolar     --     0.0000                 0.0000                 0.0000
 Atom AN      X      Y      Z        X      Y      Z        X      Y      Z
   1   8    -0.00   0.01  -0.01    -0.00  -0.00   0.00    -0.01   0.00  -0.00
   2   6    -0.02  -0.01   0.01    -0.01   0.02   0.00    -0.01  -0.01   0.00
   3   1    -0.00  -0.00   0.01    -0.00   0.01   0.00    -0.00  -0.01   0.00
   4   1    -0.00  -0.00   0.01    -0.01   0.00  -0.00     0.00  -0.00   0.00
   5   6    -0.05  -0.02   0.01    -0.01   0.01   0.00    -0.02  -0.02  -0.00
   6   1    -0.02  -0.01  -0.00    -0.00   0.00   0.00    -0.01  -0.01  -0.00
   7   1    -0.02  -0.01   0.01     0.00   0.00  -0.00    -0.01  -0.00   0.00
   8   7    -0.05  -0.02  -0.00    -0.00   0.02   0.01    -0.02  -0.02  -0.02
   9   6    -0.08  -0.03  -0.00     0.00   0.02   0.01    -0.02  -0.02  -0.02
  10   1    -0.03  -0.01   0.01     0.00   0.00   0.00    -0.01   0.00  -0.00
  11   1    -0.02  -0.01  -0.00     0.00   0.00   0.00     0.00  -0.00  -0.00
  12   1    -0.03  -0.01  -0.01     0.00   0.00   0.00    -0.01  -0.01  -0.01
  13   6    -0.03  -0.01   0.03     0.00   0.02   0.01    -0.01  -0.01  -0.01
  14   1    -0.00  -0.01   0.01     0.00   0.01   0.00    -0.00  -0.01  -0.00
  15   1    -0.00  -0.00   0.01    -0.00   0.00  -0.00    -0.00  -0.00  -0.00
  16   1    -0.01   0.00   0.01     0.00  -0.00   0.01    -0.01  -0.00  -0.00
  17   6    -0.03  -0.02  -0.04    -0.00   0.01   0.01    -0.01  -0.02  -0.03
  18   1    -0.01   0.00  -0.01    -0.00   0.00   0.00    -0.00  -0.00  -0.01
  19   1    -0.01  -0.01  -0.01     0.00   0.00   0.00    -0.01  -0.01  -0.01
  20   1    -0.01  -0.00  -0.02     0.00   0.00   0.00    -0.00  -0.01  -0.01
  21   1     0.01   0.00  -0.01     0.02  -0.01  -0.02     0.02  -0.01  -0.02
  22   6     0.16   0.06  -0.06    -0.07  -0.06   0.01     0.13   0.01  -0.03
  23   8     0.04   0.20  -0.05     0.07  -0.21  -0.04     0.07   0.09  -0.01
  24   7     0.32   0.12  -0.14    -0.23  -0.12   0.10     0.20   0.05  -0.08
  25   1     0.09   0.05  -0.03    -0.07  -0.05   0.01     0.06   0.02  -0.01
  26   1     0.10   0.02  -0.03    -0.08  -0.02   0.01     0.06   0.01  -0.01
  27   7     0.16  -0.12  -0.01    -0.04   0.18  -0.01     0.13  -0.08  -0.04
  28   1     0.07  -0.06  -0.01    -0.05   0.08   0.02     0.05  -0.03  -0.00
  29   1     0.01  -0.04   0.00     0.03   0.06  -0.02     0.02  -0.03   0.01
  30   6    -0.14  -0.13   0.00     0.10  -0.19   0.15     0.17  -0.00   0.07
  31   8    -0.29  -0.27  -0.20    -0.08  -0.21   0.10     0.41   0.03   0.25
  32   7    -0.03   0.02   0.06     0.23  -0.12   0.12    -0.09  -0.22   0.19
  33   1    -0.02  -0.00  -0.03     0.06  -0.01   0.01    -0.01  -0.11   0.11
  34   1     0.02   0.02   0.06     0.09  -0.03   0.05    -0.10  -0.07  -0.01
  35   7    -0.11  -0.15   0.20     0.12  -0.27   0.31     0.11   0.11  -0.15
  36   1    -0.01  -0.02   0.09     0.04  -0.09   0.06    -0.01   0.03  -0.07
  37   1    -0.04  -0.07   0.05     0.03  -0.08   0.08     0.05   0.05  -0.05
  38   6     0.10   0.11  -0.04     0.04   0.04  -0.01     0.00  -0.00   0.01
  39   8     0.10  -0.04  -0.02     0.04  -0.04  -0.01     0.00   0.03   0.01
  40   7     0.26   0.19  -0.02     0.11   0.07  -0.01    -0.02  -0.01   0.01
  41   1     0.08   0.03  -0.04     0.03   0.01  -0.01     0.00   0.00   0.02
  42   1     0.07   0.07  -0.03     0.03   0.03  -0.00    -0.00  -0.00   0.02
  43   7    -0.05   0.22  -0.06    -0.04   0.10  -0.02     0.02  -0.02  -0.01
  44   1    -0.00   0.10  -0.00    -0.01   0.05  -0.01     0.00  -0.02  -0.01
  45   1    -0.04   0.05   0.00    -0.03   0.02  -0.00     0.01  -0.01  -0.01
  46   6    -0.06  -0.03   0.07    -0.06   0.16  -0.15    -0.24   0.04  -0.05
  47   8     0.03  -0.16   0.05     0.03   0.21  -0.14    -0.13  -0.02  -0.04
  48   7    -0.07   0.11   0.04    -0.10   0.13  -0.29    -0.32  -0.02  -0.22
  49   1    -0.02   0.00  -0.01    -0.04   0.02  -0.09    -0.07  -0.00  -0.08
  50   1    -0.03   0.05   0.02    -0.02   0.04  -0.07    -0.09   0.00  -0.06
  51   7    -0.16  -0.05   0.16    -0.08   0.20  -0.13    -0.29   0.14   0.16
  52   1    -0.05   0.00   0.05    -0.04   0.05  -0.05    -0.11   0.03   0.02
  53   1    -0.03  -0.01   0.07    -0.01   0.05  -0.02    -0.06   0.04   0.08
                     25                     26                     27
                        a                      a                      a 
 Frequencies --   194.8287               219.8914               251.1437
 Red. masses --     8.8179                12.1175                 3.7001
 Frc consts  --     0.0000                 0.0000                 0.0000
 IR Inten    --     4.6241                73.3682               210.2701
 Raman Activ --     0.0000                 0.0000                 0.0000
 Depolar     --     0.0000                 0.0000                 0.0000
 Atom AN      X      Y      Z        X      Y      Z        X      Y      Z
   1   8     0.04  -0.48   0.16    -0.04  -0.03   0.06     0.13   0.05  -0.21
   2   6    -0.11   0.07   0.03    -0.01  -0.00   0.00    -0.03   0.02  -0.01
   3   1    -0.04   0.12  -0.01    -0.00  -0.01  -0.00     0.00   0.03   0.02
   4   1    -0.14   0.00  -0.01    -0.00   0.00  -0.01    -0.02  -0.01   0.02
   5   6     0.32   0.13   0.07     0.00   0.01   0.01    -0.03  -0.03  -0.01
   6   1     0.15   0.07   0.12     0.00   0.01   0.01    -0.01  -0.01   0.00
   7   1     0.17   0.00  -0.06     0.01   0.00  -0.00    -0.01  -0.00  -0.01
   8   7     0.05   0.12  -0.04    -0.01   0.01  -0.01    -0.01  -0.03   0.03
   9   6    -0.15  -0.08  -0.08    -0.01  -0.01  -0.02     0.02   0.03   0.05
  10   1    -0.06  -0.04   0.04    -0.00  -0.00  -0.00    -0.00   0.03   0.01
  11   1    -0.04  -0.02  -0.06    -0.00  -0.00  -0.01     0.02   0.01   0.02
  12   1    -0.07  -0.05  -0.05    -0.00  -0.01  -0.00    -0.00  -0.00   0.01
  13   6     0.05  -0.01   0.01    -0.00   0.02  -0.00    -0.02  -0.03   0.01
  14   1     0.08   0.12   0.02     0.00   0.00  -0.00     0.00   0.03   0.01
  15   1    -0.09  -0.03  -0.10     0.00   0.01   0.00    -0.03  -0.02  -0.03
  16   1     0.05  -0.12   0.09    -0.00   0.01   0.00     0.00  -0.04   0.02
  17   6    -0.04   0.35  -0.13    -0.01   0.02  -0.01     0.01  -0.05   0.04
  18   1     0.11   0.00  -0.10    -0.00   0.01  -0.00     0.02  -0.04  -0.00
  19   1    -0.04   0.26  -0.13    -0.00   0.01  -0.00    -0.01   0.00  -0.01
  20   1    -0.12   0.07   0.11    -0.01   0.01  -0.00    -0.00  -0.02   0.04
  21   1    -0.14  -0.14   0.07     0.13  -0.08  -0.10    -0.42   0.23   0.33
  22   6    -0.01   0.01  -0.01    -0.09   0.02   0.01    -0.02  -0.00  -0.01
  23   8    -0.03   0.02  -0.02    -0.03  -0.05  -0.02    -0.00  -0.02  -0.02
  24   7     0.01   0.02  -0.01    -0.16  -0.02   0.01    -0.03  -0.01   0.00
  25   1     0.00   0.01  -0.00    -0.04  -0.02   0.03    -0.01  -0.01   0.01
  26   1     0.01   0.00   0.00    -0.04   0.00   0.02    -0.01  -0.00   0.01
  27   7    -0.02  -0.02   0.00    -0.07   0.16  -0.02    -0.01   0.05   0.02
  28   1     0.00  -0.01  -0.01    -0.04   0.07   0.03    -0.01   0.02  -0.02
  29   1    -0.01  -0.01  -0.00     0.01   0.06   0.00     0.01   0.01  -0.02
  30   6     0.00   0.00   0.01    -0.06   0.03  -0.03     0.00   0.03   0.02
  31   8     0.01  -0.00   0.00     0.01   0.03   0.01     0.05  -0.01  -0.00
  32   7    -0.00  -0.02  -0.01    -0.14   0.01   0.09    -0.10  -0.14  -0.17
  33   1     0.00   0.01   0.02    -0.05  -0.07  -0.03     0.05   0.17   0.28
  34   1     0.00   0.01   0.02    -0.08  -0.08  -0.10     0.01   0.32   0.45
  35   7     0.00  -0.00   0.00    -0.06   0.07  -0.08    -0.02   0.00  -0.02
  36   1     0.00  -0.00  -0.00    -0.03   0.03  -0.01    -0.01  -0.09  -0.14
  37   1     0.00  -0.00  -0.00    -0.00   0.04  -0.03     0.01  -0.03  -0.05
  38   6    -0.00  -0.02   0.01     0.01   0.00  -0.00     0.01  -0.00  -0.00
  39   8    -0.00  -0.04   0.02     0.00  -0.00  -0.01     0.01  -0.01  -0.00
  40   7     0.02  -0.01  -0.01     0.01   0.00  -0.02     0.02   0.01  -0.00
  41   1     0.01  -0.00   0.00     0.01   0.00   0.01     0.01  -0.00  -0.00
  42   1     0.01   0.01   0.00     0.01   0.01   0.02     0.00   0.00  -0.01
  43   7    -0.03   0.00   0.01     0.00   0.01   0.01     0.01   0.01   0.01
  44   1    -0.01   0.00  -0.02    -0.01  -0.00  -0.02    -0.01  -0.00  -0.03
  45   1    -0.02  -0.01  -0.01    -0.01  -0.00  -0.01    -0.01  -0.01  -0.02
  46   6    -0.01  -0.01  -0.01     0.20  -0.07   0.02     0.05  -0.01   0.01
  47   8    -0.03  -0.02  -0.03     0.53  -0.18   0.09     0.14  -0.01   0.05
  48   7    -0.01  -0.00   0.00     0.12   0.18  -0.35     0.02   0.05  -0.09
  49   1    -0.00   0.00   0.01     0.08   0.06  -0.14     0.02   0.01  -0.04
  50   1     0.00   0.01   0.01    -0.04   0.10  -0.08    -0.02   0.02  -0.03
  51   7    -0.00   0.01   0.01    -0.14  -0.19   0.31    -0.06  -0.05   0.09
  52   1    -0.01  -0.01  -0.01    -0.14  -0.04   0.04    -0.05  -0.01   0.01
  53   1    -0.01  -0.00  -0.01    -0.02  -0.09   0.15    -0.01  -0.02   0.05
                     28                     29                     30
                        a                      a                      a 
 Frequencies --   259.9025               269.9241               273.8084
 Red. masses --     4.6192                 3.9845                 2.5620
 Frc consts  --     0.0000                 0.0000                 0.0000
 IR Inten    --    54.8928                63.0137                96.1228
 Raman Activ --     0.0000                 0.0000                 0.0000
 Depolar     --     0.0000                 0.0000                 0.0000
 Atom AN      X      Y      Z        X      Y      Z        X      Y      Z
   1   8     0.10   0.16  -0.28     0.08  -0.21   0.02     0.06  -0.07  -0.03
   2   6    -0.15   0.13   0.03     0.18  -0.18  -0.08     0.04  -0.03  -0.02
   3   1    -0.03   0.13   0.03     0.04  -0.14  -0.03     0.01  -0.02  -0.01
   4   1    -0.11   0.00   0.08     0.13  -0.02  -0.08     0.02  -0.01  -0.02
   5   6    -0.01  -0.06  -0.05    -0.01   0.05   0.06     0.01   0.02   0.02
   6   1     0.01  -0.03   0.02    -0.02   0.03  -0.02     0.00   0.01  -0.00
   7   1     0.01  -0.01  -0.04    -0.02   0.01   0.04     0.00   0.00   0.01
   8   7     0.03  -0.08   0.01    -0.05   0.06   0.04    -0.02   0.02   0.02
   9   6     0.05   0.08   0.07    -0.06  -0.11  -0.03    -0.02  -0.01   0.01
  10   1    -0.02   0.09   0.02     0.02  -0.11  -0.02     0.00  -0.02  -0.00
  11   1     0.08   0.03   0.05    -0.10  -0.04  -0.04    -0.02  -0.00  -0.00
  12   1    -0.01  -0.01   0.00     0.02   0.01   0.02     0.00   0.00   0.01
  13   6     0.00  -0.20   0.02    -0.03   0.25  -0.01    -0.02   0.06   0.00
  14   1     0.06   0.09   0.04    -0.10  -0.10  -0.03    -0.03  -0.01  -0.00
  15   1    -0.12  -0.09  -0.12     0.15   0.11   0.14     0.02   0.03   0.02
  16   1     0.05  -0.19   0.10    -0.07   0.25  -0.12    -0.02   0.05  -0.02
  17   6     0.03  -0.10   0.07    -0.04   0.10  -0.04    -0.01   0.01  -0.00
  18   1     0.08  -0.13  -0.04    -0.08   0.14   0.05    -0.01   0.02   0.01
  19   1    -0.02   0.08  -0.05     0.02  -0.09   0.06    -0.00  -0.03   0.01
  20   1    -0.04  -0.05   0.15     0.04   0.05  -0.16     0.01   0.01  -0.03
  21   1    -0.28   0.21   0.21    -0.38   0.11   0.31    -0.22   0.08   0.18
  22   6    -0.00   0.00  -0.01     0.00  -0.00   0.00    -0.00  -0.00  -0.00
  23   8    -0.01   0.00  -0.01     0.01  -0.01  -0.00    -0.00  -0.01  -0.01
  24   7     0.00   0.00   0.01    -0.00  -0.01  -0.00    -0.01  -0.00   0.00
  25   1    -0.00   0.00  -0.01    -0.00  -0.00  -0.00    -0.00  -0.00   0.00
  26   1    -0.00  -0.00  -0.01    -0.00  -0.00   0.00    -0.00  -0.00   0.00
  27   7    -0.00   0.00   0.01     0.00   0.01  -0.00    -0.00   0.01   0.01
  28   1    -0.00   0.00  -0.01    -0.00   0.00  -0.00    -0.00   0.00  -0.02
  29   1    -0.00  -0.00  -0.01     0.00   0.00  -0.00     0.00   0.00  -0.02
  30   6    -0.01  -0.01  -0.00    -0.00  -0.01  -0.00     0.00   0.01   0.02
  31   8    -0.03   0.01   0.01    -0.02  -0.00  -0.00    -0.00   0.04   0.05
  32   7     0.04   0.09   0.15     0.02   0.04   0.07     0.01   0.02   0.05
  33   1    -0.04  -0.15  -0.22    -0.02  -0.08  -0.11    -0.02  -0.05  -0.07
  34   1    -0.03  -0.26  -0.36    -0.01  -0.13  -0.18    -0.02  -0.10  -0.14
  35   7     0.01  -0.00  -0.01     0.01   0.00  -0.00     0.01  -0.00  -0.01
  36   1     0.00   0.10   0.15     0.00   0.06   0.09     0.00   0.04   0.05
  37   1    -0.01   0.04   0.05    -0.00   0.01   0.02    -0.00   0.02   0.02
  38   6     0.00   0.00   0.02     0.00   0.00   0.01     0.02  -0.00  -0.00
  39   8     0.01  -0.00   0.03     0.01  -0.00   0.02    -0.00  -0.01  -0.05
  40   7     0.00  -0.01  -0.03    -0.00  -0.01  -0.04     0.03   0.01   0.04
  41   1     0.01   0.01   0.05     0.01   0.02   0.06    -0.01  -0.03  -0.10
  42   1     0.02   0.02   0.09     0.03   0.04   0.14    -0.04  -0.06  -0.25
  43   7     0.01   0.02   0.03     0.04   0.04   0.08    -0.11  -0.11  -0.25
  44   1    -0.04  -0.03  -0.11    -0.08  -0.06  -0.23     0.22   0.17   0.61
  45   1    -0.02  -0.03  -0.08    -0.05  -0.06  -0.16     0.12   0.15   0.41
  46   6     0.00  -0.01  -0.01     0.00  -0.00  -0.01     0.01  -0.00   0.00
  47   8     0.01  -0.02  -0.01    -0.00  -0.01  -0.02     0.03  -0.01   0.01
  48   7     0.00   0.01  -0.02    -0.00   0.00  -0.02    -0.00  -0.00  -0.04
  49   1     0.00   0.01  -0.00     0.00   0.01  -0.00    -0.00  -0.00  -0.01
  50   1     0.00   0.01   0.00    -0.00   0.01   0.00     0.00   0.02   0.01
  51   7    -0.00  -0.00   0.01     0.00   0.01   0.01    -0.01  -0.02   0.00
  52   1    -0.00  -0.00  -0.00    -0.01  -0.00  -0.01     0.00   0.01   0.02
  53   1     0.00   0.00   0.00    -0.01  -0.01  -0.00     0.00  -0.00   0.01
                     31                     32                     33
                        a                      a                      a 
 Frequencies --   287.4227               309.8214               314.6547
 Red. masses --     6.0015                 6.6745                 2.2787
 Frc consts  --     0.0000                 0.0000                 0.0000
 IR Inten    --     0.8891                 5.0210                95.8275
 Raman Activ --     0.0000                 0.0000                 0.0000
 Depolar     --     0.0000                 0.0000                 0.0000
 Atom AN      X      Y      Z        X      Y      Z        X      Y      Z
   1   8    -0.08   0.04  -0.32     0.11  -0.12   0.20     0.01  -0.01   0.04
   2   6    -0.24   0.01  -0.03    -0.08   0.23   0.16    -0.00   0.03   0.02
   3   1    -0.06   0.09  -0.00    -0.02   0.17   0.04    -0.00   0.02   0.00
   4   1    -0.14  -0.02   0.03    -0.13   0.03   0.08    -0.01   0.00   0.01
   5   6     0.07  -0.03  -0.00     0.11   0.01  -0.01     0.02   0.00  -0.00
   6   1     0.05  -0.02   0.06     0.04  -0.02   0.03     0.01  -0.00   0.00
   7   1     0.05   0.02  -0.06     0.05  -0.03  -0.00     0.01  -0.00  -0.00
   8   7     0.12  -0.03   0.09     0.02   0.00  -0.13    -0.00  -0.00  -0.02
   9   6     0.09  -0.21   0.04    -0.15   0.36   0.03    -0.02   0.05  -0.00
  10   1     0.08  -0.15  -0.00     0.04  -0.01  -0.06     0.00   0.00  -0.01
  11   1    -0.07  -0.07  -0.03    -0.25   0.09   0.13    -0.03   0.01   0.02
  12   1     0.07  -0.00   0.05     0.02   0.32  -0.00     0.00   0.04  -0.00
  13   6     0.14  -0.14   0.17    -0.05  -0.28  -0.12    -0.01  -0.03  -0.02
  14   1     0.09   0.01   0.05    -0.07  -0.23  -0.06    -0.01  -0.02  -0.01
  15   1    -0.02  -0.05   0.02     0.01  -0.07   0.12     0.00  -0.01   0.01
  16   1     0.05  -0.10   0.10    -0.01  -0.01  -0.16    -0.01   0.00  -0.02
  17   6    -0.05   0.28   0.05     0.11  -0.15  -0.16     0.01  -0.04  -0.02
  18   1    -0.20   0.39   0.18    -0.07   0.06   0.02    -0.01  -0.00   0.00
  19   1     0.09  -0.17   0.22     0.05  -0.22   0.03     0.00  -0.03   0.00
  20   1     0.03   0.11  -0.36     0.15  -0.02  -0.20     0.02  -0.01  -0.02
  21   1     0.03   0.03  -0.08    -0.06  -0.05   0.06     0.02  -0.02  -0.01
  22   6    -0.00   0.01   0.00    -0.01  -0.00  -0.01     0.01  -0.01   0.03
  23   8    -0.00   0.01   0.01    -0.01   0.00  -0.01     0.03  -0.03   0.03
  24   7     0.01   0.01  -0.01    -0.01  -0.00   0.02    -0.00   0.01  -0.10
  25   1     0.00   0.00   0.01    -0.01  -0.00  -0.02     0.03   0.00   0.11
  26   1     0.01   0.00   0.01    -0.01  -0.00  -0.05     0.07   0.04   0.45
  27   7    -0.00  -0.00   0.00    -0.00  -0.01  -0.03    -0.04   0.03   0.26
  28   1    -0.00  -0.00  -0.01     0.00   0.00   0.08    -0.04  -0.03  -0.71
  29   1    -0.00  -0.00  -0.01    -0.00   0.01   0.05     0.01  -0.06  -0.41
  30   6     0.00   0.00   0.00    -0.00   0.00   0.00     0.00  -0.00  -0.00
  31   8     0.00   0.00   0.00    -0.00   0.00   0.00    -0.00  -0.00  -0.00
  32   7    -0.00  -0.00  -0.00    -0.00  -0.00   0.00    -0.00   0.00   0.01
  33   1     0.00  -0.00   0.00    -0.00  -0.00   0.00    -0.00  -0.01  -0.01
  34   1    -0.00   0.00   0.00    -0.00  -0.00  -0.00    -0.00  -0.01  -0.01
  35   7     0.00  -0.00  -0.00     0.00  -0.00  -0.00     0.00   0.01   0.00
  36   1    -0.00   0.00   0.00     0.00   0.01   0.01    -0.00  -0.00  -0.01
  37   1     0.00   0.00   0.00    -0.00   0.00   0.01     0.00  -0.00  -0.01
  38   6    -0.01   0.01  -0.01    -0.00  -0.01  -0.00    -0.00   0.00   0.00
  39   8    -0.01   0.01  -0.03    -0.00  -0.01  -0.00    -0.00   0.00   0.00
  40   7    -0.02   0.00   0.01     0.01  -0.00   0.00    -0.00  -0.00  -0.00
  41   1    -0.01   0.00  -0.01     0.00  -0.00  -0.00     0.00   0.00   0.00
  42   1    -0.01  -0.01  -0.01     0.00   0.00   0.00     0.00   0.00   0.01
  43   7     0.00   0.00  -0.00    -0.00   0.00   0.01     0.00   0.00   0.00
  44   1     0.01   0.00   0.01    -0.01  -0.00  -0.01    -0.00  -0.00  -0.01
  45   1     0.00   0.00   0.01    -0.01  -0.00  -0.01    -0.00  -0.00  -0.01
  46   6    -0.00  -0.00   0.00     0.01   0.00   0.00    -0.01  -0.01  -0.02
  47   8     0.00   0.00   0.01     0.01   0.00   0.01    -0.01  -0.02  -0.02
  48   7    -0.01   0.00  -0.01    -0.00  -0.00  -0.01    -0.00   0.02  -0.02
  49   1    -0.00   0.00  -0.00     0.00  -0.00  -0.00     0.00   0.01  -0.01
  50   1    -0.00   0.01   0.01    -0.00  -0.00  -0.01    -0.00   0.02   0.01
  51   7     0.01   0.02   0.02    -0.01  -0.01  -0.00     0.01   0.02   0.00
  52   1    -0.01  -0.01  -0.01     0.01   0.03   0.03    -0.01  -0.01  -0.01
  53   1    -0.01  -0.02  -0.01     0.00   0.00   0.01    -0.01  -0.02  -0.02
                     34                     35                     36
                        a                      a                      a 
 Frequencies --   332.3113               354.5448               369.4495
 Red. masses --     3.1843                 2.6642                 2.8801
 Frc consts  --     0.0000                 0.0000                 0.0000
 IR Inten    --     2.1160                47.7934                 2.3407
 Raman Activ --     0.0000                 0.0000                 0.0000
 Depolar     --     0.0000                 0.0000                 0.0000
 Atom AN      X      Y      Z        X      Y      Z        X      Y      Z
   1   8     0.01  -0.11   0.20     0.01   0.02   0.02    -0.03   0.07  -0.05
   2   6     0.20  -0.05  -0.07     0.02   0.05  -0.02     0.01   0.03  -0.07
   3   1     0.04  -0.07  -0.04     0.00   0.03  -0.01    -0.00   0.04  -0.04
   4   1     0.11   0.01  -0.06    -0.00   0.01   0.00    -0.00   0.00   0.00
   5   6    -0.01   0.05  -0.03     0.05   0.02  -0.03     0.08  -0.01  -0.07
   6   1    -0.03   0.03  -0.06     0.02   0.02  -0.00     0.03   0.02  -0.02
   7   1    -0.02   0.00   0.03     0.03  -0.00  -0.03     0.04  -0.02  -0.02
   8   7    -0.06   0.05  -0.02    -0.01  -0.00   0.00     0.01  -0.04  -0.01
   9   6    -0.08   0.12   0.00    -0.07  -0.01   0.01    -0.10  -0.14  -0.02
  10   1    -0.07   0.10   0.03     0.01  -0.06  -0.00     0.20  -0.41  -0.12
  11   1     0.06   0.04   0.01    -0.08  -0.01   0.01    -0.51  -0.08   0.03
  12   1    -0.06  -0.02  -0.03    -0.01   0.04  -0.00     0.16   0.34   0.08
  13   6    -0.08   0.11  -0.06    -0.00   0.05  -0.01     0.07   0.21  -0.01
  14   1     0.11   0.42   0.06     0.00   0.05   0.01     0.06   0.20   0.03
  15   1    -0.26  -0.03  -0.37    -0.00   0.01  -0.03     0.00   0.05  -0.14
  16   1     0.06  -0.28   0.23     0.00   0.00   0.01     0.01   0.00   0.10
  17   6     0.03  -0.16  -0.00     0.01  -0.10   0.08    -0.01  -0.15   0.18
  18   1    -0.15   0.10   0.10    -0.02  -0.05   0.02     0.01  -0.16   0.00
  19   1     0.05  -0.29   0.12     0.01  -0.04   0.03     0.00   0.06   0.03
  20   1     0.16  -0.01  -0.22     0.03  -0.03   0.03    -0.03  -0.06   0.19
  21   1    -0.05  -0.04   0.05    -0.00  -0.00  -0.00     0.02   0.01  -0.03
  22   6    -0.01   0.00  -0.01     0.03   0.01   0.05    -0.00   0.01   0.00
  23   8    -0.01   0.00  -0.01     0.02   0.00   0.03    -0.00   0.01   0.01
  24   7     0.01   0.01   0.01     0.01  -0.01  -0.06     0.01   0.01  -0.00
  25   1    -0.00   0.00  -0.01     0.01   0.00   0.04     0.00   0.01  -0.00
  26   1    -0.00  -0.00  -0.03     0.02   0.01   0.13     0.01   0.00  -0.00
  27   7    -0.00  -0.00   0.01     0.02   0.01  -0.10    -0.01  -0.00   0.00
  28   1    -0.00  -0.00  -0.00     0.00   0.01   0.09     0.00  -0.00  -0.01
  29   1    -0.00  -0.00   0.00     0.01   0.02   0.05    -0.00  -0.00   0.00
  30   6     0.00   0.00   0.00    -0.00  -0.01  -0.01     0.00   0.00  -0.00
  31   8     0.00   0.00   0.00    -0.00  -0.02  -0.01     0.00   0.00   0.00
  32   7    -0.00   0.00   0.00     0.01   0.01  -0.00    -0.00  -0.00   0.00
  33   1    -0.00  -0.00  -0.00     0.00   0.01  -0.00    -0.00  -0.00   0.00
  34   1    -0.00  -0.01  -0.01     0.01   0.01   0.01    -0.00  -0.00  -0.00
  35   7     0.00   0.00  -0.00    -0.00  -0.00   0.00     0.00   0.00   0.00
  36   1     0.00   0.00   0.01    -0.00  -0.00  -0.00     0.00  -0.00  -0.01
  37   1    -0.00  -0.00  -0.00    -0.00   0.00   0.00     0.00  -0.00  -0.00
  38   6     0.00   0.00  -0.00    -0.01   0.00  -0.00    -0.00  -0.01  -0.00
  39   8     0.00   0.01  -0.00    -0.01   0.00  -0.02    -0.00  -0.01  -0.00
  40   7    -0.00   0.00   0.00    -0.01  -0.00   0.00     0.01  -0.00   0.00
  41   1    -0.00   0.00   0.00    -0.00  -0.00   0.00     0.00  -0.00  -0.00
  42   1     0.00   0.00   0.01    -0.00  -0.00   0.00     0.00  -0.00  -0.01
  43   7     0.01   0.00   0.01    -0.01  -0.01  -0.00    -0.01  -0.00   0.01
  44   1    -0.01  -0.00  -0.02     0.01   0.00   0.02    -0.00   0.00  -0.00
  45   1    -0.00  -0.00  -0.00    -0.00   0.00   0.01    -0.01  -0.00  -0.00
  46   6     0.00   0.00   0.00    -0.04  -0.06  -0.04     0.01   0.01   0.02
  47   8     0.00  -0.00  -0.00    -0.07  -0.01  -0.02     0.01   0.01   0.01
  48   7     0.00  -0.00   0.01     0.02   0.01  -0.02    -0.02  -0.01  -0.01
  49   1     0.00  -0.00  -0.00    -0.01   0.04   0.04     0.00  -0.00  -0.01
  50   1    -0.00  -0.02  -0.02     0.07   0.21   0.22    -0.02  -0.03  -0.04
  51   7    -0.01  -0.01  -0.02     0.14   0.13   0.17    -0.02  -0.01  -0.02
  52   1     0.02   0.03   0.03    -0.31  -0.51  -0.54     0.06   0.11   0.12
  53   1     0.01   0.02   0.02    -0.12  -0.11  -0.17    -0.01  -0.02   0.00
                     37                     38                     39
                        a                      a                      a 
 Frequencies --   378.5641               398.0137               414.8653
 Red. masses --     6.2639                 3.2902                 7.2411
 Frc consts  --     0.0000                 0.0000                 0.0000
 IR Inten    --     0.4323               220.0288                67.8748
 Raman Activ --     0.0000                 0.0000                 0.0000
 Depolar     --     0.0000                 0.0000                 0.0000
 Atom AN      X      Y      Z        X      Y      Z        X      Y      Z
   1   8    -0.01  -0.08   0.07     0.00   0.01   0.03    -0.07   0.06  -0.19
   2   6     0.03  -0.18   0.09     0.00   0.04  -0.01    -0.05  -0.16  -0.00
   3   1     0.02  -0.15   0.06    -0.00   0.02  -0.01    -0.02  -0.05  -0.00
   4   1     0.08  -0.02  -0.04    -0.01   0.01   0.00     0.01  -0.04  -0.00
   5   6    -0.35  -0.02   0.12     0.01   0.00  -0.03     0.10  -0.01   0.12
   6   1    -0.17  -0.08  -0.07     0.00  -0.00  -0.01     0.06   0.02   0.09
   7   1    -0.20   0.05   0.12     0.00  -0.00  -0.00     0.07   0.02  -0.04
   8   7     0.00   0.06   0.02     0.00  -0.00  -0.03     0.10   0.00   0.26
   9   6     0.31   0.14  -0.01    -0.01  -0.01  -0.03    -0.10  -0.03   0.29
  10   1     0.22  -0.09  -0.16    -0.01   0.00  -0.00    -0.03  -0.02   0.11
  11   1    -0.11   0.02   0.05     0.01  -0.00  -0.01    -0.05  -0.01   0.09
  12   1     0.22   0.22   0.10    -0.01  -0.01  -0.01    -0.05   0.01   0.04
  13   6    -0.03  -0.16   0.04     0.04  -0.00   0.02    -0.24   0.07  -0.23
  14   1     0.06   0.03   0.02     0.03  -0.01   0.00    -0.22   0.07  -0.03
  15   1    -0.15  -0.08  -0.04     0.02   0.00   0.02    -0.08   0.01  -0.15
  16   1     0.05  -0.17   0.07     0.00   0.01   0.02     0.00  -0.02  -0.17
  17   6     0.03   0.25  -0.27    -0.03  -0.02   0.04     0.27   0.05  -0.13
  18   1     0.14   0.07  -0.11    -0.03  -0.01   0.02     0.17   0.05  -0.05
  19   1    -0.04   0.14  -0.16     0.00  -0.01   0.03     0.00  -0.02  -0.12
  20   1    -0.07   0.06  -0.04    -0.01  -0.00   0.01     0.09   0.02  -0.06
  21   1    -0.01  -0.00   0.04     0.01  -0.02  -0.01     0.06   0.04  -0.04
  22   6    -0.00  -0.00   0.00    -0.00  -0.00  -0.01     0.01   0.01   0.07
  23   8    -0.00   0.00   0.00    -0.00  -0.00  -0.01     0.01   0.00   0.03
  24   7     0.01   0.00  -0.00     0.00  -0.00   0.02    -0.03  -0.01  -0.13
  25   1     0.00   0.00   0.00    -0.00   0.00  -0.01     0.00  -0.01   0.04
  26   1     0.01  -0.00   0.01    -0.01  -0.00  -0.05     0.05   0.03   0.37
  27   7    -0.00   0.01  -0.00     0.00   0.00   0.02    -0.01  -0.01  -0.13
  28   1    -0.00   0.00   0.00    -0.00   0.00  -0.01     0.02   0.00   0.19
  29   1     0.01   0.01   0.01     0.00  -0.00  -0.01    -0.02   0.00   0.05
  30   6    -0.00  -0.00  -0.00    -0.01  -0.02  -0.04    -0.01  -0.02  -0.02
  31   8    -0.00  -0.00  -0.00     0.01  -0.03  -0.03     0.00  -0.02  -0.01
  32   7     0.00   0.00   0.00     0.01   0.04   0.00     0.01   0.03   0.02
  33   1    -0.00  -0.00  -0.00    -0.00  -0.02  -0.04    -0.00  -0.01  -0.02
  34   1     0.00   0.00   0.00     0.01   0.05   0.05     0.00  -0.01  -0.02
  35   7    -0.00   0.00   0.00    -0.01   0.03   0.04    -0.01   0.03   0.05
  36   1    -0.00  -0.01  -0.01    -0.01  -0.08  -0.13    -0.01  -0.10  -0.14
  37   1    -0.00  -0.00  -0.00     0.01  -0.00  -0.01     0.01  -0.00  -0.01
  38   6     0.00   0.00   0.02     0.02   0.04   0.15     0.00  -0.00   0.01
  39   8    -0.00  -0.00   0.00    -0.01   0.03   0.05    -0.00   0.00   0.00
  40   7     0.01  -0.00  -0.02    -0.02  -0.05  -0.26     0.00  -0.01  -0.02
  41   1     0.01   0.00   0.01     0.02   0.03   0.09     0.00   0.00   0.00
  42   1     0.01   0.02   0.05     0.15   0.20   0.80     0.01   0.02   0.07
  43   7    -0.01  -0.01  -0.02    -0.07  -0.09  -0.22    -0.01  -0.01  -0.02
  44   1     0.01   0.00   0.03     0.08   0.03   0.21     0.01   0.01   0.03
  45   1     0.00   0.00  -0.00     0.05   0.04   0.10     0.00   0.00   0.01
  46   6    -0.00  -0.01  -0.00     0.00  -0.00   0.01    -0.01   0.00   0.00
  47   8    -0.01  -0.00  -0.00    -0.02   0.01   0.02     0.00  -0.00   0.00
  48   7    -0.00  -0.01  -0.02    -0.01  -0.01  -0.01    -0.01   0.00   0.01
  49   1    -0.00   0.01   0.00     0.01   0.00  -0.01     0.01   0.01  -0.00
  50   1     0.01   0.04   0.04     0.01   0.02   0.02    -0.02  -0.03  -0.03
  51   7     0.02   0.01   0.02     0.00  -0.01  -0.01     0.01  -0.00  -0.03
  52   1    -0.04  -0.07  -0.07     0.02   0.01   0.01     0.05   0.06   0.06
  53   1    -0.02  -0.02  -0.03     0.00   0.01   0.00    -0.01  -0.02  -0.02
                     40                     41                     42
                        a                      a                      a 
 Frequencies --   418.2165               437.4845               455.4082
 Red. masses --     4.8169                 3.0752                 8.0420
 Frc consts  --     0.0000                 0.0000                 0.0000
 IR Inten    --   119.0584               372.8966                23.1348
 Raman Activ --     0.0000                 0.0000                 0.0000
 Depolar     --     0.0000                 0.0000                 0.0000
 Atom AN      X      Y      Z        X      Y      Z        X      Y      Z
   1   8    -0.06   0.05  -0.11    -0.01   0.00   0.01    -0.01   0.02  -0.03
   2   6    -0.03  -0.10  -0.01     0.00   0.02  -0.01    -0.02  -0.24   0.13
   3   1    -0.01  -0.04  -0.01     0.00  -0.00  -0.00    -0.01  -0.03   0.03
   4   1     0.00  -0.02  -0.00     0.00   0.01  -0.01    -0.01  -0.08   0.10
   5   6     0.08  -0.01   0.07    -0.01   0.03  -0.00     0.08  -0.35   0.01
   6   1     0.04   0.02   0.05    -0.01   0.01  -0.01     0.05  -0.09   0.04
   7   1     0.05   0.01  -0.02    -0.00   0.01  -0.00     0.05  -0.10  -0.02
   8   7     0.06  -0.00   0.16     0.00   0.02   0.03     0.06  -0.27  -0.12
   9   6    -0.06  -0.03   0.17     0.01  -0.03   0.01    -0.07   0.31   0.10
  10   1    -0.01  -0.04   0.06     0.00  -0.02   0.01    -0.05   0.17   0.00
  11   1    -0.06  -0.01   0.05     0.00  -0.01  -0.01     0.01   0.09   0.19
  12   1    -0.03   0.02   0.03     0.00  -0.02   0.01    -0.05   0.16  -0.05
  13   6    -0.14   0.05  -0.15    -0.03  -0.02   0.01     0.20   0.21  -0.13
  14   1    -0.14   0.04  -0.02    -0.01  -0.01   0.00     0.05   0.14  -0.02
  15   1    -0.04   0.01  -0.09    -0.02  -0.01   0.00     0.16   0.08  -0.12
  16   1    -0.00   0.00  -0.11     0.00  -0.01  -0.01    -0.01   0.11   0.03
  17   6     0.16   0.03  -0.07     0.03  -0.01  -0.00    -0.23   0.14  -0.02
  18   1     0.10   0.02  -0.03     0.02  -0.01  -0.00    -0.07   0.10   0.02
  19   1     0.00  -0.01  -0.07    -0.00  -0.01  -0.01    -0.01   0.12   0.04
  20   1     0.06   0.01  -0.03     0.02  -0.00   0.00    -0.19   0.02  -0.04
  21   1     0.07   0.01  -0.06     0.04  -0.02  -0.03     0.06   0.05   0.02
  22   6    -0.02  -0.03  -0.12    -0.00  -0.00   0.04     0.02   0.05   0.00
  23   8    -0.03  -0.01  -0.06    -0.00  -0.01   0.02     0.06   0.02  -0.00
  24   7     0.06   0.01   0.21    -0.00  -0.01  -0.07    -0.08   0.01  -0.00
  25   1    -0.00   0.02  -0.06     0.00  -0.00   0.00    -0.03  -0.03   0.01
  26   1    -0.07  -0.06  -0.62     0.03   0.01   0.22    -0.04   0.02   0.03
  27   7     0.01   0.04   0.22    -0.01   0.01  -0.07     0.01  -0.06   0.00
  28   1    -0.03   0.01  -0.31    -0.00   0.01   0.10     0.05  -0.05   0.04
  29   1     0.03  -0.00  -0.09     0.00   0.01   0.02    -0.06  -0.05  -0.03
  30   6     0.00   0.02   0.02    -0.00   0.05   0.11     0.00   0.01   0.01
  31   8    -0.00   0.02   0.01    -0.04   0.04   0.07    -0.01   0.01   0.00
  32   7    -0.01  -0.04  -0.03     0.01  -0.14  -0.14    -0.00  -0.02  -0.01
  33   1     0.00   0.00   0.02     0.03   0.09   0.09     0.00  -0.00   0.01
  34   1    -0.00   0.03   0.04     0.04   0.07   0.13    -0.00   0.02   0.02
  35   7     0.01  -0.04  -0.06     0.02  -0.12  -0.24     0.01  -0.02  -0.02
  36   1     0.01   0.11   0.16     0.03   0.47   0.68     0.01   0.05   0.08
  37   1    -0.01  -0.00   0.02    -0.04  -0.02   0.01    -0.01  -0.01   0.00
  38   6     0.00   0.00   0.01     0.01  -0.00   0.01    -0.04   0.02   0.02
  39   8     0.00   0.00   0.00     0.01   0.01  -0.00    -0.04  -0.01   0.03
  40   7    -0.00  -0.01  -0.01     0.00  -0.01  -0.04     0.04   0.04  -0.04
  41   1    -0.00  -0.00   0.00    -0.01  -0.00  -0.02     0.04  -0.00   0.00
  42   1     0.01   0.01   0.04     0.03   0.04   0.16     0.01   0.04  -0.02
  43   7    -0.01  -0.00  -0.01    -0.02  -0.01  -0.04     0.03  -0.04   0.00
  44   1     0.00   0.00   0.01     0.01   0.01   0.02     0.03  -0.05   0.10
  45   1    -0.00   0.00   0.01     0.00   0.01   0.04     0.04  -0.03  -0.12
  46   6     0.01  -0.00   0.01    -0.00  -0.01  -0.04     0.00   0.00   0.01
  47   8    -0.01   0.01   0.01     0.01  -0.02  -0.03    -0.00   0.02   0.02
  48   7    -0.00  -0.02  -0.03     0.01   0.04   0.02    -0.01  -0.01  -0.04
  49   1    -0.01  -0.01   0.00    -0.00  -0.02  -0.01    -0.01  -0.01  -0.01
  50   1     0.03   0.08   0.09    -0.02  -0.07  -0.09     0.02   0.07   0.07
  51   7    -0.01  -0.00   0.03    -0.01   0.02   0.01     0.00  -0.02  -0.02
  52   1    -0.06  -0.10  -0.10    -0.00   0.03   0.02     0.01  -0.01  -0.00
  53   1     0.01   0.03   0.02    -0.01  -0.02  -0.01     0.02   0.02   0.01
                     43                     44                     45
                        a                      a                      a 
 Frequencies --   457.4468               463.5080               468.3003
 Red. masses --     1.9752                 6.0870                 6.5416
 Frc consts  --     0.0000                 0.0000                 0.0000
 IR Inten    --    15.7709                25.5191                43.6180
 Raman Activ --     0.0000                 0.0000                 0.0000
 Depolar     --     0.0000                 0.0000                 0.0000
 Atom AN      X      Y      Z        X      Y      Z        X      Y      Z
   1   8    -0.00   0.00  -0.01     0.00  -0.00   0.00     0.00  -0.01   0.02
   2   6    -0.01  -0.04   0.02    -0.01  -0.05   0.04     0.00   0.00   0.01
   3   1    -0.00  -0.00   0.01     0.00  -0.01   0.01     0.01  -0.02   0.01
   4   1    -0.00  -0.01   0.02    -0.00  -0.02   0.02     0.01   0.01  -0.01
   5   6     0.02  -0.05   0.01    -0.02  -0.08  -0.00    -0.11   0.01  -0.00
   6   1     0.02  -0.01   0.02    -0.02  -0.04  -0.02    -0.07  -0.05  -0.06
   7   1     0.02  -0.02  -0.01    -0.03  -0.01   0.02    -0.09   0.04   0.05
   8   7    -0.01  -0.04  -0.01     0.07  -0.05  -0.03     0.15   0.04  -0.03
   9   6     0.01   0.05   0.02    -0.06   0.07   0.03    -0.13  -0.03  -0.02
  10   1     0.00   0.03  -0.01    -0.03   0.03   0.03    -0.06  -0.02   0.07
  11   1     0.01   0.02   0.03    -0.02   0.02   0.04    -0.04  -0.01  -0.02
  12   1     0.00   0.03   0.00    -0.04   0.04  -0.03    -0.08  -0.02  -0.06
  13   6     0.02   0.04  -0.00     0.08   0.03  -0.08     0.08  -0.06  -0.11
  14   1     0.01   0.02   0.00     0.01   0.02  -0.02     0.00  -0.03  -0.03
  15   1     0.02   0.01  -0.01     0.03   0.01  -0.04    -0.00  -0.02  -0.02
  16   1    -0.01   0.02   0.01     0.02   0.01  -0.02     0.05  -0.03  -0.06
  17   6    -0.05   0.02  -0.02    -0.02   0.07   0.04     0.07   0.07   0.13
  18   1    -0.00   0.01  -0.01    -0.02   0.03   0.02    -0.02   0.01   0.04
  19   1    -0.01   0.02  -0.01     0.01   0.05   0.03     0.05   0.04   0.06
  20   1    -0.03   0.00  -0.01    -0.05   0.01   0.01    -0.00   0.02   0.05
  21   1     0.01   0.01   0.01     0.00   0.01   0.01    -0.01  -0.00   0.01
  22   6     0.01   0.03  -0.00    -0.06  -0.15   0.01    -0.03  -0.10  -0.00
  23   8     0.04   0.01  -0.00    -0.21  -0.05   0.00    -0.13  -0.02  -0.01
  24   7    -0.05   0.01  -0.00     0.23  -0.06   0.01     0.13  -0.04   0.00
  25   1    -0.01  -0.01   0.01     0.07   0.06  -0.04     0.04   0.03  -0.04
  26   1    -0.02   0.01   0.00     0.12  -0.07   0.01     0.08  -0.03   0.10
  27   7     0.00  -0.04   0.01    -0.01   0.17  -0.05    -0.00   0.08  -0.06
  28   1     0.03  -0.03   0.03    -0.17   0.17  -0.17    -0.11   0.11  -0.14
  29   1    -0.04  -0.03  -0.03     0.20   0.18   0.24     0.15   0.14   0.28
  30   6     0.01   0.01  -0.00    -0.06  -0.07   0.05     0.09   0.11  -0.08
  31   8    -0.00   0.02  -0.00     0.03  -0.11   0.07    -0.05   0.17  -0.11
  32   7    -0.02  -0.01   0.01     0.11   0.04  -0.04    -0.16  -0.04   0.07
  33   1     0.00   0.01   0.03     0.03   0.16  -0.01    -0.05  -0.29  -0.03
  34   1    -0.01  -0.02  -0.02     0.13  -0.07  -0.06    -0.20   0.11   0.09
  35   7     0.01  -0.00   0.01    -0.10   0.10  -0.03     0.16  -0.16   0.06
  36   1     0.01  -0.01  -0.01    -0.08  -0.00  -0.08     0.12  -0.04   0.07
  37   1    -0.00  -0.00   0.00     0.01   0.04  -0.05    -0.02  -0.07   0.08
  38   6     0.02  -0.06  -0.06    -0.04  -0.01  -0.02    -0.10   0.03   0.02
  39   8     0.03   0.06  -0.11    -0.03   0.01  -0.02    -0.12  -0.02   0.03
  40   7     0.02  -0.04   0.14     0.05   0.03   0.01     0.08   0.13  -0.02
  41   1    -0.03  -0.04  -0.10     0.03  -0.01  -0.02     0.08  -0.01  -0.03
  42   1     0.02   0.00   0.10     0.02   0.04   0.01     0.02   0.10  -0.05
  43   7    -0.03  -0.03  -0.04     0.01  -0.05  -0.00     0.09  -0.12   0.01
  44   1    -0.17   0.03  -0.52    -0.02  -0.02  -0.06    -0.00  -0.13  -0.04
  45   1     0.01   0.18   0.73     0.03   0.03   0.12     0.12   0.02   0.03
  46   6    -0.00  -0.00   0.02     0.01   0.02  -0.12    -0.02  -0.01   0.07
  47   8     0.00   0.01   0.03     0.04  -0.01  -0.13    -0.01  -0.01   0.07
  48   7    -0.02  -0.00  -0.04     0.09  -0.02   0.20    -0.06  -0.00  -0.09
  49   1    -0.02  -0.02  -0.02     0.02   0.04   0.09    -0.02  -0.02  -0.03
  50   1     0.02   0.08   0.08    -0.05  -0.33  -0.28     0.03   0.17   0.16
  51   7     0.01  -0.02  -0.02    -0.10   0.08   0.12     0.06  -0.04  -0.09
  52   1     0.03   0.00   0.01    -0.15  -0.04  -0.08     0.11   0.03   0.05
  53   1     0.01   0.01  -0.01    -0.03  -0.04   0.06     0.01   0.03  -0.06
                     46                     47                     48
                        a                      a                      a 
 Frequencies --   473.5212               475.5530               479.3052
 Red. masses --     5.0192                 3.9277                 6.6330
 Frc consts  --     0.0000                 0.0000                 0.0000
 IR Inten    --    67.0677               108.6060                 2.2737
 Raman Activ --     0.0000                 0.0000                 0.0000
 Depolar     --     0.0000                 0.0000                 0.0000
 Atom AN      X      Y      Z        X      Y      Z        X      Y      Z
   1   8    -0.00  -0.01   0.02     0.00   0.01  -0.01    -0.00  -0.01   0.02
   2   6     0.00   0.01  -0.00     0.00  -0.01  -0.01    -0.00  -0.03   0.03
   3   1     0.01  -0.02   0.01    -0.00   0.02  -0.01     0.00  -0.01   0.02
   4   1     0.01   0.01  -0.02    -0.01  -0.01   0.01     0.00  -0.01   0.01
   5   6    -0.10   0.03  -0.00     0.11  -0.02  -0.00    -0.09  -0.04  -0.01
   6   1    -0.07  -0.04  -0.06     0.07   0.05   0.05    -0.06  -0.06  -0.06
   7   1    -0.08   0.04   0.05     0.09  -0.04  -0.06    -0.09   0.03   0.05
   8   7     0.12   0.06  -0.02    -0.14  -0.06   0.03     0.13   0.00  -0.04
   9   6    -0.10  -0.05  -0.02     0.13   0.05   0.03    -0.12   0.01  -0.00
  10   1    -0.04  -0.04   0.05     0.06   0.03  -0.06    -0.06   0.00   0.06
  11   1    -0.05  -0.02  -0.03     0.05   0.01   0.03    -0.04   0.00   0.01
  12   1    -0.06  -0.02  -0.04     0.07   0.02   0.06    -0.07   0.01  -0.05
  13   6     0.05  -0.07  -0.09    -0.07   0.07   0.10     0.10  -0.03  -0.11
  14   1    -0.00  -0.03  -0.02    -0.00   0.03   0.03     0.01  -0.00  -0.03
  15   1    -0.02  -0.03  -0.02     0.01   0.03   0.02     0.02  -0.01  -0.04
  16   1     0.04  -0.04  -0.05    -0.04   0.04   0.05     0.04  -0.02  -0.04
  17   6     0.08   0.05   0.10    -0.08  -0.06  -0.13     0.03   0.08   0.11
  18   1    -0.00  -0.00   0.03     0.01   0.00  -0.04    -0.02   0.02   0.04
  19   1     0.04   0.03   0.05    -0.05  -0.03  -0.06     0.04   0.05   0.06
  20   1     0.01   0.01   0.04    -0.01  -0.01  -0.05    -0.03   0.02   0.04
  21   1    -0.02  -0.00   0.01     0.01   0.00  -0.01    -0.00   0.00   0.01
  22   6    -0.01   0.02   0.03     0.01   0.01   0.01    -0.07  -0.11   0.05
  23   8     0.06  -0.04   0.05     0.01  -0.00   0.00    -0.12  -0.08   0.07
  24   7    -0.01   0.02  -0.07    -0.01  -0.01   0.00     0.18  -0.02  -0.09
  25   1     0.02   0.03   0.04    -0.00  -0.00   0.01     0.08   0.08   0.00
  26   1    -0.00  -0.02  -0.13    -0.01  -0.00  -0.04     0.12  -0.07  -0.04
  27   7    -0.02   0.06   0.07    -0.00   0.00   0.01    -0.04   0.19   0.02
  28   1     0.09  -0.05   0.29     0.01  -0.00   0.01    -0.04   0.09   0.22
  29   1    -0.13  -0.14  -0.53    -0.01  -0.01  -0.05     0.03  -0.00  -0.37
  30   6    -0.01  -0.00  -0.00     0.07   0.08  -0.01     0.01   0.01   0.03
  31   8     0.00  -0.01  -0.00    -0.07   0.14  -0.03    -0.02   0.02   0.03
  32   7    -0.01   0.00   0.00    -0.05   0.00   0.07     0.04   0.01   0.01
  33   1     0.00   0.03   0.02    -0.08  -0.47  -0.30    -0.03  -0.19  -0.19
  34   1     0.00  -0.02  -0.03    -0.15   0.22   0.24    -0.01   0.10   0.13
  35   7    -0.01  -0.01   0.03     0.10  -0.14  -0.01     0.00  -0.00  -0.07
  36   1     0.00  -0.01  -0.01     0.06  -0.06  -0.01    -0.02   0.01  -0.02
[...]
  44   1     0.00  -0.00   0.00    -0.00   0.00   0.00    -0.01   0.00   0.00
  45   1     0.00   0.00   0.00     0.00  -0.00   0.00     0.01  -0.01   0.00
  46   6    -0.01   0.01  -0.00     0.01  -0.01   0.00     0.00  -0.00   0.00
  47   8    -0.00   0.00  -0.00     0.00   0.00  -0.00    -0.00   0.00  -0.00
  48   7    -0.16   0.11  -0.11    -0.02   0.01  -0.01    -0.02   0.01  -0.01
  49   1     0.57  -0.46   0.48     0.05  -0.04   0.05     0.06  -0.05   0.05
  50   1     0.03   0.06  -0.07     0.00   0.00  -0.01     0.00   0.01  -0.01
  51   7    -0.02   0.01   0.01     0.19  -0.09  -0.07     0.00  -0.00  -0.00
  52   1    -0.01  -0.01   0.02     0.08   0.10  -0.14     0.00   0.00  -0.00
  53   1     0.10  -0.03  -0.05    -0.81   0.26   0.40    -0.01   0.00   0.01
                    142                    143                    144
                        a                      a                      a 
 Frequencies --  3494.7852              3498.5993              3499.6921
 Red. masses --     1.4532                 1.4500                 1.4547
 Frc consts  --     0.0000                 0.0000                 0.0000
 IR Inten    --    18.1061                16.5921                13.6891
 Raman Activ --     0.0000                 0.0000                 0.0000
 Depolar     --     0.0000                 0.0000                 0.0000
 Atom AN      X      Y      Z        X      Y      Z        X      Y      Z
   1   8    -0.00  -0.00   0.00    -0.00   0.00   0.00    -0.00   0.00  -0.00
   2   6     0.00  -0.00   0.00     0.00  -0.00  -0.00     0.00   0.00  -0.00
   3   1     0.00   0.00   0.00    -0.00   0.00   0.00    -0.00  -0.00   0.00
   4   1     0.00   0.00   0.00     0.00  -0.00  -0.00    -0.00   0.00   0.00
   5   6    -0.00  -0.00  -0.00    -0.00  -0.00  -0.00    -0.00   0.00   0.00
   6   1     0.00  -0.00  -0.00     0.00  -0.00   0.00     0.00   0.00  -0.00
   7   1     0.00   0.00   0.00     0.00   0.00   0.00     0.00   0.00   0.00
   8   7     0.00  -0.00  -0.00     0.00   0.00  -0.00    -0.00   0.00   0.00
   9   6    -0.00  -0.00  -0.00    -0.00  -0.00   0.00    -0.00   0.00   0.00
  10   1     0.00   0.00   0.00     0.00   0.00   0.00    -0.00   0.00   0.00
  11   1    -0.00  -0.00  -0.00    -0.00   0.00  -0.00    -0.00   0.00   0.00
  12   1    -0.00  -0.00  -0.00     0.00  -0.00   0.00     0.00  -0.00  -0.00
  13   6    -0.00  -0.00  -0.00    -0.00  -0.00  -0.00    -0.00  -0.00   0.00
  14   1    -0.00  -0.00   0.00     0.00  -0.00  -0.00    -0.00   0.00  -0.00
  15   1    -0.00  -0.00  -0.00    -0.00   0.00   0.00    -0.00   0.00   0.00
  16   1     0.00   0.00   0.00     0.00   0.00   0.00     0.00   0.00   0.00
  17   6    -0.00   0.00   0.00    -0.00  -0.00  -0.00    -0.00   0.00   0.00
  18   1     0.00  -0.00   0.00     0.00  -0.00   0.00    -0.00   0.00  -0.00
  19   1     0.00  -0.00  -0.00     0.00  -0.00   0.00     0.00  -0.00  -0.00
  20   1    -0.00  -0.00  -0.00    -0.00   0.00   0.00    -0.00   0.00   0.00
  21   1    -0.00   0.00  -0.00     0.00  -0.00  -0.00     0.00  -0.00   0.00
  22   6     0.00   0.00   0.00     0.00  -0.00   0.00     0.00  -0.00  -0.00
  23   8    -0.00  -0.00   0.00    -0.00   0.00  -0.00    -0.00  -0.00   0.00
  24   7    -0.01  -0.00   0.00    -0.00   0.00  -0.00    -0.00   0.00   0.00
  25   1     0.01  -0.00  -0.00     0.00  -0.00  -0.00     0.00  -0.00  -0.00
  26   1     0.02   0.03  -0.00    -0.00  -0.00   0.00    -0.00  -0.00   0.00
  27   7     0.18  -0.02   0.01    -0.00  -0.00   0.00     0.00  -0.00   0.00
  28   1    -0.44  -0.56   0.05     0.00   0.00  -0.00    -0.00  -0.00   0.00
  29   1    -0.24   0.62  -0.11     0.00  -0.00   0.00    -0.00   0.00  -0.00
  30   6     0.00  -0.00  -0.00     0.00  -0.00   0.00    -0.00   0.00   0.00
  31   8    -0.00   0.00   0.00     0.00   0.00  -0.00    -0.00  -0.00   0.00
  32   7     0.00  -0.00   0.00     0.11  -0.13   0.07    -0.00   0.01  -0.00
  33   1    -0.00  -0.00   0.00    -0.64  -0.03   0.17     0.02   0.00  -0.01
  34   1     0.00   0.00  -0.00     0.25   0.54  -0.41    -0.01  -0.02   0.02
  35   7    -0.00  -0.00   0.00    -0.00   0.01  -0.01     0.00  -0.00   0.00
  36   1     0.00   0.00  -0.00    -0.02  -0.04   0.03     0.00   0.00  -0.00
  37   1     0.00  -0.00   0.00     0.01  -0.01   0.01    -0.00   0.00  -0.00
  38   6     0.00   0.00  -0.00    -0.00   0.00  -0.00     0.00   0.00  -0.00
  39   8    -0.00  -0.00   0.00     0.00   0.00  -0.00    -0.00   0.00   0.00
  40   7    -0.00  -0.00   0.00    -0.00   0.00  -0.00    -0.01  -0.01   0.00
  41   1     0.00   0.00  -0.00    -0.01  -0.01   0.01     0.01   0.02  -0.01
  42   1    -0.00   0.00   0.00     0.02  -0.00  -0.00     0.03  -0.00  -0.00
  43   7    -0.00  -0.00   0.00     0.00   0.00  -0.00     0.11   0.12  -0.09
  44   1     0.00  -0.00  -0.00    -0.03   0.00   0.01    -0.69   0.12   0.21
  45   1    -0.00   0.00  -0.00     0.01  -0.02   0.00     0.29  -0.57   0.13
  46   6     0.00  -0.00  -0.00     0.00  -0.00   0.00     0.00   0.00  -0.00
  47   8    -0.00   0.00   0.00    -0.00   0.00  -0.00    -0.00  -0.00   0.00
  48   7    -0.00  -0.00   0.00    -0.00  -0.00   0.00     0.00   0.00  -0.00
  49   1     0.00  -0.00   0.00     0.01  -0.00   0.01    -0.00   0.00  -0.00
  50   1     0.00   0.00  -0.00     0.00   0.00  -0.00    -0.00  -0.00   0.00
  51   7    -0.00   0.00  -0.00     0.00   0.00  -0.00    -0.00   0.00   0.00
  52   1    -0.00  -0.00   0.01    -0.00  -0.00   0.00     0.00  -0.00   0.00
  53   1     0.01  -0.00  -0.01     0.00  -0.00  -0.00     0.00  -0.00  -0.00
                    145                    146                    147
                        a                      a                      a 
 Frequencies --  3525.4140              3526.2600              3536.7395
 Red. masses --     1.8939                 1.8893                 1.9006
 Frc consts  --     0.0000                 0.0000                 0.0000
 IR Inten    --    12.9861                 8.5340                15.0681
 Raman Activ --     0.0000                 0.0000                 0.0000
 Depolar     --     0.0000                 0.0000                 0.0000
 Atom AN      X      Y      Z        X      Y      Z        X      Y      Z
   1   8    -0.00  -0.00   0.00     0.00   0.00   0.00     0.00  -0.00   0.00
   2   6     0.00  -0.00   0.00    -0.00   0.00   0.00    -0.00  -0.00   0.00
   3   1    -0.00  -0.00   0.00     0.00   0.00  -0.00     0.00   0.00  -0.00
   4   1     0.00   0.00   0.00     0.00  -0.00  -0.00     0.00   0.00   0.00
   5   6    -0.00  -0.00   0.00     0.00   0.00   0.00     0.00   0.00   0.00
   6   1     0.00  -0.00  -0.00    -0.00   0.00  -0.00    -0.00   0.00   0.00
   7   1     0.00   0.00  -0.00    -0.00  -0.00  -0.00    -0.00  -0.00  -0.00
   8   7     0.00  -0.00  -0.00     0.00  -0.00  -0.00     0.00   0.00   0.00
   9   6    -0.00  -0.00  -0.00     0.00   0.00  -0.00    -0.00  -0.00  -0.00
  10   1     0.00   0.00   0.00     0.00  -0.00  -0.00     0.00  -0.00   0.00
  11   1    -0.00   0.00   0.00    -0.00   0.00  -0.00     0.00  -0.00   0.00
  12   1    -0.00  -0.00   0.00    -0.00  -0.00   0.00    -0.00   0.00   0.00
  13   6    -0.00  -0.00  -0.00    -0.00  -0.00   0.00    -0.00  -0.00  -0.00
  14   1    -0.00   0.00   0.00     0.00  -0.00  -0.00     0.00   0.00   0.00
  15   1    -0.00  -0.00   0.00     0.00  -0.00  -0.00     0.00  -0.00  -0.00
  16   1     0.00   0.00   0.00     0.00   0.00   0.00     0.00   0.00   0.00
  17   6     0.00  -0.00  -0.00    -0.00   0.00  -0.00    -0.00   0.00  -0.00
  18   1     0.00   0.00  -0.00     0.00  -0.00   0.00     0.00  -0.00   0.00
  19   1    -0.00  -0.00   0.00    -0.00   0.00   0.00    -0.00   0.00   0.00
  20   1    -0.00   0.00   0.00     0.00  -0.00  -0.00    -0.00   0.00   0.00
  21   1    -0.00   0.00  -0.00     0.00  -0.00   0.00    -0.00   0.00  -0.00
  22   6    -0.00  -0.00   0.00     0.00  -0.00  -0.00     0.01   0.00  -0.00
  23   8     0.00   0.00  -0.00    -0.00   0.00   0.00    -0.00  -0.00   0.00
  24   7    -0.00  -0.00   0.00     0.00   0.00  -0.00     0.17   0.19  -0.04
  25   1    -0.00  -0.00   0.00     0.00  -0.00  -0.00    -0.07   0.03   0.01
  26   1     0.01   0.01  -0.00    -0.01  -0.01   0.00    -0.59  -0.74   0.14
  27   7     0.00   0.00  -0.00    -0.00  -0.00   0.00     0.00  -0.04   0.00
  28   1    -0.00  -0.00   0.00     0.00   0.00  -0.00     0.03   0.04  -0.00
  29   1     0.00   0.00   0.00    -0.00   0.00  -0.00    -0.04   0.10  -0.02
  30   6     0.00   0.00  -0.00     0.00  -0.01   0.00     0.00   0.00  -0.00
  31   8    -0.00  -0.00   0.00    -0.00   0.00  -0.00    -0.00  -0.00  -0.00
  32   7    -0.00  -0.00   0.00     0.02   0.00  -0.01    -0.00  -0.00   0.00
  33   1     0.01   0.00  -0.00    -0.08  -0.00   0.02     0.00   0.00  -0.00
  34   1     0.00   0.01  -0.01     0.00  -0.00  -0.00     0.00   0.00  -0.00
  35   7     0.01   0.03  -0.02    -0.07  -0.20   0.14     0.00   0.00  -0.00
  36   1    -0.05  -0.11   0.08     0.32   0.74  -0.51    -0.01  -0.01   0.01
  37   1     0.01  -0.01   0.01    -0.06   0.02  -0.03     0.00  -0.00   0.00
  38   6     0.00  -0.00   0.00    -0.00   0.00   0.00     0.00   0.00  -0.00
  39   8     0.00   0.00  -0.00     0.00   0.00  -0.00    -0.00  -0.00  -0.00
  40   7     0.00   0.00  -0.00     0.00  -0.00  -0.00     0.00   0.00  -0.00
  41   1    -0.00  -0.01   0.00    -0.00  -0.00   0.00    -0.00  -0.00   0.00
  42   1    -0.00   0.00   0.00    -0.00   0.00   0.00    -0.01   0.00   0.00
  43   7    -0.00  -0.00   0.00    -0.00  -0.00   0.00    -0.00   0.00   0.00
  44   1     0.00  -0.00  -0.00     0.00  -0.00  -0.00     0.00  -0.00  -0.00
  45   1    -0.00   0.00  -0.00    -0.00   0.00  -0.00     0.00  -0.00   0.00
  46   6    -0.00   0.01  -0.00    -0.00   0.00   0.00     0.00   0.00  -0.00
  47   8    -0.00  -0.00   0.00     0.00   0.00  -0.00    -0.00  -0.00   0.00
  48   7     0.08   0.16  -0.18     0.01   0.02  -0.03     0.00   0.00  -0.00
  49   1     0.06  -0.03   0.04     0.01  -0.00   0.00     0.00  -0.00   0.00
  50   1    -0.35  -0.59   0.64    -0.05  -0.09   0.10    -0.00  -0.01   0.01
  51   7    -0.02  -0.02   0.03    -0.00  -0.00   0.00     0.00   0.00  -0.00
  52   1     0.06   0.09  -0.12     0.01   0.01  -0.01    -0.00  -0.01   0.01
  53   1     0.02  -0.01  -0.01     0.01  -0.00  -0.00    -0.00   0.00   0.00
                    148                    149                    150
                        a                      a                      a 
 Frequencies --  3538.9737              3542.6002              3558.3818
 Red. masses --     1.9618                 1.9524                 2.1736
 Frc consts  --     0.0000                 0.0000                 0.0000
 IR Inten    --    22.0795                23.6565                13.1018
 Raman Activ --     0.0000                 0.0000                 0.0000
 Depolar     --     0.0000                 0.0000                 0.0000
 Atom AN      X      Y      Z        X      Y      Z        X      Y      Z
   1   8    -0.00   0.00  -0.00    -0.00   0.00  -0.00    -0.00   0.00  -0.00
   2   6     0.00  -0.00  -0.00    -0.00   0.00   0.00     0.00  -0.00  -0.00
   3   1     0.00   0.00  -0.00    -0.00  -0.00   0.00    -0.00  -0.00   0.00
   4   1     0.00  -0.00  -0.00     0.00  -0.00   0.00    -0.00   0.00  -0.00
   5   6     0.00  -0.00  -0.00     0.00   0.00   0.00    -0.00  -0.00  -0.00
   6   1    -0.00   0.00   0.00     0.00   0.00  -0.00    -0.00  -0.00  -0.00
   7   1    -0.00  -0.00  -0.00    -0.00   0.00   0.00     0.00   0.00   0.00
   8   7     0.00   0.00  -0.00    -0.00  -0.00  -0.00     0.00  -0.00   0.00
   9   6     0.00   0.00   0.00     0.00   0.00  -0.00    -0.00  -0.00  -0.00
  10   1    -0.00  -0.00  -0.00    -0.00  -0.00  -0.00     0.00   0.00   0.00
  11   1     0.00   0.00  -0.00    -0.00   0.00   0.00    -0.00  -0.00  -0.00
  12   1    -0.00   0.00  -0.00    -0.00  -0.00   0.00     0.00  -0.00  -0.00
  13   6    -0.00  -0.00   0.00     0.00   0.00   0.00    -0.00  -0.00  -0.00
  14   1    -0.00   0.00  -0.00     0.00   0.00   0.00    -0.00  -0.00  -0.00
  15   1     0.00  -0.00   0.00     0.00  -0.00   0.00    -0.00   0.00  -0.00
  16   1    -0.00  -0.00  -0.00    -0.00  -0.00  -0.00     0.00   0.00   0.00
  17   6    -0.00   0.00  -0.00     0.00  -0.00  -0.00    -0.00   0.00   0.00
  18   1     0.00  -0.00   0.00     0.00   0.00   0.00    -0.00  -0.00  -0.00
  19   1     0.00   0.00  -0.00    -0.00  -0.00   0.00     0.00  -0.00  -0.00
  20   1     0.00   0.00   0.00    -0.00  -0.00   0.00    -0.00  -0.00  -0.00
  21   1     0.00  -0.00   0.00     0.00  -0.00   0.00     0.00  -0.00   0.00
  22   6    -0.00  -0.00   0.00     0.00   0.00  -0.00    -0.00  -0.01   0.00
  23   8     0.00   0.00   0.00    -0.00  -0.00   0.00     0.00   0.00   0.00
  24   7    -0.00  -0.00   0.00    -0.00  -0.00   0.00    -0.02  -0.02   0.00
  25   1     0.00  -0.00  -0.00    -0.00   0.00   0.00     0.01  -0.00  -0.00
  26   1     0.01   0.01  -0.00     0.01   0.01  -0.00     0.07   0.09  -0.02
  27   7    -0.00   0.00  -0.00    -0.00  -0.01   0.00    -0.04  -0.29   0.04
  28   1    -0.00  -0.00   0.00     0.01   0.01  -0.00     0.43   0.49  -0.04
  29   1     0.00  -0.00   0.00    -0.00   0.01  -0.00    -0.27   0.62  -0.11
  30   6     0.00   0.00  -0.00     0.00   0.00  -0.00     0.00   0.00  -0.00
  31   8    -0.00  -0.00   0.00    -0.00  -0.00   0.00     0.00   0.00   0.00
  32   7    -0.00  -0.00   0.00    -0.00  -0.00   0.00     0.00   0.00  -0.00
  33   1     0.00  -0.00  -0.00     0.00   0.00  -0.00    -0.00  -0.00   0.00
  34   1     0.01   0.01  -0.01     0.00   0.00  -0.00    -0.00  -0.00   0.00
  35   7    -0.00   0.00  -0.00    -0.00   0.00  -0.00     0.00  -0.00   0.00
  36   1    -0.00  -0.00   0.00    -0.00  -0.01   0.00     0.00   0.00  -0.00
  37   1     0.00  -0.00   0.00     0.00  -0.00   0.00    -0.00   0.00  -0.00
  38   6     0.01   0.01  -0.00    -0.00  -0.00   0.00     0.00   0.00  -0.00
  39   8    -0.00  -0.00   0.00     0.00   0.00  -0.00    -0.00   0.00   0.00
  40   7     0.26   0.01  -0.05    -0.01  -0.00   0.00     0.00   0.00  -0.00
  41   1    -0.07  -0.15   0.05     0.00   0.00  -0.00    -0.00  -0.00   0.00
  42   1    -0.92   0.09   0.15     0.02  -0.00  -0.00    -0.00   0.00   0.00
  43   7    -0.02   0.03  -0.00     0.00  -0.00  -0.00    -0.00   0.00   0.00
  44   1     0.04  -0.00  -0.01    -0.00   0.00   0.00     0.00  -0.00  -0.00
  45   1     0.04  -0.09   0.02    -0.00   0.00  -0.00     0.00  -0.00   0.00
  46   6     0.00  -0.00  -0.00     0.01   0.00  -0.01    -0.00  -0.00   0.00
  47   8    -0.00   0.00  -0.00    -0.00  -0.00   0.00     0.00   0.00  -0.00
  48   7    -0.00   0.00  -0.00     0.01   0.03  -0.03    -0.00  -0.00   0.00
  49   1     0.01  -0.00   0.01     0.01  -0.01   0.01    -0.00   0.00  -0.00
  50   1     0.00   0.00  -0.00    -0.06  -0.10   0.11     0.00   0.00  -0.00
  51   7     0.00   0.00  -0.01     0.12   0.12  -0.20    -0.00  -0.00   0.00
  52   1    -0.01  -0.01   0.02    -0.34  -0.53   0.69     0.01   0.01  -0.01
  53   1    -0.00   0.00   0.00    -0.14   0.06   0.06     0.01  -0.00  -0.00
                    151                    152                    153
                        a                      a                      a 
 Frequencies --  3564.4455              3564.6212              3583.1392
 Red. masses --     2.1784                 2.1761                 1.8797
 Frc consts  --     0.0000                 0.0000                 0.0000
 IR Inten    --     7.1594                14.8549                22.4230
 Raman Activ --     0.0000                 0.0000                 0.0000
 Depolar     --     0.0000                 0.0000                 0.0000
 Atom AN      X      Y      Z        X      Y      Z        X      Y      Z
   1   8     0.00  -0.00   0.00    -0.00   0.00  -0.00     0.05  -0.17   0.16
   2   6    -0.00   0.00   0.00     0.00  -0.00  -0.00     0.00  -0.00   0.00
   3   1     0.00   0.00  -0.00     0.00   0.00  -0.00    -0.00  -0.00   0.00
   4   1     0.00  -0.00  -0.00    -0.00   0.00   0.00    -0.00   0.01  -0.00
   5   6     0.00   0.00  -0.00     0.00  -0.00  -0.00     0.00   0.00  -0.00
   6   1    -0.00  -0.00   0.00    -0.00  -0.00   0.00     0.00  -0.00  -0.00
   7   1    -0.00  -0.00  -0.00    -0.00  -0.00  -0.00    -0.00  -0.00   0.00
   8   7     0.00   0.00   0.00    -0.00  -0.00   0.00    -0.00   0.00  -0.00
   9   6     0.00  -0.00  -0.00     0.00  -0.00  -0.00    -0.00   0.00  -0.00
  10   1     0.00  -0.00  -0.00     0.00  -0.00  -0.00     0.00   0.00   0.00
  11   1     0.00  -0.00  -0.00     0.00   0.00  -0.00    -0.00   0.00   0.00
  12   1    -0.00   0.00   0.00    -0.00   0.00   0.00     0.00  -0.00  -0.00
  13   6     0.00   0.00   0.00     0.00   0.00   0.00    -0.00   0.00  -0.00
  14   1     0.00  -0.00  -0.00     0.00  -0.00   0.00     0.00  -0.00   0.00
  15   1     0.00   0.00  -0.00     0.00   0.00  -0.00     0.00   0.00  -0.00
  16   1     0.00  -0.00  -0.00    -0.00  -0.00  -0.00    -0.00  -0.00  -0.00
  17   6     0.00  -0.00  -0.00     0.00  -0.00  -0.00    -0.00   0.00  -0.00
  18   1     0.00  -0.00   0.00     0.00  -0.00  -0.00     0.00  -0.00   0.01
  19   1    -0.00   0.00   0.00    -0.00   0.00   0.00     0.00  -0.00  -0.00
  20   1     0.00   0.00  -0.00     0.00   0.00  -0.00     0.00   0.00   0.00
  21   1    -0.00   0.00  -0.00     0.00  -0.00   0.00    -0.22   0.68  -0.65
  22   6    -0.00  -0.00   0.00    -0.00  -0.00   0.00     0.00  -0.00   0.00
  23   8     0.00   0.00  -0.00     0.00   0.00   0.00    -0.00  -0.00  -0.00
  24   7    -0.00  -0.00   0.00     0.00   0.00  -0.00    -0.00  -0.00   0.00
  25   1     0.00  -0.00  -0.00    -0.00   0.00   0.00     0.00  -0.00   0.00
  26   1     0.00   0.00  -0.00    -0.00  -0.00   0.00     0.00   0.00  -0.00
  27   7    -0.00  -0.00   0.00     0.00  -0.00   0.00    -0.00  -0.00   0.00
  28   1     0.00   0.00  -0.00     0.00   0.00   0.00     0.00   0.00  -0.00
  29   1    -0.00   0.00  -0.00    -0.00   0.00  -0.00    -0.00   0.00  -0.00
  30   6    -0.01  -0.00   0.00     0.01   0.00  -0.00    -0.00   0.00  -0.00
  31   8     0.00   0.00  -0.00    -0.00  -0.00   0.00    -0.00  -0.00   0.00
  32   7    -0.17  -0.10   0.11     0.15   0.09  -0.09     0.00   0.00  -0.00
  33   1     0.52   0.01  -0.13    -0.44  -0.01   0.11    -0.00  -0.00   0.00
  34   1     0.15   0.38  -0.28    -0.13  -0.32   0.24    -0.00  -0.00   0.00
  35   7    -0.00  -0.01   0.01     0.00   0.01  -0.01     0.00  -0.00   0.00
  36   1     0.02   0.04  -0.03    -0.01  -0.03   0.02    -0.00   0.00  -0.00
  37   1    -0.00   0.00  -0.00     0.00  -0.00   0.00    -0.00   0.00  -0.00
  38   6     0.01  -0.00  -0.00     0.01  -0.01  -0.00    -0.00  -0.00   0.00
  39   8    -0.00   0.00   0.00    -0.00   0.00   0.00     0.00   0.00  -0.00
  40   7     0.01   0.00  -0.00     0.02   0.00  -0.01     0.00  -0.00  -0.00
  41   1    -0.00  -0.01   0.00    -0.01  -0.02   0.01     0.00   0.00   0.00
  42   1    -0.05   0.01   0.01    -0.08   0.01   0.01    -0.00   0.00   0.00
  43   7     0.15  -0.12  -0.01     0.18  -0.14  -0.01     0.00  -0.00  -0.00
  44   1    -0.38   0.05   0.13    -0.45   0.06   0.15    -0.00   0.00   0.00
  45   1    -0.19   0.41  -0.10    -0.22   0.48  -0.12     0.00  -0.00   0.00
  46   6    -0.00  -0.00   0.00     0.00   0.00  -0.00    -0.00  -0.00   0.00
  47   8     0.00   0.00  -0.00    -0.00  -0.00   0.00     0.00  -0.00  -0.00
  48   7     0.00  -0.00   0.00    -0.00   0.00  -0.00     0.00  -0.00   0.00
  49   1    -0.00   0.00  -0.00     0.00  -0.00   0.00    -0.00   0.00  -0.00
  50   1     0.00   0.00  -0.00    -0.00  -0.00   0.00     0.00   0.00  -0.00
  51   7    -0.00  -0.00   0.00     0.00   0.00  -0.00     0.00   0.00  -0.00
  52   1     0.00   0.00  -0.00    -0.00  -0.00   0.00    -0.00  -0.00   0.00
  53   1     0.00  -0.00  -0.00    -0.00   0.00   0.00    -0.00   0.00   0.00
