 Entering Gaussian System
 *********************************************
 Gaussian 98:
 frequency output generated by the xtb code
 *********************************************
                         Standard orientation:
 --------------------------------------------------------------------
  Center     Atomic     Atomic              Coordinates (Angstroms)
  Number     Number      Type              X           Y           Z
 --------------------------------------------------------------------
    1          8             0       -2.311795   -0.045648    0.127451
    2          6             0       -1.188931    0.018571   -0.707469
    3          1             0       -1.225316   -0.864169   -1.349926
    4          1             0       -1.243028    0.903795   -1.356252
    5          6             0        0.151179    0.111963    0.030359
    6          1             0        0.154005    0.994340    0.676777
    7          1             0        0.939355    0.205913   -0.717974
    8          7             0        0.504267   -1.043696    0.901293
    9          6             0       -0.378798   -1.087158    2.078546
   10          1             0       -0.273465   -0.151646    2.627562
   11          1             0       -0.097976   -1.919328    2.720560
   12          1             0       -1.411847   -1.204946    1.759596
   13          6             0        1.888148   -0.827574    1.356798
   14          1             0        1.933351    0.113776    1.902769
   15          1             0        2.547648   -0.782782    0.492677
   16          1             0        2.197482   -1.640637    2.009846
   17          6             0        0.425247   -2.315310    0.169293
   18          1             0        0.831289   -3.118698    0.780414
   19          1             0        0.994988   -2.254668   -0.756109
   20          1             0       -0.608177   -2.553947   -0.067510
   21          1             0       -2.357757    0.787283    0.654850
   22          6             0        3.660904   -1.507034   -1.994024
   23          8             0        2.718990   -0.743641   -1.759862
   24          7             0        4.945036   -1.104065   -1.816467
   25          1             0        5.113416   -0.128731   -1.643510
   26          1             0        5.717905   -1.664928   -2.125997
   27          7             0        3.467327   -2.779741   -2.366134
   28          1             0        4.233782   -3.390225   -2.581097
   29          1             0        2.510549   -3.110703   -2.517670
   30          6             0        0.499089    2.866784    3.091445
   31          8             0        0.724701    1.751211    2.637292
   32          7             0        1.472630    3.598027    3.696655
   33          1             0        2.348942    3.146501    3.889578
   34          1             0        1.260993    4.437923    4.203974
   35          7             0       -0.717533    3.445125    3.019031
   36          1             0       -0.839783    4.407439    3.276900
   37          1             0       -1.441919    2.996283    2.466705
   38          6             0        0.247307   -2.503879   -3.585858
   39          8             0        0.789452   -3.328205   -2.855992
   40          7             0        0.501719   -1.178213   -3.478165
   41          1             0        1.296712   -0.906423   -2.899674
   42          1             0        0.198613   -0.538504   -4.190067
   43          7             0       -0.687527   -2.868597   -4.494660
   44          1             0       -1.121144   -2.214668   -5.119355
   45          1             0       -0.903034   -3.844706   -4.589304
   46          6             0       -4.066389    2.329021    1.504789
   47          8             0       -2.838647    2.227220    1.497526
   48          7             0       -4.853289    1.465249    0.834290
   49          1             0       -4.419400    0.691288    0.356811
   50          1             0       -5.854646    1.515719    0.869217
   51          7             0       -4.692875    3.315946    2.181135
   52          1             0       -5.690111    3.424743    2.168914
   53          1             0       -4.143182    3.998567    2.670489
 --------------------------------------------------------------------
     1 basis functions        1 primitive gaussians
     1 alpha electrons        1 beta electrons

 Harmonic frequencies (cm**-1), IR intensities (km*mol⁻¹),
 Raman scattering activities (A**4/amu), Raman depolarization ratios,
 reduced masses (AMU), force constants (mDyne/A) and normal coordinates:
                      1                      2                      3
                        a                      a                      a 
 Frequencies --     4.8498                10.1898                17.9902
 Red. masses --    12.4258                11.8445                12.0140
 Frc consts  --     0.0000                 0.0000                 0.0000
 IR Inten    --     0.4390                 0.8821                 0.4187
 Raman Activ --     0.0000                 0.0000                 0.0000
 Depolar     --     0.0000                 0.0000                 0.0000
 Atom AN      X      Y      Z        X      Y      Z        X      Y      Z
   1   8    -0.01   0.14  -0.08     0.03  -0.14   0.23     0.12   0.14  -0.10
   2   6     0.01   0.13  -0.04    -0.03  -0.13   0.13     0.12   0.18  -0.06
   3   1     0.00   0.05  -0.02    -0.01  -0.05   0.05     0.04   0.06  -0.03
   4   1     0.02   0.05  -0.00    -0.02  -0.05   0.03     0.03   0.06  -0.01
   5   6    -0.00   0.05  -0.01     0.01  -0.06   0.06     0.11   0.17  -0.04
   6   1     0.00   0.01   0.01     0.00  -0.02   0.01     0.03   0.05  -0.01
   7   1     0.01   0.02   0.00    -0.01  -0.01   0.01     0.03   0.05  -0.01
   8   7    -0.07   0.01  -0.04     0.12  -0.04   0.06     0.11   0.18  -0.05
   9   6    -0.09  -0.00  -0.06     0.16  -0.08   0.09     0.08   0.14  -0.06
  10   1    -0.02  -0.01  -0.01     0.04  -0.02   0.02     0.02   0.04  -0.01
  11   1    -0.04  -0.01  -0.02     0.06  -0.02   0.02     0.03   0.04  -0.02
  12   1    -0.02   0.01  -0.03     0.04  -0.04   0.04     0.03   0.04  -0.02
  13   6    -0.06  -0.05   0.00     0.12   0.04  -0.01     0.09   0.17  -0.02
  14   1    -0.01  -0.02   0.01     0.02   0.01  -0.00     0.02   0.05  -0.01
  15   1    -0.01  -0.01   0.01     0.02   0.02  -0.01     0.03   0.05  -0.00
  16   1    -0.03  -0.03  -0.01     0.05   0.02  -0.00     0.02   0.05  -0.01
  17   6    -0.08   0.04  -0.09     0.15  -0.05   0.06     0.13   0.18  -0.07
  18   1    -0.04  -0.00  -0.03     0.07  -0.01   0.01     0.03   0.05  -0.02
  19   1    -0.01   0.01  -0.02     0.03  -0.01   0.01     0.05   0.06  -0.01
  20   1    -0.02   0.03  -0.04     0.04  -0.03   0.03     0.04   0.05  -0.03
  21   1     0.00   0.03  -0.01     0.01  -0.03   0.04     0.02   0.03  -0.01
  22   6    -0.05   0.16  -0.04    -0.02   0.07  -0.11     0.00  -0.18  -0.06
  23   8    -0.15   0.08  -0.08    -0.03   0.06  -0.06     0.04  -0.17  -0.06
  24   7    -0.10   0.33  -0.07    -0.02   0.10  -0.18     0.02  -0.24  -0.08
  25   1    -0.06   0.09  -0.03    -0.01   0.03  -0.05     0.02  -0.07  -0.03
  26   1    -0.01   0.11  -0.01    -0.01   0.03  -0.06    -0.00  -0.07  -0.03
  27   7     0.09   0.13   0.02    -0.02   0.08  -0.13    -0.05  -0.18  -0.07
  28   1     0.04   0.06   0.01    -0.00   0.03  -0.05    -0.02  -0.06  -0.02
  29   1     0.03   0.00   0.01    -0.00   0.02  -0.02    -0.02  -0.04  -0.01
  30   6     0.02  -0.07   0.10    -0.03  -0.07   0.11    -0.09   0.05   0.16
  31   8     0.00  -0.07   0.08     0.01  -0.04   0.05     0.01   0.15   0.02
  32   7     0.04  -0.13   0.16    -0.08  -0.12   0.25    -0.17   0.06   0.30
  33   1     0.00  -0.04   0.04    -0.02  -0.03   0.07    -0.03   0.03   0.06
  34   1     0.01  -0.04   0.05    -0.03  -0.04   0.08    -0.06  -0.01   0.11
  35   7     0.04  -0.04   0.11    -0.03  -0.08   0.09    -0.14  -0.04   0.25
  36   1     0.02  -0.01   0.04    -0.02  -0.03   0.05    -0.06  -0.02   0.10
  37   1     0.01  -0.00   0.02    -0.00  -0.01   0.01    -0.03  -0.01   0.05
  38   6     0.06  -0.26  -0.01    -0.09   0.02   0.06    -0.06  -0.09  -0.01
  39   8     0.18  -0.21   0.01    -0.04   0.02   0.03    -0.07  -0.13  -0.04
  40   7    -0.13  -0.24  -0.01    -0.10   0.02   0.05    -0.03  -0.10  -0.01
  41   1    -0.04  -0.04  -0.01    -0.02   0.01   0.00    -0.00  -0.03  -0.01
  42   1    -0.05  -0.08  -0.01    -0.04   0.01   0.02    -0.00  -0.03  -0.00
  43   7     0.16  -0.42  -0.05    -0.16   0.01   0.14    -0.09  -0.06   0.00
  44   1    -0.00  -0.13   0.00    -0.05  -0.00   0.04    -0.03  -0.01   0.01
  45   1     0.06  -0.12   0.00    -0.04   0.00   0.04    -0.04  -0.01   0.00
  46   6     0.03   0.10   0.02     0.01   0.09  -0.21    -0.04  -0.05   0.00
  47   8     0.04   0.07   0.04     0.01   0.05  -0.09    -0.03   0.02   0.05
  48   7     0.02   0.18  -0.04     0.04   0.03  -0.18     0.04  -0.05  -0.11
  49   1     0.00   0.05  -0.02     0.02  -0.02   0.00     0.03   0.00  -0.04
  50   1     0.01   0.06  -0.02     0.01   0.02  -0.07     0.01  -0.03  -0.03
  51   7     0.06   0.09   0.07    -0.01   0.23  -0.44    -0.13  -0.16   0.07
  52   1     0.02   0.03   0.02    -0.00   0.08  -0.16    -0.03  -0.05   0.00
  53   1     0.02   0.01   0.03    -0.01   0.09  -0.15    -0.05  -0.04   0.03
                      4                      5                      6
                        a                      a                      a 
 Frequencies --    27.1008                30.9826                37.0024
 Red. masses --    12.1367                12.9085                12.7401
 Frc consts  --     0.0000                 0.0000                 0.0000
 IR Inten    --     1.2672                 0.2464                 1.6834
 Raman Activ --     0.0000                 0.0000                 0.0000
 Depolar     --     0.0000                 0.0000                 0.0000
 Atom AN      X      Y      Z        X      Y      Z        X      Y      Z
   1   8     0.04  -0.05  -0.05     0.02   0.10  -0.20    -0.16  -0.01   0.20
   2   6     0.07   0.02   0.00     0.06   0.04  -0.13    -0.21  -0.01   0.08
   3   1     0.03   0.02  -0.01     0.02   0.01  -0.03    -0.08  -0.00   0.03
   4   1     0.02   0.02   0.02     0.04   0.01  -0.04    -0.07  -0.00   0.02
   5   6     0.04  -0.01   0.05     0.03  -0.01  -0.07    -0.14  -0.01  -0.03
   6   1     0.01  -0.00   0.02     0.01  -0.00  -0.02    -0.03  -0.00  -0.01
   7   1     0.02  -0.00   0.02     0.02  -0.01  -0.01    -0.06   0.00  -0.03
   8   7    -0.01  -0.02   0.05    -0.04  -0.03  -0.06    -0.06  -0.00  -0.07
   9   6    -0.01   0.02   0.05    -0.10  -0.02  -0.11     0.01  -0.03  -0.01
  10   1     0.01   0.01   0.01    -0.03  -0.01  -0.03     0.00  -0.01  -0.01
  11   1    -0.01   0.00   0.02    -0.05  -0.01  -0.03     0.03  -0.00  -0.01
  12   1    -0.00   0.01   0.02    -0.03   0.00  -0.05     0.00  -0.02   0.02
  13   6     0.00  -0.08   0.05    -0.06  -0.05   0.02    -0.03   0.04  -0.14
  14   1     0.01  -0.02   0.01    -0.02  -0.02   0.01    -0.01   0.01  -0.04
  15   1     0.00  -0.03   0.02    -0.00  -0.01   0.02    -0.03   0.02  -0.05
  16   1    -0.01  -0.03   0.02    -0.03  -0.02   0.01     0.01   0.01  -0.05
  17   6    -0.06  -0.02   0.05    -0.01  -0.02  -0.07    -0.05  -0.00  -0.06
  18   1    -0.03  -0.01   0.01    -0.02  -0.01  -0.01    -0.01   0.00  -0.02
  19   1    -0.02  -0.01   0.01     0.02  -0.01  -0.01    -0.01  -0.00  -0.02
  20   1    -0.02   0.01   0.02     0.00   0.00  -0.05    -0.01  -0.00  -0.02
  21   1     0.01  -0.03   0.01     0.01   0.03  -0.05    -0.03  -0.00   0.05
  22   6    -0.04   0.07   0.01     0.10   0.05  -0.02     0.17  -0.09  -0.07
  23   8    -0.05   0.08  -0.01     0.10   0.02   0.03     0.18  -0.17   0.10
  24   7    -0.05   0.07  -0.00     0.10   0.05   0.08     0.18  -0.08  -0.09
  25   1    -0.01   0.02  -0.01     0.02   0.01   0.04     0.04  -0.03   0.02
  26   1    -0.01   0.02   0.00     0.03   0.03   0.00     0.05  -0.00  -0.05
  27   7    -0.05   0.06   0.04     0.14   0.10  -0.18     0.21  -0.03  -0.29
  28   1    -0.01   0.02   0.01     0.04   0.03  -0.04     0.06  -0.00  -0.09
  29   1    -0.01   0.02   0.01     0.04   0.02  -0.04     0.06  -0.02  -0.05
  30   6     0.08   0.00  -0.02    -0.03  -0.05  -0.02    -0.03  -0.00  -0.04
  31   8     0.12  -0.01   0.01    -0.08  -0.08   0.00    -0.04   0.04  -0.15
  32   7     0.11   0.12  -0.20    -0.03  -0.12   0.05     0.03   0.02  -0.16
  33   1     0.04   0.05  -0.07    -0.02  -0.05   0.03     0.02   0.01  -0.08
  34   1     0.03   0.03  -0.05    -0.00  -0.03   0.01     0.02  -0.01  -0.02
  35   7     0.03  -0.10   0.11     0.01   0.02  -0.11    -0.07  -0.07   0.20
  36   1    -0.00  -0.02   0.01     0.01   0.01  -0.04    -0.02  -0.02   0.07
  37   1     0.00  -0.04   0.05     0.00   0.02  -0.04    -0.03  -0.02   0.06
  38   6    -0.07   0.04   0.06    -0.05   0.00   0.17     0.11  -0.03   0.06
  39   8    -0.06   0.06   0.08     0.12  -0.02   0.03     0.19  -0.10  -0.06
  40   7    -0.04   0.04   0.01     0.08  -0.02   0.08     0.06  -0.03   0.21
  41   1    -0.01   0.01  -0.00     0.04  -0.01  -0.00     0.03  -0.02   0.05
  42   1    -0.02   0.01   0.00    -0.05   0.01   0.07     0.01   0.01   0.07
  43   7    -0.13   0.03   0.13    -0.45   0.07   0.56     0.09   0.04   0.06
  44   1    -0.02   0.00   0.02    -0.06   0.01   0.09     0.01   0.03   0.04
  45   1    -0.03   0.01   0.04    -0.07   0.01   0.11     0.03   0.01  -0.01
  46   6     0.02  -0.08  -0.08     0.02  -0.01  -0.01    -0.10   0.11   0.07
  47   8     0.01  -0.22   0.20     0.03   0.08  -0.17    -0.12   0.01   0.21
  48   7     0.11   0.23  -0.61     0.00  -0.03   0.05    -0.11   0.24  -0.08
  49   1     0.04   0.07  -0.17    -0.00   0.00  -0.01    -0.03   0.05  -0.01
  50   1     0.03   0.07  -0.20     0.00  -0.02   0.04    -0.03   0.08  -0.03
  51   7    -0.05  -0.25   0.08     0.04  -0.07   0.09    -0.09   0.13   0.08
  52   1    -0.01  -0.04  -0.04     0.01  -0.03   0.05    -0.02   0.06  -0.01
  53   1    -0.03  -0.13   0.12     0.01  -0.01   0.01    -0.02   0.02   0.04
                      7                      8                      9
                        a                      a                      a 
 Frequencies --    38.7182                41.2138                43.9799
 Red. masses --    12.2435                12.2567                11.8843
 Frc consts  --     0.0000                 0.0000                 0.0000
 IR Inten    --     1.8055                 1.6032                 1.7078
 Raman Activ --     0.0000                 0.0000                 0.0000
 Depolar     --     0.0000                 0.0000                 0.0000
 Atom AN      X      Y      Z        X      Y      Z        X      Y      Z
   1   8     0.09   0.05   0.09    -0.04  -0.10   0.04    -0.09  -0.23  -0.00
   2   6     0.10   0.11   0.11    -0.09  -0.05  -0.02    -0.09  -0.22  -0.02
   3   1     0.03   0.05   0.01    -0.02  -0.02  -0.00    -0.01  -0.08   0.02
   4   1     0.03   0.05   0.05    -0.05  -0.02  -0.01    -0.04  -0.08  -0.03
   5   6     0.08   0.06   0.15    -0.05   0.01  -0.09    -0.09  -0.05  -0.03
   6   1     0.01   0.00   0.07    -0.01   0.01  -0.03    -0.05  -0.01  -0.02
   7   1     0.03   0.04   0.05    -0.03   0.01  -0.04    -0.03  -0.00  -0.01
   8   7     0.08  -0.01   0.07     0.04   0.05  -0.10     0.04   0.02   0.01
   9   6     0.02  -0.15   0.01     0.09   0.03  -0.05     0.03  -0.05   0.00
  10   1    -0.01  -0.06   0.03     0.02   0.01  -0.02    -0.02  -0.01  -0.00
  11   1     0.00  -0.06  -0.02     0.05   0.01  -0.01     0.03  -0.00   0.00
  12   1     0.01  -0.04  -0.02     0.02  -0.01   0.00     0.01  -0.04  -0.00
  13   6     0.05  -0.01   0.15     0.05   0.11  -0.15     0.01   0.19   0.01
  14   1    -0.00  -0.01   0.07     0.01   0.03  -0.05    -0.03   0.06  -0.01
  15   1     0.03   0.02   0.06     0.00   0.04  -0.05     0.00   0.07   0.00
  16   1     0.01  -0.01   0.03     0.03   0.04  -0.05     0.03   0.07   0.01
  17   6     0.17   0.06  -0.07     0.05   0.03  -0.07     0.20  -0.02   0.05
  18   1     0.04   0.00  -0.04     0.04   0.02  -0.02     0.09   0.02   0.02
  19   1     0.07   0.05  -0.00    -0.00   0.01  -0.03     0.05   0.01   0.01
  20   1     0.06   0.02  -0.05     0.01  -0.01  -0.00     0.07  -0.05   0.02
  21   1     0.01   0.01   0.03    -0.01  -0.03   0.02    -0.02  -0.05  -0.02
  22   6    -0.05  -0.02   0.02    -0.05   0.04   0.13    -0.02  -0.01  -0.01
  23   8    -0.11  -0.12   0.13    -0.08   0.10  -0.14    -0.02  -0.02   0.01
  24   7    -0.08  -0.03   0.26    -0.08  -0.06   0.66    -0.02  -0.02   0.01
  25   1    -0.04  -0.01   0.11    -0.02  -0.01   0.17    -0.00  -0.01   0.01
  26   1    -0.01   0.02   0.03    -0.01  -0.01   0.20    -0.01  -0.00  -0.00
  27   7     0.02   0.08  -0.36    -0.00   0.10  -0.04    -0.02  -0.00  -0.05
  28   1     0.02   0.03  -0.08     0.01   0.00   0.09    -0.00  -0.00  -0.01
  29   1     0.01   0.00  -0.09     0.00   0.03  -0.04    -0.01  -0.00  -0.01
  30   6    -0.00   0.03  -0.02     0.04  -0.01  -0.00    -0.13   0.05   0.02
  31   8    -0.12  -0.10   0.25     0.11   0.07  -0.15    -0.19   0.03   0.08
  32   7     0.06   0.06  -0.15     0.03   0.02  -0.03    -0.16  -0.02   0.15
  33   1    -0.01  -0.01   0.01     0.03   0.02  -0.04    -0.06  -0.02   0.07
  34   1     0.03   0.05  -0.09     0.00  -0.01   0.02    -0.04   0.00   0.03
  35   7     0.08   0.17  -0.23    -0.03  -0.12   0.18    -0.09   0.14  -0.15
  36   1     0.05   0.06  -0.11    -0.02  -0.04   0.08    -0.01   0.05  -0.06
  37   1     0.01   0.03  -0.03    -0.01  -0.03   0.05    -0.01   0.04  -0.06
  38   6    -0.04  -0.05  -0.08    -0.03  -0.04  -0.08    -0.00  -0.01  -0.03
  39   8     0.06  -0.13  -0.27     0.05  -0.02  -0.12    -0.02  -0.01  -0.02
  40   7    -0.19  -0.04   0.15    -0.01  -0.05  -0.17    -0.00  -0.01  -0.03
  41   1    -0.04  -0.02   0.03    -0.00  -0.00  -0.06    -0.00  -0.00  -0.01
  42   1    -0.06   0.01   0.06    -0.03  -0.02  -0.03     0.00  -0.00  -0.01
  43   7    -0.02   0.02  -0.14    -0.17  -0.08   0.06     0.03  -0.01  -0.07
  44   1    -0.06   0.03   0.02    -0.02  -0.04  -0.02    -0.00  -0.00  -0.01
  45   1     0.00   0.01  -0.07    -0.02  -0.03   0.01    -0.00  -0.00  -0.01
  46   6    -0.05  -0.00  -0.01     0.04  -0.01   0.02     0.14   0.05   0.01
  47   8    -0.05   0.04   0.04     0.04  -0.11   0.10     0.15  -0.05  -0.18
  48   7     0.01  -0.02  -0.06     0.01   0.00   0.06    -0.01   0.33  -0.15
  49   1     0.02  -0.00  -0.01    -0.01  -0.01   0.03    -0.04   0.08  -0.07
  50   1     0.00  -0.02  -0.03     0.00   0.03  -0.01     0.00   0.08   0.03
  51   7    -0.12  -0.03  -0.04     0.09   0.10  -0.08     0.32  -0.08   0.37
  52   1    -0.03  -0.02  -0.01     0.02   0.04  -0.03     0.09   0.02   0.11
  53   1    -0.04  -0.01   0.01     0.03   0.02  -0.02     0.12  -0.06   0.11
                     10                     11                     12
                        a                      a                      a 
 Frequencies --    51.0258                53.7837                60.9245
 Red. masses --    12.6512                12.6616                12.6233
 Frc consts  --     0.0000                 0.0000                 0.0000
 IR Inten    --     4.4955                 9.1129                 6.1952
 Raman Activ --     0.0000                 0.0000                 0.0000
 Depolar     --     0.0000                 0.0000                 0.0000
 Atom AN      X      Y      Z        X      Y      Z        X      Y      Z
   1   8    -0.01   0.12   0.25     0.01   0.12   0.12     0.11   0.16   0.01
   2   6    -0.08   0.02   0.11    -0.03  -0.08   0.04     0.12  -0.09   0.01
   3   1    -0.05  -0.00   0.04    -0.04  -0.04   0.04     0.01  -0.05   0.04
   4   1    -0.03  -0.00   0.02     0.00  -0.04  -0.02     0.06  -0.05  -0.03
   5   6    -0.01   0.00  -0.02     0.01  -0.09  -0.04     0.11  -0.11   0.02
   6   1     0.01  -0.01   0.00     0.03  -0.01  -0.03     0.04  -0.03  -0.00
   7   1    -0.02   0.01  -0.02    -0.00  -0.06  -0.02     0.04  -0.05   0.01
   8   7     0.09  -0.02  -0.09    -0.02  -0.04   0.05     0.08  -0.11   0.06
   9   6     0.12  -0.13  -0.06     0.04   0.12   0.10    -0.02  -0.11  -0.01
  10   1     0.02  -0.05  -0.00     0.04   0.05   0.00    -0.02  -0.03  -0.00
  11   1     0.05  -0.04  -0.03     0.00   0.04   0.04    -0.02  -0.03   0.00
  12   1     0.03  -0.05  -0.01     0.00   0.05   0.05     0.00  -0.03  -0.03
  13   6     0.08   0.05  -0.11     0.02  -0.08  -0.04     0.03  -0.06   0.16
  14   1     0.01   0.01  -0.02     0.03  -0.01  -0.03    -0.01  -0.01   0.04
  15   1     0.02   0.04  -0.04    -0.01  -0.05  -0.02     0.03  -0.02   0.06
  16   1     0.05   0.01  -0.05     0.00  -0.01   0.00    -0.00  -0.01   0.06
  17   6     0.15   0.01  -0.14    -0.14  -0.10   0.17     0.17  -0.11   0.06
  18   1     0.06   0.00  -0.06    -0.03  -0.02   0.06     0.05  -0.02   0.02
  19   1     0.04   0.03  -0.04    -0.07  -0.07   0.03     0.06  -0.02   0.02
  20   1     0.05  -0.01  -0.04    -0.05  -0.02   0.08     0.06  -0.05   0.00
  21   1     0.01   0.04   0.04     0.02   0.05  -0.01     0.04   0.06  -0.03
  22   6     0.02  -0.00   0.07    -0.01   0.02  -0.04    -0.04   0.02  -0.00
  23   8     0.04   0.10  -0.16    -0.03  -0.01  -0.00    -0.05   0.00   0.02
  24   7     0.03  -0.00   0.00    -0.02  -0.04   0.20    -0.05   0.04  -0.01
  25   1     0.02   0.01  -0.05    -0.01  -0.01   0.08    -0.02   0.01  -0.00
  26   1     0.01  -0.03   0.06    -0.00   0.01   0.02    -0.01   0.02  -0.01
  27   7    -0.02  -0.11   0.45     0.01   0.12  -0.37    -0.03   0.02  -0.01
  28   1    -0.01  -0.04   0.12     0.01   0.02  -0.05    -0.01   0.01  -0.01
  29   1    -0.00  -0.01   0.07     0.00   0.02  -0.06    -0.01   0.00  -0.01
  30   6     0.02  -0.07  -0.05     0.08   0.02  -0.04    -0.13  -0.02  -0.02
  31   8    -0.10  -0.12  -0.03     0.14   0.11  -0.24    -0.19   0.00  -0.10
  32   7     0.08  -0.20   0.00     0.01  -0.12   0.24    -0.00   0.08  -0.36
  33   1     0.00  -0.08   0.01     0.00  -0.04   0.05     0.02   0.03  -0.15
  34   1     0.05  -0.04  -0.01    -0.01  -0.05   0.08     0.01   0.00  -0.06
  35   7     0.11   0.10  -0.16     0.10   0.05  -0.09    -0.24  -0.16   0.44
  36   1     0.05   0.02  -0.03     0.01  -0.01   0.04    -0.04  -0.03   0.08
  37   1     0.01   0.04  -0.03     0.03   0.04  -0.05    -0.06  -0.02   0.09
  38   6     0.01  -0.00  -0.04     0.01   0.01   0.02    -0.01  -0.00  -0.05
  39   8     0.06  -0.00  -0.08    -0.08   0.07   0.17    -0.03   0.01  -0.03
  40   7     0.05  -0.01  -0.10    -0.01   0.01  -0.05     0.03  -0.01  -0.12
  41   1     0.02   0.00  -0.04    -0.01   0.01  -0.01    -0.00   0.00  -0.02
  42   1    -0.01  -0.00  -0.01     0.03  -0.01  -0.04     0.00  -0.00  -0.03
  43   7    -0.11  -0.00   0.08     0.15  -0.08  -0.09    -0.03  -0.01  -0.03
  44   1     0.00  -0.01  -0.01     0.03  -0.03  -0.03     0.01  -0.01  -0.03
  45   1    -0.01  -0.00   0.01     0.02  -0.02   0.01    -0.00  -0.01  -0.01
  46   6    -0.13   0.08   0.02    -0.05   0.02  -0.05     0.03   0.12  -0.02
  47   8    -0.14   0.25   0.02    -0.04   0.29  -0.18     0.05   0.32  -0.22
  48   7    -0.03   0.09  -0.14     0.06  -0.02  -0.13     0.06   0.04   0.06
  49   1     0.02   0.03  -0.02     0.04   0.00  -0.03     0.03   0.02   0.01
  50   1    -0.01  -0.04   0.01     0.01  -0.09   0.04     0.02  -0.04   0.07
  51   7    -0.28  -0.11   0.17    -0.20  -0.23   0.19    -0.01   0.00   0.13
  52   1    -0.07  -0.03  -0.00    -0.05  -0.07   0.01    -0.00  -0.01   0.04
  53   1    -0.10  -0.00   0.03    -0.08  -0.01   0.00    -0.01   0.04  -0.02
                     13                     14                     15
                        a                      a                      a 
 Frequencies --    67.9130                76.7440                78.6755
 Red. masses --    12.9379                11.8360                13.5412
 Frc consts  --     0.0000                 0.0000                 0.0000
 IR Inten    --    11.1603                 9.8617                 2.2890
 Raman Activ --     0.0000                 0.0000                 0.0000
 Depolar     --     0.0000                 0.0000                 0.0000
 Atom AN      X      Y      Z        X      Y      Z        X      Y      Z
   1   8     0.01   0.02   0.03    -0.11   0.09  -0.01     0.01  -0.00   0.07
   2   6     0.01   0.05   0.04    -0.12  -0.09  -0.06     0.01  -0.04   0.06
   3   1     0.01   0.02   0.00    -0.05  -0.05   0.02    -0.01  -0.01   0.02
   4   1     0.01   0.02   0.02    -0.03  -0.05  -0.05     0.01  -0.01   0.01
   5   6     0.01   0.03   0.06    -0.12  -0.01  -0.09     0.01  -0.07   0.06
   6   1     0.00   0.00   0.02    -0.04   0.01  -0.04     0.01  -0.01   0.01
   7   1     0.00   0.01   0.02    -0.03  -0.01  -0.03     0.00  -0.04   0.02
   8   7     0.01   0.00   0.02    -0.08   0.06  -0.03    -0.04  -0.05   0.11
   9   6    -0.00  -0.05   0.01    -0.15   0.00  -0.08    -0.05   0.03   0.10
  10   1    -0.01  -0.02   0.02    -0.09   0.01  -0.04    -0.01   0.02   0.01
  11   1    -0.00  -0.02  -0.01    -0.02   0.02  -0.01    -0.02   0.02   0.04
  12   1     0.00  -0.01  -0.00    -0.03  -0.04  -0.04    -0.01   0.01   0.03
  13   6     0.00  -0.00   0.04    -0.12   0.20   0.06    -0.04  -0.08   0.11
  14   1    -0.00  -0.01   0.02    -0.07   0.07   0.01    -0.00  -0.02   0.02
  15   1     0.00   0.01   0.01    -0.02   0.07   0.03    -0.01  -0.04   0.03
  16   1     0.00  -0.01   0.00    -0.02   0.07   0.03    -0.02  -0.02   0.04
  17   6     0.02   0.03  -0.02     0.11   0.02   0.01    -0.08  -0.07   0.13
  18   1     0.01   0.00  -0.02     0.05   0.02   0.02    -0.03  -0.02   0.04
  19   1     0.00   0.02  -0.01     0.05   0.02   0.02    -0.02  -0.03   0.04
  20   1     0.01   0.01  -0.01     0.05  -0.03  -0.02    -0.03  -0.01   0.04
  21   1    -0.00  -0.00   0.02     0.03   0.01   0.02     0.01  -0.00   0.02
  22   6     0.02  -0.01  -0.09    -0.03  -0.00   0.02    -0.03  -0.01   0.03
  23   8     0.06   0.02  -0.08    -0.04  -0.04   0.12    -0.10  -0.13   0.16
  24   7     0.04  -0.10  -0.00    -0.03   0.02  -0.04    -0.07   0.14  -0.13
  25   1     0.02  -0.03   0.00    -0.01   0.00   0.00    -0.04   0.04  -0.01
  26   1     0.00  -0.03  -0.03    -0.01   0.01  -0.02    -0.00   0.06  -0.03
  27   7    -0.03   0.05  -0.27    -0.02   0.01  -0.04     0.06  -0.04   0.06
  28   1    -0.01  -0.01  -0.03    -0.00   0.01  -0.03     0.03   0.03  -0.05
  29   1    -0.01   0.01  -0.02    -0.01  -0.00   0.00     0.02  -0.02  -0.01
  30   6    -0.04  -0.02   0.06    -0.01   0.04   0.01     0.02   0.12  -0.01
  31   8    -0.13  -0.12   0.27    -0.29   0.04  -0.11     0.08   0.20  -0.13
  32   7     0.00   0.03  -0.07     0.20  -0.21  -0.01    -0.05   0.08   0.17
  33   1    -0.01  -0.00   0.01     0.03  -0.11  -0.03    -0.01   0.03   0.04
  34   1     0.01   0.03  -0.05     0.11  -0.06   0.02    -0.03   0.01   0.06
  35   7    -0.00   0.06  -0.06     0.10   0.27   0.16     0.02   0.12  -0.04
  36   1     0.02   0.03  -0.06     0.07   0.07   0.07    -0.01   0.02   0.03
  37   1    -0.01   0.00   0.01    -0.00   0.10   0.06     0.01   0.03  -0.01
  38   6     0.06  -0.03  -0.03     0.00   0.00   0.02     0.09  -0.05  -0.24
  39   8    -0.15   0.12   0.31    -0.05   0.01   0.07     0.18  -0.14  -0.42
  40   7     0.35  -0.06  -0.50     0.03  -0.00  -0.01     0.29  -0.11  -0.31
  41   1     0.06   0.01  -0.10     0.00  -0.00   0.01     0.05  -0.03  -0.05
  42   1     0.11  -0.05  -0.17     0.02  -0.00  -0.01     0.01   0.01  -0.02
  43   7    -0.00  -0.16   0.09     0.03  -0.00  -0.01    -0.28   0.09   0.06
  44   1     0.10  -0.09  -0.10     0.02  -0.00  -0.01     0.06   0.02  -0.09
  45   1    -0.01  -0.05   0.08     0.01   0.00   0.00    -0.00   0.02  -0.07
  46   6    -0.07   0.03   0.06     0.15  -0.10   0.01    -0.00  -0.00   0.04
  47   8    -0.08  -0.06   0.18     0.18  -0.01   0.24    -0.00  -0.03   0.12
  48   7    -0.08   0.06   0.03     0.33  -0.21  -0.05     0.02   0.01  -0.00
  49   1    -0.02   0.02   0.01     0.12  -0.04  -0.00     0.01   0.00   0.00
  50   1    -0.02   0.05  -0.03     0.09  -0.06  -0.07     0.00   0.01  -0.02
  51   7    -0.05   0.11  -0.04    -0.03  -0.10  -0.17    -0.02   0.02  -0.00
  52   1    -0.01   0.03  -0.00    -0.01  -0.07  -0.07    -0.00   0.01  -0.01
  53   1    -0.01   0.00   0.03    -0.05  -0.02  -0.01    -0.01  -0.00   0.01
                     16                     17                     18
                        a                      a                      a 
 Frequencies --    87.6176                95.8004               110.1294
 Red. masses --    13.4626                12.2227                11.9941
 Frc consts  --     0.0000                 0.0000                 0.0000
 IR Inten    --     6.3832                 5.6969                 4.1338
 Raman Activ --     0.0000                 0.0000                 0.0000
 Depolar     --     0.0000                 0.0000                 0.0000
 Atom AN      X      Y      Z        X      Y      Z        X      Y      Z
   1   8    -0.17  -0.05   0.10     0.06   0.00   0.19     0.03  -0.10   0.18
   2   6    -0.20  -0.03   0.02    -0.01   0.09   0.09    -0.02   0.23   0.12
   3   1    -0.05  -0.02   0.02    -0.02   0.05  -0.01     0.01   0.12  -0.03
   4   1    -0.08  -0.02  -0.00    -0.01   0.05   0.06    -0.04   0.12   0.11
   5   6    -0.18   0.06  -0.02     0.03  -0.03   0.03    -0.02   0.16   0.12
   6   1    -0.06   0.02  -0.01     0.03  -0.01   0.02    -0.01   0.02   0.07
   7   1    -0.06   0.03  -0.01     0.00  -0.02  -0.00    -0.01   0.08   0.04
   8   7    -0.10   0.09  -0.03    -0.05  -0.10  -0.03     0.01   0.02  -0.08
   9   6    -0.01   0.07   0.03     0.08   0.01   0.08     0.11  -0.15  -0.02
  10   1     0.01   0.02   0.02     0.05   0.01   0.01     0.03  -0.06   0.02
  11   1     0.01   0.02  -0.00     0.03   0.00   0.02     0.05  -0.06  -0.04
  12   1    -0.01   0.02   0.03     0.01   0.02   0.06     0.02  -0.04   0.01
  13   6    -0.07   0.13  -0.12     0.02  -0.25  -0.15     0.05  -0.09  -0.14
  14   1    -0.02   0.03  -0.03     0.05  -0.08  -0.03     0.03  -0.04  -0.01
  15   1    -0.04   0.05  -0.05    -0.01  -0.08  -0.06    -0.00  -0.00  -0.05
  16   1     0.00   0.04  -0.04     0.00  -0.09  -0.06     0.02  -0.05  -0.07
  17   6    -0.10   0.07  -0.00    -0.31  -0.07  -0.02    -0.08   0.14  -0.27
  18   1    -0.01   0.03  -0.00    -0.11  -0.04  -0.02    -0.04   0.00  -0.11
  19   1    -0.04   0.02  -0.01    -0.11  -0.05  -0.03    -0.02   0.07  -0.07
  20   1    -0.03   0.01   0.02    -0.11   0.03   0.03    -0.03   0.07  -0.09
  21   1    -0.04   0.00   0.00     0.03  -0.01   0.06    -0.02  -0.04   0.07
  22   6     0.00  -0.02   0.01     0.08   0.01  -0.09    -0.09  -0.04   0.12
  23   8    -0.01  -0.06   0.06     0.12   0.11  -0.31    -0.17  -0.19   0.36
  24   7    -0.01   0.02  -0.04     0.10  -0.09   0.06    -0.14   0.12  -0.03
  25   1    -0.01   0.00   0.00     0.04  -0.02  -0.02    -0.06   0.03   0.04
  26   1     0.00   0.01  -0.01     0.02  -0.04   0.04    -0.02   0.06  -0.03
  27   7     0.03  -0.02  -0.00     0.04  -0.02   0.02    -0.00  -0.01  -0.00
  28   1     0.01   0.00  -0.01     0.01  -0.03   0.05     0.01   0.02  -0.05
  29   1     0.01  -0.01  -0.00     0.01   0.01  -0.01     0.00  -0.02   0.02
  30   6     0.12  -0.02   0.17    -0.18   0.12   0.05    -0.06  -0.01  -0.10
  31   8     0.17  -0.12   0.47    -0.31   0.08   0.14    -0.02   0.05  -0.25
  32   7     0.13   0.21  -0.09    -0.13   0.10  -0.02    -0.08  -0.06  -0.03
  33   1     0.04   0.07   0.01    -0.05   0.01   0.01    -0.02  -0.01  -0.02
  34   1     0.02   0.07  -0.06    -0.02   0.03  -0.01    -0.03  -0.03   0.02
  35   7     0.07  -0.11   0.16    -0.15   0.22   0.05    -0.08  -0.05  -0.03
  36   1     0.03  -0.00  -0.05    -0.01   0.07  -0.03    -0.03  -0.02   0.01
  37   1     0.04  -0.04   0.03    -0.04   0.06   0.01    -0.01  -0.00  -0.03
  38   6     0.04  -0.02  -0.05    -0.01  -0.00  -0.03     0.02   0.03   0.06
  39   8     0.05  -0.05  -0.09     0.07  -0.00  -0.08    -0.07   0.07   0.19
  40   7     0.10  -0.04  -0.06    -0.10   0.01   0.03     0.12   0.02  -0.07
  41   1     0.02  -0.01  -0.01    -0.01   0.00  -0.02     0.01   0.01   0.01
  42   1     0.01  -0.00  -0.00    -0.03   0.00   0.01     0.04  -0.00  -0.03
  43   7    -0.06   0.02   0.03    -0.02  -0.03  -0.01     0.03   0.00   0.07
  44   1     0.03   0.00  -0.03    -0.02  -0.01   0.01     0.05  -0.01  -0.02
  45   1     0.01   0.00  -0.02     0.01  -0.01  -0.01     0.00   0.00   0.03
  46   6     0.05  -0.03  -0.14     0.15  -0.03   0.00     0.10  -0.03  -0.05
  47   8     0.07   0.19  -0.35     0.18   0.03   0.04     0.12   0.00  -0.15
  48   7     0.08  -0.13  -0.06     0.23  -0.07  -0.02     0.10  -0.04  -0.02
  49   1     0.03  -0.03  -0.01     0.08  -0.01  -0.01     0.02  -0.01  -0.01
  50   1     0.02  -0.09   0.06     0.06  -0.03  -0.02     0.03  -0.03   0.03
  51   7    -0.01  -0.18   0.01     0.10  -0.05  -0.03     0.14  -0.07   0.03
  52   1    -0.00  -0.06  -0.00     0.03  -0.04   0.00     0.04  -0.01   0.00
  53   1    -0.01   0.00  -0.06     0.02  -0.02   0.01     0.04  -0.01  -0.02
                     19                     20                     21
                        a                      a                      a 
 Frequencies --   117.5410               122.4714               130.8565
 Red. masses --    12.3617                12.0609                11.7819
 Frc consts  --     0.0000                 0.0000                 0.0000
 IR Inten    --    14.0695                 5.3289                27.4056
 Raman Activ --     0.0000                 0.0000                 0.0000
 Depolar     --     0.0000                 0.0000                 0.0000
 Atom AN      X      Y      Z        X      Y      Z        X      Y      Z
   1   8    -0.04   0.08  -0.02    -0.07  -0.00   0.07     0.07   0.12  -0.08
   2   6    -0.04  -0.09  -0.04    -0.06   0.02   0.06     0.02  -0.13  -0.14
   3   1    -0.03  -0.04   0.01    -0.02   0.02   0.00    -0.03  -0.07   0.00
   4   1     0.01  -0.04  -0.03    -0.01   0.02   0.03     0.02  -0.06  -0.08
   5   6    -0.02  -0.14  -0.07    -0.06  -0.03   0.08     0.08  -0.14  -0.23
   6   1     0.01  -0.04  -0.02    -0.02  -0.02   0.05     0.04  -0.03  -0.08
   7   1    -0.01  -0.04  -0.03    -0.02   0.02   0.03     0.01  -0.06  -0.08
   8   7    -0.01  -0.17  -0.11    -0.06  -0.12  -0.03     0.11  -0.10  -0.19
   9   6    -0.08  -0.22  -0.16    -0.16  -0.30  -0.11     0.19   0.05  -0.11
  10   1    -0.03  -0.07  -0.03    -0.07  -0.10   0.00     0.08   0.03  -0.05
  11   1    -0.03  -0.07  -0.05    -0.05  -0.10  -0.05     0.06   0.03  -0.02
  12   1    -0.02  -0.06  -0.07    -0.04  -0.09  -0.06     0.05   0.02  -0.00
  13   6    -0.05  -0.10  -0.01    -0.11  -0.07   0.12     0.14  -0.08  -0.29
  14   1    -0.03  -0.03   0.00    -0.06  -0.03   0.06     0.05  -0.03  -0.08
  15   1     0.00  -0.02   0.01    -0.01   0.01   0.05     0.02  -0.02  -0.10
  16   1    -0.02  -0.03   0.00    -0.04  -0.03   0.02     0.06  -0.02  -0.09
  17   6     0.11  -0.13  -0.16     0.10  -0.03  -0.19    -0.01  -0.16  -0.04
  18   1     0.04  -0.04  -0.05     0.02  -0.02  -0.07     0.00  -0.03   0.01
  19   1     0.04  -0.01  -0.04     0.06   0.04  -0.03    -0.03  -0.09  -0.03
  20   1     0.04  -0.06  -0.06     0.04  -0.02  -0.10    -0.01  -0.04   0.02
  21   1     0.01   0.02  -0.01    -0.02  -0.00   0.02     0.05   0.04  -0.03
  22   6     0.03  -0.10   0.01     0.00   0.12  -0.03    -0.11   0.05   0.10
  23   8    -0.09  -0.27  -0.03     0.16   0.34  -0.06    -0.11   0.04   0.29
  24   7    -0.04   0.09   0.03     0.09  -0.14  -0.02    -0.12   0.07  -0.01
  25   1    -0.05   0.03   0.01     0.08  -0.05  -0.02    -0.03   0.01   0.04
  26   1     0.02   0.05   0.02    -0.01  -0.08  -0.01    -0.03   0.02  -0.01
  27   7     0.22  -0.16   0.04    -0.23   0.16  -0.04    -0.16   0.10   0.01
  28   1     0.08  -0.01   0.00    -0.08   0.00   0.02    -0.05   0.03  -0.03
  29   1     0.07  -0.05  -0.00    -0.07   0.06   0.01    -0.04   0.02   0.02
  30   6     0.06   0.15   0.08     0.08   0.13   0.01    -0.05   0.03   0.07
  31   8     0.18   0.19   0.13     0.21   0.21  -0.09    -0.04  -0.02   0.22
  32   7    -0.04   0.28   0.13    -0.03   0.19   0.13    -0.06   0.11   0.01
  33   1    -0.01   0.10   0.06     0.01   0.08   0.02    -0.03   0.03   0.04
  34   1    -0.05   0.07   0.04    -0.04   0.03   0.05    -0.03   0.04  -0.01
  35   7     0.02   0.08   0.02     0.02   0.03   0.03    -0.03   0.05  -0.04
  36   1    -0.01   0.02  -0.00    -0.02  -0.00   0.03    -0.00   0.02  -0.04
  37   1     0.02   0.01   0.00     0.02   0.00  -0.01    -0.01   0.00   0.01
  38   6    -0.04   0.11   0.03     0.01  -0.10   0.03     0.03  -0.05   0.06
  39   8     0.06   0.28   0.12    -0.14  -0.22   0.04    -0.12  -0.17   0.06
  40   7    -0.21   0.17  -0.09     0.15  -0.14   0.12     0.18  -0.09   0.16
  41   1    -0.05   0.06  -0.05     0.03  -0.04   0.04     0.03  -0.04   0.07
  42   1    -0.04   0.01  -0.06     0.05  -0.02   0.05     0.05   0.00   0.06
  43   7     0.04  -0.10   0.04     0.02   0.05  -0.04     0.03   0.13  -0.00
  44   1    -0.07  -0.05   0.04     0.08   0.03  -0.04     0.07   0.06  -0.02
  45   1     0.01  -0.03   0.07     0.00   0.02  -0.05    -0.00   0.04  -0.04
  46   6    -0.01   0.01   0.03     0.02  -0.01  -0.02    -0.02   0.04   0.07
  47   8    -0.01   0.03   0.09     0.03   0.03  -0.04    -0.02   0.03   0.17
  48   7     0.03  -0.00   0.00     0.03  -0.03  -0.01     0.04   0.03   0.02
  49   1     0.02   0.00   0.00     0.01  -0.01  -0.00     0.02   0.02   0.00
  50   1     0.01   0.00  -0.02     0.01  -0.02   0.01     0.01   0.02  -0.04
  51   7    -0.05   0.02  -0.02     0.01  -0.04   0.01    -0.07   0.07  -0.02
  52   1    -0.02  -0.01  -0.01     0.00  -0.00  -0.01    -0.02  -0.01   0.02
  53   1    -0.02   0.00   0.01     0.00   0.00  -0.02    -0.03  -0.01   0.04
                     22                     23                     24
                        a                      a                      a 
 Frequencies --   146.4472               161.3818               164.8197
 Red. masses --    12.0632                11.7955                 3.4486
 Frc consts  --     0.0000                 0.0000                 0.0000
 IR Inten    --     8.4373                29.0960                36.6876
 Raman Activ --     0.0000                 0.0000                 0.0000
 Depolar     --     0.0000                 0.0000                 0.0000
 Atom AN      X      Y      Z        X      Y      Z        X      Y      Z
   1   8     0.04  -0.28  -0.16     0.00  -0.02  -0.02     0.06   0.01   0.03
   2   6     0.09  -0.02  -0.06     0.02   0.00   0.00     0.01   0.02  -0.03
   3   1     0.06   0.02  -0.05     0.01   0.00  -0.00    -0.00   0.01  -0.01
   4   1     0.01   0.02   0.02     0.01   0.00   0.00    -0.00   0.01  -0.00
   5   6     0.04   0.00   0.04     0.00   0.02   0.03     0.03  -0.00  -0.06
   6   1    -0.01  -0.01   0.03    -0.01   0.00   0.01     0.02   0.01  -0.03
   7   1     0.02   0.03   0.03     0.00   0.01   0.01     0.01  -0.02  -0.02
   8   7     0.04  -0.05  -0.03     0.01   0.01   0.02    -0.02   0.02  -0.03
   9   6     0.08  -0.05   0.01    -0.01  -0.02   0.00    -0.06   0.05  -0.05
  10   1     0.03  -0.02   0.01    -0.01  -0.01   0.01    -0.03   0.02  -0.03
  11   1     0.02  -0.02  -0.01    -0.01  -0.01  -0.00    -0.01   0.03   0.00
  12   1     0.02  -0.00   0.01    -0.00  -0.00  -0.01    -0.01  -0.00  -0.02
  13   6     0.06  -0.11  -0.07    -0.00   0.01   0.04    -0.04   0.00   0.03
  14   1     0.03  -0.03  -0.02    -0.00   0.01   0.00    -0.02  -0.00   0.01
  15   1     0.01  -0.03  -0.03     0.01  -0.01   0.02     0.00   0.00   0.02
  16   1     0.02  -0.04  -0.03    -0.01   0.01   0.02    -0.02  -0.00   0.01
  17   6    -0.06  -0.02  -0.06     0.03   0.01  -0.00    -0.01   0.00  -0.00
  18   1    -0.02  -0.02  -0.03     0.01   0.00  -0.00    -0.02   0.00   0.01
  19   1    -0.03  -0.00  -0.02     0.01   0.01  -0.00     0.01  -0.01   0.01
  20   1    -0.02   0.01  -0.01     0.01  -0.00  -0.00     0.00   0.01  -0.02
  21   1    -0.04  -0.07  -0.05    -0.01  -0.01  -0.01     0.02   0.00   0.01
  22   6    -0.00   0.01   0.02    -0.20  -0.10  -0.17    -0.02  -0.01  -0.01
  23   8     0.00   0.01   0.06    -0.29  -0.09  -0.45    -0.03  -0.01  -0.04
  24   7     0.00   0.00   0.00    -0.28  -0.00   0.04    -0.03   0.01   0.00
  25   1     0.00   0.00   0.00    -0.11   0.01  -0.03    -0.01   0.00   0.00
  26   1    -0.00   0.00  -0.01    -0.05   0.01   0.05    -0.00   0.00   0.01
  27   7    -0.01   0.01   0.01    -0.09  -0.13  -0.09    -0.01  -0.01  -0.01
  28   1    -0.01   0.01  -0.01    -0.01  -0.04   0.06     0.00  -0.00   0.00
  29   1    -0.00   0.00   0.00    -0.02  -0.05  -0.03    -0.00  -0.00  -0.00
  30   6     0.08   0.16   0.12     0.01   0.01   0.01    -0.03  -0.02  -0.00
  31   8    -0.18   0.18   0.02    -0.02   0.02  -0.01    -0.01  -0.04   0.05
  32   7     0.31  -0.05   0.04     0.03  -0.01   0.00    -0.06   0.03  -0.03
  33   1     0.06  -0.07  -0.03     0.01  -0.01  -0.00    -0.01   0.02   0.00
  34   1     0.14  -0.02   0.05     0.01  -0.00   0.01    -0.02   0.02  -0.02
  35   7     0.15   0.36   0.33     0.01   0.03   0.03    -0.02  -0.03  -0.11
  36   1     0.08   0.10   0.08     0.01   0.01   0.01    -0.04  -0.03   0.05
  37   1     0.03   0.12   0.08     0.00   0.01   0.01    -0.03  -0.03   0.02
  38   6    -0.01  -0.01   0.01     0.22   0.08   0.11     0.02   0.01   0.01
  39   8    -0.01  -0.01   0.01     0.22   0.00   0.08     0.01  -0.01   0.01
  40   7     0.01  -0.01  -0.01     0.22   0.05   0.22     0.03   0.00   0.02
  41   1     0.00  -0.00  -0.00     0.05   0.01   0.08     0.01  -0.00   0.00
  42   1     0.01  -0.00  -0.01    -0.01   0.04   0.12     0.01   0.00   0.01
  43   7     0.01  -0.01  -0.01     0.11   0.16   0.21     0.02   0.02   0.01
  44   1    -0.05   0.01   0.04     0.27   0.01  -0.15    -0.00   0.01   0.01
  45   1    -0.04   0.00   0.03     0.19   0.02  -0.10    -0.00   0.01   0.00
  46   6    -0.13  -0.03  -0.08    -0.01  -0.00  -0.01     0.04   0.00   0.02
  47   8    -0.16  -0.10  -0.21    -0.02  -0.01  -0.03     0.04  -0.07   0.15
  48   7    -0.29   0.04  -0.03    -0.03  -0.00   0.01     0.05   0.09  -0.12
  49   1    -0.12  -0.03   0.03    -0.01   0.01  -0.02     0.01  -0.14   0.22
  50   1    -0.08  -0.02   0.10    -0.01   0.02  -0.01     0.01  -0.19   0.28
  51   7    -0.04  -0.05   0.05     0.00   0.01  -0.01     0.01  -0.14   0.23
  52   1    -0.00   0.07  -0.07    -0.00  -0.02   0.03     0.05   0.34  -0.51
  53   1     0.02   0.04  -0.09     0.00  -0.02   0.02     0.03   0.27  -0.40
                     25                     26                     27
                        a                      a                      a 
 Frequencies --   176.1096               193.1941               198.5642
 Red. masses --     4.0912                12.5936                 9.7953
 Frc consts  --     0.0000                 0.0000                 0.0000
 IR Inten    --   166.3009                63.8102                 3.3983
 Raman Activ --     0.0000                 0.0000                 0.0000
 Depolar     --     0.0000                 0.0000                 0.0000
 Atom AN      X      Y      Z        X      Y      Z        X      Y      Z
   1   8    -0.02   0.02   0.02    -0.04   0.04  -0.05     0.27  -0.21   0.44
   2   6    -0.01   0.01   0.02    -0.01  -0.01  -0.01    -0.02   0.10   0.06
   3   1    -0.00   0.00   0.01    -0.00  -0.01   0.00    -0.05   0.07  -0.04
   4   1    -0.00   0.00   0.00     0.01  -0.01  -0.01    -0.07   0.07   0.08
   5   6    -0.01  -0.00   0.01    -0.02  -0.01   0.01     0.19  -0.06  -0.30
   6   1     0.00   0.00   0.00    -0.01  -0.01   0.01     0.15   0.02  -0.14
   7   1    -0.01  -0.01  -0.00    -0.00   0.00   0.01     0.02  -0.12  -0.13
   8   7    -0.01  -0.00   0.01     0.00  -0.02  -0.00    -0.02   0.03  -0.12
   9   6    -0.02  -0.01   0.01     0.03  -0.02   0.02    -0.19   0.21  -0.24
  10   1    -0.01  -0.00   0.00     0.02  -0.01   0.01    -0.15   0.13  -0.16
  11   1    -0.01  -0.01   0.00     0.01  -0.01   0.00    -0.01   0.16   0.03
  12   1    -0.01  -0.00   0.00     0.01   0.00   0.01    -0.03  -0.06  -0.09
  13   6    -0.02   0.00   0.02     0.02  -0.01  -0.05    -0.09  -0.02   0.13
  14   1    -0.01   0.00   0.00     0.01  -0.01  -0.01    -0.05  -0.02   0.07
  15   1    -0.00  -0.00   0.01    -0.01   0.01  -0.02     0.02   0.02   0.07
  16   1    -0.01   0.00   0.01     0.01  -0.01  -0.02    -0.06  -0.03   0.02
  17   6     0.00   0.00   0.00    -0.01  -0.02   0.00     0.02  -0.04  -0.00
  18   1     0.01   0.00  -0.01    -0.00  -0.00   0.00    -0.13  -0.02   0.08
  19   1    -0.01   0.01  -0.00     0.00  -0.00   0.00     0.12  -0.07   0.07
  20   1     0.00  -0.01   0.01    -0.00  -0.00   0.00     0.02   0.05  -0.13
  21   1    -0.00   0.01   0.01    -0.00   0.01  -0.01     0.03  -0.05   0.09
  22   6    -0.08  -0.02  -0.06    -0.15  -0.01   0.03    -0.03   0.00   0.01
  23   8    -0.12  -0.02  -0.17    -0.01   0.15   0.24    -0.01   0.01   0.04
  24   7    -0.12   0.05   0.03    -0.05  -0.30  -0.11    -0.02  -0.02  -0.02
  25   1    -0.05   0.02  -0.01     0.06  -0.10  -0.01     0.00  -0.01   0.01
  26   1    -0.02   0.02   0.03    -0.07  -0.13  -0.08    -0.01  -0.01  -0.00
  27   7    -0.02  -0.04  -0.01    -0.39   0.06  -0.04    -0.05   0.01  -0.00
  28   1     0.00   0.00   0.00    -0.12   0.01  -0.06    -0.02   0.00  -0.01
  29   1    -0.00  -0.02  -0.03    -0.12   0.05  -0.02    -0.02   0.01  -0.00
  30   6    -0.00  -0.00  -0.00    -0.00  -0.00  -0.00     0.02  -0.00   0.02
  31   8     0.01   0.00  -0.00     0.01   0.00  -0.00    -0.00  -0.01   0.05
  32   7    -0.01   0.01   0.00    -0.01   0.01   0.01     0.03  -0.00  -0.00
  33   1    -0.00   0.01  -0.00    -0.00   0.01  -0.00     0.00  -0.01   0.01
  34   1    -0.01   0.00  -0.00    -0.01   0.00  -0.00     0.01  -0.00   0.01
  35   7    -0.01  -0.01  -0.01    -0.00  -0.01  -0.01     0.01   0.00   0.03
  36   1    -0.00  -0.00  -0.01    -0.00  -0.00  -0.00     0.02   0.01  -0.03
  37   1     0.00  -0.00  -0.00    -0.00  -0.00  -0.00     0.01   0.00  -0.01
  38   6     0.05  -0.00   0.07     0.16   0.08  -0.02     0.01   0.01   0.01
  39   8     0.06  -0.11  -0.03     0.49   0.20  -0.13     0.04   0.03   0.00
  40   7     0.27  -0.03  -0.01    -0.09   0.13  -0.08    -0.01   0.02  -0.00
  41   1     0.11  -0.04  -0.04    -0.03   0.08  -0.04    -0.00   0.01  -0.00
  42   1     0.17  -0.04  -0.08    -0.09   0.02  -0.00    -0.00   0.00  -0.00
  43   7     0.19   0.10  -0.07     0.11  -0.23   0.18     0.02  -0.02   0.01
  44   1    -0.49   0.15   0.49    -0.12  -0.10   0.11    -0.01  -0.01   0.01
  45   1    -0.35   0.09   0.29     0.08  -0.08   0.11     0.01  -0.01   0.01
  46   6     0.01  -0.00   0.00     0.01   0.00   0.01    -0.04  -0.02  -0.03
  47   8     0.01   0.01   0.00     0.01   0.01   0.02    -0.04  -0.06  -0.10
  48   7     0.02  -0.01   0.00     0.02  -0.00  -0.00    -0.10   0.01  -0.01
  49   1     0.01   0.01  -0.01     0.01  -0.00   0.00    -0.04   0.01  -0.02
  50   1     0.01   0.01  -0.02     0.01  -0.01   0.00    -0.03   0.02  -0.01
  51   7    -0.00   0.00  -0.02    -0.01  -0.00  -0.00     0.04   0.02  -0.03
  52   1    -0.00  -0.02   0.03    -0.00   0.00  -0.01     0.01  -0.04   0.10
  53   1    -0.00  -0.02   0.02    -0.00   0.01  -0.01     0.02  -0.05   0.06
                     28                     29                     30
                        a                      a                      a 
 Frequencies --   242.4277               263.7260               293.9514
 Red. masses --    12.9858                 4.5881                 2.5645
 Frc consts  --     0.0000                 0.0000                 0.0000
 IR Inten    --     8.8616                 3.8854               115.3651
 Raman Activ --     0.0000                 0.0000                 0.0000
 Depolar     --     0.0000                 0.0000                 0.0000
 Atom AN      X      Y      Z        X      Y      Z        X      Y      Z
   1   8    -0.12   0.61   0.16     0.19  -0.04   0.22     0.00   0.01   0.01
   2   6    -0.11   0.13   0.15     0.06  -0.23   0.02    -0.00  -0.02   0.00
   3   1    -0.10   0.01   0.09     0.02  -0.14   0.10    -0.00  -0.01   0.01
   4   1     0.03   0.01  -0.00    -0.03  -0.14  -0.09    -0.00  -0.01  -0.01
   5   6     0.00  -0.06  -0.00     0.06   0.09  -0.05     0.00  -0.00  -0.01
   6   1     0.05  -0.01  -0.01    -0.02   0.03  -0.02    -0.00  -0.00   0.00
   7   1    -0.03  -0.04  -0.03     0.03   0.04   0.00    -0.00   0.00  -0.00
   8   7     0.05  -0.05   0.00    -0.01   0.09  -0.05     0.01  -0.01  -0.01
   9   6     0.02   0.01  -0.02    -0.11   0.11  -0.12     0.01   0.02  -0.01
  10   1     0.06  -0.02   0.03     0.12  -0.05   0.08     0.01   0.01  -0.01
  11   1    -0.06  -0.04  -0.03    -0.19  -0.10  -0.14     0.00   0.01   0.00
  12   1     0.00   0.09  -0.02    -0.05   0.25  -0.07     0.00   0.01  -0.00
  13   6     0.06  -0.00  -0.04    -0.04  -0.08   0.10    -0.00  -0.02   0.01
  14   1     0.02   0.01  -0.03     0.03   0.05  -0.09    -0.01  -0.02   0.03
  15   1     0.01  -0.01  -0.02     0.04  -0.19   0.06     0.00   0.02   0.01
  16   1     0.02   0.01   0.00    -0.12   0.04   0.16     0.00  -0.02  -0.02
  17   6     0.09  -0.09   0.08    -0.08   0.15  -0.17    -0.00   0.00  -0.03
  18   1     0.04  -0.01   0.04     0.30   0.08  -0.21     0.00  -0.00  -0.01
  19   1     0.02  -0.04   0.02    -0.30   0.17  -0.21    -0.00   0.01  -0.01
  20   1     0.03  -0.04   0.03    -0.06  -0.12   0.26    -0.00   0.00  -0.01
  21   1    -0.01   0.18   0.01     0.04   0.03  -0.01     0.01   0.00   0.00
  22   6    -0.00   0.00   0.00    -0.00   0.00   0.02    -0.00  -0.00   0.00
  23   8    -0.00  -0.00   0.01     0.01   0.00   0.04    -0.00  -0.01   0.01
  24   7    -0.00   0.01   0.01     0.01  -0.02  -0.01     0.00   0.00   0.01
  25   1    -0.00   0.00  -0.00     0.01  -0.00  -0.02    -0.01   0.01  -0.02
  26   1     0.00   0.01  -0.00    -0.01   0.00  -0.04    -0.00   0.01  -0.03
  27   7     0.00  -0.00   0.00    -0.01   0.01  -0.02     0.00   0.00  -0.01
  28   1     0.00   0.00  -0.00    -0.00  -0.01   0.02     0.00  -0.01   0.02
  29   1     0.00   0.00  -0.00    -0.00  -0.00   0.02     0.00  -0.00   0.01
  30   6     0.01   0.02   0.01    -0.01  -0.00   0.00     0.00   0.04   0.01
  31   8    -0.04   0.02  -0.00    -0.01  -0.01   0.00    -0.01   0.02   0.04
  32   7     0.05  -0.03   0.00     0.00  -0.01  -0.01    -0.11  -0.18   0.24
  33   1     0.01  -0.02  -0.01    -0.00  -0.01   0.01     0.16   0.19  -0.31
  34   1     0.03  -0.01   0.01    -0.00  -0.01   0.01     0.24   0.40  -0.59
  35   7     0.01   0.04   0.04    -0.00   0.01   0.00     0.03   0.04  -0.08
  36   1     0.01   0.02  -0.02     0.00   0.01  -0.01    -0.13  -0.10   0.33
  37   1     0.01   0.00   0.00    -0.00   0.00   0.00    -0.04  -0.03   0.09
  38   6    -0.01   0.00   0.00     0.01  -0.00   0.00    -0.00   0.00   0.00
  39   8    -0.01   0.00   0.00     0.02  -0.01  -0.01    -0.00   0.00   0.00
  40   7     0.01  -0.01  -0.01    -0.01   0.00   0.02     0.00   0.00  -0.00
  41   1    -0.00   0.00   0.00     0.01   0.00  -0.01    -0.00   0.00   0.00
  42   1    -0.01   0.00   0.01    -0.01  -0.00   0.01    -0.00   0.00   0.00
  43   7     0.00   0.00  -0.01     0.00  -0.01   0.02    -0.00   0.00  -0.00
  44   1     0.01  -0.00  -0.01    -0.00  -0.00   0.00     0.00   0.00  -0.00
  45   1     0.00   0.00  -0.01     0.01  -0.00   0.00     0.00   0.00  -0.00
  46   6    -0.04  -0.20  -0.11    -0.01  -0.02   0.01     0.00   0.00  -0.02
  47   8    -0.04  -0.35  -0.16    -0.02  -0.04   0.01     0.00   0.01  -0.04
  48   7    -0.23  -0.05  -0.08    -0.03   0.02  -0.02    -0.01  -0.01   0.01
  49   1    -0.10  -0.04  -0.01    -0.01  -0.01   0.02    -0.00   0.01  -0.02
  50   1    -0.06   0.01   0.03    -0.01  -0.01   0.02    -0.00   0.03  -0.03
  51   7     0.27  -0.07  -0.05     0.02   0.02  -0.02     0.02  -0.00   0.00
  52   1     0.08   0.06   0.02     0.00  -0.01   0.03     0.00  -0.01   0.03
  53   1     0.15  -0.06  -0.04     0.01  -0.02   0.02     0.01  -0.00  -0.00
                     31                     32                     33
                        a                      a                      a 
 Frequencies --   302.3311               310.3956               315.2195
 Red. masses --     2.2227                 7.8853                 4.1242
 Frc consts  --     0.0000                 0.0000                 0.0000
 IR Inten    --    89.6900                 0.5945                14.2456
 Raman Activ --     0.0000                 0.0000                 0.0000
 Depolar     --     0.0000                 0.0000                 0.0000
 Atom AN      X      Y      Z        X      Y      Z        X      Y      Z
   1   8    -0.02   0.01  -0.01     0.31   0.04   0.06     0.12   0.19   0.04
   2   6    -0.01   0.01  -0.01     0.12   0.22  -0.11     0.07  -0.26  -0.02
   3   1    -0.01   0.01  -0.01     0.02   0.10  -0.08     0.01  -0.16   0.11
   4   1    -0.00   0.01   0.00     0.03   0.11   0.03     0.03  -0.17  -0.14
   5   6    -0.00  -0.01  -0.01     0.04  -0.03  -0.06     0.00   0.04   0.02
   6   1     0.00  -0.00  -0.00     0.03  -0.01  -0.01    -0.03   0.02  -0.01
   7   1    -0.00  -0.01  -0.00     0.04  -0.04   0.01     0.01   0.02   0.02
   8   7     0.00  -0.01  -0.01    -0.15  -0.07  -0.02    -0.04   0.06   0.05
   9   6     0.01  -0.01  -0.00    -0.02  -0.33   0.07     0.03  -0.02   0.10
  10   1    -0.02   0.01  -0.02    -0.11  -0.07   0.00    -0.22   0.11  -0.13
  11   1     0.03   0.02   0.02     0.13  -0.05   0.03     0.24   0.18   0.17
  12   1     0.01  -0.04   0.01     0.00  -0.24   0.06     0.03  -0.32   0.07
  13   6     0.00  -0.00   0.00    -0.17   0.37  -0.13    -0.03  -0.05   0.07
  14   1    -0.00  -0.01   0.01    -0.11   0.16  -0.12    -0.06  -0.16   0.27
  15   1     0.01   0.02   0.01    -0.06   0.07  -0.05    -0.05   0.27   0.01
  16   1     0.01  -0.01  -0.01     0.02   0.20   0.04     0.08  -0.18  -0.23
  17   6    -0.01  -0.01  -0.00    -0.15  -0.17   0.15    -0.14   0.19  -0.16
  18   1    -0.00  -0.00   0.00     0.16   0.02  -0.01     0.02   0.02  -0.13
  19   1    -0.00  -0.00  -0.00    -0.23  -0.04  -0.07    -0.11   0.12  -0.08
  20   1    -0.00   0.00  -0.00    -0.07  -0.15   0.25    -0.05   0.04   0.02
  21   1    -0.00  -0.00   0.00     0.07  -0.00   0.03     0.06   0.08  -0.04
  22   6    -0.01  -0.01   0.01    -0.00  -0.00   0.01     0.00  -0.01   0.00
  23   8    -0.02  -0.03   0.03     0.00  -0.00   0.01    -0.00  -0.00  -0.01
  24   7     0.08  -0.07   0.27    -0.00   0.00  -0.02    -0.01   0.00  -0.02
  25   1    -0.07   0.09  -0.42     0.00  -0.00   0.01     0.00  -0.00   0.02
  26   1    -0.08   0.24  -0.69     0.00  -0.01   0.01     0.00  -0.02   0.04
  27   7    -0.01   0.04  -0.06     0.00   0.00  -0.01     0.01  -0.00  -0.01
  28   1     0.00  -0.11   0.36     0.00  -0.00   0.01     0.00  -0.00   0.00
  29   1    -0.01  -0.04   0.10     0.00  -0.00   0.01     0.00  -0.00   0.00
  30   6     0.00  -0.00   0.00     0.02   0.00   0.01     0.01   0.00  -0.01
  31   8     0.01  -0.00   0.00     0.01   0.00   0.00     0.01   0.01  -0.02
  32   7     0.00   0.01  -0.01     0.01   0.00   0.01     0.01   0.01   0.00
  33   1    -0.01  -0.01   0.01     0.01   0.01  -0.01    -0.00  -0.00   0.01
  34   1    -0.01  -0.02   0.03     0.01   0.02  -0.02    -0.01  -0.02   0.03
  35   7    -0.00  -0.01   0.00     0.01  -0.01  -0.01     0.00  -0.01   0.02
  36   1     0.01   0.00  -0.02    -0.01  -0.01   0.02     0.01   0.01  -0.04
  37   1     0.00  -0.00  -0.01     0.00  -0.01   0.00     0.01   0.00  -0.01
  38   6     0.01  -0.00  -0.01     0.00  -0.00  -0.01     0.00  -0.00   0.00
  39   8     0.01  -0.00  -0.02     0.01   0.00  -0.01     0.00  -0.00   0.00
  40   7    -0.00   0.00  -0.01    -0.00  -0.00   0.01    -0.00   0.00   0.01
  41   1    -0.00   0.00  -0.00     0.00  -0.00  -0.00     0.00   0.00  -0.01
  42   1    -0.00  -0.00  -0.00    -0.00   0.00   0.00    -0.01  -0.00   0.00
  43   7    -0.01   0.03  -0.00    -0.00  -0.00   0.00     0.00   0.00   0.00
  44   1    -0.01   0.02   0.01    -0.00  -0.00  -0.00    -0.00   0.00   0.00
  45   1    -0.01   0.01  -0.01     0.00  -0.00   0.00     0.00   0.00  -0.00
  46   6     0.00  -0.00   0.00    -0.02  -0.01  -0.01    -0.03  -0.05  -0.00
  47   8     0.00   0.00   0.00    -0.02  -0.02  -0.03    -0.03  -0.06  -0.01
  48   7     0.00   0.00  -0.00    -0.04  -0.00   0.00    -0.06   0.01  -0.05
  49   1     0.00  -0.00   0.00    -0.01   0.00  -0.00    -0.02  -0.02   0.03
  50   1     0.00  -0.01   0.01    -0.01   0.01  -0.01    -0.02  -0.04   0.06
  51   7    -0.00   0.00  -0.00     0.02   0.01   0.01     0.05   0.02  -0.03
  52   1    -0.00  -0.00   0.00     0.01   0.01   0.01     0.01  -0.00   0.04
  53   1    -0.00  -0.00   0.00     0.02  -0.00  -0.00     0.03  -0.03   0.02
                     34                     35                     36
                        a                      a                      a 
 Frequencies --   333.8208               341.4899               352.5410
 Red. masses --     4.1626                 4.9151                 2.8301
 Frc consts  --     0.0000                 0.0000                 0.0000
 IR Inten    --   134.5192                86.4159                 0.1964
 Raman Activ --     0.0000                 0.0000                 0.0000
 Depolar     --     0.0000                 0.0000                 0.0000
 Atom AN      X      Y      Z        X      Y      Z        X      Y      Z
   1   8    -0.17  -0.01  -0.06    -0.25  -0.06  -0.14     0.01   0.11   0.01
   2   6    -0.05   0.10   0.09    -0.07   0.20   0.08    -0.04  -0.08  -0.06
   3   1    -0.01   0.05  -0.01    -0.00   0.11  -0.05    -0.04  -0.04   0.01
   4   1     0.00   0.06   0.06    -0.00   0.12   0.10     0.00  -0.04  -0.05
   5   6     0.02  -0.02   0.02    -0.01  -0.01   0.06    -0.04  -0.04  -0.04
   6   1     0.04  -0.00   0.00     0.04  -0.01   0.03    -0.03   0.00  -0.03
   7   1    -0.02  -0.02  -0.02    -0.02  -0.00  -0.01     0.01  -0.02   0.01
   8   7     0.05  -0.03  -0.01     0.06  -0.06  -0.01    -0.04   0.00   0.02
   9   6    -0.02   0.13  -0.06    -0.02   0.15  -0.07     0.17  -0.04   0.16
  10   1    -0.12   0.12  -0.13    -0.14   0.14  -0.16    -0.07   0.07  -0.07
  11   1     0.08   0.15   0.10     0.09   0.19   0.12     0.23   0.12   0.14
  12   1     0.01  -0.12  -0.02     0.02  -0.15  -0.03     0.05  -0.23   0.13
  13   6     0.05  -0.12   0.04     0.06  -0.15   0.03    -0.05  -0.06   0.08
  14   1     0.03  -0.04   0.03     0.05  -0.02  -0.04     0.07   0.18  -0.33
  15   1     0.02  -0.03   0.01     0.03  -0.12   0.01     0.06  -0.44   0.06
  16   1    -0.00  -0.05   0.00    -0.03  -0.02   0.06    -0.19   0.20   0.37
  17   6     0.10  -0.05  -0.01     0.16  -0.10   0.03    -0.01   0.13  -0.19
  18   1     0.23   0.03  -0.08     0.28   0.03  -0.07    -0.12  -0.02  -0.05
  19   1    -0.14   0.06  -0.10    -0.14   0.05  -0.10     0.11   0.06   0.01
  20   1     0.01  -0.13   0.17     0.03  -0.17   0.20     0.01   0.11  -0.19
  21   1    -0.04  -0.04   0.05    -0.08  -0.04   0.00     0.03   0.03  -0.00
  22   6    -0.00   0.00   0.01     0.00   0.00   0.00     0.00   0.01  -0.01
  23   8     0.00   0.00   0.01     0.00   0.00   0.00     0.00   0.01   0.00
  24   7    -0.00  -0.00  -0.02    -0.00  -0.00  -0.01     0.01  -0.00   0.02
  25   1     0.00  -0.00   0.01     0.00  -0.00   0.01    -0.00  -0.00   0.01
  26   1     0.00  -0.01   0.01     0.00  -0.01   0.02     0.00   0.00  -0.01
  27   7    -0.00   0.00  -0.01     0.00   0.00   0.00    -0.01   0.00   0.02
  28   1     0.00  -0.00   0.01    -0.00   0.01  -0.02    -0.01   0.01  -0.03
  29   1     0.00  -0.00   0.01     0.00   0.00  -0.00    -0.01   0.01  -0.01
  30   6    -0.01  -0.01   0.03     0.01   0.00  -0.02     0.00  -0.01   0.02
  31   8    -0.02  -0.01   0.03     0.02  -0.00  -0.01    -0.00  -0.01   0.03
  32   7     0.03   0.04  -0.05    -0.03  -0.03   0.04     0.01   0.01  -0.01
  33   1    -0.02  -0.02   0.03     0.01   0.02  -0.02    -0.00  -0.00   0.01
  34   1    -0.02  -0.05   0.07     0.02   0.04  -0.07     0.00   0.01  -0.01
  35   7     0.03   0.02  -0.06    -0.02  -0.02   0.05     0.01  -0.00  -0.02
  36   1    -0.05  -0.04   0.13     0.04   0.04  -0.12    -0.01  -0.01   0.04
  37   1    -0.02  -0.01   0.03     0.02   0.01  -0.03    -0.00  -0.00   0.01
  38   6     0.00  -0.00  -0.00    -0.00  -0.00   0.00    -0.00   0.00   0.01
  39   8     0.00  -0.00  -0.00    -0.00  -0.00   0.00    -0.01  -0.00   0.01
  40   7    -0.00   0.00   0.01     0.01  -0.01   0.00     0.00  -0.00  -0.00
  41   1     0.01  -0.00  -0.01     0.00   0.00  -0.00    -0.00   0.00   0.00
  42   1     0.01  -0.00  -0.00    -0.02   0.01   0.02    -0.01   0.00   0.01
  43   7    -0.00  -0.00   0.01    -0.00  -0.00   0.00     0.01   0.00  -0.00
  44   1     0.00  -0.00  -0.00     0.01  -0.00  -0.01    -0.00   0.00   0.00
  45   1     0.00  -0.00   0.00     0.00  -0.00  -0.00    -0.00   0.00   0.00
  46   6     0.01   0.07  -0.11     0.02  -0.03   0.08    -0.01  -0.01  -0.02
  47   8     0.00   0.02  -0.06     0.03   0.02   0.04    -0.02  -0.02  -0.01
  48   7     0.00  -0.14   0.21     0.03   0.10  -0.14    -0.03  -0.01   0.00
  49   1     0.00   0.11  -0.19     0.00  -0.07   0.12    -0.00   0.00  -0.01
  50   1     0.00   0.33  -0.47     0.01  -0.25   0.36    -0.01   0.02  -0.03
  51   7    -0.01  -0.12   0.17    -0.02   0.07  -0.13     0.03  -0.00   0.01
  52   1     0.02   0.14  -0.20    -0.02  -0.11   0.13     0.01   0.01   0.01
  53   1     0.01   0.08  -0.13    -0.03  -0.05   0.09     0.02  -0.00  -0.01
                     37                     38                     39
                        a                      a                      a 
 Frequencies --   372.6347               385.2032               407.6909
 Red. masses --     7.0344                 3.3872                 3.4885
 Frc consts  --     0.0000                 0.0000                 0.0000
 IR Inten    --     9.1053               486.2565               212.7553
 Raman Activ --     0.0000                 0.0000                 0.0000
 Depolar     --     0.0000                 0.0000                 0.0000
 Atom AN      X      Y      Z        X      Y      Z        X      Y      Z
   1   8    -0.12  -0.01  -0.08     0.03   0.01   0.02     0.01   0.01   0.00
   2   6    -0.15   0.12  -0.11     0.02  -0.03   0.01     0.02  -0.01   0.01
   3   1    -0.10   0.10  -0.13     0.01  -0.02   0.02     0.01  -0.00   0.00
   4   1    -0.01   0.11   0.07     0.00  -0.02  -0.02     0.01  -0.01  -0.00
   5   6     0.04  -0.25  -0.29    -0.00   0.03   0.03    -0.01   0.00   0.04
   6   1     0.13  -0.01  -0.17    -0.02   0.00   0.02    -0.01  -0.00   0.02
   7   1    -0.02  -0.21  -0.14     0.01   0.03   0.02    -0.00   0.01   0.01
   8   7     0.04  -0.04   0.03    -0.01   0.01  -0.00    -0.00  -0.01   0.02
   9   6     0.29  -0.01   0.22    -0.04  -0.00  -0.02    -0.03   0.01  -0.01
  10   1     0.23  -0.05   0.12    -0.03   0.00  -0.01    -0.02   0.01  -0.01
  11   1     0.05  -0.08  -0.03    -0.00   0.01   0.00    -0.01   0.01   0.01
  12   1     0.04   0.13   0.15    -0.01  -0.02  -0.01    -0.00  -0.01  -0.01
  13   6    -0.07   0.06   0.36     0.01  -0.00  -0.06     0.02  -0.02  -0.05
  14   1    -0.11  -0.03   0.20     0.02   0.01  -0.04     0.02   0.01  -0.05
  15   1     0.05   0.14   0.16    -0.01  -0.04  -0.02    -0.01  -0.04  -0.03
  16   1    -0.03  -0.03   0.04    -0.00   0.02   0.01     0.00   0.02   0.01
  17   6    -0.05   0.08  -0.16     0.01   0.01   0.01     0.03  -0.01   0.01
  18   1     0.04  -0.02  -0.14    -0.01   0.00   0.02    -0.01  -0.01   0.01
  19   1    -0.09   0.09  -0.09     0.02  -0.01   0.01     0.03   0.01   0.02
  20   1    -0.04   0.04   0.02     0.01   0.00  -0.01     0.01   0.01  -0.03
  21   1    -0.02  -0.03   0.02     0.01  -0.00   0.01    -0.00   0.01  -0.01
  22   6    -0.00  -0.00   0.02    -0.00  -0.00   0.00    -0.02  -0.02   0.14
  23   8    -0.00   0.00   0.01    -0.00  -0.00   0.00    -0.02  -0.00   0.06
  24   7    -0.00   0.00  -0.04    -0.00   0.00  -0.00    -0.03   0.05  -0.21
  25   1     0.01  -0.00   0.01    -0.00   0.00  -0.00     0.03  -0.02   0.07
  26   1     0.00  -0.02   0.04     0.00  -0.00   0.01     0.02  -0.10   0.23
  27   7     0.00   0.01  -0.03     0.00   0.00  -0.01     0.00   0.09  -0.21
  28   1     0.00  -0.02   0.06     0.00  -0.01   0.02     0.02  -0.19   0.63
  29   1     0.00  -0.01   0.01     0.00  -0.00   0.00     0.01  -0.04   0.07
  30   6    -0.00   0.01  -0.02     0.04   0.02  -0.11    -0.00   0.00   0.00
  31   8     0.00   0.01  -0.01     0.07   0.01  -0.07    -0.00   0.00   0.00
  32   7    -0.01  -0.02   0.02    -0.10  -0.13   0.17     0.01   0.00  -0.01
  33   1     0.01   0.00  -0.01     0.05   0.07  -0.08    -0.00  -0.01   0.01
  34   1     0.01   0.01  -0.02     0.05   0.15  -0.23     0.00  -0.01   0.01
  35   7    -0.02  -0.00   0.04    -0.10  -0.04   0.26     0.00   0.00  -0.01
  36   1     0.03   0.04  -0.11     0.24   0.24  -0.71    -0.01  -0.01   0.04
  37   1     0.01  -0.00  -0.01     0.05   0.00  -0.05    -0.00   0.00  -0.00
  38   6     0.01  -0.00   0.00     0.00  -0.00  -0.00     0.07  -0.02  -0.04
  39   8     0.01  -0.01  -0.00     0.00  -0.00  -0.00     0.05  -0.04  -0.05
  40   7    -0.03   0.01   0.02    -0.01   0.00   0.00    -0.17   0.08   0.06
  41   1     0.02  -0.01  -0.02    -0.00  -0.00   0.00     0.01  -0.03  -0.03
  42   1     0.04  -0.02  -0.03     0.02  -0.01  -0.02     0.40  -0.13  -0.31
  43   7    -0.00   0.01   0.01    -0.00   0.00   0.00    -0.05   0.04   0.08
  44   1     0.01   0.00  -0.01     0.00   0.00  -0.00     0.03   0.02   0.00
  45   1     0.00   0.00  -0.00     0.00   0.00  -0.00     0.03   0.01  -0.05
  46   6     0.01   0.01   0.00    -0.01   0.02  -0.01    -0.00  -0.01  -0.00
  47   8     0.01   0.01   0.00    -0.01  -0.00   0.01    -0.00  -0.00   0.00
  48   7     0.01  -0.00   0.01     0.01  -0.05   0.07    -0.01   0.00  -0.01
  49   1     0.00   0.00  -0.01     0.01   0.02  -0.04     0.00  -0.00   0.00
  50   1     0.00  -0.00   0.00     0.00   0.10  -0.15    -0.00  -0.02   0.03
  51   7    -0.01  -0.00   0.00    -0.03  -0.04   0.07     0.01   0.01  -0.01
  52   1    -0.00   0.01  -0.02     0.01   0.13  -0.19     0.00  -0.01   0.02
  53   1    -0.01   0.00   0.00    -0.00   0.00  -0.01     0.01  -0.00   0.00
                     40                     41                     42
                        a                      a                      a 
 Frequencies --   424.9105               431.8704               457.2995
 Red. masses --     8.8134                 2.8789                 8.2449
 Frc consts  --     0.0000                 0.0000                 0.0000
 IR Inten    --     0.9250               341.0912                 8.1166
 Raman Activ --     0.0000                 0.0000                 0.0000
 Depolar     --     0.0000                 0.0000                 0.0000
 Atom AN      X      Y      Z        X      Y      Z        X      Y      Z
   1   8     0.25  -0.01   0.07     0.01   0.01   0.01     0.01   0.00   0.01
   2   6     0.02   0.08  -0.16    -0.01   0.01  -0.02    -0.01   0.01  -0.03
   3   1    -0.01   0.04  -0.06    -0.00   0.00  -0.01     0.00  -0.00   0.00
   4   1    -0.00   0.04  -0.02    -0.00  -0.00  -0.01    -0.01  -0.00  -0.01
   5   6    -0.11  -0.04  -0.01    -0.02   0.02  -0.01    -0.03   0.05  -0.01
   6   1    -0.05  -0.02   0.00    -0.01   0.00   0.00    -0.03   0.00   0.01
   7   1     0.01  -0.02   0.04    -0.00   0.01  -0.00    -0.00   0.04   0.01
   8   7    -0.33  -0.07   0.07    -0.00   0.01  -0.01    -0.00   0.02  -0.05
   9   6    -0.05   0.19   0.32     0.01  -0.01  -0.00     0.04  -0.01  -0.02
  10   1     0.12   0.06   0.06    -0.00  -0.00   0.00     0.02  -0.01  -0.00
  11   1    -0.02   0.04   0.08     0.01  -0.00  -0.00     0.03  -0.00  -0.01
  12   1    -0.05   0.14   0.18     0.00  -0.01   0.00     0.01  -0.01   0.01
  13   6    -0.24  -0.17  -0.21    -0.00  -0.02   0.00    -0.02  -0.03   0.03
  14   1    -0.00  -0.08  -0.01     0.00  -0.01   0.01    -0.01  -0.01   0.02
  15   1    -0.13  -0.01  -0.11     0.00   0.00   0.00     0.01  -0.01   0.02
  16   1    -0.02  -0.09  -0.13    -0.00  -0.02  -0.01    -0.03  -0.02   0.01
  17   6     0.38  -0.02  -0.08     0.01  -0.00   0.02     0.01  -0.03   0.03
  18   1     0.21   0.03  -0.04     0.02   0.01   0.00     0.00   0.01   0.03
  19   1     0.17   0.15   0.02    -0.01   0.00  -0.00     0.00  -0.03   0.01
  20   1     0.17  -0.17  -0.12     0.00  -0.01   0.02     0.00  -0.02   0.01
  21   1     0.06   0.00   0.01     0.01   0.00  -0.00     0.00   0.00   0.00
  22   6     0.01  -0.01  -0.01    -0.01   0.03  -0.08    -0.12   0.15   0.05
  23   8     0.01  -0.00  -0.01    -0.00   0.02  -0.04    -0.23   0.03   0.03
  24   7     0.00   0.01   0.01     0.00  -0.05   0.14     0.02  -0.24  -0.04
  25   1    -0.01   0.00   0.01    -0.02   0.01  -0.03     0.20  -0.06  -0.21
  26   1     0.01   0.02  -0.02    -0.02   0.07  -0.18    -0.11  -0.25   0.03
  27   7    -0.02  -0.00   0.00    -0.02  -0.05   0.15     0.25   0.10   0.02
  28   1    -0.01  -0.01  -0.00    -0.01   0.15  -0.47     0.14   0.13  -0.03
  29   1    -0.01   0.01   0.00    -0.01   0.01  -0.01     0.11  -0.07   0.01
  30   6    -0.01   0.00   0.00    -0.00   0.00  -0.00    -0.00   0.00   0.00
  31   8     0.00   0.00   0.01     0.00   0.00   0.00     0.00   0.00   0.01
  32   7     0.01  -0.01  -0.00     0.00  -0.00   0.00     0.00  -0.01   0.00
  33   1     0.00  -0.01  -0.01     0.00  -0.00  -0.00     0.02   0.01  -0.05
  34   1     0.01  -0.01   0.02     0.01   0.00  -0.00     0.01  -0.02   0.03
  35   7    -0.01   0.00  -0.01    -0.00  -0.00  -0.00    -0.01   0.00  -0.01
  36   1    -0.00   0.00  -0.00    -0.00  -0.00   0.01    -0.00   0.00  -0.01
  37   1    -0.00  -0.00   0.00    -0.00  -0.00  -0.00    -0.00  -0.01   0.00
  38   6     0.00  -0.01   0.01     0.07  -0.03  -0.02     0.07  -0.18   0.12
  39   8     0.00  -0.01   0.01     0.04  -0.06  -0.03     0.17  -0.07   0.20
  40   7    -0.00  -0.00  -0.01    -0.18   0.10   0.10    -0.19  -0.11  -0.23
  41   1    -0.00   0.01  -0.01    -0.03  -0.04   0.04    -0.09   0.11  -0.09
  42   1    -0.03  -0.00   0.01     0.58  -0.17  -0.43    -0.18  -0.11  -0.08
  43   7     0.01   0.01  -0.00    -0.06   0.03   0.12     0.02   0.29  -0.02
  44   1     0.01   0.01   0.00     0.07   0.01  -0.03     0.10   0.24   0.10
  45   1    -0.01   0.01  -0.00     0.08  -0.00  -0.07    -0.11   0.12  -0.20
  46   6    -0.02   0.00  -0.00    -0.01  -0.01  -0.00    -0.01   0.00   0.00
  47   8    -0.02  -0.01  -0.01    -0.01   0.00   0.00    -0.01   0.00   0.00
  48   7    -0.00  -0.01  -0.01    -0.00  -0.01  -0.01     0.01  -0.01  -0.01
  49   1     0.01  -0.00   0.01     0.01   0.00  -0.01     0.01  -0.01   0.01
  50   1    -0.00  -0.00  -0.02    -0.00  -0.02   0.01     0.00  -0.00  -0.02
  51   7     0.01   0.01   0.01     0.02   0.01   0.00     0.01   0.01   0.01
  52   1     0.00   0.01   0.01     0.01   0.01   0.01     0.00   0.00   0.02
  53   1     0.01   0.00  -0.00     0.01  -0.01   0.00     0.01   0.01  -0.02
                     43                     44                     45
                        a                      a                      a 
 Frequencies --   459.4637               462.4910               462.6694
 Red. masses --     7.9904                 4.5015                 2.8179
 Frc consts  --     0.0000                 0.0000                 0.0000
 IR Inten    --     4.7396                10.9767                13.4474
 Raman Activ --     0.0000                 0.0000                 0.0000
 Depolar     --     0.0000                 0.0000                 0.0000
 Atom AN      X      Y      Z        X      Y      Z        X      Y      Z
   1   8    -0.06  -0.00  -0.05     0.01   0.03   0.01     0.00  -0.01   0.00
   2   6     0.13  -0.07   0.19    -0.02   0.01  -0.01    -0.04   0.01  -0.05
   3   1     0.01   0.02   0.00    -0.01   0.00  -0.00    -0.01   0.00  -0.01
   4   1     0.10   0.01   0.09    -0.00   0.00  -0.00    -0.02   0.00  -0.02
   5   6     0.14  -0.33   0.14     0.01  -0.01  -0.05    -0.00   0.04  -0.08
   6   1     0.12  -0.05  -0.02     0.03   0.01  -0.04     0.01   0.03  -0.05
   7   1     0.01  -0.18  -0.00    -0.00  -0.04  -0.02    -0.00  -0.02  -0.03
   8   7     0.02  -0.21   0.22    -0.01   0.05   0.05    -0.01   0.10   0.03
   9   6    -0.22   0.15   0.06    -0.03  -0.05   0.03    -0.02  -0.08   0.02
  10   1    -0.05   0.08  -0.04    -0.03  -0.02   0.02    -0.03  -0.04   0.04
  11   1    -0.16   0.07   0.09    -0.00  -0.02  -0.01     0.01  -0.04  -0.03
  12   1    -0.05   0.09  -0.06    -0.01  -0.02  -0.00    -0.00  -0.04   0.00
  13   6     0.08   0.26  -0.17     0.03  -0.04  -0.03     0.03  -0.09  -0.01
  14   1    -0.02   0.12  -0.12     0.04  -0.01  -0.01     0.06  -0.04   0.01
  15   1    -0.06   0.08  -0.11    -0.01  -0.02  -0.02    -0.00  -0.04  -0.01
  16   1     0.16   0.15  -0.02     0.00  -0.02  -0.02    -0.02  -0.05  -0.02
  17   6    -0.08   0.08  -0.27     0.02   0.06   0.04     0.03   0.07   0.09
  18   1    -0.05  -0.08  -0.19     0.02   0.02   0.01     0.02   0.03   0.04
  19   1    -0.02   0.14  -0.06     0.00   0.03   0.01     0.01   0.01   0.02
  20   1    -0.03   0.09  -0.12     0.01   0.01   0.01     0.01  -0.00   0.03
  21   1    -0.02  -0.01  -0.00    -0.01   0.02  -0.02     0.01  -0.01   0.02
  22   6     0.00   0.00  -0.01     0.00  -0.00  -0.00    -0.00   0.01  -0.00
  23   8    -0.00   0.00   0.00     0.00   0.00  -0.00    -0.01   0.00   0.00
  24   7     0.00  -0.01   0.02    -0.00   0.00   0.00     0.00  -0.01  -0.01
  25   1     0.00  -0.00   0.00    -0.01  -0.00   0.03     0.00  -0.01   0.02
  26   1    -0.00   0.01  -0.03     0.00   0.01  -0.02    -0.00   0.00  -0.01
  27   7    -0.01   0.00   0.02    -0.01  -0.00   0.01     0.00   0.00   0.00
  28   1    -0.00   0.02  -0.06    -0.00  -0.00  -0.01     0.00   0.00   0.01
  29   1    -0.00   0.00   0.01    -0.00   0.00   0.00     0.00  -0.00   0.00
  30   6    -0.00   0.02   0.00     0.05  -0.07  -0.05     0.07  -0.07  -0.06
  31   8    -0.00   0.02   0.00    -0.04  -0.08  -0.09    -0.06  -0.08  -0.12
  32   7     0.03  -0.01  -0.01    -0.08   0.07  -0.01    -0.03   0.10  -0.05
  33   1    -0.03  -0.05   0.08    -0.09   0.02   0.29    -0.18  -0.07   0.56
  34   1     0.02   0.02  -0.04    -0.10   0.11  -0.18    -0.11   0.18  -0.31
  35   7    -0.02  -0.03  -0.00     0.09   0.03   0.11     0.10   0.01   0.13
  36   1    -0.02  -0.01   0.01     0.08   0.02   0.01     0.04  -0.03   0.16
  37   1     0.01  -0.01  -0.02     0.01   0.06   0.01     0.03   0.09  -0.04
  38   6     0.03  -0.05   0.04     0.01  -0.02   0.01     0.01  -0.02   0.01
  39   8     0.04  -0.04   0.05     0.02  -0.01   0.01     0.02  -0.01   0.02
  40   7    -0.07  -0.02  -0.05    -0.03  -0.00  -0.02    -0.02  -0.01  -0.02
  41   1    -0.01   0.03  -0.05    -0.01   0.01  -0.01    -0.00   0.01  -0.01
  42   1    -0.04  -0.04  -0.04     0.00  -0.02  -0.02    -0.03  -0.01  -0.00
  43   7     0.02   0.08   0.01     0.00   0.03   0.00     0.00   0.03  -0.00
  44   1     0.05   0.06   0.01     0.01   0.02   0.01     0.01   0.02   0.01
  45   1    -0.03   0.03  -0.04    -0.00   0.01  -0.02    -0.01   0.01  -0.02
  46   6     0.05   0.00   0.00     0.17  -0.04   0.03    -0.01   0.00  -0.03
  47   8     0.05  -0.01  -0.01     0.19  -0.08   0.02    -0.02   0.03  -0.02
  48   7    -0.02   0.03   0.05    -0.11   0.22   0.03    -0.02  -0.06   0.06
  49   1    -0.03   0.03  -0.04    -0.17  -0.11   0.16     0.02   0.09  -0.13
  50   1    -0.00   0.00   0.07    -0.02   0.27  -0.05    -0.00  -0.09   0.10
  51   7    -0.04  -0.03  -0.04    -0.12  -0.17  -0.07     0.01   0.02  -0.03
  52   1    -0.01   0.01  -0.09    -0.07  -0.38   0.19     0.03   0.21  -0.25
  53   1    -0.05  -0.04   0.08    -0.15   0.29  -0.35     0.01  -0.22   0.30
                     46                     47                     48
                        a                      a                      a 
 Frequencies --   467.5039               471.6462               474.5365
 Red. masses --     6.5492                 6.1264                 3.7997
 Frc consts  --     0.0000                 0.0000                 0.0000
 IR Inten    --     7.9161                 1.8301                26.5047
 Raman Activ --     0.0000                 0.0000                 0.0000
 Depolar     --     0.0000                 0.0000                 0.0000
 Atom AN      X      Y      Z        X      Y      Z        X      Y      Z
   1   8    -0.04  -0.05  -0.04    -0.05  -0.02  -0.03     0.02   0.01   0.01
   2   6     0.01  -0.01   0.01    -0.05   0.01  -0.03     0.01  -0.00   0.01
   3   1     0.00   0.01  -0.02    -0.03   0.01  -0.02     0.02  -0.01   0.02
   4   1     0.01   0.01   0.03    -0.01   0.01   0.01    -0.00  -0.01  -0.01
   5   6     0.02  -0.06   0.02     0.06  -0.04  -0.15    -0.04   0.06   0.06
   6   1     0.02  -0.01  -0.01     0.10   0.05  -0.13    -0.06  -0.02   0.07
   7   1    -0.00  -0.03  -0.00    -0.01  -0.14  -0.09     0.00   0.09   0.04
   8   7     0.03  -0.02   0.05     0.00   0.17   0.17     0.01  -0.06  -0.12
   9   6    -0.05   0.01  -0.00    -0.15  -0.18   0.05     0.11   0.07  -0.05
  10   1    -0.02   0.00  -0.00    -0.12  -0.08   0.08     0.06   0.03  -0.04
  11   1    -0.04   0.00   0.01    -0.03  -0.08  -0.03     0.03   0.03   0.00
  12   1    -0.01   0.01  -0.02    -0.02  -0.09  -0.05     0.02   0.03   0.02
  13   6     0.05   0.03  -0.02     0.14  -0.11  -0.10    -0.08   0.04   0.08
  14   1     0.01   0.02  -0.02     0.15  -0.03  -0.04    -0.08   0.01   0.04
  15   1    -0.00   0.01  -0.02    -0.02  -0.09  -0.08     0.02   0.04   0.06
  16   1     0.03   0.02  -0.01     0.03  -0.05  -0.05    -0.03   0.01   0.03
  17   6    -0.02   0.03  -0.03     0.03   0.22   0.14    -0.03  -0.13  -0.04
  18   1    -0.01  -0.01  -0.03     0.03   0.06   0.02    -0.02  -0.02   0.01
  19   1    -0.01   0.02  -0.01    -0.01   0.08   0.03    -0.00  -0.07  -0.01
  20   1    -0.01   0.02  -0.01     0.01   0.05   0.05    -0.01  -0.03  -0.00
  21   1    -0.00  -0.02   0.01    -0.00  -0.02   0.01    -0.00   0.01  -0.01
  22   6     0.00  -0.00  -0.00     0.03  -0.05  -0.04    -0.02  -0.02  -0.05
  23   8     0.01   0.00  -0.00     0.09   0.01  -0.02     0.06   0.08  -0.05
  24   7     0.00   0.00   0.00    -0.01   0.05  -0.02    -0.03  -0.04  -0.09
  25   1    -0.01  -0.00   0.02    -0.08  -0.03   0.32    -0.07  -0.12   0.66
  26   1     0.00   0.01  -0.01     0.04   0.15  -0.13     0.03   0.21  -0.33
  27   7    -0.01  -0.00   0.00    -0.09  -0.05   0.02     0.00  -0.06   0.07
  28   1    -0.00  -0.00  -0.00    -0.04  -0.04   0.03     0.02  -0.02   0.11
  29   1    -0.00   0.00   0.00    -0.04   0.02  -0.01     0.01  -0.01  -0.06
  30   6     0.03  -0.00  -0.02     0.01  -0.09   0.00    -0.03   0.09   0.01
  31   8    -0.02   0.00  -0.04    -0.00  -0.10   0.00     0.02   0.11   0.03
  32   7     0.02   0.01  -0.01    -0.13   0.05   0.03     0.12  -0.07  -0.02
  33   1    -0.08  -0.06   0.24     0.12   0.20  -0.29    -0.06  -0.15   0.11
  34   1    -0.01   0.08  -0.14    -0.09  -0.09   0.15     0.11   0.03  -0.05
  35   7     0.01  -0.01   0.06     0.10   0.11  -0.00    -0.11  -0.09  -0.03
  36   1     0.02   0.01  -0.01     0.08   0.03   0.03    -0.08  -0.02  -0.04
[...]
  44   1    -0.00   0.00  -0.00     0.00  -0.00  -0.00    -0.00   0.00  -0.00
  45   1    -0.00  -0.01  -0.00     0.00   0.00  -0.00    -0.00  -0.00  -0.00
  46   6    -0.00  -0.00  -0.00    -0.02   0.00   0.00     0.00   0.01   0.00
  47   8     0.00   0.00   0.00     0.01  -0.00  -0.00    -0.00   0.00   0.00
  48   7     0.00  -0.00  -0.00     0.01  -0.01  -0.00     0.01   0.17   0.11
  49   1    -0.00   0.00   0.00    -0.01   0.03   0.02     0.38  -0.67  -0.42
  50   1     0.00  -0.00  -0.00     0.01   0.00  -0.00    -0.42   0.04   0.02
  51   7     0.00   0.00   0.00     0.00   0.00   0.00    -0.00   0.01   0.00
  52   1    -0.00  -0.00  -0.00     0.01  -0.00   0.00     0.04  -0.00   0.00
  53   1    -0.00   0.00   0.00    -0.01  -0.01  -0.01    -0.02  -0.03  -0.02
                    142                    143                    144
                        a                      a                      a 
 Frequencies --  3495.6950              3497.3462              3502.1102
 Red. masses --     1.4511                 1.4534                 1.4431
 Frc consts  --     0.0000                 0.0000                 0.0000
 IR Inten    --    17.8342                14.9339                22.9182
 Raman Activ --     0.0000                 0.0000                 0.0000
 Depolar     --     0.0000                 0.0000                 0.0000
 Atom AN      X      Y      Z        X      Y      Z        X      Y      Z
   1   8    -0.00   0.00   0.00    -0.00  -0.00  -0.00     0.00  -0.00  -0.00
   2   6     0.00  -0.00   0.00     0.00   0.00   0.00    -0.00  -0.00   0.00
   3   1     0.00   0.00   0.00    -0.00  -0.00  -0.00    -0.00   0.00   0.00
   4   1    -0.00   0.00  -0.00     0.00   0.00  -0.00    -0.00  -0.00  -0.00
   5   6    -0.00  -0.00   0.00    -0.00  -0.00  -0.00    -0.00  -0.00  -0.00
   6   1    -0.00  -0.00   0.00     0.00   0.00   0.00    -0.00   0.00   0.00
   7   1     0.00  -0.00  -0.00    -0.00  -0.00  -0.00     0.00   0.00  -0.00
   8   7    -0.00  -0.00   0.00     0.00   0.00   0.00     0.00   0.00   0.00
   9   6    -0.00   0.00   0.00    -0.00  -0.00  -0.00    -0.00  -0.00   0.00
  10   1    -0.00  -0.00  -0.00     0.00   0.00   0.00     0.00   0.00   0.00
  11   1    -0.00   0.00  -0.00     0.00  -0.00   0.00    -0.00   0.00  -0.00
  12   1     0.00  -0.00   0.00     0.00  -0.00  -0.00    -0.00  -0.00   0.00
  13   6    -0.00   0.00   0.00    -0.00  -0.00  -0.00     0.00  -0.00   0.00
  14   1    -0.00  -0.00   0.00    -0.00   0.00   0.00    -0.00   0.00   0.00
  15   1     0.00  -0.00  -0.00     0.00  -0.00  -0.00     0.00   0.00   0.00
  16   1    -0.00   0.00  -0.00     0.00  -0.00   0.00    -0.00   0.00  -0.00
  17   6    -0.00  -0.00   0.00     0.00   0.00  -0.00     0.00  -0.00  -0.00
  18   1     0.00   0.00   0.00    -0.00  -0.00   0.00    -0.00   0.00  -0.00
  19   1     0.00   0.00  -0.00    -0.00  -0.00   0.00    -0.00   0.00   0.00
  20   1    -0.00  -0.00   0.00     0.00   0.00   0.00    -0.00  -0.00   0.00
  21   1     0.00  -0.00  -0.00     0.00   0.00   0.00    -0.00   0.00   0.00
  22   6     0.00   0.00  -0.00    -0.00   0.00   0.00     0.00   0.00   0.00
  23   8    -0.00   0.00   0.00     0.00  -0.00  -0.00    -0.00  -0.00  -0.00
  24   7     0.17   0.06  -0.02    -0.00  -0.00   0.00     0.00   0.00  -0.00
  25   1    -0.10  -0.65  -0.13     0.00   0.00   0.00    -0.00  -0.00  -0.00
  26   1    -0.54   0.42   0.22     0.00  -0.00  -0.00    -0.00   0.00   0.00
  27   7    -0.01   0.00   0.00     0.00  -0.00  -0.00    -0.00  -0.00  -0.00
  28   1     0.03  -0.02  -0.01    -0.00   0.00   0.00    -0.01   0.00   0.00
  29   1     0.01   0.00   0.00    -0.00  -0.00  -0.00     0.01   0.00   0.00
  30   6    -0.00  -0.00  -0.00     0.00   0.00   0.00    -0.00   0.00   0.00
  31   8     0.00   0.00   0.00     0.00  -0.00  -0.00     0.00  -0.00  -0.00
  32   7     0.00   0.00   0.00     0.11   0.08   0.12     0.00   0.00   0.00
  33   1    -0.00   0.00  -0.00    -0.57   0.30  -0.11    -0.00   0.00  -0.00
  34   1     0.00  -0.00  -0.00     0.17  -0.62  -0.36     0.00  -0.00  -0.00
  35   7     0.00   0.00   0.00    -0.00  -0.01  -0.00     0.00  -0.00  -0.00
  36   1     0.00  -0.00  -0.00    -0.00   0.03   0.01    -0.00   0.00   0.00
  37   1    -0.00  -0.00  -0.00     0.01   0.01   0.01     0.00   0.00   0.00
  38   6     0.00   0.00   0.00    -0.00   0.00   0.00     0.00  -0.00   0.00
  39   8    -0.00  -0.00  -0.00     0.00  -0.00   0.00    -0.00   0.00  -0.00
  40   7    -0.00  -0.00   0.00     0.00   0.00  -0.00    -0.01   0.00  -0.01
  41   1     0.01   0.00   0.00    -0.00  -0.00  -0.00     0.01   0.01   0.01
  42   1    -0.00   0.00  -0.00     0.00  -0.00   0.00     0.02  -0.03   0.04
  43   7    -0.00  -0.00  -0.00    -0.00  -0.00  -0.00     0.12   0.05   0.13
  44   1     0.00  -0.00   0.00     0.00  -0.00   0.00    -0.30   0.48  -0.43
  45   1     0.00   0.00   0.00     0.00   0.00   0.00    -0.14  -0.66  -0.05
  46   6     0.00  -0.00  -0.00     0.00   0.00   0.00    -0.00   0.00   0.00
  47   8    -0.00   0.00   0.00    -0.00  -0.00  -0.00     0.00  -0.00  -0.00
  48   7     0.00   0.00   0.00     0.00  -0.00  -0.00    -0.00  -0.00  -0.00
  49   1     0.00  -0.00  -0.00    -0.00   0.00   0.00    -0.00   0.00   0.00
  50   1    -0.00   0.00   0.00    -0.00   0.00   0.00     0.00  -0.00  -0.00
  51   7    -0.00   0.00   0.00    -0.00   0.00   0.00     0.00  -0.00  -0.00
  52   1     0.00  -0.00   0.00     0.00  -0.00   0.00    -0.00   0.00  -0.00
  53   1    -0.00  -0.00  -0.00    -0.00  -0.00  -0.00     0.00   0.00   0.00
                    145                    146                    147
                        a                      a                      a 
 Frequencies --  3505.2492              3528.1859              3532.4332
 Red. masses --     1.4540                 1.9107                 1.9504
 Frc consts  --     0.0000                 0.0000                 0.0000
 IR Inten    --    19.3979                13.4505                15.7000
 Raman Activ --     0.0000                 0.0000                 0.0000
 Depolar     --     0.0000                 0.0000                 0.0000
 Atom AN      X      Y      Z        X      Y      Z        X      Y      Z
   1   8    -0.00   0.00   0.00    -0.00   0.00   0.00     0.00  -0.00  -0.00
   2   6     0.00  -0.00   0.00     0.00   0.00  -0.00    -0.00  -0.00  -0.00
   3   1    -0.00   0.00   0.00    -0.00   0.00  -0.00     0.00   0.00   0.00
   4   1     0.00  -0.00  -0.00     0.00  -0.00   0.00     0.00   0.00  -0.00
   5   6     0.00  -0.00  -0.00    -0.00   0.00   0.00    -0.00   0.00   0.00
   6   1     0.00   0.00   0.00     0.00  -0.00  -0.00     0.00  -0.00  -0.00
   7   1     0.00   0.00   0.00     0.00   0.00  -0.00     0.00   0.00   0.00
   8   7     0.00  -0.00  -0.00    -0.00  -0.00  -0.00     0.00   0.00   0.00
   9   6    -0.00  -0.00  -0.00    -0.00   0.00   0.00     0.00   0.00   0.00
  10   1     0.00   0.00   0.00     0.00  -0.00  -0.00    -0.00  -0.00  -0.00
  11   1    -0.00   0.00  -0.00     0.00  -0.00   0.00    -0.00   0.00   0.00
  12   1     0.00  -0.00  -0.00    -0.00   0.00  -0.00    -0.00   0.00  -0.00
  13   6     0.00  -0.00  -0.00    -0.00   0.00   0.00    -0.00   0.00   0.00
  14   1    -0.00   0.00   0.00     0.00  -0.00  -0.00     0.00  -0.00  -0.00
  15   1     0.00  -0.00  -0.00     0.00   0.00  -0.00     0.00   0.00  -0.00
  16   1    -0.00   0.00  -0.00     0.00  -0.00   0.00     0.00  -0.00   0.00
  17   6    -0.00  -0.00   0.00     0.00   0.00  -0.00    -0.00  -0.00  -0.00
  18   1     0.00   0.00   0.00     0.00  -0.00   0.00    -0.00   0.00   0.00
  19   1     0.00   0.00  -0.00     0.00   0.00   0.00    -0.00   0.00  -0.00
  20   1    -0.00  -0.00  -0.00    -0.00  -0.00  -0.00     0.00   0.00  -0.00
  21   1     0.00  -0.01  -0.01     0.00  -0.00  -0.00    -0.00   0.01   0.00
  22   6     0.00  -0.00  -0.00    -0.00   0.00   0.00     0.00  -0.00  -0.00
  23   8    -0.00   0.00   0.00     0.00  -0.00   0.00    -0.00   0.00   0.00
  24   7     0.00  -0.00  -0.00     0.00  -0.00  -0.00    -0.00   0.00   0.00
  25   1    -0.00  -0.00  -0.00     0.00   0.00   0.00     0.00   0.00  -0.00
  26   1    -0.00   0.00   0.00    -0.01   0.01   0.00     0.00  -0.00  -0.00
  27   7    -0.00  -0.00  -0.00    -0.00   0.00   0.00     0.00  -0.00  -0.00
  28   1    -0.00   0.00   0.00     0.01  -0.01  -0.00    -0.00   0.00   0.00
  29   1     0.00   0.00   0.00     0.01   0.00   0.00    -0.00  -0.00  -0.00
  30   6    -0.00   0.00   0.00     0.00  -0.00  -0.00     0.01   0.01   0.00
  31   8     0.00  -0.00  -0.00    -0.00   0.00   0.00    -0.00  -0.00  -0.00
  32   7     0.00   0.00   0.00     0.00  -0.00  -0.00     0.02  -0.02  -0.00
  33   1    -0.00   0.00  -0.00    -0.00   0.00  -0.00    -0.08   0.04  -0.02
  34   1     0.00  -0.00  -0.00    -0.00   0.00   0.00    -0.01   0.02   0.02
  35   7    -0.00   0.00  -0.00    -0.00   0.00   0.00    -0.00   0.25   0.09
  36   1     0.00  -0.02  -0.01     0.00  -0.00  -0.00     0.12  -0.91  -0.25
  37   1     0.01   0.01   0.01    -0.00  -0.00  -0.00    -0.12  -0.05  -0.08
  38   6     0.00  -0.00  -0.00    -0.00   0.00  -0.01    -0.00   0.00   0.00
  39   8    -0.00   0.00  -0.00     0.00  -0.00   0.00     0.00  -0.00   0.00
  40   7     0.00  -0.00   0.00    -0.10   0.15  -0.19     0.00  -0.00   0.00
  41   1     0.00   0.00   0.00     0.08   0.04   0.05    -0.00  -0.00  -0.00
  42   1    -0.00   0.00  -0.00     0.29  -0.61   0.67    -0.00   0.00  -0.00
  43   7    -0.00  -0.00  -0.00    -0.00  -0.02  -0.00     0.00   0.00   0.00
  44   1     0.00  -0.00   0.00    -0.00  -0.00  -0.00    -0.00   0.00  -0.00
  45   1     0.00   0.00   0.00     0.02   0.08   0.01    -0.00  -0.00  -0.00
  46   6     0.00  -0.00  -0.00     0.00  -0.00  -0.00     0.00  -0.00  -0.00
  47   8    -0.00   0.00  -0.00    -0.00   0.00   0.00    -0.00   0.00   0.00
  48   7    -0.01   0.02   0.01     0.00   0.00   0.00    -0.00  -0.00  -0.00
  49   1     0.03  -0.05  -0.03     0.00  -0.00  -0.00    -0.00   0.00   0.00
  50   1     0.00   0.00   0.00    -0.00   0.00   0.00     0.01  -0.00  -0.00
  51   7     0.10  -0.13  -0.08    -0.00  -0.00  -0.00    -0.00   0.00   0.00
  52   1    -0.73   0.06  -0.02    -0.00   0.00   0.00     0.02  -0.00   0.00
  53   1     0.37   0.44   0.32     0.00   0.00   0.00    -0.00  -0.00  -0.00
                    148                    149                    150
                        a                      a                      a 
 Frequencies --  3536.9367              3549.7507              3560.5603
 Red. masses --     1.9018                 2.1136                 2.1765
 Frc consts  --     0.0000                 0.0000                 0.0000
 IR Inten    --    14.3249                30.6066                13.1034
 Raman Activ --     0.0000                 0.0000                 0.0000
 Depolar     --     0.0000                 0.0000                 0.0000
 Atom AN      X      Y      Z        X      Y      Z        X      Y      Z
   1   8     0.00   0.00   0.00     0.00   0.00   0.00     0.00  -0.00  -0.00
   2   6    -0.00   0.00   0.00    -0.00  -0.00   0.00    -0.00   0.00   0.00
   3   1    -0.00  -0.00  -0.00    -0.00   0.00   0.00    -0.00  -0.00  -0.00
   4   1     0.00   0.00  -0.00     0.00   0.00  -0.00     0.00   0.00  -0.00
   5   6    -0.00   0.00   0.00     0.00   0.00  -0.00     0.00  -0.00  -0.00
   6   1     0.00   0.00  -0.00     0.00  -0.00  -0.00     0.00   0.00   0.00
   7   1     0.00   0.00  -0.00    -0.00   0.00   0.00    -0.00   0.00   0.00
   8   7    -0.00  -0.00  -0.00     0.00   0.00   0.00     0.00  -0.00  -0.00
   9   6    -0.00  -0.00   0.00     0.00   0.00   0.00     0.00  -0.00   0.00
  10   1    -0.00  -0.00  -0.00     0.00  -0.00  -0.00     0.00   0.00   0.00
  11   1    -0.00   0.00  -0.00     0.00  -0.00   0.00    -0.00   0.00  -0.00
  12   1     0.00   0.00   0.00    -0.00  -0.00  -0.00     0.00  -0.00  -0.00
  13   6    -0.00  -0.00   0.00    -0.00   0.00  -0.00     0.00  -0.00  -0.00
  14   1     0.00   0.00   0.00     0.00  -0.00  -0.00     0.00   0.00   0.00
  15   1     0.00   0.00  -0.00    -0.00   0.00   0.00    -0.00  -0.00   0.00
  16   1     0.00  -0.00  -0.00     0.00  -0.00   0.00     0.00  -0.00  -0.00
  17   6     0.00   0.00  -0.00     0.00   0.00  -0.00     0.00   0.00  -0.00
  18   1     0.00  -0.00  -0.00     0.00  -0.00   0.00     0.00  -0.00  -0.00
  19   1    -0.00  -0.00   0.00    -0.00   0.00   0.00    -0.00  -0.00   0.00
  20   1     0.00  -0.00  -0.00    -0.00   0.00  -0.00     0.00   0.00  -0.00
  21   1     0.00  -0.00  -0.00     0.00  -0.01  -0.00    -0.00   0.00   0.00
  22   6     0.01   0.00  -0.00    -0.00   0.00   0.00     0.00  -0.01  -0.00
  23   8    -0.00   0.00   0.00     0.00  -0.00  -0.00    -0.00   0.00   0.00
  24   7    -0.00   0.03   0.01     0.00  -0.00  -0.00     0.10  -0.27  -0.08
  25   1    -0.02  -0.10  -0.02    -0.00  -0.00  -0.00     0.13   0.67   0.12
  26   1     0.03  -0.02  -0.01    -0.00   0.00   0.00    -0.51   0.35   0.20
  27   7     0.21  -0.15  -0.05     0.00  -0.00  -0.00     0.02  -0.01  -0.00
  28   1    -0.73   0.58   0.20    -0.00   0.00   0.00    -0.08   0.06   0.02
  29   1    -0.06  -0.04  -0.02    -0.00  -0.00  -0.00    -0.01  -0.01  -0.00
  30   6    -0.00  -0.00  -0.00     0.00  -0.00  -0.00     0.00  -0.00  -0.00
  31   8     0.00   0.00   0.00    -0.00   0.00   0.00    -0.00  -0.00  -0.00
  32   7    -0.00   0.00  -0.00    -0.00   0.00   0.00     0.00  -0.00  -0.00
  33   1     0.00  -0.00   0.00     0.00  -0.00   0.00    -0.01   0.01  -0.00
  34   1    -0.00   0.00   0.00     0.00  -0.00  -0.00    -0.00   0.01   0.01
  35   7     0.00  -0.00  -0.00    -0.00  -0.00  -0.00    -0.00  -0.00  -0.00
  36   1    -0.00   0.00   0.00    -0.00   0.01   0.00    -0.00   0.00   0.00
  37   1     0.00  -0.00   0.00     0.00   0.00   0.00     0.00   0.00   0.00
  38   6     0.00  -0.00   0.00    -0.00   0.00   0.00     0.00  -0.00   0.00
  39   8    -0.00   0.00  -0.00     0.00  -0.00  -0.00    -0.00   0.00  -0.00
  40   7    -0.00   0.00  -0.00     0.00   0.00  -0.00     0.00  -0.00   0.00
  41   1     0.00   0.00  -0.00    -0.00  -0.00  -0.00    -0.01  -0.00  -0.00
  42   1     0.01  -0.01   0.01     0.00  -0.00   0.00    -0.00   0.00  -0.00
  43   7    -0.00   0.00  -0.00    -0.00   0.00  -0.00    -0.00   0.00  -0.00
  44   1     0.00  -0.01   0.01     0.00  -0.00   0.00     0.00  -0.00   0.00
  45   1     0.00   0.00  -0.00     0.00   0.00   0.00    -0.00  -0.01  -0.00
  46   6     0.00  -0.00  -0.00    -0.01   0.01   0.00     0.00   0.00   0.00
  47   8    -0.00   0.00   0.00     0.00  -0.00  -0.00     0.00  -0.00  -0.00
  48   7     0.00  -0.00  -0.00    -0.27   0.09   0.06     0.00  -0.00  -0.00
  49   1    -0.00   0.00   0.00     0.15  -0.31  -0.19    -0.00   0.00   0.00
  50   1    -0.00   0.00   0.00     0.86  -0.04  -0.03    -0.00   0.00  -0.00
  51   7    -0.00  -0.00  -0.00     0.03   0.02   0.01     0.00   0.00   0.00
  52   1     0.00  -0.00  -0.00    -0.06   0.01  -0.00    -0.00   0.00  -0.00
  53   1     0.00   0.00   0.00    -0.06  -0.08  -0.06    -0.00  -0.00  -0.00
                    151                    152                    153
                        a                      a                      a 
 Frequencies --  3562.2624              3570.4128              3570.7169
 Red. masses --     2.1745                 2.1899                 2.1834
 Frc consts  --     0.0000                 0.0000                 0.0000
 IR Inten    --     7.6937                15.5622                20.5491
 Raman Activ --     0.0000                 0.0000                 0.0000
 Depolar     --     0.0000                 0.0000                 0.0000
 Atom AN      X      Y      Z        X      Y      Z        X      Y      Z
   1   8    -0.00   0.00   0.00    -0.00  -0.00   0.00     0.00   0.00   0.00
   2   6     0.00  -0.00   0.00    -0.00   0.00  -0.00    -0.00  -0.00   0.00
   3   1    -0.00  -0.00  -0.00     0.00   0.00  -0.00    -0.00   0.00   0.00
   4   1    -0.00  -0.00  -0.00     0.00  -0.00   0.00    -0.00   0.00  -0.00
   5   6     0.00  -0.00  -0.00    -0.00   0.00   0.00     0.00  -0.00  -0.00
   6   1     0.00   0.00   0.00     0.00  -0.00   0.00     0.00   0.00   0.00
   7   1    -0.00  -0.00   0.00    -0.00   0.00  -0.00    -0.00   0.00   0.00
   8   7     0.00   0.00   0.00     0.00  -0.00  -0.00     0.00   0.00  -0.00
   9   6    -0.00  -0.00  -0.00    -0.00  -0.00  -0.00     0.00  -0.00  -0.00
  10   1     0.00   0.00   0.00     0.00  -0.00  -0.00     0.00   0.00   0.00
  11   1    -0.00  -0.00  -0.00     0.00  -0.00   0.00    -0.00   0.00  -0.00
  12   1     0.00  -0.00  -0.00    -0.00   0.00  -0.00    -0.00  -0.00  -0.00
  13   6     0.00  -0.00  -0.00    -0.00   0.00   0.00     0.00  -0.00  -0.00
  14   1    -0.00   0.00   0.00    -0.00  -0.00  -0.00    -0.00   0.00   0.00
  15   1    -0.00  -0.00  -0.00     0.00   0.00  -0.00    -0.00   0.00   0.00
  16   1    -0.00  -0.00  -0.00     0.00  -0.00   0.00    -0.00   0.00  -0.00
  17   6     0.00   0.00  -0.00     0.00   0.00  -0.00     0.00   0.00  -0.00
  18   1    -0.00  -0.00  -0.00     0.00  -0.00   0.00     0.00   0.00   0.00
  19   1    -0.00  -0.00   0.00    -0.00   0.00   0.00     0.00   0.00   0.00
  20   1     0.00  -0.00  -0.00    -0.00   0.00   0.00    -0.00  -0.00  -0.00
  21   1     0.00  -0.00  -0.00    -0.00   0.00   0.00     0.00  -0.01  -0.00
  22   6    -0.00   0.00   0.00    -0.00   0.00   0.00     0.00  -0.00   0.00
  23   8     0.00  -0.00  -0.00     0.00  -0.00   0.00    -0.00  -0.00  -0.00
  24   7    -0.00   0.01   0.00    -0.00   0.00   0.00     0.00  -0.00  -0.00
  25   1    -0.00  -0.01  -0.00    -0.00  -0.00  -0.00     0.00   0.00   0.00
  26   1     0.01  -0.01  -0.00     0.00  -0.00  -0.00    -0.00   0.00   0.00
  27   7    -0.00   0.00   0.00    -0.00   0.00   0.00    -0.00   0.00   0.00
  28   1     0.00  -0.00  -0.00     0.01  -0.00  -0.00     0.00  -0.00  -0.00
  29   1     0.00   0.00   0.00     0.01   0.00   0.00     0.00   0.00   0.00
  30   6     0.01  -0.01  -0.00     0.00   0.00   0.00    -0.00   0.00  -0.00
  31   8    -0.00   0.00   0.00    -0.00  -0.00  -0.00     0.00  -0.00  -0.00
  32   7     0.20  -0.22  -0.05     0.00  -0.00  -0.00     0.00  -0.00  -0.00
  33   1    -0.62   0.31  -0.14    -0.00   0.00  -0.00    -0.00   0.00  -0.00
  34   1    -0.12   0.53   0.32    -0.00   0.00   0.00    -0.00   0.00   0.00
  35   7    -0.00  -0.02  -0.01     0.00   0.00   0.00    -0.00  -0.00  -0.00
  36   1    -0.01   0.08   0.02     0.00  -0.00  -0.00    -0.00   0.01   0.00
  37   1     0.01   0.01   0.01    -0.00  -0.00  -0.00     0.01   0.01   0.01
  38   6     0.00   0.00   0.00    -0.00   0.01  -0.00    -0.00   0.00  -0.00
  39   8     0.00  -0.00  -0.00    -0.00  -0.00   0.00    -0.00  -0.00   0.00
  40   7    -0.00  -0.00  -0.00    -0.01   0.01  -0.01    -0.00   0.00  -0.00
  41   1     0.00   0.00   0.00     0.01   0.00   0.00     0.00   0.00   0.00
  42   1     0.00  -0.00   0.00     0.02  -0.04   0.04     0.00  -0.00   0.00
  43   7    -0.00  -0.00   0.00    -0.04   0.28  -0.09    -0.00   0.01  -0.00
  44   1    -0.00   0.00  -0.00     0.29  -0.42   0.41     0.01  -0.01   0.01
  45   1     0.00   0.00   0.00    -0.16  -0.67  -0.07    -0.00  -0.01  -0.00
  46   6    -0.00   0.00   0.00     0.00   0.00   0.00    -0.01  -0.00  -0.00
  47   8     0.00   0.00   0.00    -0.00  -0.00  -0.00     0.00   0.00   0.00
  48   7    -0.00   0.00   0.00     0.00  -0.00  -0.00    -0.03   0.01   0.01
  49   1     0.00  -0.00  -0.00    -0.00   0.00   0.00     0.02  -0.04  -0.03
  50   1     0.00  -0.00  -0.00    -0.00   0.00   0.00     0.11  -0.00  -0.00
  51   7     0.00   0.00   0.00     0.00   0.00   0.00    -0.26  -0.11  -0.09
  52   1    -0.01   0.00   0.00    -0.01   0.00  -0.00     0.63  -0.08   0.00
  53   1    -0.00  -0.00  -0.00    -0.01  -0.01  -0.01     0.37   0.48   0.35
