 Entering Gaussian System
 *********************************************
 Gaussian 98:
 frequency output generated by the xtb code
 *********************************************
                         Standard orientation:
 --------------------------------------------------------------------
  Center     Atomic     Atomic              Coordinates (Angstroms)
  Number     Number      Type              X           Y           Z
 --------------------------------------------------------------------
    1          8             0       -2.419700   -3.932998   -1.163467
    2          6             0       -3.038766   -3.035629   -2.032723
    3          1             0       -3.503083   -3.623810   -2.829353
    4          1             0       -3.832325   -2.477065   -1.522911
    5          6             0       -2.079912   -1.980027   -2.617239
    6          1             0       -1.711196   -1.341435   -1.811829
    7          1             0       -2.646876   -1.369546   -3.321975
    8          7             0       -0.882931   -2.522936   -3.324631
    9          6             0        0.100898   -3.011940   -2.340259
   10          1             0        0.450766   -2.168876   -1.747109
   11          1             0        0.945445   -3.465183   -2.854923
   12          1             0       -0.373291   -3.746463   -1.691267
   13          6             0       -0.265512   -1.423875   -4.086890
   14          1             0       -0.025883   -0.614678   -3.394558
   15          1             0       -0.946186   -1.062003   -4.854799
   16          1             0        0.651275   -1.768734   -4.561101
   17          6             0       -1.248124   -3.619279   -4.234773
   18          1             0       -2.042943   -3.302068   -4.907747
   19          1             0       -1.582135   -4.480264   -3.659717
   20          1             0       -0.381736   -3.909551   -4.826681
   21          1             0       -2.300208   -3.466969   -0.310748
   22          6             0        3.246861    3.408745    1.904790
   23          8             0        2.502739    3.517762    0.920946
   24          7             0        3.053531    2.450453    2.825478
   25          1             0        2.192760    1.899113    2.779489
   26          1             0        3.596777    2.421108    3.668912
   27          7             0        4.297494    4.238118    2.077635
   28          1             0        4.941348    4.138200    2.840572
   29          1             0        4.492805    4.921451    1.367999
   30          6             0        0.861763    1.040689   -1.045171
   31          8             0        0.247034    0.038469   -1.431388
   32          7             0        0.528641    2.285548   -1.451895
   33          1             0       -0.179077    2.415691   -2.150908
   34          1             0        1.075469    3.072662   -1.149197
   35          7             0        1.918931    0.979341   -0.219156
   36          1             0        2.253520    1.841748    0.200544
   37          1             0        2.122225    0.115210    0.251266
   38          6             0       -0.377297    1.935020    2.298596
   39          8             0        0.557783    1.167709    2.555252
   40          7             0       -0.172071    3.137810    1.738074
   41          1             0        0.768957    3.387521    1.437638
   42          1             0       -0.931851    3.759102    1.531769
   43          7             0       -1.655252    1.594843    2.574957
   44          1             0       -2.424489    2.198142    2.350303
   45          1             0       -1.851495    0.673782    2.936941
   46          6             0       -1.352986   -1.647273    1.593851
   47          8             0       -2.170698   -2.154509    0.837828
   48          7             0       -1.608898   -1.498629    2.935749
   49          1             0       -2.360086   -2.062886    3.301710
   50          1             0       -0.822461   -1.363874    3.551634
   51          7             0       -0.152719   -1.178443    1.186046
   52          1             0        0.317267   -0.516531    1.798602
   53          1             0       -0.062931   -0.976171    0.195536
 --------------------------------------------------------------------
     1 basis functions        1 primitive gaussians
     1 alpha electrons        1 beta electrons

 Harmonic frequencies (cm**-1), IR intensities (km*mol⁻¹),
 Raman scattering activities (A**4/amu), Raman depolarization ratios,
 reduced masses (AMU), force constants (mDyne/A) and normal coordinates:
                      1                      2                      3
                        a                      a                      a 
 Frequencies --    14.5633                18.9360                21.0753
 Red. masses --    12.4023                11.3416                12.6442
 Frc consts  --     0.0000                 0.0000                 0.0000
 IR Inten    --     1.3940                 4.1657                 1.7985
 Raman Activ --     0.0000                 0.0000                 0.0000
 Depolar     --     0.0000                 0.0000                 0.0000
 Atom AN      X      Y      Z        X      Y      Z        X      Y      Z
   1   8    -0.40   0.04  -0.13    -0.18   0.17  -0.06     0.08   0.26  -0.01
   2   6    -0.20   0.19  -0.07    -0.02   0.15  -0.14     0.09   0.24  -0.01
   3   1    -0.07   0.09  -0.03    -0.00   0.04  -0.04     0.01   0.07   0.00
   4   1    -0.04   0.08  -0.02    -0.01   0.07  -0.07     0.04   0.08   0.00
   5   6    -0.03   0.09   0.03     0.10   0.04  -0.13     0.12   0.17  -0.08
   6   1     0.00   0.00   0.03     0.02   0.03  -0.05     0.05   0.06  -0.04
   7   1     0.03   0.06   0.01     0.06   0.00  -0.07     0.04   0.05  -0.03
   8   7    -0.07  -0.04   0.08     0.15  -0.10   0.04     0.08   0.09  -0.10
   9   6    -0.15  -0.15   0.11     0.02  -0.05   0.17     0.06   0.04  -0.10
  10   1    -0.03  -0.06   0.04    -0.00  -0.00   0.04     0.03   0.01  -0.03
  11   1    -0.05  -0.07   0.04     0.01  -0.04   0.09     0.01  -0.00  -0.03
  12   1    -0.07  -0.03   0.02    -0.02   0.01   0.06     0.01   0.02  -0.03
  13   6     0.09  -0.10   0.10     0.27  -0.20  -0.02     0.13   0.04  -0.11
  14   1     0.04  -0.04   0.03     0.07  -0.04  -0.02     0.05   0.01  -0.04
  15   1     0.05  -0.01   0.02     0.11  -0.07  -0.04     0.04   0.02  -0.03
  16   1     0.02  -0.06   0.04     0.09  -0.08   0.03     0.03  -0.00  -0.03
  17   6    -0.15   0.01   0.05     0.17  -0.16   0.11    -0.01   0.10  -0.07
  18   1    -0.02   0.03   0.01     0.07  -0.05  -0.00     0.00   0.04  -0.02
  19   1    -0.08   0.01   0.01     0.02  -0.02   0.05    -0.01   0.04  -0.02
  20   1    -0.04  -0.03   0.03     0.06  -0.08   0.07    -0.01   0.01  -0.02
  21   1    -0.07  -0.00  -0.03    -0.05   0.05  -0.02     0.01   0.05   0.01
  22   6    -0.07   0.16   0.03     0.02  -0.03  -0.05    -0.09   0.03  -0.14
  23   8    -0.05   0.09  -0.00    -0.06   0.06   0.02    -0.11  -0.09  -0.17
  24   7    -0.04   0.18   0.05     0.11  -0.11  -0.12    -0.05   0.09  -0.08
  25   1     0.00   0.03   0.01     0.03  -0.03  -0.02    -0.00   0.01  -0.01
  26   1    -0.02   0.06   0.02     0.05  -0.05  -0.05    -0.01   0.05  -0.02
  27   7    -0.15   0.26   0.05     0.04  -0.05  -0.08    -0.14   0.10  -0.21
  28   1    -0.04   0.09   0.02     0.03  -0.03  -0.04    -0.04   0.05  -0.05
  29   1    -0.05   0.07   0.01    -0.01   0.00  -0.01    -0.05   0.01  -0.07
  30   6     0.14  -0.03   0.02    -0.16   0.08  -0.06     0.05  -0.16   0.05
  31   8     0.19  -0.07   0.05    -0.11   0.05  -0.07    -0.02  -0.13   0.04
  32   7     0.15  -0.06  -0.05    -0.29   0.07  -0.01     0.17  -0.15   0.04
  33   1     0.04  -0.03  -0.02    -0.09   0.01   0.00     0.03  -0.02   0.03
  34   1     0.03  -0.01  -0.01    -0.09   0.03  -0.01     0.04  -0.05   0.04
  35   7     0.13   0.02   0.05    -0.13   0.15  -0.11     0.05  -0.26   0.06
  36   1     0.02   0.01   0.01    -0.04   0.04  -0.03     0.02  -0.07   0.01
  37   1     0.04   0.01   0.03    -0.01   0.04  -0.04    -0.01  -0.07   0.02
  38   6     0.02  -0.08  -0.02     0.05  -0.04   0.14    -0.02  -0.06   0.03
  39   8     0.07  -0.02   0.02     0.08  -0.07   0.02     0.00  -0.05  -0.01
  40   7    -0.04  -0.10  -0.08     0.00  -0.02   0.18    -0.07  -0.10  -0.06
  41   1    -0.01  -0.01  -0.02    -0.00   0.00   0.04    -0.02  -0.03  -0.03
  42   1    -0.02  -0.04  -0.02    -0.00   0.01   0.09    -0.02  -0.02   0.00
  43   7     0.04  -0.14   0.00     0.08  -0.03   0.29     0.00  -0.04   0.18
  44   1     0.00  -0.05  -0.01     0.02  -0.01   0.09    -0.00  -0.02   0.04
  45   1     0.02  -0.04   0.00     0.03  -0.02   0.06     0.01  -0.01   0.05
  46   6     0.13  -0.05  -0.07    -0.04   0.03  -0.03    -0.08  -0.04   0.18
  47   8     0.17   0.03  -0.17    -0.11   0.12  -0.02    -0.17  -0.05   0.29
  48   7     0.08  -0.15  -0.08     0.04  -0.05  -0.01     0.01   0.02   0.20
  49   1     0.01  -0.04  -0.04     0.01  -0.01  -0.00     0.01   0.01   0.07
  50   1     0.01  -0.06  -0.01     0.02  -0.03  -0.01     0.02   0.00   0.04
  51   7     0.17  -0.05   0.01    -0.05   0.02  -0.07    -0.10  -0.08   0.09
  52   1     0.04  -0.02   0.02    -0.00  -0.01  -0.02    -0.01  -0.02   0.01
  53   1     0.06   0.00   0.01    -0.03   0.02  -0.02    -0.04  -0.04   0.02
                      4                      5                      6
                        a                      a                      a 
 Frequencies --    31.4068                37.9526                41.7048
 Red. masses --    12.3669                12.4514                12.1473
 Frc consts  --     0.0000                 0.0000                 0.0000
 IR Inten    --     1.0978                 1.8684                 1.4272
 Raman Activ --     0.0000                 0.0000                 0.0000
 Depolar     --     0.0000                 0.0000                 0.0000
 Atom AN      X      Y      Z        X      Y      Z        X      Y      Z
   1   8     0.05  -0.12   0.08    -0.10  -0.07  -0.11    -0.00   0.08   0.04
   2   6    -0.01  -0.25  -0.04    -0.04  -0.04  -0.10    -0.02   0.07   0.05
   3   1     0.04  -0.11  -0.01     0.01  -0.00  -0.05    -0.01   0.02   0.02
   4   1    -0.04  -0.10  -0.04    -0.03  -0.02  -0.04    -0.00   0.02   0.02
   5   6    -0.10  -0.14  -0.01    -0.03   0.01   0.02    -0.03   0.06   0.01
   6   1    -0.06  -0.03   0.00    -0.03  -0.00   0.02    -0.02   0.04  -0.01
   7   1    -0.04  -0.06  -0.01     0.00   0.01  -0.00    -0.01  -0.00  -0.01
   8   7    -0.02   0.00   0.02     0.06   0.08   0.11     0.01   0.05   0.10
   9   6    -0.02   0.06   0.04    -0.00   0.10   0.17     0.02   0.20   0.16
  10   1    -0.03   0.02   0.02    -0.02   0.03   0.06    -0.01   0.08   0.02
  11   1     0.01   0.04   0.02     0.02   0.04   0.07     0.01   0.05   0.06
  12   1     0.01   0.00   0.00    -0.01   0.02   0.04     0.01   0.07   0.07
  13   6    -0.10   0.09   0.08     0.06   0.11   0.16    -0.04  -0.01  -0.02
  14   1    -0.05   0.02   0.03    -0.01   0.03   0.05    -0.03   0.02  -0.03
  15   1    -0.03   0.02   0.02     0.03   0.02   0.03    -0.01  -0.04  -0.02
  16   1    -0.02   0.05   0.03     0.03   0.04   0.07    -0.00  -0.00   0.01
  17   6     0.12   0.00  -0.04     0.17   0.07   0.06     0.07  -0.08   0.21
  18   1     0.03  -0.02  -0.01     0.06   0.01  -0.00     0.02  -0.06   0.04
  19   1     0.06  -0.02  -0.03     0.05   0.01   0.01     0.03  -0.01   0.09
  20   1     0.05   0.04  -0.01     0.07   0.03   0.04     0.03  -0.03   0.08
  21   1    -0.01   0.00   0.01    -0.03  -0.03  -0.02    -0.01   0.01   0.02
  22   6    -0.01   0.07  -0.05     0.06   0.04  -0.14    -0.01  -0.05   0.08
  23   8    -0.02   0.01  -0.06     0.04   0.01  -0.14     0.06  -0.07   0.03
  24   7     0.06   0.07  -0.04     0.07   0.09  -0.10    -0.07  -0.05   0.08
  25   1     0.03   0.00  -0.01     0.02   0.02  -0.02    -0.02  -0.02   0.01
  26   1     0.02   0.03  -0.01     0.02   0.03  -0.03    -0.03  -0.01   0.03
  27   7    -0.06   0.14  -0.06     0.09   0.03  -0.22    -0.04  -0.04   0.16
  28   1    -0.01   0.05  -0.02     0.02   0.02  -0.06    -0.02  -0.01   0.05
  29   1    -0.03   0.04  -0.02     0.02   0.00  -0.07     0.00  -0.01   0.04
  30   6     0.08   0.02  -0.00    -0.05   0.05   0.17    -0.01   0.14  -0.12
  31   8    -0.04   0.08   0.04    -0.19   0.13   0.19    -0.19   0.25  -0.09
  32   7     0.33   0.03  -0.14     0.00   0.10   0.29     0.26   0.17  -0.26
  33   1     0.07   0.03  -0.02    -0.00   0.05   0.09     0.06   0.07  -0.06
  34   1     0.08  -0.00  -0.01     0.03   0.01   0.07     0.08   0.03  -0.05
  35   7     0.05  -0.08   0.05     0.02  -0.09   0.07    -0.05   0.01  -0.08
  36   1     0.03  -0.02   0.01     0.03  -0.03   0.02     0.01  -0.01  -0.02
  37   1    -0.03  -0.02   0.04    -0.01  -0.03   0.02    -0.06  -0.00  -0.01
  38   6     0.07  -0.06   0.13     0.06  -0.02  -0.11    -0.02  -0.10  -0.12
  39   8     0.11  -0.07   0.05     0.07  -0.00  -0.08    -0.02  -0.08  -0.03
  40   7     0.01  -0.13  -0.02     0.08   0.07   0.08    -0.02  -0.19  -0.29
  41   1    -0.00  -0.03  -0.01     0.02   0.01   0.00     0.00  -0.04  -0.05
  42   1     0.00  -0.01   0.06     0.01  -0.02  -0.04    -0.00  -0.04  -0.07
  43   7     0.11   0.02   0.43     0.04  -0.14  -0.38    -0.02  -0.09  -0.10
  44   1     0.02  -0.02   0.09     0.01  -0.01  -0.05    -0.01  -0.04  -0.05
  45   1     0.03  -0.00   0.09     0.01  -0.02  -0.07    -0.00  -0.01   0.00
  46   6    -0.15   0.07  -0.11    -0.10  -0.12   0.01     0.02  -0.06   0.04
  47   8    -0.19   0.25  -0.21    -0.07  -0.13  -0.05    -0.08  -0.08   0.17
  48   7    -0.16  -0.09  -0.10    -0.15  -0.21   0.01     0.24  -0.15   0.09
  49   1    -0.06  -0.02  -0.05    -0.04  -0.07  -0.01     0.09  -0.06   0.05
  50   1    -0.04  -0.07  -0.02    -0.05  -0.06   0.01     0.09  -0.01  -0.01
  51   7    -0.12   0.05  -0.05    -0.11  -0.06   0.07    -0.07   0.03  -0.13
  52   1    -0.02  -0.02   0.01    -0.04  -0.02   0.03    -0.00  -0.00  -0.04
  53   1    -0.03   0.04  -0.01    -0.03   0.01   0.02    -0.07   0.04  -0.03
                      7                      8                      9
                        a                      a                      a 
 Frequencies --    47.7651                50.9422                55.6384
 Red. masses --    12.7023                12.1872                12.7306
 Frc consts  --     0.0000                 0.0000                 0.0000
 IR Inten    --     1.5036                 0.7804                 1.9253
 Raman Activ --     0.0000                 0.0000                 0.0000
 Depolar     --     0.0000                 0.0000                 0.0000
 Atom AN      X      Y      Z        X      Y      Z        X      Y      Z
   1   8     0.06   0.07   0.13     0.03   0.06   0.10     0.01   0.08   0.12
   2   6     0.05  -0.02   0.03    -0.02  -0.03   0.03     0.01  -0.01   0.01
   3   1     0.03  -0.02   0.01    -0.00  -0.03   0.02     0.02  -0.02   0.01
   4   1    -0.00  -0.01  -0.01    -0.01  -0.00   0.00    -0.01  -0.01  -0.02
   5   6     0.02  -0.00   0.02    -0.05  -0.05  -0.06    -0.01   0.00   0.01
   6   1     0.01  -0.00   0.01    -0.02   0.01  -0.03    -0.01   0.00   0.01
   7   1    -0.00  -0.00   0.01    -0.02  -0.03  -0.03    -0.00  -0.01  -0.00
   8   7     0.02   0.03  -0.01    -0.05  -0.07  -0.03     0.02   0.03   0.04
   9   6     0.00  -0.06  -0.03    -0.01   0.04  -0.01     0.00   0.04   0.05
  10   1     0.00  -0.03   0.01    -0.00   0.03  -0.03    -0.01   0.01   0.02
  11   1    -0.00  -0.01  -0.02    -0.01   0.00   0.00     0.01   0.01   0.02
  12   1    -0.01  -0.03  -0.02     0.00   0.03   0.02    -0.00   0.01   0.01
  13   6     0.04   0.07   0.08    -0.08  -0.11  -0.13     0.02   0.05   0.06
  14   1     0.01   0.01   0.04    -0.03  -0.01  -0.06    -0.00   0.01   0.02
  15   1     0.02   0.04   0.03    -0.03  -0.05  -0.04     0.01   0.01   0.01
  16   1     0.01   0.03   0.02    -0.02  -0.04  -0.03     0.01   0.02   0.02
  17   6     0.01   0.10  -0.09    -0.02  -0.15   0.06     0.06   0.04   0.01
  18   1     0.00   0.04  -0.02    -0.01  -0.07   0.01     0.02   0.01   0.00
  19   1     0.00   0.02  -0.05     0.00  -0.03   0.04     0.02   0.00  -0.00
  20   1     0.00   0.04  -0.04    -0.01  -0.05   0.02     0.02   0.02   0.01
  21   1     0.00   0.04   0.02    -0.00   0.03   0.02     0.01   0.05   0.01
  22   6     0.05   0.06   0.07    -0.05   0.02   0.04    -0.05  -0.08  -0.04
  23   8     0.14   0.09   0.02     0.06  -0.14  -0.06    -0.06  -0.10  -0.04
  24   7     0.10  -0.08  -0.06     0.02  -0.03   0.01    -0.18   0.07   0.09
  25   1     0.03  -0.03  -0.04     0.02  -0.03  -0.01    -0.05   0.02   0.03
  26   1     0.00  -0.02  -0.00    -0.03   0.04   0.03    -0.03   0.01   0.01
  27   7    -0.09   0.20   0.28    -0.27   0.26   0.22     0.10  -0.25  -0.19
  28   1    -0.02   0.03   0.07    -0.08   0.08   0.06     0.01  -0.05  -0.03
  29   1    -0.02   0.07   0.09    -0.07   0.06   0.05     0.04  -0.08  -0.06
  30   6    -0.11  -0.01   0.03     0.06  -0.02   0.01    -0.01   0.01   0.07
  31   8    -0.06  -0.12   0.19     0.05   0.07  -0.18    -0.04   0.04   0.05
  32   7    -0.28  -0.09  -0.08    -0.05   0.09   0.43    -0.14   0.05   0.31
  33   1    -0.10  -0.06  -0.00    -0.01   0.06   0.11    -0.08   0.03   0.13
  34   1    -0.09   0.00  -0.06     0.02  -0.00   0.12    -0.04   0.01   0.09
  35   7    -0.04   0.17  -0.06     0.17  -0.20  -0.13     0.15  -0.06  -0.14
  36   1    -0.02   0.06  -0.04     0.06  -0.08   0.00     0.04  -0.03  -0.02
  37   1     0.02   0.06   0.00     0.07  -0.08  -0.10     0.08  -0.03  -0.08
  38   6     0.11  -0.11  -0.17     0.07  -0.02  -0.02    -0.10  -0.08  -0.03
  39   8     0.14  -0.10  -0.16     0.06  -0.07  -0.12    -0.10  -0.02   0.12
  40   7     0.09  -0.18  -0.32     0.11   0.08   0.19    -0.14  -0.22  -0.33
  41   1     0.03  -0.03  -0.05     0.02   0.00   0.01    -0.03  -0.05  -0.05
  42   1     0.03  -0.04  -0.05     0.02   0.01   0.02    -0.03  -0.05  -0.07
  43   7     0.13  -0.09  -0.10     0.06  -0.04  -0.12    -0.10  -0.04   0.09
  44   1     0.03  -0.04  -0.07     0.02   0.02   0.02    -0.03  -0.05  -0.06
  45   1     0.04  -0.03  -0.03     0.01  -0.01  -0.03    -0.02  -0.01   0.02
  46   6    -0.09   0.02   0.06    -0.02   0.08  -0.06     0.12   0.12  -0.06
  47   8    -0.18   0.20   0.03    -0.13   0.14   0.01     0.08   0.35  -0.14
  48   7    -0.12   0.05   0.06     0.10   0.11  -0.05     0.10   0.05  -0.06
  49   1    -0.06   0.05   0.00     0.03   0.04   0.01     0.01   0.03  -0.03
  50   1    -0.03  -0.03   0.02     0.04   0.03  -0.03     0.02  -0.01  -0.01
  51   7     0.00  -0.19   0.10    -0.03   0.01  -0.17     0.22  -0.03   0.01
  52   1     0.02  -0.07   0.03     0.01   0.00  -0.06     0.07  -0.03   0.01
  53   1     0.01  -0.05   0.03    -0.03  -0.00  -0.05     0.06   0.01   0.01
                     10                     11                     12
                        a                      a                      a 
 Frequencies --    58.6196                67.3037                75.8454
 Red. masses --    12.4394                13.5083                10.6745
 Frc consts  --     0.0000                 0.0000                 0.0000
 IR Inten    --     3.0579                 4.6456                 4.9478
 Raman Activ --     0.0000                 0.0000                 0.0000
 Depolar     --     0.0000                 0.0000                 0.0000
 Atom AN      X      Y      Z        X      Y      Z        X      Y      Z
   1   8    -0.01  -0.06  -0.02    -0.11  -0.13  -0.21    -0.14   0.09   0.15
   2   6     0.01   0.03   0.06    -0.06  -0.04  -0.13    -0.05  -0.17  -0.17
   3   1    -0.01   0.03   0.01    -0.02   0.00  -0.05     0.06  -0.11  -0.04
   4   1     0.01   0.01   0.03    -0.02  -0.02  -0.03    -0.07  -0.05  -0.13
   5   6     0.03   0.05   0.12    -0.03  -0.03  -0.05    -0.09  -0.14  -0.17
   6   1     0.01  -0.00   0.05    -0.02  -0.01  -0.01    -0.05  -0.02  -0.05
   7   1     0.01   0.03   0.04     0.00  -0.00  -0.02    -0.03  -0.06  -0.07
   8   7     0.03   0.06   0.11     0.00  -0.01  -0.02    -0.00  -0.07  -0.09
   9   6     0.03   0.03   0.08    -0.03  -0.01   0.02    -0.16  -0.23  -0.02
  10   1     0.01   0.01   0.03    -0.02  -0.00   0.01    -0.06  -0.10   0.04
  11   1     0.01   0.01   0.02    -0.00   0.00   0.01    -0.03  -0.06   0.01
  12   1     0.01   0.01   0.02    -0.01  -0.01  -0.00    -0.08  -0.09  -0.05
  13   6     0.02   0.07   0.12     0.02   0.00   0.02     0.13   0.04   0.17
  14   1     0.01   0.02   0.04    -0.01   0.00   0.01     0.01  -0.02   0.09
  15   1     0.01   0.02   0.04     0.02  -0.00  -0.00     0.07   0.05   0.04
  16   1     0.01   0.02   0.03     0.01   0.01   0.02     0.05   0.03   0.07
  17   6     0.01   0.08   0.09     0.04  -0.00  -0.04     0.11   0.10  -0.32
  18   1     0.00   0.03   0.03     0.02   0.00  -0.02     0.05   0.06  -0.10
  19   1     0.00   0.02   0.02     0.00  -0.00  -0.02     0.02  -0.00  -0.15
  20   1     0.00   0.02   0.02     0.02   0.00  -0.00     0.05   0.06  -0.08
  21   1     0.01  -0.03   0.00    -0.02  -0.05  -0.04    -0.05   0.08   0.01
  22   6    -0.06  -0.11  -0.11     0.05   0.01   0.04    -0.01  -0.05  -0.00
  23   8    -0.16   0.12  -0.03     0.18  -0.11  -0.06    -0.01  -0.07  -0.01
  24   7     0.15  -0.50  -0.45    -0.01   0.06   0.08     0.05  -0.11  -0.06
  25   1     0.02  -0.10  -0.11     0.01   0.00   0.00     0.00  -0.02  -0.01
  26   1     0.03  -0.16  -0.12    -0.03   0.04   0.04    -0.00  -0.01  -0.01
  27   7    -0.18  -0.02   0.12    -0.04   0.10   0.14    -0.09   0.03   0.06
  28   1    -0.01  -0.08  -0.01    -0.02   0.04   0.05    -0.01  -0.00   0.01
  29   1    -0.07   0.04   0.07     0.02   0.00   0.02    -0.02   0.01   0.01
  30   6     0.10   0.02   0.04    -0.08  -0.01   0.03    -0.04   0.02   0.01
  31   8     0.07   0.03   0.07    -0.16   0.03   0.04    -0.16   0.08   0.04
  32   7     0.13   0.02   0.06    -0.12   0.03   0.18     0.12   0.05  -0.05
  33   1     0.00   0.02   0.05    -0.06   0.02   0.08     0.03   0.03  -0.01
  34   1     0.02   0.01   0.04    -0.02  -0.00   0.04     0.05  -0.00  -0.00
  35   7     0.17  -0.01  -0.03     0.03  -0.09  -0.11    -0.07  -0.07   0.05
  36   1     0.04  -0.00  -0.01     0.03  -0.03  -0.02    -0.00  -0.02   0.01
  37   1     0.04  -0.00  -0.01     0.02  -0.03  -0.05    -0.04  -0.02   0.02
  38   6    -0.11   0.05  -0.04     0.04   0.13  -0.01    -0.03   0.06   0.01
  39   8    -0.13   0.03  -0.15     0.00   0.09  -0.05    -0.04   0.09   0.08
  40   7    -0.15   0.04  -0.07     0.07  -0.02  -0.35    -0.02   0.09   0.07
  41   1    -0.04   0.02  -0.01     0.03  -0.02  -0.07    -0.01   0.02   0.01
  42   1    -0.04   0.03   0.03     0.04   0.04  -0.02    -0.01   0.01  -0.02
  43   7    -0.10   0.09   0.10     0.06   0.37   0.37    -0.05   0.01  -0.12
  44   1    -0.03   0.02   0.02     0.02   0.07   0.02    -0.01   0.01  -0.01
  45   1    -0.02   0.01   0.00     0.00   0.09   0.07    -0.01   0.01  -0.01
  46   6     0.04  -0.01  -0.03     0.03  -0.10   0.03     0.12   0.06   0.10
  47   8     0.08  -0.06  -0.03     0.16  -0.37   0.07     0.05   0.10   0.19
  48   7    -0.02   0.07  -0.05    -0.04   0.04  -0.00     0.29   0.01   0.14
  49   1    -0.01   0.02  -0.01     0.01  -0.01   0.01     0.10  -0.00   0.06
  50   1    -0.01   0.02  -0.01    -0.02   0.06   0.00     0.09   0.02   0.01
  51   7     0.05  -0.03  -0.00    -0.03   0.03   0.01     0.09   0.08  -0.01
  52   1     0.00   0.01  -0.01    -0.03   0.03  -0.01     0.03   0.02  -0.01
  53   1     0.02  -0.01  -0.00    -0.01  -0.01   0.00    -0.01   0.03  -0.00
                     13                     14                     15
                        a                      a                      a 
 Frequencies --    80.4501                88.6613                91.2031
 Red. masses --    12.0781                12.4604                11.8487
 Frc consts  --     0.0000                 0.0000                 0.0000
 IR Inten    --     2.9482                 7.0563                 4.9813
 Raman Activ --     0.0000                 0.0000                 0.0000
 Depolar     --     0.0000                 0.0000                 0.0000
 Atom AN      X      Y      Z        X      Y      Z        X      Y      Z
   1   8     0.00   0.08  -0.07     0.06  -0.07  -0.01    -0.09   0.03  -0.03
   2   6    -0.04   0.01  -0.10     0.09   0.10   0.14    -0.08  -0.07  -0.13
   3   1    -0.00  -0.01  -0.02    -0.01   0.07   0.03     0.02  -0.04  -0.04
   4   1    -0.02  -0.00  -0.03     0.05   0.03   0.07    -0.06  -0.04  -0.07
   5   6    -0.09   0.02  -0.14     0.15   0.08   0.21    -0.12  -0.00  -0.08
   6   1    -0.04   0.03  -0.05     0.07  -0.01   0.08    -0.07   0.01  -0.02
   7   1    -0.03  -0.02  -0.06     0.05   0.06   0.09    -0.03  -0.02  -0.04
   8   7    -0.03   0.04  -0.06     0.08   0.05   0.12    -0.01   0.09   0.04
   9   6     0.01   0.27   0.03     0.08  -0.12   0.02    -0.04   0.23   0.14
  10   1    -0.03   0.11  -0.02     0.04  -0.06   0.03    -0.04   0.09   0.03
  11   1     0.02   0.09   0.03     0.01  -0.03  -0.02     0.01   0.07   0.06
  12   1     0.03   0.08   0.03     0.02  -0.05  -0.01    -0.01   0.07   0.05
  13   6    -0.13  -0.01  -0.20     0.13   0.06   0.17    -0.07   0.12   0.04
  14   1    -0.05   0.02  -0.09     0.04   0.01   0.06    -0.05   0.04   0.01
  15   1    -0.05  -0.05  -0.07     0.04   0.04   0.05    -0.02   0.01  -0.00
  16   1    -0.03   0.00  -0.05     0.03   0.01   0.04    -0.00   0.05   0.03
  17   6     0.10  -0.14   0.11    -0.06   0.16   0.03     0.18   0.00   0.06
  18   1     0.03  -0.09   0.01    -0.02   0.09   0.03     0.06  -0.03  -0.01
  19   1     0.04  -0.02   0.07    -0.03   0.04  -0.01     0.07  -0.00   0.02
  20   1     0.04  -0.05   0.05    -0.03   0.04  -0.01     0.08   0.02   0.04
  21   1     0.01   0.04  -0.03     0.03  -0.04   0.01    -0.03   0.03  -0.02
  22   6     0.03  -0.05  -0.03    -0.05  -0.10  -0.04    -0.07  -0.01   0.03
  23   8     0.04  -0.13  -0.05     0.09  -0.35  -0.18    -0.04  -0.03  -0.00
  24   7     0.18  -0.15  -0.10    -0.07  -0.00   0.06    -0.20   0.09   0.10
  25   1     0.04  -0.03  -0.00    -0.01  -0.02   0.01    -0.04   0.00  -0.00
  26   1     0.02   0.00  -0.01    -0.05   0.05   0.04    -0.05   0.01   0.02
  27   7    -0.14   0.15   0.06    -0.20   0.07   0.02    -0.01  -0.10  -0.00
  28   1    -0.02   0.03  -0.00    -0.07   0.06   0.02    -0.02  -0.01   0.02
  29   1    -0.04   0.03   0.01    -0.04  -0.01  -0.02     0.01  -0.03  -0.00
  30   6    -0.09  -0.10   0.03    -0.14  -0.02  -0.10     0.03  -0.07  -0.05
  31   8    -0.11  -0.11   0.04    -0.33   0.03   0.01    -0.01  -0.13   0.12
  32   7    -0.02  -0.12  -0.07    -0.00  -0.01  -0.20     0.03  -0.14  -0.21
  33   1     0.02  -0.04  -0.04    -0.02   0.01  -0.03    -0.05  -0.05  -0.00
  34   1     0.00  -0.03  -0.03     0.02  -0.01  -0.07    -0.02  -0.02  -0.06
  35   7    -0.18  -0.09   0.13    -0.10  -0.11  -0.18     0.12   0.01  -0.16
  36   1    -0.03  -0.02   0.02     0.01  -0.04  -0.06     0.02   0.01  -0.05
  37   1    -0.05  -0.02   0.04    -0.05  -0.03  -0.04     0.03   0.02  -0.02
  38   6     0.01   0.03   0.06     0.03  -0.00   0.07     0.01  -0.01  -0.03
  39   8    -0.01   0.11   0.33    -0.02  -0.06   0.10     0.01  -0.12  -0.33
  40   7     0.04  -0.01  -0.03     0.12   0.05   0.21     0.02   0.12   0.25
  41   1     0.01  -0.01  -0.01     0.03  -0.02   0.01    -0.00   0.02   0.04
  42   1     0.01  -0.03  -0.08     0.04  -0.00   0.00     0.01   0.06   0.13
  43   7    -0.03   0.01  -0.11    -0.00   0.03  -0.04     0.03  -0.01   0.06
  44   1    -0.00  -0.00  -0.06     0.01   0.03   0.02     0.01   0.02   0.07
  45   1    -0.01   0.02   0.01    -0.02   0.01  -0.01     0.01  -0.03  -0.05
  46   6     0.11   0.05   0.05     0.03   0.04  -0.10     0.08  -0.02   0.03
  47   8     0.25   0.14  -0.13     0.08   0.06  -0.17     0.06  -0.04   0.09
  48   7    -0.09  -0.03   0.02    -0.05   0.07  -0.13     0.02   0.29   0.00
  49   1    -0.05  -0.01  -0.04    -0.02   0.02  -0.04    -0.02   0.12   0.01
  50   1    -0.05  -0.02   0.04    -0.02   0.02  -0.02     0.01   0.06   0.00
  51   7     0.20   0.03   0.26     0.07   0.01  -0.04     0.19  -0.27   0.03
  52   1     0.03   0.01   0.09     0.01  -0.00  -0.00     0.05  -0.05  -0.01
  53   1     0.08   0.01   0.07     0.02   0.01  -0.01     0.06  -0.10   0.01
                     16                     17                     18
                        a                      a                      a 
 Frequencies --    98.4076               104.9917               118.6965
 Red. masses --    12.3898                12.9278                12.4362
 Frc consts  --     0.0000                 0.0000                 0.0000
 IR Inten    --     2.2104                 8.8770                15.9419
 Raman Activ --     0.0000                 0.0000                 0.0000
 Depolar     --     0.0000                 0.0000                 0.0000
 Atom AN      X      Y      Z        X      Y      Z        X      Y      Z
   1   8     0.02  -0.02  -0.02     0.06   0.09   0.10    -0.08  -0.04  -0.01
   2   6     0.02   0.04   0.04     0.03   0.04   0.06    -0.03  -0.04  -0.04
   3   1    -0.01   0.02   0.01     0.01   0.00   0.02     0.02  -0.01  -0.03
   4   1     0.02   0.02   0.03     0.01   0.01   0.01    -0.03  -0.03  -0.03
   5   6     0.04   0.01   0.02     0.02   0.03   0.01    -0.03   0.03   0.09
   6   1     0.02   0.00   0.00     0.01   0.01  -0.00    -0.03  -0.01   0.05
   7   1     0.01   0.01   0.01     0.00   0.00   0.00    -0.00   0.02   0.03
   8   7     0.00  -0.04  -0.01     0.00   0.01  -0.00     0.03   0.14   0.12
   9   6     0.02  -0.05  -0.03     0.02   0.03  -0.01     0.02   0.14   0.13
  10   1     0.02  -0.01  -0.01     0.01   0.01  -0.01     0.01   0.04   0.03
  11   1    -0.00  -0.02  -0.01     0.01   0.01  -0.01     0.00   0.04   0.04
  12   1     0.01  -0.01  -0.00     0.01   0.01  -0.00     0.00   0.04   0.04
  13   6     0.01  -0.06  -0.04    -0.01  -0.01  -0.04    -0.01   0.18   0.16
  14   1     0.00  -0.01  -0.02     0.00   0.00  -0.02    -0.01   0.04   0.06
  15   1     0.00  -0.02  -0.01    -0.01  -0.01  -0.01    -0.01   0.05   0.05
  16   1     0.00  -0.02  -0.01    -0.01  -0.00  -0.01     0.00   0.07   0.04
  17   6    -0.05  -0.05   0.03    -0.02  -0.01   0.03     0.14   0.14   0.06
  18   1    -0.02  -0.01   0.01    -0.01  -0.01   0.01     0.04   0.03   0.01
  19   1    -0.02  -0.01   0.02    -0.00   0.00   0.02     0.05   0.03   0.00
  20   1    -0.02  -0.02   0.00    -0.01  -0.01   0.00     0.05   0.07   0.02
  21   1     0.01  -0.01  -0.00     0.01   0.04   0.02    -0.03  -0.01   0.00
  22   6     0.01   0.03   0.00    -0.01  -0.03   0.03     0.02  -0.04  -0.04
  23   8    -0.02   0.07   0.03     0.04  -0.03   0.00     0.07  -0.14  -0.09
  24   7     0.01   0.03  -0.00    -0.08   0.01   0.05     0.04  -0.01  -0.01
  25   1     0.01   0.00  -0.01    -0.02   0.00  -0.01     0.01  -0.01   0.00
  26   1     0.01  -0.01  -0.01    -0.03  -0.00   0.02    -0.00   0.02   0.01
  27   7     0.05  -0.01  -0.02     0.01  -0.06   0.07    -0.04   0.04  -0.03
  28   1     0.02  -0.01  -0.01    -0.00  -0.02   0.02    -0.02   0.03  -0.00
  29   1     0.01   0.00  -0.00     0.02  -0.02   0.01    -0.01  -0.00  -0.02
  30   6    -0.14   0.01   0.18    -0.04  -0.09   0.05     0.02  -0.14  -0.02
  31   8    -0.19   0.09   0.04    -0.05  -0.11   0.07     0.31  -0.27  -0.21
  32   7     0.12   0.05   0.11    -0.03  -0.11  -0.00    -0.24  -0.19   0.05
  33   1     0.09   0.04  -0.02    -0.01  -0.03   0.00     0.04  -0.10  -0.10
  34   1     0.04  -0.01   0.07    -0.01  -0.03  -0.00    -0.06  -0.04  -0.02
  35   7    -0.38  -0.12   0.47    -0.06  -0.08   0.06    -0.19   0.01   0.23
  36   1    -0.08  -0.04   0.12    -0.02  -0.02   0.02    -0.07   0.01   0.06
  37   1    -0.14  -0.03   0.14    -0.02  -0.02   0.03    -0.01  -0.00   0.04
  38   6     0.02  -0.04  -0.09    -0.02   0.20  -0.09    -0.00  -0.00   0.01
  39   8     0.05  -0.07  -0.27    -0.03   0.15  -0.35    -0.02   0.00   0.08
  40   7    -0.03  -0.03  -0.08    -0.04   0.27   0.01     0.01  -0.04  -0.06
  41   1    -0.01   0.01  -0.01    -0.02   0.06  -0.02     0.00  -0.02  -0.02
  42   1    -0.01   0.02   0.05    -0.01   0.09   0.05     0.00  -0.02  -0.05
  43   7     0.06  -0.02   0.09     0.01   0.23   0.07    -0.01   0.02  -0.00
  44   1     0.01  -0.02  -0.00    -0.01   0.07   0.08    -0.00   0.01  -0.00
  45   1     0.02  -0.04  -0.04     0.02   0.06   0.03    -0.00   0.01   0.02
  46   6     0.08   0.04  -0.11     0.04  -0.10  -0.03    -0.01   0.04  -0.09
  47   8     0.05   0.02  -0.06    -0.08   0.24  -0.15    -0.11  -0.03   0.04
  48   7     0.07   0.30  -0.15     0.17  -0.56   0.02     0.22   0.02  -0.06
  49   1     0.00   0.12  -0.02     0.04  -0.16  -0.02     0.09  -0.01   0.03
  50   1     0.02   0.07  -0.04     0.05  -0.18   0.00     0.09   0.04  -0.06
  51   7     0.16  -0.16  -0.16     0.06  -0.10   0.00    -0.13   0.15  -0.28
  52   1     0.04  -0.03  -0.06     0.02  -0.04   0.01    -0.02   0.03  -0.09
  53   1     0.04  -0.05  -0.05    -0.01   0.02   0.01    -0.05   0.03  -0.08
                     19                     20                     21
                        a                      a                      a 
 Frequencies --   127.0596               151.9500               159.1682
 Red. masses --    13.0012                13.0488                13.0140
 Frc consts  --     0.0000                 0.0000                 0.0000
 IR Inten    --     1.2141                 9.8692                 1.6193
 Raman Activ --     0.0000                 0.0000                 0.0000
 Depolar     --     0.0000                 0.0000                 0.0000
 Atom AN      X      Y      Z        X      Y      Z        X      Y      Z
   1   8     0.01   0.03   0.03    -0.06  -0.02   0.05    -0.01   0.02   0.04
   2   6    -0.00  -0.00   0.00    -0.00  -0.03  -0.01     0.00  -0.01   0.01
   3   1     0.00  -0.01   0.01     0.02  -0.01  -0.01     0.00  -0.01   0.00
   4   1    -0.00   0.00  -0.00    -0.01  -0.01  -0.02    -0.00  -0.00  -0.00
   5   6    -0.01  -0.01  -0.03     0.01  -0.02   0.04    -0.00  -0.00   0.00
   6   1    -0.00   0.00  -0.01     0.00  -0.01   0.02    -0.00   0.00  -0.00
   7   1    -0.01  -0.01  -0.01     0.00   0.00   0.02    -0.00  -0.00  -0.00
   8   7    -0.01  -0.02  -0.02     0.01   0.01   0.02    -0.00  -0.00   0.01
   9   6    -0.01  -0.01  -0.01    -0.00  -0.02   0.02    -0.00  -0.01   0.01
  10   1    -0.00   0.00  -0.01     0.01  -0.01   0.00     0.01  -0.00  -0.01
  11   1    -0.01  -0.01  -0.00    -0.00  -0.01   0.00    -0.01  -0.01   0.00
  12   1    -0.00   0.00   0.00    -0.01  -0.00   0.01    -0.01   0.01   0.01
  13   6    -0.01  -0.02  -0.03     0.02   0.04   0.06     0.00   0.00   0.01
  14   1     0.00  -0.01  -0.01     0.01   0.00   0.03     0.00   0.00   0.01
  15   1    -0.00  -0.01  -0.01     0.01   0.02   0.02     0.00   0.00   0.00
  16   1    -0.00  -0.01  -0.01     0.01   0.01   0.01     0.00   0.00   0.01
  17   6    -0.01  -0.03  -0.01     0.02   0.05  -0.03     0.00   0.00  -0.00
  18   1    -0.00  -0.01  -0.00     0.01   0.02  -0.01    -0.00   0.00   0.00
  19   1    -0.00  -0.01   0.00     0.01   0.00  -0.02     0.00  -0.00  -0.00
  20   1    -0.00  -0.01  -0.00     0.01   0.03  -0.01     0.00   0.00  -0.00
  21   1    -0.00   0.01   0.01    -0.01   0.00   0.01    -0.01   0.01   0.01
  22   6    -0.03   0.05  -0.15    -0.06  -0.11  -0.03     0.25   0.04  -0.02
  23   8     0.21   0.19  -0.35    -0.01  -0.20  -0.09     0.27  -0.17  -0.02
  24   7    -0.34   0.04  -0.24    -0.11  -0.04   0.03     0.38   0.08   0.07
  25   1    -0.09   0.01  -0.09    -0.02  -0.02  -0.01     0.10   0.02   0.04
  26   1    -0.13  -0.01  -0.04    -0.04   0.00   0.01     0.07   0.08   0.04
  27   7     0.01  -0.07   0.13    -0.11  -0.07  -0.03     0.12   0.25  -0.05
  28   1    -0.06  -0.04   0.09    -0.04   0.00   0.01     0.06   0.08  -0.04
  29   1     0.06  -0.01   0.06    -0.02  -0.03  -0.02     0.03   0.03  -0.05
  30   6     0.04   0.08   0.04     0.04   0.11  -0.15     0.02   0.06  -0.05
  31   8     0.11   0.06   0.03     0.24   0.14  -0.48     0.06   0.07  -0.09
  32   7    -0.01   0.08   0.06    -0.05   0.21   0.11    -0.00   0.08  -0.01
  33   1     0.07   0.00  -0.06     0.15   0.06  -0.14     0.02   0.02  -0.03
  34   1     0.03   0.02  -0.03     0.05   0.03  -0.00     0.01   0.02  -0.02
  35   7    -0.04   0.14   0.14    -0.16   0.06   0.08     0.01   0.07  -0.04
  36   1     0.01   0.05  -0.00    -0.06   0.01   0.06    -0.00   0.02   0.00
  37   1     0.00   0.04   0.04    -0.05   0.00  -0.00     0.00   0.01  -0.02
  38   6     0.00  -0.04   0.09     0.05  -0.01  -0.08    -0.25  -0.03   0.03
  39   8    -0.18  -0.22   0.23     0.11   0.00  -0.22    -0.29  -0.02  -0.02
  40   7     0.26  -0.07   0.11    -0.03   0.03  -0.02    -0.25  -0.00   0.07
  41   1     0.07  -0.06  -0.01    -0.02   0.00  -0.05    -0.07  -0.01   0.03
  42   1     0.09  -0.02  -0.04    -0.02  -0.02  -0.03    -0.06   0.01   0.02
  43   7    -0.08   0.21   0.00     0.11  -0.06   0.08    -0.29   0.03   0.07
  44   1     0.01   0.10   0.00     0.02  -0.02   0.05    -0.07   0.01   0.00
  45   1    -0.07   0.08   0.03     0.05  -0.02   0.02    -0.08  -0.00  -0.01
  46   6     0.01  -0.09   0.00     0.00  -0.02   0.16    -0.02  -0.11  -0.00
  47   8    -0.07   0.01   0.01     0.11   0.04   0.02    -0.12   0.00   0.02
  48   7     0.05  -0.07  -0.01    -0.22  -0.04   0.13    -0.01  -0.01  -0.02
  49   1     0.01  -0.00   0.01    -0.09  -0.00  -0.01    -0.03   0.04   0.00
  50   1     0.01   0.00  -0.01    -0.08  -0.06   0.08    -0.01   0.00  -0.00
  51   7     0.07  -0.24  -0.01     0.08  -0.05   0.34     0.10  -0.37  -0.00
  52   1     0.03  -0.08   0.00     0.00   0.00   0.09     0.03  -0.09  -0.01
  53   1     0.02  -0.04   0.00     0.05  -0.04   0.09     0.03  -0.09   0.00
                     22                     23                     24
                        a                      a                      a 
 Frequencies --   168.3982               181.3689               188.1684
 Red. masses --    12.8978                12.7483                10.6906
 Frc consts  --     0.0000                 0.0000                 0.0000
 IR Inten    --    13.8681                17.4163                11.5251
 Raman Activ --     0.0000                 0.0000                 0.0000
 Depolar     --     0.0000                 0.0000                 0.0000
 Atom AN      X      Y      Z        X      Y      Z        X      Y      Z
   1   8     0.05   0.01  -0.04    -0.13  -0.07  -0.00     0.42   0.21   0.11
   2   6     0.00   0.01   0.00    -0.01  -0.02  -0.04     0.04   0.06   0.19
   3   1    -0.01   0.01   0.01     0.02   0.00  -0.03    -0.04  -0.01   0.11
   4   1     0.01   0.01   0.01    -0.01  -0.01  -0.03     0.04   0.01   0.11
   5   6    -0.02  -0.00  -0.05     0.06  -0.01   0.10    -0.20   0.08  -0.22
   6   1    -0.00   0.01  -0.02     0.02  -0.04   0.05    -0.09   0.13  -0.14
   7   1    -0.01  -0.01  -0.02     0.03   0.03   0.05    -0.10  -0.09  -0.13
   8   7    -0.02  -0.03  -0.04     0.05   0.03   0.03    -0.11   0.03   0.03
   9   6    -0.02  -0.00  -0.03     0.08   0.01  -0.01    -0.30  -0.00   0.21
  10   1    -0.02  -0.00   0.00     0.04   0.00  -0.01    -0.15  -0.01   0.11
  11   1     0.00   0.02  -0.01     0.01  -0.01  -0.01    -0.04   0.04   0.10
  12   1     0.00  -0.01  -0.01     0.02   0.01   0.00    -0.11  -0.04   0.00
  13   6    -0.01  -0.04  -0.05    -0.02   0.05   0.02     0.15  -0.03   0.14
  14   1     0.00  -0.01  -0.01    -0.02   0.02   0.00     0.05  -0.03   0.06
  15   1    -0.00  -0.01  -0.01    -0.01   0.00   0.00     0.09   0.03   0.02
  16   1    -0.01  -0.02  -0.02     0.00   0.03   0.01     0.04  -0.04   0.07
  17   6    -0.03  -0.05  -0.00     0.04   0.05   0.01    -0.01   0.05  -0.03
  18   1    -0.00  -0.02  -0.01    -0.00   0.01   0.02     0.06   0.04  -0.08
  19   1    -0.02  -0.01   0.01     0.03   0.00  -0.00    -0.09   0.04  -0.03
  20   1    -0.01  -0.03   0.01     0.00   0.03  -0.02     0.03  -0.03   0.06
  21   1     0.02  -0.00  -0.01    -0.03  -0.02  -0.00     0.12   0.06   0.02
  22   6     0.08  -0.08  -0.10     0.11   0.17  -0.02     0.02   0.05   0.00
  23   8     0.35  -0.20  -0.31     0.21   0.38  -0.04     0.02   0.09   0.02
  24   7    -0.12   0.00  -0.06    -0.06   0.10  -0.12     0.01   0.03  -0.01
  25   1    -0.03   0.00  -0.05    -0.02   0.04  -0.06     0.01   0.00  -0.01
  26   1    -0.09   0.04   0.02    -0.03  -0.01  -0.02     0.01  -0.01  -0.01
  27   7     0.02  -0.03   0.14     0.23   0.01   0.25     0.05   0.02   0.03
  28   1    -0.04  -0.01   0.08     0.04  -0.08   0.07     0.01  -0.01   0.01
  29   1     0.08  -0.05   0.02     0.13   0.01   0.10     0.02   0.01   0.02
  30   6     0.04   0.05   0.12    -0.08  -0.15  -0.14    -0.00  -0.05  -0.05
  31   8     0.02   0.00   0.30    -0.15  -0.08  -0.30     0.02  -0.05  -0.13
  32   7    -0.04   0.01   0.01     0.03  -0.10   0.02    -0.02  -0.04   0.02
  33   1     0.04  -0.04  -0.05    -0.02   0.02   0.04     0.01  -0.01  -0.02
  34   1     0.04   0.00  -0.09    -0.00  -0.04   0.07    -0.00  -0.02   0.01
  35   7     0.07   0.18   0.08    -0.10  -0.34  -0.13    -0.04  -0.09  -0.02
  36   1     0.02   0.07  -0.01     0.01  -0.11  -0.03    -0.00  -0.03  -0.00
  37   1     0.02   0.07   0.06    -0.02  -0.11  -0.07    -0.00  -0.03  -0.02
  38   6    -0.10  -0.05  -0.00    -0.09  -0.06   0.03    -0.02  -0.05  -0.01
  39   8     0.06   0.10  -0.16    -0.05  -0.04  -0.03    -0.04  -0.09  -0.06
  40   7    -0.30   0.04   0.09    -0.12  -0.04   0.06     0.02  -0.05   0.01
  41   1    -0.10   0.03  -0.01    -0.03   0.01   0.04     0.01  -0.01   0.01
  42   1    -0.11  -0.02   0.01    -0.03   0.01   0.07     0.01   0.01   0.03
  43   7    -0.00  -0.30   0.12    -0.07  -0.15   0.02    -0.03  -0.00   0.01
  44   1    -0.04  -0.12   0.05    -0.03  -0.04   0.03    -0.00   0.01   0.01
  45   1     0.05  -0.11   0.00    -0.00  -0.05   0.00    -0.02  -0.00  -0.01
  46   6     0.01   0.09  -0.01     0.02   0.07   0.06     0.03  -0.04  -0.06
  47   8     0.09  -0.03  -0.00     0.08   0.08   0.00     0.15  -0.18  -0.11
  48   7    -0.01   0.05   0.02    -0.02  -0.00   0.07    -0.13  -0.04  -0.10
  49   1     0.02  -0.02  -0.01    -0.00  -0.01   0.00    -0.03  -0.03  -0.05
  50   1     0.01  -0.02   0.00    -0.01  -0.02   0.02    -0.06   0.01  -0.00
  51   7    -0.09   0.30  -0.01     0.00   0.14   0.10    -0.01   0.09  -0.01
  52   1    -0.02   0.07   0.01    -0.01   0.05   0.02    -0.02   0.04  -0.00
  53   1    -0.02   0.08  -0.00    -0.00   0.02   0.02     0.01   0.01  -0.00
                     25                     26                     27
                        a                      a                      a 
 Frequencies --   217.7799               235.0933               241.7121
 Red. masses --    12.8683                12.7722                 3.0987
 Frc consts  --     0.0000                 0.0000                 0.0000
 IR Inten    --    80.4638                 1.0440                73.1063
 Raman Activ --     0.0000                 0.0000                 0.0000
 Depolar     --     0.0000                 0.0000                 0.0000
 Atom AN      X      Y      Z        X      Y      Z        X      Y      Z
   1   8    -0.15   0.09   0.17    -0.26   0.28   0.56     0.02  -0.03  -0.05
   2   6    -0.00   0.00  -0.01     0.03   0.03   0.11    -0.00  -0.01  -0.01
   3   1     0.03  -0.02  -0.01     0.07  -0.05   0.04    -0.01   0.00  -0.00
   4   1    -0.02   0.01  -0.05    -0.03   0.05  -0.07     0.00  -0.01   0.01
   5   6     0.06  -0.03   0.03     0.07  -0.04   0.03    -0.01   0.00  -0.01
   6   1     0.03  -0.03   0.02     0.03  -0.00  -0.00    -0.00   0.00  -0.00
   7   1     0.02   0.01   0.02     0.01  -0.02   0.01    -0.00  -0.00  -0.00
   8   7     0.03  -0.01  -0.03     0.06   0.01  -0.05    -0.01  -0.00   0.00
   9   6     0.07   0.01  -0.06     0.06   0.03  -0.05    -0.01  -0.00   0.01
  10   1     0.04   0.01  -0.03     0.11   0.03  -0.10    -0.01  -0.00   0.01
  11   1     0.01  -0.02  -0.02    -0.04  -0.11  -0.00     0.00   0.01   0.00
  12   1     0.02   0.02   0.00    -0.02   0.11   0.07     0.00  -0.01  -0.01
  13   6    -0.05   0.02  -0.06    -0.04   0.06  -0.08     0.01  -0.01   0.01
  14   1    -0.02   0.01  -0.02    -0.06   0.04  -0.03     0.02  -0.01   0.00
  15   1    -0.03  -0.01  -0.01    -0.01  -0.03  -0.04     0.00   0.01   0.01
  16   1    -0.01   0.02  -0.03     0.01   0.04   0.00    -0.00  -0.01  -0.01
  17   6     0.04  -0.02  -0.02     0.11   0.02  -0.07    -0.01  -0.00   0.01
  18   1    -0.01  -0.02   0.01    -0.02  -0.02   0.02     0.00   0.00  -0.01
  19   1     0.04  -0.01  -0.00     0.10  -0.02  -0.02    -0.01   0.00   0.00
  20   1     0.00   0.02  -0.03     0.02   0.06  -0.07    -0.00  -0.01   0.01
  21   1    -0.02   0.05   0.02    -0.07   0.14   0.11     0.01  -0.01  -0.01
  22   6     0.03   0.01   0.01    -0.01  -0.01  -0.01     0.02  -0.06  -0.06
  23   8    -0.03  -0.06   0.05     0.01   0.00  -0.03    -0.01  -0.04  -0.03
  24   7     0.10   0.03   0.05    -0.04  -0.01  -0.01    -0.03   0.01   0.01
  25   1     0.06  -0.03   0.00    -0.02   0.01   0.00    -0.04   0.04   0.03
  26   1     0.05  -0.02  -0.01    -0.03   0.02   0.01    -0.10   0.11   0.06
  27   7     0.00   0.06  -0.13    -0.02  -0.00   0.05    -0.20   0.21   0.15
  28   1    -0.02   0.10  -0.00     0.04  -0.07  -0.03     0.36  -0.45  -0.37
  29   1    -0.07   0.05  -0.02     0.04  -0.05  -0.02     0.24  -0.31  -0.24
  30   6     0.00   0.02   0.06    -0.00   0.00   0.00    -0.00   0.03   0.02
  31   8     0.02  -0.00   0.10    -0.01   0.00   0.00     0.07   0.01  -0.02
  32   7    -0.02  -0.01  -0.01     0.02  -0.00  -0.01     0.06   0.00  -0.07
  33   1    -0.02  -0.02   0.01    -0.02   0.01   0.02    -0.13   0.02   0.14
  34   1    -0.02   0.01  -0.01    -0.01   0.00   0.01    -0.11   0.03   0.11
  35   7     0.01   0.05   0.05    -0.00  -0.00  -0.00    -0.03   0.05   0.06
  36   1     0.00   0.02   0.00     0.00  -0.00  -0.00    -0.02   0.01   0.02
  37   1    -0.02   0.02   0.04     0.01  -0.00  -0.01     0.02   0.01  -0.01
  38   6    -0.08  -0.17  -0.09     0.04   0.05   0.04     0.01  -0.02   0.00
  39   8    -0.23  -0.44  -0.30     0.09   0.13   0.10    -0.01  -0.06  -0.02
  40   7     0.20  -0.16   0.06    -0.06   0.04  -0.03     0.06  -0.04  -0.02
  41   1     0.07  -0.09   0.02    -0.02   0.03   0.00     0.03   0.02   0.06
  42   1     0.10   0.04   0.10    -0.03  -0.00  -0.00     0.04   0.08   0.16
  43   7    -0.16   0.16  -0.00     0.06  -0.06   0.01    -0.00   0.03  -0.01
  44   1    -0.00   0.09  -0.01     0.00  -0.04  -0.03     0.00  -0.03  -0.10
  45   1    -0.11   0.03  -0.07     0.03  -0.02  -0.00    -0.01  -0.02  -0.08
  46   6     0.06   0.09   0.04     0.02  -0.14  -0.12     0.00   0.01   0.02
  47   8     0.21  -0.01  -0.04     0.09  -0.33  -0.10    -0.00   0.04   0.01
  48   7    -0.04  -0.08   0.04    -0.16  -0.02  -0.19     0.01  -0.02   0.03
  49   1     0.03  -0.09  -0.01    -0.05  -0.01  -0.07     0.01  -0.01   0.01
  50   1    -0.03   0.03   0.02    -0.07   0.02  -0.02     0.00  -0.00   0.01
  51   7    -0.05   0.37   0.09    -0.02  -0.06  -0.12    -0.01   0.04   0.03
  52   1    -0.04   0.12   0.03    -0.01  -0.01  -0.03     0.00   0.00   0.01
  53   1    -0.01   0.08   0.02     0.01  -0.04  -0.04     0.00   0.01   0.01
                     28                     29                     30
                        a                      a                      a 
 Frequencies --   258.2189               259.7831               270.4691
 Red. masses --     2.4775                 4.3533                 3.6719
 Frc consts  --     0.0000                 0.0000                 0.0000
 IR Inten    --    18.8687                 3.5668               426.6126
 Raman Activ --     0.0000                 0.0000                 0.0000
 Depolar     --     0.0000                 0.0000                 0.0000
 Atom AN      X      Y      Z        X      Y      Z        X      Y      Z
   1   8    -0.03  -0.04   0.01     0.23   0.10  -0.09    -0.01   0.01  -0.00
   2   6    -0.01   0.02   0.05     0.06  -0.14  -0.23    -0.00   0.02   0.01
   3   1    -0.03   0.02   0.02     0.12  -0.09  -0.09    -0.01   0.01   0.00
   4   1     0.01   0.02   0.03    -0.07  -0.11  -0.12     0.00   0.01   0.00
   5   6    -0.00  -0.01  -0.01    -0.04   0.07   0.01     0.01   0.00   0.01
   6   1     0.00   0.01  -0.01    -0.03  -0.01   0.04     0.00  -0.00   0.00
   7   1    -0.01  -0.01  -0.01     0.01   0.05   0.01     0.00   0.00   0.00
   8   7     0.00  -0.00  -0.01    -0.05   0.04   0.07     0.01  -0.00   0.00
   9   6    -0.00   0.01  -0.00    -0.08  -0.01   0.09     0.02  -0.01  -0.01
  10   1    -0.03  -0.00   0.02     0.12   0.03  -0.10    -0.00  -0.01   0.01
  11   1     0.02   0.03   0.00    -0.12  -0.18   0.03     0.01   0.01  -0.01
  12   1     0.01  -0.02  -0.02    -0.09   0.14   0.14     0.01  -0.01  -0.01
  13   6    -0.01   0.01   0.00     0.12  -0.09   0.03    -0.02   0.02   0.00
  14   1     0.03  -0.01   0.01    -0.09   0.04  -0.03    -0.02   0.01   0.00
  15   1    -0.02   0.03   0.03     0.12  -0.13  -0.12    -0.01  -0.00  -0.00
  16   1    -0.02  -0.00  -0.03     0.12  -0.03   0.17    -0.00   0.01   0.00
  17   6     0.03  -0.01  -0.02    -0.24   0.06   0.10     0.03  -0.00  -0.00
  18   1     0.06   0.02  -0.06    -0.32  -0.07   0.28     0.02   0.00  -0.01
  19   1    -0.05   0.02  -0.01     0.25  -0.09   0.05    -0.01   0.00  -0.00
  20   1     0.03  -0.04   0.05    -0.19   0.23  -0.24     0.01  -0.01   0.01
  21   1    -0.00  -0.02   0.01    -0.00   0.05  -0.03    -0.00  -0.00   0.00
  22   6     0.00  -0.02  -0.03    -0.00  -0.00  -0.00    -0.02   0.03   0.02
  23   8     0.06  -0.07  -0.08     0.01  -0.01  -0.01    -0.07   0.08   0.06
  24   7    -0.05   0.00  -0.02    -0.01   0.00  -0.00     0.03  -0.02  -0.01
  25   1     0.01  -0.03  -0.02     0.00  -0.00  -0.00    -0.02   0.03   0.03
  26   1     0.02  -0.05  -0.03     0.00  -0.01  -0.00    -0.02   0.04   0.02
  27   7     0.02  -0.06  -0.05     0.00  -0.01  -0.01    -0.01   0.03   0.01
  28   1    -0.15   0.18   0.15    -0.02   0.03   0.02     0.08  -0.10  -0.08
  29   1    -0.08   0.10   0.07    -0.01   0.01   0.01     0.04  -0.04  -0.04
  30   6    -0.01   0.02   0.00     0.00  -0.00   0.00     0.03  -0.05  -0.05
  31   8     0.06   0.00  -0.08     0.01  -0.00  -0.00    -0.11  -0.01   0.07
  32   7     0.10  -0.00  -0.10     0.01  -0.00  -0.01    -0.17   0.01   0.19
  33   1    -0.18   0.04   0.20    -0.02   0.00   0.02     0.38  -0.06  -0.40
  34   1    -0.14   0.04   0.17    -0.01   0.00   0.02     0.25  -0.07  -0.27
  35   7    -0.08   0.04   0.07    -0.01   0.01   0.01     0.12  -0.09  -0.15
  36   1     0.00   0.01   0.00    -0.00   0.00  -0.00    -0.02  -0.01  -0.01
  37   1     0.07  -0.02  -0.08     0.01   0.00  -0.00    -0.11   0.02   0.11
  38   6     0.02   0.02  -0.00     0.00  -0.00  -0.01     0.00  -0.02  -0.06
  39   8     0.03   0.07   0.06     0.00   0.00   0.00     0.01  -0.01   0.01
  40   7     0.00   0.02  -0.01     0.00   0.00   0.00     0.02   0.03   0.08
  41   1     0.02   0.07   0.13     0.00   0.01   0.02     0.00   0.01   0.01
  42   1     0.04   0.16   0.32     0.01   0.03   0.06     0.00  -0.01  -0.00
  43   7     0.01   0.05   0.11     0.00   0.02   0.03     0.00   0.09   0.16
  44   1    -0.03  -0.24  -0.55    -0.01  -0.05  -0.13    -0.02  -0.18  -0.45
  45   1    -0.01  -0.12  -0.31    -0.00  -0.03  -0.07    -0.02  -0.08  -0.22
  46   6    -0.00  -0.04   0.02     0.01  -0.01   0.01     0.00  -0.02  -0.00
  47   8    -0.04   0.01   0.02     0.01  -0.00   0.00    -0.02   0.02  -0.00
  48   7     0.00  -0.06   0.02    -0.00  -0.02   0.01     0.03  -0.03  -0.01
  49   1    -0.00  -0.01   0.01     0.00  -0.01   0.00     0.01   0.00   0.01
  50   1    -0.01  -0.00   0.01    -0.00   0.00   0.01     0.00   0.03  -0.00
  51   7    -0.02  -0.00   0.01    -0.01   0.02   0.01    -0.01   0.00  -0.01
  52   1     0.02  -0.03   0.01     0.00   0.00   0.00    -0.00  -0.00   0.00
  53   1     0.01  -0.00   0.00     0.01  -0.01   0.00    -0.01   0.01  -0.00
                     31                     32                     33
                        a                      a                      a 
 Frequencies --   297.9568               314.1758               335.6403
 Red. masses --     7.4730                 5.8078                 3.3342
 Frc consts  --     0.0000                 0.0000                 0.0000
 IR Inten    --     1.8385                 2.3124                 3.5225
 Raman Activ --     0.0000                 0.0000                 0.0000
 Depolar     --     0.0000                 0.0000                 0.0000
 Atom AN      X      Y      Z        X      Y      Z        X      Y      Z
   1   8    -0.14  -0.41   0.05    -0.07  -0.10   0.17    -0.20  -0.16   0.06
   2   6     0.07  -0.02   0.23     0.11  -0.23  -0.13    -0.02   0.10   0.21
   3   1    -0.07   0.06   0.07     0.13  -0.10  -0.06    -0.10   0.06   0.08
   4   1     0.10   0.04   0.13    -0.05  -0.10  -0.12     0.07   0.10   0.11
   5   6     0.03  -0.03  -0.01     0.03   0.02   0.06    -0.00  -0.04  -0.13
   6   1     0.02   0.03  -0.04    -0.02  -0.01   0.04    -0.02   0.07  -0.10
   7   1    -0.04  -0.05   0.01    -0.02   0.01   0.04    -0.03  -0.09  -0.08
   8   7     0.01   0.08  -0.13     0.03   0.14  -0.01     0.05  -0.01  -0.06
   9   6    -0.17   0.19   0.11    -0.08   0.19   0.12     0.02   0.11   0.01
  10   1     0.07   0.11  -0.12    -0.10   0.06   0.07    -0.25   0.00   0.20
  11   1    -0.12  -0.17   0.11     0.03   0.11   0.07     0.17   0.33   0.01
  12   1    -0.15   0.24   0.16    -0.02   0.02  -0.01     0.10  -0.19  -0.18
  13   6     0.18  -0.06  -0.21     0.25  -0.14  -0.23     0.13  -0.01  -0.02
  14   1    -0.10   0.08  -0.12     0.42  -0.15  -0.07     0.04  -0.01   0.00
  15   1     0.16  -0.16  -0.22    -0.04   0.19   0.14     0.06   0.01  -0.02
  16   1     0.15  -0.02   0.14    -0.14  -0.23  -0.33     0.04  -0.01   0.01
  17   6     0.02   0.14  -0.19    -0.21   0.16   0.05     0.03  -0.01  -0.06
  18   1     0.06   0.09  -0.10    -0.04   0.10   0.01    -0.25  -0.11   0.24
  19   1    -0.08   0.06  -0.08    -0.11   0.07   0.02     0.33  -0.12  -0.00
  20   1     0.03  -0.00  -0.00    -0.08  -0.02   0.02    -0.10   0.24  -0.29
  21   1    -0.04  -0.17   0.05    -0.05   0.02   0.03     0.01  -0.07   0.02
  22   6     0.00  -0.00   0.00    -0.00   0.00   0.00    -0.00   0.00   0.00
  23   8    -0.00  -0.00   0.00    -0.00   0.00   0.00    -0.00   0.00   0.00
  24   7     0.00  -0.00   0.00     0.00  -0.00  -0.00     0.00  -0.00  -0.00
  25   1     0.00   0.00   0.00    -0.00   0.00   0.00    -0.00   0.00   0.00
  26   1    -0.00   0.00   0.00    -0.00   0.00   0.00    -0.00   0.00   0.00
  27   7    -0.00   0.00  -0.00     0.00  -0.00   0.00     0.00   0.00  -0.00
  28   1     0.00  -0.00  -0.00     0.00  -0.00  -0.00     0.00  -0.00  -0.00
  29   1    -0.00  -0.00  -0.00     0.00  -0.00   0.00     0.00  -0.00  -0.00
  30   6     0.00  -0.01   0.02    -0.01   0.00   0.01     0.01  -0.00  -0.00
  31   8    -0.00  -0.00   0.03    -0.03   0.01   0.02     0.01  -0.00  -0.01
  32   7    -0.01  -0.01   0.00    -0.00   0.00   0.01    -0.01  -0.01   0.00
  33   1     0.01  -0.01  -0.01     0.02  -0.00  -0.02     0.00  -0.00  -0.00
  34   1     0.01  -0.00  -0.01     0.01  -0.00  -0.02    -0.00  -0.00  -0.00
  35   7     0.02   0.01   0.00     0.01  -0.01  -0.01     0.00   0.00   0.00
  36   1    -0.00   0.01  -0.00     0.00  -0.00  -0.00    -0.00   0.00   0.00
  37   1    -0.00   0.01   0.02    -0.01  -0.00   0.01     0.01  -0.00  -0.00
  38   6    -0.00  -0.01  -0.01     0.00   0.00  -0.00     0.00   0.00   0.00
  39   8    -0.01  -0.01  -0.01     0.00   0.00   0.00    -0.00  -0.00   0.00
  40   7     0.01  -0.00   0.01    -0.00   0.00   0.01     0.00   0.00  -0.00
  41   1     0.00  -0.01  -0.00    -0.00  -0.00  -0.00     0.00   0.00   0.00
  42   1     0.00  -0.01  -0.01    -0.00  -0.01  -0.01     0.00   0.00   0.00
  43   7    -0.01   0.01   0.00     0.00   0.00   0.01    -0.00   0.00  -0.00
  44   1    -0.00   0.00   0.00    -0.00  -0.00  -0.01     0.00   0.00  -0.00
  45   1    -0.00   0.00   0.00     0.00  -0.00  -0.00    -0.00   0.00  -0.00
  46   6    -0.01   0.04   0.02     0.01  -0.01  -0.01    -0.01  -0.00  -0.00
  47   8    -0.02   0.09   0.00     0.01  -0.03  -0.00    -0.01   0.01  -0.00
  48   7     0.05   0.00   0.04    -0.01   0.01  -0.02     0.01   0.01   0.00
  49   1     0.01   0.00   0.02    -0.00   0.00  -0.00     0.00   0.01   0.01
  50   1     0.02  -0.01  -0.00    -0.00   0.01  -0.00     0.01   0.00  -0.00
  51   7     0.00   0.01   0.03     0.00  -0.01  -0.01     0.00  -0.02  -0.00
  52   1     0.00   0.00   0.01    -0.00  -0.00   0.00     0.00  -0.01   0.00
  53   1     0.00  -0.00   0.01    -0.00   0.01  -0.00    -0.01   0.02   0.00
                     34                     35                     36
                        a                      a                      a 
 Frequencies --   348.6816               365.1806               379.5400
 Red. masses --     3.2087                 7.2905                 3.7264
 Frc consts  --     0.0000                 0.0000                 0.0000
 IR Inten    --     1.6064                 1.4943               171.2855
 Raman Activ --     0.0000                 0.0000                 0.0000
 Depolar     --     0.0000                 0.0000                 0.0000
 Atom AN      X      Y      Z        X      Y      Z        X      Y      Z
   1   8    -0.03   0.08   0.11     0.09   0.05  -0.03    -0.00   0.00   0.00
   2   6    -0.02  -0.14  -0.10     0.15   0.07  -0.06    -0.01  -0.00   0.00
   3   1     0.06  -0.08  -0.04     0.12   0.03  -0.07    -0.01  -0.00   0.00
   4   1    -0.07  -0.06  -0.09    -0.01  -0.03  -0.05    -0.00   0.00   0.00
   5   6    -0.01  -0.02   0.08     0.18   0.15   0.27    -0.01  -0.00  -0.01
   6   1    -0.02  -0.05   0.07     0.13  -0.07   0.13    -0.00   0.00  -0.00
   7   1     0.02   0.03   0.04     0.07   0.16   0.17    -0.00  -0.00  -0.01
   8   7     0.00   0.03   0.05    -0.06  -0.01   0.01     0.00   0.00   0.00
   9   6     0.14   0.10  -0.08    -0.35  -0.13   0.22     0.01   0.00  -0.01
  10   1    -0.16   0.00   0.14    -0.23  -0.08   0.20     0.01   0.00  -0.00
  11   1     0.17   0.30  -0.06     0.00   0.08   0.13     0.00  -0.00  -0.01
  12   1     0.17  -0.18  -0.17    -0.15  -0.14  -0.08     0.01   0.00   0.00
  13   6     0.11  -0.10  -0.05    -0.24  -0.10  -0.24     0.01   0.01   0.01
  14   1    -0.24   0.11  -0.09    -0.11   0.04  -0.14     0.00   0.00   0.00
  15   1     0.18  -0.26  -0.26    -0.10  -0.14  -0.10     0.00   0.00   0.00
  16   1     0.20   0.02   0.29    -0.05  -0.01  -0.05     0.00   0.00   0.00
  17   6    -0.23   0.11   0.06     0.22   0.00  -0.15    -0.00   0.00   0.01
  18   1     0.06   0.14  -0.08     0.06  -0.03  -0.05    -0.00   0.00   0.00
  19   1    -0.26   0.10   0.00     0.12  -0.06  -0.10    -0.00   0.00   0.00
  20   1    -0.05  -0.12   0.12     0.11   0.11  -0.03    -0.00  -0.00   0.00
  21   1     0.00   0.07  -0.00    -0.01   0.00   0.00    -0.00  -0.00   0.00
  22   6     0.00  -0.00  -0.00    -0.00  -0.00   0.00    -0.03   0.05   0.03
  23   8     0.00  -0.00  -0.00     0.00  -0.00  -0.00    -0.02   0.04   0.02
  24   7    -0.00  -0.00   0.00     0.00  -0.00   0.00     0.08  -0.05  -0.03
  25   1     0.00  -0.00  -0.00     0.00  -0.00  -0.00    -0.02   0.04   0.02
  26   1     0.00  -0.00  -0.00    -0.00   0.00   0.00    -0.13   0.16   0.10
  27   7    -0.00   0.00  -0.00    -0.00   0.00  -0.00     0.04  -0.04   0.00
  28   1    -0.00   0.00  -0.00     0.00   0.00  -0.00     0.01  -0.04  -0.01
  29   1    -0.00  -0.00  -0.00    -0.00  -0.00  -0.00     0.02  -0.00   0.01
  30   6     0.01  -0.01  -0.01     0.01  -0.00  -0.00     0.01  -0.00  -0.00
  31   8     0.02  -0.01  -0.01     0.01  -0.00  -0.00     0.01   0.00  -0.01
  32   7     0.00  -0.01   0.00     0.01   0.00   0.00     0.06  -0.02  -0.09
  33   1    -0.00  -0.00   0.00    -0.01   0.01   0.01    -0.18   0.01   0.18
  34   1    -0.00  -0.00   0.00     0.00   0.00   0.01    -0.05   0.02   0.03
  35   7    -0.00   0.02   0.01    -0.01   0.02   0.02    -0.08   0.01   0.08
  36   1    -0.00   0.01   0.00     0.00   0.01   0.00     0.04  -0.01  -0.00
  37   1     0.02   0.00  -0.01     0.02   0.00  -0.02     0.13  -0.04  -0.14
  38   6     0.00   0.00   0.00     0.00  -0.00  -0.00    -0.02  -0.08  -0.15
  39   8     0.00   0.00   0.00     0.00   0.00  -0.00    -0.01  -0.04  -0.09
  40   7    -0.00   0.00  -0.00    -0.00   0.00   0.00     0.04   0.12   0.24
  41   1    -0.00   0.00   0.00    -0.00   0.00  -0.00    -0.01  -0.07  -0.10
  42   1    -0.00   0.00   0.01    -0.00  -0.01  -0.01    -0.08  -0.32  -0.66
  43   7     0.00  -0.00  -0.00     0.00   0.00   0.01     0.01   0.08   0.21
  44   1     0.00  -0.00   0.00     0.00  -0.00  -0.01    -0.02  -0.10  -0.21
  45   1     0.00  -0.00  -0.00     0.00  -0.00  -0.00    -0.00  -0.03  -0.08
  46   6     0.01  -0.02  -0.01    -0.00  -0.01  -0.01     0.00  -0.01   0.01
  47   8     0.00  -0.04   0.01    -0.01  -0.02   0.00     0.01   0.00  -0.00
  48   7    -0.02   0.00  -0.02     0.00   0.01  -0.01    -0.01  -0.01   0.01
  49   1    -0.01  -0.00  -0.01     0.00   0.00   0.00     0.01  -0.01   0.01
  50   1    -0.01   0.01  -0.00    -0.00   0.01  -0.00    -0.01   0.03   0.00
  51   7    -0.00  -0.01  -0.02     0.00  -0.01  -0.00    -0.03   0.03  -0.00
  52   1     0.00  -0.01  -0.00     0.00  -0.01   0.01     0.03  -0.02   0.00
  53   1    -0.00   0.01  -0.00     0.00   0.02   0.00     0.00  -0.01  -0.00
                     37                     38                     39
                        a                      a                      a 
 Frequencies --   421.6460               433.2636               450.1538
 Red. masses --     8.7819                 2.9957                 4.2349
 Frc consts  --     0.0000                 0.0000                 0.0000
 IR Inten    --     0.2094               239.3389                50.1835
 Raman Activ --     0.0000                 0.0000                 0.0000
 Depolar     --     0.0000                 0.0000                 0.0000
 Atom AN      X      Y      Z        X      Y      Z        X      Y      Z
   1   8    -0.09  -0.17   0.12    -0.00  -0.00  -0.00     0.00  -0.01  -0.01
   2   6     0.21  -0.06  -0.04     0.01   0.00  -0.00    -0.01  -0.00   0.00
   3   1     0.09  -0.02  -0.03     0.00   0.00  -0.00    -0.00   0.00  -0.00
   4   1     0.03  -0.03  -0.05     0.00  -0.00  -0.00    -0.00  -0.01   0.00
   5   6     0.06   0.12  -0.07     0.01   0.00   0.00    -0.02   0.01   0.01
   6   1     0.01   0.06  -0.04     0.00  -0.00   0.00    -0.01   0.01   0.00
   7   1    -0.04  -0.00  -0.00     0.00   0.00   0.00    -0.01   0.00   0.00
   8   7     0.00   0.26  -0.21    -0.00  -0.00  -0.01    -0.01   0.01   0.01
   9   6    -0.27  -0.19  -0.19    -0.01   0.00  -0.00     0.00  -0.01  -0.01
  10   1    -0.05  -0.15   0.06    -0.00   0.00  -0.00     0.00  -0.01   0.00
  11   1    -0.08  -0.06  -0.05    -0.00   0.00   0.00    -0.00   0.00  -0.01
  12   1    -0.16  -0.09  -0.15    -0.00   0.00   0.00     0.00  -0.01  -0.01
  13   6     0.12   0.33  -0.05    -0.00   0.00   0.00     0.01  -0.01  -0.01
  14   1    -0.03   0.08   0.03    -0.00  -0.00   0.00     0.01   0.00  -0.01
  15   1     0.08   0.10  -0.05     0.00   0.00   0.00     0.00  -0.01  -0.01
  16   1     0.08   0.12   0.05     0.00   0.00   0.00    -0.00  -0.01  -0.00
  17   6    -0.01  -0.19   0.35    -0.00  -0.01  -0.00     0.02   0.01   0.01
  18   1    -0.02  -0.20   0.05    -0.00  -0.00  -0.00     0.01  -0.00  -0.00
  19   1     0.03   0.04   0.27    -0.00  -0.00   0.00     0.01  -0.00  -0.00
  20   1    -0.00  -0.15   0.15    -0.00  -0.00   0.00     0.01   0.01   0.00
  21   1    -0.04  -0.04   0.03     0.00   0.00  -0.00    -0.01  -0.01   0.00
  22   6     0.00  -0.00   0.00    -0.10   0.08   0.05     0.05  -0.02   0.07
  23   8     0.00  -0.00   0.00    -0.03   0.07  -0.00     0.08   0.03   0.06
  24   7    -0.00   0.00   0.00     0.20  -0.20  -0.08    -0.09  -0.06  -0.01
  25   1     0.00  -0.00  -0.00    -0.01   0.04  -0.00    -0.04   0.01  -0.03
  26   1     0.00  -0.01  -0.00    -0.52   0.58   0.38    -0.02  -0.09  -0.01
  27   7    -0.00   0.00  -0.00     0.06  -0.13  -0.09    -0.00   0.08  -0.08
  28   1     0.00   0.00  -0.00    -0.06   0.04   0.05     0.06   0.07  -0.07
  29   1    -0.00  -0.00  -0.00    -0.05   0.05   0.04    -0.07   0.00  -0.06
  30   6     0.00  -0.00  -0.01     0.01   0.02   0.01     0.00  -0.00   0.01
  31   8     0.01  -0.00  -0.00     0.01   0.02   0.00    -0.01   0.01  -0.01
  32   7     0.00   0.00   0.00    -0.03   0.01  -0.01    -0.01  -0.01  -0.00
  33   1     0.00   0.00  -0.00     0.01  -0.02  -0.02    -0.00  -0.01  -0.00
  34   1     0.00  -0.00   0.00     0.00   0.01  -0.03    -0.02   0.00   0.01
  35   7    -0.00   0.00  -0.00    -0.01  -0.01   0.02     0.01  -0.01  -0.00
  36   1    -0.00   0.00   0.00     0.03  -0.01  -0.01     0.01   0.00  -0.01
  37   1     0.01  -0.00  -0.01     0.01  -0.01  -0.01    -0.02   0.01   0.03
  38   6    -0.00  -0.00  -0.00     0.00   0.01   0.02    -0.10   0.10  -0.03
  39   8    -0.00  -0.00  -0.00    -0.01   0.00   0.01    -0.18   0.03   0.00
  40   7     0.00  -0.00  -0.00     0.02  -0.03  -0.06     0.20   0.06  -0.02
  41   1     0.00  -0.00   0.00     0.00  -0.01  -0.03     0.08  -0.07   0.00
  42   1     0.00   0.00  -0.00     0.04   0.11   0.22     0.11   0.05  -0.08
  43   7    -0.00  -0.00   0.00     0.00  -0.03  -0.05    -0.02  -0.12   0.07
  44   1    -0.00   0.00   0.00    -0.00   0.02   0.06    -0.09  -0.14  -0.00
  45   1     0.00  -0.00  -0.00     0.01   0.00   0.02     0.14  -0.06   0.05
  46   6    -0.00   0.00  -0.00     0.01   0.01  -0.00     0.12   0.01  -0.01
  47   8    -0.00   0.00  -0.00     0.00  -0.01   0.02    -0.01  -0.04   0.18
  48   7     0.01   0.00   0.00    -0.01   0.01   0.01    -0.01   0.02   0.01
  49   1     0.00   0.00   0.00    -0.02   0.01  -0.02    -0.33   0.28  -0.22
  50   1     0.00  -0.00  -0.00     0.00  -0.07   0.01     0.00  -0.61   0.13
  51   7     0.00   0.00   0.01     0.00   0.00  -0.01     0.04   0.08  -0.14
  52   1    -0.00   0.00   0.00     0.01  -0.01  -0.00    -0.02   0.06  -0.05
  53   1     0.00  -0.00   0.00    -0.00   0.01  -0.00    -0.01  -0.01  -0.05
                     40                     41                     42
                        a                      a                      a 
 Frequencies --   454.2163               467.0453               468.0056
 Red. masses --     8.1475                 8.0807                 7.9102
 Frc consts  --     0.0000                 0.0000                 0.0000
 IR Inten    --     0.2555                 2.2681                 3.1453
 Raman Activ --     0.0000                 0.0000                 0.0000
 Depolar     --     0.0000                 0.0000                 0.0000
 Atom AN      X      Y      Z        X      Y      Z        X      Y      Z
   1   8     0.05   0.05  -0.01    -0.03  -0.04  -0.00    -0.01  -0.03  -0.02
   2   6    -0.24  -0.03   0.12    -0.09  -0.05   0.04    -0.01  -0.01   0.00
   3   1    -0.03  -0.01   0.02    -0.03  -0.02   0.02    -0.01  -0.00   0.00
   4   1    -0.09  -0.07   0.06    -0.02  -0.02   0.03    -0.00  -0.00   0.01
   5   6    -0.25   0.10   0.26    -0.19   0.05  -0.11    -0.03   0.01  -0.03
   6   1    -0.01  -0.08   0.14    -0.16   0.15  -0.09    -0.03   0.03  -0.02
   7   1    -0.05   0.13   0.15    -0.07  -0.13  -0.15    -0.01  -0.03  -0.03
   8   7    -0.28   0.14  -0.01     0.12   0.19   0.27     0.03   0.04   0.05
   9   6    -0.03   0.05  -0.33     0.14  -0.33   0.01     0.02  -0.07   0.01
  10   1     0.06  -0.01  -0.10     0.13  -0.18   0.07     0.02  -0.04   0.02
  11   1    -0.06   0.03  -0.19    -0.03  -0.12  -0.09    -0.00  -0.02  -0.01
  12   1     0.06  -0.01  -0.07     0.00  -0.12  -0.06    -0.00  -0.03  -0.01
  13   6     0.28  -0.17  -0.01    -0.08  -0.07  -0.28    -0.02  -0.01  -0.06
  14   1     0.16  -0.06  -0.02     0.01   0.08  -0.21    -0.00   0.02  -0.05
  15   1     0.18   0.03  -0.05    -0.09  -0.15  -0.09    -0.02  -0.03  -0.02
  16   1     0.06  -0.20   0.06    -0.05  -0.07  -0.10    -0.01  -0.01  -0.02
  17   6     0.29  -0.06  -0.01     0.16   0.31   0.18     0.03   0.06   0.04
  18   1     0.08  -0.15  -0.06     0.04   0.11   0.06     0.01   0.02   0.01
  19   1     0.18  -0.05  -0.00     0.05   0.06   0.01     0.01   0.01   0.00
  20   1     0.16   0.09   0.06     0.04   0.12   0.03     0.01   0.02   0.01
  21   1     0.04   0.01  -0.01     0.02  -0.00  -0.01     0.00  -0.01  -0.00
  22   6    -0.00   0.00  -0.01     0.02  -0.02   0.04    -0.12   0.05  -0.22
  23   8    -0.01  -0.00  -0.01     0.05   0.02   0.03    -0.25  -0.09  -0.16
  24   7     0.01   0.00   0.00    -0.05  -0.05  -0.00     0.28   0.22   0.04
  25   1     0.00  -0.00   0.00    -0.02  -0.00  -0.03     0.12  -0.01   0.14
  26   1     0.00   0.01   0.00    -0.05  -0.01   0.03     0.19   0.15  -0.06
  27   7     0.00  -0.01   0.01    -0.00   0.03  -0.05    -0.01  -0.19   0.24
  28   1    -0.01  -0.00   0.01     0.03   0.05  -0.03    -0.16  -0.19   0.18
  29   1     0.01  -0.00   0.01    -0.05   0.00  -0.03     0.24  -0.03   0.15
  30   6    -0.01   0.00   0.00    -0.04  -0.05  -0.01     0.02   0.03   0.03
  31   8    -0.00  -0.00   0.00    -0.03  -0.06  -0.00     0.02   0.04  -0.00
  32   7     0.00   0.01   0.00     0.06   0.01   0.04    -0.03  -0.01  -0.03
  33   1     0.00   0.01   0.00     0.02   0.06   0.01    -0.02  -0.03   0.00
  34   1     0.00   0.00   0.01     0.03  -0.02   0.05    -0.07   0.02   0.03
  35   7     0.00  -0.00  -0.01    -0.01   0.08  -0.03     0.06  -0.02  -0.00
  36   1    -0.00  -0.00  -0.00    -0.02   0.04  -0.03    -0.02  -0.00   0.02
  37   1    -0.01   0.00   0.01     0.02   0.05   0.03    -0.10   0.02   0.10
  38   6     0.01  -0.00   0.00    -0.00   0.00  -0.00     0.06  -0.07   0.02
  39   8     0.01  -0.00   0.00    -0.00   0.01   0.00     0.08  -0.06   0.00
  40   7    -0.01  -0.00   0.00     0.00   0.00  -0.01    -0.10  -0.04   0.03
  41   1    -0.00   0.00  -0.00     0.00   0.00   0.01    -0.05   0.03  -0.01
  42   1    -0.01  -0.00   0.00     0.00   0.00  -0.00    -0.06  -0.05   0.02
  43   7     0.00   0.01  -0.00     0.00  -0.02   0.01    -0.02   0.15  -0.06
  44   1     0.00   0.01  -0.00    -0.00  -0.00   0.02     0.05   0.09  -0.06
  45   1    -0.01   0.00  -0.00     0.00  -0.01  -0.01    -0.08   0.06  -0.00
  46   6    -0.00   0.00   0.00    -0.02   0.01   0.01     0.09   0.03   0.02
  47   8     0.00   0.00   0.00     0.01   0.01  -0.03     0.01   0.01   0.14
  48   7    -0.01  -0.01   0.00    -0.00  -0.00   0.01    -0.05  -0.03   0.00
  49   1     0.01  -0.01   0.00     0.05  -0.04   0.03    -0.17   0.11  -0.13
  50   1    -0.01   0.02  -0.00     0.00   0.06  -0.02    -0.05  -0.22   0.09
  51   7    -0.00  -0.00  -0.00    -0.01  -0.01   0.02     0.04   0.04  -0.13
  52   1     0.00  -0.00  -0.00     0.00  -0.00   0.00     0.02   0.00  -0.04
  53   1     0.00  -0.01  -0.00     0.00  -0.02   0.00    -0.03   0.02  -0.04
                     43                     44                     45
                        a                      a                      a 
 Frequencies --   479.8983               487.5760               492.2860
 Red. masses --     7.2187                 8.3069                 2.8789
 Frc consts  --     0.0000                 0.0000                 0.0000
 IR Inten    --    39.5951                19.0375                31.8130
 Raman Activ --     0.0000                 0.0000                 0.0000
 Depolar     --     0.0000                 0.0000                 0.0000
 Atom AN      X      Y      Z        X      Y      Z        X      Y      Z
   1   8     0.00   0.03   0.04    -0.01  -0.01  -0.01    -0.00   0.01   0.01
   2   6     0.01   0.00   0.00    -0.01  -0.01   0.00    -0.01  -0.00   0.00
   3   1     0.01  -0.01   0.00    -0.00  -0.00   0.00    -0.00  -0.00   0.00
   4   1    -0.01  -0.00  -0.01    -0.00  -0.01   0.00    -0.00  -0.00   0.00
   5   6    -0.00   0.01  -0.00    -0.03   0.01  -0.01    -0.01   0.00  -0.00
   6   1    -0.00   0.01  -0.00    -0.02   0.02  -0.01    -0.01   0.00  -0.00
   7   1    -0.00  -0.00  -0.00    -0.01  -0.02  -0.02    -0.00  -0.01  -0.01
   8   7    -0.00  -0.00   0.01     0.01   0.03   0.04     0.00   0.01   0.01
   9   6     0.00  -0.01  -0.00     0.02  -0.06  -0.01     0.01  -0.01  -0.00
  10   1    -0.00  -0.00   0.00     0.02  -0.03   0.01     0.01  -0.00  -0.00
  11   1     0.00   0.01  -0.00    -0.01  -0.02  -0.02    -0.00  -0.01  -0.01
  12   1     0.00  -0.01  -0.01    -0.00  -0.02  -0.01     0.00  -0.00  -0.00
  13   6    -0.01  -0.01  -0.00    -0.02  -0.02  -0.05    -0.00  -0.01  -0.01
  14   1    -0.00   0.00  -0.01    -0.00   0.01  -0.04     0.00   0.00  -0.01
  15   1    -0.00  -0.01  -0.00    -0.01  -0.03  -0.02    -0.00  -0.00  -0.00
  16   1    -0.00  -0.00   0.00    -0.01  -0.01  -0.01    -0.00  -0.01  -0.00
  17   6     0.00   0.01   0.00     0.03   0.05   0.03     0.01   0.01   0.01
  18   1     0.00   0.00  -0.00     0.01   0.01   0.01     0.00   0.00   0.00
  19   1    -0.00  -0.00  -0.00     0.01   0.01   0.00     0.00   0.00  -0.00
  20   1     0.00   0.00   0.00     0.01   0.02   0.01     0.00   0.00   0.00
  21   1    -0.01   0.01   0.01     0.00  -0.00  -0.00    -0.00   0.00   0.00
  22   6    -0.04   0.02  -0.07     0.01   0.01   0.01    -0.01  -0.03  -0.11
  23   8    -0.09  -0.02  -0.05     0.01  -0.00   0.02    -0.04  -0.08  -0.10
  24   7     0.11   0.05   0.00    -0.05  -0.01  -0.02     0.03   0.17   0.09
  25   1     0.03   0.01   0.06    -0.02   0.01  -0.01     0.07  -0.05   0.02
  26   1     0.05   0.07  -0.01     0.02  -0.06  -0.02     0.07   0.06  -0.02
  27   7    -0.01  -0.06   0.07     0.01   0.03  -0.02     0.01  -0.10   0.07
  28   1    -0.09  -0.03   0.09     0.02   0.01  -0.02     0.23  -0.36  -0.22
  29   1     0.11  -0.04   0.03    -0.02   0.01  -0.01    -0.34   0.45   0.39
  30   6    -0.00   0.03   0.03     0.20   0.17   0.12    -0.01   0.01  -0.02
  31   8     0.03   0.06  -0.05     0.05   0.37  -0.03     0.03  -0.04   0.06
  32   7    -0.04  -0.01  -0.04    -0.28  -0.07  -0.19     0.01   0.05   0.02
  33   1    -0.02  -0.03  -0.00    -0.21  -0.31   0.02    -0.01   0.03   0.02
  34   1    -0.18   0.05   0.15    -0.10   0.12  -0.37     0.13  -0.02  -0.13
  35   7     0.11  -0.07  -0.05     0.14  -0.33   0.20    -0.09   0.02   0.03
  36   1     0.03   0.00  -0.05     0.09  -0.15   0.14    -0.00  -0.02   0.03
  37   1    -0.27   0.08   0.30    -0.06  -0.17  -0.06     0.15  -0.06  -0.19
  38   6    -0.11   0.11  -0.04    -0.02   0.03  -0.00    -0.03   0.04  -0.01
  39   8    -0.15   0.07  -0.03    -0.03   0.02   0.00    -0.06   0.02  -0.00
  40   7     0.23   0.06  -0.02     0.03   0.02  -0.01     0.06   0.02  -0.02
  41   1     0.10  -0.09   0.01     0.01  -0.03  -0.05     0.02  -0.04  -0.03
  42   1     0.13   0.06  -0.10     0.03   0.04   0.05     0.04   0.06   0.05
  43   7    -0.01  -0.18   0.09     0.01  -0.06   0.01    -0.01  -0.05   0.01
  44   1    -0.09  -0.16   0.02    -0.02  -0.05  -0.01    -0.03  -0.06  -0.01
  45   1     0.13  -0.07   0.04     0.03  -0.00   0.05     0.05  -0.00   0.06
  46   6    -0.15  -0.10  -0.09     0.02   0.02   0.03    -0.05  -0.02  -0.03
  47   8    -0.06  -0.07  -0.24     0.02   0.03   0.03    -0.03  -0.03  -0.06
  48   7     0.21   0.12  -0.02    -0.07  -0.03   0.01     0.07   0.04  -0.01
  49   1     0.12   0.05   0.15     0.02  -0.06   0.00     0.01   0.04   0.03
  50   1     0.18  -0.00  -0.15    -0.05   0.12   0.02     0.06  -0.05  -0.04
  51   7    -0.08  -0.01   0.28     0.04  -0.04  -0.05    -0.02  -0.00   0.09
  52   1    -0.14   0.07   0.09     0.02  -0.01  -0.02    -0.05   0.04   0.02
  53   1     0.10  -0.07   0.07    -0.05   0.04  -0.01     0.03  -0.02   0.02
                     46                     47                     48
                        a                      a                      a 
 Frequencies --   495.8805               504.2120               519.0719
 Red. masses --     3.4162                 7.8223                 2.4845
 Frc consts  --     0.0000                 0.0000                 0.0000
 IR Inten    --   185.7653                21.7520                35.9825
 Raman Activ --     0.0000                 0.0000                 0.0000
 Depolar     --     0.0000                 0.0000                 0.0000
 Atom AN      X      Y      Z        X      Y      Z        X      Y      Z
   1   8     0.00  -0.01  -0.01     0.00   0.03   0.03    -0.00  -0.00  -0.00
   2   6     0.01   0.00  -0.01     0.00  -0.00   0.01    -0.00  -0.00  -0.00
   3   1     0.00   0.00  -0.00     0.01  -0.01   0.00    -0.00   0.00   0.00
   4   1     0.00  -0.00  -0.00    -0.01  -0.00  -0.01     0.00   0.00   0.00
   5   6     0.01   0.00   0.00    -0.01   0.01  -0.00     0.01  -0.01   0.00
   6   1     0.01  -0.00   0.00    -0.01   0.01  -0.00     0.00  -0.01   0.01
   7   1     0.00   0.01   0.01    -0.00  -0.01  -0.01     0.00   0.01   0.01
   8   7    -0.01  -0.01  -0.01    -0.00   0.00   0.01     0.00  -0.00  -0.01
   9   6    -0.02   0.01   0.01     0.01  -0.01  -0.01    -0.01   0.01   0.01
  10   1    -0.01   0.00   0.00     0.01  -0.00  -0.00    -0.01   0.00   0.00
  11   1     0.00   0.01   0.01    -0.00  -0.00  -0.01     0.00   0.01   0.01
  12   1    -0.00  -0.00  -0.00     0.00  -0.00  -0.00    -0.00   0.00   0.00
  13   6    -0.00   0.01   0.01    -0.00  -0.01  -0.00     0.00   0.01   0.01
  14   1    -0.00  -0.00   0.01     0.00   0.00  -0.01     0.00  -0.00   0.01
  15   1     0.00   0.00   0.00    -0.00  -0.01  -0.00     0.00   0.01   0.00
  16   1     0.00   0.01   0.01    -0.00  -0.01  -0.00     0.00   0.01   0.00
  17   6    -0.01  -0.01  -0.01     0.01   0.01   0.01    -0.01  -0.01  -0.00
  18   1    -0.00  -0.01  -0.00     0.00   0.00  -0.00    -0.00  -0.00   0.00
  19   1    -0.00  -0.00  -0.00     0.00   0.00  -0.00    -0.00  -0.00   0.00
  20   1    -0.00  -0.00  -0.00     0.00   0.01   0.00    -0.00  -0.01  -0.00
  21   1    -0.00  -0.01   0.00    -0.01   0.01   0.01     0.02   0.01  -0.01
  22   6     0.07  -0.06   0.02     0.03  -0.01   0.05    -0.00  -0.00   0.01
  23   8     0.12  -0.00  -0.00     0.08   0.02   0.04     0.01   0.01  -0.00
  24   7    -0.12  -0.02   0.03    -0.08  -0.06  -0.01     0.01  -0.01   0.01
  25   1    -0.01  -0.03  -0.06    -0.02  -0.01  -0.05     0.01  -0.00   0.00
  26   1    -0.10   0.01   0.05    -0.06  -0.04   0.02     0.01   0.00   0.00
  27   7     0.02   0.01  -0.06     0.01   0.05  -0.05    -0.00  -0.00  -0.00
  28   1     0.17  -0.08  -0.17     0.03   0.06  -0.03     0.00   0.01  -0.00
  29   1    -0.29   0.26   0.15    -0.04  -0.02  -0.05    -0.00  -0.01  -0.01
  30   6     0.02  -0.01   0.05     0.04   0.01   0.01    -0.01  -0.07   0.01
  31   8    -0.03   0.09  -0.10    -0.01   0.08  -0.04    -0.06  -0.01  -0.08
  32   7    -0.03  -0.08  -0.04    -0.04  -0.02  -0.03     0.05  -0.05   0.05
  33   1     0.01  -0.05  -0.04    -0.08  -0.05   0.06    -0.05   0.02   0.09
  34   1    -0.29   0.06   0.28     0.02   0.01  -0.11     0.05  -0.03  -0.02
  35   7     0.17  -0.06  -0.05     0.03  -0.05   0.04     0.03   0.09  -0.01
  36   1     0.04   0.04  -0.11    -0.01  -0.02   0.04    -0.03   0.06  -0.05
[...]
  44   1     0.00  -0.00   0.00     0.01  -0.01   0.00     0.01  -0.01   0.00
  45   1    -0.00  -0.00   0.00     0.01   0.05  -0.02     0.01   0.04  -0.02
  46   6     0.02   0.01   0.01     0.01   0.01  -0.00     0.00   0.00  -0.00
  47   8    -0.01  -0.01  -0.00    -0.00  -0.00  -0.00    -0.00  -0.00  -0.00
  48   7    -0.00  -0.00  -0.00    -0.01   0.00   0.00    -0.00   0.00   0.00
  49   1     0.01   0.01  -0.00    -0.00  -0.00   0.00     0.00   0.00  -0.00
  50   1    -0.00   0.00  -0.00     0.02  -0.00   0.01     0.00  -0.00   0.00
  51   7     0.01   0.02  -0.01     0.11   0.15   0.06     0.05   0.06   0.05
  52   1    -0.06  -0.08  -0.08    -0.40  -0.52  -0.51    -0.17  -0.23  -0.22
  53   1    -0.01  -0.02   0.11    -0.03  -0.04   0.29    -0.00  -0.01   0.05
                    142                    143                    144
                        a                      a                      a 
 Frequencies --  3358.9891              3423.5255              3456.1196
 Red. masses --     2.0439                 1.6222                 1.4674
 Frc consts  --     0.0000                 0.0000                 0.0000
 IR Inten    --   365.0990               154.9964                11.2888
 Raman Activ --     0.0000                 0.0000                 0.0000
 Depolar     --     0.0000                 0.0000                 0.0000
 Atom AN      X      Y      Z        X      Y      Z        X      Y      Z
   1   8     0.00   0.01   0.01    -0.00  -0.00  -0.00     0.00   0.00   0.00
   2   6     0.00   0.00   0.00     0.00  -0.00   0.00    -0.00  -0.00   0.00
   3   1    -0.00  -0.00  -0.00    -0.00   0.00  -0.00     0.00   0.00   0.00
   4   1    -0.00  -0.00  -0.00    -0.00   0.00   0.00    -0.00  -0.00  -0.00
   5   6    -0.00  -0.00  -0.00     0.00   0.00   0.00     0.00   0.00   0.00
   6   1     0.00   0.00   0.00    -0.00  -0.00  -0.00    -0.00  -0.00  -0.00
   7   1     0.00  -0.00   0.00    -0.00   0.00  -0.00     0.00  -0.00   0.00
   8   7    -0.00   0.00   0.00     0.00  -0.00  -0.00     0.00   0.00  -0.00
   9   6    -0.00  -0.00  -0.00     0.00   0.00   0.00     0.00   0.00   0.00
  10   1     0.00   0.01   0.01    -0.00  -0.00  -0.00    -0.00  -0.00  -0.00
  11   1    -0.00   0.00   0.00     0.00  -0.00  -0.00    -0.00   0.00   0.00
  12   1    -0.00  -0.00  -0.00    -0.00   0.00   0.00    -0.00  -0.00  -0.00
  13   6    -0.00  -0.00  -0.00     0.00   0.00   0.00     0.00   0.00   0.00
  14   1     0.00   0.01   0.01    -0.00  -0.00  -0.00    -0.00  -0.00  -0.00
  15   1    -0.00  -0.00  -0.00    -0.00   0.00  -0.00     0.00  -0.00   0.00
  16   1    -0.00  -0.00   0.00     0.00  -0.00   0.00    -0.00   0.00   0.00
  17   6     0.00   0.00   0.00    -0.00   0.00   0.00    -0.00  -0.00  -0.00
  18   1    -0.00   0.00  -0.00    -0.00   0.00  -0.00     0.00  -0.00   0.00
  19   1     0.00  -0.00   0.00    -0.00   0.00   0.00    -0.00  -0.00   0.00
  20   1    -0.00   0.00   0.00     0.00  -0.00  -0.00    -0.00   0.00   0.00
  21   1    -0.01  -0.03  -0.05     0.00   0.01   0.01    -0.00  -0.01  -0.01
  22   6     0.00   0.00   0.00     0.00   0.00  -0.00    -0.00  -0.00   0.00
  23   8    -0.00  -0.00   0.00    -0.00  -0.00   0.00     0.00   0.00  -0.00
  24   7    -0.01  -0.00   0.00    -0.00  -0.00   0.00     0.00   0.00  -0.00
  25   1     0.03   0.02   0.00     0.02   0.01   0.00    -0.00  -0.00   0.00
  26   1    -0.00  -0.00  -0.00    -0.00  -0.00  -0.01     0.00  -0.00   0.00
  27   7    -0.00   0.00  -0.00    -0.00  -0.00   0.00    -0.00  -0.00  -0.00
  28   1    -0.00   0.00  -0.00    -0.00  -0.00  -0.00     0.00  -0.00   0.00
  29   1    -0.00  -0.00   0.00     0.00   0.00  -0.00     0.00   0.00  -0.00
  30   6    -0.01  -0.01  -0.01    -0.00  -0.00  -0.00     0.00   0.00   0.00
  31   8     0.00   0.01  -0.00     0.00   0.00   0.00    -0.00  -0.00   0.00
  32   7    -0.00  -0.00   0.00    -0.00   0.00   0.00     0.00   0.00  -0.00
  33   1    -0.01   0.00  -0.01     0.00  -0.00   0.00     0.00  -0.00   0.00
  34   1     0.01   0.01   0.00    -0.00  -0.00  -0.00    -0.00  -0.00  -0.00
  35   7     0.01   0.02   0.01    -0.00  -0.00   0.00    -0.00   0.00  -0.00
  36   1    -0.03  -0.08  -0.04     0.00   0.00   0.00     0.00   0.00   0.00
  37   1     0.00   0.00  -0.00    -0.00   0.00  -0.00     0.00  -0.00   0.00
  38   6    -0.00   0.00  -0.00     0.01   0.00  -0.00    -0.00  -0.00   0.00
  39   8     0.00  -0.00   0.00    -0.00   0.00  -0.00     0.00  -0.00  -0.00
  40   7    -0.01  -0.00   0.00    -0.01  -0.01   0.00     0.00   0.00  -0.00
  41   1     0.02   0.01  -0.01     0.04   0.01  -0.01    -0.01  -0.00   0.00
  42   1    -0.00   0.00  -0.00    -0.00   0.00  -0.00    -0.00   0.00  -0.00
  43   7    -0.00  -0.00   0.00     0.10   0.17  -0.07    -0.03  -0.04   0.01
  44   1     0.00  -0.00   0.00    -0.21   0.18  -0.07     0.06  -0.05   0.02
  45   1     0.00   0.01  -0.00    -0.17  -0.82   0.33     0.04   0.19  -0.07
  46   6    -0.00  -0.00   0.01    -0.00   0.00   0.01    -0.00   0.00  -0.01
  47   8     0.00   0.00   0.00    -0.00  -0.00  -0.00     0.00   0.00   0.00
  48   7    -0.00  -0.00  -0.00    -0.00   0.01  -0.04    -0.02   0.06  -0.17
  49   1     0.00   0.00  -0.00    -0.11  -0.08   0.05    -0.48  -0.34   0.21
  50   1     0.01   0.00   0.01     0.13   0.03   0.10     0.57   0.12   0.43
  51   7     0.01   0.01   0.28     0.01   0.01   0.01    -0.01  -0.01  -0.00
  52   1    -0.13  -0.18  -0.16    -0.03  -0.04  -0.04     0.01   0.02   0.02
  53   1     0.09   0.17  -0.89    -0.00  -0.00   0.01     0.00  -0.00  -0.00
                    145                    146                    147
                        a                      a                      a 
 Frequencies --  3489.5830              3499.7883              3514.3983
 Red. masses --     1.4769                 1.4463                 2.1577
 Frc consts  --     0.0000                 0.0000                 0.0000
 IR Inten    --    50.1816                23.1158                11.1926
 Raman Activ --     0.0000                 0.0000                 0.0000
 Depolar     --     0.0000                 0.0000                 0.0000
 Atom AN      X      Y      Z        X      Y      Z        X      Y      Z
   1   8    -0.00  -0.00  -0.00     0.00   0.00   0.00    -0.00  -0.00  -0.00
   2   6     0.00   0.00   0.00    -0.00  -0.00  -0.00    -0.00   0.00   0.00
   3   1    -0.00  -0.00  -0.00     0.00  -0.00   0.00    -0.00  -0.00  -0.00
   4   1    -0.00   0.00   0.00    -0.00   0.00   0.00     0.00   0.00   0.00
   5   6    -0.00  -0.00  -0.00     0.00   0.00   0.00     0.00   0.00   0.00
   6   1     0.00   0.00   0.00    -0.00  -0.00  -0.00    -0.00  -0.00  -0.00
   7   1    -0.00   0.00  -0.00     0.00  -0.00   0.00     0.00  -0.00  -0.00
   8   7    -0.00   0.00  -0.00    -0.00  -0.00   0.00     0.00  -0.00   0.00
   9   6    -0.00  -0.00  -0.00     0.00   0.00   0.00     0.00   0.00   0.00
  10   1     0.00   0.00   0.00    -0.00  -0.00  -0.00    -0.00  -0.00  -0.00
  11   1     0.00  -0.00  -0.00    -0.00   0.00  -0.00     0.00   0.00  -0.00
  12   1     0.00   0.00  -0.00    -0.00  -0.00   0.00    -0.00  -0.00   0.00
  13   6    -0.00  -0.00  -0.00     0.00   0.00   0.00     0.00   0.00   0.00
  14   1     0.00   0.00   0.00    -0.00  -0.00  -0.00    -0.00  -0.00  -0.00
  15   1    -0.00  -0.00  -0.00     0.00  -0.00   0.00     0.00   0.00   0.00
  16   1    -0.00  -0.00   0.00    -0.00   0.00   0.00     0.00  -0.00  -0.00
  17   6     0.00  -0.00   0.00     0.00   0.00  -0.00    -0.00  -0.00   0.00
  18   1    -0.00  -0.00  -0.00    -0.00   0.00  -0.00     0.00   0.00   0.00
  19   1     0.00   0.00  -0.00    -0.00  -0.00   0.00    -0.00   0.00   0.00
  20   1    -0.00  -0.00   0.00    -0.00   0.00  -0.00     0.00  -0.00  -0.00
  21   1     0.00   0.00   0.00    -0.00  -0.00  -0.00     0.00   0.00   0.01
  22   6     0.00  -0.00   0.00    -0.00  -0.00  -0.00    -0.00  -0.00   0.00
  23   8    -0.00   0.00  -0.00     0.00  -0.00   0.00    -0.00  -0.00  -0.00
  24   7     0.00   0.00  -0.00     0.01   0.00   0.01    -0.00   0.00  -0.00
  25   1    -0.01  -0.00  -0.00    -0.01  -0.01  -0.00     0.00   0.00   0.00
  26   1     0.00  -0.00   0.00    -0.03   0.00  -0.04     0.00  -0.00   0.00
  27   7     0.00   0.00  -0.00    -0.15  -0.10  -0.02     0.00   0.00   0.00
  28   1    -0.01   0.00  -0.01     0.44  -0.08   0.54    -0.00   0.00  -0.00
  29   1    -0.00  -0.01   0.02     0.12   0.46  -0.49    -0.00  -0.00   0.00
  30   6     0.00   0.00  -0.00    -0.00   0.00  -0.00     0.00   0.00  -0.00
  31   8    -0.00  -0.00  -0.00    -0.00  -0.00   0.00    -0.00  -0.00   0.00
  32   7     0.02   0.19  -0.03     0.00   0.00  -0.00     0.00  -0.00   0.00
  33   1     0.38  -0.05   0.36     0.01  -0.00   0.01    -0.00   0.00  -0.00
  34   1    -0.45  -0.64  -0.26    -0.01  -0.02  -0.01     0.00   0.00   0.00
  35   7     0.01   0.00   0.01     0.00   0.00   0.00    -0.00  -0.00  -0.00
  36   1    -0.02  -0.04  -0.02    -0.01  -0.01  -0.01     0.00   0.00   0.00
  37   1    -0.01   0.02  -0.01    -0.00   0.01  -0.01     0.00   0.00  -0.00
  38   6     0.00  -0.00  -0.00    -0.00  -0.00   0.00     0.00   0.00   0.00
  39   8     0.00   0.00   0.00     0.00   0.00   0.00    -0.00   0.00  -0.00
  40   7     0.00   0.00  -0.00     0.00   0.00  -0.00     0.00  -0.00  -0.00
  41   1    -0.02  -0.00   0.00    -0.01  -0.00   0.00    -0.00  -0.00   0.00
  42   1     0.00  -0.00   0.00     0.01  -0.01   0.00    -0.00   0.00   0.00
  43   7     0.00  -0.00   0.00     0.00  -0.00   0.00     0.00  -0.00   0.00
  44   1    -0.00   0.00  -0.00    -0.00   0.00  -0.00    -0.01   0.01  -0.00
  45   1     0.00   0.00  -0.00    -0.00  -0.00   0.00    -0.00   0.00  -0.00
  46   6     0.00   0.00  -0.00    -0.00  -0.00  -0.00    -0.01  -0.00  -0.00
  47   8    -0.00  -0.00  -0.00     0.00   0.00   0.00     0.00   0.00   0.00
  48   7    -0.00  -0.00   0.00    -0.00  -0.00   0.00    -0.27  -0.13  -0.03
  49   1     0.00   0.00  -0.00     0.00   0.00  -0.00     0.54   0.40  -0.27
  50   1    -0.00  -0.00  -0.00     0.00   0.00   0.00     0.48   0.08   0.39
  51   7    -0.00  -0.00   0.01     0.00   0.00   0.00    -0.00  -0.00  -0.00
  52   1    -0.00  -0.00  -0.00    -0.00  -0.00  -0.00     0.01   0.01   0.01
  53   1     0.00   0.00  -0.02     0.00   0.00  -0.00    -0.00  -0.00   0.01
                    148                    149                    150
                        a                      a                      a 
 Frequencies --  3532.3301              3535.2888              3539.5982
 Red. masses --     1.8988                 1.9218                 1.9427
 Frc consts  --     0.0000                 0.0000                 0.0000
 IR Inten    --    16.3381                28.3526                 6.7471
 Raman Activ --     0.0000                 0.0000                 0.0000
 Depolar     --     0.0000                 0.0000                 0.0000
 Atom AN      X      Y      Z        X      Y      Z        X      Y      Z
   1   8     0.00   0.00   0.00    -0.00  -0.00  -0.00     0.00   0.00   0.00
   2   6     0.00  -0.00  -0.00     0.00  -0.00   0.00    -0.00   0.00  -0.00
   3   1    -0.00  -0.00  -0.00     0.00   0.00  -0.00     0.00   0.00   0.00
   4   1    -0.00   0.00   0.00    -0.00   0.00   0.00    -0.00  -0.00  -0.00
   5   6     0.00   0.00   0.00     0.00   0.00   0.00    -0.00  -0.00  -0.00
   6   1    -0.00  -0.00  -0.00    -0.00  -0.00  -0.00     0.00   0.00   0.00
   7   1     0.00  -0.00   0.00    -0.00   0.00  -0.00     0.00  -0.00   0.00
   8   7    -0.00  -0.00  -0.00    -0.00  -0.00  -0.00     0.00   0.00   0.00
   9   6     0.00   0.00   0.00     0.00   0.00   0.00    -0.00  -0.00  -0.00
  10   1    -0.00  -0.00  -0.00    -0.00  -0.00  -0.00     0.00   0.00   0.00
  11   1    -0.00   0.00   0.00    -0.00   0.00   0.00    -0.00  -0.00   0.00
  12   1     0.00  -0.00  -0.00     0.00   0.00   0.00     0.00  -0.00  -0.00
  13   6     0.00   0.00   0.00     0.00   0.00   0.00    -0.00  -0.00  -0.00
  14   1    -0.00  -0.00  -0.00    -0.00  -0.00  -0.00     0.00   0.00   0.00
  15   1     0.00   0.00   0.00     0.00   0.00   0.00     0.00  -0.00   0.00
  16   1    -0.00   0.00   0.00     0.00  -0.00  -0.00    -0.00   0.00  -0.00
  17   6     0.00   0.00  -0.00     0.00   0.00   0.00    -0.00  -0.00  -0.00
  18   1    -0.00   0.00  -0.00    -0.00   0.00  -0.00     0.00  -0.00   0.00
  19   1    -0.00  -0.00   0.00     0.00   0.00   0.00     0.00  -0.00  -0.00
  20   1     0.00  -0.00  -0.00     0.00  -0.00   0.00    -0.00  -0.00   0.00
  21   1    -0.00  -0.00  -0.00     0.00   0.00   0.00    -0.00  -0.00  -0.00
  22   6    -0.01  -0.00  -0.00     0.00   0.00   0.00    -0.00   0.00  -0.00
  23   8     0.00   0.00   0.00    -0.00  -0.00  -0.00     0.00  -0.00   0.00
  24   7    -0.15  -0.00  -0.21     0.01   0.00   0.01     0.00  -0.00   0.01
  25   1     0.06   0.05  -0.01    -0.01  -0.01   0.00     0.00  -0.00   0.00
  26   1     0.52  -0.03   0.80    -0.03   0.00  -0.05    -0.01   0.00  -0.02
  27   7    -0.00  -0.02   0.02    -0.00   0.00  -0.00     0.00   0.00   0.00
  28   1    -0.01   0.00  -0.01     0.01  -0.00   0.01    -0.01   0.00  -0.01
  29   1     0.02   0.06  -0.06    -0.00  -0.00   0.00    -0.00  -0.00   0.00
  30   6     0.00   0.00  -0.00     0.00   0.01  -0.00    -0.00   0.00   0.00
  31   8    -0.00  -0.00   0.00     0.00   0.00   0.00    -0.00  -0.00   0.00
  32   7    -0.00  -0.00  -0.00    -0.01  -0.00  -0.01     0.00   0.00   0.00
  33   1     0.00  -0.00   0.00     0.04  -0.01   0.04    -0.01   0.00  -0.01
  34   1     0.00   0.00   0.00     0.01   0.02   0.01    -0.00  -0.00  -0.00
  35   7    -0.00   0.02  -0.01    -0.04   0.24  -0.10    -0.00  -0.00   0.00
  36   1    -0.00  -0.01  -0.00    -0.04  -0.09  -0.06     0.00   0.01   0.00
  37   1     0.01  -0.05   0.03     0.20  -0.82   0.44    -0.00   0.01  -0.01
  38   6    -0.00   0.00  -0.00    -0.00  -0.00   0.00    -0.01  -0.00   0.00
  39   8     0.00  -0.00   0.00     0.00   0.00  -0.00     0.00   0.00  -0.00
  40   7    -0.01   0.00  -0.00    -0.00   0.00  -0.00    -0.19   0.13  -0.04
  41   1     0.00   0.00  -0.00    -0.01  -0.00   0.00     0.08   0.04  -0.03
  42   1     0.02  -0.01   0.00     0.01  -0.01   0.00     0.65  -0.53   0.18
  43   7     0.00  -0.00   0.00     0.00  -0.00   0.00     0.07  -0.09   0.03
  44   1    -0.01   0.01  -0.00    -0.01   0.01  -0.00    -0.31   0.24  -0.09
  45   1     0.00   0.00  -0.00     0.00   0.00  -0.00     0.03   0.11  -0.04
  46   6     0.00  -0.00  -0.00     0.00   0.00  -0.00     0.00   0.00  -0.00
  47   8     0.00   0.00   0.00    -0.00  -0.00  -0.00     0.00   0.00   0.00
  48   7     0.00   0.00   0.00    -0.00   0.00   0.00     0.00   0.00  -0.00
  49   1    -0.00  -0.00   0.00     0.00   0.00  -0.00    -0.01  -0.01   0.00
  50   1    -0.00  -0.00  -0.00     0.00  -0.00  -0.00     0.00   0.00   0.00
  51   7     0.00   0.00   0.00     0.00   0.00  -0.00    -0.00  -0.00   0.00
  52   1    -0.00  -0.00  -0.00    -0.00  -0.00  -0.00     0.00   0.00   0.00
  53   1     0.00   0.00  -0.00    -0.00  -0.00   0.01     0.00   0.00  -0.00
                    151                    152                    153
                        a                      a                      a 
 Frequencies --  3547.0003              3566.6627              3568.3369
 Red. masses --     2.0033                 2.1879                 2.1628
 Frc consts  --     0.0000                 0.0000                 0.0000
 IR Inten    --    33.5577                16.7732                24.6108
 Raman Activ --     0.0000                 0.0000                 0.0000
 Depolar     --     0.0000                 0.0000                 0.0000
 Atom AN      X      Y      Z        X      Y      Z        X      Y      Z
   1   8    -0.00  -0.00  -0.00     0.00  -0.00  -0.00     0.00   0.00   0.00
   2   6     0.00  -0.00   0.00    -0.00   0.00  -0.00     0.00   0.00  -0.00
   3   1    -0.00  -0.00  -0.00     0.00   0.00   0.00     0.00   0.00   0.00
   4   1     0.00   0.00   0.00     0.00  -0.00  -0.00    -0.00   0.00  -0.00
   5   6     0.00  -0.00  -0.00    -0.00   0.00   0.00     0.00   0.00   0.00
   6   1    -0.00   0.00   0.00    -0.00  -0.00  -0.00    -0.00  -0.00  -0.00
   7   1    -0.00   0.00  -0.00     0.00   0.00   0.00    -0.00   0.00   0.00
   8   7    -0.00   0.00   0.00    -0.00   0.00  -0.00     0.00  -0.00   0.00
   9   6     0.00   0.00   0.00    -0.00  -0.00  -0.00     0.00   0.00   0.00
  10   1    -0.00  -0.00   0.00     0.00   0.00   0.00     0.00  -0.00  -0.00
  11   1     0.00  -0.00  -0.00     0.00   0.00   0.00     0.00   0.00   0.00
  12   1    -0.00   0.00   0.00     0.00  -0.00   0.00     0.00   0.00   0.00
  13   6    -0.00  -0.00  -0.00     0.00   0.00   0.00     0.00   0.00   0.00
  14   1    -0.00   0.00   0.00    -0.00  -0.00  -0.00    -0.00  -0.00  -0.00
  15   1     0.00  -0.00   0.00    -0.00   0.00   0.00     0.00   0.00   0.00
  16   1    -0.00  -0.00  -0.00    -0.00   0.00   0.00     0.00   0.00   0.00
  17   6     0.00  -0.00   0.00     0.00   0.00  -0.00    -0.00   0.00  -0.00
  18   1     0.00  -0.00   0.00    -0.00   0.00   0.00    -0.00   0.00  -0.00
  19   1     0.00   0.00  -0.00    -0.00  -0.00   0.00    -0.00   0.00   0.00
  20   1    -0.00   0.00   0.00     0.00  -0.00  -0.00     0.00   0.00  -0.00
  21   1     0.00   0.00   0.00     0.00   0.00   0.00    -0.00  -0.00  -0.00
  22   6    -0.00   0.00  -0.00    -0.00   0.01  -0.01     0.00  -0.00   0.00
  23   8     0.00  -0.00   0.00     0.00  -0.00   0.00    -0.00   0.00  -0.00
  24   7    -0.00  -0.00  -0.00    -0.01  -0.00  -0.01     0.00   0.00   0.00
  25   1     0.01   0.00   0.00     0.01   0.00  -0.00    -0.00  -0.00  -0.00
  26   1     0.00  -0.00   0.00     0.04  -0.00   0.06    -0.00   0.00  -0.00
  27   7     0.00  -0.00   0.00    -0.08   0.14  -0.26     0.00  -0.01   0.02
  28   1    -0.00   0.00  -0.01     0.43  -0.06   0.50    -0.03   0.00  -0.03
  29   1     0.00   0.00  -0.00    -0.14  -0.47   0.47     0.01   0.03  -0.03
  30   6    -0.00   0.00  -0.00     0.00   0.00   0.00     0.01   0.01   0.01
  31   8     0.00   0.00  -0.00    -0.00  -0.00  -0.00    -0.00  -0.00  -0.00
  32   7     0.00   0.00   0.00     0.01   0.00   0.01     0.22   0.07   0.19
  33   1    -0.00   0.00  -0.00    -0.04   0.01  -0.04    -0.57   0.11  -0.56
  34   1    -0.00  -0.00  -0.00    -0.02  -0.02  -0.01    -0.26  -0.40  -0.14
  35   7    -0.00   0.00  -0.00    -0.00  -0.00  -0.00    -0.00   0.02  -0.01
  36   1     0.00   0.00   0.00     0.00   0.01   0.00    -0.01  -0.02  -0.01
  37   1     0.00  -0.01   0.00    -0.00   0.00  -0.00     0.01  -0.05   0.03
  38   6    -0.01   0.01  -0.00    -0.00   0.00  -0.00     0.00  -0.00  -0.00
  39   8     0.00  -0.00   0.00     0.00  -0.00   0.00    -0.00   0.00   0.00
  40   7    -0.09   0.06  -0.02    -0.00   0.00   0.00     0.00  -0.00   0.00
  41   1     0.04   0.02  -0.02     0.01   0.00  -0.00    -0.01  -0.00   0.00
  42   1     0.32  -0.26   0.09     0.01  -0.01   0.00    -0.01   0.01  -0.00
  43   7    -0.15   0.19  -0.07    -0.00   0.00  -0.00     0.00  -0.00   0.00
  44   1     0.64  -0.50   0.18     0.00  -0.00   0.00    -0.00   0.00  -0.00
  45   1    -0.06  -0.22   0.09    -0.00  -0.00   0.00     0.00   0.00  -0.00
  46   6    -0.00  -0.00   0.00     0.00  -0.00   0.00     0.00   0.00  -0.00
  47   8    -0.00  -0.00  -0.00    -0.00  -0.00  -0.00    -0.00  -0.00  -0.00
  48   7    -0.00  -0.00   0.00    -0.00  -0.00   0.00     0.00   0.00   0.00
  49   1     0.02   0.01  -0.01     0.00   0.00  -0.00    -0.00  -0.00   0.00
  50   1    -0.00  -0.00  -0.00     0.00  -0.00   0.00    -0.00  -0.00  -0.00
  51   7     0.00   0.00  -0.00     0.00   0.00   0.00     0.00   0.00  -0.00
  52   1    -0.00  -0.00  -0.00    -0.00  -0.00  -0.00     0.00   0.00  -0.00
  53   1    -0.00  -0.00   0.00     0.00  -0.00   0.00    -0.00  -0.00   0.01
