      -----------------------------------------------------------      
     |                   =====================                   |     
     |                           x T B                           |     
     |                   =====================                   |     
     |                         S. Grimme                         |     
     |          Mulliken Center for Theoretical Chemistry        |     
     |                    University of Bonn                     |     
      -----------------------------------------------------------      

   * xtb version 6.6.1 (unknown-commit) compiled by '@Linux' on 12/27/2023

   xtb is free software: you can redistribute it and/or modify it under
   the terms of the GNU Lesser General Public License as published by
   the Free Software Foundation, either version 3 of the License, or
   (at your option) any later version.
   
   xtb is distributed in the hope that it will be useful,
   but WITHOUT ANY WARRANTY; without even the implied warranty of
   MERCHANTABILITY or FITNESS FOR A PARTICULAR PURPOSE.  See the
   GNU Lesser General Public License for more details.
   
   Cite this work as:
   * C. Bannwarth, E. Caldeweyher, S. Ehlert, A. Hansen, P. Pracht,
     J. Seibert, S. Spicher, S. Grimme, WIREs Comput. Mol. Sci., 2020, 11,
     e01493. DOI: 10.1002/wcms.1493
   
   for GFN2-xTB:
   * C. Bannwarth, S. Ehlert and S. Grimme., J. Chem. Theory Comput., 2019,
     15, 1652-1671. DOI: 10.1021/acs.jctc.8b01176
   for GFN1-xTB:
   * S. Grimme, C. Bannwarth, P. Shushkov, J. Chem. Theory Comput., 2017,
     13, 1989-2009. DOI: 10.1021/acs.jctc.7b00118
   for GFN0-xTB:
   * P. Pracht, E. Caldeweyher, S. Ehlert, S. Grimme, ChemRxiv, 2019, preprint.
     DOI: 10.26434/chemrxiv.8326202.v1
   for GFN-FF:
   * S. Spicher and S. Grimme, Angew. Chem. Int. Ed., 2020, 59, 15665-15673.
     DOI: 10.1002/anie.202004239
   
   for ALPB and GBSA implicit solvation:
   * S. Ehlert, M. Stahn, S. Spicher, S. Grimme, J. Chem. Theory Comput.,
     2021, 17, 4250-4261. DOI: 10.1021/acs.jctc.1c00471
   
   for DFT-D4:
   * E. Caldeweyher, C. Bannwarth and S. Grimme, J. Chem. Phys., 2017,
     147, 034112. DOI: 10.1063/1.4993215
   * E. Caldeweyher, S. Ehlert, A. Hansen, H. Neugebauer, S. Spicher,
     C. Bannwarth and S. Grimme, J. Chem. Phys., 2019, 150, 154122.
     DOI: 10.1063/1.5090222
   * E. Caldeweyher, J.-M. Mewes, S. Ehlert and S. Grimme, Phys. Chem. Chem. Phys.
     2020, 22, 8499-8512. DOI: 10.1039/D0CP00502A
   
   for sTDA-xTB:
   * S. Grimme and C. Bannwarth, J. Chem. Phys., 2016, 145, 054103.
     DOI: 10.1063/1.4959605
   
   in the mass-spec context:
   * V. Asgeirsson, C. Bauer and S. Grimme, Chem. Sci., 2017, 8, 4879.
     DOI: 10.1039/c7sc00601b
   * J. Koopman and S. Grimme, ACS Omega 2019, 4, 12, 15120-15133.
     DOI: 10.1021/acsomega.9b02011
   
   for metadynamics refer to:
   * S. Grimme, J. Chem. Theory Comput., 2019, 155, 2847-2862
     DOI: 10.1021/acs.jctc.9b00143
   
   for SPH calculations refer to:
   * S. Spicher and S. Grimme, J. Chem. Theory Comput., 2021, 17, 1701-1714
     DOI: 10.1021/acs.jctc.0c01306
   
   with help from (in alphabetical order)
   P. Atkinson, C. Bannwarth, F. Bohle, G. Brandenburg, E. Caldeweyher
   M. Checinski, S. Dohm, S. Ehlert, S. Ehrlich, I. Gerasimov, C. Hölzer
   A. Katbashev, J. Koopman, C. Lavigne, S. Lehtola, F. März, M. Müller,
   F. Musil, H. Neugebauer, J. Pisarek, C. Plett, P. Pracht, F. Pultar,
   J. Seibert, P. Shushkov, S. Spicher, M. Stahn, M. Steiner, T. Strunk,
   J. Stückrath, T. Rose, and J. Unsleber
   
 * started run on 2024/01/10 at 15:37:53.177     

           -------------------------------------------------
          |                Calculation Setup                |
           -------------------------------------------------

          program call               : xtb struc.xyz --gfn2 --hess
          hostname                   : swaroop
          coordinate file            : struc.xyz
          omp threads                :                     1

   ID    Z sym.   atoms
    1    8 O      1, 23, 31, 39, 47
    2    6 C      2, 5, 9, 13, 17, 22, 30, 38, 46
    3    1 H      3, 4, 6, 7, 10-12, 14-16, 18-21, 25, 26, 28, 29, 33, 34,
                  36, 37, 41, 42, 44, 45, 49, 50, 52, 53
    4    7 N      8, 24, 27, 32, 35, 40, 43, 48, 51

molecular fragmentation (1/2 indicates fragments):
11111111111111111111122222222222222222222222222222222
# atoms in fragment 1/2:    21    32
 fragment masses (1/2) :      104.17      240.22
CMA distance (Bohr)    :   7.539
constraining FC (au)   :  0.0500

           -------------------------------------------------
          |                 G F N 2 - x T B                 |
           -------------------------------------------------

        Reference                      10.1021/acs.jctc.8b01176
      * Hamiltonian:
        H0-scaling (s, p, d)           1.850000    2.230000    2.230000
        zeta-weighting                 0.500000
      * Dispersion:
        s8                             2.700000
        a1                             0.520000
        a2                             5.000000
        s9                             5.000000
      * Repulsion:
        kExp                           1.500000    1.000000
        rExp                           1.000000
      * Coulomb:
        alpha                          2.000000
        third order                    shell-resolved
        anisotropic                    true
        a3                             3.000000
        a5                             4.000000
        cn-shift                       1.200000
        cn-exp                         4.000000
        max-rad                        5.000000


          ...................................................
          :                      SETUP                      :
          :.................................................:
          :  # basis functions                 122          :
          :  # atomic orbitals                 122          :
          :  # shells                           76          :
          :  # electrons                       140          :
          :  max. iterations                   250          :
          :  Hamiltonian                  GFN2-xTB          :
          :  restarted?                      false          :
          :  GBSA solvation                  false          :
          :  PC potential                    false          :
          :  electronic temp.          300.0000000     K    :
          :  accuracy                    1.0000000          :
          :  -> integral cutoff          0.2500000E+02      :
          :  -> integral neglect         0.1000000E-07      :
          :  -> SCF convergence          0.1000000E-05 Eh   :
          :  -> wf. convergence          0.1000000E-03 e    :
          :  Broyden damping             0.4000000          :
          ...................................................

 iter      E             dE          RMSdq      gap      omega  full diag
   1    -81.5505899 -0.815506E+02  0.438E+00    5.12       0.0  T
   2    -81.8375269 -0.286937E+00  0.240E+00    5.96       1.0  T
   3    -81.8433352 -0.580832E-02  0.116E+00    5.68       1.0  T
   4    -81.8447423 -0.140712E-02  0.246E-01    5.76       1.0  T
   5    -81.8456743 -0.931939E-03  0.927E-02    5.67       1.0  T
   6    -81.8456997 -0.253892E-04  0.280E-02    5.67       1.0  T
   7    -81.8457041 -0.441029E-05  0.771E-03    5.67       1.8  T
   8    -81.8457044 -0.299668E-06  0.283E-03    5.67       4.9  T
   9    -81.8457044 -0.215608E-07  0.101E-03    5.67      13.6  T
  10    -81.8457044 -0.511761E-08  0.184E-04    5.67      74.7  T
  11    -81.8457044 -0.288139E-09  0.856E-05    5.67     160.4  T

   *** convergence criteria satisfied after 11 iterations ***

         #    Occupation            Energy/Eh            Energy/eV
      -------------------------------------------------------------
         1        2.0000           -0.8014569             -21.8088
       ...           ...                  ...                  ...
        64        2.0000           -0.4976607             -13.5420
        65        2.0000           -0.4963083             -13.5052
        66        2.0000           -0.4927347             -13.4080
        67        2.0000           -0.4905280             -13.3479
        68        2.0000           -0.4859465             -13.2233
        69        2.0000           -0.4846097             -13.1869
        70        2.0000           -0.4802608             -13.0686 (HOMO)
        71                         -0.2720385              -7.4025 (LUMO)
        72                         -0.2684877              -7.3059
        73                         -0.2654302              -7.2227
        74                         -0.2542375              -6.9182
        75                         -0.1580947              -4.3020
       ...                                ...                  ...
       122                          0.5651416              15.3783
      -------------------------------------------------------------
                  HL-Gap            0.2082222 Eh            5.6660 eV
             Fermi-level           -0.3761497 Eh          -10.2356 eV

 SCC (total)                   0 d,  0 h,  0 min,  0.092 sec
 SCC setup                      ...        0 min,  0.000 sec (  0.309%)
 Dispersion                     ...        0 min,  0.001 sec (  0.633%)
 classical contributions        ...        0 min,  0.000 sec (  0.208%)
 integral evaluation            ...        0 min,  0.008 sec (  8.255%)
 iterations                     ...        0 min,  0.056 sec ( 60.678%)
 molecular gradient             ...        0 min,  0.027 sec ( 29.639%)
 printout                       ...        0 min,  0.000 sec (  0.266%)

         :::::::::::::::::::::::::::::::::::::::::::::::::::::
         ::                     SUMMARY                     ::
         :::::::::::::::::::::::::::::::::::::::::::::::::::::
         :: total energy             -80.933790309185 Eh    ::
         :: gradient norm              0.000043157047 Eh/a0 ::
         :: HOMO-LUMO gap              5.666015795622 eV    ::
         ::.................................................::
         :: SCC energy               -81.845704390210 Eh    ::
         :: -> isotropic ES            0.294811624022 Eh    ::
         :: -> anisotropic ES         -0.028713294395 Eh    ::
         :: -> anisotropic XC          0.020323933749 Eh    ::
         :: -> dispersion             -0.043429236398 Eh    ::
         :: repulsion energy           0.910788407329 Eh    ::
         :: add. restraining           0.000000000000 Eh    ::
         :: total charge               1.000000000000 e     ::
         :::::::::::::::::::::::::::::::::::::::::::::::::::::

           ------------------------------------------------- 
          |                Numerical Hessian                |
           ------------------------------------------------- 
step length          :   0.00500
SCC accuracy         :   0.30000
Hessian scale factor :   1.00000
frozen atoms in %    :   0.00000    0
RMS gradient         :   0.00004
estimated CPU  time      0.24 min
estimated wall time      0.24 min

writing file <hessian>.

 projected vibrational frequencies (cm⁻¹)
eigval :       -0.00    -0.00    -0.00     0.00     0.00     0.00
eigval :       12.27    12.87    14.88    20.53    28.03    36.08
eigval :       40.29    51.89    53.64    58.81    64.74    69.47
eigval :       75.35    82.67    90.30   101.18   105.45   108.12
eigval :      116.07   131.66   141.89   149.98   167.16   185.84
eigval :      197.75   205.79   219.25   229.93   255.80   263.25
eigval :      298.13   304.50   324.03   344.98   347.20   372.31
eigval :      395.23   412.35   433.03   435.49   444.83   457.69
eigval :      459.64   467.04   476.03   477.24   482.58   484.60
eigval :      502.03   516.20   532.77   541.66   552.97   557.47
eigval :      561.05   593.50   654.98   667.25   671.80   676.65
eigval :      683.54   701.59   706.47   725.85   765.40   775.20
eigval :      899.52   925.33   948.33   962.83   963.62   997.03
eigval :      999.02  1003.40  1007.09  1008.20  1023.14  1028.00
eigval :     1032.25  1037.28  1042.50  1082.71  1084.07  1087.54
eigval :     1093.65  1103.35  1129.61  1131.40  1163.87  1224.36
eigval :     1248.16  1275.48  1309.72  1328.11  1343.12  1349.08
eigval :     1354.54  1358.43  1373.37  1388.76  1403.05  1405.47
eigval :     1428.93  1434.00  1439.60  1446.78  1448.95  1451.00
eigval :     1456.34  1458.70  1459.74  1468.85  1470.12  1481.11
eigval :     1488.67  1497.55  1501.20  1517.57  1523.71  1652.79
eigval :     1678.27  1712.45  1722.72  2870.52  2974.38  2989.15
eigval :     2994.38  3005.04  3034.72  3038.87  3044.00  3047.13
eigval :     3053.27  3056.99  3064.76  3077.27  3164.70  3213.69
eigval :     3275.44  3299.16  3385.59  3437.29  3497.73  3498.74
eigval :     3502.09  3502.49  3525.79  3538.80  3546.55  3561.09
eigval :     3565.04  3567.06  3568.53
           -------------------------------------------------
          |                Property Printout                |
           -------------------------------------------------

    * Orbital Energies and Occupations

         #    Occupation            Energy/Eh            Energy/eV
      -------------------------------------------------------------
         1        2.0000           -0.8014570             -21.8088
       ...           ...                  ...                  ...
        58        2.0000           -0.5107106             -13.8971
        59        2.0000           -0.5059830             -13.7685
        60        2.0000           -0.5055406             -13.7565
        61        2.0000           -0.5040719             -13.7165
        62        2.0000           -0.4997133             -13.5979
        63        2.0000           -0.4988397             -13.5741
        64        2.0000           -0.4976607             -13.5420
        65        2.0000           -0.4963082             -13.5052
        66        2.0000           -0.4927351             -13.4080
        67        2.0000           -0.4905286             -13.3480
        68        2.0000           -0.4859469             -13.2233
        69        2.0000           -0.4846100             -13.1869
        70        2.0000           -0.4802614             -13.0686 (HOMO)
        71                         -0.2720393              -7.4026 (LUMO)
        72                         -0.2684877              -7.3059
        73                         -0.2654304              -7.2227
        74                         -0.2542375              -6.9182
        75                         -0.1580947              -4.3020
        76                         -0.1043010              -2.8382
        77                         -0.0964702              -2.6251
        78                         -0.0870354              -2.3684
        79                         -0.0797648              -2.1705
        80                         -0.0751376              -2.0446
        81                         -0.0743566              -2.0233
       ...                                ...                  ...
       122                          0.5651413              15.3783
      -------------------------------------------------------------
                  HL-Gap            0.2082221 Eh            5.6660 eV
             Fermi-level           -0.3761503 Eh          -10.2356 eV

     #   Z          covCN         q      C6AA      α(0)
     1   8 O        1.654    -0.460    22.059     6.340
     2   6 C        3.673     0.075    19.548     6.336
     3   1 H        0.924     0.058     2.225     2.333
     4   1 H        0.923     0.046     2.372     2.409
     5   6 C        3.762    -0.060    21.694     6.639
     6   1 H        0.924     0.107     1.722     2.052
     7   1 H        0.924     0.072     2.063     2.246
     8   7 N        3.623     0.156    18.610     6.407
     9   6 C        3.727    -0.123    22.964     6.842
    10   1 H        0.925     0.114     1.667     2.019
    11   1 H        0.925     0.121     1.602     1.979
    12   1 H        0.925     0.104     1.753     2.070
    13   6 C        3.735    -0.119    22.872     6.825
    14   1 H        0.925     0.077     2.008     2.216
    15   1 H        0.924     0.138     1.477     1.901
    16   1 H        0.925     0.096     1.820     2.109
    17   6 C        3.727    -0.101    22.536     6.778
    18   1 H        0.925     0.082     1.958     2.188
    19   1 H        0.925     0.096     1.820     2.110
    20   1 H        0.925     0.116     1.648     2.008
    21   1 H        0.803     0.330     0.637     1.254
    22   6 C        2.675     0.343    21.169     7.529
    23   8 O        0.860    -0.530    24.448     6.629
    24   7 N        2.645    -0.293    27.558     7.797
    25   1 H        0.860     0.198     1.117     1.656
    26   1 H        0.861     0.180     1.213     1.725
    27   7 N        2.644    -0.310    27.969     7.855
    28   1 H        0.860     0.174     1.247     1.749
    29   1 H        0.860     0.233     0.951     1.528
    30   6 C        2.675     0.341    21.204     7.535
    31   8 O        0.861    -0.544    24.779     6.674
    32   7 N        2.645    -0.286    27.385     7.772
    33   1 H        0.860     0.204     1.084     1.631
    34   1 H        0.861     0.186     1.179     1.701
    35   7 N        2.644    -0.302    27.773     7.827
    36   1 H        0.861     0.180     1.213     1.725
    37   1 H        0.859     0.246     0.900     1.486
    38   6 C        2.675     0.347    21.110     7.518
    39   8 O        0.860    -0.514    24.103     6.582
    40   7 N        2.646    -0.288    27.441     7.780
    41   1 H        0.860     0.200     1.103     1.645
    42   1 H        0.861     0.188     1.170     1.694
    43   7 N        2.646    -0.287    27.408     7.775
    44   1 H        0.861     0.188     1.169     1.693
    45   1 H        0.860     0.201     1.100     1.643
    46   6 C        2.675     0.337    21.275     7.548
    47   8 O        0.859    -0.541    24.702     6.664
    48   7 N        2.648    -0.299    27.716     7.819
    49   1 H        0.861     0.192     1.147     1.678
    50   1 H        0.860     0.223     0.997     1.564
    51   7 N        2.647    -0.331    28.523     7.932
    52   1 H        0.860     0.212     1.047     1.603
    53   1 H        0.860     0.226     0.984     1.554

 Mol. C6AA /au·bohr⁶  :      21797.193609
 Mol. C8AA /au·bohr⁸  :     454372.304946
 Mol. α(0) /au        :        220.573556


Wiberg/Mayer (AO) data.
largest (>0.10) Wiberg bond orders for each atom

 ---------------------------------------------------------------------------
     #   Z sym  total        # sym  WBO       # sym  WBO       # sym  WBO
 ---------------------------------------------------------------------------
     1   8 O    1.957 --     2 C    1.027    21 H    0.828
     2   6 C    3.966 --     1 O    1.027     5 C    0.991     3 H    0.966
                             4 H    0.960
     3   1 H    0.996 --     2 C    0.966
     4   1 H    0.998 --     2 C    0.960
     5   6 C    3.941 --     2 C    0.991     7 H    0.970     6 H    0.958
                             8 N    0.940
     6   1 H    0.989 --     5 C    0.958
     7   1 H    0.995 --     5 C    0.970
     8   7 N    3.821 --    17 C    0.962    13 C    0.954     9 C    0.947
                             5 C    0.940
     9   6 C    3.904 --    12 H    0.969    10 H    0.963    11 H    0.955
                             8 N    0.947
    10   1 H    0.987 --     9 C    0.963
    11   1 H    0.985 --     9 C    0.955
    12   1 H    0.989 --     9 C    0.969
    13   6 C    3.917 --    14 H    0.979    16 H    0.969     8 N    0.954
                            15 H    0.948
    14   1 H    0.994 --    13 C    0.979
    15   1 H    0.981 --    13 C    0.948
    16   1 H    0.991 --    13 C    0.969
    17   6 C    3.933 --    18 H    0.978    19 H    0.973    20 H    0.971
                             8 N    0.962
    18   1 H    0.993 --    17 C    0.978
    19   1 H    0.991 --    17 C    0.973
    20   1 H    0.987 --    17 C    0.971
    21   1 H    0.891 --     1 O    0.828
    22   6 C    3.959 --    23 O    1.523    27 N    1.229    24 N    1.199
    23   8 O    1.891 --    22 C    1.523    27 N    0.145    24 N    0.137
    24   7 N    3.315 --    22 C    1.199    26 H    0.948    25 H    0.944
                            23 O    0.137
    25   1 H    0.961 --    24 N    0.944
    26   1 H    0.967 --    24 N    0.948
    27   7 N    3.322 --    22 C    1.229    28 H    0.950    29 H    0.889
                            23 O    0.145
    28   1 H    0.970 --    27 N    0.950
    29   1 H    0.946 --    27 N    0.889
    30   6 C    3.960 --    31 O    1.455    35 N    1.271    32 N    1.221
    31   8 O    1.887 --    30 C    1.455    35 N    0.139    32 N    0.128
    32   7 N    3.335 --    30 C    1.221    34 H    0.947    33 H    0.941
                            31 O    0.128
    33   1 H    0.958 --    32 N    0.941
    34   1 H    0.965 --    32 N    0.947
    35   7 N    3.355 --    30 C    1.271    36 H    0.948    37 H    0.865
                            31 O    0.139
    36   1 H    0.967 --    35 N    0.948
    37   1 H    0.940 --    35 N    0.865
    38   6 C    3.959 --    39 O    1.532    43 N    1.211    40 N    1.208
    39   8 O    1.918 --    38 C    1.532    43 N    0.143    40 N    0.142
    40   7 N    3.323 --    38 C    1.208    42 H    0.946    41 H    0.943
                            39 O    0.142
    41   1 H    0.960 --    40 N    0.943
    42   1 H    0.964 --    40 N    0.946
    43   7 N    3.326 --    38 C    1.211    44 H    0.946    45 H    0.943
                            39 O    0.143
    44   1 H    0.964 --    43 N    0.946
    45   1 H    0.960 --    43 N    0.943
    46   6 C    3.960 --    47 O    1.463    48 N    1.245    51 N    1.236
    47   8 O    1.907 --    46 C    1.463    48 N    0.133    51 N    0.132
    48   7 N    3.343 --    46 C    1.245    49 H    0.945    50 H    0.906
                            47 O    0.133
    49   1 H    0.963 --    48 N    0.945
    50   1 H    0.950 --    48 N    0.906
    51   7 N    3.319 --    46 C    1.236    52 H    0.917    53 H    0.886
                            47 O    0.132
    52   1 H    0.955 --    51 N    0.917
    53   1 H    0.949 --    51 N    0.886
 ---------------------------------------------------------------------------

Topologies differ in total number of bonds
Writing topology from bond orders to xtbtopo.mol

molecular dipole:
                 x           y           z       tot (Debye)
 q only:       -0.457      -0.806       0.917
   full:       -1.150      -1.440       0.530       4.873
molecular quadrupole (traceless):
                xx          xy          yy          xz          yz          zz
 q only:       14.791      17.939      -0.866      -9.754      -7.921     -13.925
  q+dip:       18.494      17.026      -2.586     -13.630      -9.847     -15.908
   full:       17.945      17.480      -2.832     -13.175     -10.270     -15.113

           -------------------------------------------------
          |               Frequency Printout                |
           -------------------------------------------------
 projected vibrational frequencies (cm⁻¹)
eigval :       -0.00    -0.00    -0.00     0.00     0.00     0.00
eigval :       12.27    12.87    14.88    20.53    28.03    36.08
eigval :       40.29    51.89    53.64    58.81    64.74    69.47
eigval :       75.35    82.67    90.30   101.18   105.45   108.12
eigval :      116.07   131.66   141.89   149.98   167.16   185.84
eigval :      197.75   205.79   219.25   229.93   255.80   263.25
eigval :      298.13   304.50   324.03   344.98   347.20   372.31
eigval :      395.23   412.35   433.03   435.49   444.83   457.69
eigval :      459.64   467.04   476.03   477.24   482.58   484.60
eigval :      502.03   516.20   532.77   541.66   552.97   557.47
eigval :      561.05   593.50   654.98   667.25   671.80   676.65
eigval :      683.54   701.59   706.47   725.85   765.40   775.20
eigval :      899.52   925.33   948.33   962.83   963.62   997.03
eigval :      999.02  1003.40  1007.09  1008.20  1023.14  1028.00
eigval :     1032.25  1037.28  1042.50  1082.71  1084.07  1087.54
eigval :     1093.65  1103.35  1129.61  1131.40  1163.87  1224.36
eigval :     1248.16  1275.48  1309.72  1328.11  1343.12  1349.08
eigval :     1354.54  1358.43  1373.37  1388.76  1403.05  1405.47
eigval :     1428.93  1434.00  1439.60  1446.78  1448.95  1451.00
eigval :     1456.34  1458.70  1459.74  1468.85  1470.12  1481.11
eigval :     1488.67  1497.55  1501.20  1517.57  1523.71  1652.79
eigval :     1678.27  1712.45  1722.72  2870.52  2974.38  2989.15
eigval :     2994.38  3005.04  3034.72  3038.87  3044.00  3047.13
eigval :     3053.27  3056.99  3064.76  3077.27  3164.70  3213.69
eigval :     3275.44  3299.16  3385.59  3437.29  3497.73  3498.74
eigval :     3502.09  3502.49  3525.79  3538.80  3546.55  3561.09
eigval :     3565.04  3567.06  3568.53
 reduced masses (amu)
   1: 12.71   2: 12.32   3: 12.32   4: 12.55   5: 12.77   6: 12.71   7: 12.21   8: 11.15
   9: 11.74  10: 12.23  11: 12.69  12: 12.15  13: 12.40  14: 12.88  15: 12.94  16: 12.26
  17: 12.39  18: 12.23  19: 12.17  20: 11.90  21: 11.47  22: 12.89  23: 12.96  24: 12.35
  25: 13.21  26: 13.62  27: 12.35  28: 12.65  29: 12.72  30:  8.50  31: 10.03  32: 11.42
  33:  3.93  34:  7.36  35:  6.11  36:  2.70  37:  5.08  38:  6.37  39:  3.65  40:  3.71
  41:  4.66  42:  7.15  43:  3.09  44:  3.27  45:  3.66  46:  7.98  47:  1.54  48:  8.56
  49:  7.70  50:  7.84  51:  8.60  52:  3.77  53:  2.25  54:  7.21  55:  3.00  56:  9.42
  57:  9.85  58: 11.34  59: 11.10  60: 10.32  61: 10.22  62:  1.57  63:  6.70  64:  9.81
  65: 10.20  66: 11.89  67:  7.54  68:  3.20  69:  3.42  70:  2.70  71:  9.30  72:  2.35
  73:  7.19  74:  8.13  75:  5.20  76:  4.95  77:  4.94  78:  8.75  79:  7.59  80:  8.91
  81:  7.78  82:  6.06  83:  8.84  84:  7.39  85:  4.92  86:  3.72  87:  9.18  88:  9.71
  89:  8.98  90:  8.94  91:  6.43  92:  4.20  93:  7.21  94:  8.47  95:  2.86  96:  5.82
  97:  6.87  98:  8.15  99:  6.24 100:  3.07 101:  4.49 102:  4.22 103:  5.95 104:  6.09
 105:  4.04 106:  3.49 107:  2.48 108:  2.53 109:  2.16 110:  1.74 111:  2.30 112:  2.81
 113:  2.16 114:  2.97 115:  1.93 116:  2.68 117:  2.83 118:  1.68 119:  2.10 120:  1.71
 121:  1.72 122:  8.17 123:  7.84 124:  9.55 125:  9.84 126: 12.31 127: 12.62 128: 12.78
 129: 12.82 130:  1.75 131:  1.68 132:  1.66 133:  1.83 134:  1.75 135:  1.76 136:  1.62
 137:  1.81 138:  1.71 139:  1.81 140:  1.68 141:  1.75 142:  1.70 143:  1.82 144:  1.89
 145:  1.73 146:  1.75 147:  1.69 148:  1.93 149:  1.44 150:  1.45 151:  1.46 152:  1.45
 153:  1.91 154:  1.90 155:  2.00 156:  2.19 157:  2.18 158:  2.18 159:  2.19
 IR intensities (km·mol⁻¹)
   1:  0.75   2:  2.25   3:  0.18   4:  1.26   5:  2.89   6:  1.83   7:  1.21   8:  0.27
   9:  0.72  10:  1.59  11:  1.05  12:  2.32  13:  1.67  14:  2.06  15:  4.18  16:  0.55
  17:  1.74  18:  5.02  19:  5.44  20:  1.85  21:  3.54  22:  6.85  23:  1.60  24: 22.15
  25: 16.16  26:  5.42  27: 11.49  28:  7.23  29:  2.55  30:  8.57  31: 11.67  32:102.28
  33: 20.91  34:118.92  35: 11.78  36:187.37  37:  3.33  38:  2.23  39:  2.93  40:413.95
  41:  2.68  42: 13.05  43: 56.74  44:324.03  45:220.64  46: 32.40  47:  6.36  48:  3.90
  49: 17.79  50:  4.12  51: 21.38  52: 11.66  53:  8.79  54: 12.07  55: 31.63  56: 84.43
  57: 38.47  58: 26.39  59:  9.69  60: 39.35  61:  3.59  62:  3.09  63: 69.66  64:  3.41
  65: 83.45  66: 34.40  67:157.75  68:267.61  69:136.76  70: 41.00  71:  0.58  72:513.35
  73:  2.65  74:  7.52  75:  1.45  76:  0.24  77:  8.33  78:  0.46  79: 20.47  80: 20.94
  81: 21.68  82:  3.97  83:  3.89  84:  6.27  85: 13.54  86:  3.07  87:  2.59  88:  0.60
  89:  0.74  90:  3.43  91:  6.96  92: 18.29  93: 14.72  94: 43.77  95:  8.95  96:  5.22
  97:  7.88  98:  5.48  99:  2.10 100:  4.34 101:143.27 102:  3.53 103: 43.53 104:120.60
 105: 21.26 106:110.96 107: 26.07 108: 20.47 109:  1.62 110:  6.04 111:  8.63 112:  1.35
 113: 15.85 114: 17.67 115: 13.22 116: 16.93 117: 17.06 118: 30.36 119: 27.72 120: 29.29
 121:  9.85 122:170.16 123:812.72 124:506.36 125:586.58 126:403.59 127:****** 128:******
 129:499.45 130: 39.56 131: 30.58 132: 21.41 133:  5.70 134: 61.21 135: 48.69 136:  5.48
 137: 14.51 138: 17.50 139:  1.63 140:  4.80 141:  5.51 142:  5.83 143:773.75 144:571.12
 145:****** 146:565.55 147:136.55 148:406.28 149: 39.73 150: 18.59 151:  6.37 152: 23.75
 153: 12.04 154: 15.03 155: 38.64 156: 14.19 157: 10.80 158: 16.34 159: 17.81
 Raman intensities (amu)
Molecule has no symmetry elements
It seems to be the C1 point group
   1:  0.00   2:  0.00   3:  0.00   4:  0.00   5:  0.00   6:  0.00   7:  0.00   8:  0.00
   9:  0.00  10:  0.00  11:  0.00  12:  0.00  13:  0.00  14:  0.00  15:  0.00  16:  0.00
  17:  0.00  18:  0.00  19:  0.00  20:  0.00  21:  0.00  22:  0.00  23:  0.00  24:  0.00
  25:  0.00  26:  0.00  27:  0.00  28:  0.00  29:  0.00  30:  0.00  31:  0.00  32:  0.00
  33:  0.00  34:  0.00  35:  0.00  36:  0.00  37:  0.00  38:  0.00  39:  0.00  40:  0.00
  41:  0.00  42:  0.00  43:  0.00  44:  0.00  45:  0.00  46:  0.00  47:  0.00  48:  0.00
  49:  0.00  50:  0.00  51:  0.00  52:  0.00  53:  0.00  54:  0.00  55:  0.00  56:  0.00
  57:  0.00  58:  0.00  59:  0.00  60:  0.00  61:  0.00  62:  0.00  63:  0.00  64:  0.00
  65:  0.00  66:  0.00  67:  0.00  68:  0.00  69:  0.00  70:  0.00  71:  0.00  72:  0.00
  73:  0.00  74:  0.00  75:  0.00  76:  0.00  77:  0.00  78:  0.00  79:  0.00  80:  0.00
  81:  0.00  82:  0.00  83:  0.00  84:  0.00  85:  0.00  86:  0.00  87:  0.00  88:  0.00
  89:  0.00  90:  0.00  91:  0.00  92:  0.00  93:  0.00  94:  0.00  95:  0.00  96:  0.00
  97:  0.00  98:  0.00  99:  0.00 100:  0.00 101:  0.00 102:  0.00 103:  0.00 104:  0.00
 105:  0.00 106:  0.00 107:  0.00 108:  0.00 109:  0.00 110:  0.00 111:  0.00 112:  0.00
 113:  0.00 114:  0.00 115:  0.00 116:  0.00 117:  0.00 118:  0.00 119:  0.00 120:  0.00
 121:  0.00 122:  0.00 123:  0.00 124:  0.00 125:  0.00 126:  0.00 127:  0.00 128:  0.00
 129:  0.00 130:  0.00 131:  0.00 132:  0.00 133:  0.00 134:  0.00 135:  0.00 136:  0.00
 137:  0.00 138:  0.00 139:  0.00 140:  0.00 141:  0.00 142:  0.00 143:  0.00 144:  0.00
 145:  0.00 146:  0.00 147:  0.00 148:  0.00 149:  0.00 150:  0.00 151:  0.00 152:  0.00
 153:  0.00 154:  0.00 155:  0.00 156:  0.00 157:  0.00 158:  0.00 159:  0.00
 output can be read by thermo (or use thermo option).
 writing <g98.out> molden fake output.
 recommended (thermochemical) frequency scaling factor: 1.0
           -------------------------------------------------
          |             Thermodynamic Functions             |
           -------------------------------------------------

c1  symmetry found (for desy threshold:  0.10E+00) used in thermo

          ...................................................
          :                      SETUP                      :
          :.................................................:
          :  # frequencies                         153      :
          :  # imaginary freq.                       0      :
          :  linear?                             false      :
          :  only rotor calc.                    false      :
          :  symmetry                               c1      :
          :  rotational number                       1      :
          :  scaling factor                  1.0000000      :
          :  rotor cutoff                   50.0000000 cm⁻¹ :
          :  imag. cutoff                  -20.0000000 cm⁻¹ :
          :.................................................:

    mode    ω/cm⁻¹     T·S(HO)/kcal·mol⁻¹    T·S(FR)/kcal·mol⁻¹   T·S(vib)
   ------------------------------------------------------------------------
       1     12.27    -2.26751 (  0.36%)    -1.47271 ( 99.64%)    -1.47558
       2     12.87    -2.23884 (  0.44%)    -1.45838 ( 99.56%)    -1.46180
       3     14.88    -2.15296 (  0.78%)    -1.41544 ( 99.22%)    -1.42118
       4     20.53    -1.96261 (  2.76%)    -1.32023 ( 97.24%)    -1.33798
       5     28.03    -1.77831 (  8.98%)    -1.22800 ( 91.02%)    -1.27744
       6     36.08    -1.62901 ( 21.32%)    -1.15321 ( 78.68%)    -1.25466
       7     40.29    -1.56371 ( 29.66%)    -1.12047 ( 70.34%)    -1.25193
       8     51.89    -1.41441 ( 53.71%)    -1.04552 ( 46.29%)    -1.24364
       9     53.64    -1.39489 ( 56.98%)    -1.03571 ( 43.02%)    -1.24037
      10     58.81    -1.34065 ( 65.69%)    -1.00843 ( 34.31%)    -1.22666
      11     64.74    -1.28416 ( 73.76%)    -0.97997 ( 26.24%)    -1.20435
      12     69.47    -1.24274 ( 78.85%)    -0.95908 ( 21.15%)    -1.18274
      13     75.35    -1.19515 ( 83.76%)    -0.93505 ( 16.24%)    -1.15291
      14     82.67    -1.14085 ( 88.20%)    -0.90757 ( 11.80%)    -1.11332
      15     90.30    -1.08928 ( 91.41%)    -0.88141 (  8.59%)    -1.07142
      16    101.18    -1.02311 ( 94.37%)    -0.84773 (  5.63%)    -1.01323
      17    105.45    -0.99911 ( 95.19%)    -0.83548 (  4.81%)    -0.99124
      18    108.12    -0.98458 ( 95.63%)    -0.82806 (  4.37%)    -0.97774
      19    116.07    -0.94359 ( 96.67%)    -0.80706 (  3.33%)    -0.93905
      20    131.66    -0.87109 ( 97.96%)    -0.76972 (  2.04%)    -0.86903
      21    141.89    -0.82834 ( 98.48%)    -0.74756 (  1.52%)    -0.82711
      22    149.98    -0.79681 ( 98.78%)    -0.73113 (  1.22%)    -0.79601
      23    167.16    -0.73560 ( 99.21%)    -0.69901 (  0.79%)    -0.73531
      24    185.84    -0.67648 ( 99.48%)    -0.66762 (  0.52%)    -0.67643
      25    197.75    -0.64218 ( 99.59%)    -0.64921 (  0.41%)    -0.64221
      26    205.79    -0.62037 ( 99.65%)    -0.63742 (  0.35%)    -0.62043
      27    219.25    -0.58594 ( 99.73%)    -0.61864 (  0.27%)    -0.58603
      28    229.93    -0.56037 ( 99.78%)    -0.60455 (  0.22%)    -0.56047
      29    255.80    -0.50395 ( 99.85%)    -0.57297 (  0.15%)    -0.50405
      30    263.25    -0.48900 ( 99.87%)    -0.56446 (  0.13%)    -0.48910
      31    298.13    -0.42558 ( 99.92%)    -0.52761 (  0.08%)    -0.42566
   ------------------------------------------------------------------------

   temp. (K)  partition function   enthalpy   heat capacity  entropy
                                   cal/mol     cal/K/mol   cal/K/mol   J/K/mol
 298.15  VIB  0.213E+18            19399.165    103.824    128.223
         ROT  0.155E+08              888.752      2.981     35.885
         INT  0.331E+25            20287.917    106.805    164.107
         TR   0.618E+28             1481.254      4.968     43.384
         TOT                       21769.1713   111.7731   207.4916   868.1450

       T/K    H(0)-H(T)+PV         H(T)/Eh          T*S/Eh         G(T)/Eh
   ------------------------------------------------------------------------
    298.15    0.346914E-01    0.474034E+00    0.985860E-01    0.375448E+00
   ------------------------------------------------------------------------

         :::::::::::::::::::::::::::::::::::::::::::::::::::::
         ::                  THERMODYNAMIC                  ::
         :::::::::::::::::::::::::::::::::::::::::::::::::::::
         :: total free energy         -80.558342761187 Eh   ::
         ::.................................................::
         :: total energy              -80.933790309212 Eh   ::
         :: zero point energy           0.439342135755 Eh   ::
         :: G(RRHO) w/o ZPVE           -0.063894587730 Eh   ::
         :: G(RRHO) contrib.            0.375447548024 Eh   ::
         :::::::::::::::::::::::::::::::::::::::::::::::::::::

           -------------------------------------------------
          | TOTAL ENERGY              -80.933790309212 Eh   |
          | TOTAL ENTHALPY            -80.459756790783 Eh   |
          | TOTAL FREE ENERGY         -80.558342761187 Eh   |
          | GRADIENT NORM               0.000043195193 Eh/α |
          | HOMO-LUMO GAP               5.666011912684 eV   |
           -------------------------------------------------

------------------------------------------------------------------------
 * finished run on 2024/01/10 at 15:38:07.542     
------------------------------------------------------------------------
 total:
 * wall-time:     0 d,  0 h,  0 min, 14.366 sec
 *  cpu-time:     0 d,  0 h,  0 min, 14.264 sec
 * ratio c/w:     0.993 speedup
 SCF:
 * wall-time:     0 d,  0 h,  0 min,  0.092 sec
 *  cpu-time:     0 d,  0 h,  0 min,  0.058 sec
 * ratio c/w:     0.627 speedup
 analytical hessian:
 * wall-time:     0 d,  0 h,  0 min, 14.247 sec
 *  cpu-time:     0 d,  0 h,  0 min, 14.179 sec
 * ratio c/w:     0.995 speedup

