      -----------------------------------------------------------      
     |                   =====================                   |     
     |                           x T B                           |     
     |                   =====================                   |     
     |                         S. Grimme                         |     
     |          Mulliken Center for Theoretical Chemistry        |     
     |                    University of Bonn                     |     
      -----------------------------------------------------------      

   * xtb version 6.6.1 (unknown-commit) compiled by '@Linux' on 12/27/2023

   xtb is free software: you can redistribute it and/or modify it under
   the terms of the GNU Lesser General Public License as published by
   the Free Software Foundation, either version 3 of the License, or
   (at your option) any later version.
   
   xtb is distributed in the hope that it will be useful,
   but WITHOUT ANY WARRANTY; without even the implied warranty of
   MERCHANTABILITY or FITNESS FOR A PARTICULAR PURPOSE.  See the
   GNU Lesser General Public License for more details.
   
   Cite this work as:
   * C. Bannwarth, E. Caldeweyher, S. Ehlert, A. Hansen, P. Pracht,
     J. Seibert, S. Spicher, S. Grimme, WIREs Comput. Mol. Sci., 2020, 11,
     e01493. DOI: 10.1002/wcms.1493
   
   for GFN2-xTB:
   * C. Bannwarth, S. Ehlert and S. Grimme., J. Chem. Theory Comput., 2019,
     15, 1652-1671. DOI: 10.1021/acs.jctc.8b01176
   for GFN1-xTB:
   * S. Grimme, C. Bannwarth, P. Shushkov, J. Chem. Theory Comput., 2017,
     13, 1989-2009. DOI: 10.1021/acs.jctc.7b00118
   for GFN0-xTB:
   * P. Pracht, E. Caldeweyher, S. Ehlert, S. Grimme, ChemRxiv, 2019, preprint.
     DOI: 10.26434/chemrxiv.8326202.v1
   for GFN-FF:
   * S. Spicher and S. Grimme, Angew. Chem. Int. Ed., 2020, 59, 15665-15673.
     DOI: 10.1002/anie.202004239
   
   for ALPB and GBSA implicit solvation:
   * S. Ehlert, M. Stahn, S. Spicher, S. Grimme, J. Chem. Theory Comput.,
     2021, 17, 4250-4261. DOI: 10.1021/acs.jctc.1c00471
   
   for DFT-D4:
   * E. Caldeweyher, C. Bannwarth and S. Grimme, J. Chem. Phys., 2017,
     147, 034112. DOI: 10.1063/1.4993215
   * E. Caldeweyher, S. Ehlert, A. Hansen, H. Neugebauer, S. Spicher,
     C. Bannwarth and S. Grimme, J. Chem. Phys., 2019, 150, 154122.
     DOI: 10.1063/1.5090222
   * E. Caldeweyher, J.-M. Mewes, S. Ehlert and S. Grimme, Phys. Chem. Chem. Phys.
     2020, 22, 8499-8512. DOI: 10.1039/D0CP00502A
   
   for sTDA-xTB:
   * S. Grimme and C. Bannwarth, J. Chem. Phys., 2016, 145, 054103.
     DOI: 10.1063/1.4959605
   
   in the mass-spec context:
   * V. Asgeirsson, C. Bauer and S. Grimme, Chem. Sci., 2017, 8, 4879.
     DOI: 10.1039/c7sc00601b
   * J. Koopman and S. Grimme, ACS Omega 2019, 4, 12, 15120-15133.
     DOI: 10.1021/acsomega.9b02011
   
   for metadynamics refer to:
   * S. Grimme, J. Chem. Theory Comput., 2019, 155, 2847-2862
     DOI: 10.1021/acs.jctc.9b00143
   
   for SPH calculations refer to:
   * S. Spicher and S. Grimme, J. Chem. Theory Comput., 2021, 17, 1701-1714
     DOI: 10.1021/acs.jctc.0c01306
   
   with help from (in alphabetical order)
   P. Atkinson, C. Bannwarth, F. Bohle, G. Brandenburg, E. Caldeweyher
   M. Checinski, S. Dohm, S. Ehlert, S. Ehrlich, I. Gerasimov, C. Hölzer
   A. Katbashev, J. Koopman, C. Lavigne, S. Lehtola, F. März, M. Müller,
   F. Musil, H. Neugebauer, J. Pisarek, C. Plett, P. Pracht, F. Pultar,
   J. Seibert, P. Shushkov, S. Spicher, M. Stahn, M. Steiner, T. Strunk,
   J. Stückrath, T. Rose, and J. Unsleber
   
 * started run on 2024/01/10 at 18:27:25.121     

           -------------------------------------------------
          |                Calculation Setup                |
           -------------------------------------------------

          program call               : xtb struc.xyz --gfn2 --hess
          hostname                   : swaroop
          coordinate file            : struc.xyz
          omp threads                :                     1

   ID    Z sym.   atoms
    1    8 O      1, 23, 31, 39, 47
    2    6 C      2, 5, 9, 13, 17, 22, 30, 38, 46
    3    1 H      3, 4, 6, 7, 10-12, 14-16, 18-21, 25, 26, 28, 29, 33, 34,
                  36, 37, 41, 42, 44, 45, 49, 50, 52, 53
    4    7 N      8, 24, 27, 32, 35, 40, 43, 48, 51

molecular fragmentation (1/2 indicates fragments):
11111111111111111111122222222222222222222222222222222
# atoms in fragment 1/2:    21    32
 fragment masses (1/2) :      104.17      240.22
CMA distance (Bohr)    :  10.055
constraining FC (au)   :  0.0500

           -------------------------------------------------
          |                 G F N 2 - x T B                 |
           -------------------------------------------------

        Reference                      10.1021/acs.jctc.8b01176
      * Hamiltonian:
        H0-scaling (s, p, d)           1.850000    2.230000    2.230000
        zeta-weighting                 0.500000
      * Dispersion:
        s8                             2.700000
        a1                             0.520000
        a2                             5.000000
        s9                             5.000000
      * Repulsion:
        kExp                           1.500000    1.000000
        rExp                           1.000000
      * Coulomb:
        alpha                          2.000000
        third order                    shell-resolved
        anisotropic                    true
        a3                             3.000000
        a5                             4.000000
        cn-shift                       1.200000
        cn-exp                         4.000000
        max-rad                        5.000000


          ...................................................
          :                      SETUP                      :
          :.................................................:
          :  # basis functions                 122          :
          :  # atomic orbitals                 122          :
          :  # shells                           76          :
          :  # electrons                       140          :
          :  max. iterations                   250          :
          :  Hamiltonian                  GFN2-xTB          :
          :  restarted?                      false          :
          :  GBSA solvation                  false          :
          :  PC potential                    false          :
          :  electronic temp.          300.0000000     K    :
          :  accuracy                    1.0000000          :
          :  -> integral cutoff          0.2500000E+02      :
          :  -> integral neglect         0.1000000E-07      :
          :  -> SCF convergence          0.1000000E-05 Eh   :
          :  -> wf. convergence          0.1000000E-03 e    :
          :  Broyden damping             0.4000000          :
          ...................................................

 iter      E             dE          RMSdq      gap      omega  full diag
   1    -81.5571921 -0.815572E+02  0.428E+00    5.01       0.0  T
   2    -81.8357899 -0.278598E+00  0.233E+00    6.02       1.0  T
   3    -81.8416185 -0.582860E-02  0.114E+00    5.70       1.0  T
   4    -81.8430353 -0.141676E-02  0.249E-01    5.78       1.0  T
   5    -81.8440044 -0.969160E-03  0.915E-02    5.70       1.0  T
   6    -81.8440290 -0.245971E-04  0.267E-02    5.72       1.0  T
   7    -81.8440333 -0.427790E-05  0.795E-03    5.72       1.7  T
   8    -81.8440336 -0.305783E-06  0.293E-03    5.72       4.7  T
   9    -81.8440337 -0.315729E-07  0.105E-03    5.72      13.1  T
  10    -81.8440337 -0.683355E-08  0.250E-04    5.72      55.0  T
  11    -81.8440337 -0.786258E-09  0.984E-05    5.72     139.6  T

   *** convergence criteria satisfied after 11 iterations ***

         #    Occupation            Energy/Eh            Energy/eV
      -------------------------------------------------------------
         1        2.0000           -0.8048991             -21.9024
       ...           ...                  ...                  ...
        64        2.0000           -0.4962347             -13.5032
        65        2.0000           -0.4919139             -13.3857
        66        2.0000           -0.4902806             -13.3412
        67        2.0000           -0.4881723             -13.2838
        68        2.0000           -0.4876541             -13.2697
        69        2.0000           -0.4829540             -13.1418
        70        2.0000           -0.4800164             -13.0619 (HOMO)
        71                         -0.2699865              -7.3467 (LUMO)
        72                         -0.2637145              -7.1760
        73                         -0.2616441              -7.1197
        74                         -0.2558711              -6.9626
        75                         -0.1615675              -4.3965
       ...                                ...                  ...
       122                          0.5550538              15.1038
      -------------------------------------------------------------
                  HL-Gap            0.2100298 Eh            5.7152 eV
             Fermi-level           -0.3750015 Eh          -10.2043 eV

 SCC (total)                   0 d,  0 h,  0 min,  0.098 sec
 SCC setup                      ...        0 min,  0.000 sec (  0.293%)
 Dispersion                     ...        0 min,  0.001 sec (  0.596%)
 classical contributions        ...        0 min,  0.000 sec (  0.184%)
 integral evaluation            ...        0 min,  0.008 sec (  7.985%)
 iterations                     ...        0 min,  0.062 sec ( 62.611%)
 molecular gradient             ...        0 min,  0.028 sec ( 28.034%)
 printout                       ...        0 min,  0.000 sec (  0.286%)

         :::::::::::::::::::::::::::::::::::::::::::::::::::::
         ::                     SUMMARY                     ::
         :::::::::::::::::::::::::::::::::::::::::::::::::::::
         :: total energy             -80.934581044544 Eh    ::
         :: gradient norm              0.000044861689 Eh/a0 ::
         :: HOMO-LUMO gap              5.715203096406 eV    ::
         ::.................................................::
         :: SCC energy               -81.844033660576 Eh    ::
         :: -> isotropic ES            0.295848374015 Eh    ::
         :: -> anisotropic ES         -0.030165928506 Eh    ::
         :: -> anisotropic XC          0.020301178950 Eh    ::
         :: -> dispersion             -0.046160755134 Eh    ::
         :: repulsion energy           0.908311163402 Eh    ::
         :: add. restraining           0.000000000000 Eh    ::
         :: total charge               1.000000000000 e     ::
         :::::::::::::::::::::::::::::::::::::::::::::::::::::

           ------------------------------------------------- 
          |                Numerical Hessian                |
           ------------------------------------------------- 
step length          :   0.00500
SCC accuracy         :   0.30000
Hessian scale factor :   1.00000
frozen atoms in %    :   0.00000    0
RMS gradient         :   0.00004
estimated CPU  time      0.24 min
estimated wall time      0.24 min

writing file <hessian>.

 projected vibrational frequencies (cm⁻¹)
eigval :       -0.00    -0.00     0.00     0.00     0.00     0.00
eigval :       17.04    24.89    31.75    39.16    41.49    46.53
eigval :       48.94    52.19    53.92    56.30    59.88    66.15
eigval :       70.88    84.36    95.81   101.93   122.51   126.63
eigval :      131.80   141.17   150.10   169.88   172.27   192.74
eigval :      193.05   206.43   220.21   263.26   284.86   297.35
eigval :      303.25   321.72   354.52   363.09   375.41   382.07
eigval :      396.53   417.82   422.27   435.24   455.19   457.41
eigval :      467.86   469.16   471.18   475.85   480.57   483.21
eigval :      490.62   504.63   515.71   551.31   556.00   558.32
eigval :      561.63   578.44   641.05   662.67   671.71   678.51
eigval :      685.79   703.49   724.98   752.43   769.84   788.99
eigval :      879.48   927.60   963.24   969.24   992.29   995.27
eigval :     1002.40  1010.30  1013.98  1020.59  1023.35  1028.41
eigval :     1037.32  1042.85  1053.92  1086.89  1087.84  1096.01
eigval :     1099.02  1112.92  1117.97  1136.53  1187.10  1209.27
eigval :     1247.36  1259.42  1281.14  1311.16  1349.25  1353.18
eigval :     1355.79  1371.49  1375.11  1393.83  1400.32  1403.06
eigval :     1426.06  1432.90  1437.11  1446.87  1450.59  1451.42
eigval :     1454.78  1459.53  1467.38  1470.18  1474.28  1475.81
eigval :     1494.11  1501.74  1511.47  1519.65  1524.95  1642.77
eigval :     1669.92  1697.00  1712.83  2876.99  2928.84  2994.46
eigval :     2998.68  3008.27  3032.86  3037.94  3041.78  3044.83
eigval :     3049.75  3056.72  3071.91  3081.06  3127.92  3180.47
eigval :     3234.02  3286.46  3323.71  3481.35  3497.65  3501.48
eigval :     3515.81  3529.70  3535.99  3536.54  3540.65  3549.72
eigval :     3562.06  3568.88  3573.48
           -------------------------------------------------
          |                Property Printout                |
           -------------------------------------------------

    * Orbital Energies and Occupations

         #    Occupation            Energy/Eh            Energy/eV
      -------------------------------------------------------------
         1        2.0000           -0.8048989             -21.9024
       ...           ...                  ...                  ...
        58        2.0000           -0.5243462             -14.2682
        59        2.0000           -0.5072201             -13.8022
        60        2.0000           -0.5014891             -13.6462
        61        2.0000           -0.5010410             -13.6340
        62        2.0000           -0.4987751             -13.5724
        63        2.0000           -0.4970831             -13.5263
        64        2.0000           -0.4962354             -13.5033
        65        2.0000           -0.4919147             -13.3857
        66        2.0000           -0.4902812             -13.3412
        67        2.0000           -0.4881728             -13.2839
        68        2.0000           -0.4876547             -13.2698
        69        2.0000           -0.4829548             -13.1419
        70        2.0000           -0.4800173             -13.0619 (HOMO)
        71                         -0.2699870              -7.3467 (LUMO)
        72                         -0.2637148              -7.1760
        73                         -0.2616449              -7.1197
        74                         -0.2558716              -6.9626
        75                         -0.1615675              -4.3965
        76                         -0.1032622              -2.8099
        77                         -0.0939448              -2.5564
        78                         -0.0851295              -2.3165
        79                         -0.0832187              -2.2645
        80                         -0.0775047              -2.1090
        81                         -0.0672340              -1.8295
       ...                                ...                  ...
       122                          0.5550534              15.1038
      -------------------------------------------------------------
                  HL-Gap            0.2100302 Eh            5.7152 eV
             Fermi-level           -0.3750022 Eh          -10.2043 eV

     #   Z          covCN         q      C6AA      α(0)
     1   8 O        1.655    -0.437    21.587     6.272
     2   6 C        3.672     0.074    19.569     6.340
     3   1 H        0.923     0.041     2.435     2.440
     4   1 H        0.924     0.053     2.280     2.361
     5   6 C        3.765    -0.053    21.560     6.618
     6   1 H        0.924     0.130     1.537     1.939
     7   1 H        0.924     0.080     1.976     2.198
     8   7 N        3.623     0.161    18.530     6.393
     9   6 C        3.731    -0.127    23.030     6.850
    10   1 H        0.925     0.122     1.599     1.978
    11   1 H        0.925     0.110     1.699     2.038
    12   1 H        0.925     0.114     1.659     2.014
    13   6 C        3.736    -0.124    22.967     6.839
    14   1 H        0.924     0.126     1.566     1.957
    15   1 H        0.925     0.072     2.064     2.246
    16   1 H        0.925     0.121     1.603     1.980
    17   6 C        3.722    -0.101    22.546     6.781
    18   1 H        0.925     0.080     1.976     2.199
    19   1 H        0.925     0.100     1.788     2.091
    20   1 H        0.925     0.111     1.686     2.031
    21   1 H        0.805     0.304     0.708     1.321
    22   6 C        2.675     0.342    21.192     7.533
    23   8 O        0.861    -0.529    24.430     6.627
    24   7 N        2.643    -0.308    27.925     7.848
    25   1 H        0.859     0.243     0.912     1.496
    26   1 H        0.861     0.176     1.234     1.740
    27   7 N        2.645    -0.285    27.348     7.767
    28   1 H        0.861     0.185     1.188     1.707
    29   1 H        0.860     0.204     1.086     1.632
    30   6 C        2.675     0.341    21.212     7.536
    31   8 O        0.860    -0.542    24.744     6.669
    32   7 N        2.644    -0.308    27.923     7.848
    33   1 H        0.859     0.246     0.899     1.485
    34   1 H        0.861     0.177     1.229     1.737
    35   7 N        2.645    -0.292    27.528     7.792
    36   1 H        0.861     0.183     1.194     1.712
    37   1 H        0.860     0.199     1.114     1.653
    38   6 C        2.675     0.340    21.221     7.538
    39   8 O        0.860    -0.536    24.590     6.649
    40   7 N        2.644    -0.308    27.935     7.850
    41   1 H        0.860     0.240     0.922     1.504
    42   1 H        0.860     0.179     1.221     1.731
    43   7 N        2.645    -0.310    27.987     7.857
    44   1 H        0.861     0.177     1.234     1.740
    45   1 H        0.860     0.234     0.949     1.526
    46   6 C        2.675     0.342    21.190     7.533
    47   8 O        0.859    -0.540    24.679     6.661
    48   7 N        2.647    -0.300    27.726     7.820
    49   1 H        0.860     0.193     1.144     1.676
    50   1 H        0.860     0.197     1.123     1.660
    51   7 N        2.646    -0.313    28.051     7.866
    52   1 H        0.860     0.225     0.989     1.558
    53   1 H        0.860     0.190     1.161     1.688

 Mol. C6AA /au·bohr⁶  :      21789.009653
 Mol. C8AA /au·bohr⁸  :     454348.079742
 Mol. α(0) /au        :        220.527043


Wiberg/Mayer (AO) data.
largest (>0.10) Wiberg bond orders for each atom

 ---------------------------------------------------------------------------
     #   Z sym  total        # sym  WBO       # sym  WBO       # sym  WBO
 ---------------------------------------------------------------------------
     1   8 O    1.959 --     2 C    1.002    21 H    0.891
     2   6 C    3.960 --     5 C    1.005     1 O    1.002     4 H    0.967
                             3 H    0.966
     3   1 H    0.998 --     2 C    0.966
     4   1 H    0.997 --     2 C    0.967
     5   6 C    3.941 --     2 C    1.005     7 H    0.968     6 H    0.955
                             8 N    0.943
     6   1 H    0.983 --     5 C    0.955
     7   1 H    0.994 --     5 C    0.968
     8   7 N    3.823 --    17 C    0.963    13 C    0.951     9 C    0.949
                             5 C    0.943
     9   6 C    3.908 --    11 H    0.969    12 H    0.966    10 H    0.961
                             8 N    0.949
    10   1 H    0.985 --     9 C    0.961
    11   1 H    0.988 --     9 C    0.969
    12   1 H    0.987 --     9 C    0.966
    13   6 C    3.910 --    15 H    0.980    16 H    0.956     8 N    0.951
                            14 H    0.950
    14   1 H    0.984 --    13 C    0.950
    15   1 H    0.995 --    13 C    0.980
    16   1 H    0.985 --    13 C    0.956
    17   6 C    3.934 --    18 H    0.979    19 H    0.974    20 H    0.969
                             8 N    0.963
    18   1 H    0.994 --    17 C    0.979
    19   1 H    0.990 --    17 C    0.974
    20   1 H    0.988 --    17 C    0.969
    21   1 H    0.907 --     1 O    0.891
    22   6 C    3.960 --    23 O    1.474    24 N    1.255    27 N    1.219
    23   8 O    1.910 --    22 C    1.474    24 N    0.141    27 N    0.129
    24   7 N    3.340 --    22 C    1.255    26 H    0.949    25 H    0.870
                            23 O    0.141
    25   1 H    0.941 --    24 N    0.870
    26   1 H    0.969 --    24 N    0.949
    27   7 N    3.334 --    22 C    1.219    28 H    0.947    29 H    0.941
                            23 O    0.129
    28   1 H    0.965 --    27 N    0.947
    29   1 H    0.958 --    27 N    0.941
    30   6 C    3.959 --    31 O    1.479    32 N    1.266    35 N    1.204
    31   8 O    1.883 --    30 C    1.479    32 N    0.146    35 N    0.128
    32   7 N    3.349 --    30 C    1.266    34 H    0.949    33 H    0.862
                            31 O    0.146
    33   1 H    0.939 --    32 N    0.862
    34   1 H    0.968 --    32 N    0.949
    35   7 N    3.317 --    30 C    1.204    36 H    0.947    37 H    0.943
                            31 O    0.128
    36   1 H    0.966 --    35 N    0.947
    37   1 H    0.960 --    35 N    0.943
    38   6 C    3.960 --    39 O    1.456    40 N    1.253    43 N    1.242
    39   8 O    1.922 --    38 C    1.456    40 N    0.132    43 N    0.131
    40   7 N    3.335 --    38 C    1.253    42 H    0.948    41 H    0.872
                            39 O    0.132
    41   1 H    0.942 --    40 N    0.872
    42   1 H    0.968 --    40 N    0.948
    43   7 N    3.332 --    38 C    1.242    44 H    0.949    45 H    0.881
                            39 O    0.131
    44   1 H    0.968 --    43 N    0.949
    45   1 H    0.945 --    43 N    0.881
    46   6 C    3.959 --    47 O    1.520    51 N    1.231    48 N    1.198
    47   8 O    1.882 --    46 C    1.520    51 N    0.143    48 N    0.135
    48   7 N    3.306 --    46 C    1.198    49 H    0.945    50 H    0.942
                            47 O    0.135
    49   1 H    0.963 --    48 N    0.945
    50   1 H    0.961 --    48 N    0.942
    51   7 N    3.317 --    46 C    1.231    53 H    0.942    52 H    0.889
                            47 O    0.143
    52   1 H    0.949 --    51 N    0.889
    53   1 H    0.964 --    51 N    0.942
 ---------------------------------------------------------------------------

Topologies differ in total number of bonds
Writing topology from bond orders to xtbtopo.mol

molecular dipole:
                 x           y           z       tot (Debye)
 q only:        0.268       0.328       2.114
   full:        0.637       0.445       1.773       4.921
molecular quadrupole (traceless):
                xx          xy          yy          xz          yz          zz
 q only:        0.797       8.803     -30.712     -29.390      10.358      29.915
  q+dip:        2.600      14.251     -34.419     -33.424      12.655      31.819
   full:        2.656      13.828     -33.790     -33.652      11.634      31.134

           -------------------------------------------------
          |               Frequency Printout                |
           -------------------------------------------------
 projected vibrational frequencies (cm⁻¹)
eigval :       -0.00    -0.00     0.00     0.00     0.00     0.00
eigval :       17.04    24.89    31.75    39.16    41.49    46.53
eigval :       48.94    52.19    53.92    56.30    59.88    66.15
eigval :       70.88    84.36    95.81   101.93   122.51   126.63
eigval :      131.80   141.17   150.10   169.88   172.27   192.74
eigval :      193.05   206.43   220.21   263.26   284.86   297.35
eigval :      303.25   321.72   354.52   363.09   375.41   382.07
eigval :      396.53   417.82   422.27   435.24   455.19   457.41
eigval :      467.86   469.16   471.18   475.85   480.57   483.21
eigval :      490.62   504.63   515.71   551.31   556.00   558.32
eigval :      561.63   578.44   641.05   662.67   671.71   678.51
eigval :      685.79   703.49   724.98   752.43   769.84   788.99
eigval :      879.48   927.60   963.24   969.24   992.29   995.27
eigval :     1002.40  1010.30  1013.98  1020.59  1023.35  1028.41
eigval :     1037.32  1042.85  1053.92  1086.89  1087.84  1096.01
eigval :     1099.02  1112.92  1117.97  1136.53  1187.10  1209.27
eigval :     1247.36  1259.42  1281.14  1311.16  1349.25  1353.18
eigval :     1355.79  1371.49  1375.11  1393.83  1400.32  1403.06
eigval :     1426.06  1432.90  1437.11  1446.87  1450.59  1451.42
eigval :     1454.78  1459.53  1467.38  1470.18  1474.28  1475.81
eigval :     1494.11  1501.74  1511.47  1519.65  1524.95  1642.77
eigval :     1669.92  1697.00  1712.83  2876.99  2928.84  2994.46
eigval :     2998.68  3008.27  3032.86  3037.94  3041.78  3044.83
eigval :     3049.75  3056.72  3071.91  3081.06  3127.92  3180.47
eigval :     3234.02  3286.46  3323.71  3481.35  3497.65  3501.48
eigval :     3515.81  3529.70  3535.99  3536.54  3540.65  3549.72
eigval :     3562.06  3568.88  3573.48
 reduced masses (amu)
   1: 12.54   2: 12.68   3: 12.59   4: 12.41   5: 12.49   6: 12.62   7: 12.13   8: 11.42
   9: 12.66  10: 12.03  11: 12.25  12: 12.38  13: 12.05  14: 12.24  15: 12.76  16: 12.06
  17: 12.47  18: 11.77  19: 13.19  20: 13.21  21: 13.32  22: 11.26  23: 12.91  24: 13.24
  25: 12.71  26: 13.82  27: 12.30  28: 13.16  29: 12.95  30: 10.95  31: 11.41  32:  2.77
  33: 12.23  34:  7.83  35:  3.08  36:  2.44  37:  6.71  38:  4.47  39:  4.22  40:  2.42
  41:  5.18  42:  2.35  43:  3.45  44:  3.47  45:  8.29  46:  3.30  47:  6.08  48:  5.37
  49:  7.56  50:  5.38  51:  4.08  52:  6.14  53:  6.23  54:  7.17  55:  1.73  56:  5.91
  57:  8.72  58: 10.08  59: 11.58  60: 11.71  61:  8.53  62: 12.13  63:  4.15  64:  9.90
  65: 10.72  66: 11.34  67: 10.46  68:  4.12  69:  2.06  70:  1.95  71:  9.08  72:  2.36
  73:  6.44  74:  8.65  75:  5.10  76:  4.83  77:  4.31  78:  4.85  79:  7.50  80:  7.92
  81:  9.10  82:  9.36  83:  9.31  84:  7.64  85: 10.15  86:  3.38  87:  4.66  88:  8.52
  89:  8.57  90:  7.76  91:  6.43  92:  7.76  93:  5.58  94:  7.94  95:  3.77  96:  2.80
  97:  6.83  98:  4.25  99:  8.12 100:  6.41 101:  4.15 102:  5.18 103:  5.69 104:  4.43
 105:  4.72 106:  4.10 107:  3.05 108:  2.61 109:  2.38 110:  1.95 111:  1.78 112:  3.17
 113:  1.60 114:  3.19 115:  1.98 116:  3.06 117:  2.33 118:  2.83 119:  1.69 120:  1.62
 121:  1.69 122:  7.47 123:  9.40 124:  9.37 125:  9.16 126: 12.17 127: 12.59 128: 12.59
 129: 12.76 130:  1.85 131:  1.57 132:  1.85 133:  1.68 134:  1.72 135:  1.70 136:  1.75
 137:  1.58 138:  1.68 139:  1.90 140:  1.73 141:  1.63 142:  1.90 143:  1.83 144:  1.82
 145:  1.77 146:  1.77 147:  1.75 148:  1.46 149:  1.45 150:  1.44 151:  1.91 152:  1.90
 153:  1.90 154:  1.90 155:  1.92 156:  2.17 157:  2.18 158:  2.19 159:  1.88
 IR intensities (km·mol⁻¹)
   1:  0.77   2:  0.40   3:  2.54   4:  2.88   5:  0.62   6:  1.99   7:  1.39   8:  1.34
   9:  3.25  10:  0.41  11:  1.53  12:  1.78  13:  1.90  14:  1.80  15:  1.45  16:  0.53
  17:  2.91  18:  3.12  19:  1.91  20:  3.01  21: 17.76  22:  0.81  23:  0.72  24: 13.69
  25: 20.26  26:  7.37  27: 15.12  28:  5.79  29:  3.46  30: 14.54  31:  9.26  32:142.32
  33:107.58  34: 31.88  35:124.51  36:131.76  37:  7.07  38:  5.27  39: 16.70  40: 50.96
  41:  2.40  42:  2.73  43: 20.49  44: 34.70  45:  1.38  46:801.14  47: 23.66  48: 90.97
  49:  1.87  50: 38.29  51: 24.05  52:  3.59  53: 10.75  54: 88.72  55: 10.30  56:  5.30
  57: 61.58  58: 55.84  59: 28.92  60:  2.87  61: 21.91  62: 63.39  63:138.20  64: 27.26
  65: 17.95  66:  4.77  67:186.83  68:177.38  69: 28.48  70: 43.34  71:  2.76  72:619.37
  73:  5.51  74:  6.04  75:  7.44  76:  3.34  77:  2.89  78:  2.35  79: 20.17  80: 18.42
  81:  8.87  82:  6.50  83:  4.18  84: 17.67  85:  0.47  86:  2.43  87:  2.61  88:  0.62
  89:  0.12  90:  0.80  91: 38.25  92:  2.24  93:  4.21  94: 35.14  95:  2.77  96: 41.99
  97: 37.04  98: 11.63  99:  7.86 100: 10.73 101:  6.02 102:257.22 103: 96.12 104: 29.88
 105:  9.67 106:  3.48 107: 20.48 108: 10.11 109:  9.14 110:  5.13 111:  1.43 112: 12.50
 113:  0.31 114:  7.72 115:  3.42 116:  6.33 117: 45.10 118: 32.20 119: 29.24 120: 31.50
 121: 10.10 122:320.72 123:902.82 124:  4.40 125:566.29 126:274.49 127:159.42 128:******
 129:700.97 130: 43.09 131: 24.35 132:  9.52 133:  4.35 134: 81.18 135:  1.49 136:  5.37
 137: 24.21 138: 30.87 139: 27.99 140:  1.50 141:  0.62 142:  7.66 143:****** 144:124.26
 145:****** 146:706.46 147:901.52 148: 25.08 149: 19.00 150: 23.44 151: 16.22 152:  9.21
 153:  4.96 154: 21.63 155: 23.60 156: 16.31 157: 13.37 158: 16.56 159: 28.95
 Raman intensities (amu)
Molecule has no symmetry elements
It seems to be the C1 point group
   1:  0.00   2:  0.00   3:  0.00   4:  0.00   5:  0.00   6:  0.00   7:  0.00   8:  0.00
   9:  0.00  10:  0.00  11:  0.00  12:  0.00  13:  0.00  14:  0.00  15:  0.00  16:  0.00
  17:  0.00  18:  0.00  19:  0.00  20:  0.00  21:  0.00  22:  0.00  23:  0.00  24:  0.00
  25:  0.00  26:  0.00  27:  0.00  28:  0.00  29:  0.00  30:  0.00  31:  0.00  32:  0.00
  33:  0.00  34:  0.00  35:  0.00  36:  0.00  37:  0.00  38:  0.00  39:  0.00  40:  0.00
  41:  0.00  42:  0.00  43:  0.00  44:  0.00  45:  0.00  46:  0.00  47:  0.00  48:  0.00
  49:  0.00  50:  0.00  51:  0.00  52:  0.00  53:  0.00  54:  0.00  55:  0.00  56:  0.00
  57:  0.00  58:  0.00  59:  0.00  60:  0.00  61:  0.00  62:  0.00  63:  0.00  64:  0.00
  65:  0.00  66:  0.00  67:  0.00  68:  0.00  69:  0.00  70:  0.00  71:  0.00  72:  0.00
  73:  0.00  74:  0.00  75:  0.00  76:  0.00  77:  0.00  78:  0.00  79:  0.00  80:  0.00
  81:  0.00  82:  0.00  83:  0.00  84:  0.00  85:  0.00  86:  0.00  87:  0.00  88:  0.00
  89:  0.00  90:  0.00  91:  0.00  92:  0.00  93:  0.00  94:  0.00  95:  0.00  96:  0.00
  97:  0.00  98:  0.00  99:  0.00 100:  0.00 101:  0.00 102:  0.00 103:  0.00 104:  0.00
 105:  0.00 106:  0.00 107:  0.00 108:  0.00 109:  0.00 110:  0.00 111:  0.00 112:  0.00
 113:  0.00 114:  0.00 115:  0.00 116:  0.00 117:  0.00 118:  0.00 119:  0.00 120:  0.00
 121:  0.00 122:  0.00 123:  0.00 124:  0.00 125:  0.00 126:  0.00 127:  0.00 128:  0.00
 129:  0.00 130:  0.00 131:  0.00 132:  0.00 133:  0.00 134:  0.00 135:  0.00 136:  0.00
 137:  0.00 138:  0.00 139:  0.00 140:  0.00 141:  0.00 142:  0.00 143:  0.00 144:  0.00
 145:  0.00 146:  0.00 147:  0.00 148:  0.00 149:  0.00 150:  0.00 151:  0.00 152:  0.00
 153:  0.00 154:  0.00 155:  0.00 156:  0.00 157:  0.00 158:  0.00 159:  0.00
 output can be read by thermo (or use thermo option).
 writing <g98.out> molden fake output.
 recommended (thermochemical) frequency scaling factor: 1.0
           -------------------------------------------------
          |             Thermodynamic Functions             |
           -------------------------------------------------

c1  symmetry found (for desy threshold:  0.10E+00) used in thermo

          ...................................................
          :                      SETUP                      :
          :.................................................:
          :  # frequencies                         153      :
          :  # imaginary freq.                       0      :
          :  linear?                             false      :
          :  only rotor calc.                    false      :
          :  symmetry                               c1      :
          :  rotational number                       1      :
          :  scaling factor                  1.0000000      :
          :  rotor cutoff                   50.0000000 cm⁻¹ :
          :  imag. cutoff                  -20.0000000 cm⁻¹ :
          :.................................................:

    mode    ω/cm⁻¹     T·S(HO)/kcal·mol⁻¹    T·S(FR)/kcal·mol⁻¹   T·S(vib)
   ------------------------------------------------------------------------
       1     17.04    -2.07275 (  1.33%)    -1.37533 ( 98.67%)    -1.38461
       2     24.89    -1.84840 (  5.79%)    -1.26308 ( 94.21%)    -1.29697
       3     31.75    -1.70457 ( 13.98%)    -1.19107 ( 86.02%)    -1.26286
       4     39.16    -1.58060 ( 27.33%)    -1.12894 ( 72.67%)    -1.25238
       5     41.49    -1.54639 ( 32.16%)    -1.11178 ( 67.84%)    -1.25157
       6     46.53    -1.47867 ( 42.87%)    -1.07780 ( 57.13%)    -1.24963
       7     48.94    -1.44894 ( 47.86%)    -1.06287 ( 52.14%)    -1.24764
       8     52.19    -1.41099 ( 54.28%)    -1.04380 ( 45.72%)    -1.24312
       9     53.92    -1.39181 ( 57.49%)    -1.03416 ( 42.51%)    -1.23978
      10     56.30    -1.36637 ( 61.65%)    -1.02137 ( 38.35%)    -1.23406
      11     59.88    -1.33008 ( 67.29%)    -1.00311 ( 32.71%)    -1.22313
      12     66.15    -1.27154 ( 75.39%)    -0.97361 ( 24.61%)    -1.19823
      13     70.88    -1.23101 ( 80.15%)    -0.95316 ( 19.85%)    -1.17586
      14     84.36    -1.12900 ( 89.02%)    -0.90156 ( 10.98%)    -1.10402
      15     95.81    -1.05479 ( 93.10%)    -0.86387 (  6.90%)    -1.04161
      16    101.93    -1.01878 ( 94.53%)    -0.84552 (  5.47%)    -1.00930
      17    122.51    -0.91245 ( 97.30%)    -0.79105 (  2.70%)    -0.90917
      18    126.63    -0.89342 ( 97.63%)    -0.78125 (  2.37%)    -0.89076
      19    131.80    -0.87046 ( 97.97%)    -0.76939 (  2.03%)    -0.86841
      20    141.17    -0.83123 ( 98.45%)    -0.74906 (  1.55%)    -0.82996
      21    150.10    -0.79633 ( 98.78%)    -0.73088 (  1.22%)    -0.79554
      22    169.88    -0.72654 ( 99.26%)    -0.69422 (  0.74%)    -0.72630
      23    172.27    -0.71873 ( 99.30%)    -0.69009 (  0.70%)    -0.71852
      24    192.74    -0.65632 ( 99.55%)    -0.65682 (  0.45%)    -0.65632
      25    193.05    -0.65544 ( 99.55%)    -0.65634 (  0.45%)    -0.65544
      26    206.43    -0.61867 ( 99.66%)    -0.63649 (  0.34%)    -0.61873
      27    220.21    -0.58358 ( 99.73%)    -0.61734 (  0.27%)    -0.58367
      28    263.26    -0.48898 ( 99.87%)    -0.56445 (  0.13%)    -0.48908
      29    284.86    -0.44851 ( 99.91%)    -0.54109 (  0.09%)    -0.44859
      30    297.35    -0.42689 ( 99.92%)    -0.52838 (  0.08%)    -0.42697
   ------------------------------------------------------------------------

   temp. (K)  partition function   enthalpy   heat capacity  entropy
                                   cal/mol     cal/K/mol   cal/K/mol   J/K/mol
 298.15  VIB  0.506E+16            19020.628    104.217    123.987
         ROT  0.135E+08              888.752      2.981     35.606
         INT  0.683E+23            19909.381    107.198    159.593
         TR   0.618E+28             1481.254      4.968     43.384
         TOT                       21390.6346   112.1663   202.9773   849.2570

       T/K    H(0)-H(T)+PV         H(T)/Eh          T*S/Eh         G(T)/Eh
   ------------------------------------------------------------------------
    298.15    0.340881E-01    0.474180E+00    0.964411E-01    0.377739E+00
   ------------------------------------------------------------------------

         :::::::::::::::::::::::::::::::::::::::::::::::::::::
         ::                  THERMODYNAMIC                  ::
         :::::::::::::::::::::::::::::::::::::::::::::::::::::
         :: total free energy         -80.556841631949 Eh   ::
         ::.................................................::
         :: total energy              -80.934581044578 Eh   ::
         :: zero point energy           0.440092323325 Eh   ::
         :: G(RRHO) w/o ZPVE           -0.062352910696 Eh   ::
         :: G(RRHO) contrib.            0.377739412629 Eh   ::
         :::::::::::::::::::::::::::::::::::::::::::::::::::::

           -------------------------------------------------
          | TOTAL ENERGY              -80.934581044578 Eh   |
          | TOTAL ENTHALPY            -80.460400575211 Eh   |
          | TOTAL FREE ENERGY         -80.556841631949 Eh   |
          | GRADIENT NORM               0.000044795221 Eh/α |
          | HOMO-LUMO GAP               5.715213523333 eV   |
           -------------------------------------------------

------------------------------------------------------------------------
 * finished run on 2024/01/10 at 18:27:39.575     
------------------------------------------------------------------------
 total:
 * wall-time:     0 d,  0 h,  0 min, 14.454 sec
 *  cpu-time:     0 d,  0 h,  0 min, 14.390 sec
 * ratio c/w:     0.996 speedup
 SCF:
 * wall-time:     0 d,  0 h,  0 min,  0.099 sec
 *  cpu-time:     0 d,  0 h,  0 min,  0.059 sec
 * ratio c/w:     0.596 speedup
 analytical hessian:
 * wall-time:     0 d,  0 h,  0 min, 14.329 sec
 *  cpu-time:     0 d,  0 h,  0 min, 14.305 sec
 * ratio c/w:     0.998 speedup

