 Entering Gaussian System
 *********************************************
 Gaussian 98:
 frequency output generated by the xtb code
 *********************************************
                         Standard orientation:
 --------------------------------------------------------------------
  Center     Atomic     Atomic              Coordinates (Angstroms)
  Number     Number      Type              X           Y           Z
 --------------------------------------------------------------------
    1          8             0        0.260148    1.397975    0.837928
    2          6             0       -0.479796    1.713056   -0.304710
    3          1             0       -0.661123    2.790800   -0.276018
    4          1             0        0.101104    1.501121   -1.213350
    5          6             0       -1.795240    0.935537   -0.452828
    6          1             0       -1.584219   -0.135527   -0.516496
    7          1             0       -2.278141    1.276018   -1.370223
    8          7             0       -2.785354    1.105305    0.647329
    9          6             0       -2.303575    0.451152    1.874305
   10          1             0       -2.158774   -0.608382    1.665508
   11          1             0       -3.036650    0.568907    2.669638
   12          1             0       -1.356143    0.891497    2.177736
   13          6             0       -4.031754    0.449125    0.215643
   14          1             0       -3.819867   -0.596102   -0.003332
   15          1             0       -4.407403    0.951981   -0.673513
   16          1             0       -4.775252    0.508434    1.007679
   17          6             0       -3.058583    2.527039    0.897994
   18          1             0       -3.348733    2.996444   -0.041611
   19          1             0       -2.176171    3.013863    1.305210
   20          1             0       -3.872188    2.622890    1.614608
   21          1             0        0.560815    0.455726    0.753347
   22          6             0        6.999087   -0.865818    1.456107
   23          8             0        5.820811   -0.932089    1.133833
   24          7             0        7.438850   -0.013493    2.413959
   25          1             0        6.757120    0.484661    2.958251
   26          1             0        8.380048   -0.049241    2.760797
   27          7             0        7.949354   -1.640945    0.879288
   28          1             0        8.927256   -1.493643    1.051182
   29          1             0        7.691906   -2.188480    0.077286
   30          6             0       -4.400208    3.023912   -3.168357
   31          8             0       -3.953132    2.594725   -2.114381
   32          7             0       -4.651652    2.216326   -4.227689
   33          1             0       -4.367957    1.254443   -4.175332
   34          1             0       -4.917581    2.581854   -5.123513
   35          7             0       -4.678622    4.336609   -3.355711
   36          1             0       -5.144019    4.669540   -4.179980
   37          1             0       -4.605481    4.959184   -2.571274
   38          6             0       -1.745796   -3.201742    0.118493
   39          8             0       -2.317119   -2.117261    0.119786
   40          7             0       -2.445818   -4.370010    0.135587
   41          1             0       -3.440154   -4.323136    0.000966
   42          1             0       -1.996752   -5.253004   -0.026500
   43          7             0       -0.403665   -3.315728    0.108730
   44          1             0        0.027612   -4.211617    0.247610
   45          1             0        0.165456   -2.478197    0.237030
   46          6             0        2.469791   -1.036367    0.685448
   47          8             0        1.243334   -1.060170    0.498020
   48          7             0        3.249016   -2.117411    0.497647
   49          1             0        2.860553   -2.957040    0.110436
   50          1             0        4.246571   -2.024356    0.618015
   51          7             0        3.109739    0.063303    1.111729
   52          1             0        4.113570    0.033323    1.218115
   53          1             0        2.594924    0.913404    1.262819
 --------------------------------------------------------------------
     1 basis functions        1 primitive gaussians
     1 alpha electrons        1 beta electrons

 Harmonic frequencies (cm**-1), IR intensities (km*mol⁻¹),
 Raman scattering activities (A**4/amu), Raman depolarization ratios,
 reduced masses (AMU), force constants (mDyne/A) and normal coordinates:
                      1                      2                      3
                        a                      a                      a 
 Frequencies --     3.1397                 7.3812                 8.4141
 Red. masses --    11.3557                12.0869                11.0690
 Frc consts  --     0.0000                 0.0000                 0.0000
 IR Inten    --     0.0655                 1.5166                 0.0043
 Raman Activ --     0.0000                 0.0000                 0.0000
 Depolar     --     0.0000                 0.0000                 0.0000
 Atom AN      X      Y      Z        X      Y      Z        X      Y      Z
   1   8    -0.04  -0.02   0.13    -0.10  -0.07   0.27    -0.01   0.00   0.02
   2   6     0.00   0.00   0.10    -0.02  -0.02   0.20    -0.00   0.00   0.01
   3   1     0.00   0.00   0.03    -0.01  -0.01   0.07    -0.00   0.00   0.00
   4   1     0.01   0.00   0.03     0.01   0.01   0.07    -0.00   0.00   0.00
   5   6     0.00   0.01   0.05    -0.00  -0.02   0.09    -0.00   0.01   0.01
   6   1     0.00   0.00   0.01     0.00  -0.00   0.02    -0.00   0.00   0.00
   7   1     0.01   0.00   0.01     0.02   0.00   0.02    -0.00   0.00   0.00
   8   7    -0.04   0.00   0.01    -0.09  -0.06   0.02    -0.01   0.01   0.01
   9   6    -0.08   0.00   0.03    -0.16  -0.08   0.04    -0.01   0.02   0.01
  10   1    -0.02   0.00   0.01    -0.04  -0.02   0.01    -0.00   0.01   0.01
  11   1    -0.03   0.00   0.00    -0.06  -0.03  -0.00    -0.01   0.01   0.00
  12   1    -0.03   0.00   0.02    -0.05  -0.03   0.03    -0.00   0.01   0.00
  13   6    -0.02  -0.00  -0.04    -0.05  -0.05  -0.08    -0.01   0.01   0.00
  14   1    -0.00  -0.00  -0.01    -0.01  -0.01  -0.03    -0.00   0.00   0.00
  15   1     0.00  -0.00  -0.01     0.00  -0.01  -0.03    -0.00  -0.00  -0.00
  16   1    -0.01  -0.00  -0.02    -0.03  -0.02  -0.04    -0.00   0.00  -0.00
  17   6    -0.05   0.00   0.00    -0.11  -0.06   0.04    -0.01   0.01  -0.01
  18   1    -0.00   0.00  -0.00    -0.01  -0.01   0.01    -0.00   0.00  -0.00
  19   1    -0.02   0.00   0.01    -0.04  -0.02   0.03    -0.00   0.01  -0.00
  20   1    -0.02  -0.00  -0.01    -0.05  -0.02  -0.00    -0.01   0.00  -0.00
  21   1    -0.01  -0.01   0.03    -0.02  -0.02   0.06    -0.00   0.00   0.00
  22   6    -0.01   0.03  -0.09    -0.01   0.09  -0.17    -0.00  -0.02  -0.03
  23   8    -0.00   0.03  -0.13    -0.04   0.07  -0.08    -0.00  -0.01  -0.03
  24   7    -0.12  -0.34   0.29     0.10   0.30  -0.41     0.00  -0.05  -0.01
  25   1    -0.05  -0.18   0.14     0.04   0.12  -0.13     0.00  -0.02   0.00
  26   1    -0.03  -0.10   0.07     0.03   0.09  -0.13     0.00  -0.02  -0.01
  27   7     0.09   0.43  -0.45    -0.08  -0.07  -0.08    -0.00  -0.00  -0.07
  28   1     0.02   0.13  -0.10    -0.02  -0.02  -0.05    -0.00  -0.00  -0.02
  29   1     0.04   0.20  -0.19    -0.04  -0.07   0.02    -0.00   0.01  -0.02
  30   6     0.10  -0.02  -0.06     0.21   0.04  -0.05     0.03  -0.00  -0.02
  31   8     0.08  -0.01  -0.04     0.14   0.02  -0.03     0.00  -0.01  -0.01
  32   7     0.07  -0.04  -0.03     0.23   0.05  -0.07     0.62   0.09  -0.23
  33   1     0.00  -0.02   0.00     0.05   0.01  -0.01     0.28   0.06  -0.10
  34   1     0.03  -0.02  -0.01     0.08   0.02  -0.02     0.17   0.04  -0.06
  35   7     0.19  -0.01  -0.11     0.32   0.06  -0.08    -0.52  -0.09   0.17
  36   1     0.06  -0.00  -0.04     0.10   0.02  -0.03    -0.13  -0.04   0.04
  37   1     0.06   0.00  -0.04     0.08   0.01  -0.02    -0.26  -0.06   0.08
  38   6    -0.02  -0.00   0.06    -0.03  -0.04   0.01    -0.01   0.01   0.05
  39   8    -0.02  -0.00   0.04    -0.04  -0.05  -0.03    -0.00   0.01   0.04
  40   7    -0.03  -0.00   0.10    -0.03  -0.04  -0.01    -0.02   0.01   0.07
  41   1    -0.01  -0.00   0.03    -0.01  -0.01  -0.02    -0.01   0.00   0.02
  42   1    -0.01  -0.00   0.03    -0.01  -0.01   0.00    -0.01   0.00   0.02
  43   7    -0.02  -0.01   0.07    -0.03  -0.04   0.08    -0.01  -0.00   0.04
  44   1    -0.01  -0.00   0.03    -0.01  -0.01   0.03    -0.00  -0.00   0.02
  45   1    -0.01  -0.00   0.01    -0.01  -0.01   0.03    -0.00  -0.00   0.01
  46   6    -0.02  -0.01   0.01    -0.05  -0.01   0.08    -0.01  -0.00  -0.01
  47   8    -0.02  -0.01   0.04    -0.07  -0.04   0.17    -0.01   0.00   0.00
  48   7    -0.02   0.01  -0.07    -0.03   0.02   0.02    -0.01  -0.00  -0.02
  49   1    -0.00   0.01  -0.04    -0.01   0.00   0.01    -0.00   0.00  -0.01
  50   1    -0.00   0.00  -0.03    -0.01   0.01  -0.01    -0.00  -0.00  -0.01
  51   7    -0.02  -0.04   0.09    -0.06   0.00   0.07    -0.00  -0.01  -0.00
  52   1    -0.00  -0.01   0.01    -0.01   0.01   0.01    -0.00  -0.00  -0.00
  53   1    -0.01  -0.01   0.04    -0.02  -0.01   0.04     0.00  -0.00   0.00
                      4                      5                      6
                        a                      a                      a 
 Frequencies --    13.7485                17.1753                18.7758
 Red. masses --    11.9968                11.9235                12.0125
 Frc consts  --     0.0000                 0.0000                 0.0000
 IR Inten    --     3.3921                 0.8549                 2.0025
 Raman Activ --     0.0000                 0.0000                 0.0000
 Depolar     --     0.0000                 0.0000                 0.0000
 Atom AN      X      Y      Z        X      Y      Z        X      Y      Z
   1   8     0.09  -0.14  -0.15     0.01  -0.03   0.14    -0.09   0.02  -0.02
   2   6     0.05  -0.13  -0.12    -0.01   0.07   0.15    -0.08  -0.00  -0.02
   3   1     0.03  -0.04  -0.04     0.00   0.02   0.07    -0.04  -0.00  -0.00
   4   1     0.00  -0.05  -0.04    -0.01   0.04   0.04    -0.02   0.01  -0.01
   5   6     0.01  -0.08  -0.04    -0.01   0.08   0.12    -0.05  -0.05  -0.03
   6   1    -0.01  -0.03  -0.01    -0.00   0.02   0.02    -0.00  -0.01  -0.00
   7   1    -0.00  -0.02  -0.01    -0.00   0.03   0.04    -0.01  -0.02  -0.01
   8   7     0.07  -0.01  -0.01    -0.02   0.06   0.12    -0.08  -0.08  -0.05
   9   6     0.08  -0.01  -0.01    -0.02   0.04   0.10    -0.07  -0.04  -0.03
  10   1     0.01  -0.01   0.00    -0.01   0.01   0.03    -0.01  -0.01  -0.00
  11   1     0.03   0.01   0.00    -0.00   0.01   0.03    -0.02  -0.01  -0.01
  12   1     0.03  -0.01  -0.02    -0.00   0.01   0.03    -0.02  -0.00  -0.01
  13   6     0.02   0.04   0.05    -0.01   0.05   0.10    -0.04  -0.13  -0.06
  14   1    -0.01   0.01   0.02    -0.00   0.02   0.02    -0.00  -0.04  -0.01
  15   1     0.00   0.01   0.02    -0.00   0.02   0.03    -0.01  -0.04  -0.02
  16   1     0.01   0.03   0.02    -0.00   0.01   0.03    -0.02  -0.04  -0.02
  17   6     0.14   0.01  -0.03    -0.04   0.05   0.14    -0.13  -0.08  -0.07
  18   1     0.04   0.00  -0.01    -0.01   0.02   0.04    -0.04  -0.03  -0.02
  19   1     0.05  -0.01  -0.02    -0.01   0.01   0.05    -0.05  -0.01  -0.02
  20   1     0.05   0.02   0.00    -0.01   0.01   0.04    -0.04  -0.03  -0.02
  21   1     0.01  -0.04  -0.03     0.00  -0.00   0.01    -0.01   0.01  -0.01
  22   6    -0.04   0.18   0.01    -0.05  -0.01   0.03    -0.02  -0.05   0.03
  23   8    -0.00  -0.04  -0.10     0.01  -0.02  -0.20     0.02   0.09  -0.14
  24   7    -0.29   0.33   0.00    -0.23   0.06   0.06    -0.06  -0.10   0.10
  25   1    -0.12   0.06  -0.02    -0.09   0.03  -0.03    -0.02  -0.00  -0.00
  26   1    -0.09   0.14   0.03    -0.08   0.02   0.06    -0.03  -0.05   0.06
  27   7     0.15   0.34   0.14     0.05  -0.06   0.28    -0.02  -0.16   0.17
  28   1     0.03   0.14   0.06     0.01  -0.02   0.12    -0.01  -0.07   0.08
  29   1     0.09   0.06   0.04     0.05  -0.03   0.07     0.01  -0.03   0.03
  30   6     0.06   0.10   0.04     0.08  -0.12   0.00     0.02   0.11  -0.01
  31   8     0.05   0.03   0.02     0.02   0.02   0.10    -0.06  -0.06  -0.05
  32   7     0.06   0.18  -0.01     0.17  -0.28   0.10    -0.02   0.28  -0.12
  33   1     0.01   0.04  -0.02     0.05  -0.07   0.06    -0.04   0.07  -0.06
  34   1     0.02   0.06   0.00     0.06  -0.11   0.01     0.01   0.11  -0.02
  35   7     0.08   0.12   0.13     0.07  -0.17  -0.19     0.16   0.18   0.14
  36   1     0.02   0.05   0.04     0.03  -0.08  -0.07     0.06   0.09   0.05
  37   1     0.02   0.02   0.05     0.00  -0.02  -0.07     0.05   0.02   0.06
  38   6    -0.11  -0.06   0.06    -0.03   0.06  -0.04     0.09  -0.07   0.19
  39   8    -0.08  -0.04   0.06    -0.02   0.08   0.04     0.06  -0.10   0.11
  40   7    -0.17  -0.04   0.08    -0.04   0.08  -0.01     0.14  -0.10   0.39
  41   1    -0.04   0.00   0.03    -0.01   0.02   0.02     0.04  -0.04   0.11
  42   1    -0.05  -0.01   0.02    -0.02   0.02  -0.02     0.05  -0.03   0.12
  43   7    -0.13  -0.12   0.05    -0.03   0.06  -0.17     0.10  -0.02   0.14
  44   1    -0.04  -0.04   0.01    -0.01   0.01  -0.06     0.04   0.00   0.07
  45   1    -0.02  -0.04   0.01    -0.00   0.01  -0.05     0.02   0.00   0.01
  46   6    -0.01  -0.16  -0.05     0.02   0.00  -0.21     0.03   0.09  -0.16
  47   8    -0.01  -0.19  -0.04     0.02   0.02  -0.21     0.03   0.08  -0.17
  48   7    -0.02  -0.19   0.02     0.02   0.03  -0.38     0.05   0.12  -0.25
  49   1    -0.01  -0.06   0.02     0.00   0.02  -0.13     0.02   0.04  -0.09
  50   1    -0.00  -0.05  -0.00     0.01   0.00  -0.11     0.01   0.04  -0.07
  51   7     0.00  -0.15  -0.13     0.03  -0.05  -0.10     0.01   0.08  -0.10
  52   1     0.00  -0.04  -0.04     0.01  -0.02  -0.03     0.00   0.02  -0.03
  53   1     0.00  -0.03  -0.05     0.01  -0.02   0.00    -0.00   0.01  -0.01
                      7                      8                      9
                        a                      a                      a 
 Frequencies --    25.3996                28.7853                34.2406
 Red. masses --    11.7489                13.0384                12.5830
 Frc consts  --     0.0000                 0.0000                 0.0000
 IR Inten    --     2.3645                 2.3938                 2.4436
 Raman Activ --     0.0000                 0.0000                 0.0000
 Depolar     --     0.0000                 0.0000                 0.0000
 Atom AN      X      Y      Z        X      Y      Z        X      Y      Z
   1   8     0.03  -0.07   0.27     0.01   0.16   0.05     0.03   0.26  -0.19
   2   6     0.14   0.04   0.19     0.04   0.04  -0.01    -0.04   0.14  -0.14
   3   1     0.05   0.01   0.07     0.00   0.01  -0.02    -0.03   0.04  -0.04
   4   1     0.07   0.03   0.07     0.02   0.00   0.01    -0.02   0.05  -0.05
   5   6     0.14   0.07  -0.00     0.07  -0.00  -0.01     0.00   0.05  -0.06
   6   1     0.04   0.02  -0.01     0.03   0.00  -0.00     0.02   0.02  -0.03
   7   1     0.07   0.04  -0.01     0.02  -0.01  -0.00    -0.02   0.01  -0.01
   8   7     0.02   0.04  -0.11     0.06  -0.03  -0.01     0.06  -0.03  -0.00
   9   6    -0.11   0.01  -0.07     0.05  -0.06  -0.02     0.16  -0.05  -0.05
  10   1    -0.02   0.00  -0.02     0.02  -0.01  -0.02     0.06  -0.01  -0.03
  11   1    -0.05  -0.00  -0.04     0.01  -0.03  -0.01     0.06  -0.03  -0.00
  12   1    -0.04  -0.00   0.01     0.01  -0.01   0.00     0.04  -0.00  -0.03
  13   6     0.07   0.04  -0.26     0.06  -0.02  -0.04     0.06  -0.06   0.05
  14   1     0.03   0.01  -0.08     0.02  -0.00  -0.02     0.03  -0.01   0.00
  15   1     0.05   0.02  -0.08     0.02   0.00  -0.01    -0.00  -0.01   0.03
  16   1    -0.00   0.00  -0.10     0.02  -0.01  -0.01     0.03  -0.03   0.03
  17   6    -0.02   0.03  -0.10     0.06  -0.04   0.02     0.02  -0.05   0.06
  18   1     0.02   0.01  -0.03     0.02  -0.00   0.01    -0.02  -0.01   0.03
  19   1    -0.02   0.01   0.00     0.02  -0.01   0.01     0.01  -0.01   0.01
  20   1    -0.03  -0.00  -0.05     0.02  -0.02   0.01     0.02  -0.03   0.03
  21   1     0.01  -0.02   0.05    -0.00   0.04   0.04     0.01   0.07  -0.04
  22   6     0.03  -0.01  -0.02    -0.08  -0.04  -0.10    -0.12  -0.04  -0.06
  23   8     0.06  -0.10  -0.11    -0.01   0.07  -0.47    -0.13  -0.22  -0.04
  24   7    -0.08   0.07  -0.05    -0.29  -0.12   0.05    -0.21   0.07  -0.13
  25   1    -0.04   0.02  -0.03    -0.10  -0.02  -0.03    -0.07   0.01  -0.04
  26   1    -0.03   0.04   0.00    -0.10  -0.05   0.08    -0.05   0.05  -0.04
  27   7     0.11   0.01   0.08     0.00  -0.10   0.12    -0.05   0.04  -0.04
  28   1     0.03   0.02   0.04    -0.01  -0.05   0.10    -0.02   0.04  -0.01
  29   1     0.05  -0.02   0.03     0.05  -0.01   0.00    -0.00  -0.02   0.00
  30   6    -0.14   0.05  -0.05     0.01  -0.02   0.03     0.03  -0.01   0.04
  31   8     0.13   0.11  -0.16     0.07   0.01   0.02    -0.09  -0.00   0.10
  32   7    -0.31   0.02   0.01    -0.01  -0.04   0.05     0.11  -0.03   0.04
  33   1    -0.04   0.02  -0.02     0.01  -0.01   0.01     0.01  -0.01   0.02
  34   1    -0.13  -0.00   0.02    -0.01  -0.01   0.01     0.05  -0.01   0.00
  35   7    -0.34   0.02   0.01    -0.04  -0.03   0.03     0.09  -0.01  -0.02
  36   1    -0.14  -0.01   0.03    -0.02  -0.01   0.01     0.04  -0.00  -0.02
  37   1    -0.05   0.01  -0.01    -0.00  -0.00   0.00     0.01   0.00  -0.01
  38   6     0.02   0.02   0.03     0.05  -0.02  -0.03     0.11  -0.01  -0.00
  39   8     0.07   0.04  -0.12     0.04  -0.03  -0.14     0.09  -0.04  -0.12
  40   7    -0.01   0.04   0.13     0.06  -0.03  -0.18     0.17  -0.04   0.12
  41   1    -0.00   0.02   0.01     0.02  -0.01  -0.10     0.05  -0.02   0.02
  42   1    -0.01   0.00   0.06     0.03  -0.01  -0.03     0.06  -0.01   0.05
  43   7     0.02  -0.03   0.11     0.05  -0.01   0.24     0.13   0.05   0.00
  44   1    -0.00  -0.01   0.07     0.01  -0.00   0.09     0.04   0.02   0.04
  45   1     0.01  -0.01   0.02     0.00   0.00   0.09     0.02   0.03  -0.01
  46   6     0.04  -0.08   0.04    -0.05   0.08   0.10    -0.10   0.00   0.09
  47   8     0.04  -0.04   0.04    -0.10   0.07   0.37    -0.09   0.19  -0.07
  48   7     0.03  -0.07  -0.15    -0.12   0.03   0.18    -0.21  -0.06  -0.01
  49   1     0.01   0.01  -0.11    -0.06  -0.01   0.11    -0.06   0.04  -0.11
  50   1     0.01  -0.02  -0.05    -0.02   0.01  -0.01    -0.05  -0.04  -0.01
  51   7     0.05  -0.18   0.26     0.05   0.16  -0.25    -0.05  -0.18   0.47
  52   1     0.02  -0.05   0.05     0.02   0.04  -0.12    -0.01  -0.07   0.11
  53   1     0.02  -0.05   0.10     0.02   0.05  -0.08     0.01  -0.03   0.12
                     10                     11                     12
                        a                      a                      a 
 Frequencies --    39.1399                43.3653                50.8815
 Red. masses --    12.5455                12.9018                13.0525
 Frc consts  --     0.0000                 0.0000                 0.0000
 IR Inten    --     3.5947                 1.4314                 0.1277
 Raman Activ --     0.0000                 0.0000                 0.0000
 Depolar     --     0.0000                 0.0000                 0.0000
 Atom AN      X      Y      Z        X      Y      Z        X      Y      Z
   1   8     0.00  -0.04  -0.04     0.02  -0.11  -0.15     0.12   0.06   0.08
   2   6     0.00   0.06  -0.00     0.02  -0.13  -0.14     0.15   0.02   0.03
   3   1    -0.00   0.02   0.03     0.02  -0.04  -0.06     0.04   0.00  -0.00
   4   1     0.00   0.04  -0.01    -0.00  -0.06  -0.04     0.06  -0.00   0.02
   5   6     0.00   0.07  -0.07    -0.03  -0.07  -0.06     0.18  -0.02   0.01
   6   1     0.00   0.02  -0.06    -0.03  -0.02  -0.02     0.06  -0.00   0.01
   7   1    -0.00   0.05  -0.01    -0.02  -0.02  -0.01     0.06  -0.01  -0.00
   8   7     0.02  -0.06  -0.04     0.04  -0.01  -0.01     0.16  -0.01  -0.02
   9   6     0.03  -0.20  -0.12     0.05  -0.05  -0.04     0.10  -0.01  -0.00
  10   1     0.01  -0.05  -0.07    -0.00  -0.02  -0.01     0.03  -0.00   0.00
  11   1     0.01  -0.09  -0.03     0.03  -0.00  -0.00     0.02  -0.00  -0.01
  12   1     0.01  -0.07  -0.02     0.02  -0.03  -0.02     0.03  -0.00   0.01
  13   6     0.01   0.01  -0.10    -0.03   0.07   0.05     0.16   0.00  -0.06
  14   1     0.00   0.01  -0.07    -0.03   0.02   0.01     0.04  -0.00  -0.01
  15   1    -0.00   0.04  -0.01    -0.01   0.03   0.02     0.06  -0.00  -0.02
  16   1     0.01  -0.03  -0.02     0.01   0.03   0.03     0.04   0.01  -0.02
  17   6     0.03  -0.08   0.14     0.15   0.01   0.01     0.16  -0.00  -0.03
  18   1     0.01   0.01   0.06     0.04   0.01   0.01     0.06   0.00  -0.01
  19   1     0.01  -0.04   0.05     0.06  -0.02  -0.01     0.04  -0.01   0.00
  20   1     0.01  -0.05   0.05     0.06   0.02   0.01     0.04   0.00  -0.02
  21   1    -0.00  -0.01  -0.03    -0.00  -0.03  -0.02     0.01   0.01   0.03
  22   6    -0.01   0.02   0.07     0.01   0.10  -0.05    -0.19   0.05   0.03
  23   8    -0.05   0.01   0.23     0.05   0.48  -0.27    -0.26   0.14   0.16
  24   7     0.09   0.02   0.03     0.09  -0.08   0.08    -0.06   0.01   0.01
  25   1     0.04  -0.00   0.03     0.04   0.03  -0.01     0.01   0.01   0.02
  26   1     0.04   0.00  -0.02     0.01  -0.09   0.05    -0.01  -0.01  -0.02
  27   7    -0.06   0.04  -0.05    -0.11  -0.13   0.06    -0.31   0.01  -0.08
  28   1    -0.01   0.01  -0.04    -0.02  -0.10   0.06    -0.08  -0.02  -0.05
  29   1    -0.04   0.01  -0.01    -0.03   0.00  -0.01    -0.11   0.01  -0.02
  30   6     0.02   0.07   0.07     0.01   0.01   0.03     0.10  -0.04   0.03
  31   8     0.02   0.29   0.17     0.01   0.07   0.06     0.38  -0.03  -0.08
  32   7     0.10  -0.12   0.21     0.04  -0.04   0.07    -0.07  -0.03   0.07
  33   1     0.04  -0.03   0.10     0.02  -0.01   0.03     0.02  -0.00  -0.01
  34   1     0.03  -0.08   0.04     0.01  -0.02   0.01    -0.07  -0.01   0.03
  35   7    -0.06   0.02  -0.15    -0.01  -0.00  -0.03    -0.06  -0.06   0.13
  36   1    -0.01  -0.04  -0.06    -0.00  -0.01  -0.01    -0.06  -0.02   0.06
  37   1    -0.03   0.04  -0.07    -0.01   0.01  -0.02     0.03  -0.02   0.03
  38   6    -0.03  -0.03   0.01    -0.10  -0.02  -0.02    -0.00  -0.08   0.02
  39   8     0.00  -0.02  -0.41    -0.10  -0.02  -0.08    -0.01  -0.10   0.17
  40   7    -0.07  -0.01   0.22    -0.13  -0.01  -0.01     0.02  -0.10   0.11
  41   1    -0.01  -0.00  -0.01    -0.03   0.00  -0.02    -0.00  -0.03   0.07
  42   1    -0.02  -0.02   0.14    -0.04  -0.01   0.01     0.00  -0.02  -0.00
  43   7    -0.04  -0.08   0.32    -0.11  -0.05   0.05     0.00  -0.07  -0.23
  44   1    -0.02  -0.02   0.17    -0.03  -0.01   0.03     0.01  -0.02  -0.08
  45   1    -0.01  -0.02   0.04    -0.02  -0.02   0.01    -0.00  -0.02  -0.05
  46   6    -0.01   0.01  -0.11     0.03   0.01   0.09    -0.13   0.06  -0.07
  47   8    -0.01  -0.02  -0.15     0.04  -0.11   0.04    -0.16   0.01  -0.02
  48   7     0.01   0.01  -0.02     0.17   0.14  -0.10    -0.10   0.12  -0.15
  49   1     0.01  -0.01   0.02     0.08   0.06  -0.11    -0.02   0.02  -0.01
  50   1     0.00   0.00   0.01     0.04   0.08  -0.05    -0.03   0.03  -0.02
  51   7    -0.03   0.07  -0.23    -0.14  -0.03   0.44    -0.18   0.10  -0.10
  52   1    -0.01   0.02  -0.03    -0.03   0.04   0.07    -0.05   0.03  -0.01
  53   1    -0.02   0.01  -0.06    -0.06  -0.02   0.11    -0.06   0.02  -0.01
                     13                     14                     15
                        a                      a                      a 
 Frequencies --    58.2097                62.5810                74.0739
 Red. masses --    12.7470                12.7568                13.5886
 Frc consts  --     0.0000                 0.0000                 0.0000
 IR Inten    --     0.5795                 2.1153                 6.8862
 Raman Activ --     0.0000                 0.0000                 0.0000
 Depolar     --     0.0000                 0.0000                 0.0000
 Atom AN      X      Y      Z        X      Y      Z        X      Y      Z
   1   8     0.02   0.09  -0.02     0.16  -0.10   0.03     0.06  -0.08   0.01
   2   6     0.02  -0.00  -0.04     0.07   0.15   0.13     0.06  -0.02   0.02
   3   1     0.00  -0.00  -0.03     0.02   0.04   0.11     0.02  -0.01   0.02
   4   1     0.01  -0.02  -0.01     0.01   0.10   0.02     0.01  -0.00   0.00
   5   6     0.03  -0.03   0.01     0.08   0.16   0.04     0.04   0.01   0.01
   6   1     0.01  -0.01   0.01     0.03   0.05  -0.01     0.01   0.00   0.01
   7   1     0.00  -0.02   0.00     0.02   0.06   0.02     0.02   0.00   0.00
   8   7     0.05   0.00   0.03     0.06   0.05   0.03     0.03   0.03  -0.00
   9   6     0.06   0.04   0.03     0.12   0.10   0.03     0.04   0.10   0.03
  10   1     0.02   0.01   0.02     0.07   0.03   0.01     0.03   0.03   0.02
  11   1     0.02   0.02   0.01     0.03  -0.00   0.01     0.01   0.03   0.00
  12   1     0.02   0.01   0.00     0.02   0.06   0.01     0.00   0.04   0.01
  13   6     0.03  -0.00   0.07     0.13  -0.10   0.02     0.06  -0.04   0.01
  14   1     0.01  -0.00   0.03     0.07  -0.02   0.01     0.03  -0.01   0.02
  15   1     0.01  -0.01   0.02     0.03  -0.04   0.00     0.01  -0.02  -0.00
  16   1     0.01   0.01   0.02     0.03  -0.05   0.00     0.01  -0.01   0.00
  17   6     0.05   0.01  -0.01    -0.12   0.01   0.03    -0.02   0.03  -0.07
  18   1     0.01  -0.01  -0.01    -0.06  -0.01   0.01    -0.02  -0.01  -0.02
  19   1     0.02   0.01  -0.01    -0.05   0.04   0.00    -0.01   0.03  -0.03
  20   1     0.02   0.01  -0.00    -0.04  -0.03   0.01    -0.00   0.01  -0.02
  21   1     0.01   0.02   0.01     0.00  -0.03  -0.03    -0.00  -0.03   0.00
  22   6     0.01  -0.02   0.06    -0.08   0.06  -0.02    -0.08   0.01   0.01
  23   8    -0.02  -0.13   0.21    -0.09   0.22  -0.06    -0.10   0.03   0.04
  24   7     0.05   0.04  -0.01    -0.02  -0.02   0.02    -0.05   0.00  -0.00
  25   1     0.02  -0.00   0.02     0.01   0.02   0.00    -0.01   0.00   0.00
  26   1     0.02   0.03  -0.03    -0.01  -0.03   0.01    -0.01  -0.00  -0.01
  27   7     0.01   0.04  -0.02    -0.16  -0.03  -0.02    -0.12   0.00  -0.03
  28   1     0.00   0.03  -0.03    -0.04  -0.04   0.00    -0.03  -0.01  -0.01
  29   1    -0.01  -0.00   0.01    -0.05   0.01  -0.01    -0.04   0.00  -0.01
  30   6     0.01  -0.09  -0.00    -0.06  -0.09  -0.01    -0.11   0.16  -0.05
  31   8    -0.00  -0.25  -0.05    -0.24  -0.28  -0.01    -0.31   0.34   0.08
  32   7    -0.03   0.03  -0.09    -0.01   0.06  -0.14     0.05   0.02   0.01
  33   1    -0.02   0.00  -0.05    -0.04   0.00  -0.06     0.01   0.01   0.05
  34   1    -0.01   0.04  -0.01     0.02   0.05  -0.03     0.05  -0.03  -0.02
  35   7     0.07  -0.07   0.15     0.11  -0.04   0.11    -0.07   0.15  -0.31
  36   1     0.02   0.01   0.05     0.06   0.03   0.03     0.00   0.00  -0.11
  37   1     0.03  -0.04   0.06     0.02  -0.04   0.05    -0.07   0.07  -0.10
  38   6    -0.07   0.01   0.02     0.06   0.06  -0.04     0.14  -0.11   0.10
  39   8    -0.07   0.02  -0.05     0.28   0.18  -0.19     0.22  -0.10   0.38
  40   7    -0.10   0.02  -0.35    -0.17   0.20   0.02     0.10  -0.09  -0.24
  41   1    -0.02   0.01  -0.17    -0.04   0.10  -0.02     0.03  -0.01  -0.05
  42   1    -0.02   0.01  -0.06    -0.09   0.03   0.03     0.02  -0.02  -0.10
  43   7    -0.08  -0.00   0.50     0.04  -0.18   0.07     0.14  -0.18   0.15
  44   1    -0.03  -0.01   0.11    -0.03  -0.06   0.05     0.03  -0.06  -0.03
  45   1    -0.02  -0.00   0.13     0.04  -0.06  -0.00     0.04  -0.06   0.06
  46   6    -0.01   0.05  -0.08    -0.03  -0.09  -0.03    -0.02  -0.06  -0.01
  47   8    -0.04   0.06   0.08    -0.01  -0.15  -0.18    -0.04  -0.12   0.07
  48   7     0.01   0.14  -0.48     0.02  -0.10   0.17     0.02  -0.01  -0.14
  49   1    -0.01   0.03  -0.10     0.03  -0.02   0.01     0.01  -0.01  -0.01
  50   1    -0.00   0.02  -0.09     0.00  -0.00   0.04     0.00   0.00  -0.03
  51   7     0.02   0.00   0.02    -0.12  -0.05  -0.02    -0.06  -0.04  -0.02
  52   1     0.00  -0.01   0.01    -0.03   0.00   0.01    -0.01  -0.00  -0.01
  53   1     0.00  -0.01   0.07    -0.05  -0.02  -0.03    -0.03  -0.02   0.01
                     16                     17                     18
                        a                      a                      a 
 Frequencies --    76.7448                88.7395                96.3695
 Red. masses --    14.0776                13.1985                11.5613
 Frc consts  --     0.0000                 0.0000                 0.0000
 IR Inten    --     3.3617                 5.8681                17.4266
 Raman Activ --     0.0000                 0.0000                 0.0000
 Depolar     --     0.0000                 0.0000                 0.0000
 Atom AN      X      Y      Z        X      Y      Z        X      Y      Z
   1   8    -0.00  -0.00  -0.08    -0.13  -0.12  -0.13    -0.07  -0.16   0.20
   2   6    -0.09   0.09   0.01    -0.13  -0.17  -0.12     0.08  -0.24   0.05
   3   1    -0.04   0.02   0.04    -0.02  -0.05  -0.06     0.05  -0.06  -0.05
   4   1    -0.04   0.06  -0.01    -0.05  -0.08  -0.03     0.04  -0.13   0.04
   5   6    -0.06   0.04   0.01    -0.17  -0.11  -0.01     0.01  -0.13   0.08
   6   1    -0.00   0.01   0.00    -0.07  -0.04   0.02    -0.03  -0.05   0.04
   7   1    -0.02   0.01   0.00    -0.05  -0.04  -0.00     0.01  -0.04   0.02
   8   7    -0.07   0.00   0.01    -0.13   0.02   0.02     0.03   0.04   0.07
   9   6    -0.03   0.04   0.02    -0.09   0.12   0.06    -0.11  -0.07   0.07
  10   1    -0.01   0.01   0.01    -0.02   0.03   0.04    -0.08  -0.03   0.02
  11   1    -0.00   0.01   0.01    -0.02   0.05   0.02    -0.03   0.01   0.02
  12   1    -0.01   0.01  -0.01    -0.03   0.05   0.00    -0.01  -0.07   0.03
  13   6    -0.03  -0.06   0.01    -0.15   0.01   0.12    -0.08   0.26   0.06
  14   1     0.00  -0.02   0.01    -0.05  -0.00   0.05    -0.07   0.07   0.01
  15   1    -0.01  -0.03  -0.00    -0.05  -0.01   0.03    -0.00   0.10   0.02
  16   1    -0.01  -0.02   0.00    -0.03   0.02   0.04    -0.02   0.11   0.02
  17   6    -0.14  -0.01   0.00    -0.07   0.05  -0.10     0.31   0.09   0.07
  18   1    -0.03  -0.00  -0.00    -0.02  -0.00  -0.04     0.11   0.04   0.02
  19   1    -0.05   0.01   0.02    -0.01   0.01  -0.04     0.12  -0.02   0.01
  20   1    -0.05  -0.01  -0.01    -0.02   0.04  -0.03     0.10   0.07   0.03
  21   1     0.01   0.01  -0.06    -0.03  -0.03  -0.01     0.01  -0.03   0.05
  22   6    -0.02   0.02  -0.03    -0.07  -0.02   0.00    -0.15   0.00  -0.02
  23   8    -0.01   0.08  -0.09    -0.09  -0.06   0.05    -0.19  -0.00   0.01
  24   7    -0.02  -0.02  -0.00    -0.07   0.01  -0.02    -0.15  -0.00  -0.03
  25   1    -0.00   0.01  -0.01    -0.02  -0.00  -0.00    -0.04   0.00  -0.01
  26   1    -0.01  -0.01   0.01    -0.02   0.01  -0.01    -0.04   0.01  -0.02
  27   7    -0.03  -0.02  -0.00    -0.08   0.01  -0.03    -0.19   0.00  -0.06
  28   1    -0.01  -0.02   0.01    -0.02   0.01  -0.02    -0.05  -0.01  -0.02
  29   1    -0.01   0.00  -0.01    -0.02  -0.00  -0.00    -0.06  -0.00  -0.01
  30   6     0.12   0.01   0.01     0.11   0.01   0.05    -0.06  -0.02  -0.06
  31   8     0.42   0.09  -0.09     0.34   0.07  -0.01    -0.17  -0.09  -0.06
  32   7    -0.04  -0.04   0.09    -0.01  -0.05   0.13    -0.03   0.04  -0.12
  33   1     0.03   0.00   0.01     0.04  -0.00   0.02    -0.02   0.01  -0.04
  34   1    -0.06  -0.02   0.03    -0.03  -0.02   0.04     0.01   0.03  -0.03
  35   7    -0.07  -0.02   0.05    -0.03  -0.02   0.08     0.01   0.01  -0.04
  36   1    -0.06  -0.02   0.03    -0.04  -0.02   0.03     0.01   0.01  -0.01
  37   1     0.03   0.01   0.00     0.03   0.00   0.01    -0.02  -0.01   0.00
  38   6     0.00  -0.02   0.08     0.21   0.11  -0.04     0.10   0.05  -0.02
  39   8    -0.03  -0.04   0.23     0.40   0.21  -0.15     0.00   0.00  -0.15
  40   7     0.04  -0.05  -0.28     0.05   0.22   0.04     0.22  -0.02  -0.02
  41   1     0.01  -0.02  -0.09     0.02   0.10  -0.01     0.06  -0.03  -0.04
  42   1     0.02  -0.01  -0.08    -0.02   0.04   0.02     0.09   0.01   0.02
  43   7    -0.00   0.02   0.32     0.21  -0.08   0.00     0.11   0.16   0.14
  44   1     0.01  -0.00   0.00     0.02  -0.03   0.04     0.05   0.05   0.04
  45   1    -0.00   0.01   0.05     0.07  -0.03   0.01     0.02   0.05   0.01
  46   6     0.03  -0.01  -0.09     0.00  -0.05   0.02     0.08   0.02  -0.06
  47   8     0.09   0.08  -0.50    -0.02  -0.13   0.18     0.12   0.08  -0.26
  48   7    -0.01  -0.12   0.28     0.04   0.01  -0.13     0.04  -0.05   0.14
  49   1     0.02   0.01  -0.03     0.01  -0.02   0.01     0.02   0.01  -0.02
  50   1    -0.00  -0.02   0.07     0.01   0.00  -0.03     0.01  -0.01   0.03
  51   7    -0.02  -0.05   0.08    -0.03  -0.02  -0.03     0.06   0.01  -0.00
  52   1    -0.01  -0.02   0.05    -0.01   0.01  -0.02     0.01  -0.00   0.03
  53   1    -0.00   0.00  -0.04    -0.02  -0.02   0.01     0.02   0.01  -0.02
                     19                     20                     21
                        a                      a                      a 
 Frequencies --   102.4091               116.1847               122.9719
 Red. masses --    11.9572                12.1906                11.0034
 Frc consts  --     0.0000                 0.0000                 0.0000
 IR Inten    --    12.1405                 9.6459                 5.6092
 Raman Activ --     0.0000                 0.0000                 0.0000
 Depolar     --     0.0000                 0.0000                 0.0000
 Atom AN      X      Y      Z        X      Y      Z        X      Y      Z
   1   8     0.03   0.03  -0.06    -0.01  -0.03   0.00    -0.11   0.06  -0.05
   2   6    -0.09   0.06   0.03     0.02  -0.07  -0.02    -0.06   0.12  -0.05
   3   1    -0.03   0.02   0.03    -0.01  -0.02  -0.01    -0.01   0.03  -0.00
   4   1    -0.05   0.03  -0.01     0.01  -0.02  -0.00    -0.01   0.04  -0.01
   5   6    -0.09   0.04   0.11     0.05  -0.13  -0.04    -0.08   0.16  -0.10
   6   1    -0.02   0.02   0.00     0.03  -0.03  -0.02    -0.03   0.05  -0.06
   7   1    -0.05   0.03   0.05     0.01  -0.03  -0.01    -0.03   0.08  -0.02
   8   7     0.03  -0.05   0.25     0.06  -0.24  -0.03    -0.05   0.06  -0.05
   9   6     0.17  -0.12   0.14     0.04  -0.31  -0.07    -0.11  -0.25  -0.19
  10   1     0.05  -0.03   0.01     0.01  -0.08  -0.04    -0.05  -0.06  -0.12
  11   1     0.07  -0.06   0.06     0.01  -0.11  -0.02    -0.04  -0.11  -0.05
  12   1     0.05  -0.03   0.02     0.01  -0.09  -0.01    -0.03  -0.11  -0.02
  13   6    -0.01  -0.03   0.31     0.04  -0.15  -0.09    -0.12   0.28  -0.17
  14   1    -0.01  -0.01   0.07     0.01  -0.04  -0.05    -0.07   0.08  -0.08
  15   1    -0.02  -0.00   0.10     0.02  -0.02  -0.02    -0.01   0.13  -0.03
  16   1     0.02  -0.02   0.11     0.01  -0.06  -0.03    -0.04   0.08  -0.05
  17   6     0.02  -0.07   0.33     0.08  -0.24   0.10     0.15   0.04   0.26
  18   1    -0.01  -0.00   0.11     0.02  -0.04   0.04     0.05   0.08   0.11
  19   1     0.01  -0.02   0.09     0.03  -0.08   0.04     0.07  -0.05   0.09
  20   1     0.02  -0.03   0.11     0.02  -0.08   0.03     0.05  -0.00   0.09
  21   1     0.00   0.01  -0.02     0.01  -0.01   0.00    -0.03   0.02  -0.01
  22   6     0.03   0.01   0.01    -0.05  -0.07  -0.03     0.07   0.06   0.02
  23   8     0.03   0.02   0.01    -0.06  -0.18  -0.01     0.08   0.17   0.00
  24   7     0.04   0.00   0.01    -0.13  -0.00  -0.05     0.14   0.00   0.05
  25   1     0.01   0.00   0.00    -0.05  -0.02  -0.02     0.05   0.01   0.01
  26   1     0.01  -0.00   0.00    -0.03   0.03  -0.02     0.03  -0.03   0.02
  27   7     0.03  -0.00   0.01     0.00   0.00  -0.02     0.02  -0.01   0.03
  28   1     0.01   0.00   0.00    -0.00   0.02  -0.01     0.01  -0.02   0.01
  29   1     0.01   0.00   0.00     0.01  -0.02   0.00    -0.00   0.02  -0.00
  30   6    -0.01   0.08  -0.26    -0.02   0.02  -0.03     0.01  -0.07   0.00
  31   8     0.17   0.10  -0.38    -0.03   0.04  -0.03    -0.00  -0.14  -0.01
  32   7    -0.17   0.11  -0.27    -0.02   0.01  -0.03    -0.01  -0.01  -0.04
  33   1    -0.00   0.04  -0.10     0.01   0.01  -0.01    -0.02  -0.01  -0.02
  34   1    -0.05   0.04  -0.07     0.01   0.00  -0.01    -0.01   0.01  -0.00
  35   7    -0.12   0.08  -0.22    -0.01   0.02  -0.06     0.03  -0.06   0.08
  36   1    -0.09   0.01  -0.03    -0.02  -0.00  -0.01     0.02   0.00   0.02
  37   1    -0.02   0.02  -0.06    -0.02   0.01  -0.02     0.02  -0.03   0.03
  38   6     0.00  -0.04  -0.03    -0.03   0.20   0.09     0.10   0.02   0.09
  39   8     0.02  -0.04  -0.11     0.10   0.30   0.31     0.18   0.05   0.29
  40   7    -0.01  -0.04   0.06    -0.20   0.32  -0.04     0.04   0.06  -0.05
  41   1    -0.00  -0.01   0.00    -0.06   0.13   0.04     0.01   0.04   0.01
  42   1    -0.00  -0.01   0.02    -0.09   0.07  -0.02    -0.01   0.01  -0.05
  43   7     0.01  -0.06  -0.03    -0.05   0.08  -0.01     0.10  -0.06   0.01
  44   1    -0.00  -0.02   0.02    -0.03   0.00  -0.07     0.02  -0.03  -0.03
  45   1     0.00  -0.02  -0.01     0.01   0.00  -0.00     0.03  -0.02   0.02
  46   6    -0.02  -0.02   0.01     0.06   0.11   0.02    -0.09  -0.11  -0.01
  47   8    -0.03  -0.04   0.09     0.08   0.04  -0.06    -0.11  -0.04   0.08
  48   7    -0.01  -0.00  -0.05     0.13   0.16   0.06    -0.16  -0.17  -0.08
  49   1    -0.01  -0.01   0.00     0.05   0.03   0.03    -0.06  -0.04  -0.02
  50   1    -0.00  -0.00  -0.01     0.03   0.05   0.04    -0.04  -0.06  -0.04
  51   7    -0.01  -0.01  -0.01    -0.03   0.15   0.08     0.00  -0.16  -0.07
  52   1    -0.00  -0.00  -0.01    -0.01   0.05   0.02     0.00  -0.06  -0.02
  53   1    -0.00  -0.00   0.00    -0.02   0.04  -0.00     0.01  -0.04   0.01
                     22                     23                     24
                        a                      a                      a 
 Frequencies --   125.2365               130.2635               171.9124
 Red. masses --    12.0978                12.4523                12.4087
 Frc consts  --     0.0000                 0.0000                 0.0000
 IR Inten    --    23.6811                 9.1064                 8.5681
 Raman Activ --     0.0000                 0.0000                 0.0000
 Depolar     --     0.0000                 0.0000                 0.0000
 Atom AN      X      Y      Z        X      Y      Z        X      Y      Z
   1   8    -0.02  -0.14  -0.03     0.11  -0.16  -0.17     0.04  -0.32  -0.01
   2   6    -0.00   0.06   0.02    -0.03   0.14   0.01     0.07  -0.08   0.03
   3   1     0.02   0.02   0.04     0.00   0.04   0.09     0.05  -0.02   0.05
   4   1    -0.01   0.03  -0.00    -0.04   0.10  -0.03     0.01  -0.01   0.00
   5   6    -0.06   0.16  -0.03    -0.07   0.22  -0.07    -0.00   0.06  -0.06
   6   1    -0.03   0.04  -0.03    -0.03   0.06  -0.07    -0.03   0.01  -0.06
   7   1    -0.01   0.08  -0.00    -0.02   0.11  -0.00     0.00   0.06  -0.00
   8   7    -0.03   0.15  -0.00    -0.05   0.07  -0.03     0.04  -0.01  -0.02
   9   6    -0.04   0.03  -0.06     0.04  -0.02  -0.11     0.11   0.01  -0.04
  10   1    -0.01   0.01  -0.04     0.01  -0.00  -0.06     0.06   0.01  -0.02
  11   1    -0.01  -0.01  -0.01     0.03  -0.03  -0.02     0.03  -0.03  -0.01
  12   1    -0.01  -0.00  -0.01     0.02  -0.01  -0.04     0.02   0.03  -0.00
  13   6    -0.05   0.21  -0.02    -0.02   0.02  -0.05     0.05  -0.07   0.03
  14   1    -0.03   0.06  -0.01     0.01   0.01  -0.03     0.02  -0.02   0.02
  15   1    -0.01   0.07  -0.00    -0.01   0.01  -0.01     0.01  -0.03   0.00
  16   1    -0.02   0.06  -0.01    -0.01  -0.01  -0.01     0.02  -0.02   0.01
  17   6     0.04   0.14   0.09    -0.15   0.02   0.11    -0.04  -0.02   0.00
  18   1     0.01   0.06   0.04    -0.06   0.02   0.05    -0.04  -0.01   0.01
  19   1     0.02   0.02   0.03    -0.05   0.02   0.04    -0.01   0.01  -0.02
  20   1     0.02   0.04   0.04    -0.04  -0.03   0.04     0.00  -0.02   0.02
  21   1    -0.03  -0.04  -0.03     0.02  -0.04  -0.07    -0.04  -0.10  -0.02
  22   6     0.03  -0.12  -0.04    -0.17  -0.01  -0.01     0.08  -0.02  -0.01
  23   8     0.05  -0.33  -0.04    -0.21  -0.03   0.04     0.10  -0.04  -0.03
  24   7    -0.12  -0.00  -0.08    -0.18   0.00  -0.03     0.07  -0.00  -0.00
  25   1    -0.06  -0.04  -0.02    -0.05   0.00  -0.01     0.01  -0.01   0.00
  26   1    -0.03   0.03  -0.01    -0.04   0.02  -0.03     0.01  -0.01   0.01
  27   7     0.17   0.00   0.01    -0.22   0.00  -0.07     0.14  -0.00   0.04
  28   1     0.04   0.05   0.01    -0.06  -0.01  -0.02     0.03   0.02   0.01
  29   1     0.08  -0.02   0.01    -0.07  -0.01  -0.01     0.05   0.00   0.00
  30   6     0.01  -0.04   0.01     0.02  -0.03   0.01     0.00  -0.00  -0.00
  31   8     0.01  -0.08  -0.01     0.04  -0.05  -0.01     0.00  -0.00  -0.00
  32   7    -0.00  -0.00  -0.02     0.01  -0.01  -0.01     0.02   0.00  -0.01
  33   1    -0.01  -0.00  -0.01    -0.01  -0.01  -0.01    -0.02  -0.01   0.00
  34   1    -0.01   0.00   0.00    -0.02   0.00   0.01    -0.03  -0.00   0.01
  35   7     0.02  -0.03   0.06     0.01  -0.03   0.05    -0.01  -0.00   0.01
  36   1     0.02   0.00   0.02     0.01   0.00   0.01     0.01   0.01  -0.01
  37   1     0.02  -0.01   0.02     0.02  -0.01   0.01     0.01   0.00  -0.00
  38   6     0.03  -0.17  -0.01    -0.03   0.04   0.03     0.06   0.18   0.03
  39   8     0.12  -0.15   0.00    -0.20  -0.04   0.06    -0.15   0.10   0.01
  40   7    -0.05  -0.14  -0.00     0.14  -0.06   0.01     0.30   0.05  -0.00
  41   1    -0.01  -0.02  -0.00     0.03  -0.06   0.01     0.08  -0.05  -0.01
  42   1    -0.03  -0.04  -0.01     0.07   0.00  -0.01     0.13   0.04   0.01
  43   7     0.03  -0.28  -0.01    -0.02   0.20   0.01     0.06   0.40   0.10
  44   1    -0.00  -0.08  -0.01     0.01   0.06  -0.01     0.04   0.11  -0.00
  45   1     0.02  -0.08  -0.01    -0.01   0.06   0.02     0.00   0.12   0.02
  46   6    -0.03   0.14   0.03     0.23  -0.08   0.08    -0.21  -0.07  -0.01
  47   8    -0.01  -0.07  -0.09     0.24  -0.18   0.26    -0.25  -0.22  -0.01
  48   7     0.18   0.31   0.10     0.31  -0.00  -0.07    -0.11   0.04  -0.04
  49   1     0.09   0.05   0.05     0.08  -0.03   0.05    -0.01  -0.03   0.06
  50   1     0.04   0.12   0.06     0.08   0.00  -0.01    -0.03   0.03   0.02
  51   7    -0.26   0.28   0.11     0.20  -0.02  -0.01    -0.39   0.01  -0.02
  52   1    -0.07   0.12   0.03     0.05   0.01  -0.01    -0.10   0.05  -0.02
  53   1    -0.10   0.06  -0.01     0.03  -0.02   0.02    -0.14  -0.01  -0.04
                     25                     26                     27
                        a                      a                      a 
 Frequencies --   187.0718               201.2920               250.6562
 Red. masses --     3.6788                 9.9904                 4.0173
 Frc consts  --     0.0000                 0.0000                 0.0000
 IR Inten    --    11.6289                 5.3598                13.3171
 Raman Activ --     0.0000                 0.0000                 0.0000
 Depolar     --     0.0000                 0.0000                 0.0000
 Atom AN      X      Y      Z        X      Y      Z        X      Y      Z
   1   8    -0.01   0.02   0.02     0.43   0.17  -0.30     0.10  -0.14  -0.09
   2   6    -0.00  -0.01   0.00    -0.05   0.13   0.01     0.00  -0.01   0.01
   3   1     0.00  -0.00  -0.01    -0.08   0.02   0.06    -0.00  -0.00   0.04
   4   1     0.00  -0.01   0.00    -0.08   0.12  -0.05    -0.01   0.03  -0.01
   5   6    -0.00  -0.01   0.00     0.12  -0.18   0.25     0.01  -0.01   0.01
   6   1    -0.00  -0.00  -0.00     0.10  -0.05   0.17     0.00  -0.00   0.01
   7   1    -0.00  -0.00   0.00     0.04  -0.16   0.03     0.00  -0.01   0.00
   8   7     0.01  -0.01   0.02    -0.06  -0.05   0.09    -0.01  -0.01   0.00
   9   6     0.02  -0.01   0.01    -0.30  -0.05   0.18    -0.00  -0.00   0.00
  10   1     0.01  -0.00   0.00    -0.23  -0.04   0.11    -0.06  -0.01   0.02
  11   1     0.00  -0.01   0.00    -0.05   0.13   0.06     0.03   0.05   0.02
  12   1     0.00   0.00   0.01    -0.02  -0.12   0.01     0.03  -0.04  -0.04
  13   6     0.00  -0.00   0.02    -0.04   0.08  -0.16    -0.01   0.01  -0.00
  14   1    -0.00  -0.00   0.00    -0.02   0.03  -0.10    -0.00   0.01  -0.02
  15   1     0.00   0.00   0.01     0.02   0.08  -0.03    -0.01   0.02   0.01
  16   1     0.00  -0.00   0.01    -0.04  -0.01  -0.07     0.00  -0.01   0.01
  17   6     0.00  -0.01   0.01     0.02  -0.02   0.02    -0.01  -0.01  -0.00
  18   1    -0.01  -0.01   0.00     0.13   0.01  -0.02     0.03   0.01  -0.01
  19   1     0.00   0.00  -0.01    -0.03  -0.04   0.12    -0.01  -0.01   0.03
  20   1     0.01  -0.00   0.01    -0.08   0.01  -0.10    -0.03  -0.00  -0.03
  21   1     0.00   0.01   0.01     0.06   0.03  -0.08     0.02  -0.04  -0.05
  22   6    -0.00   0.00   0.00     0.01  -0.01  -0.00     0.01  -0.01   0.01
  23   8    -0.00   0.00   0.00     0.01  -0.01  -0.00     0.01  -0.03   0.02
  24   7    -0.00   0.00  -0.00    -0.00  -0.00  -0.01    -0.02  -0.12   0.08
  25   1    -0.00  -0.00   0.00    -0.00  -0.01  -0.00     0.03   0.14  -0.09
  26   1    -0.00  -0.00   0.00    -0.00  -0.00   0.00     0.06   0.20  -0.15
  27   7    -0.01  -0.00  -0.00     0.02  -0.01   0.01     0.03   0.13  -0.09
  28   1    -0.00  -0.00  -0.00     0.00   0.01  -0.00     0.00  -0.19   0.17
  29   1    -0.00   0.00  -0.00     0.01   0.00  -0.00    -0.00  -0.15   0.11
  30   6    -0.01   0.01  -0.03    -0.02   0.00  -0.00     0.00  -0.00   0.00
  31   8    -0.00   0.02  -0.02    -0.04   0.00   0.01    -0.00  -0.00   0.00
  32   7     0.30   0.07  -0.09     0.01   0.01  -0.01    -0.00  -0.00  -0.00
  33   1    -0.35  -0.10   0.10    -0.02  -0.00   0.00     0.00   0.00  -0.00
  34   1    -0.49  -0.10   0.10    -0.01  -0.00  -0.00     0.00   0.00  -0.00
  35   7    -0.29  -0.07   0.09    -0.01   0.00  -0.01    -0.00  -0.00   0.00
  36   1     0.44   0.14  -0.20     0.02   0.01  -0.01     0.00   0.00  -0.00
  37   1     0.34   0.10  -0.12     0.01   0.01  -0.01     0.00   0.00  -0.00
  38   6    -0.00  -0.00  -0.00     0.03   0.03  -0.01    -0.00   0.01   0.01
  39   8     0.01   0.00  -0.00    -0.01   0.02  -0.05    -0.00   0.01   0.02
  40   7    -0.02   0.01   0.00     0.06   0.01   0.02     0.00   0.01  -0.01
  41   1    -0.01   0.01   0.00     0.02  -0.01  -0.01     0.00   0.00  -0.02
  42   1    -0.01   0.00  -0.00     0.03   0.01  -0.00     0.01   0.01  -0.03
  43   7    -0.00  -0.02  -0.00     0.02   0.05   0.02     0.01   0.00  -0.05
  44   1    -0.00  -0.01  -0.00     0.00   0.01  -0.00    -0.01   0.01   0.10
  45   1     0.00  -0.01  -0.00     0.01   0.01   0.00    -0.01  -0.00   0.04
  46   6     0.01   0.01  -0.00    -0.04  -0.06  -0.00    -0.03   0.06   0.01
  47   8     0.01   0.02  -0.00    -0.04  -0.15   0.01    -0.04   0.02   0.10
  48   7    -0.00  -0.00   0.01     0.07   0.03  -0.04    -0.08  -0.05   0.22
  49   1    -0.00   0.00  -0.01     0.03  -0.04   0.08     0.07   0.22  -0.54
  50   1     0.00  -0.00  -0.00     0.01   0.02   0.03     0.00   0.09  -0.20
  51   7     0.02   0.00  -0.00    -0.14  -0.01   0.02     0.01   0.11  -0.22
  52   1     0.01  -0.00   0.00    -0.03   0.03  -0.02    -0.02  -0.03   0.14
  53   1     0.01   0.00   0.00    -0.05   0.00  -0.06    -0.05  -0.08   0.35
                     28                     29                     30
                        a                      a                      a 
 Frequencies --   255.7147               260.5836               270.9716
 Red. masses --     4.2207                11.4581                 5.0010
 Frc consts  --     0.0000                 0.0000                 0.0000
 IR Inten    --    14.7978                16.1062                 1.4909
 Raman Activ --     0.0000                 0.0000                 0.0000
 Depolar     --     0.0000                 0.0000                 0.0000
 Atom AN      X      Y      Z        X      Y      Z        X      Y      Z
   1   8    -0.11   0.15   0.07    -0.36   0.39   0.15    -0.19  -0.22   0.07
   2   6    -0.02   0.04  -0.02    -0.15   0.21  -0.04    -0.16   0.16   0.15
   3   1    -0.01   0.01  -0.03    -0.09   0.05  -0.03    -0.10   0.03   0.17
   4   1     0.01  -0.01   0.01     0.01   0.07   0.02    -0.02   0.19   0.03
   5   6     0.00   0.00  -0.01     0.03  -0.04  -0.04    -0.01  -0.03  -0.10
   6   1     0.01   0.00   0.00     0.06  -0.00   0.02     0.04  -0.00  -0.02
   7   1    -0.00  -0.01  -0.00    -0.02  -0.06  -0.02    -0.01  -0.03  -0.03
   8   7     0.02   0.00   0.00     0.08  -0.03  -0.01     0.05  -0.04  -0.08
   9   6    -0.00   0.00   0.01     0.02   0.01   0.04     0.18   0.00  -0.10
  10   1     0.05   0.01  -0.01     0.07   0.01   0.00    -0.17  -0.04   0.03
  11   1    -0.03  -0.04  -0.02    -0.04  -0.05  -0.03     0.18   0.21   0.06
  12   1    -0.03   0.03   0.04    -0.04   0.05   0.07     0.17  -0.15  -0.19
  13   6     0.02  -0.01   0.01     0.06  -0.02   0.06    -0.04  -0.00   0.15
  14   1     0.00  -0.01   0.02     0.01  -0.01   0.03    -0.00   0.03  -0.09
  15   1     0.01  -0.01  -0.01     0.01  -0.01   0.02    -0.12   0.08   0.13
  16   1     0.00   0.01  -0.00     0.03   0.00   0.03     0.08  -0.11   0.13
  17   6     0.03   0.01  -0.01     0.17   0.01  -0.09     0.15   0.01  -0.18
  18   1    -0.01  -0.00  -0.00     0.11   0.00  -0.04     0.32   0.05  -0.11
  19   1     0.01   0.00  -0.02     0.04  -0.02   0.02    -0.04  -0.07   0.22
  20   1     0.02   0.01   0.01     0.01   0.03  -0.07    -0.15   0.03  -0.28
  21   1    -0.02   0.04   0.04    -0.08   0.11   0.06    -0.02  -0.04  -0.06
  22   6     0.03   0.01  -0.00    -0.01  -0.02  -0.00     0.00   0.01  -0.00
  23   8     0.02   0.01  -0.01    -0.01  -0.04   0.01     0.00   0.01  -0.01
  24   7    -0.06  -0.22   0.17    -0.02   0.04  -0.04     0.00  -0.01   0.01
  25   1     0.04   0.26  -0.18    -0.02  -0.05   0.03     0.00   0.01  -0.01
  26   1     0.11   0.38  -0.28    -0.03  -0.06   0.05     0.00   0.01  -0.01
  27   7     0.02   0.19  -0.16     0.01  -0.03   0.02    -0.00   0.00   0.00
  28   1     0.00  -0.33   0.28     0.00   0.06  -0.05    -0.00  -0.01   0.01
  29   1    -0.02  -0.22   0.16     0.01   0.03  -0.02    -0.00  -0.00   0.00
  30   6    -0.00   0.00   0.00    -0.01   0.00   0.00    -0.01  -0.00   0.00
  31   8    -0.00   0.00   0.00    -0.01   0.00   0.00    -0.02  -0.01   0.01
  32   7     0.00   0.00   0.00     0.01   0.01  -0.00     0.02   0.00  -0.00
  33   1    -0.00  -0.00   0.00    -0.01  -0.00   0.00    -0.02  -0.01   0.01
  34   1    -0.00  -0.00   0.00    -0.01  -0.00   0.00    -0.03  -0.01   0.01
  35   7    -0.00   0.00  -0.00     0.01   0.01  -0.01     0.01   0.00  -0.00
  36   1     0.00   0.00  -0.00    -0.01  -0.00   0.00    -0.01  -0.00   0.00
  37   1    -0.00   0.00  -0.00    -0.01  -0.00   0.00    -0.01  -0.00   0.00
  38   6     0.00   0.00  -0.01     0.00   0.03   0.00     0.00  -0.00   0.00
  39   8    -0.01  -0.00  -0.02    -0.05   0.01  -0.01     0.02   0.00   0.02
  40   7     0.01  -0.00   0.01     0.06  -0.00   0.00    -0.01   0.01   0.00
  41   1     0.00  -0.00   0.01     0.02  -0.02  -0.01    -0.00   0.01  -0.00
  42   1     0.00  -0.00   0.01     0.03   0.01   0.00    -0.01   0.00  -0.02
  43   7    -0.00   0.01   0.03    -0.00   0.06   0.01     0.01  -0.01  -0.00
  44   1     0.00  -0.01  -0.06    -0.00   0.01  -0.00    -0.00  -0.00  -0.00
  45   1     0.01   0.00  -0.02     0.01   0.01   0.01    -0.00  -0.00   0.00
  46   6    -0.01  -0.07  -0.01     0.03  -0.20  -0.04    -0.00   0.03   0.02
  47   8    -0.00  -0.08  -0.06     0.04  -0.34  -0.01    -0.00   0.07   0.02
  48   7     0.09   0.03  -0.11     0.30  -0.07   0.10    -0.06   0.02  -0.06
  49   1     0.00  -0.12   0.29     0.18   0.03  -0.17    -0.06  -0.04   0.12
  50   1     0.01  -0.02   0.12     0.08   0.09  -0.05    -0.02  -0.04   0.04
  51   7    -0.06  -0.08   0.09    -0.19  -0.04  -0.13     0.05  -0.00   0.05
  52   1    -0.00   0.01  -0.06    -0.06   0.03   0.05     0.02  -0.00  -0.02
  53   1     0.01   0.03  -0.18    -0.12  -0.08   0.12     0.03   0.02  -0.05
                     31                     32                     33
                        a                      a                      a 
 Frequencies --   291.8063               313.8274               320.7688
 Red. masses --     2.7177                 9.0974                 4.4257
 Frc consts  --     0.0000                 0.0000                 0.0000
 IR Inten    --   141.3753                 4.7145                 7.8183
 Raman Activ --     0.0000                 0.0000                 0.0000
 Depolar     --     0.0000                 0.0000                 0.0000
 Atom AN      X      Y      Z        X      Y      Z        X      Y      Z
   1   8     0.01  -0.01  -0.01    -0.30  -0.26  -0.18     0.11  -0.18  -0.12
   2   6    -0.01  -0.01   0.00    -0.06   0.01  -0.19    -0.13   0.17   0.16
   3   1    -0.00  -0.00   0.00    -0.00   0.00  -0.02    -0.10   0.03   0.18
   4   1    -0.00   0.00  -0.00    -0.02   0.01  -0.06    -0.06   0.21  -0.01
   5   6    -0.01  -0.00   0.01    -0.02   0.05  -0.05     0.02  -0.06   0.02
   6   1    -0.01  -0.00   0.01     0.00   0.01  -0.01     0.05  -0.01   0.00
   7   1    -0.00  -0.00   0.00    -0.06   0.00   0.01     0.01  -0.04  -0.00
   8   7    -0.00   0.02   0.01     0.14   0.04   0.10     0.00  -0.08  -0.01
   9   6     0.00   0.01  -0.00    -0.15   0.17   0.28    -0.03  -0.10  -0.02
  10   1    -0.00   0.00  -0.01     0.07   0.06   0.11     0.29   0.03  -0.10
  11   1     0.00   0.00   0.00    -0.16  -0.01  -0.02    -0.16  -0.32  -0.10
  12   1     0.00   0.00  -0.00    -0.12   0.13   0.20    -0.17   0.17   0.19
  13   6     0.00   0.01   0.00     0.33  -0.12  -0.22    -0.11   0.05   0.14
  14   1     0.01   0.01  -0.02     0.18  -0.01  -0.10    -0.12  -0.06   0.29
  15   1    -0.01   0.01   0.01     0.11  -0.01  -0.06     0.10  -0.14  -0.10
  16   1     0.01  -0.02   0.01     0.04  -0.13  -0.11    -0.10   0.29  -0.04
  17   6    -0.00   0.02   0.01     0.12   0.02   0.21     0.18  -0.00  -0.21
  18   1     0.02   0.01  -0.00     0.18   0.07   0.05     0.12  -0.03  -0.09
  19   1    -0.01   0.00   0.02    -0.01  -0.05   0.22     0.05  -0.02  -0.03
  20   1    -0.01   0.01  -0.01    -0.07  -0.02  -0.06     0.02   0.06  -0.10
  21   1    -0.00  -0.00  -0.00    -0.07  -0.06  -0.06     0.01  -0.05  -0.09
  22   6    -0.00   0.00  -0.00    -0.00   0.00   0.00    -0.00   0.00   0.00
  23   8    -0.00  -0.00   0.00     0.00   0.00  -0.00     0.00   0.00  -0.00
  24   7    -0.00  -0.00   0.00     0.00  -0.00   0.00     0.00  -0.00   0.00
  25   1     0.00   0.00  -0.00     0.00   0.00   0.00     0.00   0.00  -0.00
  26   1     0.00   0.00  -0.00     0.00   0.00  -0.00     0.00   0.00  -0.00
  27   7    -0.00  -0.00   0.00    -0.00   0.00  -0.00    -0.00  -0.00   0.00
  28   1    -0.00   0.00  -0.00    -0.00  -0.00   0.00    -0.00   0.00  -0.00
  29   1     0.00   0.00  -0.00    -0.00   0.00   0.00    -0.00   0.00  -0.00
  30   6     0.00  -0.00  -0.00    -0.02  -0.01   0.00    -0.01   0.00   0.01
  31   8     0.00  -0.00  -0.00    -0.01  -0.00   0.00    -0.01   0.00   0.01
  32   7    -0.00   0.00  -0.00     0.03   0.01  -0.01     0.03   0.00   0.01
  33   1    -0.00  -0.00  -0.00    -0.03  -0.01   0.00    -0.02  -0.01   0.01
  34   1    -0.00   0.00  -0.00    -0.06  -0.01   0.01    -0.04  -0.01   0.01
  35   7    -0.00  -0.00   0.00     0.03   0.01  -0.02     0.02   0.01  -0.01
  36   1     0.00   0.00   0.00    -0.04  -0.01   0.02    -0.03  -0.01   0.01
  37   1     0.00  -0.00   0.00    -0.03  -0.01   0.01    -0.02  -0.00   0.00
  38   6     0.01  -0.03   0.02    -0.02  -0.01  -0.00    -0.01  -0.00  -0.01
  39   8     0.00  -0.03  -0.02    -0.01  -0.01  -0.01     0.00  -0.00  -0.01
  40   7     0.02   0.08  -0.34    -0.01  -0.01   0.00    -0.01  -0.00   0.00
  41   1    -0.05  -0.07   0.39    -0.00  -0.00  -0.00    -0.00  -0.00   0.00
  42   1    -0.01  -0.13   0.78    -0.00  -0.00  -0.01    -0.00  -0.00   0.01
  43   7     0.00  -0.00   0.07    -0.01   0.01  -0.01    -0.00  -0.00   0.00
  44   1     0.04  -0.02  -0.27    -0.00   0.01   0.02     0.00  -0.00  -0.01
  45   1     0.01  -0.00  -0.07    -0.01   0.00   0.00    -0.00   0.00  -0.00
  46   6    -0.01   0.00   0.01     0.01   0.05   0.02     0.01   0.06   0.02
  47   8    -0.01   0.00   0.03     0.02   0.07   0.02     0.00   0.07   0.02
  48   7    -0.01  -0.01   0.01    -0.07   0.00  -0.02    -0.08   0.01  -0.02
  49   1     0.00   0.01  -0.04    -0.04   0.01   0.01    -0.05   0.01   0.01
  50   1    -0.00   0.00  -0.02    -0.02  -0.03  -0.00    -0.02  -0.03  -0.01
  51   7     0.00   0.01  -0.02     0.07   0.02   0.02     0.06   0.03   0.02
  52   1    -0.00  -0.00   0.01     0.02  -0.01  -0.00     0.02  -0.01  -0.00
  53   1    -0.00  -0.01   0.04     0.03   0.01  -0.01     0.02   0.01   0.00
                     34                     35                     36
                        a                      a                      a 
 Frequencies --   328.6662               344.5075               354.9209
 Red. masses --     3.6605                 3.4963                 3.7601
 Frc consts  --     0.0000                 0.0000                 0.0000
 IR Inten    --   496.9002                 1.2634               410.3496
 Raman Activ --     0.0000                 0.0000                 0.0000
 Depolar     --     0.0000                 0.0000                 0.0000
 Atom AN      X      Y      Z        X      Y      Z        X      Y      Z
   1   8     0.05   0.05   0.02    -0.19  -0.14  -0.04    -0.01  -0.01   0.00
   2   6     0.03  -0.04  -0.00    -0.11   0.21   0.03    -0.01   0.01   0.00
   3   1     0.02  -0.01  -0.03    -0.06   0.05   0.09    -0.00   0.00   0.01
   4   1     0.01  -0.04   0.00    -0.02   0.16  -0.01    -0.00   0.01  -0.00
   5   6    -0.01   0.01   0.01     0.04   0.03  -0.04    -0.00   0.00  -0.00
   6   1    -0.02   0.00  -0.00     0.06   0.02  -0.00     0.00   0.00  -0.00
   7   1     0.01   0.02   0.00    -0.01  -0.01  -0.01    -0.00   0.00  -0.00
   8   7    -0.03   0.01  -0.00     0.07  -0.06  -0.01     0.00  -0.00  -0.00
   9   6     0.00  -0.01  -0.03    -0.10   0.03   0.11    -0.00  -0.00   0.00
  10   1    -0.03  -0.01  -0.01    -0.29  -0.05   0.14    -0.02  -0.00   0.01
  11   1     0.02   0.02   0.01     0.07   0.28   0.08     0.00   0.01   0.00
  12   1     0.02  -0.03  -0.03     0.10  -0.18  -0.10     0.01  -0.01  -0.01
  13   6    -0.03  -0.00   0.01     0.09  -0.08  -0.05     0.00  -0.01  -0.00
  14   1    -0.01  -0.00   0.01     0.00  -0.07   0.17    -0.00  -0.01   0.02
  15   1    -0.00  -0.01  -0.00     0.13  -0.15  -0.13     0.01  -0.01  -0.01
  16   1    -0.01   0.01   0.00    -0.05   0.15  -0.10    -0.00   0.01  -0.01
  17   6    -0.05  -0.00   0.01     0.18  -0.04  -0.02     0.01  -0.00  -0.00
  18   1    -0.02  -0.00   0.00    -0.26  -0.08   0.06    -0.01  -0.00   0.00
  19   1    -0.01   0.00  -0.01     0.17   0.04  -0.32     0.01  -0.00  -0.01
  20   1    -0.01  -0.00   0.01     0.29   0.01   0.26     0.01   0.00   0.01
  21   1     0.01   0.01   0.02    -0.03  -0.03  -0.07    -0.01  -0.00   0.00
  22   6     0.00   0.00  -0.00     0.00   0.01  -0.01    -0.01  -0.08   0.07
  23   8    -0.00   0.00   0.00     0.00   0.01  -0.01    -0.00  -0.06   0.03
  24   7    -0.00  -0.01   0.00    -0.00  -0.01   0.01     0.10   0.24  -0.16
  25   1     0.00   0.01  -0.00     0.00   0.01  -0.01    -0.04  -0.21   0.13
  26   1     0.00   0.01  -0.01     0.01   0.02  -0.01    -0.12  -0.39   0.33
  27   7     0.00  -0.01   0.00     0.00  -0.01   0.01    -0.03   0.24  -0.20
  28   1     0.00   0.01  -0.01     0.00   0.02  -0.02    -0.02  -0.44   0.40
  29   1    -0.00   0.00  -0.00     0.00   0.01  -0.01    -0.01  -0.21   0.14
  30   6    -0.10  -0.02   0.03     0.00   0.00   0.00    -0.00   0.00   0.00
  31   8    -0.01  -0.02  -0.00     0.01   0.00  -0.00    -0.00  -0.00   0.00
  32   7     0.29   0.06  -0.04     0.01   0.00   0.01     0.01   0.00  -0.00
  33   1    -0.25  -0.07   0.06    -0.00  -0.00   0.00    -0.01  -0.00   0.00
  34   1    -0.53  -0.09   0.13    -0.01  -0.00   0.00    -0.01  -0.00   0.00
  35   7     0.26   0.10  -0.13     0.00   0.00  -0.01     0.01   0.00  -0.00
  36   1    -0.51  -0.13   0.22    -0.02  -0.01   0.01    -0.01  -0.00   0.01
  37   1    -0.25  -0.09   0.09    -0.00   0.00  -0.00    -0.01  -0.00   0.00
  38   6     0.01  -0.00  -0.00     0.01   0.00  -0.01     0.00   0.00   0.00
  39   8     0.01   0.00  -0.00     0.01   0.00  -0.01    -0.00   0.00   0.00
  40   7    -0.00   0.00   0.00    -0.00   0.01  -0.01     0.00   0.00  -0.01
  41   1    -0.00   0.00  -0.00    -0.00  -0.00   0.00    -0.00  -0.00   0.01
  42   1    -0.00   0.00  -0.00    -0.00  -0.00   0.04     0.00  -0.00   0.02
  43   7     0.00  -0.01   0.00     0.01  -0.00  -0.00     0.00  -0.00  -0.01
  44   1     0.00  -0.00  -0.01     0.00  -0.00  -0.00    -0.00   0.00   0.02
  45   1     0.00  -0.00  -0.00    -0.00  -0.00   0.00    -0.00  -0.00   0.01
  46   6    -0.00  -0.00  -0.01     0.00   0.01   0.02     0.00   0.01  -0.02
  47   8    -0.00  -0.01  -0.00     0.00   0.01   0.02     0.00  -0.01   0.01
  48   7     0.01  -0.00   0.01    -0.02   0.00  -0.02    -0.01  -0.01   0.01
  49   1     0.01   0.00  -0.01    -0.02  -0.01   0.03    -0.00   0.01  -0.02
  50   1     0.00   0.00  -0.00    -0.00  -0.01   0.01     0.00   0.01  -0.04
  51   7    -0.01  -0.00   0.00     0.02   0.01  -0.00    -0.01  -0.01   0.05
  52   1    -0.00   0.00  -0.00     0.00  -0.00   0.01     0.01   0.03  -0.08
  53   1     0.00   0.00  -0.01     0.00  -0.01   0.02     0.01   0.03  -0.11
                     37                     38                     39
                        a                      a                      a 
 Frequencies --   365.0384               373.9652               389.7332
 Red. masses --     4.4650                 5.4525                 3.3398
 Frc consts  --     0.0000                 0.0000                 0.0000
 IR Inten    --     3.8284                 1.6354               117.1131
 Raman Activ --     0.0000                 0.0000                 0.0000
 Depolar     --     0.0000                 0.0000                 0.0000
 Atom AN      X      Y      Z        X      Y      Z        X      Y      Z
   1   8    -0.07   0.05   0.05     0.09   0.11   0.01    -0.00  -0.02  -0.01
   2   6    -0.07  -0.12  -0.01     0.19  -0.03  -0.10    -0.00  -0.00  -0.01
   3   1    -0.06  -0.04  -0.02     0.15   0.01  -0.11    -0.00  -0.00   0.00
   4   1    -0.00  -0.04   0.01     0.04  -0.14  -0.01    -0.00   0.00  -0.00
   5   6    -0.01  -0.16   0.01    -0.09   0.33  -0.08     0.00  -0.01   0.01
   6   1    -0.02  -0.05   0.05    -0.09   0.09  -0.16     0.00  -0.00   0.02
   7   1     0.02  -0.08  -0.02    -0.04   0.24   0.03     0.00  -0.01  -0.00
   8   7     0.00   0.02  -0.02    -0.05   0.01   0.03     0.00   0.02   0.00
   9   6     0.30   0.15  -0.07    -0.25  -0.16   0.03     0.00  -0.00  -0.01
  10   1     0.03   0.03   0.03    -0.22  -0.07   0.01    -0.00  -0.00  -0.00
  11   1     0.18   0.12   0.05    -0.04   0.07   0.02     0.00  -0.00  -0.00
  12   1     0.14   0.03  -0.15    -0.00  -0.18  -0.01     0.00  -0.01  -0.00
  13   6     0.01   0.12  -0.19     0.03  -0.25   0.19     0.01   0.01  -0.01
  14   1    -0.09  -0.05   0.26     0.02  -0.12   0.30     0.01   0.01  -0.01
  15   1     0.24  -0.15  -0.26     0.07  -0.27  -0.08    -0.01   0.01   0.01
  16   1    -0.15   0.36  -0.22    -0.05   0.12  -0.01     0.01  -0.01   0.00
  17   6    -0.16  -0.05   0.24     0.07   0.05  -0.06    -0.01   0.01  -0.00
  18   1     0.09   0.07   0.07     0.23   0.04  -0.07    -0.01   0.00   0.00
  19   1    -0.12  -0.04   0.26    -0.01  -0.06   0.15    -0.00   0.01  -0.01
  20   1    -0.17  -0.10  -0.06    -0.11   0.08  -0.18     0.00   0.00   0.00
  21   1     0.01   0.02   0.02     0.01   0.02   0.04     0.00  -0.00  -0.01
  22   6     0.00  -0.00  -0.00     0.00   0.00  -0.00    -0.00  -0.00  -0.01
  23   8    -0.00  -0.00   0.00    -0.00  -0.00   0.00    -0.00   0.00  -0.01
  24   7    -0.00  -0.00  -0.00    -0.00  -0.00   0.00     0.00   0.01  -0.01
  25   1    -0.00   0.00  -0.00    -0.00   0.00  -0.00    -0.00  -0.01   0.00
  26   1     0.00   0.00  -0.00     0.00   0.01  -0.00    -0.01  -0.04   0.03
  27   7     0.00  -0.00   0.00     0.00  -0.00   0.00     0.00   0.01  -0.01
  28   1     0.00   0.00  -0.00     0.00   0.01  -0.01    -0.00  -0.03   0.03
  29   1     0.00   0.00  -0.00    -0.00   0.00  -0.00     0.01  -0.01   0.00
  30   6    -0.00   0.00   0.01    -0.00   0.00   0.00     0.00   0.00   0.00
  31   8    -0.02   0.00   0.01    -0.01   0.00   0.00     0.00  -0.00  -0.00
  32   7    -0.01   0.00   0.00    -0.01  -0.00   0.01    -0.00  -0.00   0.00
  33   1     0.00   0.00  -0.01     0.01   0.00  -0.00    -0.00  -0.00   0.00
  34   1     0.01   0.01  -0.00     0.02   0.00  -0.01     0.01  -0.00  -0.00
  35   7    -0.01  -0.00  -0.00    -0.01  -0.00   0.00    -0.00  -0.00   0.00
  36   1     0.03   0.00  -0.02     0.04   0.01  -0.02     0.00   0.00  -0.00
  37   1    -0.00   0.00  -0.01     0.00   0.01  -0.00     0.00   0.00  -0.00
  38   6     0.00   0.00  -0.01     0.01  -0.00  -0.01     0.02  -0.03  -0.11
  39   8     0.00   0.00  -0.02     0.01  -0.00  -0.01     0.06  -0.01  -0.10
  40   7     0.00   0.00   0.00    -0.01   0.01   0.01    -0.04  -0.05   0.21
  41   1     0.00   0.00  -0.01    -0.00   0.01  -0.01     0.01   0.04  -0.08
  42   1     0.00   0.00   0.01    -0.01  -0.00   0.01    -0.04   0.02  -0.20
  43   7     0.00  -0.00   0.01     0.00   0.00   0.01    -0.05   0.07   0.28
  44   1     0.00  -0.00  -0.01     0.01  -0.00  -0.03     0.08  -0.07  -0.83
  45   1     0.00  -0.00  -0.00    -0.00   0.00  -0.00     0.04  -0.00  -0.06
  46   6    -0.01  -0.02  -0.01    -0.00  -0.01  -0.01    -0.02   0.01   0.06
  47   8    -0.01  -0.01  -0.00    -0.00  -0.01  -0.01    -0.01   0.02   0.00
  48   7     0.02  -0.00   0.01     0.02  -0.00   0.01    -0.02   0.02  -0.01
  49   1     0.02  -0.00  -0.00     0.01   0.00  -0.01    -0.01  -0.01   0.03
  50   1     0.01   0.01   0.00     0.00   0.01  -0.00    -0.01  -0.00   0.01
  51   7    -0.02  -0.01  -0.01    -0.01  -0.01  -0.00     0.04   0.01  -0.08
  52   1    -0.01   0.00   0.00    -0.00   0.00   0.00    -0.00  -0.04   0.10
  53   1    -0.01  -0.00   0.00    -0.00  -0.00  -0.00    -0.01  -0.05   0.21
                     40                     41                     42
                        a                      a                      a 
 Frequencies --   427.4877               444.3355               444.7685
 Red. masses --     8.8915                 1.6010                 1.7533
 Frc consts  --     0.0000                 0.0000                 0.0000
 IR Inten    --     0.3393                 3.4336                11.7886
 Raman Activ --     0.0000                 0.0000                 0.0000
 Depolar     --     0.0000                 0.0000                 0.0000
 Atom AN      X      Y      Z        X      Y      Z        X      Y      Z
   1   8    -0.23  -0.09  -0.06    -0.01  -0.01  -0.00     0.00  -0.00  -0.00
   2   6     0.06   0.04  -0.17     0.00   0.00  -0.01     0.00  -0.00  -0.00
   3   1     0.02   0.01  -0.05    -0.00   0.00  -0.00     0.00  -0.00  -0.00
   4   1     0.03  -0.01  -0.03     0.00   0.00  -0.00     0.00  -0.00  -0.00
   5   6     0.13  -0.00   0.08     0.01  -0.01   0.01     0.00   0.00  -0.00
   6   1     0.06   0.00   0.08     0.01  -0.00   0.01     0.00   0.00  -0.00
   7   1    -0.01  -0.07   0.02     0.00  -0.02  -0.00     0.00   0.00  -0.00
   8   7     0.25   0.10   0.20     0.01   0.02   0.00     0.00  -0.00  -0.00
   9   6     0.01  -0.36   0.08    -0.00  -0.02  -0.01    -0.00   0.00   0.00
  10   1    -0.10  -0.10  -0.08    -0.01  -0.00  -0.01     0.00   0.00   0.00
  11   1    -0.00  -0.11   0.02    -0.00  -0.01  -0.00    -0.00   0.00  -0.00
  12   1     0.04  -0.22   0.08     0.00  -0.01   0.00    -0.00   0.00   0.00
  13   6     0.21   0.28   0.10     0.01   0.01   0.01    -0.00   0.00   0.00
  14   1    -0.00   0.07   0.04     0.01   0.00  -0.00    -0.00   0.00   0.00
  15   1     0.11   0.09   0.01    -0.00   0.00   0.00    -0.00   0.00   0.00
  16   1     0.04   0.13   0.01     0.01  -0.00   0.01    -0.00   0.00   0.00
  17   6    -0.35   0.07  -0.20    -0.02   0.02  -0.01    -0.00  -0.00   0.00
  18   1    -0.12  -0.12  -0.12    -0.01  -0.00  -0.00     0.00  -0.00   0.00
  19   1    -0.19   0.19  -0.06    -0.01   0.01  -0.01    -0.00  -0.00   0.00
  20   1    -0.16  -0.03  -0.11    -0.00  -0.00   0.00    -0.00  -0.00  -0.00
  21   1    -0.05  -0.02  -0.03    -0.00  -0.00  -0.00     0.00   0.00  -0.00
  22   6    -0.00   0.00  -0.00     0.00   0.00  -0.00     0.07   0.00   0.02
  23   8    -0.00   0.00  -0.00     0.00   0.00   0.00     0.08   0.00   0.02
  24   7     0.00   0.00  -0.00    -0.00  -0.00   0.01    -0.05  -0.05   0.11
  25   1     0.00  -0.00   0.00    -0.00   0.02  -0.02    -0.05   0.38  -0.37
  26   1    -0.00  -0.00   0.00    -0.01  -0.02   0.03    -0.15  -0.24   0.37
  27   7     0.00   0.00   0.00     0.00   0.00  -0.01     0.01   0.06  -0.14
  28   1    -0.00  -0.00   0.01     0.00   0.01  -0.02     0.03   0.19  -0.36
  29   1     0.00   0.00  -0.00    -0.01  -0.02   0.02    -0.18  -0.38   0.29
  30   6    -0.01   0.01  -0.02     0.03  -0.02   0.06    -0.00   0.00  -0.00
  31   8    -0.01   0.01  -0.02     0.03  -0.03   0.06    -0.00   0.00  -0.00
  32   7     0.01  -0.03   0.02    -0.12   0.04   0.04     0.01  -0.00  -0.00
  33   1    -0.00  -0.01   0.03     0.41   0.13  -0.25    -0.03  -0.01   0.02
  34   1     0.02  -0.03  -0.01    -0.43   0.04   0.14     0.03  -0.00  -0.01
  35   7     0.01   0.02   0.03     0.10  -0.02  -0.08    -0.01   0.00   0.00
  36   1    -0.02   0.02   0.02     0.40  -0.00  -0.23    -0.03  -0.00   0.02
  37   1     0.02  -0.01   0.02    -0.51  -0.06   0.07     0.03   0.00  -0.00
  38   6     0.01  -0.00   0.00     0.00  -0.00   0.00    -0.00   0.00   0.00
  39   8    -0.01  -0.01   0.00    -0.00  -0.00   0.00    -0.00   0.00   0.00
  40   7    -0.01   0.01  -0.01    -0.00   0.00  -0.00     0.01   0.00  -0.01
  41   1    -0.00   0.01   0.01    -0.00   0.00   0.00     0.00  -0.00   0.01
  42   1    -0.01  -0.00   0.00    -0.00  -0.00   0.00     0.00   0.00   0.00
  43   7     0.01   0.00  -0.01     0.00   0.00  -0.00    -0.00  -0.00  -0.00
  44   1     0.00   0.01   0.03     0.00   0.00   0.01    -0.00   0.00   0.02
  45   1    -0.00   0.00   0.00    -0.00   0.00  -0.00    -0.00  -0.00  -0.01
  46   6     0.01   0.00   0.01    -0.00  -0.00   0.00    -0.02  -0.00   0.01
  47   8     0.01   0.01  -0.00    -0.00   0.00  -0.00    -0.02   0.00  -0.02
  48   7    -0.01  -0.00  -0.01    -0.00   0.00  -0.00     0.01   0.03  -0.00
  49   1    -0.01  -0.01   0.02    -0.00  -0.00   0.01     0.01  -0.02   0.04
  50   1    -0.00  -0.01   0.00    -0.00  -0.00   0.00    -0.00   0.02   0.02
  51   7     0.01   0.01  -0.00     0.00   0.00  -0.01     0.02  -0.02  -0.02
  52   1     0.00   0.00   0.01    -0.00  -0.00   0.01     0.00  -0.03   0.03
  53   1    -0.00  -0.00   0.02    -0.00  -0.00   0.02     0.01  -0.01   0.06
                     43                     44                     45
                        a                      a                      a 
 Frequencies --   453.1171               455.2634               457.4399
 Red. masses --     3.4364                 7.5514                 8.5064
 Frc consts  --     0.0000                 0.0000                 0.0000
 IR Inten    --   487.2374               108.9977                 3.8423
 Raman Activ --     0.0000                 0.0000                 0.0000
 Depolar     --     0.0000                 0.0000                 0.0000
 Atom AN      X      Y      Z        X      Y      Z        X      Y      Z
   1   8    -0.00  -0.00   0.00     0.04   0.03   0.00     0.00  -0.01  -0.00
   2   6     0.09   0.02  -0.05    -0.06  -0.04   0.04     0.01   0.00  -0.00
   3   1     0.01   0.00  -0.02     0.00  -0.01  -0.01     0.00   0.00   0.00
   4   1     0.04   0.01  -0.00    -0.04  -0.04   0.01     0.00   0.00  -0.00
   5   6     0.10  -0.03  -0.07    -0.12   0.05   0.07     0.01   0.00  -0.01
   6   1     0.04  -0.01   0.01    -0.06   0.02  -0.04     0.00   0.00  -0.01
   7   1     0.03  -0.03  -0.03    -0.04   0.07   0.04     0.00   0.00  -0.00
   8   7     0.03  -0.01  -0.09    -0.06  -0.05   0.11     0.01  -0.01  -0.01
   9   6    -0.09   0.05  -0.01     0.10  -0.02   0.06    -0.01   0.01   0.01
  10   1    -0.01   0.01   0.02     0.05  -0.00   0.01    -0.00   0.00   0.01
  11   1    -0.05   0.03  -0.03     0.06  -0.02   0.05    -0.01   0.01  -0.00
  12   1    -0.04   0.02   0.02     0.03   0.02  -0.02    -0.00   0.00   0.00
  13   6    -0.05   0.02   0.10    -0.00  -0.02  -0.13    -0.01   0.01   0.01
  14   1    -0.04  -0.00   0.04     0.01   0.00  -0.06    -0.01   0.00   0.00
  15   1    -0.04  -0.01   0.03     0.04   0.02  -0.04    -0.00   0.01   0.00
  16   1     0.02   0.03   0.06    -0.04  -0.03  -0.07     0.00   0.01   0.01
  17   6    -0.05  -0.05   0.08     0.07   0.01  -0.07    -0.01  -0.02   0.00
  18   1    -0.01   0.02   0.04     0.04  -0.03  -0.04    -0.00  -0.00   0.00
  19   1    -0.03  -0.02   0.05     0.04  -0.01  -0.05    -0.00  -0.00   0.00
  20   1    -0.02  -0.06   0.02     0.02   0.07  -0.03    -0.00  -0.01   0.00
  21   1     0.04   0.02  -0.05     0.03   0.02  -0.01    -0.00  -0.00  -0.00
  22   6    -0.01  -0.01  -0.05    -0.00  -0.00  -0.02     0.30   0.02   0.08
  23   8    -0.03   0.03  -0.01    -0.01   0.01  -0.00     0.33   0.02   0.09
  24   7    -0.00   0.00  -0.05    -0.00   0.00  -0.02    -0.29   0.26   0.15
  25   1    -0.00   0.01  -0.02    -0.00   0.01  -0.01    -0.27  -0.15   0.01
  26   1    -0.03  -0.08   0.06    -0.01  -0.03   0.03    -0.10   0.29   0.13
  27   7     0.03   0.01   0.01     0.01   0.00   0.00    -0.14  -0.29  -0.26
  28   1    -0.01  -0.08   0.15    -0.00  -0.03   0.06     0.01  -0.30  -0.15
  29   1     0.07   0.08  -0.07     0.03   0.03  -0.03    -0.24   0.12  -0.14
  30   6     0.03  -0.03   0.07    -0.10   0.09  -0.23    -0.00   0.00  -0.00
  31   8     0.03  -0.03   0.08    -0.11   0.10  -0.25    -0.00   0.00  -0.00
  32   7    -0.01   0.11  -0.02     0.05  -0.34   0.06     0.00  -0.00   0.00
  33   1    -0.06   0.01  -0.06     0.19  -0.03   0.18     0.00  -0.00   0.00
  34   1     0.01   0.09   0.01    -0.06  -0.28  -0.04    -0.00  -0.00  -0.00
  35   7    -0.03  -0.07  -0.09     0.09   0.21   0.27     0.00   0.00   0.00
  36   1    -0.05  -0.08  -0.02     0.08   0.25   0.12     0.00   0.00   0.00
  37   1     0.02   0.04  -0.07    -0.02  -0.13   0.23    -0.00  -0.00   0.00
  38   6    -0.00   0.01   0.01     0.00  -0.00   0.00    -0.01   0.01   0.00
  39   8    -0.02   0.00   0.01    -0.01  -0.01   0.00     0.00   0.02   0.00
  40   7     0.02   0.01  -0.05     0.00   0.01  -0.03     0.02  -0.01   0.00
  41   1    -0.01  -0.00   0.10    -0.01   0.01   0.09     0.01  -0.02  -0.02
  42   1    -0.00  -0.00  -0.00    -0.02  -0.00  -0.04     0.02   0.00   0.01
  43   7     0.01  -0.03  -0.03     0.01  -0.00  -0.00    -0.01  -0.01  -0.00
  44   1    -0.02   0.01   0.20    -0.00   0.01   0.09    -0.01  -0.01  -0.00
  45   1    -0.00   0.00  -0.06    -0.00   0.01  -0.03     0.00  -0.01  -0.00
  46   6    -0.04  -0.03   0.10    -0.02  -0.02   0.04    -0.06   0.00  -0.01
  47   8    -0.01   0.02  -0.12    -0.01   0.01  -0.05    -0.06   0.01  -0.01
  48   7     0.02   0.08  -0.08     0.02   0.04  -0.03     0.01   0.05   0.02
  49   1    -0.05  -0.14   0.39    -0.01  -0.06   0.15     0.04   0.00  -0.00
  50   1    -0.01  -0.04   0.14    -0.00  -0.01   0.06    -0.00   0.04   0.03
  51   7     0.05   0.02  -0.17     0.01  -0.00  -0.07     0.03  -0.04  -0.02
  52   1    -0.03  -0.10   0.28    -0.01  -0.04   0.11     0.01  -0.04  -0.01
  53   1    -0.05  -0.15   0.56    -0.02  -0.06   0.22     0.03  -0.01   0.04
                     46                     47                     48
                        a                      a                      a 
 Frequencies --   459.9424               465.2168               475.1069
 Red. masses --     7.1637                 3.7003                 7.8609
 Frc consts  --     0.0000                 0.0000                 0.0000
 IR Inten    --     6.6933                 8.5038                12.6717
 Raman Activ --     0.0000                 0.0000                 0.0000
 Depolar     --     0.0000                 0.0000                 0.0000
 Atom AN      X      Y      Z        X      Y      Z        X      Y      Z
   1   8    -0.02  -0.02   0.01     0.01   0.02  -0.00     0.02   0.04   0.00
   2   6     0.17   0.08  -0.09    -0.09  -0.04   0.04     0.02   0.02  -0.00
   3   1     0.02   0.02   0.00    -0.00  -0.01  -0.01     0.05   0.01  -0.02
   4   1     0.09   0.06  -0.01    -0.05  -0.05   0.00    -0.01  -0.04  -0.00
   5   6     0.20  -0.02  -0.22    -0.12   0.04   0.12    -0.11   0.18  -0.05
   6   1     0.07  -0.00  -0.06    -0.05   0.01   0.01    -0.07   0.06  -0.19
   7   1     0.04  -0.00  -0.05    -0.03   0.03   0.04    -0.07   0.21   0.06
   8   7     0.13  -0.13  -0.18    -0.07   0.02   0.13     0.04  -0.28   0.14
   9   6    -0.16   0.15   0.07     0.11  -0.09   0.01     0.13   0.02   0.29
  10   1    -0.03   0.02   0.12     0.03  -0.02  -0.04     0.07  -0.00   0.16
  11   1    -0.11   0.11  -0.05     0.07  -0.06   0.04     0.04   0.06   0.08
  12   1    -0.07   0.07   0.06     0.04  -0.02  -0.03     0.03   0.06   0.03
  13   6    -0.13   0.13   0.19     0.05  -0.04  -0.13    -0.12   0.19  -0.16
  14   1    -0.14   0.02   0.06     0.06   0.00  -0.06    -0.14   0.05  -0.12
  15   1    -0.08   0.05   0.08     0.05   0.00  -0.04     0.06   0.17  -0.02
  16   1     0.04   0.11   0.12    -0.03  -0.06  -0.08    -0.06   0.08  -0.07
  17   6    -0.10  -0.24   0.13     0.06   0.09  -0.10     0.01  -0.26  -0.18
  18   1    -0.04  -0.00   0.07     0.03  -0.02  -0.06     0.03  -0.14  -0.09
  19   1    -0.07  -0.05   0.10     0.04   0.02  -0.06    -0.01  -0.04  -0.07
  20   1    -0.05  -0.18   0.03     0.02   0.10  -0.03    -0.01  -0.01  -0.08
  21   1    -0.02  -0.01   0.01     0.02   0.01  -0.01    -0.01   0.00   0.01
  22   6    -0.02   0.00   0.00    -0.01  -0.00  -0.01    -0.01   0.00   0.00
  23   8    -0.02  -0.01  -0.01    -0.01   0.01  -0.00    -0.01  -0.00  -0.01
  24   7     0.02  -0.01  -0.00     0.00  -0.01  -0.01     0.01  -0.00  -0.00
  25   1     0.02   0.00   0.01     0.00   0.01  -0.01     0.01  -0.00   0.01
  26   1     0.01  -0.01  -0.02    -0.01  -0.03   0.02     0.01  -0.00  -0.01
  27   7     0.00   0.02   0.02     0.01   0.01   0.01    -0.00   0.01   0.01
  28   1    -0.00   0.03  -0.01    -0.00  -0.01   0.04    -0.00   0.01   0.00
  29   1     0.01  -0.02   0.02     0.02   0.02  -0.02     0.00  -0.00   0.01
  30   6    -0.04   0.04  -0.10     0.02  -0.02   0.04     0.03  -0.03   0.06
  31   8    -0.04   0.05  -0.11     0.02  -0.02   0.05     0.03  -0.03   0.08
  32   7     0.02  -0.15   0.02    -0.01   0.06  -0.01    -0.02   0.09  -0.01
  33   1     0.08  -0.01   0.07    -0.03   0.01  -0.03    -0.03   0.01  -0.06
  34   1    -0.03  -0.12  -0.02     0.01   0.05   0.01     0.01   0.08   0.02
  35   7     0.04   0.09   0.11    -0.01  -0.04  -0.05    -0.01  -0.07  -0.07
  36   1     0.04   0.11   0.05    -0.02  -0.05  -0.02    -0.01  -0.07  -0.03
[...]
  44   1     0.00  -0.01   0.00     0.01  -0.01   0.00    -0.00   0.00  -0.00
  45   1     0.01   0.02   0.00     0.02   0.04   0.01    -0.00  -0.00  -0.00
  46   6     0.00   0.01   0.00     0.01  -0.00  -0.00    -0.00  -0.00  -0.00
  47   8    -0.00  -0.00  -0.00    -0.01   0.00  -0.00     0.00   0.00   0.00
  48   7    -0.10   0.01  -0.00     0.19  -0.04   0.00     0.00  -0.00   0.00
  49   1    -0.05  -0.10  -0.05     0.12   0.22   0.10     0.00   0.00   0.00
  50   1     0.43   0.04   0.05    -0.81  -0.08  -0.10    -0.00  -0.00  -0.00
  51   7     0.18   0.05   0.03     0.09   0.04   0.02     0.00  -0.00   0.00
  52   1    -0.82   0.02  -0.09    -0.41   0.01  -0.04     0.00  -0.00  -0.00
  53   1     0.15  -0.23  -0.04     0.09  -0.14  -0.03    -0.00   0.00   0.00
                    142                    143                    144
                        a                      a                      a 
 Frequencies --  3496.7393              3499.4057              3499.7067
 Red. masses --     1.4527                 1.4384                 1.4637
 Frc consts  --     0.0000                 0.0000                 0.0000
 IR Inten    --    13.2074                37.9145                 4.0578
 Raman Activ --     0.0000                 0.0000                 0.0000
 Depolar     --     0.0000                 0.0000                 0.0000
 Atom AN      X      Y      Z        X      Y      Z        X      Y      Z
   1   8     0.00  -0.00  -0.00    -0.00   0.00   0.00    -0.00  -0.00  -0.00
   2   6     0.00   0.00  -0.00    -0.00  -0.00  -0.00     0.00   0.00   0.00
   3   1    -0.00  -0.00   0.00     0.00   0.00   0.00     0.00  -0.00   0.00
   4   1     0.00   0.00   0.00    -0.00   0.00   0.00     0.00   0.00  -0.00
   5   6     0.00  -0.00  -0.00    -0.00   0.00  -0.00    -0.00   0.00  -0.00
   6   1    -0.00   0.00  -0.00    -0.00   0.00  -0.00    -0.00  -0.00  -0.00
   7   1    -0.00  -0.00   0.00     0.00  -0.00   0.00     0.00  -0.00   0.00
   8   7     0.00   0.00   0.00    -0.00   0.00  -0.00     0.00  -0.00  -0.00
   9   6     0.00  -0.00  -0.00    -0.00   0.00  -0.00    -0.00  -0.00  -0.00
  10   1    -0.00   0.00   0.00    -0.00  -0.00  -0.00    -0.00  -0.00  -0.00
  11   1     0.00  -0.00  -0.00    -0.00  -0.00   0.00     0.00  -0.00  -0.00
  12   1     0.00  -0.00  -0.00     0.00   0.00   0.00     0.00   0.00   0.00
  13   6     0.00  -0.00  -0.00    -0.00   0.00  -0.00    -0.00   0.00  -0.00
  14   1    -0.00   0.00   0.00    -0.00   0.00  -0.00    -0.00   0.00   0.00
  15   1     0.00  -0.00   0.00     0.00  -0.00   0.00     0.00  -0.00   0.00
  16   1     0.00  -0.00  -0.00    -0.00   0.00   0.00     0.00  -0.00  -0.00
  17   6    -0.00  -0.00   0.00     0.00  -0.00  -0.00    -0.00  -0.00  -0.00
  18   1    -0.00  -0.00  -0.00     0.00  -0.00  -0.00     0.00  -0.00   0.00
  19   1     0.00   0.00   0.00     0.00   0.00   0.00     0.00   0.00   0.00
  20   1    -0.00  -0.00  -0.00    -0.00  -0.00   0.00     0.00  -0.00  -0.00
  21   1    -0.00   0.00   0.00     0.00  -0.00  -0.00    -0.00   0.00  -0.00
  22   6     0.00  -0.00   0.00     0.00  -0.00   0.00     0.00   0.00   0.00
  23   8    -0.00   0.00  -0.00    -0.00   0.00  -0.00    -0.01  -0.00  -0.00
  24   7     0.00   0.00   0.00     0.00   0.00   0.00     0.04   0.06   0.12
  25   1     0.00  -0.00  -0.00     0.00  -0.00  -0.00     0.35  -0.26  -0.27
  26   1    -0.00   0.00  -0.00    -0.01   0.00  -0.00    -0.50   0.02  -0.17
  27   7    -0.00   0.00   0.00     0.00  -0.00  -0.00     0.09  -0.05  -0.07
  28   1     0.00   0.00   0.00    -0.00  -0.00  -0.00    -0.45  -0.07  -0.09
  29   1    -0.00  -0.00  -0.00     0.00   0.00   0.00     0.12   0.25   0.35
  30   6    -0.00   0.00  -0.00    -0.00   0.00   0.00     0.00  -0.00  -0.00
  31   8     0.00  -0.00   0.00     0.00   0.00  -0.00    -0.00  -0.00   0.00
  32   7     0.00   0.00   0.00     0.00   0.07   0.12    -0.00  -0.00  -0.00
  33   1     0.00  -0.00   0.00     0.14  -0.48   0.04    -0.00   0.01  -0.00
  34   1    -0.00   0.00  -0.00    -0.15   0.21  -0.49     0.00  -0.00   0.01
  35   7     0.00  -0.00   0.00    -0.05   0.11  -0.02     0.00  -0.00   0.00
  36   1    -0.00   0.00  -0.00     0.22  -0.15   0.40    -0.00   0.00  -0.00
  37   1     0.00   0.00   0.00    -0.04  -0.26  -0.33     0.00   0.00   0.00
  38   6    -0.00   0.00   0.00    -0.00   0.00  -0.00     0.00  -0.00   0.00
  39   8     0.00  -0.00  -0.00     0.00  -0.00   0.00     0.00   0.00  -0.00
  40   7     0.08   0.16   0.05    -0.00  -0.00  -0.00     0.00   0.00   0.00
  41   1    -0.65   0.05  -0.08     0.00  -0.00   0.00    -0.00   0.00  -0.00
  42   1     0.35  -0.64  -0.11    -0.00   0.00   0.00     0.00  -0.00  -0.00
  43   7     0.00  -0.01   0.00     0.00   0.00   0.00     0.00  -0.00   0.00
  44   1    -0.02   0.03  -0.01    -0.00   0.00  -0.00    -0.00   0.00  -0.00
  45   1     0.01   0.01   0.00    -0.00  -0.00  -0.00    -0.00  -0.00  -0.00
  46   6     0.00   0.00   0.00    -0.00  -0.00  -0.00     0.00  -0.00   0.00
  47   8    -0.00  -0.00  -0.00     0.00   0.00   0.00     0.00   0.00   0.00
  48   7    -0.00   0.00   0.00    -0.00  -0.00  -0.00    -0.00   0.00   0.00
  49   1    -0.00  -0.00  -0.00     0.00   0.00   0.00    -0.01  -0.01  -0.01
  50   1     0.00   0.00   0.00     0.00  -0.00  -0.00     0.02   0.00   0.00
  51   7     0.00  -0.00  -0.00     0.00  -0.00  -0.00     0.00  -0.01  -0.00
  52   1     0.00  -0.00   0.00    -0.00  -0.00  -0.00     0.02  -0.00   0.00
  53   1    -0.00   0.00   0.00    -0.00   0.00   0.00    -0.02   0.03   0.01
                    145                    146                    147
                        a                      a                      a 
 Frequencies --  3503.4556              3526.5120              3527.2790
 Red. masses --     1.4622                 2.0644                 1.9173
 Frc consts  --     0.0000                 0.0000                 0.0000
 IR Inten    --     7.8200               108.8809                11.4060
 Raman Activ --     0.0000                 0.0000                 0.0000
 Depolar     --     0.0000                 0.0000                 0.0000
 Atom AN      X      Y      Z        X      Y      Z        X      Y      Z
   1   8     0.00  -0.00   0.00     0.00  -0.00  -0.00     0.00  -0.00  -0.00
   2   6    -0.00  -0.00  -0.00     0.00  -0.00   0.00     0.00  -0.00   0.00
   3   1    -0.00  -0.00  -0.00     0.00  -0.00   0.00     0.00   0.00   0.00
   4   1     0.00   0.00  -0.00     0.00   0.00  -0.00     0.00   0.00  -0.00
   5   6     0.00  -0.00   0.00    -0.00  -0.00  -0.00    -0.00   0.00  -0.00
   6   1     0.00  -0.00   0.00    -0.00   0.00  -0.00     0.00  -0.00   0.00
   7   1    -0.00   0.00  -0.00    -0.00  -0.00   0.00     0.00   0.00   0.00
   8   7    -0.00   0.00  -0.00    -0.00  -0.00   0.00     0.00   0.00  -0.00
   9   6     0.00  -0.00  -0.00    -0.00  -0.00  -0.00     0.00   0.00   0.00
  10   1    -0.00   0.00   0.00    -0.00   0.00   0.00     0.00  -0.00  -0.00
  11   1     0.00  -0.00   0.00    -0.00  -0.00   0.00    -0.00   0.00   0.00
  12   1    -0.00  -0.00  -0.00     0.00   0.00  -0.00    -0.00   0.00  -0.00
  13   6     0.00  -0.00   0.00     0.00  -0.00  -0.00    -0.00   0.00  -0.00
  14   1     0.00   0.00   0.00    -0.00   0.00   0.00     0.00  -0.00   0.00
  15   1    -0.00   0.00  -0.00     0.00  -0.00   0.00     0.00  -0.00   0.00
  16   1    -0.00  -0.00   0.00    -0.00   0.00   0.00     0.00   0.00   0.00
  17   6     0.00  -0.00   0.00    -0.00   0.00  -0.00    -0.00  -0.00  -0.00
  18   1    -0.00   0.00  -0.00     0.00  -0.00   0.00     0.00  -0.00   0.00
  19   1     0.00   0.00   0.00     0.00  -0.00  -0.00     0.00   0.00   0.00
  20   1    -0.00  -0.00   0.00    -0.00  -0.00   0.00    -0.00   0.00   0.00
  21   1    -0.00   0.00   0.00    -0.00   0.01   0.00    -0.00   0.01   0.00
  22   6    -0.00   0.00  -0.00     0.00   0.00   0.00     0.00   0.00   0.00
  23   8     0.00  -0.00   0.00    -0.00   0.00  -0.00    -0.00   0.00  -0.00
  24   7    -0.00  -0.00  -0.00    -0.00  -0.00  -0.00    -0.00  -0.00  -0.00
  25   1    -0.00   0.00   0.00    -0.00   0.00   0.00    -0.00   0.00   0.00
  26   1     0.00  -0.00   0.00     0.02  -0.00   0.01     0.00  -0.00   0.00
  27   7    -0.00   0.00   0.00    -0.00   0.00   0.00    -0.00   0.00   0.00
  28   1     0.00   0.00   0.00     0.01   0.00   0.00     0.00   0.00   0.00
  29   1    -0.00  -0.00  -0.00    -0.00  -0.00  -0.00    -0.00  -0.00  -0.00
  30   6    -0.00   0.00  -0.00     0.00  -0.00   0.00     0.00  -0.00   0.00
  31   8     0.00  -0.00   0.00    -0.00   0.00  -0.00    -0.00   0.00  -0.00
  32   7    -0.00  -0.07  -0.10    -0.00  -0.00  -0.00    -0.00  -0.00  -0.00
  33   1    -0.12   0.42  -0.03    -0.00   0.00  -0.00    -0.00   0.00  -0.00
  34   1     0.13  -0.18   0.41     0.00  -0.00   0.00     0.00  -0.00   0.00
  35   7    -0.05   0.13  -0.02    -0.00   0.00  -0.00    -0.00   0.00  -0.00
  36   1     0.25  -0.17   0.46     0.00  -0.00   0.00     0.00  -0.00   0.00
  37   1    -0.05  -0.31  -0.40     0.00  -0.00  -0.00    -0.00  -0.00  -0.00
  38   6    -0.00   0.00   0.00    -0.00  -0.00   0.00     0.00   0.01  -0.00
  39   8     0.00  -0.00  -0.00     0.00   0.00  -0.00     0.00  -0.00   0.00
  40   7     0.00   0.00   0.00    -0.00   0.00  -0.00     0.02  -0.01   0.00
  41   1    -0.00   0.00  -0.00     0.02  -0.00   0.00    -0.08   0.00  -0.01
  42   1     0.00  -0.00  -0.00     0.00  -0.00  -0.00    -0.01   0.02   0.00
  43   7     0.00  -0.00   0.00     0.02  -0.05   0.01    -0.09   0.24  -0.03
  44   1    -0.00   0.00  -0.00    -0.09   0.18  -0.03     0.40  -0.83   0.12
  45   1     0.00   0.00   0.00     0.01   0.01   0.00    -0.07  -0.07  -0.02
  46   6    -0.00   0.00  -0.00     0.01  -0.00  -0.00     0.00  -0.00   0.00
  47   8     0.00  -0.00   0.00     0.00   0.00   0.00    -0.00  -0.00  -0.00
  48   7     0.00  -0.00   0.00    -0.01  -0.02  -0.01    -0.00  -0.00  -0.00
  49   1     0.00   0.00   0.00     0.03   0.06   0.03     0.01   0.02   0.01
  50   1    -0.00  -0.00  -0.00    -0.01  -0.00  -0.00     0.01   0.00   0.00
  51   7    -0.00   0.00   0.00     0.19  -0.20  -0.03     0.04  -0.04  -0.01
  52   1     0.00   0.00   0.00    -0.29  -0.01  -0.03    -0.06  -0.00  -0.01
  53   1     0.00  -0.00  -0.00    -0.44   0.75   0.14    -0.10   0.16   0.03
                    148                    149                    150
                        a                      a                      a 
 Frequencies --  3559.0782              3560.7599              3562.0816
 Red. masses --     2.1887                 2.0426                 2.1737
 Frc consts  --     0.0000                 0.0000                 0.0000
 IR Inten    --    12.8479                41.2246                 6.6123
 Raman Activ --     0.0000                 0.0000                 0.0000
 Depolar     --     0.0000                 0.0000                 0.0000
 Atom AN      X      Y      Z        X      Y      Z        X      Y      Z
   1   8     0.00  -0.00  -0.00     0.00  -0.00  -0.00     0.00  -0.00  -0.00
   2   6     0.00   0.00   0.00     0.00  -0.00   0.00    -0.00  -0.00  -0.00
   3   1     0.00  -0.00  -0.00     0.00  -0.00  -0.00     0.00   0.00   0.00
   4   1     0.00  -0.00  -0.00     0.00   0.00  -0.00     0.00   0.00  -0.00
   5   6    -0.00  -0.00  -0.00    -0.00   0.00  -0.00    -0.00   0.00  -0.00
   6   1    -0.00   0.00   0.00    -0.00  -0.00  -0.00    -0.00  -0.00   0.00
   7   1    -0.00  -0.00   0.00     0.00  -0.00   0.00     0.00  -0.00   0.00
   8   7    -0.00  -0.00  -0.00    -0.00   0.00   0.00    -0.00  -0.00  -0.00
   9   6    -0.00  -0.00   0.00    -0.00   0.00   0.00    -0.00   0.00   0.00
  10   1    -0.00   0.00   0.00    -0.00  -0.00  -0.00    -0.00  -0.00  -0.00
  11   1     0.00  -0.00  -0.00     0.00  -0.00  -0.00     0.00   0.00  -0.00
  12   1     0.00   0.00   0.00     0.00   0.00   0.00    -0.00   0.00   0.00
  13   6     0.00  -0.00  -0.00    -0.00   0.00   0.00    -0.00   0.00   0.00
  14   1    -0.00   0.00   0.00     0.00  -0.00  -0.00     0.00  -0.00  -0.00
  15   1     0.00  -0.00   0.00     0.00  -0.00  -0.00     0.00   0.00   0.00
  16   1     0.00  -0.00   0.00    -0.00   0.00   0.00     0.00   0.00   0.00
  17   6    -0.00   0.00  -0.00     0.00  -0.00  -0.00    -0.00  -0.00  -0.00
  18   1     0.00  -0.00   0.00     0.00  -0.00  -0.00     0.00  -0.00   0.00
  19   1     0.00   0.00   0.00     0.00   0.00   0.00     0.00   0.00   0.00
  20   1     0.00  -0.00   0.00    -0.00  -0.00   0.00     0.00   0.00   0.00
  21   1    -0.00   0.00   0.00    -0.00   0.00   0.00    -0.00   0.00   0.00
  22   6     0.00  -0.01  -0.01     0.00   0.00   0.00    -0.00   0.00  -0.00
  23   8    -0.00   0.00   0.00    -0.00  -0.00  -0.00    -0.00  -0.00  -0.00
  24   7     0.19  -0.07  -0.03    -0.03   0.01   0.00    -0.00   0.00   0.00
  25   1    -0.32   0.24   0.27     0.05  -0.04  -0.04     0.00  -0.00  -0.00
  26   1    -0.41   0.01  -0.16     0.07  -0.00   0.03     0.01  -0.00   0.00
  27   7    -0.15  -0.09  -0.13    -0.01  -0.00  -0.01    -0.00  -0.00  -0.00
  28   1     0.45   0.06   0.07     0.03   0.00   0.00     0.00   0.00   0.00
  29   1     0.12   0.28   0.41     0.00   0.01   0.01     0.00   0.00   0.00
  30   6     0.00   0.00   0.00     0.00  -0.00   0.00     0.00   0.00   0.00
  31   8    -0.00  -0.00  -0.00    -0.00   0.00  -0.00    -0.00   0.00  -0.00
  32   7    -0.00   0.00  -0.00     0.00  -0.00   0.00    -0.00   0.00  -0.00
  33   1     0.00  -0.00   0.00    -0.00   0.00  -0.00     0.00  -0.00   0.00
  34   1     0.00  -0.00   0.00    -0.00   0.00  -0.00     0.00  -0.00   0.00
  35   7     0.00   0.00   0.00    -0.00  -0.00  -0.00    -0.00   0.00  -0.00
  36   1    -0.00   0.00  -0.00     0.00  -0.00   0.00     0.00  -0.00   0.00
  37   1    -0.00  -0.00  -0.00     0.00   0.00   0.00     0.00   0.00   0.00
  38   6    -0.00   0.00   0.00     0.00  -0.00  -0.00    -0.01   0.01  -0.00
  39   8     0.00  -0.00  -0.00    -0.00   0.00   0.00     0.00  -0.00  -0.00
  40   7    -0.00   0.00  -0.00     0.00  -0.00  -0.00    -0.26   0.15   0.00
  41   1     0.00  -0.00   0.00    -0.01   0.00  -0.00     0.71  -0.02   0.09
  42   1     0.00  -0.00  -0.00    -0.01   0.01   0.00     0.27  -0.56  -0.10
  43   7     0.00   0.00  -0.00     0.00   0.00   0.00    -0.01   0.02  -0.00
  44   1     0.00  -0.00   0.00     0.00  -0.00   0.00     0.03  -0.06   0.01
  45   1    -0.00  -0.00  -0.00    -0.01  -0.01  -0.00    -0.01  -0.01  -0.00
  46   6     0.00   0.00   0.00     0.01   0.00   0.00     0.00   0.00   0.00
  47   8    -0.00  -0.00  -0.00    -0.00  -0.00  -0.00    -0.00  -0.00  -0.00
  48   7     0.01   0.01   0.00     0.16   0.21   0.10     0.00   0.00   0.00
  49   1    -0.02  -0.04  -0.02    -0.35  -0.77  -0.35    -0.01  -0.01  -0.01
  50   1    -0.01  -0.00  -0.00    -0.27  -0.01  -0.02    -0.00  -0.00  -0.00
  51   7     0.00  -0.00  -0.00     0.02  -0.02  -0.00     0.00  -0.00  -0.00
  52   1    -0.00  -0.00  -0.00    -0.04  -0.00  -0.00    -0.00  -0.00  -0.00
  53   1    -0.00   0.00   0.00    -0.03   0.05   0.01    -0.00   0.00   0.00
                    151                    152                    153
                        a                      a                      a 
 Frequencies --  3563.8142              3564.5845              3569.2686
 Red. masses --     2.1904                 2.1742                 2.1767
 Frc consts  --     0.0000                 0.0000                 0.0000
 IR Inten    --    13.4000                20.3362                11.1577
 Raman Activ --     0.0000                 0.0000                 0.0000
 Depolar     --     0.0000                 0.0000                 0.0000
 Atom AN      X      Y      Z        X      Y      Z        X      Y      Z
   1   8    -0.00   0.00   0.00    -0.00   0.00   0.00    -0.00   0.00  -0.00
   2   6    -0.00  -0.00  -0.00    -0.00  -0.00  -0.00     0.00  -0.00   0.00
   3   1    -0.00   0.00  -0.00    -0.00   0.00  -0.00     0.00   0.00   0.00
   4   1    -0.00   0.00   0.00    -0.00  -0.00   0.00     0.00  -0.00  -0.00
   5   6    -0.00   0.00  -0.00     0.00  -0.00   0.00    -0.00   0.00  -0.00
   6   1    -0.00  -0.00  -0.00     0.00   0.00   0.00    -0.00  -0.00  -0.00
   7   1     0.00  -0.00   0.00    -0.00   0.00  -0.00     0.00  -0.00   0.00
   8   7    -0.00   0.00  -0.00     0.00  -0.00   0.00     0.00  -0.00   0.00
   9   6     0.00   0.00  -0.00     0.00   0.00  -0.00    -0.00   0.00   0.00
  10   1     0.00  -0.00  -0.00     0.00   0.00   0.00     0.00  -0.00  -0.00
  11   1    -0.00  -0.00   0.00    -0.00   0.00   0.00     0.00   0.00  -0.00
  12   1     0.00  -0.00  -0.00    -0.00  -0.00  -0.00     0.00   0.00  -0.00
  13   6    -0.00   0.00  -0.00     0.00  -0.00  -0.00    -0.00   0.00  -0.00
  14   1     0.00  -0.00  -0.00    -0.00   0.00   0.00    -0.00  -0.00  -0.00
  15   1     0.00  -0.00   0.00    -0.00   0.00  -0.00     0.00  -0.00   0.00
  16   1    -0.00   0.00  -0.00    -0.00  -0.00   0.00    -0.00   0.00  -0.00
  17   6     0.00  -0.00   0.00     0.00   0.00   0.00    -0.00   0.00  -0.00
  18   1    -0.00   0.00  -0.00    -0.00   0.00  -0.00     0.00  -0.00   0.00
  19   1     0.00  -0.00   0.00    -0.00  -0.00  -0.00    -0.00   0.00  -0.00
  20   1    -0.00  -0.00   0.00    -0.00   0.00   0.00    -0.00   0.00  -0.00
  21   1     0.00  -0.00  -0.00     0.00  -0.00  -0.00     0.00  -0.00  -0.00
  22   6    -0.00  -0.00  -0.00    -0.01  -0.00  -0.00     0.00  -0.00  -0.00
  23   8     0.00   0.00   0.00     0.00   0.00   0.00     0.00   0.00   0.00
  24   7    -0.00   0.00   0.00    -0.20   0.07   0.03     0.00  -0.00  -0.00
  25   1     0.00  -0.00  -0.00     0.33  -0.25  -0.27    -0.00   0.00   0.00
  26   1     0.00  -0.00   0.00     0.45  -0.01   0.17    -0.00   0.00  -0.00
  27   7     0.00   0.00   0.00    -0.14  -0.08  -0.12     0.00  -0.00  -0.00
  28   1    -0.00  -0.00  -0.00     0.44   0.06   0.07    -0.00  -0.00  -0.00
  29   1    -0.00  -0.00  -0.00     0.11   0.26   0.38     0.00   0.00   0.00
  30   6    -0.00   0.01   0.00    -0.00   0.00  -0.00    -0.00   0.00  -0.01
  31   8    -0.00  -0.00  -0.00     0.00  -0.00   0.00     0.00  -0.00   0.00
  32   7    -0.07   0.17  -0.11    -0.00  -0.00  -0.00    -0.07   0.17  -0.11
  33   1     0.14  -0.49   0.02    -0.00   0.00  -0.00     0.13  -0.47   0.02
  34   1     0.12  -0.16   0.40     0.00  -0.00   0.00     0.12  -0.16   0.41
  35   7     0.06   0.04   0.20    -0.00  -0.00  -0.00    -0.06  -0.04  -0.20
  36   1    -0.20   0.15  -0.36     0.00  -0.00   0.00     0.21  -0.16   0.38
  37   1    -0.03  -0.32  -0.39     0.00   0.00   0.00     0.03   0.32   0.38
  38   6    -0.00   0.00  -0.00     0.00  -0.00   0.00     0.00  -0.00  -0.00
  39   8     0.00  -0.00   0.00    -0.00  -0.00   0.00     0.00   0.00   0.00
  40   7     0.00  -0.00   0.00     0.00  -0.00  -0.00     0.00  -0.00   0.00
  41   1    -0.00   0.00  -0.00    -0.01   0.00  -0.00    -0.00   0.00  -0.00
  42   1    -0.00   0.00   0.00    -0.00   0.01   0.00    -0.00   0.00   0.00
  43   7     0.00   0.00   0.00    -0.00  -0.00  -0.00     0.00  -0.00   0.00
  44   1    -0.00   0.00  -0.00    -0.00   0.00  -0.00    -0.00   0.00  -0.00
  45   1    -0.00  -0.00  -0.00     0.00   0.00   0.00    -0.00  -0.00  -0.00
  46   6    -0.00  -0.00  -0.00    -0.00  -0.00  -0.00    -0.00  -0.00  -0.00
  47   8     0.00   0.00   0.00     0.00   0.00   0.00    -0.00   0.00   0.00
  48   7     0.00   0.00   0.00    -0.02  -0.02  -0.01     0.00   0.00   0.00
  49   1    -0.00  -0.00  -0.00     0.03   0.07   0.03    -0.00  -0.00  -0.00
  50   1    -0.00  -0.00  -0.00     0.04   0.00   0.00    -0.00  -0.00  -0.00
  51   7     0.00   0.00   0.00    -0.01   0.00   0.00    -0.00   0.00   0.00
  52   1    -0.00   0.00  -0.00     0.02  -0.00   0.00     0.00   0.00   0.00
  53   1     0.00  -0.00  -0.00     0.01  -0.01  -0.00     0.00  -0.00  -0.00
