 Entering Gaussian System
 *********************************************
 Gaussian 98:
 frequency output generated by the xtb code
 *********************************************
                         Standard orientation:
 --------------------------------------------------------------------
  Center     Atomic     Atomic              Coordinates (Angstroms)
  Number     Number      Type              X           Y           Z
 --------------------------------------------------------------------
    1          8             0       -0.529202   -2.160549   -4.801173
    2          6             0        0.146576   -1.138646   -4.096911
    3          1             0        1.227976   -1.205277   -4.273988
    4          1             0       -0.186555   -0.150178   -4.436479
    5          6             0       -0.156805   -1.200924   -2.599158
    6          1             0       -1.205393   -0.960578   -2.422494
    7          1             0        0.482100   -0.459556   -2.112926
    8          7             0        0.100944   -2.506106   -1.931610
    9          6             0        0.129844   -2.262799   -0.478660
   10          1             0        0.957852   -1.588599   -0.259274
   11          1             0        0.263321   -3.201627    0.053836
   12          1             0       -0.806394   -1.799667   -0.174245
   13          6             0        1.401218   -3.055769   -2.340182
   14          1             0        1.377329   -3.336515   -3.390051
   15          1             0        1.629549   -3.939934   -1.748127
   16          1             0        2.168769   -2.302312   -2.166168
   17          6             0       -0.986164   -3.451519   -2.232190
   18          1             0       -1.077321   -3.578903   -3.307807
   19          1             0       -1.918530   -3.047388   -1.840417
   20          1             0       -0.783946   -4.412644   -1.763922
   21          1             0       -0.508531   -1.972276   -5.744345
   22          6             0        2.551803    0.707594   -0.151469
   23          8             0        2.238645   -0.144871   -0.980207
   24          7             0        3.053757    1.916291   -0.520128
   25          1             0        3.415695    2.011068   -1.453146
   26          1             0        3.423424    2.527554    0.187909
   27          7             0        2.419018    0.528097    1.180343
   28          1             0        2.450739    1.345906    1.782550
   29          1             0        1.834378   -0.226625    1.498344
   30          6             0       -0.560975    1.586826    0.516965
   31          8             0       -0.638347    0.836006    1.501743
   32          7             0       -1.191086    1.283816   -0.636042
   33          1             0       -1.815135    0.479221   -0.661342
   34          1             0       -1.242151    1.954040   -1.380978
   35          7             0        0.141677    2.732090    0.551901
   36          1             0        0.293398    3.256483   -0.290819
   37          1             0        0.794352    2.889651    1.320879
   38          6             0       -3.439601   -1.162008    0.407251
   39          8             0       -2.775247   -1.079753   -0.631225
   40          7             0       -4.637157   -1.795377    0.420409
   41          1             0       -5.035468   -2.081531   -0.456258
   42          1             0       -5.234629   -1.780875    1.226674
   43          7             0       -2.987395   -0.685827    1.576967
   44          1             0       -3.549440   -0.723827    2.407155
   45          1             0       -2.101162   -0.172564    1.606328
   46          6             0        1.468367    2.717621    3.763122
   47          8             0        2.004799    2.907376    2.666317
   48          7             0        0.446173    1.857200    3.909593
   49          1             0        0.032424    1.434625    3.075594
   50          1             0       -0.035431    1.767241    4.785191
   51          7             0        1.902882    3.357890    4.870342
   52          1             0        1.514057    3.188988    5.779480
   53          1             0        2.696374    3.968183    4.790372
 --------------------------------------------------------------------
     1 basis functions        1 primitive gaussians
     1 alpha electrons        1 beta electrons

 Harmonic frequencies (cm**-1), IR intensities (km*mol⁻¹),
 Raman scattering activities (A**4/amu), Raman depolarization ratios,
 reduced masses (AMU), force constants (mDyne/A) and normal coordinates:
                      1                      2                      3
                        a                      a                      a 
 Frequencies --    16.6919                31.7143                32.3437
 Red. masses --    12.1035                11.7857                12.3138
 Frc consts  --     0.0000                 0.0000                 0.0000
 IR Inten    --     0.5532                 2.4897                 1.2516
 Raman Activ --     0.0000                 0.0000                 0.0000
 Depolar     --     0.0000                 0.0000                 0.0000
 Atom AN      X      Y      Z        X      Y      Z        X      Y      Z
   1   8    -0.05   0.30  -0.09    -0.07  -0.08  -0.09     0.52   0.07  -0.09
   2   6     0.02   0.17   0.01    -0.11  -0.05  -0.05     0.19   0.14   0.07
   3   1     0.00   0.04  -0.00    -0.03   0.01  -0.02     0.06   0.09   0.07
   4   1     0.02   0.06   0.03    -0.05  -0.02  -0.00     0.03   0.03   0.01
   5   6     0.02   0.05   0.00    -0.06  -0.13  -0.05    -0.03   0.04   0.02
   6   1     0.01   0.02   0.01    -0.02  -0.07  -0.00    -0.02  -0.01  -0.03
   7   1     0.02  -0.01   0.02    -0.03  -0.03  -0.01    -0.05   0.02   0.04
   8   7    -0.03  -0.02  -0.12     0.08  -0.14  -0.10    -0.02   0.03  -0.02
   9   6    -0.01  -0.15  -0.09     0.03  -0.17  -0.08    -0.18  -0.05   0.00
  10   1     0.01  -0.06  -0.01    -0.01  -0.03  -0.01    -0.07  -0.01   0.04
  11   1    -0.01  -0.06  -0.05     0.03  -0.05  -0.03    -0.06  -0.02  -0.01
  12   1     0.00  -0.04  -0.01    -0.01  -0.08  -0.02    -0.07  -0.03  -0.02
  13   6    -0.05  -0.04  -0.16     0.15   0.04  -0.10     0.06   0.13   0.09
  14   1    -0.02   0.01  -0.05     0.06   0.02  -0.03     0.06   0.05   0.02
  15   1    -0.02  -0.03  -0.07     0.07   0.01  -0.04     0.02   0.03   0.02
  16   1    -0.01  -0.02  -0.03     0.02   0.04  -0.02    -0.00   0.05   0.06
  17   6    -0.07   0.05  -0.19     0.19  -0.24  -0.14     0.08  -0.03  -0.18
  18   1    -0.02   0.04  -0.06     0.06  -0.06  -0.04     0.05   0.01  -0.06
  19   1    -0.01   0.01  -0.04     0.04  -0.11  -0.04     0.00  -0.04  -0.07
  20   1    -0.03  -0.00  -0.08     0.09  -0.07  -0.05     0.03  -0.01  -0.07
  21   1    -0.01   0.10  -0.02    -0.03  -0.01  -0.02     0.17   0.03  -0.02
  22   6     0.01  -0.17   0.14    -0.17   0.01   0.04    -0.07  -0.05  -0.01
  23   8     0.02  -0.17   0.13    -0.18   0.03   0.01    -0.08  -0.12   0.05
  24   7     0.16  -0.23   0.19    -0.26   0.05   0.08    -0.23  -0.01  -0.10
  25   1     0.07  -0.07   0.06    -0.07   0.03   0.02    -0.09  -0.00  -0.04
  26   1     0.03  -0.06   0.06    -0.07   0.01   0.03    -0.06   0.01  -0.04
  27   7    -0.13  -0.16   0.14    -0.15  -0.05   0.03     0.08  -0.03   0.00
  28   1    -0.03  -0.04   0.03    -0.04  -0.02   0.02     0.01  -0.00  -0.01
  29   1    -0.07  -0.02   0.02    -0.03  -0.03   0.01     0.05  -0.02   0.02
  30   6     0.00  -0.00  -0.00     0.01   0.06   0.11    -0.03  -0.08   0.01
  31   8    -0.02   0.06   0.04    -0.11   0.17   0.19     0.04  -0.10   0.01
  32   7    -0.02  -0.04   0.02     0.15  -0.06   0.07    -0.06  -0.11   0.03
  33   1    -0.01  -0.01   0.02     0.05  -0.02   0.01    -0.02  -0.03   0.02
  34   1    -0.00  -0.02  -0.00     0.07  -0.03  -0.00    -0.04  -0.02   0.02
  35   7     0.05  -0.03  -0.07    -0.02   0.09   0.10    -0.07  -0.07  -0.01
  36   1     0.01  -0.02  -0.03     0.03  -0.01   0.01    -0.03  -0.02  -0.01
  37   1     0.02  -0.00  -0.02    -0.01   0.03   0.03    -0.01  -0.01  -0.01
  38   6     0.05  -0.09   0.08     0.01   0.06  -0.05    -0.11   0.04   0.11
  39   8     0.02  -0.07   0.07     0.14  -0.05   0.01    -0.17  -0.03   0.09
  40   7     0.10  -0.18   0.13    -0.00   0.09  -0.14    -0.21   0.20   0.15
  41   1     0.02  -0.05   0.04     0.02   0.01  -0.04    -0.07   0.05   0.05
  42   1     0.03  -0.05   0.04    -0.03   0.05  -0.06    -0.04   0.06   0.05
  43   7     0.06  -0.05   0.07    -0.12   0.16  -0.05    -0.02  -0.03   0.11
  44   1     0.02  -0.03   0.02    -0.06   0.06  -0.03    -0.00   0.01   0.03
  45   1     0.01  -0.00   0.01    -0.03   0.04   0.01     0.00  -0.02   0.02
  46   6    -0.03   0.17  -0.06     0.10   0.06   0.06     0.07   0.01  -0.08
  47   8     0.04   0.02  -0.07     0.09  -0.02   0.03     0.03   0.02  -0.11
  48   7    -0.08   0.25  -0.01    -0.01   0.22   0.12     0.13  -0.06  -0.04
  49   1    -0.02   0.05   0.01    -0.02   0.06   0.04     0.03  -0.02  -0.01
  50   1    -0.04   0.11  -0.01     0.01   0.07   0.04     0.04  -0.02  -0.01
  51   7    -0.06   0.31  -0.13     0.28  -0.00   0.04     0.07   0.05  -0.11
  52   1    -0.02   0.11  -0.03     0.07   0.03   0.01     0.03   0.01  -0.02
  53   1    -0.00   0.06  -0.04     0.09  -0.02  -0.01     0.01   0.02  -0.04
                      4                      5                      6
                        a                      a                      a 
 Frequencies --    35.7940                40.6397                44.3958
 Red. masses --    10.8913                12.4259                12.5478
 Frc consts  --     0.0000                 0.0000                 0.0000
 IR Inten    --     0.7902                 0.7681                 0.4326
 Raman Activ --     0.0000                 0.0000                 0.0000
 Depolar     --     0.0000                 0.0000                 0.0000
 Atom AN      X      Y      Z        X      Y      Z        X      Y      Z
   1   8     0.18   0.03  -0.01    -0.26   0.12   0.00    -0.26   0.37   0.16
   2   6     0.24  -0.04  -0.00    -0.03  -0.03  -0.00    -0.05   0.15   0.20
   3   1     0.07  -0.05   0.01    -0.02  -0.05  -0.03    -0.02   0.01   0.03
   4   1     0.11  -0.00  -0.01     0.02   0.01   0.02     0.01   0.07   0.10
   5   6     0.17   0.02  -0.01     0.06  -0.05   0.01     0.04   0.02   0.21
   6   1     0.06   0.06  -0.01     0.02   0.00   0.02     0.01  -0.00   0.08
   7   1     0.08  -0.02   0.00     0.04  -0.03  -0.00     0.02  -0.00   0.07
   8   7    -0.07  -0.02  -0.01     0.01  -0.08  -0.03     0.10  -0.02   0.11
   9   6     0.02  -0.02  -0.01     0.05  -0.11  -0.02     0.05  -0.13   0.13
  10   1     0.04  -0.04  -0.01     0.02  -0.04  -0.01     0.01  -0.04   0.06
  11   1    -0.03  -0.01  -0.00     0.01  -0.04  -0.01     0.01  -0.05   0.02
  12   1     0.03   0.04   0.01     0.02  -0.03   0.00     0.01  -0.04   0.04
  13   6    -0.19  -0.29  -0.04    -0.03  -0.13  -0.07     0.13   0.08   0.09
  14   1    -0.08  -0.08  -0.01    -0.02  -0.03  -0.02     0.05   0.04   0.02
  15   1    -0.10  -0.10  -0.01    -0.02  -0.05  -0.03     0.05   0.02   0.01
  16   1    -0.01  -0.13  -0.02     0.00  -0.05  -0.02     0.02   0.03   0.04
  17   6    -0.27   0.20   0.03    -0.05  -0.02  -0.03     0.15  -0.05   0.01
  18   1    -0.09   0.06   0.01    -0.02   0.00  -0.01     0.05   0.01  -0.00
  19   1    -0.05   0.11   0.01    -0.01   0.01  -0.00     0.03  -0.04   0.01
  20   1    -0.13   0.05   0.01    -0.03  -0.01  -0.01     0.05  -0.02  -0.02
  21   1     0.06   0.00  -0.00    -0.08   0.04   0.00    -0.08   0.12   0.05
  22   6    -0.05  -0.01  -0.02    -0.04  -0.00   0.04     0.07  -0.08  -0.02
  23   8     0.12  -0.13   0.05     0.04  -0.10   0.11     0.18  -0.24   0.10
  24   7    -0.36   0.10  -0.10    -0.37   0.11  -0.07    -0.05  -0.08  -0.19
  25   1    -0.10   0.03  -0.03    -0.13   0.04  -0.03    -0.01  -0.05  -0.05
  26   1    -0.12   0.05  -0.04    -0.10   0.05  -0.04    -0.02   0.01  -0.07
  27   7     0.01   0.05  -0.01     0.19   0.01   0.06     0.09   0.08  -0.00
  28   1    -0.03   0.02  -0.01     0.03   0.01   0.01     0.01   0.04  -0.02
  29   1     0.06  -0.03   0.02     0.12  -0.04   0.04     0.05   0.01   0.03
  30   6    -0.07   0.09   0.05     0.11  -0.05   0.02    -0.07   0.02  -0.04
  31   8    -0.13   0.14   0.09     0.17  -0.11  -0.01    -0.08   0.02  -0.05
  32   7     0.01   0.04   0.03     0.14  -0.05   0.01    -0.09   0.01  -0.04
  33   1     0.00   0.01   0.01     0.04  -0.01  -0.00    -0.02  -0.00  -0.01
  34   1     0.01   0.01   0.00     0.03  -0.00   0.01    -0.03   0.00  -0.01
  35   7    -0.10   0.11   0.06     0.03  -0.00   0.07    -0.07   0.01  -0.06
  36   1    -0.01   0.02   0.01     0.01   0.00   0.02    -0.02   0.00  -0.02
  37   1    -0.03   0.03   0.02     0.01  -0.00   0.02    -0.02   0.01  -0.02
  38   6     0.04  -0.05  -0.03     0.07   0.06  -0.04    -0.05  -0.01  -0.08
  39   8     0.06   0.01  -0.02     0.08   0.02  -0.05     0.04  -0.09  -0.03
  40   7     0.14  -0.24  -0.04    -0.05   0.30  -0.08    -0.01  -0.09  -0.12
  41   1     0.05  -0.07  -0.02    -0.02   0.10  -0.02     0.02  -0.05  -0.04
  42   1     0.03  -0.07  -0.02    -0.00   0.07  -0.01    -0.03  -0.00  -0.05
  43   7    -0.05   0.02  -0.03     0.19  -0.13  -0.01    -0.21   0.18  -0.10
  44   1    -0.01  -0.02  -0.01     0.04  -0.00  -0.01    -0.07   0.05  -0.03
  45   1    -0.02   0.02   0.00     0.06  -0.04  -0.00    -0.05   0.04  -0.02
  46   6     0.06   0.01   0.01    -0.06   0.04   0.03     0.02  -0.04  -0.07
  47   8    -0.00   0.04  -0.02     0.01   0.03   0.07    -0.07   0.08  -0.10
  48   7     0.03   0.06   0.04     0.10  -0.15   0.03     0.07  -0.10  -0.08
  49   1    -0.01   0.03   0.01     0.04  -0.05   0.00     0.01  -0.01  -0.02
  50   1     0.03   0.01   0.02    -0.01  -0.01  -0.01     0.04  -0.05  -0.01
  51   7     0.21  -0.09   0.02    -0.33   0.30  -0.01     0.08  -0.13  -0.05
  52   1     0.06  -0.02   0.01    -0.07   0.04   0.00     0.03  -0.05  -0.01
  53   1     0.05  -0.03  -0.01    -0.09   0.08   0.01     0.01  -0.02  -0.02
                      7                      8                      9
                        a                      a                      a 
 Frequencies --    47.1523                51.1070                53.3940
 Red. masses --    12.5677                12.0014                12.7239
 Frc consts  --     0.0000                 0.0000                 0.0000
 IR Inten    --     1.5807                 3.2457                 0.8079
 Raman Activ --     0.0000                 0.0000                 0.0000
 Depolar     --     0.0000                 0.0000                 0.0000
 Atom AN      X      Y      Z        X      Y      Z        X      Y      Z
   1   8     0.01  -0.00   0.06    -0.09  -0.01   0.08     0.10  -0.08  -0.03
   2   6    -0.06   0.02   0.09    -0.04   0.01   0.00    -0.06   0.01   0.01
   3   1    -0.01   0.02   0.03    -0.01  -0.01  -0.00    -0.01   0.04   0.02
   4   1    -0.03   0.00   0.03    -0.01   0.00  -0.01    -0.05  -0.01  -0.00
   5   6    -0.09  -0.03   0.09    -0.02   0.09   0.01    -0.11  -0.03  -0.00
   6   1    -0.03  -0.02   0.02    -0.00   0.02   0.00    -0.04  -0.03  -0.01
   7   1    -0.04  -0.00   0.03    -0.00   0.03  -0.01    -0.05   0.00   0.01
   8   7    -0.04  -0.03   0.07     0.00   0.13   0.08    -0.05  -0.02  -0.01
   9   6    -0.11  -0.06   0.07    -0.01   0.19   0.07    -0.11  -0.03  -0.01
  10   1    -0.04  -0.01   0.04    -0.01   0.06   0.01    -0.04  -0.00   0.01
  11   1    -0.04  -0.02   0.02     0.00   0.06   0.03    -0.03  -0.01  -0.00
  12   1    -0.04  -0.02   0.01    -0.01   0.05   0.01    -0.04  -0.01  -0.01
  13   6     0.02   0.06   0.11     0.02   0.13   0.12     0.00   0.08   0.03
  14   1     0.02   0.02   0.03     0.01   0.02   0.04     0.02   0.03   0.01
  15   1     0.01   0.02   0.03     0.01   0.05   0.05     0.01   0.02   0.01
  16   1    -0.01   0.03   0.05     0.00   0.05   0.03    -0.02   0.04   0.02
  17   6     0.04  -0.09  -0.00     0.02   0.09   0.12     0.03  -0.09  -0.05
  18   1     0.03  -0.03  -0.00     0.01   0.01   0.04     0.02  -0.02  -0.02
  19   1    -0.00  -0.04  -0.02     0.00   0.03   0.02    -0.00  -0.05  -0.02
  20   1     0.02  -0.02   0.00     0.01   0.03   0.05     0.02  -0.02  -0.02
  21   1     0.00   0.01   0.02    -0.03  -0.01   0.02     0.03  -0.02  -0.01
  22   6    -0.09  -0.06   0.06    -0.00  -0.01   0.10    -0.10  -0.04   0.04
  23   8    -0.12  -0.09   0.09     0.05   0.11  -0.02    -0.14  -0.03   0.05
  24   7    -0.06  -0.09   0.02    -0.25   0.15   0.29    -0.17  -0.01   0.04
  25   1    -0.02  -0.04   0.01    -0.09   0.11   0.08    -0.06   0.00   0.00
  26   1    -0.02  -0.02   0.00    -0.09   0.02   0.10    -0.03  -0.01   0.01
  27   7    -0.12  -0.01   0.07     0.18  -0.28   0.09     0.01  -0.08   0.05
  28   1    -0.02   0.00   0.01     0.03  -0.10   0.05     0.00  -0.02   0.02
  29   1    -0.04   0.01   0.02     0.10  -0.12   0.01     0.02  -0.03   0.02
  30   6    -0.04   0.15  -0.04     0.00  -0.09  -0.00     0.08   0.11  -0.09
  31   8     0.02   0.10  -0.10    -0.04  -0.10  -0.01     0.09   0.10  -0.13
  32   7    -0.10   0.24  -0.04    -0.05  -0.02   0.01     0.07   0.17  -0.10
  33   1    -0.02   0.06  -0.02    -0.03   0.00  -0.00     0.01   0.05  -0.02
  34   1    -0.03   0.07  -0.00    -0.00  -0.00   0.00     0.01   0.05  -0.02
  35   7    -0.06   0.17   0.00     0.09  -0.14  -0.02     0.12   0.10  -0.07
  36   1    -0.03   0.07   0.01     0.03  -0.05  -0.01     0.04   0.03  -0.01
  37   1    -0.01   0.03  -0.00     0.04  -0.06  -0.02     0.03   0.02  -0.01
  38   6     0.12  -0.04  -0.11    -0.07  -0.07  -0.11     0.07   0.06   0.04
  39   8    -0.04   0.22  -0.22    -0.10   0.01  -0.13     0.01   0.17   0.01
  40   7     0.10   0.02  -0.10    -0.02  -0.18  -0.13     0.29  -0.35   0.19
  41   1    -0.01   0.06  -0.03    -0.01  -0.04  -0.04     0.07  -0.10   0.05
  42   1     0.07  -0.06   0.01    -0.01  -0.06  -0.04     0.07  -0.06   0.04
  43   7     0.39  -0.46  -0.05    -0.10  -0.07  -0.11    -0.04   0.38  -0.04
  44   1     0.12  -0.13  -0.00    -0.02  -0.05  -0.02     0.03   0.03   0.01
  45   1     0.08  -0.07  -0.03    -0.03  -0.02  -0.02    -0.01   0.10  -0.02
  46   6     0.05   0.00  -0.03     0.11   0.00  -0.11    -0.02  -0.09   0.01
  47   8     0.02   0.06  -0.04     0.23  -0.21  -0.11     0.04  -0.06   0.05
  48   7     0.01   0.05  -0.06     0.03   0.12  -0.08     0.14  -0.29  -0.03
  49   1    -0.00   0.02  -0.02     0.01   0.01  -0.01     0.04  -0.05  -0.02
  50   1     0.02  -0.01  -0.01    -0.01   0.08  -0.03    -0.00  -0.06  -0.03
  51   7     0.15  -0.13   0.01     0.09   0.12  -0.18    -0.25   0.06   0.02
  52   1     0.03  -0.03  -0.00    -0.00   0.08  -0.05    -0.04  -0.04   0.01
  53   1     0.04  -0.03   0.00     0.04   0.01  -0.05    -0.06   0.01   0.02
                     10                     11                     12
                        a                      a                      a 
 Frequencies --    56.0397                59.8245                67.9137
 Red. masses --    12.6268                12.1150                11.0098
 Frc consts  --     0.0000                 0.0000                 0.0000
 IR Inten    --     0.4431                 0.9432                 5.4867
 Raman Activ --     0.0000                 0.0000                 0.0000
 Depolar     --     0.0000                 0.0000                 0.0000
 Atom AN      X      Y      Z        X      Y      Z        X      Y      Z
   1   8    -0.07   0.08  -0.01     0.08  -0.03  -0.01     0.33  -0.03   0.18
   2   6    -0.00   0.02  -0.00    -0.08   0.04   0.03    -0.12   0.20   0.23
   3   1    -0.00  -0.01  -0.00    -0.02   0.05   0.03    -0.03   0.17   0.08
   4   1     0.01   0.01   0.01    -0.05   0.00   0.01    -0.14   0.03   0.07
   5   6     0.01   0.01  -0.00    -0.14   0.01   0.02    -0.15   0.02   0.22
   6   1     0.00   0.00   0.00    -0.05  -0.01  -0.01    -0.05  -0.03   0.07
   7   1     0.00   0.00   0.00    -0.06   0.01   0.02    -0.06   0.01   0.08
   8   7     0.02   0.01  -0.00    -0.10   0.02   0.02    -0.03  -0.04   0.06
   9   6    -0.03   0.01   0.00    -0.15   0.00   0.02     0.23  -0.18   0.07
  10   1    -0.01   0.00   0.01    -0.05   0.01   0.02     0.09  -0.07  -0.00
  11   1    -0.01   0.00   0.00    -0.04  -0.00   0.00     0.08  -0.07  -0.01
  12   1    -0.01  -0.00  -0.01    -0.05  -0.01  -0.00     0.09  -0.05   0.08
  13   6     0.04   0.04   0.03    -0.05   0.09   0.05    -0.11  -0.01  -0.24
  14   1     0.02   0.01   0.01    -0.00   0.03   0.01    -0.09   0.03  -0.08
  15   1     0.01   0.01   0.01    -0.01   0.03   0.01    -0.01  -0.03  -0.11
  16   1     0.00   0.02   0.02    -0.03   0.04   0.03    -0.02  -0.01  -0.09
  17   6     0.04  -0.01  -0.03    -0.03  -0.04  -0.03    -0.10   0.00   0.16
  18   1     0.02   0.00  -0.01     0.01  -0.01  -0.01    -0.08   0.03   0.05
  19   1     0.01  -0.01  -0.01    -0.02  -0.03  -0.02    -0.01  -0.00   0.10
  20   1     0.02  -0.00  -0.01    -0.00  -0.01  -0.01    -0.01  -0.01   0.01
  21   1    -0.02   0.02  -0.00     0.03  -0.01  -0.00     0.09  -0.00   0.05
  22   6     0.02  -0.01  -0.03     0.08  -0.02  -0.14    -0.03  -0.00  -0.10
  23   8     0.06  -0.07   0.01    -0.06  -0.11  -0.01    -0.03   0.07  -0.19
  24   7    -0.21   0.07  -0.09     0.10  -0.08  -0.37    -0.03   0.03  -0.01
  25   1    -0.08   0.02  -0.03    -0.00  -0.06  -0.11    -0.01   0.03   0.00
  26   1    -0.05   0.03  -0.03     0.08  -0.01  -0.13    -0.01  -0.01   0.01
  27   7     0.18  -0.02  -0.02     0.22   0.15  -0.12    -0.03  -0.12  -0.12
  28   1     0.03  -0.01  -0.00     0.08   0.05  -0.04    -0.01  -0.04  -0.02
  29   1     0.10  -0.04   0.01     0.08   0.04   0.01    -0.01  -0.03  -0.05
  30   6     0.10  -0.02  -0.12     0.07  -0.06   0.14     0.00   0.02  -0.01
  31   8     0.06   0.01  -0.12    -0.04  -0.04   0.17     0.04  -0.03  -0.04
  32   7     0.14  -0.05  -0.14     0.13  -0.04   0.11    -0.08   0.10   0.02
  33   1     0.02  -0.00  -0.02     0.01   0.01   0.02    -0.00   0.01  -0.00
  34   1     0.03  -0.01  -0.04     0.06  -0.01   0.03    -0.02   0.03   0.00
  35   7     0.14  -0.04  -0.13     0.15  -0.11   0.15     0.03   0.01   0.02
  36   1     0.06  -0.02  -0.04     0.06  -0.04   0.04    -0.00   0.01   0.01
  37   1     0.02  -0.01  -0.02     0.03  -0.03   0.05     0.02  -0.01  -0.00
  38   6     0.04   0.04   0.13    -0.04  -0.05  -0.12     0.07   0.02  -0.03
  39   8    -0.02   0.04   0.10    -0.09   0.11  -0.15     0.18  -0.09   0.02
  40   7     0.05   0.04   0.22     0.05  -0.25  -0.14     0.02   0.13  -0.11
  41   1    -0.00   0.01   0.07     0.01  -0.04  -0.04     0.02   0.02  -0.03
  42   1     0.03   0.01   0.07     0.01  -0.08  -0.04    -0.01   0.04  -0.04
  43   7     0.12   0.03   0.11    -0.07  -0.08  -0.11     0.02   0.04  -0.02
  44   1     0.05   0.01   0.04    -0.00  -0.07  -0.02    -0.02   0.04  -0.02
  45   1     0.03   0.01   0.01    -0.03  -0.01  -0.01     0.01   0.00  -0.00
  46   6    -0.16  -0.04   0.02    -0.00   0.10   0.12    -0.04  -0.04  -0.02
  47   8    -0.07  -0.15   0.06     0.10  -0.03   0.16     0.06  -0.19  -0.00
  48   7    -0.49   0.33  -0.09    -0.08   0.19   0.13    -0.13   0.05  -0.03
  49   1    -0.10   0.07  -0.03    -0.01   0.03   0.04    -0.02  -0.00  -0.01
  50   1    -0.12   0.07  -0.02    -0.04   0.08   0.03    -0.05   0.04  -0.02
  51   7     0.04  -0.32   0.10    -0.07   0.20   0.10    -0.09   0.03  -0.05
  52   1    -0.07  -0.01   0.01    -0.04   0.08   0.02    -0.04   0.03  -0.02
  53   1     0.03  -0.11   0.04    -0.00   0.03   0.03    -0.01  -0.02  -0.01
                     13                     14                     15
                        a                      a                      a 
 Frequencies --    70.7173                85.8381                87.1718
 Red. masses --    13.2933                12.7825                12.5277
 Frc consts  --     0.0000                 0.0000                 0.0000
 IR Inten    --     0.7119                 1.7803                 7.6110
 Raman Activ --     0.0000                 0.0000                 0.0000
 Depolar     --     0.0000                 0.0000                 0.0000
 Atom AN      X      Y      Z        X      Y      Z        X      Y      Z
   1   8     0.05   0.04   0.03    -0.07   0.11  -0.05     0.08  -0.30  -0.04
   2   6    -0.06   0.07   0.08     0.16  -0.08   0.01    -0.20  -0.01  -0.13
   3   1    -0.01   0.05   0.03     0.04  -0.09   0.00    -0.06   0.08  -0.05
   4   1    -0.04   0.02   0.03     0.11   0.00   0.01    -0.14  -0.04  -0.06
   5   6    -0.09  -0.01   0.07     0.13  -0.07  -0.00    -0.12   0.02  -0.11
   6   1    -0.03  -0.01   0.01     0.04  -0.00  -0.01    -0.03  -0.01  -0.01
   7   1    -0.04  -0.01   0.04     0.05  -0.03   0.00    -0.04   0.02  -0.05
   8   7    -0.10  -0.05   0.00     0.03  -0.10   0.00    -0.01   0.05  -0.11
   9   6    -0.02  -0.11   0.01    -0.07  -0.10   0.00     0.10   0.07  -0.11
  10   1    -0.01  -0.03   0.00    -0.02  -0.03   0.02     0.03   0.02  -0.05
  11   1     0.01  -0.04  -0.01    -0.03  -0.03   0.00     0.05   0.02  -0.03
  12   1    -0.00  -0.04   0.02    -0.02  -0.02  -0.02     0.03   0.01  -0.01
  13   6    -0.13  -0.07  -0.09     0.04  -0.15   0.10    -0.02   0.10  -0.21
  14   1    -0.06  -0.00  -0.03     0.03  -0.05   0.03    -0.03   0.04  -0.06
  15   1    -0.04  -0.03  -0.04    -0.01  -0.04   0.04     0.01   0.03  -0.08
  16   1    -0.03  -0.03  -0.02     0.01  -0.05   0.04    -0.01   0.03  -0.07
  17   6    -0.14   0.00   0.01     0.02  -0.05  -0.09     0.01  -0.01   0.02
  18   1    -0.05   0.01   0.00     0.02  -0.01  -0.03    -0.02  -0.02   0.01
  19   1    -0.03   0.01   0.02     0.00  -0.01  -0.04     0.01  -0.01   0.02
  20   1    -0.04  -0.01  -0.01    -0.01  -0.02  -0.03     0.02   0.01   0.02
  21   1     0.02   0.02   0.01    -0.02   0.04  -0.01     0.00  -0.10  -0.01
  22   6    -0.05   0.16   0.16    -0.05   0.05  -0.04     0.15  -0.10   0.15
  23   8    -0.30   0.23   0.24    -0.23   0.14  -0.06     0.28  -0.25   0.27
  24   7     0.06   0.10   0.11     0.06   0.01  -0.02    -0.03  -0.07   0.02
  25   1    -0.02   0.02   0.01    -0.01   0.01  -0.02    -0.02  -0.03  -0.00
  26   1     0.05   0.02   0.02     0.04  -0.01  -0.01    -0.02   0.01  -0.02
  27   7     0.12   0.18   0.20     0.05  -0.01  -0.04     0.24   0.01   0.18
  28   1     0.06   0.06   0.04     0.04  -0.01  -0.00     0.03   0.02   0.02
  29   1    -0.00   0.08   0.07    -0.03   0.02  -0.02     0.10  -0.02   0.07
  30   6     0.11  -0.14  -0.09    -0.02  -0.04   0.08    -0.07   0.02   0.05
  31   8     0.14  -0.14  -0.09     0.31  -0.33  -0.10     0.12  -0.13  -0.04
  32   7     0.14  -0.19  -0.10    -0.35   0.25   0.19    -0.20   0.13   0.09
  33   1     0.03  -0.04  -0.02    -0.04   0.03   0.02    -0.03   0.02   0.01
  34   1     0.03  -0.05  -0.03    -0.12   0.10   0.08    -0.09   0.06   0.05
  35   7     0.10  -0.14  -0.13    -0.10   0.00   0.21    -0.16   0.07   0.12
  36   1     0.02  -0.04  -0.03    -0.11   0.07   0.09    -0.09   0.06   0.05
  37   1     0.01  -0.01  -0.02     0.01  -0.03   0.03    -0.02   0.01   0.02
  38   6    -0.01  -0.05  -0.08     0.02   0.04  -0.03    -0.01   0.03  -0.01
  39   8    -0.03  -0.12  -0.10     0.03  -0.00  -0.04    -0.01  -0.01  -0.02
  40   7    -0.01  -0.07  -0.03     0.06  -0.03   0.02    -0.00   0.02   0.01
  41   1    -0.01  -0.03  -0.00     0.01  -0.01   0.01    -0.00   0.00   0.01
  42   1    -0.00   0.00  -0.01     0.01   0.03  -0.00    -0.00   0.02   0.00
  43   7    -0.02   0.05  -0.13    -0.03   0.21  -0.08    -0.03   0.11  -0.04
  44   1     0.00   0.01  -0.03     0.01   0.03  -0.01     0.00   0.02  -0.00
  45   1     0.01  -0.01  -0.04     0.02   0.01  -0.02     0.01   0.00  -0.01
  46   6     0.05   0.08  -0.02     0.02   0.03  -0.02    -0.02   0.06  -0.02
  47   8    -0.04   0.32  -0.03     0.14  -0.05   0.02    -0.08   0.16  -0.03
  48   7     0.07   0.05  -0.10    -0.12   0.19  -0.09    -0.05   0.09  -0.05
  49   1     0.02   0.01  -0.03     0.01   0.00  -0.02     0.00   0.01  -0.01
  50   1     0.06  -0.06  -0.01    -0.03   0.03  -0.03     0.02  -0.02  -0.00
  51   7     0.16  -0.17   0.08     0.02  -0.01   0.01     0.06  -0.06   0.02
  52   1     0.03  -0.05   0.01    -0.05   0.04  -0.01     0.00  -0.00   0.00
  53   1     0.01   0.00   0.03     0.01  -0.00   0.01    -0.00   0.01   0.00
                     16                     17                     18
                        a                      a                      a 
 Frequencies --    97.6252               121.9286               126.1221
 Red. masses --    13.1592                13.0273                13.2793
 Frc consts  --     0.0000                 0.0000                 0.0000
 IR Inten    --    16.0453                 1.6836                 9.6483
 Raman Activ --     0.0000                 0.0000                 0.0000
 Depolar     --     0.0000                 0.0000                 0.0000
 Atom AN      X      Y      Z        X      Y      Z        X      Y      Z
   1   8    -0.01   0.02   0.05    -0.00  -0.06   0.02    -0.02   0.01  -0.06
   2   6    -0.02   0.04   0.02    -0.01  -0.00  -0.05     0.01  -0.01  -0.05
   3   1    -0.01   0.02   0.01    -0.00   0.01  -0.02     0.00  -0.02   0.00
   4   1    -0.01   0.01   0.00    -0.01  -0.01  -0.02     0.03  -0.00  -0.03
   5   6    -0.04   0.07   0.02     0.04   0.06  -0.03    -0.09   0.08  -0.07
   6   1    -0.01   0.01  -0.00     0.02   0.02   0.00    -0.03   0.02  -0.05
   7   1    -0.02   0.03   0.00     0.02   0.02  -0.02    -0.04   0.03  -0.02
   8   7    -0.02   0.10   0.06     0.05   0.08  -0.00    -0.12   0.14   0.04
   9   6    -0.01   0.11   0.05     0.07   0.09  -0.01    -0.20   0.18   0.03
  10   1     0.00   0.03   0.01     0.03   0.02  -0.01    -0.07   0.06   0.02
  11   1    -0.00   0.03   0.02     0.01   0.03  -0.00    -0.06   0.06   0.02
  12   1     0.00   0.04   0.02     0.02   0.03  -0.00    -0.07   0.05  -0.01
  13   6    -0.02   0.10   0.06     0.04   0.06  -0.02    -0.07   0.14   0.18
  14   1    -0.01   0.02   0.02     0.01   0.01  -0.00     0.01   0.02   0.06
  15   1    -0.00   0.03   0.02     0.01   0.02  -0.00    -0.03   0.05   0.08
  16   1    -0.01   0.03   0.01     0.01   0.02  -0.01    -0.03   0.05   0.06
  17   6    -0.02   0.08   0.08     0.03   0.07   0.05    -0.08   0.10   0.01
  18   1    -0.01   0.01   0.02     0.00   0.01   0.02    -0.01   0.02   0.00
  19   1    -0.01   0.02   0.02     0.01   0.03   0.02    -0.03   0.03  -0.01
  20   1    -0.00   0.03   0.03     0.01   0.03   0.02    -0.02   0.03   0.01
  21   1     0.00  -0.00   0.01    -0.01  -0.03   0.00     0.03  -0.02  -0.02
  22   6    -0.09  -0.08  -0.05    -0.15  -0.04  -0.02    -0.04  -0.07   0.01
  23   8     0.13  -0.13  -0.11     0.07  -0.18   0.02    -0.20  -0.06   0.05
  24   7    -0.08  -0.07   0.02    -0.22  -0.04  -0.09    -0.00  -0.12  -0.06
  25   1     0.04  -0.02   0.03     0.00  -0.05  -0.01    -0.03  -0.04  -0.03
  26   1    -0.07  -0.01   0.02    -0.08   0.01  -0.03     0.03  -0.03  -0.03
  27   7    -0.38  -0.05  -0.08    -0.41   0.10  -0.04     0.08  -0.05   0.03
  28   1    -0.11  -0.01  -0.02    -0.09   0.03  -0.01     0.03  -0.01   0.00
  29   1    -0.12  -0.00  -0.04    -0.11   0.03  -0.00     0.02  -0.01   0.02
  30   6     0.12  -0.14   0.03     0.06  -0.07  -0.06     0.01   0.03   0.00
  31   8     0.31  -0.29  -0.05     0.09  -0.07  -0.06     0.04   0.05   0.01
  32   7     0.34  -0.25  -0.07    -0.28   0.12   0.08    -0.01   0.01   0.03
  33   1     0.08  -0.06  -0.02    -0.06   0.02   0.02     0.04  -0.02   0.00
  34   1     0.01  -0.02   0.03    -0.04   0.01   0.00     0.01  -0.01  -0.01
  35   7    -0.25   0.08   0.19     0.39  -0.27  -0.22    -0.02   0.06  -0.01
  36   1    -0.09   0.04   0.06     0.08  -0.06  -0.05    -0.01   0.01  -0.01
  37   1    -0.06   0.03   0.04     0.08  -0.05  -0.04    -0.00   0.01  -0.01
  38   6     0.03   0.05  -0.05    -0.01  -0.04  -0.02     0.21  -0.12   0.00
  39   8    -0.03   0.07  -0.10     0.01  -0.14  -0.01     0.49  -0.46   0.13
  40   7     0.09  -0.05   0.03    -0.04   0.03  -0.01     0.10   0.13  -0.17
  41   1     0.01  -0.00   0.01    -0.01  -0.01   0.00     0.09  -0.04  -0.05
  42   1     0.03   0.01   0.01    -0.01   0.01  -0.00    -0.00   0.05  -0.07
  43   7     0.05   0.15  -0.10    -0.00  -0.00  -0.04     0.06   0.02  -0.00
  44   1     0.04  -0.00  -0.01    -0.01   0.02  -0.01    -0.04   0.09  -0.03
  45   1     0.04  -0.00  -0.02     0.00  -0.01  -0.01     0.02  -0.00   0.01
  46   6    -0.02   0.04  -0.00     0.07   0.07   0.11    -0.04  -0.02  -0.02
  47   8    -0.11   0.07  -0.04     0.14   0.16   0.18    -0.08  -0.04  -0.04
  48   7    -0.03   0.07   0.04     0.07   0.06   0.01    -0.03  -0.02   0.02
  49   1     0.01  -0.01   0.02     0.04   0.02  -0.00    -0.01  -0.01   0.01
  50   1     0.02  -0.01   0.03     0.01  -0.01  -0.00    -0.00  -0.00   0.01
  51   7     0.08   0.01  -0.03    -0.01   0.01   0.20    -0.00  -0.01  -0.04
  52   1     0.02   0.02  -0.00    -0.02  -0.01   0.04     0.01  -0.00  -0.01
  53   1     0.01   0.02  -0.02    -0.00   0.01   0.08    -0.00  -0.00  -0.02
                     19                     20                     21
                        a                      a                      a 
 Frequencies --   130.7324               144.3667               151.5921
 Red. masses --    12.7114                13.7936                12.5825
 Frc consts  --     0.0000                 0.0000                 0.0000
 IR Inten    --    20.3146                 8.5894                20.2957
 Raman Activ --     0.0000                 0.0000                 0.0000
 Depolar     --     0.0000                 0.0000                 0.0000
 Atom AN      X      Y      Z        X      Y      Z        X      Y      Z
   1   8     0.00  -0.02  -0.01    -0.00  -0.02   0.03     0.02   0.04  -0.08
   2   6    -0.00  -0.00  -0.02     0.01  -0.00  -0.01    -0.05  -0.01   0.06
   3   1    -0.00   0.00  -0.01     0.00  -0.00  -0.01    -0.01   0.00   0.04
   4   1    -0.00  -0.00  -0.01     0.00  -0.00  -0.01    -0.01   0.00   0.03
   5   6     0.01   0.02  -0.02     0.05   0.03  -0.00    -0.16  -0.10   0.03
   6   1     0.00   0.01  -0.00     0.02   0.02   0.01    -0.05  -0.04  -0.01
   7   1     0.00   0.01  -0.01     0.02   0.01  -0.01    -0.06  -0.03   0.03
   8   7     0.01   0.02  -0.01     0.05   0.03   0.00    -0.17  -0.12   0.00
   9   6     0.03   0.03  -0.01     0.06   0.02   0.00    -0.28  -0.10   0.00
  10   1     0.01  -0.00  -0.01     0.02  -0.00  -0.00    -0.08  -0.04   0.02
  11   1    -0.00   0.01  -0.00     0.01   0.00  -0.00    -0.10  -0.03   0.01
  12   1     0.01   0.02  -0.00     0.02   0.02   0.00    -0.08  -0.02  -0.02
  13   6     0.01   0.02  -0.02     0.03   0.01  -0.02    -0.09  -0.03   0.12
  14   1    -0.00   0.00  -0.01     0.00   0.00  -0.00     0.01  -0.01   0.03
  15   1     0.00   0.01  -0.00     0.01   0.00  -0.00    -0.03  -0.00   0.04
  16   1     0.00   0.01  -0.01     0.01   0.00  -0.01    -0.04   0.01   0.06
  17   6     0.01   0.02   0.01     0.03   0.04   0.03    -0.07  -0.17  -0.14
  18   1    -0.01   0.01   0.00     0.00   0.01   0.01     0.01  -0.03  -0.05
  19   1     0.01   0.00   0.01     0.01   0.02   0.01    -0.04  -0.08  -0.05
  20   1     0.01   0.00  -0.00     0.00   0.01   0.01    -0.01  -0.05  -0.06
  21   1     0.01  -0.01  -0.00    -0.01  -0.01   0.01     0.04   0.02  -0.02
  22   6    -0.06  -0.01   0.03    -0.07  -0.03  -0.00     0.16   0.06  -0.06
  23   8    -0.07  -0.05   0.07    -0.18  -0.00  -0.00     0.49   0.08  -0.20
  24   7    -0.02  -0.04  -0.03    -0.02  -0.07  -0.03     0.00   0.22   0.19
  25   1     0.01  -0.03  -0.01    -0.04  -0.01  -0.02     0.05   0.11   0.08
  26   1    -0.00  -0.00  -0.02    -0.00  -0.01  -0.02    -0.07   0.05   0.10
  27   7    -0.11   0.07   0.03     0.03  -0.06   0.01    -0.04  -0.07  -0.09
  28   1     0.00   0.02   0.00     0.01  -0.01  -0.00    -0.04  -0.04  -0.01
  29   1    -0.04   0.03   0.02    -0.01  -0.00   0.00     0.01  -0.05  -0.06
  30   6     0.04  -0.01   0.05    -0.03  -0.14   0.11     0.04  -0.01   0.04
  31   8    -0.07  -0.11  -0.02    -0.08  -0.06   0.22     0.02  -0.04   0.03
  32   7     0.18   0.03  -0.04    -0.16  -0.11   0.21    -0.04   0.08   0.07
  33   1     0.03   0.02  -0.01    -0.04  -0.04   0.05    -0.01   0.02   0.01
  34   1     0.05   0.03   0.01     0.02  -0.06   0.03     0.00   0.02   0.02
  35   7    -0.00   0.01   0.20     0.17  -0.29  -0.05     0.15  -0.09   0.02
  36   1     0.01   0.01   0.06     0.03  -0.09  -0.02     0.03  -0.01   0.01
  37   1     0.01  -0.01   0.04     0.03  -0.05  -0.00     0.03  -0.01   0.01
  38   6    -0.02   0.00   0.12     0.13   0.19   0.01     0.05  -0.00   0.02
  39   8     0.16   0.21   0.28     0.13   0.42  -0.00     0.13   0.00   0.06
  40   7     0.00  -0.05  -0.21     0.23   0.04  -0.10     0.05  -0.01  -0.09
  41   1     0.05   0.02  -0.09     0.07   0.06  -0.05     0.03   0.01  -0.04
  42   1    -0.04  -0.07  -0.09     0.05  -0.02  -0.04    -0.01  -0.00  -0.04
  43   7    -0.23  -0.17   0.28     0.09   0.09   0.06    -0.02  -0.02   0.05
  44   1    -0.09  -0.07   0.05     0.03  -0.03   0.02    -0.02  -0.00   0.00
  45   1    -0.07  -0.03   0.10     0.02   0.04   0.04    -0.01  -0.00   0.02
  46   6     0.04   0.01  -0.15    -0.14  -0.01  -0.10    -0.04   0.08  -0.01
  47   8     0.28   0.14  -0.04    -0.36   0.09  -0.20    -0.13   0.25  -0.02
  48   7    -0.01   0.03  -0.43    -0.06  -0.08   0.03     0.01   0.01  -0.04
  49   1     0.03   0.01  -0.13    -0.04  -0.02   0.02     0.01   0.00  -0.01
  50   1    -0.02  -0.02  -0.13     0.03  -0.05   0.03     0.03  -0.05  -0.00
  51   7    -0.16  -0.13   0.00     0.07  -0.07  -0.16     0.01  -0.05   0.05
  52   1    -0.11  -0.05  -0.03     0.04   0.01  -0.03    -0.00  -0.03   0.01
  53   1    -0.05  -0.02   0.06    -0.02   0.03  -0.09    -0.03   0.03   0.02
                     22                     23                     24
                        a                      a                      a 
 Frequencies --   170.0530               172.8368               192.9039
 Red. masses --    12.9522                13.2006                12.3499
 Frc consts  --     0.0000                 0.0000                 0.0000
 IR Inten    --     4.2570                 6.1083                12.1640
 Raman Activ --     0.0000                 0.0000                 0.0000
 Depolar     --     0.0000                 0.0000                 0.0000
 Atom AN      X      Y      Z        X      Y      Z        X      Y      Z
   1   8     0.00   0.02  -0.03     0.00  -0.01  -0.01    -0.00  -0.15   0.14
   2   6     0.01  -0.00   0.00    -0.05   0.01   0.01    -0.08   0.02  -0.00
   3   1     0.00  -0.00   0.00    -0.01   0.01   0.01    -0.03   0.04  -0.03
   4   1     0.01   0.00   0.00    -0.02  -0.00   0.00    -0.07  -0.02  -0.01
   5   6    -0.02  -0.02  -0.01    -0.06  -0.01   0.01     0.09   0.05   0.04
   6   1    -0.01  -0.01  -0.01    -0.02  -0.00  -0.00     0.04   0.05   0.05
   7   1    -0.01  -0.00   0.00    -0.02  -0.00   0.01     0.07  -0.01  -0.00
   8   7    -0.00  -0.01  -0.00    -0.07  -0.02  -0.00    -0.01   0.00  -0.04
   9   6     0.01  -0.00  -0.00    -0.10  -0.02   0.00    -0.10  -0.09  -0.02
  10   1     0.01  -0.01  -0.00    -0.03  -0.00   0.01    -0.04  -0.02   0.03
  11   1    -0.01  -0.00   0.00    -0.03  -0.01  -0.00    -0.03  -0.04  -0.02
  12   1     0.01   0.02  -0.00    -0.03  -0.01  -0.00    -0.04  -0.04  -0.01
  13   6    -0.01  -0.01  -0.01    -0.04   0.02   0.04     0.01   0.00   0.02
  14   1    -0.01  -0.01  -0.00     0.00   0.01   0.01     0.03   0.04  -0.01
  15   1     0.00   0.00   0.00    -0.02   0.00   0.01    -0.02  -0.03  -0.03
  16   1    -0.00   0.00  -0.01    -0.02   0.01   0.03     0.01  -0.01   0.06
  17   6     0.00  -0.02   0.00    -0.04  -0.03  -0.05    -0.02   0.06  -0.16
  18   1    -0.01   0.00   0.00     0.00  -0.01  -0.02     0.04  -0.00  -0.05
  19   1     0.00  -0.02   0.02    -0.02  -0.02  -0.03    -0.02   0.04  -0.10
  20   1     0.01  -0.01  -0.01    -0.01  -0.01  -0.01    -0.05   0.02  -0.02
  21   1     0.01   0.00  -0.01     0.01  -0.00  -0.00    -0.04  -0.05   0.03
  22   6     0.00  -0.00   0.00     0.05   0.12   0.07    -0.01   0.14   0.08
  23   8    -0.04   0.01   0.00     0.18   0.01   0.16     0.10   0.02   0.19
  24   7    -0.00  -0.01  -0.01     0.03   0.13  -0.02     0.01   0.12  -0.04
  25   1    -0.02   0.00  -0.01     0.07  -0.01   0.01     0.06  -0.02   0.01
  26   1     0.01  -0.00  -0.01     0.01   0.04  -0.01     0.01   0.04  -0.02
  27   7     0.09  -0.04   0.01    -0.13   0.29   0.06    -0.17   0.31   0.07
  28   1     0.01  -0.01   0.00    -0.03   0.09   0.01    -0.06   0.10   0.01
  29   1     0.00   0.00  -0.00    -0.01   0.06   0.02    -0.06   0.09   0.02
  30   6    -0.03  -0.07  -0.22    -0.19  -0.15  -0.06     0.18   0.06   0.04
  31   8     0.09  -0.18  -0.33    -0.19  -0.07   0.01     0.25   0.01   0.01
  32   7    -0.07   0.04  -0.26    -0.17  -0.26  -0.04     0.07   0.13   0.09
  33   1    -0.02   0.01  -0.06    -0.03  -0.09  -0.01     0.02   0.04   0.03
  34   1    -0.07   0.05  -0.03    -0.02  -0.09  -0.03     0.01   0.04   0.03
  35   7    -0.11  -0.02  -0.16    -0.25  -0.12  -0.11     0.18   0.07   0.01
  36   1    -0.03   0.02  -0.03    -0.04  -0.06  -0.05     0.05   0.01  -0.00
  37   1    -0.04  -0.01  -0.04    -0.06  -0.03  -0.04     0.06   0.01  -0.00
  38   6    -0.02   0.03   0.09     0.15   0.11  -0.00    -0.06  -0.06   0.01
  39   8     0.13   0.24   0.22     0.14   0.13  -0.04    -0.02  -0.04   0.06
  40   7     0.02  -0.05  -0.22     0.19   0.09  -0.00    -0.08  -0.05  -0.06
  41   1     0.05   0.03  -0.09     0.05   0.02  -0.00    -0.01  -0.01  -0.02
  42   1    -0.04  -0.06  -0.09     0.05   0.02   0.00    -0.03  -0.02  -0.03
  43   7    -0.19  -0.11   0.22     0.16   0.13  -0.03    -0.11  -0.07   0.04
  44   1    -0.07  -0.06   0.05     0.05   0.02  -0.01    -0.03  -0.02   0.01
  45   1    -0.05  -0.03   0.07     0.05   0.04  -0.00    -0.03  -0.03   0.02
  46   6     0.04   0.05   0.17     0.11  -0.09   0.01    -0.07  -0.15  -0.09
  47   8    -0.12  -0.07   0.11     0.32  -0.29   0.08    -0.12  -0.35  -0.16
  48   7     0.06   0.04   0.37     0.01   0.01  -0.05    -0.10  -0.08   0.08
  49   1     0.01   0.00   0.11     0.01   0.00  -0.01    -0.03  -0.05   0.03
  50   1     0.02   0.03   0.10    -0.05   0.06  -0.03    -0.01   0.00   0.03
  51   7     0.18   0.17   0.07    -0.05   0.04  -0.00     0.09   0.02  -0.28
  52   1     0.10   0.06   0.04    -0.03   0.01  -0.01     0.03   0.09  -0.05
  53   1     0.05   0.03  -0.03     0.04  -0.05   0.02     0.02   0.00  -0.14
                     25                     26                     27
                        a                      a                      a 
 Frequencies --   199.3862               212.2101               220.8620
 Red. masses --    10.1319                 3.3607                11.5722
 Frc consts  --     0.0000                 0.0000                 0.0000
 IR Inten    --     6.8389               139.0471               115.2798
 Raman Activ --     0.0000                 0.0000                 0.0000
 Depolar     --     0.0000                 0.0000                 0.0000
 Atom AN      X      Y      Z        X      Y      Z        X      Y      Z
   1   8    -0.02  -0.29   0.38    -0.00  -0.01   0.02    -0.00   0.01  -0.01
   2   6    -0.12   0.05   0.01    -0.01   0.01   0.00     0.01  -0.01   0.00
   3   1    -0.04   0.08  -0.07    -0.00   0.01  -0.00     0.00  -0.01   0.01
   4   1    -0.13  -0.03  -0.02    -0.01  -0.00  -0.00     0.01   0.00  -0.00
   5   6     0.26   0.16   0.09     0.01   0.01   0.01    -0.02  -0.00  -0.00
   6   1     0.11   0.12   0.10     0.01   0.01   0.01    -0.01  -0.00  -0.01
   7   1     0.17  -0.01  -0.01     0.01  -0.00  -0.00    -0.01   0.00   0.00
   8   7     0.05   0.06  -0.06     0.01   0.00  -0.01    -0.02  -0.00   0.01
   9   6    -0.15  -0.18  -0.01    -0.01  -0.01  -0.00     0.00   0.00   0.00
  10   1    -0.06  -0.05   0.06    -0.00  -0.00   0.00    -0.01   0.01  -0.01
  11   1    -0.05  -0.08  -0.04    -0.01  -0.00  -0.00     0.02   0.00   0.00
  12   1    -0.06  -0.08  -0.02    -0.00  -0.00  -0.00    -0.00  -0.01   0.01
  13   6     0.06   0.04   0.04     0.01   0.00  -0.00    -0.01   0.00   0.01
  14   1     0.06   0.09  -0.01     0.00   0.00  -0.00    -0.00  -0.00   0.00
  15   1    -0.03  -0.04  -0.05    -0.00  -0.00  -0.00    -0.00   0.00   0.00
  16   1     0.03  -0.02   0.10     0.00  -0.00   0.00    -0.01   0.00   0.00
  17   6    -0.02   0.20  -0.29    -0.00   0.01  -0.01    -0.01  -0.01   0.01
  18   1     0.09   0.01  -0.08     0.00   0.00  -0.00     0.00  -0.01   0.00
  19   1    -0.02   0.13  -0.19     0.00   0.01  -0.01    -0.00  -0.00  -0.00
  20   1    -0.10   0.07  -0.02    -0.00   0.00  -0.00    -0.00  -0.00   0.00
  21   1    -0.10  -0.10   0.09    -0.00  -0.01   0.00     0.02  -0.00  -0.00
  22   6     0.01  -0.04  -0.06    -0.00  -0.00  -0.00     0.01  -0.03  -0.02
  23   8    -0.06   0.04  -0.13    -0.01  -0.00  -0.00     0.00  -0.00  -0.05
  24   7     0.02  -0.03   0.03    -0.00   0.00  -0.01     0.00  -0.01   0.02
  25   1    -0.02   0.03   0.00     0.01  -0.01   0.00     0.00   0.01   0.01
  26   1     0.00  -0.02   0.02     0.02  -0.01  -0.00     0.00  -0.01   0.01
  27   7     0.09  -0.16  -0.07    -0.02   0.01  -0.01     0.05  -0.06  -0.02
  28   1     0.03  -0.05  -0.01     0.01  -0.00   0.01    -0.01  -0.02  -0.00
  29   1     0.02  -0.05  -0.02     0.02  -0.01   0.00     0.02  -0.03  -0.01
  30   6    -0.06  -0.03  -0.04    -0.05  -0.01  -0.03     0.08   0.06   0.02
  31   8    -0.07  -0.01  -0.03    -0.20  -0.04  -0.07     0.43   0.24   0.17
  32   7    -0.01  -0.08  -0.06     0.04   0.08  -0.11    -0.13  -0.28   0.24
  33   1    -0.00  -0.02  -0.01    -0.00   0.03  -0.05     0.01  -0.11   0.12
  34   1    -0.00  -0.03  -0.02     0.04   0.03  -0.02    -0.09  -0.13   0.02
  35   7    -0.10  -0.00  -0.02     0.00  -0.05   0.11    -0.13   0.23  -0.38
  36   1    -0.03   0.00  -0.00     0.05  -0.02   0.03    -0.08   0.01  -0.14
  37   1    -0.03   0.01  -0.00    -0.00  -0.05   0.04    -0.01   0.12  -0.13
  38   6     0.03   0.01   0.01     0.03   0.00   0.01    -0.06   0.00  -0.01
  39   8     0.04  -0.00   0.00     0.02  -0.04  -0.01    -0.03   0.11   0.02
  40   7     0.03   0.03  -0.00     0.01   0.03   0.06    -0.02  -0.05  -0.15
  41   1     0.02  -0.01   0.00    -0.00  -0.01   0.02     0.02  -0.00  -0.06
  42   1     0.01  -0.01   0.00     0.01   0.01   0.02    -0.02  -0.07  -0.05
  43   7     0.02   0.02   0.00     0.05   0.02  -0.01    -0.10  -0.06   0.04
  44   1     0.00   0.01  -0.00     0.01   0.02  -0.01    -0.03  -0.04   0.01
  45   1     0.01   0.01  -0.00     0.01   0.02  -0.01    -0.03  -0.02   0.03
  46   6     0.03   0.07   0.04    -0.02   0.04   0.02    -0.00  -0.00   0.02
  47   8     0.04   0.15   0.07     0.02  -0.03   0.02     0.09  -0.02   0.07
  48   7     0.04   0.04  -0.02     0.05  -0.03   0.04    -0.00  -0.00  -0.05
  49   1     0.01   0.02  -0.01     0.06  -0.08   0.03     0.04  -0.02  -0.02
  50   1     0.00   0.00  -0.01     0.12  -0.16   0.05     0.02  -0.05  -0.01
  51   7    -0.04   0.00   0.12     0.20  -0.18   0.03    -0.03  -0.13   0.11
  52   1     0.01  -0.06   0.03    -0.45   0.57  -0.10    -0.21   0.16  -0.02
  53   1     0.00  -0.01   0.07    -0.28   0.37  -0.08    -0.12   0.10   0.04
                     28                     29                     30
                        a                      a                      a 
 Frequencies --   266.7995               278.8833               285.7846
 Red. masses --     4.9925                 2.3599                 6.9755
 Frc consts  --     0.0000                 0.0000                 0.0000
 IR Inten    --     8.7777               129.1638                 2.9295
 Raman Activ --     0.0000                 0.0000                 0.0000
 Depolar     --     0.0000                 0.0000                 0.0000
 Atom AN      X      Y      Z        X      Y      Z        X      Y      Z
   1   8    -0.14  -0.09   0.26     0.01   0.01  -0.04    -0.05   0.07   0.40
   2   6     0.22  -0.18   0.07    -0.05   0.04  -0.02     0.30  -0.02   0.09
   3   1     0.06  -0.18   0.06    -0.01   0.04  -0.02     0.09  -0.12   0.07
   4   1     0.18  -0.04  -0.05    -0.04   0.01   0.01     0.20   0.01  -0.03
   5   6    -0.05   0.08   0.01     0.03  -0.00  -0.00    -0.08   0.06  -0.03
   6   1    -0.03   0.00  -0.06     0.01   0.01   0.01    -0.04  -0.01  -0.09
   7   1    -0.05   0.03   0.03     0.02  -0.00  -0.01    -0.08   0.02   0.05
   8   7    -0.05   0.07  -0.04     0.01  -0.00   0.01    -0.10   0.01  -0.13
   9   6    -0.02  -0.15  -0.01    -0.00   0.02   0.00    -0.07   0.08  -0.15
  10   1     0.06  -0.14   0.04    -0.02   0.03  -0.00    -0.08   0.10  -0.07
  11   1    -0.13  -0.09  -0.04     0.03   0.01   0.00     0.08   0.05  -0.02
  12   1     0.04   0.05   0.00    -0.01  -0.02  -0.00    -0.06  -0.06  -0.04
  13   6     0.00   0.24  -0.12     0.01  -0.03   0.04    -0.10   0.08  -0.26
  14   1    -0.06  -0.12   0.01     0.02   0.03  -0.00    -0.07  -0.01  -0.06
  15   1     0.14   0.19   0.10    -0.03  -0.04  -0.02     0.01   0.04  -0.06
  16   1    -0.05   0.16  -0.22     0.01  -0.03   0.05    -0.04   0.04  -0.12
  17   6    -0.04   0.08  -0.14    -0.00   0.01   0.02     0.05  -0.21   0.04
  18   1    -0.20   0.28  -0.05     0.01  -0.02   0.01     0.20  -0.35   0.03
  19   1     0.04  -0.12   0.23    -0.00   0.01  -0.01    -0.05   0.05  -0.26
  20   1     0.14  -0.08  -0.31    -0.01   0.01   0.03    -0.07   0.07   0.32
  21   1     0.14  -0.16   0.04     0.01  -0.00  -0.01    -0.00  -0.06   0.09
  22   6     0.01   0.01   0.00    -0.00  -0.00  -0.00     0.01  -0.00   0.00
  23   8     0.01   0.00   0.01    -0.00  -0.00  -0.00     0.02  -0.01   0.01
  24   7     0.00   0.02   0.01    -0.00  -0.00  -0.00    -0.00  -0.00  -0.00
  25   1     0.01   0.00   0.00     0.00  -0.00   0.00     0.00  -0.00  -0.00
  26   1     0.00   0.00   0.00     0.00  -0.00   0.00    -0.00   0.00  -0.00
  27   7     0.01   0.02   0.01    -0.01  -0.00  -0.00    -0.01   0.01   0.00
  28   1     0.00   0.01  -0.00    -0.00  -0.00   0.00    -0.01   0.00   0.00
  29   1    -0.00   0.01   0.00     0.01  -0.01   0.00     0.01  -0.01   0.00
  30   6     0.00   0.00   0.00    -0.01   0.01  -0.00    -0.00   0.00  -0.00
  31   8     0.00   0.01   0.01    -0.02   0.03   0.00    -0.01  -0.00  -0.01
  32   7    -0.00  -0.00   0.00    -0.01  -0.00   0.00    -0.00   0.01  -0.00
  33   1    -0.00  -0.00  -0.00     0.01  -0.01   0.00     0.00  -0.00  -0.00
  34   1     0.00  -0.00   0.00     0.01  -0.01  -0.01    -0.00   0.01   0.00
  35   7     0.00   0.00  -0.01    -0.00   0.01  -0.03     0.01  -0.01   0.00
  36   1     0.00  -0.00  -0.00     0.00  -0.01  -0.01     0.00   0.00   0.00
  37   1     0.00   0.00  -0.00    -0.00   0.01  -0.01     0.00  -0.00   0.00
  38   6    -0.00   0.00  -0.01     0.00   0.01   0.01     0.01  -0.00   0.01
  39   8    -0.01  -0.01  -0.01     0.04  -0.03   0.03     0.02  -0.01   0.01
  40   7     0.00  -0.04   0.02     0.06  -0.28   0.06     0.01  -0.01  -0.00
  41   1    -0.03   0.06  -0.01    -0.14   0.44  -0.09    -0.00   0.02  -0.01
  42   1    -0.04   0.09  -0.02    -0.26   0.66  -0.20    -0.01   0.03  -0.01
  43   7     0.00   0.00  -0.01    -0.01   0.03  -0.02    -0.01   0.00   0.01
  44   1     0.02  -0.03   0.01     0.13  -0.27   0.07     0.00  -0.01   0.01
  45   1     0.01  -0.01  -0.00     0.05  -0.09   0.03     0.00  -0.01   0.00
  46   6    -0.00  -0.00  -0.00     0.00   0.00   0.00    -0.00  -0.00   0.00
  47   8     0.00  -0.01  -0.00     0.00   0.00   0.00    -0.00  -0.00  -0.00
  48   7    -0.00  -0.00  -0.00     0.01  -0.00  -0.00    -0.00  -0.00   0.00
  49   1    -0.00  -0.00  -0.00    -0.00   0.01  -0.00    -0.00  -0.00   0.00
  50   1    -0.00   0.00  -0.00    -0.00   0.01  -0.00     0.00  -0.00   0.00
  51   7     0.00  -0.00  -0.00    -0.00  -0.01   0.01     0.00   0.00  -0.00
  52   1    -0.00   0.00  -0.00    -0.01   0.01  -0.00     0.00  -0.00   0.00
  53   1    -0.00   0.00  -0.00    -0.01   0.01   0.00     0.00  -0.00  -0.00
                     31                     32                     33
                        a                      a                      a 
 Frequencies --   310.8523               315.0563               340.3472
 Red. masses --     6.1685                 3.7200                 2.1889
 Frc consts  --     0.0000                 0.0000                 0.0000
 IR Inten    --    54.2690                99.3902                 1.7954
 Raman Activ --     0.0000                 0.0000                 0.0000
 Depolar     --     0.0000                 0.0000                 0.0000
 Atom AN      X      Y      Z        X      Y      Z        X      Y      Z
   1   8    -0.10   0.11   0.25    -0.20   0.08  -0.15     0.02   0.02  -0.18
   2   6    -0.13   0.24   0.01    -0.03  -0.10  -0.02    -0.14   0.03  -0.01
   3   1    -0.04   0.12  -0.04    -0.01  -0.07   0.02    -0.04   0.06  -0.02
   4   1    -0.12   0.05   0.01     0.04  -0.01  -0.02    -0.09   0.01   0.03
   5   6     0.06   0.02  -0.00    -0.06  -0.02  -0.01     0.03  -0.04   0.04
   6   1     0.02  -0.01   0.03    -0.02  -0.01  -0.01     0.02   0.02   0.05
   7   1     0.03  -0.01   0.01    -0.03   0.01  -0.02     0.04  -0.03  -0.00
   8   7     0.06  -0.05  -0.12     0.01   0.02   0.05     0.03  -0.04   0.03
   9   6    -0.09   0.28  -0.16     0.15  -0.21   0.09     0.02  -0.11   0.05
  10   1     0.04   0.00  -0.05    -0.06   0.07   0.01     0.16  -0.23   0.05
  11   1    -0.17   0.11   0.04     0.24  -0.07  -0.04    -0.26  -0.07   0.01
  12   1     0.01   0.21  -0.13    -0.02  -0.24   0.11     0.10   0.19  -0.02
  13   6    -0.00  -0.31   0.04     0.06   0.13   0.07     0.07   0.04   0.03
  14   1     0.00  -0.13   0.02     0.08   0.13  -0.01    -0.09  -0.33   0.10
  15   1    -0.06  -0.08   0.05    -0.01  -0.02  -0.06     0.22   0.24   0.27
  16   1     0.04  -0.13  -0.01     0.01   0.02   0.13    -0.05   0.16  -0.34
  17   6     0.12  -0.16  -0.03    -0.09   0.15  -0.01    -0.05   0.07   0.01
  18   1    -0.03   0.00  -0.01     0.04  -0.03   0.00     0.15  -0.17   0.01
  19   1     0.04  -0.11   0.07    -0.03   0.13  -0.11    -0.04   0.17  -0.23
  20   1     0.11  -0.06  -0.07    -0.13   0.06   0.09    -0.18   0.09   0.22
  21   1     0.48  -0.31   0.00     0.64  -0.33  -0.09     0.10  -0.00  -0.04
  22   6    -0.01  -0.00   0.00     0.00   0.00  -0.00    -0.00   0.00   0.00
  23   8    -0.03   0.00   0.00     0.01  -0.00  -0.00    -0.01   0.00   0.01
  24   7    -0.00  -0.01  -0.01     0.01   0.00   0.01    -0.00   0.01   0.00
  25   1    -0.01  -0.00  -0.01    -0.01   0.01   0.00     0.01   0.00   0.00
  26   1     0.00  -0.00  -0.01    -0.01   0.01   0.00     0.00  -0.00   0.00
  27   7     0.00  -0.01   0.01    -0.00   0.00  -0.00     0.02   0.01   0.01
  28   1     0.00  -0.00   0.00    -0.00   0.00  -0.00     0.01   0.00  -0.00
  29   1    -0.01   0.00   0.00     0.00  -0.00  -0.00    -0.02   0.02  -0.00
  30   6    -0.00  -0.00   0.01    -0.00   0.00  -0.01     0.00  -0.00   0.00
  31   8     0.01   0.00   0.01    -0.01  -0.01  -0.01     0.00   0.00   0.01
  32   7     0.01  -0.02   0.00    -0.01   0.02  -0.00     0.01  -0.01  -0.00
  33   1    -0.01   0.01   0.00     0.01  -0.01  -0.01    -0.01   0.01   0.01
  34   1     0.00  -0.00   0.00     0.02  -0.01  -0.01    -0.01   0.01   0.01
  35   7    -0.01  -0.00  -0.01     0.01  -0.01   0.02    -0.01   0.01  -0.01
  36   1    -0.01  -0.00  -0.00    -0.01   0.01   0.01     0.01  -0.01  -0.01
  37   1    -0.00   0.00  -0.00    -0.00  -0.00   0.01     0.00   0.00  -0.00
  38   6     0.00  -0.01  -0.00    -0.01   0.02  -0.00     0.00  -0.01   0.00
  39   8     0.00  -0.02  -0.01    -0.02   0.03  -0.00     0.00  -0.01  -0.00
  40   7    -0.00   0.02   0.00    -0.00  -0.01   0.01    -0.01   0.00   0.01
  41   1     0.01  -0.02   0.00    -0.00  -0.01   0.00    -0.01   0.01   0.00
  42   1     0.01  -0.02   0.01     0.01  -0.02   0.01    -0.01   0.02  -0.00
  43   7     0.01   0.01  -0.01     0.00  -0.01   0.01    -0.01   0.01  -0.00
  44   1     0.00   0.00  -0.00    -0.02   0.03  -0.01     0.01  -0.03   0.01
  45   1     0.00  -0.00  -0.00    -0.01   0.01  -0.00     0.00  -0.01   0.01
  46   6     0.00  -0.00  -0.00    -0.00   0.00   0.00     0.00  -0.00  -0.00
  47   8     0.00   0.00  -0.00    -0.01   0.00  -0.00     0.00  -0.00  -0.00
  48   7     0.00  -0.00  -0.00     0.00  -0.00   0.00     0.00  -0.00   0.00
  49   1    -0.00   0.00  -0.00    -0.00   0.00   0.00    -0.00   0.00  -0.00
  50   1    -0.00   0.00  -0.00    -0.00   0.00   0.00    -0.00   0.00  -0.00
  51   7    -0.00  -0.00   0.00     0.01   0.00  -0.00    -0.00  -0.00  -0.00
  52   1    -0.00  -0.00   0.00     0.01  -0.00   0.00    -0.00   0.00  -0.00
  53   1     0.00  -0.00   0.00     0.00  -0.00  -0.00    -0.00  -0.00   0.00
                     34                     35                     36
                        a                      a                      a 
 Frequencies --   367.6884               373.2665               382.1770
 Red. masses --     3.6608                 4.9856                 3.2931
 Frc consts  --     0.0000                 0.0000                 0.0000
 IR Inten    --     2.0296                12.9281                46.9838
 Raman Activ --     0.0000                 0.0000                 0.0000
 Depolar     --     0.0000                 0.0000                 0.0000
 Atom AN      X      Y      Z        X      Y      Z        X      Y      Z
   1   8     0.04  -0.04   0.05    -0.03  -0.05   0.05    -0.00  -0.03   0.05
   2   6    -0.09   0.01   0.10     0.01  -0.11   0.12    -0.00  -0.04   0.06
   3   1    -0.02   0.01   0.05     0.01  -0.09   0.11     0.00  -0.04   0.06
   4   1    -0.03  -0.00   0.02     0.08  -0.02  -0.01     0.04  -0.01  -0.01
   5   6    -0.10   0.01   0.07    -0.30  -0.01   0.02    -0.19  -0.00   0.00
   6   1    -0.03  -0.03   0.03    -0.12  -0.10  -0.06    -0.08  -0.07  -0.04
   7   1    -0.05   0.03   0.01    -0.20   0.07   0.04    -0.11   0.03   0.02
   8   7     0.02   0.02   0.00     0.02   0.06  -0.01     0.00   0.04  -0.02
   9   6     0.13   0.14  -0.03     0.27   0.08  -0.02     0.17   0.06  -0.02
  10   1    -0.16   0.32  -0.11     0.21  -0.13  -0.05     0.15  -0.09  -0.03
  11   1     0.41   0.10   0.01    -0.10   0.00   0.01    -0.07   0.00   0.00
  12   1    -0.09  -0.26   0.07     0.18   0.21   0.01     0.12   0.14   0.01
  13   6    -0.03  -0.22   0.12     0.00  -0.08   0.12     0.00  -0.05   0.09
  14   1    -0.09  -0.35   0.11     0.08   0.08   0.01     0.05   0.02   0.02
  15   1     0.06   0.11   0.27    -0.13  -0.10  -0.04    -0.07  -0.05   0.01
  16   1    -0.01  -0.01  -0.23     0.04  -0.10   0.17     0.02  -0.05   0.09
  17   6     0.03   0.10  -0.29     0.05   0.12  -0.28     0.03   0.06  -0.18
  18   1     0.04   0.11  -0.10     0.12   0.02  -0.09     0.08   0.01  -0.05
  19   1    -0.01   0.00  -0.09    -0.02   0.06  -0.18    -0.01   0.03  -0.11
  20   1    -0.01  -0.01  -0.15    -0.06   0.03  -0.05    -0.04   0.02  -0.03
  21   1    -0.06   0.05   0.02    -0.04   0.02   0.02    -0.05   0.02   0.02
  22   6     0.00  -0.01   0.01    -0.01   0.00   0.00     0.01  -0.00   0.01
  23   8     0.01  -0.01   0.00    -0.01   0.01   0.01     0.01  -0.00  -0.00
  24   7    -0.00  -0.02  -0.01    -0.00   0.00  -0.00    -0.00  -0.01  -0.00
  25   1    -0.01  -0.01  -0.01    -0.01  -0.01  -0.01     0.01   0.00   0.00
  26   1    -0.00   0.00  -0.01     0.02  -0.01  -0.01    -0.04   0.02  -0.00
  27   7    -0.02   0.00   0.00     0.00  -0.00   0.01     0.02  -0.00   0.01
  28   1    -0.01  -0.00   0.00     0.01  -0.00   0.00    -0.00   0.01  -0.01
  29   1     0.03  -0.03   0.01    -0.03   0.02  -0.00    -0.02   0.02   0.00
  30   6    -0.01   0.00  -0.00    -0.04   0.01   0.04     0.06  -0.01  -0.06
  31   8    -0.01  -0.00  -0.01    -0.02   0.02   0.04     0.03  -0.02  -0.06
  32   7     0.00   0.00  -0.01     0.09  -0.05  -0.07    -0.15   0.06   0.11
  33   1     0.01  -0.01   0.00    -0.05   0.04   0.04     0.06  -0.05  -0.06
  34   1    -0.03   0.01   0.01    -0.34   0.19   0.19     0.56  -0.32  -0.31
  35   7     0.01  -0.01   0.01     0.01  -0.01  -0.02    -0.00   0.01   0.03
  36   1     0.00   0.00   0.01     0.09  -0.09  -0.05    -0.18   0.17   0.08
  37   1     0.00  -0.00   0.00     0.01  -0.01  -0.01    -0.02   0.03   0.02
  38   6    -0.00   0.01   0.00     0.03  -0.04  -0.00    -0.04   0.04  -0.00
  39   8     0.00   0.01   0.01     0.02  -0.02  -0.01    -0.02   0.02   0.00
  40   7     0.01  -0.01  -0.01    -0.01   0.06   0.00     0.00  -0.07   0.03
  41   1     0.00   0.00  -0.00    -0.00  -0.01   0.01    -0.02   0.02   0.00
  42   1    -0.00   0.00  -0.01     0.01  -0.01   0.01    -0.02   0.06  -0.01
  43   7     0.00  -0.00   0.01    -0.03   0.06  -0.02     0.01  -0.08   0.03
  44   1    -0.00   0.01  -0.00     0.07  -0.16   0.04    -0.10   0.18  -0.05
  45   1     0.00   0.00  -0.00     0.01  -0.03   0.02    -0.03   0.04  -0.01
  46   6    -0.00   0.00   0.00    -0.00   0.00  -0.01     0.01  -0.02   0.02
  47   8    -0.00   0.00   0.00     0.00   0.00  -0.01     0.00  -0.01   0.01
  48   7    -0.00   0.00  -0.00     0.01  -0.01   0.00    -0.02   0.02  -0.01
  49   1     0.00  -0.00  -0.00    -0.00   0.00   0.00     0.00  -0.01  -0.00
  50   1     0.00  -0.00   0.00    -0.02   0.03  -0.01     0.05  -0.07   0.02
  51   7     0.00   0.00  -0.00    -0.01  -0.02   0.00     0.00   0.03  -0.00
  52   1     0.00  -0.00   0.00    -0.01  -0.00  -0.00     0.01   0.01   0.00
  53   1     0.00  -0.00  -0.00    -0.00  -0.00   0.01     0.01  -0.00  -0.01
                     37                     38                     39
                        a                      a                      a 
 Frequencies --   396.5151               415.4092               416.0882
 Red. masses --     3.4214                 4.2269                 7.6389
 Frc consts  --     0.0000                 0.0000                 0.0000
 IR Inten    --    26.8707                52.6678                17.9423
 Raman Activ --     0.0000                 0.0000                 0.0000
 Depolar     --     0.0000                 0.0000                 0.0000
 Atom AN      X      Y      Z        X      Y      Z        X      Y      Z
   1   8     0.00   0.00   0.00    -0.02  -0.03  -0.09     0.04   0.05   0.21
   2   6     0.00  -0.00   0.00    -0.02  -0.07   0.02     0.04   0.18  -0.08
   3   1     0.00  -0.00   0.00    -0.00  -0.03   0.01     0.01   0.07  -0.03
   4   1     0.00  -0.00  -0.00     0.01  -0.02   0.00    -0.02   0.04  -0.02
   5   6    -0.01  -0.00   0.00     0.02   0.05   0.05    -0.07  -0.06  -0.15
   6   1    -0.01  -0.00  -0.00     0.01   0.03   0.03    -0.04  -0.08  -0.09
   7   1    -0.00   0.00   0.00     0.02   0.02  -0.01    -0.09  -0.00   0.02
   8   7     0.00   0.00   0.00     0.02   0.10   0.12    -0.02  -0.14  -0.25
   9   6     0.01   0.00   0.00    -0.04   0.04   0.13     0.11  -0.11  -0.27
  10   1     0.00   0.00   0.00     0.00  -0.02   0.06     0.03  -0.03  -0.09
  11   1     0.01   0.00   0.00    -0.05   0.00   0.03     0.06  -0.03  -0.08
  12   1     0.00  -0.00   0.00    -0.01   0.03   0.03     0.04  -0.04  -0.03
  13   6    -0.00  -0.00   0.00    -0.12  -0.05  -0.12     0.24   0.03   0.28
  14   1    -0.00  -0.00   0.00    -0.11   0.01  -0.04     0.23  -0.04   0.09
  15   1    -0.00  -0.00   0.00    -0.05  -0.04  -0.07     0.06   0.06   0.16
  16   1     0.00  -0.00   0.00     0.02  -0.06  -0.07    -0.01   0.08   0.14
  17   6     0.00   0.00  -0.01     0.17   0.00  -0.07    -0.28   0.01   0.14
  18   1     0.00   0.00  -0.00     0.11   0.01  -0.03    -0.19  -0.03   0.05
  19   1     0.00   0.00  -0.00     0.01  -0.04  -0.07    -0.01   0.09   0.12
  20   1     0.00   0.00  -0.01     0.06   0.00  -0.02    -0.10   0.01   0.06
  21   1    -0.00   0.00   0.00     0.04  -0.00  -0.02    -0.11  -0.01   0.05
  22   6     0.01  -0.01   0.01     0.01  -0.02   0.00     0.01  -0.00   0.01
  23   8     0.01   0.00  -0.00    -0.01   0.00  -0.00    -0.00   0.01   0.01
  24   7    -0.04   0.03  -0.02    -0.07   0.06  -0.02    -0.03   0.03  -0.01
  25   1     0.07  -0.05   0.02     0.13  -0.08   0.04     0.04  -0.04   0.01
  26   1     0.06  -0.04   0.00     0.13  -0.09   0.01     0.06  -0.03  -0.00
  27   7    -0.02  -0.01  -0.01    -0.00  -0.02  -0.01    -0.00  -0.01  -0.00
  28   1     0.03  -0.02   0.02     0.01  -0.01   0.00     0.00  -0.01   0.01
  29   1     0.01  -0.01   0.01     0.02  -0.02   0.01     0.01  -0.01  -0.00
  30   6     0.04  -0.03  -0.02     0.04  -0.04   0.01     0.02  -0.02   0.01
  31   8     0.02  -0.04  -0.03     0.02  -0.05  -0.00     0.01  -0.02   0.00
  32   7    -0.05   0.04   0.04    -0.01   0.01   0.02    -0.00   0.01   0.01
  33   1     0.01  -0.00  -0.01     0.01  -0.01   0.00     0.01  -0.01  -0.00
  34   1     0.16  -0.08  -0.08    -0.11   0.07   0.07    -0.08   0.05   0.05
  35   7    -0.05   0.05   0.04    -0.09   0.07   0.02    -0.04   0.04   0.01
  36   1     0.06  -0.05  -0.01     0.25  -0.21  -0.09     0.14  -0.11  -0.05
  37   1     0.03  -0.03  -0.02     0.00  -0.02  -0.01     0.00  -0.01  -0.00
  38   6     0.01  -0.03   0.01    -0.05   0.11  -0.03    -0.03   0.06  -0.01
  39   8     0.01  -0.01   0.01    -0.03   0.04  -0.02    -0.02   0.03  -0.01
  40   7    -0.03   0.05  -0.00     0.07  -0.16   0.04     0.03  -0.08   0.02
  41   1    -0.00  -0.02   0.01    -0.02   0.07  -0.01    -0.01   0.04  -0.01
  42   1     0.02  -0.06   0.02    -0.06   0.16  -0.05    -0.02   0.07  -0.02
  43   7    -0.04   0.05  -0.02     0.10  -0.18   0.05     0.04  -0.09   0.03
  44   1     0.07  -0.16   0.04    -0.27   0.57  -0.15    -0.13   0.28  -0.07
  45   1     0.01  -0.02   0.01    -0.02   0.04  -0.03    -0.01   0.02  -0.01
  46   6    -0.09   0.12  -0.05    -0.01   0.03  -0.02    -0.01   0.02  -0.01
  47   8    -0.03   0.09  -0.02    -0.01   0.02  -0.02    -0.00   0.01  -0.01
  48   7     0.16  -0.23   0.10     0.03  -0.02   0.02     0.01  -0.01   0.01
  49   1    -0.04   0.09  -0.01    -0.00   0.00   0.01    -0.00   0.00   0.00
  50   1    -0.49   0.65  -0.19    -0.06   0.09  -0.02    -0.03   0.05  -0.01
  51   7     0.10  -0.15   0.01    -0.00  -0.03   0.01     0.00  -0.02   0.00
  52   1    -0.08   0.07  -0.02    -0.01  -0.02  -0.00    -0.00  -0.01  -0.00
  53   1    -0.04   0.04   0.00    -0.01   0.01   0.01    -0.01   0.01   0.01
                     40                     41                     42
                        a                      a                      a 
 Frequencies --   439.0414               454.1497               459.4216
 Red. masses --     3.3748                 6.6945                 4.7528
 Frc consts  --     0.0000                 0.0000                 0.0000
 IR Inten    --   791.6586                30.9663                51.9467
 Raman Activ --     0.0000                 0.0000                 0.0000
 Depolar     --     0.0000                 0.0000                 0.0000
 Atom AN      X      Y      Z        X      Y      Z        X      Y      Z
   1   8     0.00  -0.01  -0.01     0.00  -0.00   0.03     0.00  -0.00   0.01
   2   6    -0.00  -0.02   0.02     0.02   0.15  -0.21     0.02   0.08  -0.13
   3   1    -0.00  -0.00  -0.00     0.01   0.03  -0.05     0.01   0.01  -0.04
   4   1    -0.00  -0.00   0.01     0.01   0.03  -0.11     0.00   0.01  -0.07
   5   6     0.03  -0.02   0.03    -0.06   0.25  -0.17    -0.01   0.16  -0.10
   6   1     0.02   0.02   0.02    -0.03   0.05  -0.08    -0.00   0.06  -0.04
   7   1     0.03  -0.02   0.00    -0.04   0.08  -0.03     0.01   0.03  -0.02
   8   7    -0.04  -0.03   0.00    -0.06   0.25  -0.03    -0.10   0.14  -0.01
   9   6     0.01   0.03  -0.01     0.06  -0.28   0.06     0.09  -0.16   0.05
  10   1     0.02  -0.01  -0.02     0.03  -0.11   0.08     0.06  -0.09   0.03
  11   1    -0.02   0.02   0.01     0.03  -0.15  -0.11     0.01  -0.09  -0.06
  12   1     0.02   0.04   0.00     0.03  -0.12   0.11     0.06  -0.04   0.09
  13   6    -0.02   0.04  -0.01    -0.18  -0.14   0.17    -0.15  -0.04   0.13
  14   1     0.00   0.02  -0.00    -0.05  -0.12   0.07    -0.03  -0.06   0.05
  15   1     0.01   0.01  -0.01    -0.14  -0.01   0.13    -0.09   0.00   0.08
  16   1    -0.02   0.02   0.01     0.01  -0.10   0.01    -0.01  -0.04   0.02
  17   6    -0.03  -0.03  -0.03     0.20  -0.08   0.10     0.11  -0.10   0.03
  18   1     0.00  -0.01  -0.01     0.06  -0.07   0.03     0.05  -0.06   0.01
  19   1    -0.01  -0.01  -0.01     0.02  -0.11   0.03    -0.00  -0.09  -0.00
  20   1    -0.01  -0.01  -0.01     0.16   0.01   0.06     0.10  -0.00   0.03
  21   1    -0.00   0.01  -0.00    -0.05  -0.05  -0.00    -0.02  -0.03  -0.00
  22   6    -0.02   0.04   0.02    -0.01  -0.01  -0.05     0.00  -0.01   0.03
  23   8     0.04   0.03  -0.00    -0.03  -0.06   0.01     0.04   0.04  -0.04
  24   7     0.17  -0.15   0.03    -0.05   0.05   0.01     0.12  -0.09   0.07
  25   1    -0.40   0.19  -0.13     0.25  -0.02   0.10    -0.45   0.13  -0.15
  26   1    -0.20   0.18  -0.07    -0.19   0.05   0.07     0.22  -0.05  -0.06
  27   7    -0.07   0.05   0.02     0.12  -0.02  -0.01    -0.16   0.10  -0.01
  28   1     0.00  -0.00   0.02     0.12   0.01  -0.03    -0.18   0.01   0.02
  29   1     0.02  -0.01   0.01    -0.21   0.18  -0.01     0.33  -0.24   0.03
  30   6    -0.05   0.04   0.00    -0.04   0.04  -0.01     0.05  -0.04   0.01
  31   8    -0.01   0.08   0.02    -0.01   0.05  -0.00     0.00  -0.05  -0.01
  32   7     0.08  -0.10  -0.07     0.02  -0.05  -0.03    -0.03   0.06   0.04
  33   1     0.01  -0.02   0.03     0.01  -0.02   0.01     0.01   0.00  -0.01
  34   1    -0.22   0.08   0.09    -0.09   0.02   0.03     0.08  -0.02  -0.02
  35   7     0.15  -0.14  -0.00     0.07  -0.05   0.01    -0.07   0.07  -0.02
  36   1    -0.38   0.30   0.14    -0.14   0.13   0.06     0.15  -0.14  -0.07
  37   1     0.04  -0.00  -0.01     0.01  -0.01   0.01    -0.01   0.01  -0.01
  38   6    -0.02   0.04  -0.00     0.00   0.00  -0.02     0.02  -0.01  -0.04
  39   8    -0.02   0.01  -0.00     0.01   0.01  -0.01     0.06   0.01  -0.02
  40   7     0.03  -0.08  -0.00     0.00   0.00   0.01    -0.00   0.03   0.06
  41   1     0.01   0.03  -0.02    -0.01   0.00   0.01    -0.06   0.02   0.04
  42   1    -0.05   0.08  -0.04     0.01   0.00   0.01     0.06  -0.02   0.06
  43   7     0.06  -0.08   0.03    -0.01  -0.01   0.00    -0.08  -0.01  -0.01
  44   1    -0.12   0.29  -0.07    -0.01   0.00  -0.00    -0.01  -0.08   0.00
  45   1     0.01   0.00  -0.01    -0.01   0.00   0.01    -0.02  -0.01   0.02
  46   6    -0.01   0.00  -0.01     0.00  -0.01  -0.01    -0.02  -0.01   0.04
  47   8     0.02  -0.00   0.01     0.01  -0.00  -0.00    -0.01   0.01   0.06
  48   7     0.03  -0.07   0.03     0.00  -0.01   0.02    -0.03  -0.02  -0.07
  49   1     0.01  -0.00  -0.01    -0.01   0.00   0.01     0.02  -0.00  -0.04
  50   1    -0.16   0.20  -0.06    -0.02   0.04  -0.00    -0.01  -0.05  -0.02
  51   7     0.03  -0.04  -0.01    -0.00  -0.01  -0.00     0.05   0.04  -0.01
  52   1    -0.05   0.06  -0.01    -0.02   0.02  -0.01     0.06   0.02   0.02
  53   1    -0.00   0.00  -0.01    -0.00  -0.00   0.00     0.02   0.00  -0.05
                     43                     44                     45
                        a                      a                      a 
 Frequencies --   467.2444               470.7327               472.7765
 Red. masses --     7.7705                 6.0994                 7.4408
 Frc consts  --     0.0000                 0.0000                 0.0000
 IR Inten    --     4.5265                30.7759                 5.2249
 Raman Activ --     0.0000                 0.0000                 0.0000
 Depolar     --     0.0000                 0.0000                 0.0000
 Atom AN      X      Y      Z        X      Y      Z        X      Y      Z
   1   8    -0.01  -0.01   0.01     0.00   0.00  -0.01    -0.00  -0.00   0.01
   2   6    -0.01   0.00   0.01     0.00   0.01  -0.02    -0.00   0.01  -0.02
   3   1     0.00  -0.01   0.03     0.00   0.00  -0.01     0.00  -0.01   0.01
   4   1     0.01  -0.00  -0.01     0.00   0.00  -0.01     0.01   0.00  -0.02
   5   6    -0.15  -0.01  -0.03     0.02   0.03  -0.01    -0.08   0.03  -0.04
   6   1    -0.08  -0.12  -0.06     0.01   0.03   0.01    -0.04  -0.05  -0.04
   7   1    -0.15   0.07   0.01     0.03  -0.00  -0.01    -0.07   0.04   0.00
   8   7     0.21   0.06  -0.02    -0.05   0.01   0.00     0.09   0.06  -0.02
   9   6    -0.16  -0.07  -0.00     0.04  -0.03   0.01    -0.07  -0.08   0.01
  10   1    -0.08  -0.02   0.10     0.03  -0.02  -0.01    -0.03  -0.02   0.06
  11   1    -0.09  -0.04  -0.02     0.02  -0.01  -0.01    -0.03  -0.04  -0.02
  12   1    -0.08  -0.04  -0.08     0.02  -0.00   0.03    -0.04  -0.04  -0.02
  13   6     0.13  -0.14  -0.09    -0.05   0.02   0.04     0.04  -0.08  -0.02
  14   1    -0.00  -0.05  -0.02    -0.00   0.00   0.01    -0.01  -0.04  -0.00
  15   1    -0.00  -0.05  -0.02    -0.01   0.01   0.02    -0.02  -0.02   0.01
  16   1     0.08  -0.08  -0.05    -0.01   0.01   0.01     0.04  -0.05  -0.02
  17   6     0.08   0.20   0.11     0.00  -0.05  -0.01     0.07   0.08   0.06
  18   1    -0.01   0.04   0.04     0.01  -0.02  -0.00     0.00   0.01   0.02
  19   1     0.05   0.10   0.05    -0.01  -0.03  -0.01     0.03   0.03   0.02
  20   1    -0.02   0.06   0.05     0.02  -0.01  -0.00     0.02   0.03   0.03
  21   1    -0.02   0.01   0.00     0.01  -0.01  -0.00    -0.01  -0.00   0.00
  22   6    -0.03  -0.05  -0.11     0.04   0.05   0.14     0.01   0.01   0.02
  23   8    -0.09  -0.13  -0.02     0.16   0.18   0.01     0.04   0.02   0.01
  24   7     0.04   0.02   0.16    -0.17   0.10  -0.19     0.05  -0.03   0.00
  25   1     0.08   0.09   0.08    -0.08  -0.22  -0.10    -0.19   0.06  -0.07
  26   1    -0.01  -0.08   0.13     0.50  -0.17  -0.16     0.02   0.03  -0.04
  27   7     0.00   0.18  -0.11    -0.06  -0.24   0.13    -0.05   0.02   0.02
  28   1    -0.06   0.05  -0.04    -0.02  -0.07   0.05    -0.03   0.00   0.00
  29   1     0.26  -0.11   0.06    -0.20   0.03  -0.07     0.01  -0.01  -0.00
  30   6     0.00   0.03  -0.03    -0.03   0.07  -0.04     0.02  -0.04   0.02
  31   8    -0.00   0.04  -0.03    -0.02   0.06  -0.04     0.02  -0.03   0.03
  32   7    -0.03  -0.06   0.00    -0.02  -0.11  -0.01     0.02   0.09  -0.01
  33   1    -0.00  -0.02   0.03    -0.01  -0.03   0.05    -0.01   0.04  -0.04
  34   1    -0.05  -0.02  -0.00    -0.07  -0.04  -0.01     0.09   0.02  -0.01
  35   7     0.04  -0.01   0.06     0.08  -0.03   0.08    -0.04  -0.00  -0.02
  36   1    -0.02   0.05   0.05    -0.11   0.14   0.09     0.03  -0.05  -0.03
  37   1    -0.00  -0.01   0.03     0.04  -0.04   0.01     0.00  -0.00  -0.02
  38   6    -0.05   0.02   0.12    -0.04   0.02   0.10    -0.05   0.02   0.11
  39   8    -0.15  -0.04   0.06    -0.14  -0.03   0.05    -0.15  -0.03   0.05
  40   7    -0.02  -0.03  -0.14    -0.02  -0.01  -0.12    -0.03  -0.01  -0.12
  41   1     0.17  -0.10  -0.09     0.17  -0.15  -0.07     0.22  -0.22  -0.06
  42   1    -0.13  -0.00  -0.13    -0.14   0.03  -0.13    -0.16   0.06  -0.15
  43   7     0.17   0.07   0.02     0.15   0.05   0.02     0.16   0.05   0.02
  44   1     0.10   0.05   0.04     0.09   0.01   0.04     0.11  -0.01   0.05
  45   1     0.05   0.02  -0.06     0.03   0.04  -0.05     0.04   0.03  -0.06
  46   6    -0.07  -0.04   0.11    -0.03  -0.01   0.05     0.12   0.06  -0.19
  47   8    -0.01   0.03   0.16    -0.01   0.02   0.08     0.02  -0.05  -0.29
  48   7    -0.07  -0.09  -0.15    -0.03  -0.04  -0.10     0.12   0.16   0.27
  49   1     0.04   0.00  -0.09     0.01   0.02  -0.05    -0.06  -0.02   0.16
  50   1    -0.10  -0.04  -0.09    -0.03  -0.05  -0.04     0.15   0.10   0.14
  51   7     0.13   0.09  -0.04     0.07   0.05  -0.02    -0.22  -0.16   0.06
  52   1     0.14   0.08   0.04     0.08   0.03   0.02    -0.23  -0.14  -0.08
  53   1     0.02   0.03  -0.15    -0.00   0.03  -0.08    -0.02  -0.06   0.25
                     46                     47                     48
                        a                      a                      a 
 Frequencies --   476.0701               482.2728               484.6406
 Red. masses --     4.4462                 4.8947                 5.7126
 Frc consts  --     0.0000                 0.0000                 0.0000
 IR Inten    --    15.1335                 7.8710                85.3111
 Raman Activ --     0.0000                 0.0000                 0.0000
 Depolar     --     0.0000                 0.0000                 0.0000
 Atom AN      X      Y      Z        X      Y      Z        X      Y      Z
   1   8     0.01   0.01  -0.01    -0.00   0.00   0.00    -0.01  -0.00   0.01
   2   6     0.01   0.00  -0.02    -0.00   0.00   0.01    -0.01  -0.00   0.02
   3   1     0.00   0.01  -0.03    -0.00   0.00  -0.00    -0.00  -0.01   0.03
   4   1    -0.01   0.00   0.01    -0.00   0.00   0.01     0.01  -0.00  -0.01
   5   6     0.12   0.01   0.02    -0.00  -0.02  -0.00    -0.11  -0.02  -0.02
   6   1     0.07   0.10   0.05    -0.00  -0.01  -0.00    -0.06  -0.10  -0.05
   7   1     0.13  -0.06  -0.01    -0.01   0.00   0.00    -0.11   0.05   0.01
   8   7    -0.19  -0.05   0.02     0.02  -0.01  -0.00     0.17   0.04  -0.01
   9   6     0.18   0.07  -0.00    -0.02   0.00  -0.00    -0.18  -0.05   0.01
  10   1     0.09  -0.00  -0.09    -0.02   0.01   0.00    -0.09   0.01   0.08
  11   1     0.07   0.03   0.01     0.00   0.00   0.00    -0.06  -0.02  -0.01
  12   1     0.09   0.06   0.07    -0.01  -0.01  -0.01    -0.09  -0.06  -0.06
  13   6    -0.12   0.12   0.09     0.02  -0.00  -0.01     0.11  -0.11  -0.09
  14   1     0.01   0.04   0.02     0.00   0.00  -0.00    -0.01  -0.04  -0.02
  15   1    -0.00   0.04   0.02     0.01  -0.00  -0.01     0.01  -0.03  -0.02
  16   1    -0.07   0.06   0.05     0.00   0.00  -0.00     0.06  -0.06  -0.05
  17   6    -0.07  -0.17  -0.10    -0.01   0.02   0.01     0.06   0.16   0.09
  18   1     0.02  -0.03  -0.03    -0.01   0.01   0.00    -0.02   0.03   0.03
  19   1    -0.04  -0.09  -0.04     0.00   0.01   0.01     0.04   0.08   0.04
  20   1     0.01  -0.05  -0.04    -0.01   0.00  -0.00    -0.01   0.04   0.03
  21   1     0.01  -0.01  -0.00     0.00  -0.00   0.00    -0.02   0.01   0.00
  22   6    -0.01  -0.01  -0.03    -0.02  -0.01  -0.03     0.06   0.02   0.09
  23   8    -0.07  -0.03  -0.00    -0.03  -0.05   0.00     0.12   0.14  -0.04
  24   7     0.09  -0.09   0.02    -0.06   0.07   0.04     0.04  -0.11  -0.11
  25   1     0.04   0.07   0.03     0.11  -0.04   0.05    -0.27   0.04  -0.13
  26   1    -0.33   0.16   0.03     0.18  -0.14   0.06    -0.17   0.20  -0.14
  27   7     0.03   0.04  -0.03     0.02   0.04  -0.04    -0.01  -0.14   0.12
  28   1     0.08  -0.00   0.00    -0.09   0.03  -0.02     0.15  -0.04   0.03
  29   1     0.01   0.02   0.02     0.12  -0.07   0.01    -0.33   0.19  -0.03
  30   6     0.03   0.00  -0.04    -0.01  -0.04   0.07     0.02   0.01  -0.03
  31   8     0.02   0.01  -0.05    -0.01  -0.05   0.07     0.01  -0.00  -0.05
  32   7    -0.06  -0.03   0.03     0.08   0.07  -0.02    -0.06  -0.04   0.05
  33   1    -0.00  -0.02   0.02     0.00   0.04  -0.04     0.02  -0.04   0.02
  34   1     0.01  -0.05  -0.03     0.01   0.08   0.05     0.01  -0.06  -0.03
  35   7    -0.04   0.07   0.08     0.00  -0.07  -0.13    -0.04   0.09   0.04
  36   1     0.25  -0.14  -0.03    -0.26   0.11  -0.00     0.22  -0.14  -0.05
[...]
  44   1    -0.00  -0.00   0.01    -0.02  -0.00   0.02    -0.00  -0.00   0.01
  45   1     0.04   0.02   0.00     0.22   0.13   0.01     0.04   0.02   0.00
  46   6    -0.00   0.00   0.01     0.00   0.00  -0.00    -0.01  -0.00   0.02
  47   8    -0.00   0.00  -0.00    -0.00   0.00   0.00     0.01   0.00  -0.01
  48   7     0.05   0.05   0.08     0.03   0.02   0.04     0.02   0.02   0.03
  49   1    -0.18  -0.18  -0.35    -0.09  -0.09  -0.18    -0.06  -0.07  -0.13
  50   1    -0.02  -0.00   0.05    -0.01  -0.00   0.03    -0.01  -0.00   0.02
  51   7     0.00  -0.00  -0.00     0.00  -0.00  -0.00     0.00   0.00  -0.00
  52   1     0.00   0.00  -0.01     0.00  -0.00  -0.00     0.00   0.00  -0.01
  53   1    -0.01  -0.01   0.00    -0.00  -0.00  -0.00    -0.02  -0.01   0.00
                    142                    143                    144
                        a                      a                      a 
 Frequencies --  3480.6788              3498.3225              3501.1819
 Red. masses --     1.4608                 1.4509                 1.4454
 Frc consts  --     0.0000                 0.0000                 0.0000
 IR Inten    --    23.9944                20.4632                24.0000
 Raman Activ --     0.0000                 0.0000                 0.0000
 Depolar     --     0.0000                 0.0000                 0.0000
 Atom AN      X      Y      Z        X      Y      Z        X      Y      Z
   1   8     0.00   0.00  -0.00    -0.00  -0.00   0.00     0.00   0.00  -0.00
   2   6     0.00   0.00  -0.00     0.00   0.00   0.00     0.00  -0.00  -0.00
   3   1    -0.00   0.00   0.00    -0.00   0.00  -0.00    -0.00   0.00   0.00
   4   1     0.00  -0.00   0.00     0.00   0.00  -0.00     0.00  -0.00   0.00
   5   6     0.00   0.00   0.00     0.00  -0.00  -0.00     0.00   0.00   0.00
   6   1    -0.00   0.00   0.00    -0.00   0.00   0.00     0.00  -0.00  -0.00
   7   1    -0.00  -0.00  -0.00     0.00  -0.00  -0.00    -0.00  -0.00  -0.00
   8   7     0.00  -0.00   0.00    -0.00  -0.00   0.00    -0.00  -0.00  -0.00
   9   6     0.00   0.00   0.00     0.00  -0.00  -0.00    -0.00  -0.00  -0.00
  10   1    -0.00  -0.00  -0.00    -0.00  -0.00  -0.00     0.00   0.00  -0.00
  11   1     0.00   0.00  -0.00     0.00  -0.00  -0.00    -0.00  -0.00   0.00
  12   1    -0.00   0.00   0.00    -0.00   0.00   0.00    -0.00  -0.00  -0.00
  13   6     0.00   0.00   0.00     0.00   0.00   0.00     0.00   0.00  -0.00
  14   1     0.00   0.00   0.00     0.00  -0.00  -0.00    -0.00   0.00   0.00
  15   1    -0.00   0.00  -0.00    -0.00   0.00  -0.00     0.00  -0.00  -0.00
  16   1    -0.00  -0.00  -0.00    -0.00  -0.00  -0.00    -0.00  -0.00  -0.00
  17   6     0.00  -0.00   0.00     0.00  -0.00  -0.00    -0.00   0.00   0.00
  18   1     0.00   0.00  -0.00     0.00  -0.00  -0.00     0.00   0.00  -0.00
  19   1    -0.00   0.00   0.00    -0.00   0.00   0.00     0.00  -0.00  -0.00
  20   1     0.00   0.00  -0.00     0.00   0.00   0.00     0.00  -0.00   0.00
  21   1     0.00  -0.00   0.00     0.00   0.00  -0.00    -0.00  -0.00   0.00
  22   6    -0.00  -0.00  -0.00    -0.00  -0.00   0.00    -0.00  -0.00  -0.00
  23   8     0.00   0.00   0.00     0.00   0.00  -0.00     0.00   0.00   0.00
  24   7    -0.12  -0.14   0.01    -0.00   0.00   0.00     0.00   0.00   0.00
  25   1     0.20   0.05  -0.57     0.00   0.00  -0.00    -0.00  -0.00   0.00
  26   1     0.27   0.47   0.55     0.00   0.00   0.00    -0.00  -0.00  -0.00
  27   7     0.00   0.00  -0.01    -0.00  -0.00   0.00    -0.00  -0.00   0.00
  28   1     0.00   0.02   0.01    -0.00   0.00   0.00    -0.00  -0.01  -0.01
  29   1    -0.02  -0.03   0.01     0.00   0.00  -0.00     0.02   0.02  -0.01
  30   6    -0.00  -0.00  -0.00    -0.00  -0.00  -0.00    -0.00  -0.00  -0.00
  31   8     0.00   0.00  -0.00     0.00   0.00  -0.00     0.00   0.00   0.00
  32   7     0.00   0.00  -0.00     0.00   0.00   0.00     0.00  -0.00   0.00
  33   1    -0.00  -0.00  -0.00    -0.01  -0.01   0.00    -0.00  -0.00   0.00
  34   1    -0.00  -0.00   0.00    -0.00   0.00  -0.01    -0.00   0.00  -0.00
  35   7    -0.00  -0.00  -0.00     0.00   0.00  -0.00     0.00   0.00  -0.00
  36   1    -0.00  -0.00   0.00    -0.00  -0.00   0.00    -0.00  -0.01   0.01
  37   1     0.01   0.00   0.01    -0.00  -0.00  -0.00    -0.01  -0.00  -0.01
  38   6    -0.00  -0.00   0.00    -0.00   0.00   0.00    -0.00  -0.00  -0.00
  39   8     0.00   0.00  -0.00     0.00  -0.00  -0.00     0.00   0.00   0.00
  40   7     0.00   0.00  -0.00    -0.18  -0.05  -0.00     0.00   0.00  -0.00
  41   1    -0.00  -0.00  -0.00     0.25   0.20   0.60    -0.00  -0.00  -0.00
  42   1    -0.00   0.00   0.00     0.41  -0.01  -0.58    -0.00   0.00   0.00
  43   7     0.00   0.00   0.00     0.01   0.00  -0.01     0.00   0.00   0.00
  44   1     0.00   0.00  -0.00    -0.02  -0.00   0.03     0.00   0.00  -0.00
  45   1    -0.00  -0.00   0.00    -0.01  -0.01  -0.00    -0.00  -0.00  -0.00
  46   6     0.00   0.00  -0.00    -0.00  -0.00  -0.00    -0.00  -0.00  -0.00
  47   8    -0.00  -0.00   0.00     0.00   0.00   0.00    -0.00  -0.00   0.00
  48   7    -0.00  -0.00  -0.00     0.00   0.00   0.00    -0.00   0.00   0.01
  49   1     0.00   0.00   0.00    -0.00  -0.00  -0.00    -0.01  -0.01  -0.01
  50   1     0.00   0.00  -0.00    -0.00  -0.00   0.00     0.02   0.00  -0.04
  51   7    -0.00  -0.00  -0.00    -0.00  -0.00  -0.00    -0.07  -0.08  -0.15
  52   1    -0.00  -0.00   0.00    -0.00  -0.00   0.00    -0.29  -0.13   0.63
  53   1     0.00   0.00  -0.00     0.00   0.00  -0.00     0.54   0.41  -0.07
                    145                    146                    147
                        a                      a                      a 
 Frequencies --  3514.6386              3528.6806              3535.6916
 Red. masses --     1.9067                 1.8971                 1.8987
 Frc consts  --     0.0000                 0.0000                 0.0000
 IR Inten    --    16.2508                 8.0524                 6.5855
 Raman Activ --     0.0000                 0.0000                 0.0000
 Depolar     --     0.0000                 0.0000                 0.0000
 Atom AN      X      Y      Z        X      Y      Z        X      Y      Z
   1   8    -0.00  -0.00  -0.00     0.00   0.00  -0.00    -0.00   0.00  -0.00
   2   6     0.00  -0.00  -0.00     0.00   0.00   0.00     0.00  -0.00  -0.00
   3   1    -0.00   0.00   0.00    -0.00   0.00  -0.00    -0.00   0.00   0.00
   4   1     0.00  -0.00   0.00     0.00  -0.00   0.00    -0.00   0.00  -0.00
   5   6    -0.00  -0.00  -0.00     0.00   0.00   0.00     0.00  -0.00  -0.00
   6   1    -0.00  -0.00  -0.00    -0.00   0.00   0.00    -0.00  -0.00  -0.00
   7   1     0.00   0.00   0.00    -0.00  -0.00  -0.00     0.00   0.00   0.00
   8   7    -0.00  -0.00   0.00     0.00  -0.00  -0.00    -0.00  -0.00   0.00
   9   6    -0.00  -0.00  -0.00     0.00  -0.00  -0.00    -0.00   0.00   0.00
  10   1     0.01   0.01   0.00     0.00  -0.00   0.00     0.00   0.00   0.00
  11   1    -0.00  -0.00   0.00    -0.00   0.00  -0.00    -0.00   0.00   0.00
  12   1    -0.00   0.00  -0.00    -0.00  -0.00   0.00     0.00  -0.00  -0.00
  13   6    -0.00  -0.00  -0.00     0.00  -0.00  -0.00     0.00  -0.00   0.00
  14   1    -0.00  -0.00   0.00    -0.00   0.00   0.00    -0.00  -0.00   0.00
  15   1     0.00  -0.00  -0.00    -0.00   0.00   0.00    -0.00   0.00  -0.00
  16   1     0.00   0.00   0.00    -0.00  -0.00  -0.00     0.00   0.00   0.00
  17   6    -0.00  -0.00  -0.00     0.00  -0.00  -0.00     0.00  -0.00   0.00
  18   1    -0.00   0.00   0.00     0.00   0.00   0.00     0.00  -0.00  -0.00
  19   1    -0.00   0.00  -0.00    -0.00   0.00   0.00    -0.00  -0.00   0.00
  20   1    -0.00  -0.00  -0.00     0.00   0.00   0.00    -0.00   0.00  -0.00
  21   1     0.00  -0.00   0.00     0.00  -0.00   0.00     0.00  -0.00   0.00
  22   6    -0.01  -0.01  -0.00     0.00  -0.00   0.00    -0.00  -0.00   0.00
  23   8     0.00   0.00  -0.00    -0.00  -0.00  -0.00    -0.00  -0.00  -0.00
  24   7    -0.00   0.00   0.01    -0.00   0.00   0.00     0.00  -0.00  -0.00
  25   1     0.02   0.00  -0.05     0.00   0.00  -0.01    -0.00  -0.00   0.00
  26   1    -0.00  -0.00  -0.00    -0.00  -0.00  -0.00     0.00   0.00   0.00
  27   7    -0.14  -0.21   0.06    -0.00   0.00   0.00    -0.00  -0.00   0.00
  28   1    -0.01   0.08   0.08    -0.00  -0.01  -0.00    -0.00   0.00   0.00
  29   1     0.54   0.72  -0.31     0.00   0.00  -0.00     0.01   0.01  -0.00
  30   6     0.00   0.00  -0.00     0.00   0.00   0.01     0.00   0.00   0.00
  31   8    -0.00  -0.00   0.00    -0.00  -0.00  -0.00     0.00  -0.00   0.00
  32   7    -0.00   0.00  -0.00     0.00   0.06  -0.06    -0.00  -0.01   0.01
  33   1     0.00   0.00  -0.00    -0.02  -0.02  -0.01     0.00   0.00   0.00
  34   1     0.00  -0.00   0.00     0.01  -0.20   0.23    -0.00   0.04  -0.05
  35   7    -0.00  -0.00  -0.00    -0.02  -0.12   0.21    -0.00  -0.01   0.01
  36   1    -0.00  -0.00   0.00     0.13   0.48  -0.76     0.01   0.03  -0.04
  37   1     0.01   0.00   0.01    -0.06  -0.02  -0.05    -0.00  -0.00  -0.00
  38   6    -0.00  -0.00  -0.00     0.00   0.00  -0.00    -0.00  -0.00   0.00
  39   8     0.00  -0.00   0.00    -0.00  -0.00   0.00     0.00   0.00  -0.00
  40   7     0.00   0.00  -0.00    -0.00   0.00   0.00    -0.00  -0.00  -0.01
  41   1    -0.00  -0.00  -0.00    -0.00  -0.00  -0.00     0.01   0.01   0.03
  42   1    -0.00   0.00   0.00     0.00  -0.00  -0.00    -0.01   0.00   0.01
  43   7    -0.00  -0.00   0.00     0.00   0.00  -0.00    -0.05  -0.01   0.07
  44   1     0.00   0.00  -0.00    -0.01  -0.00   0.02     0.18   0.01  -0.27
  45   1     0.00   0.00  -0.00    -0.00  -0.00  -0.00     0.02   0.01   0.01
  46   6     0.00   0.00  -0.00    -0.00  -0.00   0.00     0.00  -0.00  -0.01
  47   8    -0.00   0.00   0.00     0.00   0.00  -0.00    -0.00   0.00   0.00
  48   7    -0.00  -0.00   0.00    -0.00   0.00   0.01     0.10   0.02  -0.22
  49   1     0.00   0.00   0.00    -0.00  -0.00  -0.00     0.04   0.04   0.05
  50   1     0.01   0.00  -0.01     0.01   0.00  -0.02    -0.43  -0.08   0.78
  51   7     0.00   0.00   0.01     0.00   0.00  -0.00    -0.02  -0.01   0.01
  52   1     0.01   0.00  -0.02    -0.00  -0.00   0.01     0.01   0.00  -0.02
  53   1    -0.01  -0.01   0.00     0.00   0.00  -0.00     0.06   0.05  -0.01
                    148                    149                    150
                        a                      a                      a 
 Frequencies --  3536.4559              3537.6362              3548.2005
 Red. masses --     1.8970                 1.9096                 2.1702
 Frc consts  --     0.0000                 0.0000                 0.0000
 IR Inten    --    21.3728                21.5180                15.4383
 Raman Activ --     0.0000                 0.0000                 0.0000
 Depolar     --     0.0000                 0.0000                 0.0000
 Atom AN      X      Y      Z        X      Y      Z        X      Y      Z
   1   8     0.00   0.00  -0.00     0.00   0.00   0.00    -0.00  -0.00  -0.00
   2   6    -0.00  -0.00  -0.00    -0.00  -0.00   0.00    -0.00  -0.00   0.00
   3   1     0.00  -0.00  -0.00     0.00  -0.00  -0.00    -0.00  -0.00   0.00
   4   1    -0.00  -0.00   0.00     0.00  -0.00   0.00    -0.00  -0.00   0.00
   5   6    -0.00   0.00   0.00     0.00  -0.00  -0.00    -0.00  -0.00  -0.00
   6   1     0.00  -0.00   0.00    -0.00   0.00   0.00    -0.00  -0.00  -0.00
   7   1    -0.00  -0.00  -0.00    -0.00   0.00   0.00     0.00   0.00   0.00
   8   7     0.00  -0.00  -0.00    -0.00  -0.00  -0.00     0.00   0.00   0.00
   9   6     0.00  -0.00  -0.00     0.00  -0.00  -0.00    -0.00  -0.00  -0.00
  10   1    -0.00  -0.00  -0.00     0.00   0.00  -0.00     0.00   0.00  -0.00
  11   1     0.00  -0.00  -0.00    -0.00  -0.00   0.00    -0.00  -0.00   0.00
  12   1    -0.00   0.00   0.00    -0.00   0.00  -0.00    -0.00  -0.00  -0.00
  13   6    -0.00   0.00   0.00     0.00   0.00  -0.00    -0.00  -0.00  -0.00
  14   1    -0.00  -0.00  -0.00    -0.00   0.00   0.00    -0.00  -0.00   0.00
  15   1     0.00  -0.00   0.00     0.00  -0.00  -0.00    -0.00  -0.00  -0.00
  16   1    -0.00  -0.00   0.00    -0.00   0.00  -0.00     0.00   0.00   0.00
  17   6    -0.00   0.00   0.00     0.00  -0.00  -0.00    -0.00   0.00  -0.00
  18   1    -0.00   0.00   0.00     0.00   0.00   0.00    -0.00  -0.00   0.00
  19   1     0.00  -0.00  -0.00    -0.00   0.00   0.00     0.00  -0.00  -0.00
  20   1     0.00   0.00  -0.00     0.00  -0.00   0.00    -0.00  -0.00  -0.00
  21   1    -0.00  -0.00   0.00     0.00  -0.00  -0.00    -0.00  -0.00  -0.00
  22   6     0.00  -0.00  -0.00    -0.00   0.00  -0.00    -0.00  -0.00  -0.01
  23   8    -0.00   0.00   0.00     0.00  -0.00   0.00     0.00   0.00   0.00
  24   7    -0.00  -0.00   0.00     0.00   0.00   0.00     0.01  -0.07  -0.29
  25   1     0.00   0.00  -0.00     0.00   0.00  -0.00    -0.27  -0.08   0.70
  26   1     0.00   0.00   0.00    -0.00  -0.00  -0.00     0.22   0.36   0.40
  27   7    -0.00  -0.00   0.00     0.00   0.00  -0.00    -0.01  -0.01   0.00
  28   1    -0.00   0.00   0.00     0.00   0.00   0.00     0.00   0.02   0.01
  29   1     0.00   0.00  -0.00    -0.00  -0.00   0.00     0.02   0.03  -0.01
  30   6     0.00   0.00  -0.00     0.00   0.01  -0.01    -0.00   0.00  -0.00
  31   8    -0.00  -0.00   0.00    -0.00  -0.00   0.00     0.00  -0.00  -0.00
  32   7     0.00   0.01  -0.00     0.01   0.18  -0.18     0.00   0.00  -0.00
  33   1    -0.00  -0.00  -0.00    -0.07  -0.07  -0.02    -0.00  -0.00  -0.00
  34   1     0.00  -0.02   0.02     0.04  -0.60   0.68     0.00  -0.01   0.01
  35   7    -0.00   0.00  -0.00     0.01   0.04  -0.07    -0.00  -0.00   0.00
  36   1    -0.00  -0.01   0.02    -0.04  -0.16   0.25     0.00   0.00  -0.00
  37   1     0.00   0.00   0.00     0.02   0.01   0.02     0.00   0.00   0.00
  38   6     0.01   0.00  -0.00     0.00  -0.00  -0.00     0.00   0.00  -0.00
  39   8    -0.00  -0.00   0.00    -0.00  -0.00   0.00    -0.00  -0.00   0.00
  40   7     0.00   0.01   0.03    -0.00  -0.00   0.00    -0.00   0.00   0.00
  41   1    -0.04  -0.03  -0.08     0.00   0.00   0.00    -0.00  -0.00  -0.00
  42   1     0.02  -0.00  -0.02     0.01  -0.00  -0.01     0.00  -0.00  -0.00
  43   7     0.14   0.02  -0.19    -0.01  -0.00   0.01     0.00   0.00  -0.00
  44   1    -0.50  -0.04   0.74     0.03   0.00  -0.05    -0.00  -0.00   0.00
  45   1    -0.06  -0.04  -0.02    -0.00  -0.00   0.00    -0.00  -0.00  -0.00
  46   6     0.00  -0.00  -0.00     0.00   0.00  -0.00     0.00   0.00  -0.00
  47   8    -0.00   0.00   0.00    -0.00  -0.00   0.00    -0.00  -0.00   0.00
  48   7     0.04   0.01  -0.08     0.01   0.00  -0.02    -0.00  -0.00   0.00
  49   1     0.02   0.02   0.02     0.01   0.00   0.01     0.00   0.00   0.00
  50   1    -0.16  -0.03   0.29    -0.03  -0.01   0.05     0.00   0.00  -0.00
  51   7    -0.01  -0.01   0.00    -0.00  -0.00   0.00     0.00   0.00   0.00
  52   1     0.00   0.00  -0.01     0.00   0.00  -0.00     0.00   0.00  -0.00
  53   1     0.02   0.02  -0.00     0.01   0.00  -0.00    -0.00  -0.00  -0.00
                    151                    152                    153
                        a                      a                      a 
 Frequencies --  3562.9586              3568.5244              3573.5917
 Red. masses --     2.1794                 2.1879                 1.8780
 Frc consts  --     0.0000                 0.0000                 0.0000
 IR Inten    --    14.1876                16.9502                25.5467
 Raman Activ --     0.0000                 0.0000                 0.0000
 Depolar     --     0.0000                 0.0000                 0.0000
 Atom AN      X      Y      Z        X      Y      Z        X      Y      Z
   1   8     0.00  -0.00   0.00     0.00   0.00  -0.00    -0.00  -0.05   0.24
   2   6    -0.00  -0.00  -0.00    -0.00  -0.00  -0.00     0.00  -0.00   0.00
   3   1    -0.00   0.00   0.00     0.00  -0.00  -0.00    -0.00  -0.00   0.00
   4   1    -0.00   0.00  -0.00    -0.00  -0.00   0.00    -0.00   0.00  -0.00
   5   6    -0.00  -0.00   0.00     0.00   0.00   0.00     0.00   0.00  -0.00
   6   1     0.00   0.00  -0.00    -0.00   0.00   0.00     0.00  -0.00  -0.00
   7   1     0.00   0.00   0.00    -0.00  -0.00  -0.00    -0.00  -0.00   0.00
   8   7     0.00  -0.00  -0.00     0.00  -0.00   0.00    -0.00   0.00  -0.00
   9   6    -0.00   0.00   0.00     0.00   0.00   0.00    -0.00   0.00  -0.00
  10   1    -0.00   0.00   0.00    -0.00  -0.00  -0.00     0.00   0.00   0.00
  11   1    -0.00   0.00   0.00     0.00   0.00   0.00    -0.00   0.00   0.00
  12   1     0.00  -0.00   0.00     0.00   0.00   0.00     0.00  -0.00  -0.00
  13   6     0.00  -0.00  -0.00     0.00   0.00   0.00    -0.00  -0.00  -0.00
  14   1    -0.00   0.00   0.00     0.00  -0.00  -0.00    -0.00   0.00   0.00
  15   1    -0.00   0.00   0.00     0.00  -0.00   0.00     0.00   0.00  -0.00
  16   1    -0.00   0.00   0.00     0.00  -0.00  -0.00    -0.00  -0.00   0.00
  17   6    -0.00   0.00   0.00     0.00   0.00   0.00    -0.00  -0.00  -0.00
  18   1    -0.00   0.00   0.00    -0.00  -0.00  -0.00     0.00   0.00   0.01
  19   1     0.00  -0.00  -0.00     0.00  -0.00  -0.00     0.00  -0.00  -0.00
  20   1    -0.00  -0.00   0.00    -0.00   0.00  -0.00    -0.00   0.00   0.00
  21   1     0.00   0.00  -0.00    -0.00  -0.00   0.00     0.02   0.19  -0.95
  22   6     0.00   0.00   0.00     0.00   0.00  -0.00     0.00   0.00   0.00
  23   8    -0.00  -0.00  -0.00     0.00   0.00   0.00    -0.00  -0.00  -0.00
  24   7    -0.00   0.00   0.00     0.00   0.00  -0.00    -0.00  -0.00   0.00
  25   1     0.00   0.00  -0.00    -0.00   0.00   0.00     0.00   0.00  -0.00
  26   1    -0.00  -0.00  -0.00     0.00  -0.00  -0.00     0.00   0.00   0.00
  27   7     0.00   0.00  -0.00     0.00   0.00   0.00    -0.00  -0.00  -0.00
  28   1    -0.00  -0.00  -0.00    -0.00  -0.01  -0.00     0.00   0.00   0.00
  29   1    -0.00  -0.00   0.00    -0.00  -0.00   0.00    -0.00  -0.00  -0.00
  30   6    -0.00  -0.00   0.00    -0.00  -0.00   0.00     0.00   0.00   0.00
  31   8     0.00   0.00  -0.00     0.00   0.00  -0.00    -0.00  -0.00  -0.00
  32   7    -0.00  -0.00   0.00    -0.00  -0.00   0.00     0.00  -0.00   0.00
  33   1     0.01   0.01   0.00     0.00   0.00   0.00    -0.00  -0.00   0.00
  34   1    -0.00   0.01  -0.01    -0.00   0.00  -0.00    -0.00   0.00  -0.00
  35   7     0.00  -0.00   0.00     0.00  -0.00   0.00    -0.00  -0.00  -0.00
  36   1     0.00   0.00  -0.00     0.00   0.00  -0.00     0.00   0.00  -0.00
  37   1    -0.00  -0.00  -0.00    -0.01  -0.00  -0.01     0.00   0.00   0.00
  38   6    -0.00   0.00   0.01    -0.00   0.00   0.00    -0.00  -0.00  -0.00
  39   8     0.00  -0.00  -0.00     0.00  -0.00  -0.00     0.00   0.00  -0.00
  40   7    -0.03   0.05   0.29    -0.00   0.00   0.00     0.00  -0.00  -0.00
  41   1    -0.28  -0.20  -0.59    -0.00  -0.00  -0.00     0.00   0.00   0.00
  42   1     0.40  -0.00  -0.52     0.00  -0.00  -0.00    -0.00   0.00   0.00
  43   7    -0.01  -0.00   0.02    -0.00  -0.00   0.00     0.00   0.00  -0.00
  44   1     0.05   0.00  -0.08     0.00   0.00  -0.00    -0.00  -0.00   0.00
  45   1     0.01   0.00   0.00     0.00   0.00   0.00    -0.00  -0.00  -0.00
  46   6     0.00   0.00  -0.00    -0.01  -0.01   0.01    -0.00  -0.00   0.00
  47   8     0.00  -0.00   0.00     0.00   0.00  -0.00     0.00  -0.00  -0.00
  48   7    -0.00   0.00   0.00    -0.01  -0.00   0.02     0.00  -0.00  -0.00
  49   1    -0.00  -0.00  -0.00    -0.00  -0.00  -0.01     0.00   0.00   0.00
  50   1     0.00   0.00  -0.00     0.04   0.01  -0.06    -0.00  -0.00   0.00
  51   7     0.00   0.00  -0.00    -0.21  -0.14   0.17    -0.00  -0.00   0.00
  52   1    -0.00  -0.00   0.00     0.25   0.10  -0.60     0.00   0.00  -0.00
  53   1    -0.00  -0.00   0.00     0.54   0.42  -0.04     0.00   0.00  -0.00
