 Entering Gaussian System
 *********************************************
 Gaussian 98:
 frequency output generated by the xtb code
 *********************************************
                         Standard orientation:
 --------------------------------------------------------------------
  Center     Atomic     Atomic              Coordinates (Angstroms)
  Number     Number      Type              X           Y           Z
 --------------------------------------------------------------------
    1          8             0       -2.293287    0.813326    2.231456
    2          6             0       -0.895500    0.818401    2.309367
    3          1             0       -0.608976    1.838954    2.573124
    4          1             0       -0.550016    0.157874    3.117309
    5          6             0       -0.202080    0.338974    1.030001
    6          1             0       -0.662444   -0.607166    0.743772
    7          1             0        0.858705    0.164355    1.225999
    8          7             0       -0.277901    1.249714   -0.141260
    9          6             0       -1.663483    1.619002   -0.465480
   10          1             0       -2.245677    0.721749   -0.665471
   11          1             0       -1.651292    2.254686   -1.349850
   12          1             0       -2.121329    2.146119    0.367832
   13          6             0        0.307107    0.550088   -1.297780
   14          1             0       -0.251675   -0.359795   -1.506263
   15          1             0        1.339530    0.294673   -1.065758
   16          1             0        0.269219    1.211897   -2.161203
   17          6             0        0.515811    2.465822    0.092968
   18          1             0        1.540495    2.178588    0.321886
   19          1             0        0.101534    3.038432    0.918142
   20          1             0        0.491643    3.073480   -0.810213
   21          1             0       -2.592122   -0.079495    1.989226
   22          6             0        3.672663   -0.693262    0.426377
   23          8             0        2.842085    0.204598    0.487994
   24          7             0        4.974846   -0.439158    0.127382
   25          1             0        5.271012    0.521054    0.116010
   26          1             0        5.684543   -1.140797    0.238132
   27          7             0        3.358714   -1.991216    0.643935
   28          1             0        4.011257   -2.712490    0.392452
   29          1             0        2.375096   -2.249006    0.715258
   30          6             0       -0.357244    4.061052   -3.753341
   31          8             0       -0.377528    3.243344   -2.844167
   32          7             0       -1.475875    4.692973   -4.183186
   33          1             0       -2.330238    4.557342   -3.673247
   34          1             0       -1.440835    5.438685   -4.853682
   35          7             0        0.787291    4.395528   -4.396972
   36          1             0        0.789378    4.989322   -5.205785
   37          1             0        1.625334    3.885681   -4.182399
   38          6             0        0.470028   -2.908343    2.399725
   39          8             0        0.672789   -2.770910    1.187732
   40          7             0       -0.737548   -2.706408    2.945566
   41          1             0       -1.511446   -2.409531    2.350936
   42          1             0       -0.906303   -2.852036    3.923692
   43          7             0        1.470503   -3.259887    3.238734
   44          1             0        1.327243   -3.370932    4.225296
   45          1             0        2.393262   -3.395663    2.867420
   46          6             0       -2.670590   -2.377549    0.034362
   47          8             0       -2.657990   -1.792356    1.119989
   48          7             0       -3.817401   -2.519416   -0.669127
   49          1             0       -4.677667   -2.243034   -0.228839
   50          1             0       -3.869464   -3.087391   -1.495182
   51          7             0       -1.533447   -2.809671   -0.549392
   52          1             0       -1.574296   -3.423649   -1.343666
   53          1             0       -0.684286   -2.839692    0.025032
 --------------------------------------------------------------------
     1 basis functions        1 primitive gaussians
     1 alpha electrons        1 beta electrons

 Harmonic frequencies (cm**-1), IR intensities (km*mol⁻¹),
 Raman scattering activities (A**4/amu), Raman depolarization ratios,
 reduced masses (AMU), force constants (mDyne/A) and normal coordinates:
                      1                      2                      3
                        a                      a                      a 
 Frequencies --     3.0415                11.6944                14.1513
 Red. masses --    11.1662                12.3605                12.2288
 Frc consts  --     0.0000                 0.0000                 0.0000
 IR Inten    --     0.0140                 0.5541                 1.5289
 Raman Activ --     0.0000                 0.0000                 0.0000
 Depolar     --     0.0000                 0.0000                 0.0000
 Atom AN      X      Y      Z        X      Y      Z        X      Y      Z
   1   8    -0.02  -0.01  -0.02    -0.04   0.05   0.10     0.17   0.04   0.08
   2   6    -0.02  -0.01  -0.00    -0.04   0.07   0.12     0.15   0.01   0.03
   3   1    -0.01  -0.00   0.00    -0.02   0.02   0.03     0.05   0.00   0.01
   4   1    -0.01  -0.00  -0.00    -0.01   0.03   0.04     0.04  -0.00   0.01
   5   6    -0.00   0.00   0.00    -0.00   0.05   0.14     0.11   0.01   0.02
   6   1     0.00  -0.00  -0.00     0.01   0.01   0.05     0.03   0.00   0.01
   7   1    -0.00   0.00   0.00    -0.00   0.02   0.05     0.03   0.00  -0.00
   8   7     0.01   0.00   0.01    -0.00   0.01   0.12     0.09   0.00   0.01
   9   6     0.01  -0.00  -0.01    -0.01  -0.03   0.08     0.07  -0.00   0.05
  10   1     0.00  -0.00  -0.00     0.00  -0.01   0.03     0.02  -0.00   0.02
  11   1     0.00  -0.00  -0.00    -0.00  -0.02   0.02     0.01  -0.00   0.01
  12   1    -0.00  -0.00  -0.00    -0.01  -0.00   0.02     0.03   0.00   0.02
  13   6     0.02   0.01   0.01     0.02  -0.03   0.14     0.05  -0.00   0.00
  14   1     0.01   0.00   0.00     0.01  -0.01   0.05     0.01  -0.00   0.01
  15   1     0.01   0.00   0.01     0.01  -0.00   0.05     0.02  -0.00  -0.01
  16   1     0.01   0.00   0.00     0.01  -0.02   0.03     0.01  -0.00  -0.00
  17   6    -0.00   0.01   0.02    -0.03   0.03   0.08     0.09   0.00  -0.01
  18   1    -0.00   0.00   0.01    -0.01   0.02   0.03     0.03   0.00  -0.01
  19   1    -0.00   0.00   0.00    -0.01   0.01   0.02     0.03   0.00  -0.00
  20   1     0.00   0.00   0.01    -0.01  -0.00   0.02     0.02   0.00  -0.00
  21   1    -0.00  -0.00  -0.01    -0.00   0.01   0.02     0.04   0.02   0.00
  22   6     0.01   0.02   0.05     0.02   0.08   0.09     0.05  -0.07   0.05
  23   8    -0.00   0.01   0.05     0.02   0.08   0.20     0.08  -0.05  -0.05
  24   7     0.01   0.03   0.07     0.04   0.13   0.19     0.07  -0.14   0.05
  25   1     0.00   0.01   0.02     0.01   0.04   0.09     0.03  -0.04  -0.01
  26   1     0.00   0.01   0.02     0.01   0.03   0.03     0.01  -0.04   0.03
  27   7     0.02   0.02   0.04     0.02   0.06  -0.09     0.01  -0.05   0.16
  28   1     0.01   0.01   0.01     0.01   0.02  -0.05     0.00  -0.02   0.07
  29   1     0.00   0.00   0.01     0.00   0.01  -0.04     0.00  -0.01   0.04
  30   6    -0.02  -0.01  -0.01    -0.01  -0.20  -0.05    -0.20  -0.03  -0.01
  31   8     0.02   0.00   0.01    -0.00  -0.14   0.02    -0.08  -0.03  -0.00
  32   7     0.05   0.40   0.41    -0.02  -0.28  -0.13    -0.32  -0.18   0.03
  33   1     0.05   0.19   0.20    -0.01  -0.07  -0.03    -0.07  -0.07   0.02
  34   1     0.02   0.10   0.10    -0.01  -0.09  -0.05    -0.12  -0.05   0.01
  35   7    -0.14  -0.45  -0.45    -0.01  -0.25  -0.07    -0.29   0.09  -0.08
  36   1    -0.06  -0.12  -0.12    -0.00  -0.08  -0.03    -0.11   0.02  -0.02
  37   1    -0.07  -0.20  -0.20     0.00  -0.05  -0.00    -0.06   0.05  -0.03
  38   6    -0.00  -0.00  -0.00     0.05  -0.07  -0.19    -0.11  -0.05   0.08
  39   8     0.01   0.00   0.00    -0.00   0.03  -0.22    -0.02  -0.04   0.11
  40   7    -0.01  -0.01  -0.02     0.09  -0.07  -0.13    -0.16  -0.04  -0.01
  41   1    -0.00  -0.00  -0.01     0.02  -0.01  -0.02    -0.03   0.01  -0.02
  42   1    -0.01  -0.00  -0.01     0.04  -0.05  -0.04    -0.06  -0.00  -0.01
  43   7    -0.01  -0.00   0.01     0.08  -0.20  -0.30    -0.19  -0.06   0.17
  44   1    -0.01  -0.00   0.00     0.04  -0.05  -0.08    -0.08  -0.04   0.04
  45   1    -0.00   0.00   0.01     0.02  -0.03  -0.09    -0.05  -0.04   0.06
  46   6     0.02  -0.00  -0.04    -0.04   0.16  -0.03     0.10   0.14  -0.16
  47   8     0.01  -0.01  -0.04     0.01   0.07   0.03     0.05   0.13  -0.16
  48   7     0.03  -0.01  -0.06    -0.08   0.25   0.01     0.16   0.23  -0.27
  49   1     0.01  -0.00  -0.02    -0.01   0.06   0.02     0.04   0.07  -0.09
  50   1     0.01  -0.00  -0.02    -0.03   0.09  -0.01     0.05   0.06  -0.08
  51   7     0.03   0.00  -0.03    -0.07   0.21  -0.12     0.13   0.10  -0.08
  52   1     0.01   0.00  -0.01    -0.03   0.07  -0.05     0.05   0.03  -0.03
  53   1     0.01   0.00  -0.00    -0.01   0.04  -0.04     0.02   0.01  -0.00
                      4                      5                      6
                        a                      a                      a 
 Frequencies --    21.7591                30.3610                33.1460
 Red. masses --    12.0471                12.1203                11.9057
 Frc consts  --     0.0000                 0.0000                 0.0000
 IR Inten    --     1.5008                 1.7084                 2.7595
 Raman Activ --     0.0000                 0.0000                 0.0000
 Depolar     --     0.0000                 0.0000                 0.0000
 Atom AN      X      Y      Z        X      Y      Z        X      Y      Z
   1   8     0.04  -0.08   0.21     0.09   0.05  -0.03     0.01  -0.03  -0.01
   2   6     0.04  -0.04   0.11     0.08   0.02  -0.08     0.01  -0.07  -0.00
   3   1     0.01  -0.01   0.04     0.03   0.01  -0.03     0.01  -0.03   0.03
   4   1     0.03  -0.01   0.02     0.03   0.01  -0.02    -0.00  -0.05  -0.02
   5   6    -0.02   0.01   0.07     0.03   0.00  -0.10    -0.00   0.03  -0.05
   6   1    -0.00   0.00   0.02     0.01  -0.00  -0.01    -0.01   0.02  -0.04
   7   1    -0.00   0.01   0.00     0.01   0.01  -0.04    -0.00  -0.01  -0.02
   8   7    -0.10   0.03   0.10    -0.04  -0.03  -0.13     0.05   0.17   0.05
   9   6    -0.11   0.04   0.19    -0.06  -0.10  -0.10     0.06   0.24   0.07
  10   1    -0.04   0.01   0.06    -0.00  -0.04  -0.02     0.01   0.08  -0.01
  11   1    -0.05   0.02   0.06    -0.03  -0.03  -0.03     0.03   0.10   0.04
  12   1    -0.02   0.01   0.06    -0.02  -0.03  -0.03     0.02   0.05   0.04
  13   6    -0.17   0.05   0.04    -0.02  -0.03  -0.11     0.04   0.27  -0.02
  14   1    -0.06   0.02   0.02     0.01  -0.02  -0.02     0.00   0.09  -0.04
  15   1    -0.05   0.01  -0.01    -0.00   0.01  -0.04     0.01   0.06  -0.01
  16   1    -0.07   0.02   0.02    -0.02  -0.02  -0.04     0.02   0.10   0.01
  17   6    -0.08   0.02   0.06    -0.09   0.01  -0.16     0.08   0.11   0.18
  18   1    -0.02   0.00  -0.01    -0.02   0.02  -0.05     0.02   0.02   0.05
  19   1    -0.00   0.00   0.03    -0.03   0.01  -0.05     0.03   0.01   0.07
  20   1    -0.04   0.01   0.02    -0.04  -0.00  -0.05     0.03   0.06   0.07
  21   1     0.01  -0.02   0.04     0.02   0.01   0.01    -0.00  -0.00  -0.01
  22   6    -0.05   0.07  -0.17     0.01   0.12   0.04    -0.01   0.01   0.01
  23   8    -0.06   0.07  -0.20    -0.00   0.14  -0.14    -0.01   0.01  -0.00
  24   7    -0.08   0.07  -0.32     0.03   0.11   0.12    -0.01   0.01  -0.00
  25   1    -0.03   0.02  -0.11     0.01   0.03   0.01    -0.00   0.00  -0.01
  26   1    -0.02   0.02  -0.08     0.01   0.04   0.07    -0.00   0.00   0.00
  27   7    -0.01   0.09  -0.04     0.01   0.15   0.16    -0.01   0.02   0.04
  28   1    -0.00   0.02  -0.00     0.01   0.04   0.09    -0.00   0.00   0.02
  29   1    -0.00   0.02   0.02     0.01   0.03   0.04    -0.00   0.00   0.01
  30   6     0.07  -0.08   0.01    -0.01   0.06  -0.05     0.01   0.07  -0.09
  31   8    -0.16   0.01   0.10    -0.15  -0.05  -0.16     0.14   0.37   0.16
  32   7     0.21   0.02  -0.19     0.07   0.21  -0.05    -0.07  -0.16  -0.24
  33   1     0.04   0.05  -0.07     0.00   0.05  -0.03    -0.00  -0.01  -0.03
  34   1     0.11  -0.01  -0.07     0.04   0.07   0.01    -0.04  -0.09  -0.11
  35   7     0.19  -0.32   0.11     0.06   0.06   0.07    -0.06  -0.05  -0.28
  36   1     0.10  -0.10   0.01     0.04   0.03   0.03    -0.04  -0.07  -0.11
  37   1     0.03  -0.11   0.07    -0.00  -0.02   0.01     0.00   0.03  -0.04
  38   6    -0.03  -0.03   0.08    -0.02  -0.22   0.05    -0.04  -0.11   0.00
  39   8     0.03  -0.01   0.10     0.02  -0.07   0.09    -0.00  -0.03   0.02
  40   7    -0.08  -0.09   0.01     0.01  -0.11   0.08    -0.02  -0.02  -0.00
  41   1    -0.01  -0.02  -0.01     0.01   0.00   0.03     0.00   0.01  -0.00
  42   1    -0.03  -0.01   0.00    -0.01  -0.08   0.01    -0.02  -0.04  -0.01
  43   7    -0.07   0.02   0.14    -0.09  -0.56   0.01    -0.10  -0.32  -0.02
  44   1    -0.04  -0.03   0.03    -0.03  -0.17  -0.00    -0.03  -0.08  -0.00
  45   1    -0.02  -0.02   0.05    -0.03  -0.17   0.00    -0.02  -0.09  -0.00
  46   6     0.10   0.03  -0.09     0.01   0.06   0.11    -0.02  -0.11   0.04
  47   8     0.04  -0.00  -0.09     0.02   0.01   0.16    -0.01  -0.02  -0.01
  48   7     0.15   0.06  -0.18     0.01   0.11   0.12    -0.04  -0.26   0.11
  49   1     0.03   0.01  -0.06     0.00   0.03   0.04    -0.01  -0.07   0.03
  50   1     0.05   0.02  -0.05    -0.00   0.04   0.03    -0.01  -0.08   0.04
  51   7     0.15   0.05  -0.05     0.00   0.08   0.10    -0.02  -0.12   0.04
  52   1     0.05   0.02  -0.02    -0.00   0.03   0.02    -0.00  -0.05   0.02
  53   1     0.03   0.01   0.00     0.00   0.01   0.02     0.00  -0.01   0.00
                      7                      8                      9
                        a                      a                      a 
 Frequencies --    38.4551                42.3490                48.9068
 Red. masses --    12.4960                12.5207                12.2468
 Frc consts  --     0.0000                 0.0000                 0.0000
 IR Inten    --     1.1873                 4.0218                 7.4273
 Raman Activ --     0.0000                 0.0000                 0.0000
 Depolar     --     0.0000                 0.0000                 0.0000
 Atom AN      X      Y      Z        X      Y      Z        X      Y      Z
   1   8     0.29  -0.06   0.18    -0.05  -0.23  -0.15    -0.08  -0.03   0.02
   2   6     0.26  -0.12   0.01    -0.05  -0.19  -0.09    -0.07   0.02  -0.02
   3   1     0.10  -0.05   0.02    -0.02  -0.06  -0.00    -0.03   0.01  -0.01
   4   1     0.09  -0.06  -0.02    -0.02  -0.07  -0.04    -0.01   0.01  -0.01
   5   6     0.11  -0.07  -0.08     0.00  -0.08  -0.10    -0.11   0.01  -0.04
   6   1     0.02  -0.01  -0.03     0.02  -0.02  -0.05    -0.05   0.01  -0.01
   7   1     0.04  -0.03  -0.06     0.00  -0.01  -0.02    -0.03  -0.01  -0.02
   8   7     0.02  -0.01  -0.03     0.01   0.00  -0.05    -0.10   0.03  -0.02
   9   6    -0.02  -0.06   0.06     0.00  -0.07  -0.10    -0.07   0.18   0.08
  10   1     0.00  -0.02   0.01     0.02  -0.03  -0.07    -0.05   0.07   0.03
  11   1    -0.03  -0.00   0.03     0.00   0.00  -0.01    -0.02   0.06   0.03
  12   1     0.00  -0.04   0.03    -0.03  -0.06  -0.02     0.01   0.06   0.03
  13   6    -0.01   0.07  -0.09     0.13   0.13  -0.06    -0.24  -0.02  -0.07
  14   1     0.01   0.01  -0.03     0.06   0.03  -0.04    -0.11   0.02  -0.02
  15   1     0.00   0.03  -0.05     0.04   0.05  -0.01    -0.08  -0.04  -0.04
  16   1    -0.03   0.03  -0.02     0.04   0.05  -0.00    -0.06   0.00  -0.02
  17   6    -0.03   0.01  -0.02    -0.09   0.04   0.09     0.05  -0.06  -0.06
  18   1    -0.00   0.01  -0.02    -0.03   0.03   0.04     0.01  -0.05  -0.05
  19   1    -0.01  -0.01   0.00    -0.06  -0.01   0.03     0.06  -0.01   0.00
  20   1    -0.02   0.01   0.00    -0.02   0.03   0.04     0.01  -0.01  -0.01
  21   1     0.05  -0.00   0.02    -0.01  -0.07  -0.02    -0.01  -0.01   0.02
  22   6     0.06   0.04   0.08    -0.01  -0.02   0.00    -0.03  -0.18   0.07
  23   8     0.08   0.07  -0.15     0.02   0.00   0.02    -0.16  -0.30  -0.17
  24   7     0.14  -0.01   0.34    -0.01  -0.06  -0.04     0.00  -0.06   0.34
  25   1     0.04  -0.01   0.08     0.00  -0.02  -0.01    -0.03  -0.01   0.08
  26   1     0.03  -0.01   0.14    -0.01  -0.02  -0.01     0.02   0.01   0.14
  27   7    -0.00   0.06   0.12    -0.04  -0.01   0.01     0.08  -0.21   0.13
  28   1     0.01   0.01   0.07    -0.02  -0.01  -0.00     0.05  -0.04   0.07
  29   1    -0.01   0.02  -0.01    -0.01   0.00   0.01     0.02  -0.08  -0.01
  30   6    -0.05   0.02  -0.01     0.01   0.05  -0.04    -0.05   0.07  -0.03
  31   8    -0.20   0.08   0.04     0.05   0.18   0.06    -0.15   0.15   0.03
  32   7     0.03   0.08  -0.13    -0.01  -0.02  -0.11    -0.01   0.09  -0.15
  33   1    -0.00   0.05  -0.05     0.00   0.01  -0.02    -0.01   0.05  -0.05
  34   1     0.04   0.01  -0.05    -0.01  -0.02  -0.05     0.02   0.01  -0.05
  35   7     0.02  -0.12   0.06    -0.01  -0.01  -0.12    -0.01  -0.03  -0.00
  36   1     0.04  -0.04   0.01    -0.01  -0.02  -0.04     0.02  -0.02  -0.01
  37   1    -0.01  -0.04   0.04     0.00   0.02  -0.01    -0.01  -0.01   0.02
  38   6    -0.05   0.06  -0.10     0.04  -0.04   0.08     0.14   0.02  -0.02
  39   8    -0.07   0.04  -0.11    -0.02  -0.02   0.08     0.09  -0.14  -0.05
  40   7    -0.11  -0.17  -0.13     0.00  -0.33   0.10     0.21   0.23   0.04
  41   1    -0.03  -0.03  -0.03    -0.01  -0.09   0.04     0.04   0.02   0.01
  42   1    -0.01   0.01  -0.02     0.02  -0.06   0.03     0.06   0.06   0.01
  43   7     0.01   0.34  -0.06     0.15   0.22   0.07     0.16  -0.01  -0.05
  44   1    -0.01   0.03  -0.03     0.04   0.01   0.01     0.07   0.08  -0.00
  45   1    -0.00   0.08  -0.02     0.04   0.08   0.01     0.04   0.01  -0.02
  46   6    -0.11  -0.04  -0.01    -0.03   0.09   0.09     0.08   0.03  -0.01
  47   8    -0.04   0.07  -0.07    -0.10  -0.24   0.29     0.05  -0.07   0.05
  48   7    -0.17  -0.07   0.07     0.02   0.39  -0.05     0.10   0.11  -0.06
  49   1    -0.03   0.01   0.02    -0.00   0.07  -0.00     0.02   0.01  -0.01
  50   1    -0.06  -0.04   0.03     0.01   0.15  -0.05     0.03   0.04  -0.03
  51   7    -0.17  -0.16  -0.01    -0.01   0.21   0.06     0.10   0.11  -0.03
  52   1    -0.06  -0.06   0.01     0.01   0.11  -0.03     0.03   0.05  -0.02
  53   1    -0.04  -0.03  -0.02    -0.01   0.01   0.03     0.02   0.01  -0.00
                     10                     11                     12
                        a                      a                      a 
 Frequencies --    54.4440                57.7986                66.3149
 Red. masses --    11.2098                12.7423                13.0153
 Frc consts  --     0.0000                 0.0000                 0.0000
 IR Inten    --     1.5360                 0.3451                 0.8004
 Raman Activ --     0.0000                 0.0000                 0.0000
 Depolar     --     0.0000                 0.0000                 0.0000
 Atom AN      X      Y      Z        X      Y      Z        X      Y      Z
   1   8    -0.04   0.04   0.02    -0.01  -0.09  -0.02     0.07  -0.19   0.01
   2   6    -0.03   0.04  -0.00    -0.01  -0.00  -0.00     0.06  -0.21  -0.03
   3   1    -0.01   0.02  -0.02    -0.02   0.00  -0.00     0.03  -0.07   0.00
   4   1    -0.00   0.02   0.01     0.00   0.01   0.00     0.02  -0.08  -0.02
   5   6    -0.07  -0.02   0.00     0.03   0.01   0.01     0.01  -0.16  -0.08
   6   1    -0.04   0.00   0.00     0.02   0.00   0.00    -0.00  -0.04  -0.04
   7   1    -0.02  -0.03  -0.00     0.01   0.01   0.01     0.00  -0.06  -0.03
   8   7     0.01  -0.03  -0.00     0.03  -0.00   0.01     0.01  -0.10  -0.03
   9   6     0.05   0.25   0.11     0.02  -0.00   0.01     0.02  -0.01   0.04
  10   1    -0.04   0.11   0.06     0.01  -0.00   0.01    -0.01   0.01  -0.00
  11   1     0.03   0.06   0.03     0.00  -0.01   0.00     0.01   0.01   0.02
  12   1     0.07   0.11   0.04     0.01   0.00   0.00     0.02  -0.02   0.03
  13   6    -0.23  -0.16  -0.05     0.01  -0.02   0.01    -0.05  -0.05  -0.08
  14   1    -0.13  -0.01   0.00     0.00  -0.00   0.01    -0.03  -0.00  -0.03
  15   1    -0.08  -0.10  -0.04     0.00  -0.00   0.00    -0.02  -0.03  -0.04
  16   1    -0.05  -0.05  -0.01     0.00  -0.01   0.00    -0.02   0.00  -0.01
  17   6     0.27  -0.18  -0.09     0.03  -0.00  -0.01     0.07  -0.14   0.03
  18   1     0.07  -0.11  -0.06     0.01   0.00  -0.01     0.02  -0.06  -0.01
  19   1     0.14  -0.03  -0.01     0.02  -0.00   0.00     0.03  -0.05   0.02
  20   1     0.08  -0.05  -0.02     0.00   0.00  -0.00     0.02  -0.03   0.02
  21   1    -0.01   0.01   0.01     0.01  -0.03   0.00     0.00  -0.04   0.00
  22   6    -0.04   0.11  -0.02     0.07  -0.05  -0.01     0.03   0.14  -0.05
  23   8    -0.12   0.06  -0.17     0.12  -0.01  -0.13     0.01   0.15  -0.21
  24   7    -0.04   0.19   0.05     0.09  -0.15  -0.04     0.04   0.13  -0.00
  25   1    -0.03   0.06  -0.01     0.04  -0.04  -0.04     0.01   0.04  -0.03
  26   1     0.00   0.07   0.04     0.01  -0.04   0.01     0.01   0.04   0.02
  27   7     0.03   0.12   0.08     0.02  -0.01   0.17     0.03   0.17   0.07
  28   1     0.03   0.04   0.05    -0.01  -0.02   0.05     0.01   0.04   0.05
  29   1     0.01   0.02   0.01    -0.00   0.02   0.03     0.01   0.04   0.00
  30   6     0.08  -0.02  -0.01    -0.02  -0.02   0.02     0.07  -0.06   0.09
  31   8     0.26  -0.08  -0.06    -0.06  -0.05  -0.00     0.20  -0.03   0.15
  32   7    -0.01  -0.10   0.13     0.00   0.01   0.01    -0.00  -0.17   0.15
  33   1     0.01  -0.05   0.05    -0.00   0.00  -0.00     0.01  -0.05   0.06
  34   1    -0.04  -0.02   0.04     0.01   0.01   0.01    -0.03  -0.05   0.03
  35   7     0.00   0.12  -0.10    -0.00  -0.03   0.05     0.00  -0.03  -0.00
  36   1    -0.04   0.04  -0.02     0.01  -0.00   0.02    -0.02  -0.01  -0.00
  37   1     0.02   0.05  -0.06    -0.00  -0.02   0.01     0.02   0.02  -0.00
  38   6    -0.01  -0.09  -0.02    -0.05   0.09  -0.01    -0.01   0.13   0.01
  39   8     0.02  -0.01  -0.00    -0.06   0.30   0.01    -0.03   0.09  -0.00
  40   7    -0.10  -0.45  -0.08    -0.06   0.01   0.02     0.07   0.50   0.07
  41   1    -0.02  -0.07  -0.01    -0.03  -0.01   0.01     0.00   0.07   0.01
  42   1    -0.01  -0.07  -0.01    -0.02  -0.06  -0.01     0.00   0.06   0.01
  43   7     0.03   0.16   0.04    -0.06  -0.04  -0.07    -0.07  -0.13  -0.04
  44   1    -0.02  -0.08  -0.01    -0.00   0.01  -0.01     0.01   0.07   0.01
  45   1     0.00   0.01   0.01    -0.00   0.07  -0.02    -0.01  -0.01  -0.01
  46   6    -0.01   0.01   0.04    -0.02   0.01  -0.00    -0.12  -0.01  -0.02
  47   8    -0.01  -0.01   0.05    -0.15  -0.14   0.08    -0.21  -0.14   0.05
  48   7    -0.02  -0.01   0.06    -0.05  -0.41   0.13    -0.07   0.16  -0.16
  49   1    -0.01  -0.01   0.02    -0.03  -0.18   0.05    -0.03   0.03  -0.05
  50   1    -0.01   0.00   0.01     0.03  -0.04  -0.01    -0.01   0.05  -0.05
  51   7    -0.01   0.06   0.01     0.10   0.59  -0.22    -0.11  -0.03   0.04
  52   1    -0.00   0.02   0.00     0.05   0.16  -0.06    -0.02   0.02  -0.01
  53   1    -0.00   0.01   0.00     0.02   0.15  -0.05    -0.03  -0.01   0.02
                     13                     14                     15
                        a                      a                      a 
 Frequencies --    71.7803                79.4083                83.5506
 Red. masses --    12.7175                12.2364                13.0790
 Frc consts  --     0.0000                 0.0000                 0.0000
 IR Inten    --     1.7738                 4.2106                11.8101
 Raman Activ --     0.0000                 0.0000                 0.0000
 Depolar     --     0.0000                 0.0000                 0.0000
 Atom AN      X      Y      Z        X      Y      Z        X      Y      Z
   1   8     0.22  -0.03   0.16    -0.13  -0.11  -0.25     0.11  -0.09   0.06
   2   6     0.20  -0.10  -0.00    -0.13   0.02  -0.06     0.10  -0.09  -0.00
   3   1     0.08  -0.04   0.00    -0.07   0.02  -0.02     0.04  -0.03   0.00
   4   1     0.07  -0.04  -0.02    -0.05   0.02  -0.00     0.04  -0.03  -0.01
   5   6     0.04  -0.10  -0.09     0.05   0.04   0.03     0.04  -0.07  -0.04
   6   1    -0.01  -0.01  -0.02     0.03   0.01  -0.01    -0.01  -0.01  -0.02
   7   1     0.01  -0.05  -0.05     0.01   0.02   0.04     0.01  -0.04  -0.02
   8   7     0.01  -0.05  -0.05     0.16   0.05   0.02     0.07  -0.01   0.00
   9   6    -0.00  -0.03   0.02     0.19   0.22   0.05     0.09   0.12   0.08
  10   1    -0.00  -0.00  -0.01     0.02   0.08   0.04    -0.00   0.05   0.03
  11   1    -0.01   0.01   0.02     0.07   0.05   0.00     0.03   0.04   0.03
  12   1     0.01  -0.02   0.02     0.08   0.10   0.01     0.05   0.04   0.03
  13   6    -0.04  -0.01  -0.09     0.04  -0.02   0.01    -0.04  -0.01  -0.05
  14   1    -0.01  -0.00  -0.03    -0.02   0.01   0.01    -0.03   0.01  -0.01
  15   1    -0.01  -0.00  -0.04     0.01  -0.04  -0.01    -0.01  -0.02  -0.03
  16   1    -0.02   0.00  -0.02     0.02  -0.01   0.00    -0.02   0.00  -0.01
  17   6     0.03  -0.06  -0.03     0.31  -0.05   0.00     0.18  -0.09   0.01
  18   1     0.00  -0.02  -0.00     0.09  -0.05  -0.03     0.05  -0.05  -0.00
  19   1     0.00  -0.02  -0.01     0.13  -0.02   0.02     0.07  -0.02   0.01
  20   1     0.02  -0.02  -0.01     0.08  -0.00   0.01     0.06  -0.02   0.01
  21   1     0.03   0.00   0.04    -0.01  -0.04  -0.05     0.02  -0.02   0.01
  22   6    -0.14   0.04   0.03     0.06   0.05  -0.05    -0.06   0.00   0.18
  23   8    -0.15   0.04   0.31     0.17   0.15   0.01    -0.08  -0.02   0.50
  24   7    -0.13   0.15   0.19     0.13  -0.04   0.14    -0.19   0.04  -0.30
  25   1    -0.04   0.04   0.14     0.06  -0.02   0.08    -0.06   0.01  -0.09
  26   1    -0.04   0.03  -0.01     0.01  -0.04   0.02    -0.03   0.02  -0.13
  27   7    -0.18  -0.02  -0.49    -0.11   0.06  -0.34     0.05  -0.00   0.35
  28   1    -0.04   0.01  -0.14    -0.04   0.00  -0.07    -0.01   0.01   0.00
  29   1    -0.04  -0.02  -0.09    -0.03   0.03  -0.06     0.01  -0.01   0.09
  30   6     0.02   0.03  -0.05    -0.13  -0.04   0.02    -0.06   0.03  -0.11
  31   8     0.06   0.01  -0.08    -0.35  -0.08  -0.01    -0.19  -0.07  -0.22
  32   7     0.01   0.02  -0.03    -0.02   0.11  -0.07     0.00   0.15  -0.13
  33   1     0.01   0.00  -0.00    -0.03   0.04  -0.05    -0.01   0.04  -0.06
  34   1    -0.00   0.01  -0.00     0.03   0.03  -0.02     0.03   0.06  -0.01
  35   7     0.01   0.06  -0.07    -0.03  -0.14   0.17    -0.00   0.04   0.00
  36   1    -0.00   0.02  -0.02     0.04  -0.03   0.05     0.02   0.02   0.01
  37   1     0.01   0.02  -0.03    -0.03  -0.07   0.06    -0.02  -0.02  -0.01
  38   6    -0.03  -0.03   0.07    -0.04   0.00   0.06     0.03   0.05  -0.04
  39   8    -0.03  -0.18   0.07    -0.05   0.06   0.07     0.01   0.11  -0.05
  40   7    -0.02   0.11   0.07    -0.04   0.01   0.08     0.04   0.03  -0.02
  41   1    -0.00   0.02   0.01    -0.01  -0.00   0.02     0.00  -0.01  -0.00
  42   1    -0.00   0.07   0.03    -0.01  -0.02   0.02     0.01  -0.04  -0.01
  43   7    -0.04   0.05   0.12    -0.04  -0.03   0.05     0.04  -0.06  -0.09
  44   1    -0.02  -0.01   0.03    -0.01  -0.04   0.01     0.04   0.08  -0.01
  45   1    -0.03  -0.07   0.02    -0.02  -0.03   0.01     0.03   0.09  -0.02
  46   6     0.04   0.03  -0.01    -0.02  -0.06   0.01    -0.04  -0.03  -0.02
  47   8    -0.03  -0.03   0.02    -0.05  -0.13   0.05    -0.04  -0.09   0.00
  48   7     0.05  -0.15   0.03     0.01   0.05  -0.06    -0.04   0.06  -0.06
  49   1     0.00  -0.07   0.01    -0.00   0.02  -0.02    -0.01   0.01  -0.01
  50   1     0.03  -0.02  -0.01     0.01   0.02  -0.02    -0.01   0.02  -0.02
  51   7     0.11   0.28  -0.08    -0.02  -0.10   0.06    -0.05  -0.06  -0.02
  52   1     0.04   0.07  -0.02     0.00  -0.01   0.01    -0.01  -0.00  -0.01
  53   1     0.02   0.05  -0.01    -0.01  -0.03   0.02    -0.01  -0.01  -0.01
                     16                     17                     18
                        a                      a                      a 
 Frequencies --    87.3743                94.4250               100.4984
 Red. masses --    13.1055                12.1950                12.4100
 Frc consts  --     0.0000                 0.0000                 0.0000
 IR Inten    --     9.4109                 7.7214                 1.9955
 Raman Activ --     0.0000                 0.0000                 0.0000
 Depolar     --     0.0000                 0.0000                 0.0000
 Atom AN      X      Y      Z        X      Y      Z        X      Y      Z
   1   8    -0.02   0.23  -0.15    -0.02  -0.06   0.14    -0.07   0.01   0.08
   2   6    -0.01   0.03  -0.10    -0.02   0.09   0.10    -0.07  -0.09   0.10
   3   1     0.03   0.00  -0.04    -0.03   0.05  -0.01     0.00  -0.04   0.04
   4   1    -0.03   0.01  -0.02     0.02   0.07   0.05    -0.04  -0.05   0.02
   5   6    -0.04  -0.10  -0.06     0.01  -0.02   0.16    -0.06  -0.08   0.10
   6   1    -0.03  -0.02  -0.01     0.02  -0.02   0.08    -0.03  -0.02   0.02
   7   1    -0.02  -0.05  -0.01     0.01   0.02   0.05    -0.02  -0.04   0.03
   8   7     0.06  -0.15  -0.11    -0.04  -0.18   0.05    -0.01  -0.06   0.12
   9   6     0.08  -0.10  -0.16    -0.04  -0.18   0.05     0.01  -0.05   0.05
  10   1     0.02  -0.02  -0.07    -0.02  -0.06   0.04     0.00  -0.02   0.01
  11   1     0.04  -0.01  -0.04    -0.02  -0.07   0.00     0.01  -0.02   0.01
  12   1     0.01  -0.03  -0.05    -0.01  -0.03   0.01    -0.01  -0.02   0.01
  13   6     0.06  -0.20  -0.06    -0.10  -0.31   0.10     0.05  -0.04   0.12
  14   1     0.01  -0.06  -0.01    -0.04  -0.09   0.06     0.02  -0.01   0.02
  15   1     0.01  -0.06  -0.01    -0.03  -0.09   0.03     0.01  -0.01   0.05
  16   1     0.03  -0.06  -0.02    -0.03  -0.12   0.01     0.02  -0.01   0.04
  17   6     0.10  -0.17  -0.10    -0.01  -0.15  -0.15    -0.02  -0.06   0.16
  18   1     0.02  -0.06  -0.02     0.00  -0.04  -0.06    -0.01  -0.02   0.05
  19   1     0.03  -0.04  -0.03     0.02  -0.02  -0.05    -0.02  -0.02   0.04
  20   1     0.04  -0.05  -0.03    -0.02  -0.07  -0.06     0.00  -0.01   0.05
  21   1    -0.03   0.06  -0.02     0.02  -0.02   0.04    -0.04   0.01   0.02
  22   6     0.02   0.03   0.03     0.03   0.01  -0.00     0.20  -0.03  -0.06
  23   8    -0.05  -0.04   0.15     0.12   0.08   0.06     0.07  -0.17  -0.04
  24   7    -0.03   0.15  -0.13     0.06  -0.09   0.04     0.18   0.19  -0.02
  25   1    -0.03   0.05  -0.03     0.04  -0.03   0.03     0.01   0.06   0.01
  26   1     0.01   0.06  -0.05    -0.00  -0.04  -0.00     0.08   0.08  -0.01
  27   7     0.15   0.00   0.05    -0.08   0.02  -0.10     0.39  -0.08  -0.14
  28   1     0.05   0.02  -0.01    -0.04  -0.01  -0.04     0.13  -0.00  -0.03
  29   1     0.05  -0.02   0.03    -0.03   0.03  -0.02     0.11  -0.05  -0.02
  30   6    -0.07   0.04   0.17     0.03   0.19  -0.08    -0.02   0.07  -0.15
  31   8    -0.14   0.32   0.44     0.08   0.38   0.05    -0.06  -0.00  -0.25
  32   7    -0.03  -0.06  -0.06    -0.00   0.09  -0.20     0.01   0.14  -0.14
  33   1    -0.01   0.05  -0.00     0.01   0.06  -0.02    -0.00   0.04  -0.04
  34   1     0.01  -0.06  -0.06    -0.00   0.01  -0.07     0.02   0.06  -0.01
  35   7    -0.04  -0.22   0.12    -0.01   0.12  -0.21     0.00   0.14  -0.10
  36   1     0.01  -0.10   0.00    -0.02  -0.00  -0.08    -0.00   0.04  -0.03
  37   1    -0.01  -0.03   0.10     0.01   0.05  -0.04    -0.01   0.01  -0.05
  38   6     0.00  -0.02  -0.02    -0.03   0.08   0.04    -0.02  -0.01  -0.03
  39   8     0.08  -0.09  -0.02    -0.08   0.33   0.06     0.15  -0.05  -0.00
  40   7    -0.03  -0.01  -0.10    -0.02  -0.04   0.11    -0.08   0.04  -0.17
  41   1     0.00   0.02  -0.03    -0.01  -0.02   0.03    -0.01   0.02  -0.05
  42   1    -0.01   0.04  -0.02    -0.01  -0.09   0.02    -0.04   0.03  -0.04
  43   7    -0.04   0.05   0.06     0.00  -0.10  -0.07    -0.14   0.04   0.13
  44   1    -0.04  -0.02   0.01     0.03   0.02  -0.01    -0.09  -0.05   0.02
  45   1    -0.01  -0.04   0.03     0.02   0.09  -0.02    -0.04  -0.07   0.06
  46   6    -0.02   0.08   0.02     0.02  -0.05  -0.03    -0.12   0.03   0.05
  47   8    -0.04   0.16  -0.01     0.05  -0.08  -0.02    -0.29   0.04   0.06
  48   7    -0.03  -0.04   0.07     0.04   0.05  -0.07    -0.05  -0.02  -0.07
  49   1    -0.01  -0.01   0.01     0.01   0.02  -0.02    -0.03  -0.02  -0.04
  50   1    -0.00  -0.01   0.02     0.00   0.01  -0.01     0.02  -0.01  -0.02
  51   7    -0.00   0.13   0.01     0.01  -0.13  -0.01    -0.06   0.07   0.18
  52   1    -0.00   0.02   0.02     0.00  -0.03  -0.00     0.01   0.03   0.04
  53   1    -0.00   0.03   0.01     0.00  -0.02  -0.00    -0.02   0.02   0.05
                     19                     20                     21
                        a                      a                      a 
 Frequencies --   102.8689               125.0012               132.2893
 Red. masses --    12.9648                11.5763                12.5537
 Frc consts  --     0.0000                 0.0000                 0.0000
 IR Inten    --     3.2796                20.8939                21.6070
 Raman Activ --     0.0000                 0.0000                 0.0000
 Depolar     --     0.0000                 0.0000                 0.0000
 Atom AN      X      Y      Z        X      Y      Z        X      Y      Z
   1   8    -0.07  -0.13  -0.02     0.09  -0.12   0.06    -0.09   0.01   0.00
   2   6    -0.07   0.04   0.08     0.08   0.30  -0.02    -0.07  -0.12  -0.05
   3   1    -0.06   0.03   0.01    -0.05   0.12  -0.07     0.01  -0.05   0.01
   4   1    -0.02   0.04   0.04     0.09   0.16   0.03    -0.03  -0.06  -0.04
   5   6     0.08   0.02   0.16     0.14   0.26   0.03    -0.15  -0.07  -0.12
   6   1     0.05  -0.01   0.05     0.08   0.05   0.04    -0.06  -0.01  -0.04
   7   1     0.02   0.04   0.07     0.05   0.12   0.00    -0.04  -0.03  -0.05
   8   7     0.09  -0.06   0.10    -0.02   0.14  -0.08    -0.21   0.00  -0.06
   9   6     0.08  -0.08   0.06    -0.07   0.03   0.03    -0.19   0.12   0.05
  10   1     0.03  -0.03   0.03    -0.02  -0.00   0.06    -0.08   0.05   0.01
  11   1     0.03  -0.04   0.00    -0.05  -0.02  -0.01    -0.05   0.05   0.02
  12   1     0.02  -0.01   0.00    -0.00   0.03   0.00    -0.03   0.03   0.03
  13   6     0.08  -0.11   0.13    -0.10   0.01  -0.04    -0.29   0.03  -0.12
  14   1     0.03  -0.04   0.05    -0.04   0.00   0.02    -0.10   0.02  -0.04
  15   1     0.03  -0.02   0.04    -0.03   0.00  -0.02    -0.08  -0.01  -0.06
  16   1     0.02  -0.05   0.03    -0.04  -0.02  -0.03    -0.08   0.02  -0.03
  17   6     0.07  -0.03   0.02    -0.04   0.19  -0.30    -0.10  -0.06  -0.03
  18   1     0.03  -0.00  -0.01    -0.00   0.08  -0.11    -0.03  -0.04  -0.02
  19   1     0.03  -0.00   0.01     0.01   0.08  -0.09    -0.01  -0.02   0.00
  20   1     0.00  -0.02   0.00    -0.05   0.02  -0.10    -0.02  -0.01  -0.00
  21   1     0.01  -0.04  -0.01     0.08  -0.06   0.05    -0.04   0.01  -0.01
  22   6    -0.03   0.09  -0.00     0.06  -0.02   0.05     0.22   0.03   0.08
  23   8     0.05   0.20  -0.11     0.07  -0.03   0.18     0.44   0.18   0.30
  24   7    -0.03  -0.06  -0.09     0.04   0.00  -0.05     0.26  -0.22  -0.09
  25   1     0.02  -0.02  -0.06     0.01   0.00   0.01     0.13  -0.08   0.01
  26   1    -0.02  -0.03  -0.00     0.01   0.00  -0.03     0.03  -0.10  -0.04
  27   7    -0.13   0.15   0.20     0.10  -0.04  -0.00     0.05   0.06  -0.01
  28   1    -0.04   0.02   0.09     0.02  -0.00  -0.02    -0.03  -0.00  -0.05
  29   1    -0.03   0.04   0.04     0.03  -0.02   0.01     0.01   0.04   0.01
  30   6    -0.01   0.08  -0.08     0.03  -0.01   0.06     0.02  -0.01   0.00
  31   8    -0.02   0.10  -0.08     0.07   0.05   0.13     0.05  -0.02  -0.00
  32   7    -0.00   0.09  -0.11     0.01  -0.06   0.07     0.00  -0.02   0.03
  33   1     0.00   0.04  -0.02     0.00  -0.02   0.02     0.00  -0.02   0.01
  34   1     0.01   0.03  -0.02    -0.01  -0.04  -0.01    -0.01  -0.01   0.00
  35   7    -0.00   0.08  -0.08     0.01  -0.05   0.02     0.00   0.00  -0.02
  36   1    -0.00   0.01  -0.03     0.00  -0.01   0.01    -0.00   0.02   0.01
  37   1    -0.00   0.01  -0.03     0.01   0.01   0.02     0.01   0.02   0.00
  38   6     0.00  -0.13  -0.01    -0.01  -0.06  -0.05     0.02  -0.05   0.02
  39   8    -0.06  -0.58  -0.08     0.05  -0.19  -0.07     0.02  -0.16   0.01
  40   7     0.06   0.17   0.01    -0.03   0.00  -0.12     0.02   0.01   0.01
  41   1     0.01   0.02  -0.01    -0.01  -0.02  -0.04     0.01   0.01   0.00
  42   1     0.04   0.15   0.02    -0.01   0.02  -0.03     0.01   0.04   0.01
  43   7     0.05   0.17   0.06    -0.05   0.03   0.03     0.01   0.02   0.05
  44   1    -0.01  -0.00   0.01    -0.03   0.01   0.01    -0.00  -0.01   0.01
  45   1    -0.02  -0.14  -0.00    -0.01  -0.03   0.02    -0.00  -0.04   0.01
  46   6    -0.03   0.00  -0.04    -0.11  -0.12   0.04     0.02   0.07  -0.01
  47   8     0.06  -0.05  -0.02    -0.30  -0.30   0.13     0.06   0.16  -0.05
  48   7    -0.11  -0.04   0.09    -0.01  -0.03  -0.17    -0.02   0.01   0.06
  49   1    -0.02  -0.00   0.04    -0.02  -0.05  -0.06     0.00   0.01   0.02
  50   1    -0.05   0.02   0.00     0.03   0.00  -0.06    -0.01  -0.01   0.03
  51   7    -0.06   0.10  -0.20    -0.03  -0.02   0.13     0.00   0.05  -0.03
  52   1    -0.04   0.02  -0.05     0.02   0.03   0.00    -0.01  -0.01   0.01
  53   1    -0.02  -0.02  -0.05    -0.02  -0.01   0.05     0.00   0.00  -0.01
                     22                     23                     24
                        a                      a                      a 
 Frequencies --   141.1743               157.9540               179.8834
 Red. masses --    12.4216                12.5166                 6.7563
 Frc consts  --     0.0000                 0.0000                 0.0000
 IR Inten    --     6.8157                 5.4595                76.2924
 Raman Activ --     0.0000                 0.0000                 0.0000
 Depolar     --     0.0000                 0.0000                 0.0000
 Atom AN      X      Y      Z        X      Y      Z        X      Y      Z
   1   8     0.04   0.43   0.11     0.06   0.34   0.11     0.01  -0.05  -0.20
   2   6     0.04   0.02   0.05     0.06   0.12   0.02    -0.01  -0.08   0.00
   3   1     0.09  -0.02   0.03     0.06   0.02  -0.00    -0.01  -0.03   0.03
   4   1    -0.03  -0.03   0.00     0.00   0.02   0.00    -0.04  -0.04  -0.00
   5   6    -0.13  -0.08  -0.01    -0.10   0.00  -0.02     0.14   0.02   0.05
   6   1    -0.10   0.01  -0.00    -0.08   0.02   0.01     0.09  -0.02   0.01
   7   1    -0.04  -0.08  -0.02    -0.03  -0.05  -0.02     0.05   0.06   0.03
   8   7    -0.01  -0.04   0.02    -0.02   0.03  -0.01     0.03  -0.01   0.04
   9   6     0.03   0.02  -0.07     0.01   0.06  -0.08    -0.01  -0.06   0.12
  10   1     0.01   0.01  -0.06     0.00   0.02  -0.05    -0.01  -0.02   0.10
  11   1     0.03   0.02  -0.01     0.02   0.03  -0.01    -0.03  -0.06   0.00
  12   1    -0.01  -0.01  -0.02    -0.01   0.00  -0.02     0.02   0.03   0.02
  13   6     0.05  -0.02   0.04     0.04   0.03   0.02    -0.04  -0.01   0.01
  14   1     0.03  -0.01   0.01     0.02   0.00   0.01    -0.02   0.00   0.00
  15   1     0.02   0.01   0.02     0.01   0.02   0.01    -0.01  -0.01  -0.01
  16   1     0.01  -0.01   0.01     0.01   0.00   0.00    -0.02   0.00   0.00
  17   6     0.02  -0.07   0.12    -0.01   0.01   0.05    -0.01   0.03  -0.04
  18   1    -0.01  -0.03   0.07    -0.01  -0.00   0.05     0.01   0.03  -0.06
  19   1    -0.02  -0.01   0.02    -0.02   0.02  -0.01     0.02  -0.01   0.01
  20   1     0.04  -0.02   0.03     0.03  -0.01   0.01    -0.05   0.02  -0.01
  21   1    -0.06   0.12   0.06    -0.02   0.09   0.05     0.00  -0.01  -0.07
  22   6    -0.07   0.03   0.00     0.08   0.02  -0.03    -0.04   0.02  -0.03
  23   8     0.06   0.18  -0.07     0.05  -0.02  -0.02    -0.03   0.05  -0.04
  24   7    -0.03  -0.21   0.02     0.07   0.07  -0.00    -0.03  -0.00   0.06
  25   1     0.04  -0.07  -0.01     0.01   0.02  -0.00    -0.00  -0.00  -0.00
  26   1    -0.04  -0.09   0.02     0.03   0.03  -0.01    -0.02  -0.01  -0.03
  27   7    -0.27   0.09   0.07     0.12  -0.00  -0.04    -0.07   0.02  -0.03
  28   1    -0.09   0.00   0.03     0.03   0.00  -0.01    -0.03   0.01  -0.04
  29   1    -0.08   0.05   0.00     0.03  -0.00  -0.01    -0.02  -0.00  -0.04
  30   6    -0.01   0.01  -0.02    -0.01  -0.01   0.00     0.01   0.01  -0.00
  31   8    -0.03  -0.00  -0.03    -0.02  -0.01  -0.00     0.01   0.01   0.00
  32   7    -0.00   0.02  -0.02    -0.00   0.00   0.00     0.00  -0.00  -0.01
  33   1    -0.00   0.01  -0.01    -0.00  -0.00  -0.00     0.00   0.00   0.00
  34   1     0.00   0.01  -0.00     0.00  -0.00  -0.00     0.00   0.00   0.00
  35   7    -0.01   0.01  -0.00    -0.00  -0.01   0.01     0.00   0.01  -0.01
  36   1     0.00   0.00   0.00     0.00  -0.00   0.00    -0.00  -0.01  -0.01
  37   1    -0.00  -0.00  -0.00    -0.00  -0.01   0.00    -0.00  -0.00  -0.01
  38   6     0.06  -0.03  -0.09     0.10  -0.07   0.18     0.11  -0.04   0.04
  39   8     0.05  -0.09  -0.12    -0.03  -0.06   0.20     0.15  -0.16   0.04
  40   7     0.07  -0.02  -0.11     0.13  -0.10   0.31     0.05  -0.10  -0.04
  41   1     0.01  -0.02  -0.03     0.02  -0.08   0.08     0.01  -0.09  -0.03
  42   1     0.02  -0.01  -0.03     0.04  -0.08   0.08    -0.03  -0.14  -0.04
  43   7     0.09   0.02  -0.12     0.18  -0.08   0.12     0.02  -0.23   0.08
  44   1     0.04   0.02  -0.03     0.09   0.06   0.05     0.11   0.52   0.10
  45   1     0.02   0.02  -0.04     0.06   0.07   0.02     0.11   0.41   0.10
  46   6     0.01  -0.06   0.07    -0.18  -0.08  -0.18    -0.08   0.11  -0.01
  47   8    -0.29  -0.11   0.11    -0.10  -0.22  -0.16    -0.16   0.29  -0.10
  48   7     0.19  -0.09  -0.24    -0.23  -0.02  -0.17    -0.05  -0.09  -0.04
  49   1     0.01  -0.07  -0.11    -0.06  -0.02  -0.03    -0.02  -0.00  -0.04
  50   1     0.12  -0.04  -0.06    -0.07   0.02  -0.06     0.01  -0.05   0.01
  51   7     0.13   0.01   0.28    -0.21  -0.02  -0.33    -0.04   0.08   0.10
  52   1     0.08   0.03   0.05    -0.06  -0.01  -0.09    -0.00  -0.01   0.05
  53   1     0.03   0.01   0.09    -0.06  -0.03  -0.09    -0.02   0.02   0.04
                     25                     26                     27
                        a                      a                      a 
 Frequencies --   182.2713               191.6693               195.8481
 Red. masses --     9.6953                 4.1494                11.3088
 Frc consts  --     0.0000                 0.0000                 0.0000
 IR Inten    --   104.2627                10.2895                 8.8214
 Raman Activ --     0.0000                 0.0000                 0.0000
 Depolar     --     0.0000                 0.0000                 0.0000
 Atom AN      X      Y      Z        X      Y      Z        X      Y      Z
   1   8     0.00   0.13   0.13    -0.03  -0.10   0.12    -0.10  -0.33   0.42
   2   6     0.01   0.06   0.01    -0.02   0.02   0.01    -0.07   0.12  -0.02
   3   1     0.02   0.02  -0.01    -0.02   0.01  -0.02    -0.08   0.07  -0.09
   4   1     0.01   0.02   0.00     0.02   0.02   0.01     0.09   0.11   0.01
   5   6    -0.11  -0.02  -0.03    -0.05  -0.00  -0.00    -0.20   0.03  -0.08
   6   1    -0.07   0.01  -0.00    -0.02   0.01  -0.00    -0.11   0.03  -0.02
   7   1    -0.04  -0.05  -0.02    -0.02  -0.01   0.00    -0.07  -0.05  -0.03
   8   7    -0.02  -0.00  -0.02     0.01  -0.01  -0.01     0.01   0.02  -0.10
   9   6     0.01   0.05  -0.09     0.03   0.01  -0.06     0.06   0.08  -0.22
  10   1     0.01   0.02  -0.08     0.02   0.01  -0.05     0.04   0.03  -0.18
  11   1     0.03   0.05  -0.00     0.02   0.03   0.00     0.05   0.10  -0.00
  12   1    -0.02  -0.02  -0.01    -0.01  -0.02  -0.01    -0.03  -0.07  -0.03
  13   6     0.03   0.01   0.00     0.05  -0.02   0.01     0.14  -0.01  -0.01
  14   1     0.02  -0.01   0.00     0.02  -0.01   0.00     0.06  -0.02  -0.00
  15   1     0.01   0.02   0.01     0.01   0.00   0.01     0.04   0.02   0.02
  16   1     0.01  -0.00  -0.00     0.02  -0.01   0.00     0.04  -0.02  -0.02
  17   6     0.01  -0.03   0.06     0.02  -0.02  -0.00     0.08  -0.04  -0.01
  18   1    -0.01  -0.02   0.05     0.00  -0.01   0.01     0.00  -0.03   0.06
  19   1    -0.02   0.00  -0.00     0.00   0.00  -0.01    -0.01   0.02  -0.04
  20   1     0.04  -0.02   0.01     0.01  -0.01  -0.00     0.09  -0.03  -0.02
  21   1    -0.01   0.02   0.07     0.01  -0.03   0.02     0.02  -0.10   0.09
  22   6     0.06   0.03  -0.04    -0.02  -0.00  -0.01    -0.05  -0.00  -0.00
  23   8     0.05   0.01  -0.03    -0.01   0.01  -0.02     0.01   0.06  -0.03
  24   7     0.07   0.07   0.00    -0.01  -0.01   0.01    -0.02  -0.11   0.03
  25   1     0.01   0.02  -0.01    -0.00  -0.00  -0.00     0.02  -0.04   0.01
  26   1     0.02   0.02  -0.03    -0.01  -0.01   0.00    -0.02  -0.05   0.01
  27   7     0.09   0.02  -0.03    -0.03   0.00   0.00    -0.13   0.03  -0.02
  28   1     0.02   0.01  -0.03    -0.01   0.00   0.00    -0.03  -0.00   0.02
  29   1     0.02  -0.00  -0.04    -0.01   0.00   0.00    -0.03   0.01   0.02
  30   6    -0.01  -0.00  -0.00    -0.00   0.02  -0.02    -0.01  -0.01   0.01
  31   8    -0.01  -0.01  -0.01    -0.01   0.01  -0.03    -0.02  -0.01   0.01
  32   7     0.00   0.02   0.01     0.07   0.21   0.19    -0.02  -0.05  -0.04
  33   1    -0.01  -0.01  -0.02    -0.10  -0.25  -0.24     0.02   0.06   0.06
  34   1    -0.00  -0.01  -0.02    -0.12  -0.30  -0.34     0.03   0.07   0.09
  35   7    -0.01  -0.01  -0.00    -0.08  -0.23  -0.19     0.01   0.04   0.07
  36   1     0.01   0.02   0.02     0.13   0.40   0.29    -0.03  -0.10  -0.07
  37   1     0.00   0.01   0.01     0.10   0.27   0.24    -0.03  -0.08  -0.05
  38   6    -0.17   0.02  -0.07     0.04   0.00   0.01     0.15   0.02   0.01
  39   8    -0.12  -0.16  -0.10     0.06   0.01   0.01     0.32   0.07   0.04
  40   7    -0.19   0.08  -0.13     0.02  -0.01  -0.02     0.07  -0.01  -0.18
  41   1    -0.06  -0.06  -0.06     0.01   0.00  -0.01     0.04   0.01  -0.07
  42   1    -0.08  -0.07  -0.05     0.00  -0.00  -0.01    -0.02  -0.01  -0.06
  43   7    -0.28  -0.08  -0.01     0.02  -0.02   0.03    -0.01  -0.07   0.17
  44   1    -0.01   0.42   0.06     0.00   0.00   0.01    -0.04   0.03   0.05
  45   1     0.00   0.29   0.07     0.01   0.01   0.01     0.03   0.03   0.10
  46   6     0.15  -0.10   0.07    -0.02   0.03  -0.01    -0.06   0.05  -0.02
  47   8     0.27  -0.31   0.19    -0.02   0.07  -0.03    -0.02   0.12  -0.06
  48   7     0.07   0.13   0.19    -0.02  -0.01  -0.00    -0.09   0.01   0.04
  49   1     0.04   0.02   0.10    -0.01   0.00  -0.01    -0.02   0.03   0.01
  50   1    -0.03   0.08   0.02    -0.00  -0.01   0.01    -0.03   0.01   0.01
  51   7     0.08  -0.04  -0.11    -0.01   0.01   0.01    -0.06   0.02  -0.02
  52   1    -0.00   0.02  -0.06    -0.00  -0.00   0.01    -0.02  -0.01   0.01
  53   1     0.03  -0.05  -0.04    -0.00   0.01   0.00    -0.01   0.01  -0.01
                     28                     29                     30
                        a                      a                      a 
 Frequencies --   201.2045               275.5677               287.0941
 Red. masses --    12.3307                 4.1756                 7.0581
 Frc consts  --     0.0000                 0.0000                 0.0000
 IR Inten    --    69.3502                 1.2751                 2.4911
 Raman Activ --     0.0000                 0.0000                 0.0000
 Depolar     --     0.0000                 0.0000                 0.0000
 Atom AN      X      Y      Z        X      Y      Z        X      Y      Z
   1   8    -0.05  -0.23   0.22    -0.08   0.02   0.29     0.06  -0.02  -0.03
   2   6    -0.04   0.06  -0.02    -0.07  -0.20   0.07     0.04  -0.35   0.17
   3   1    -0.05   0.04  -0.05     0.03  -0.09   0.10     0.07  -0.16   0.20
   4   1     0.05   0.06   0.01    -0.02  -0.14  -0.05    -0.05  -0.25  -0.05
   5   6    -0.09   0.02  -0.04    -0.08   0.06  -0.06     0.03   0.10   0.02
   6   1    -0.05   0.02  -0.01    -0.00   0.02  -0.05     0.05   0.02  -0.02
   7   1    -0.03  -0.02  -0.01    -0.03   0.03   0.00     0.02   0.06  -0.01
   8   7     0.03   0.02  -0.06     0.02   0.07  -0.08    -0.05   0.12   0.01
   9   6     0.05   0.04  -0.11     0.04   0.02  -0.17     0.04   0.29  -0.19
  10   1     0.03   0.02  -0.09    -0.07  -0.02   0.28     0.01   0.12  -0.21
  11   1     0.03   0.06   0.00    -0.01  -0.27  -0.24     0.09   0.18   0.01
  12   1    -0.01  -0.04  -0.01     0.11   0.31  -0.18    -0.04  -0.00  -0.03
  13   6     0.08  -0.00  -0.01     0.15  -0.03   0.04    -0.03  -0.27   0.25
  14   1     0.04  -0.01   0.01    -0.08   0.10  -0.12     0.03  -0.13   0.20
  15   1     0.03   0.02   0.00    -0.03  -0.19   0.13     0.01  -0.01   0.08
  16   1     0.02  -0.01  -0.01     0.26   0.05   0.05    -0.05  -0.19  -0.01
  17   6     0.06  -0.01  -0.02     0.00   0.09  -0.14    -0.08   0.19  -0.23
  18   1     0.01  -0.01   0.03     0.06   0.04  -0.27    -0.04   0.09   0.06
  19   1    -0.00   0.02  -0.03     0.15  -0.09   0.11    -0.11   0.14  -0.17
  20   1     0.05  -0.01  -0.01    -0.20   0.12   0.03     0.05  -0.05  -0.14
  21   1     0.02  -0.06   0.02    -0.06   0.03   0.05    -0.02   0.02  -0.07
  22   6     0.08   0.03  -0.02     0.00   0.00   0.01    -0.00  -0.01  -0.00
  23   8     0.02  -0.04  -0.02     0.00   0.01   0.01    -0.01  -0.01  -0.01
  24   7     0.06   0.12  -0.03    -0.00   0.00  -0.01    -0.01   0.01   0.00
  25   1    -0.01   0.04  -0.02    -0.00   0.00   0.00    -0.01   0.00  -0.00
  26   1     0.03   0.05  -0.02     0.00   0.00  -0.00     0.00   0.00  -0.00
  27   7     0.15  -0.01   0.03    -0.01   0.01  -0.01    -0.00  -0.00  -0.00
  28   1     0.03   0.01  -0.04    -0.00   0.00   0.01     0.00  -0.00   0.00
  29   1     0.04   0.00  -0.04    -0.00   0.00   0.00     0.00  -0.00   0.00
  30   6    -0.01  -0.01   0.00    -0.00   0.01   0.01    -0.01   0.00   0.01
  31   8    -0.02  -0.01   0.00    -0.00   0.01   0.02    -0.00   0.01   0.02
  32   7    -0.01  -0.01  -0.01    -0.01  -0.01  -0.00    -0.01  -0.00   0.01
  33   1     0.00   0.01   0.01     0.00   0.01   0.01    -0.00  -0.00  -0.00
  34   1     0.01   0.02   0.02     0.00   0.01   0.01    -0.00  -0.01  -0.01
  35   7     0.01   0.01   0.03    -0.00  -0.01   0.01     0.00  -0.01   0.02
  36   1    -0.01  -0.03  -0.02     0.00   0.00   0.00    -0.00  -0.02  -0.01
  37   1    -0.01  -0.03  -0.01     0.00   0.00   0.01    -0.01  -0.01   0.00
  38   6    -0.16  -0.06   0.02    -0.01  -0.00   0.00     0.00  -0.00   0.00
  39   8    -0.45  -0.18  -0.04    -0.01  -0.01  -0.00    -0.00  -0.00   0.00
  40   7    -0.05  -0.06   0.31    -0.00   0.00   0.01     0.00   0.01   0.00
  41   1    -0.04  -0.02   0.12    -0.00   0.00   0.00     0.00   0.00  -0.00
  42   1     0.05   0.01   0.10    -0.00  -0.00   0.00    -0.00  -0.01  -0.00
  43   7     0.09   0.01  -0.26     0.00   0.00  -0.00     0.00   0.01   0.00
  44   1     0.13   0.11  -0.04     0.00   0.01   0.00    -0.00  -0.01  -0.00
  45   1     0.00   0.07  -0.14    -0.00   0.00  -0.00    -0.00  -0.01  -0.00
  46   6     0.03   0.08   0.02     0.01  -0.01   0.00    -0.00  -0.00   0.00
  47   8    -0.09   0.26  -0.07     0.01  -0.02   0.01     0.00  -0.01   0.00
  48   7     0.12  -0.09  -0.10     0.00   0.02  -0.01    -0.00  -0.01   0.01
  49   1     0.01  -0.02  -0.07     0.00  -0.02   0.02     0.00   0.01  -0.01
  50   1     0.07  -0.08   0.01    -0.01  -0.03   0.02     0.00   0.03  -0.02
  51   7     0.09   0.03   0.18     0.00  -0.00  -0.01     0.00  -0.00  -0.01
  52   1     0.04  -0.03   0.08     0.00   0.01  -0.01    -0.00  -0.01   0.01
  53   1     0.01   0.01   0.08     0.00   0.00  -0.01    -0.00  -0.01   0.00
                     31                     32                     33
                        a                      a                      a 
 Frequencies --   309.3267               312.0767               327.7954
 Red. masses --     2.6628                 7.5332                 3.0745
 Frc consts  --     0.0000                 0.0000                 0.0000
 IR Inten    --   148.0550                 3.6633                65.6032
 Raman Activ --     0.0000                 0.0000                 0.0000
 Depolar     --     0.0000                 0.0000                 0.0000
 Atom AN      X      Y      Z        X      Y      Z        X      Y      Z
   1   8     0.02  -0.02  -0.03    -0.27   0.18   0.24    -0.09   0.01   0.07
   2   6     0.01   0.00   0.01    -0.20  -0.16   0.06    -0.07  -0.06  -0.07
   3   1    -0.00   0.00   0.01    -0.00  -0.08   0.11     0.00  -0.02  -0.04
   4   1     0.00   0.00   0.01    -0.10  -0.14  -0.04    -0.01  -0.02  -0.02
   5   6     0.02   0.01   0.02     0.01   0.06   0.02    -0.08  -0.09  -0.08
   6   1     0.01   0.00   0.01     0.06   0.00  -0.03    -0.07   0.00  -0.05
   7   1     0.01   0.01   0.00    -0.00   0.05   0.07    -0.04  -0.08  -0.01
   8   7    -0.01  -0.00   0.01     0.14   0.02  -0.05     0.07   0.01  -0.01
   9   6     0.00   0.00  -0.03     0.03  -0.20   0.20     0.02  -0.01   0.22
  10   1     0.01   0.01  -0.06     0.11  -0.08  -0.14    -0.07  -0.02   0.36
  11   1     0.02   0.04   0.02    -0.07   0.12   0.19    -0.07  -0.21  -0.08
  12   1    -0.02  -0.04   0.00    -0.05  -0.29   0.17     0.14   0.23  -0.01
  13   6    -0.02  -0.02   0.02     0.07   0.16  -0.17     0.12   0.05  -0.02
  14   1    -0.03   0.01  -0.01     0.10  -0.02  -0.00     0.19  -0.11   0.12
  15   1    -0.02  -0.04   0.01     0.06   0.15  -0.13     0.10   0.23  -0.07
  16   1     0.02   0.00   0.01    -0.12   0.04  -0.05    -0.16  -0.07  -0.06
  17   6    -0.00  -0.01   0.02     0.18   0.05  -0.30     0.03   0.05  -0.13
  18   1    -0.00  -0.00   0.01     0.09   0.02  -0.23    -0.05   0.03   0.23
  19   1    -0.00  -0.00   0.00     0.16  -0.02  -0.01    -0.16   0.18  -0.23
  20   1     0.01  -0.00   0.01    -0.08   0.03  -0.07     0.21  -0.15  -0.15
  21   1     0.01   0.00  -0.04    -0.12   0.07   0.04    -0.04   0.00   0.04
  22   6    -0.00   0.00  -0.00    -0.01  -0.00   0.01    -0.01  -0.00  -0.01
  23   8    -0.00   0.00  -0.00    -0.01  -0.01   0.01    -0.01  -0.00  -0.01
  24   7    -0.00  -0.00   0.01    -0.00  -0.00  -0.03     0.00  -0.01  -0.02
  25   1     0.00  -0.00  -0.02    -0.00   0.00   0.04    -0.00  -0.00   0.02
  26   1    -0.00  -0.01  -0.03     0.00   0.01   0.07     0.00   0.01   0.05
  27   7    -0.01   0.00  -0.00     0.01  -0.01   0.00     0.01  -0.00   0.01
  28   1    -0.00  -0.00   0.01    -0.00   0.00  -0.03    -0.00   0.00  -0.02
  29   1    -0.00   0.00   0.00     0.00  -0.00  -0.01     0.00  -0.00  -0.01
  30   6    -0.01  -0.01  -0.01     0.01  -0.01  -0.01     0.01   0.04   0.04
  31   8    -0.01  -0.00  -0.00     0.01  -0.01  -0.01     0.01   0.02   0.02
  32   7     0.01   0.03   0.02     0.01  -0.00   0.03    -0.03  -0.06  -0.09
  33   1    -0.01  -0.03  -0.03    -0.00  -0.02  -0.01     0.03   0.07   0.07
  34   1    -0.01  -0.04  -0.04    -0.01  -0.02  -0.02     0.04   0.12   0.13
  35   7     0.01   0.03   0.02     0.01   0.02   0.01    -0.03  -0.09  -0.06
  36   1    -0.01  -0.05  -0.04    -0.01  -0.03  -0.02     0.04   0.15   0.11
  37   1    -0.01  -0.03  -0.02    -0.00  -0.01  -0.02     0.03   0.07   0.06
  38   6     0.01   0.01   0.00     0.00  -0.00   0.00     0.00   0.00   0.00
  39   8     0.01  -0.00   0.00    -0.00   0.00   0.00     0.00   0.00   0.00
  40   7    -0.00  -0.02  -0.01     0.00   0.00   0.00    -0.00  -0.00  -0.00
  41   1     0.01   0.02   0.00     0.00   0.00  -0.00     0.00   0.00  -0.00
  42   1     0.01   0.05   0.01    -0.01  -0.02  -0.00     0.00   0.01   0.00
  43   7    -0.01  -0.01   0.02     0.00   0.01   0.01    -0.00  -0.00   0.01
  44   1    -0.01   0.01   0.01    -0.00  -0.01   0.00    -0.00   0.00   0.00
  45   1     0.00   0.00   0.01    -0.00  -0.00   0.00     0.00   0.00   0.00
  46   6    -0.00  -0.05   0.01     0.00  -0.02   0.00     0.00  -0.01   0.00
  47   8     0.03  -0.02  -0.01     0.01  -0.04   0.01     0.01  -0.00  -0.00
  48   7    -0.02   0.27  -0.19     0.00   0.01  -0.01    -0.00   0.05  -0.02
  49   1    -0.00  -0.33   0.23    -0.00  -0.02   0.01     0.00  -0.05   0.04
  50   1    -0.11  -0.64   0.44    -0.00  -0.01   0.01    -0.02  -0.09   0.06
  51   7    -0.02   0.01   0.03    -0.00  -0.01  -0.03     0.00   0.00   0.00
  52   1     0.04   0.19  -0.14    -0.00   0.00  -0.01     0.01   0.03  -0.03
  53   1     0.03   0.05  -0.04     0.00  -0.01  -0.01     0.00   0.00  -0.00
                     34                     35                     36
                        a                      a                      a 
 Frequencies --   332.7189               335.1674               366.8548
 Red. masses --     3.1771                 3.1498                 1.8233
 Frc consts  --     0.0000                 0.0000                 0.0000
 IR Inten    --   180.1918               406.7011                 1.4943
 Raman Activ --     0.0000                 0.0000                 0.0000
 Depolar     --     0.0000                 0.0000                 0.0000
 Atom AN      X      Y      Z        X      Y      Z        X      Y      Z
   1   8     0.01  -0.01  -0.01     0.04  -0.02  -0.03     0.06  -0.04  -0.04
   2   6     0.01   0.00  -0.03     0.03   0.02   0.04     0.04   0.04   0.01
   3   1     0.00   0.01  -0.03    -0.00   0.01   0.02    -0.01   0.02   0.00
   4   1     0.01   0.02  -0.00     0.01   0.00   0.01     0.02   0.03   0.01
   5   6    -0.03  -0.05  -0.03     0.03   0.04   0.04    -0.04   0.01  -0.00
   6   1    -0.03  -0.00  -0.01     0.02   0.00   0.02    -0.04   0.01   0.02
   7   1    -0.01  -0.04  -0.01     0.01   0.03   0.01    -0.01  -0.02  -0.04
   8   7     0.01  -0.01   0.00    -0.02   0.00   0.01    -0.07  -0.00  -0.00
   9   6     0.01   0.01   0.05     0.01   0.02  -0.10    -0.02   0.09  -0.14
  10   1    -0.03   0.00   0.12     0.02   0.01  -0.11    -0.04   0.03   0.03
  11   1    -0.01  -0.07  -0.04     0.03   0.05   0.01     0.03  -0.04  -0.09
  12   1     0.05   0.10  -0.02    -0.04  -0.05  -0.02     0.01   0.12  -0.09
  13   6     0.04  -0.01   0.02    -0.05  -0.02   0.01    -0.00  -0.03   0.04
  14   1     0.04  -0.03   0.03    -0.05   0.02  -0.02     0.28  -0.24   0.29
  15   1     0.02   0.04  -0.00    -0.03  -0.05   0.00     0.13   0.37  -0.13
  16   1    -0.02  -0.02  -0.01     0.02   0.01   0.01    -0.37  -0.17  -0.10
  17   6    -0.02   0.01  -0.01    -0.01  -0.02   0.06    -0.02  -0.06   0.11
  18   1    -0.02   0.01   0.07     0.01  -0.01  -0.06     0.06  -0.03  -0.26
  19   1    -0.05   0.04  -0.05     0.04  -0.06   0.08     0.19  -0.19   0.25
  20   1     0.04  -0.03  -0.03    -0.06   0.04   0.05    -0.24   0.15   0.15
  21   1     0.00  -0.01   0.01     0.02  -0.01  -0.02     0.03  -0.01  -0.01
  22   6    -0.01   0.01   0.02    -0.02   0.01   0.02    -0.01  -0.01   0.00
  23   8    -0.01   0.01   0.01    -0.02   0.01   0.01    -0.00  -0.01   0.01
  24   7     0.02  -0.04  -0.22     0.02  -0.04  -0.27    -0.01   0.01   0.02
  25   1    -0.01   0.00   0.21    -0.02   0.01   0.27     0.00   0.00  -0.00
  26   1     0.01   0.08   0.50     0.02   0.10   0.63    -0.00  -0.01  -0.05
  27   7     0.00   0.00   0.02     0.01  -0.00   0.03     0.01  -0.01   0.01
  28   1    -0.03   0.02  -0.14    -0.04   0.02  -0.19     0.00  -0.00  -0.01
  29   1    -0.00   0.01  -0.03    -0.00   0.01  -0.04     0.00  -0.00  -0.00
  30   6    -0.02  -0.06  -0.05     0.01   0.04   0.04     0.01   0.00  -0.00
  31   8    -0.02   0.00   0.00     0.01  -0.00  -0.00     0.01   0.00  -0.00
  32   7     0.06   0.14   0.17    -0.05  -0.10  -0.13     0.00  -0.01   0.02
  33   1    -0.07  -0.14  -0.15     0.05   0.10   0.11     0.00  -0.01   0.00
  34   1    -0.09  -0.29  -0.32     0.07   0.22   0.24    -0.01  -0.01  -0.01
  35   7     0.06   0.18   0.11    -0.04  -0.13  -0.08     0.01   0.01  -0.01
  36   1    -0.08  -0.31  -0.24     0.06   0.24   0.18    -0.00  -0.01  -0.01
  37   1    -0.06  -0.14  -0.12     0.04   0.11   0.09     0.00  -0.00  -0.00
  38   6     0.00  -0.00   0.00    -0.00  -0.01   0.00     0.01   0.01   0.00
  39   8     0.01  -0.00   0.00     0.00  -0.01   0.01     0.01   0.01  -0.00
  40   7    -0.00   0.00  -0.00    -0.00   0.01   0.00     0.00  -0.01  -0.01
  41   1    -0.00  -0.00  -0.00    -0.00  -0.01  -0.00     0.00   0.01   0.00
  42   1    -0.01  -0.01  -0.00    -0.01  -0.05  -0.01     0.01   0.04   0.01
  43   7    -0.00  -0.00   0.01    -0.00   0.00   0.01    -0.01  -0.01   0.01
  44   1     0.00   0.02   0.00     0.01   0.02   0.01    -0.01  -0.01   0.00
  45   1     0.00   0.01   0.00     0.00   0.01   0.00     0.00   0.00   0.00
  46   6     0.00   0.00  -0.00    -0.00   0.00  -0.00    -0.00  -0.00  -0.00
  47   8    -0.00   0.00  -0.00     0.00   0.00  -0.00     0.00  -0.00  -0.00
  48   7    -0.00  -0.01   0.01    -0.00   0.01  -0.01    -0.01   0.01  -0.00
  49   1     0.00   0.02  -0.01    -0.00  -0.02   0.01     0.00  -0.01   0.01
  50   1     0.00   0.03  -0.02    -0.01  -0.05   0.03    -0.01  -0.03   0.02
  51   7     0.00   0.01  -0.00    -0.00  -0.00   0.01     0.00   0.01   0.00
  52   1    -0.00  -0.01   0.01     0.00   0.02  -0.01     0.00   0.00   0.00
  53   1    -0.00  -0.00   0.00     0.00   0.00  -0.00    -0.00  -0.01   0.01
                     37                     38                     39
                        a                      a                      a 
 Frequencies --   384.7725               394.2632               419.5252
 Red. masses --     6.9927                 3.1338                 3.1592
 Frc consts  --     0.0000                 0.0000                 0.0000
 IR Inten    --    11.9810               272.2786               194.6686
 Raman Activ --     0.0000                 0.0000                 0.0000
 Depolar     --     0.0000                 0.0000                 0.0000
 Atom AN      X      Y      Z        X      Y      Z        X      Y      Z
   1   8    -0.05   0.00   0.11    -0.01   0.02   0.03     0.00  -0.00  -0.00
   2   6    -0.06  -0.05   0.19    -0.01  -0.02   0.01     0.00  -0.00   0.01
   3   1    -0.02  -0.04   0.15     0.00  -0.01   0.01     0.00  -0.00   0.01
   4   1    -0.04  -0.09   0.00    -0.00  -0.01   0.00    -0.00  -0.01   0.00
   5   6     0.17   0.22   0.15     0.03   0.01   0.01     0.00   0.02   0.00
   6   1     0.16  -0.00   0.06     0.03  -0.01  -0.01     0.00   0.00   0.00
   7   1     0.06   0.17   0.07     0.01   0.02   0.01     0.00   0.01  -0.01
   8   7     0.02   0.04  -0.03     0.01   0.01   0.01    -0.03   0.02   0.01
   9   6     0.04  -0.16  -0.36     0.01  -0.02  -0.02    -0.03  -0.02  -0.01
  10   1     0.04  -0.09   0.00     0.01  -0.01  -0.01     0.00  -0.01   0.00
  11   1     0.04  -0.17  -0.19     0.01  -0.01  -0.01    -0.01  -0.01  -0.01
  12   1    -0.04   0.07  -0.20    -0.01  -0.00  -0.01    -0.02  -0.00  -0.01
  13   6    -0.28   0.12  -0.24    -0.03  -0.00  -0.01    -0.01   0.02   0.01
  14   1    -0.08   0.02  -0.02    -0.02   0.01  -0.01     0.01  -0.00   0.01
  15   1    -0.05   0.06  -0.20    -0.01  -0.02  -0.01     0.00   0.02  -0.00
  16   1    -0.20   0.05  -0.06    -0.00   0.01   0.00    -0.02   0.00  -0.00
  17   6     0.17  -0.10   0.18     0.01   0.01   0.02     0.03  -0.02   0.00
  18   1    -0.01  -0.10   0.22    -0.00   0.00   0.02     0.00  -0.03   0.01
  19   1    -0.05   0.03  -0.03    -0.01   0.01  -0.01     0.02   0.01  -0.00
  20   1     0.24  -0.05   0.03     0.02  -0.00   0.00     0.03  -0.01  -0.00
  21   1    -0.02   0.01  -0.01    -0.02   0.02  -0.04     0.00   0.01  -0.02
  22   6    -0.00  -0.00  -0.00    -0.01   0.01  -0.02     0.05  -0.03   0.09
  23   8    -0.00  -0.00   0.00    -0.00   0.02  -0.02     0.02  -0.06   0.09
  24   7    -0.00  -0.00   0.02    -0.00  -0.01   0.01     0.04   0.00  -0.18
  25   1     0.00  -0.00  -0.01     0.00  -0.00   0.01    -0.02   0.02   0.08
  26   1    -0.00  -0.01  -0.02    -0.01  -0.00   0.02     0.04   0.06   0.15
  27   7     0.01  -0.01   0.01     0.02  -0.01   0.04    -0.13   0.07  -0.26
  28   1    -0.00   0.00  -0.03    -0.03   0.01  -0.12     0.24  -0.03   0.82
  29   1     0.00   0.00  -0.00     0.00   0.00  -0.02    -0.00  -0.06   0.02
  30   6    -0.00   0.00  -0.00    -0.00   0.00   0.00     0.00   0.00  -0.00
  31   8    -0.00   0.01   0.00     0.00  -0.00   0.00    -0.00   0.00  -0.00
  32   7    -0.00   0.01   0.01     0.00  -0.00  -0.01    -0.00  -0.00  -0.00
  33   1    -0.00  -0.00  -0.00     0.00   0.00   0.00     0.00   0.00   0.00
  34   1    -0.01  -0.03  -0.04     0.00   0.01   0.01    -0.00  -0.00   0.00
  35   7     0.01   0.00   0.02    -0.00  -0.00  -0.00     0.00  -0.00  -0.00
  36   1     0.00  -0.02  -0.01     0.00   0.01   0.01     0.00   0.01   0.01
  37   1    -0.01  -0.02  -0.00     0.00   0.00  -0.00     0.00  -0.00  -0.00
  38   6    -0.00  -0.02  -0.00     0.04   0.16   0.04    -0.00   0.04  -0.02
  39   8     0.00  -0.01  -0.00     0.01   0.05   0.02    -0.01   0.03  -0.02
  40   7     0.01   0.02   0.00    -0.07  -0.26  -0.07     0.00  -0.07   0.02
  41   1    -0.00  -0.01  -0.00     0.03   0.12   0.02     0.00   0.02   0.02
  42   1    -0.02  -0.07  -0.01     0.20   0.83   0.15     0.04   0.08   0.03
  43   7     0.00   0.02   0.01    -0.03  -0.20  -0.02    -0.00  -0.03  -0.03
  44   1    -0.01  -0.02  -0.00     0.03   0.09   0.02     0.04   0.17   0.02
  45   1    -0.00  -0.00   0.00     0.02   0.08   0.01    -0.01  -0.08  -0.01
  46   6    -0.00   0.00   0.00    -0.01  -0.05   0.02    -0.00   0.01   0.01
  47   8    -0.00  -0.01   0.01    -0.01  -0.05   0.02     0.00   0.01   0.01
  48   7     0.00  -0.01  -0.00     0.01   0.01  -0.02     0.02  -0.02  -0.02
  49   1    -0.00  -0.00  -0.00    -0.01  -0.02  -0.01    -0.01  -0.01  -0.02
  50   1     0.00   0.01  -0.01     0.02   0.04  -0.04     0.02   0.01  -0.01
  51   7    -0.01  -0.00  -0.00    -0.00   0.03  -0.06    -0.03  -0.01   0.00
  52   1    -0.00  -0.01   0.00    -0.02  -0.08   0.05    -0.01   0.03  -0.02
  53   1    -0.00   0.00  -0.00    -0.02  -0.03   0.01     0.00  -0.00  -0.02
                     40                     41                     42
                        a                      a                      a 
 Frequencies --   431.4694               443.9273               455.2810
 Red. masses --     8.6301                 1.6308                 8.4423
 Frc consts  --     0.0000                 0.0000                 0.0000
 IR Inten    --     0.6415                 5.6995                 0.9003
 Raman Activ --     0.0000                 0.0000                 0.0000
 Depolar     --     0.0000                 0.0000                 0.0000
 Atom AN      X      Y      Z        X      Y      Z        X      Y      Z
   1   8     0.15  -0.07  -0.20    -0.01   0.01   0.02    -0.02   0.01   0.04
   2   6     0.10  -0.03   0.09    -0.01   0.00  -0.02    -0.01  -0.01  -0.11
   3   1     0.03  -0.01   0.04    -0.00   0.00  -0.01     0.00  -0.01  -0.01
   4   1     0.01  -0.03   0.01     0.00   0.00  -0.01     0.01  -0.02  -0.05
   5   6    -0.19   0.05  -0.03     0.02   0.00  -0.01    -0.00   0.07  -0.12
   6   1    -0.17   0.07  -0.03     0.01  -0.00  -0.00    -0.00   0.03  -0.05
   7   1    -0.06  -0.10  -0.08     0.00   0.01   0.00    -0.00   0.01  -0.02
   8   7    -0.20   0.23   0.13     0.02  -0.01  -0.02     0.07   0.11  -0.06
   9   6    -0.29  -0.21  -0.08     0.02   0.01   0.01     0.01  -0.08   0.03
  10   1     0.03  -0.14  -0.01     0.00   0.01  -0.00     0.04  -0.05   0.03
  11   1    -0.12  -0.10  -0.05     0.00   0.01   0.01    -0.05  -0.02   0.01
  12   1    -0.17  -0.08  -0.06     0.01  -0.00   0.01    -0.01  -0.05   0.02
  13   6     0.02   0.19   0.28    -0.00  -0.03  -0.02    -0.07  -0.14   0.02
  14   1     0.03   0.05   0.05    -0.01  -0.01   0.00    -0.05  -0.03   0.08
  15   1    -0.01   0.06   0.14    -0.00  -0.01  -0.01    -0.02  -0.06  -0.00
  16   1     0.05   0.04   0.07    -0.00  -0.01  -0.01    -0.02  -0.09  -0.03
  17   6     0.36  -0.07  -0.14    -0.03   0.02   0.02     0.05   0.10   0.12
  18   1     0.07  -0.18  -0.07    -0.00   0.02   0.00     0.01   0.02   0.04
  19   1     0.24   0.09  -0.05    -0.02  -0.01   0.02    -0.01  -0.01   0.05
  20   1     0.16  -0.07  -0.08    -0.02   0.02   0.02     0.02   0.07   0.06
  21   1     0.06  -0.02  -0.06    -0.01   0.00   0.01    -0.02   0.01   0.01
  22   6     0.00  -0.00  -0.01     0.00  -0.00   0.00    -0.00   0.00   0.00
  23   8     0.00   0.00  -0.01     0.00   0.00  -0.00    -0.00   0.00   0.00
  24   7     0.00   0.01   0.01    -0.00   0.00   0.00     0.00  -0.00   0.00
  25   1    -0.00   0.00  -0.00    -0.00   0.00  -0.01    -0.00  -0.00  -0.01
  26   1     0.00   0.00   0.00     0.00   0.00  -0.00     0.00   0.00   0.01
  27   7    -0.00   0.00   0.02    -0.00  -0.00  -0.00     0.00   0.00  -0.00
  28   1    -0.03   0.00  -0.07    -0.00  -0.00  -0.00     0.00   0.00   0.00
  29   1    -0.00   0.01  -0.00    -0.00   0.00   0.00     0.00  -0.00   0.00
  30   6    -0.00  -0.01   0.02    -0.00  -0.04   0.05    -0.00  -0.19   0.21
  31   8    -0.00  -0.01   0.02     0.00  -0.05   0.05    -0.01  -0.21   0.24
  32   7     0.02   0.00  -0.02     0.03  -0.08  -0.10     0.32   0.12  -0.16
  33   1     0.01   0.04   0.01     0.10   0.44   0.25    -0.05   0.08  -0.27
  34   1     0.01  -0.03  -0.04     0.03  -0.31  -0.35     0.31   0.06   0.00
  35   7    -0.02   0.02  -0.00    -0.03   0.11   0.06    -0.31   0.16  -0.14
  36   1    -0.01   0.03   0.02    -0.02   0.37   0.27    -0.31   0.00  -0.07
  37   1    -0.00  -0.01  -0.04    -0.09  -0.28  -0.40     0.06   0.26  -0.11
  38   6    -0.00  -0.00   0.00    -0.00  -0.00   0.00     0.00  -0.00   0.00
  39   8     0.00  -0.01   0.00    -0.00  -0.00   0.00    -0.00  -0.00   0.00
  40   7    -0.00  -0.00  -0.00    -0.00   0.00  -0.00    -0.00   0.00  -0.00
  41   1    -0.00  -0.00  -0.00     0.00   0.00  -0.00     0.00   0.00  -0.00
  42   1     0.00   0.02   0.00    -0.00  -0.00  -0.00    -0.01  -0.02  -0.00
  43   7    -0.00  -0.00   0.00     0.00   0.00   0.00     0.00   0.00   0.00
  44   1    -0.00  -0.01  -0.00     0.00  -0.00  -0.00     0.00   0.01   0.00
  45   1     0.00   0.01  -0.00     0.00   0.00  -0.00    -0.00  -0.01  -0.00
  46   6    -0.00  -0.01  -0.02    -0.00   0.00   0.00    -0.00  -0.01   0.00
  47   8    -0.00  -0.00  -0.02     0.00  -0.00   0.00    -0.00  -0.01  -0.00
  48   7    -0.02   0.01   0.02     0.00  -0.00  -0.00    -0.00   0.01  -0.00
  49   1     0.00   0.02   0.02     0.00   0.00  -0.00     0.00  -0.00   0.01
  50   1    -0.02   0.02  -0.00     0.00  -0.01   0.00    -0.01  -0.01   0.01
  51   7     0.02   0.01   0.02    -0.00  -0.00  -0.00     0.01   0.01  -0.01
  52   1     0.02   0.00   0.01    -0.00   0.00  -0.00    -0.00  -0.03   0.02
  53   1     0.00   0.02   0.02    -0.00  -0.00  -0.00    -0.00   0.00   0.00
                     43                     44                     45
                        a                      a                      a 
 Frequencies --   461.5834               463.2772               469.1971
 Red. masses --     8.1669                 8.3574                 5.9296
 Frc consts  --     0.0000                 0.0000                 0.0000
 IR Inten    --    20.4640                29.3962                15.6263
 Raman Activ --     0.0000                 0.0000                 0.0000
 Depolar     --     0.0000                 0.0000                 0.0000
 Atom AN      X      Y      Z        X      Y      Z        X      Y      Z
   1   8     0.02  -0.00  -0.02    -0.00   0.01   0.01    -0.03   0.02   0.04
   2   6    -0.00   0.01   0.15    -0.00   0.01   0.05    -0.01  -0.01  -0.12
   3   1    -0.01   0.00   0.05    -0.00   0.00   0.02     0.00  -0.01  -0.02
   4   1    -0.02  -0.00   0.05    -0.01  -0.00   0.01     0.01  -0.02  -0.05
   5   6     0.09   0.01   0.17     0.02  -0.00   0.05     0.02   0.08  -0.12
   6   1     0.14  -0.07   0.10     0.02  -0.01   0.02     0.04   0.01  -0.04
   7   1     0.05   0.13   0.05     0.01   0.02   0.01     0.01   0.05  -0.02
   8   7    -0.23  -0.22  -0.04    -0.03  -0.06  -0.01     0.00   0.09  -0.07
   9   6    -0.14   0.23  -0.03     0.00   0.05  -0.01    -0.06  -0.05   0.05
  10   1    -0.14   0.13  -0.03    -0.02   0.03  -0.01     0.01  -0.04   0.03
  11   1     0.03   0.08   0.01     0.02   0.02   0.00    -0.06  -0.01   0.02
  12   1     0.03   0.10   0.00     0.01   0.02   0.00    -0.01  -0.04   0.03
  13   6     0.24   0.20  -0.07     0.03   0.04  -0.04    -0.02  -0.11   0.05
  14   1     0.17   0.02  -0.15     0.03   0.01  -0.04    -0.02  -0.04   0.06
  15   1     0.07   0.14   0.05     0.01   0.02  -0.01    -0.01  -0.03   0.03
  16   1     0.09   0.13   0.04     0.01   0.03   0.00     0.01  -0.08  -0.02
  17   6    -0.09  -0.31  -0.17    -0.04  -0.05  -0.03     0.05   0.03   0.11
  18   1    -0.04  -0.12  -0.03    -0.01  -0.01  -0.01     0.00  -0.02   0.04
  19   1     0.00  -0.03  -0.07    -0.01  -0.01  -0.01     0.01  -0.02   0.05
  20   1     0.01  -0.12  -0.07    -0.01  -0.02  -0.01     0.04   0.04   0.06
  21   1     0.02   0.00  -0.04     0.00   0.01  -0.01    -0.02   0.01   0.03
  22   6     0.03  -0.06   0.00     0.04  -0.05   0.01     0.10  -0.19   0.04
  23   8     0.08  -0.02  -0.01     0.06  -0.03   0.01     0.27  -0.05   0.01
  24   7    -0.01   0.08   0.01     0.01   0.07  -0.01     0.00   0.22   0.05
  25   1    -0.08   0.05  -0.07    -0.06   0.04  -0.04    -0.30   0.14  -0.46
  26   1     0.05   0.08   0.03     0.05   0.07   0.02     0.20   0.29   0.18
  27   7    -0.08  -0.04   0.02    -0.08  -0.02  -0.01    -0.28  -0.11  -0.01
  28   1    -0.06  -0.03  -0.03    -0.03  -0.03   0.06    -0.17  -0.10  -0.04
  29   1    -0.03   0.03   0.01    -0.03   0.02   0.01    -0.10   0.09   0.06
  30   6    -0.01  -0.07   0.08    -0.00  -0.01   0.02     0.00   0.03  -0.04
  31   8    -0.00  -0.08   0.09    -0.00  -0.02   0.02     0.00   0.04  -0.04
  32   7     0.12   0.04  -0.06     0.02   0.01  -0.01    -0.06  -0.01   0.03
  33   1    -0.02   0.05  -0.09    -0.00   0.01  -0.02     0.01  -0.03   0.04
  34   1     0.12   0.01  -0.01     0.02   0.00  -0.00    -0.06  -0.00   0.01
  35   7    -0.12   0.06  -0.04    -0.02   0.01  -0.01     0.06  -0.03   0.02
  36   1    -0.12   0.01  -0.02    -0.02  -0.00  -0.01     0.06  -0.01   0.01
  37   1     0.02   0.08  -0.05     0.00   0.02  -0.01    -0.01  -0.04   0.03
  38   6     0.01   0.00  -0.03    -0.06  -0.03   0.19     0.02  -0.01   0.01
  39   8    -0.01   0.01  -0.03     0.04  -0.06   0.21    -0.02  -0.00   0.00
  40   7     0.04  -0.01   0.02    -0.20   0.08  -0.16     0.01   0.01  -0.04
  41   1    -0.00  -0.01   0.02     0.01   0.01  -0.14     0.02   0.01  -0.03
  42   1     0.03   0.02   0.01    -0.16   0.09  -0.05    -0.02  -0.01  -0.02
  43   7    -0.03  -0.00   0.03     0.21  -0.04  -0.14     0.02  -0.00   0.02
  44   1    -0.04  -0.02   0.00     0.21  -0.12  -0.03    -0.00  -0.01   0.00
  45   1     0.01   0.03   0.04     0.02   0.13  -0.19     0.01   0.01   0.01
  46   6    -0.01   0.06   0.05     0.04  -0.10  -0.19    -0.01   0.01   0.05
  47   8     0.04   0.04   0.07    -0.13  -0.10  -0.21     0.02   0.01   0.05
  48   7     0.06  -0.05  -0.05    -0.20   0.06   0.17     0.04   0.00  -0.04
  49   1    -0.02  -0.06  -0.06     0.07   0.23   0.15    -0.01  -0.06  -0.02
  50   1     0.09   0.00  -0.03    -0.27   0.05   0.04     0.05  -0.01  -0.00
  51   7    -0.10  -0.04  -0.02     0.26   0.02   0.17    -0.05   0.01  -0.05
  52   1    -0.06   0.08  -0.07     0.21   0.12  -0.05    -0.05  -0.07   0.04
  53   1    -0.00  -0.03  -0.05     0.02   0.02   0.13    -0.01  -0.01  -0.02
                     46                     47                     48
                        a                      a                      a 
 Frequencies --   471.5734               479.9645               481.4070
 Red. masses --     1.8892                 3.0460                 4.8528
 Frc consts  --     0.0000                 0.0000                 0.0000
 IR Inten    --     6.2345               241.4079                 4.3298
 Raman Activ --     0.0000                 0.0000                 0.0000
 Depolar     --     0.0000                 0.0000                 0.0000
 Atom AN      X      Y      Z        X      Y      Z        X      Y      Z
   1   8     0.00   0.00   0.01     0.00  -0.00  -0.01     0.02  -0.03  -0.05
   2   6     0.00   0.00   0.01     0.00  -0.01   0.01     0.01   0.01   0.12
   3   1    -0.00   0.00   0.01     0.00   0.00  -0.01    -0.00   0.01  -0.01
   4   1    -0.00   0.00   0.01    -0.00   0.01   0.01    -0.01   0.03   0.06
   5   6     0.01   0.00   0.02    -0.04  -0.06   0.01    -0.06  -0.14   0.12
   6   1     0.02  -0.01   0.01    -0.06   0.01  -0.01    -0.10   0.00   0.02
   7   1     0.01   0.02   0.01    -0.02  -0.07  -0.01    -0.03  -0.11   0.01
   8   7    -0.02  -0.03  -0.00     0.07   0.02   0.05     0.06  -0.07   0.12
   9   6    -0.01   0.02  -0.00     0.08  -0.04  -0.03     0.13   0.01  -0.07
  10   1    -0.02   0.02  -0.00     0.04  -0.02  -0.01     0.02   0.02  -0.04
  11   1     0.00   0.01   0.00     0.03  -0.02  -0.02     0.09  -0.01  -0.03
  12   1     0.00   0.01   0.00    -0.00  -0.01  -0.02     0.01   0.03  -0.05
  13   6     0.03   0.02  -0.01    -0.08   0.01  -0.01    -0.06   0.12  -0.05
  14   1     0.02   0.00  -0.02    -0.05   0.01   0.02    -0.02   0.04  -0.04
  15   1     0.01   0.02   0.01    -0.02  -0.02  -0.04    -0.01   0.02  -0.07
  16   1     0.01   0.01   0.00    -0.05   0.00  -0.00    -0.05   0.08   0.02
  17   6    -0.01  -0.03  -0.02     0.00   0.09  -0.02    -0.05   0.05  -0.12
  18   1    -0.00  -0.01  -0.00     0.01   0.05  -0.02     0.01   0.06  -0.06
  19   1    -0.00  -0.01  -0.01     0.00   0.02  -0.00    -0.00   0.04  -0.05
  20   1    -0.00  -0.01  -0.01    -0.03   0.01  -0.01    -0.08  -0.03  -0.06
  21   1    -0.00   0.01  -0.02     0.00  -0.01   0.03     0.02  -0.01  -0.02
  22   6    -0.02   0.02   0.01    -0.02   0.02   0.03    -0.07   0.08   0.07
  23   8    -0.03   0.03  -0.00    -0.01   0.04   0.02    -0.06   0.11   0.07
  24   7    -0.02  -0.05   0.06    -0.01  -0.05   0.05    -0.04  -0.19   0.10
  25   1    -0.00  -0.02  -0.15    -0.03  -0.01  -0.25    -0.04  -0.05  -0.58
  26   1    -0.01  -0.01   0.04     0.01   0.02   0.10     0.01   0.01   0.27
  27   7     0.06  -0.01   0.00     0.05  -0.01  -0.04     0.14   0.01  -0.15
  28   1    -0.02   0.02  -0.15     0.02   0.02  -0.06     0.13   0.07   0.03
  29   1     0.02   0.00   0.06     0.02  -0.02   0.03     0.07  -0.09  -0.00
  30   6    -0.00  -0.00   0.00    -0.00  -0.00   0.00    -0.00  -0.02   0.03
  31   8     0.00  -0.00   0.00     0.00  -0.01   0.00    -0.00  -0.02   0.03
  32   7     0.00   0.00  -0.00     0.01   0.00   0.00     0.04   0.00  -0.02
  33   1    -0.00   0.00  -0.00     0.00   0.02   0.00    -0.00   0.01  -0.03
  34   1     0.00  -0.00  -0.00     0.01  -0.01  -0.01     0.04   0.01   0.00
  35   7    -0.00   0.00  -0.00    -0.01   0.01   0.00    -0.04   0.01  -0.01
  36   1    -0.00   0.00   0.00    -0.01  -0.02  -0.02    -0.03   0.01   0.00
[...]
  44   1    -0.00  -0.00   0.01    -0.00   0.00   0.00    -0.00  -0.00   0.00
  45   1     0.03  -0.01  -0.01     0.00   0.00  -0.00     0.00  -0.00  -0.00
  46   6     0.00  -0.00  -0.00     0.00  -0.00  -0.01     0.00   0.00   0.00
  47   8    -0.00   0.00   0.00    -0.00   0.00   0.01     0.00  -0.00  -0.00
  48   7     0.00   0.00   0.00    -0.00   0.00   0.00     0.16   0.05   0.07
  49   1     0.01  -0.00  -0.00     0.02  -0.01  -0.01    -0.59   0.20   0.31
  50   1     0.00   0.00   0.00     0.00   0.01   0.01    -0.02  -0.39  -0.57
  51   7    -0.05   0.01  -0.02    -0.01   0.00  -0.00    -0.01  -0.01  -0.01
  52   1    -0.00  -0.01  -0.02    -0.00  -0.00  -0.00     0.00   0.03   0.04
  53   1     0.18  -0.01   0.12     0.03   0.00   0.02     0.01  -0.00   0.01
                    142                    143                    144
                        a                      a                      a 
 Frequencies --  3493.3066              3499.7859              3503.7028
 Red. masses --     1.4543                 1.4382                 1.4478
 Frc consts  --     0.0000                 0.0000                 0.0000
 IR Inten    --    16.7521                38.2714                24.2854
 Raman Activ --     0.0000                 0.0000                 0.0000
 Depolar     --     0.0000                 0.0000                 0.0000
 Atom AN      X      Y      Z        X      Y      Z        X      Y      Z
   1   8    -0.00  -0.00  -0.00    -0.00   0.00   0.00    -0.00   0.00  -0.00
   2   6     0.00  -0.00  -0.00     0.00  -0.00   0.00     0.00  -0.00   0.00
   3   1     0.00   0.00   0.00     0.00  -0.00   0.00     0.00   0.00   0.00
   4   1     0.00  -0.00   0.00    -0.00   0.00  -0.00     0.00  -0.00  -0.00
   5   6    -0.00   0.00  -0.00    -0.00   0.00   0.00     0.00  -0.00   0.00
   6   1    -0.00   0.00  -0.00     0.00  -0.00  -0.00     0.00  -0.00   0.00
   7   1     0.00  -0.00   0.00     0.00  -0.00  -0.00    -0.00  -0.00   0.00
   8   7     0.00   0.00   0.00    -0.00   0.00  -0.00     0.00   0.00  -0.00
   9   6    -0.00   0.00  -0.00     0.00  -0.00   0.00     0.00   0.00  -0.00
  10   1     0.00   0.00   0.00    -0.00  -0.00  -0.00     0.00   0.00   0.00
  11   1    -0.00  -0.00   0.00     0.00   0.00  -0.00    -0.00  -0.00   0.00
  12   1    -0.00  -0.00  -0.00    -0.00   0.00   0.00     0.00  -0.00   0.00
  13   6    -0.00   0.00  -0.00     0.00   0.00  -0.00     0.00  -0.00   0.00
  14   1    -0.00   0.00  -0.00    -0.00  -0.00  -0.00     0.00   0.00   0.00
  15   1     0.00  -0.00   0.00    -0.00   0.00  -0.00    -0.00   0.00  -0.00
  16   1    -0.00  -0.00   0.00     0.00  -0.00   0.00    -0.00   0.00  -0.00
  17   6    -0.00   0.00  -0.00     0.00   0.00  -0.00     0.00  -0.00   0.00
  18   1     0.00  -0.00   0.00    -0.00   0.00  -0.00    -0.00   0.00   0.00
  19   1    -0.00   0.00   0.00    -0.00   0.00   0.00     0.00  -0.00  -0.00
  20   1    -0.00   0.00  -0.00     0.00  -0.00   0.00    -0.00   0.00  -0.00
  21   1     0.00   0.00   0.00    -0.00  -0.00  -0.00     0.00  -0.00   0.00
  22   6     0.00  -0.00   0.00     0.00   0.00  -0.00     0.00   0.00  -0.00
  23   8    -0.00   0.00  -0.00    -0.00  -0.00   0.00     0.00  -0.00  -0.00
  24   7     0.18   0.03   0.01    -0.00  -0.00  -0.00    -0.00  -0.00  -0.00
  25   1    -0.18  -0.63   0.02     0.00   0.00  -0.00     0.00   0.00  -0.00
  26   1    -0.50   0.52  -0.07     0.00  -0.00   0.00     0.00  -0.00   0.00
  27   7    -0.01   0.00   0.00    -0.00  -0.00   0.00     0.01  -0.00  -0.00
  28   1     0.03  -0.03  -0.01    -0.00   0.00   0.00    -0.01   0.02   0.00
  29   1     0.01   0.00  -0.00     0.00   0.00  -0.00    -0.02  -0.01   0.00
  30   6    -0.00  -0.00   0.00    -0.00   0.00   0.00    -0.00  -0.00   0.00
  31   8     0.00   0.00  -0.00    -0.00  -0.00  -0.00     0.00   0.00  -0.00
  32   7    -0.00   0.00  -0.00    -0.10   0.08  -0.03    -0.00   0.00  -0.00
  33   1     0.00   0.00  -0.00     0.40   0.07  -0.24     0.00   0.00  -0.00
  34   1    -0.00  -0.00   0.00    -0.03  -0.39   0.36    -0.00  -0.00   0.00
  35   7    -0.00   0.00   0.00    -0.10  -0.02   0.08     0.00   0.00  -0.00
  36   1    -0.00   0.00  -0.00    -0.01   0.31  -0.41     0.00  -0.00   0.00
  37   1     0.00  -0.00   0.00     0.37  -0.23   0.11    -0.00   0.00  -0.00
  38   6     0.00   0.00  -0.00     0.00  -0.00  -0.00     0.00  -0.00   0.00
  39   8    -0.00  -0.00   0.00    -0.00  -0.00   0.00     0.00   0.00  -0.00
  40   7    -0.00   0.00  -0.00    -0.00   0.00  -0.00    -0.00   0.00  -0.01
  41   1     0.00  -0.00   0.00     0.00  -0.00   0.00     0.01  -0.01   0.01
  42   1     0.00   0.00  -0.00    -0.00  -0.00   0.00    -0.01  -0.01   0.05
  43   7     0.00  -0.00   0.00     0.00  -0.00   0.00     0.14  -0.04   0.12
  44   1     0.00   0.00  -0.01     0.00   0.00  -0.00     0.12   0.08  -0.69
  45   1    -0.01   0.00   0.00    -0.00   0.00   0.00    -0.62   0.09   0.26
  46   6     0.00   0.00   0.00     0.00  -0.00  -0.00     0.00   0.00   0.00
  47   8    -0.00  -0.00  -0.00    -0.00   0.00   0.00    -0.00   0.00  -0.00
  48   7     0.00   0.00   0.00    -0.00  -0.00  -0.00     0.00   0.00   0.00
  49   1    -0.01   0.00   0.00     0.00  -0.00  -0.00    -0.00   0.00   0.00
  50   1    -0.00  -0.00  -0.01     0.00   0.00   0.00    -0.00  -0.00  -0.00
  51   7    -0.00  -0.00  -0.00    -0.00   0.00   0.00    -0.00   0.00   0.00
  52   1     0.00   0.00   0.00     0.00  -0.00  -0.00    -0.00  -0.01  -0.01
  53   1     0.00   0.00   0.00     0.00   0.00   0.00     0.01  -0.00   0.01
                    145                    146                    147
                        a                      a                      a 
 Frequencies --  3503.8468              3519.9082              3520.2614
 Red. masses --     1.4623                 1.8988                 1.8999
 Frc consts  --     0.0000                 0.0000                 0.0000
 IR Inten    --     7.7840                 9.4809                13.8815
 Raman Activ --     0.0000                 0.0000                 0.0000
 Depolar     --     0.0000                 0.0000                 0.0000
 Atom AN      X      Y      Z        X      Y      Z        X      Y      Z
   1   8    -0.00  -0.00  -0.00     0.00   0.00   0.00     0.00   0.00   0.00
   2   6     0.00  -0.00  -0.00     0.00   0.00   0.00     0.00   0.00   0.00
   3   1     0.00   0.00  -0.00    -0.00  -0.00  -0.00    -0.00  -0.00  -0.00
   4   1    -0.00   0.00   0.00     0.00   0.00   0.00     0.00  -0.00   0.00
   5   6     0.00  -0.00  -0.00    -0.00  -0.00  -0.00    -0.00   0.00   0.00
   6   1     0.00   0.00   0.00     0.00   0.00   0.00     0.00   0.00  -0.00
   7   1    -0.00   0.00  -0.00     0.00  -0.00  -0.00    -0.00   0.00   0.00
   8   7    -0.00   0.00  -0.00    -0.00  -0.00   0.00     0.00  -0.00   0.00
   9   6    -0.00  -0.00   0.00     0.00   0.00  -0.00     0.00   0.00  -0.00
  10   1    -0.00  -0.00   0.00    -0.00  -0.00  -0.00    -0.00  -0.00  -0.00
  11   1     0.00   0.00  -0.00    -0.00  -0.00   0.00    -0.00  -0.00   0.00
  12   1    -0.00   0.00   0.00    -0.00   0.00   0.00    -0.00   0.00   0.00
  13   6     0.00  -0.00   0.00     0.00   0.00   0.00     0.00   0.00   0.00
  14   1    -0.00  -0.00   0.00    -0.00  -0.00  -0.00    -0.00  -0.00  -0.00
  15   1    -0.00  -0.00   0.00     0.00  -0.00   0.00     0.00   0.00  -0.00
  16   1    -0.00   0.00  -0.00    -0.00   0.00   0.00     0.00   0.00   0.00
  17   6     0.00  -0.00   0.00     0.00   0.00   0.00    -0.00   0.00  -0.00
  18   1    -0.00  -0.00   0.00    -0.00  -0.00  -0.00     0.00   0.00   0.00
  19   1     0.00  -0.00   0.00     0.00   0.00  -0.00    -0.00   0.00   0.00
  20   1    -0.00   0.00  -0.00    -0.00  -0.00   0.00     0.00  -0.00   0.00
  21   1     0.00   0.00   0.00    -0.00  -0.00  -0.00    -0.00  -0.00  -0.00
  22   6    -0.00   0.00   0.00    -0.01   0.00   0.00     0.01  -0.00  -0.00
  23   8     0.00  -0.00  -0.00     0.00  -0.00  -0.00    -0.00   0.00   0.00
  24   7     0.00   0.00  -0.00    -0.00  -0.02   0.00     0.00   0.01  -0.00
  25   1     0.00   0.00   0.00     0.02   0.06  -0.00    -0.02  -0.05   0.00
  26   1     0.00  -0.00   0.00    -0.01   0.01  -0.00     0.01  -0.01   0.00
  27   7     0.00  -0.00  -0.00    -0.14   0.13   0.05     0.12  -0.11  -0.04
  28   1    -0.00   0.00   0.00     0.48  -0.53  -0.18    -0.40   0.44   0.15
  29   1    -0.00  -0.00   0.00     0.07   0.03   0.00    -0.07  -0.03   0.00
  30   6     0.00   0.00  -0.00     0.00  -0.00   0.00    -0.00  -0.00   0.00
  31   8    -0.00  -0.00   0.00    -0.00   0.00  -0.00     0.00   0.00  -0.00
  32   7    -0.10   0.08  -0.03    -0.00   0.00  -0.00     0.00  -0.00   0.00
  33   1     0.39   0.07  -0.24     0.00   0.00  -0.00    -0.00  -0.00   0.00
  34   1    -0.03  -0.36   0.34    -0.00  -0.00   0.00     0.00   0.00  -0.00
  35   7     0.11   0.02  -0.08    -0.00   0.00  -0.00    -0.00  -0.00   0.00
  36   1     0.01  -0.31   0.41     0.00  -0.00   0.00    -0.00   0.00  -0.00
  37   1    -0.40   0.25  -0.11     0.00  -0.00   0.00     0.00  -0.00   0.00
  38   6    -0.00   0.00  -0.00     0.00  -0.00   0.00     0.00   0.00  -0.00
  39   8    -0.00  -0.00   0.00     0.00   0.00  -0.00    -0.00   0.00   0.00
  40   7     0.00  -0.00   0.00     0.00   0.00  -0.00    -0.00   0.00  -0.00
  41   1    -0.00   0.00  -0.00    -0.00   0.00   0.00     0.00  -0.00   0.00
  42   1     0.00   0.00  -0.00    -0.00  -0.00   0.01    -0.00  -0.00   0.00
  43   7    -0.00   0.00  -0.00     0.00  -0.00   0.01    -0.00   0.00  -0.00
  44   1    -0.00  -0.00   0.01     0.00   0.00  -0.03    -0.00  -0.00   0.01
  45   1     0.00  -0.00  -0.00    -0.01   0.00   0.01     0.00  -0.00  -0.00
  46   6     0.00   0.00  -0.00    -0.00  -0.00  -0.00    -0.00  -0.00  -0.00
  47   8    -0.00  -0.00   0.00     0.00   0.00   0.00     0.00   0.00   0.00
  48   7    -0.00  -0.00  -0.00    -0.01   0.00   0.01    -0.01   0.01   0.01
  49   1     0.00  -0.00  -0.00     0.05  -0.01  -0.02     0.06  -0.02  -0.03
  50   1     0.00   0.00   0.00    -0.00  -0.00  -0.00    -0.00  -0.00  -0.00
  51   7     0.00  -0.00  -0.00    -0.01  -0.10  -0.13    -0.02  -0.11  -0.16
  52   1     0.00   0.00   0.00     0.02   0.37   0.49     0.03   0.45   0.59
  53   1    -0.00   0.00  -0.00     0.04  -0.01   0.02     0.05  -0.01   0.02
                    148                    149                    150
                        a                      a                      a 
 Frequencies --  3538.3874              3557.4279              3558.1755
 Red. masses --     1.9095                 2.1743                 2.1830
 Frc consts  --     0.0000                 0.0000                 0.0000
 IR Inten    --    20.5751                 9.3081                17.3776
 Raman Activ --     0.0000                 0.0000                 0.0000
 Depolar     --     0.0000                 0.0000                 0.0000
 Atom AN      X      Y      Z        X      Y      Z        X      Y      Z
   1   8    -0.00  -0.00  -0.00     0.00   0.00  -0.00     0.00   0.00   0.00
   2   6     0.00  -0.00   0.00    -0.00  -0.00   0.00    -0.00  -0.00  -0.00
   3   1    -0.00  -0.00   0.00     0.00   0.00   0.00     0.00   0.00   0.00
   4   1    -0.00   0.00  -0.00     0.00  -0.00  -0.00     0.00  -0.00  -0.00
   5   6    -0.00  -0.00  -0.00     0.00  -0.00   0.00     0.00   0.00  -0.00
   6   1     0.00   0.00   0.00     0.00  -0.00   0.00    -0.00  -0.00   0.00
   7   1    -0.00  -0.00  -0.00    -0.00   0.00   0.00     0.00   0.00   0.00
   8   7     0.00   0.00   0.00    -0.00  -0.00  -0.00    -0.00   0.00   0.00
   9   6     0.00  -0.00   0.00    -0.00  -0.00   0.00    -0.00   0.00   0.00
  10   1     0.00   0.00  -0.00     0.00  -0.00   0.00    -0.00  -0.00   0.00
  11   1     0.00   0.00  -0.00     0.00   0.00  -0.00     0.00   0.00  -0.00
  12   1    -0.00   0.00   0.00     0.00  -0.00   0.00     0.00  -0.00  -0.00
  13   6    -0.00  -0.00   0.00     0.00  -0.00   0.00    -0.00  -0.00  -0.00
  14   1     0.00   0.00   0.00     0.00  -0.00   0.00     0.00   0.00   0.00
  15   1    -0.00  -0.00   0.00    -0.00   0.00  -0.00     0.00  -0.00  -0.00
  16   1     0.00   0.00  -0.00     0.00   0.00  -0.00    -0.00  -0.00  -0.00
  17   6    -0.00  -0.00  -0.00     0.00  -0.00   0.00    -0.00   0.00  -0.00
  18   1    -0.00  -0.00  -0.00    -0.00   0.00  -0.00     0.00  -0.00   0.00
  19   1    -0.00   0.00   0.00     0.00  -0.00  -0.00     0.00  -0.00  -0.00
  20   1     0.00   0.00  -0.00     0.00   0.00  -0.00     0.00   0.00  -0.00
  21   1     0.00   0.01   0.00    -0.00  -0.00  -0.00    -0.00  -0.01  -0.00
  22   6     0.00  -0.00  -0.00     0.00  -0.01   0.00    -0.00   0.00  -0.00
  23   8    -0.00   0.00   0.00    -0.00   0.00  -0.00     0.00  -0.00   0.00
  24   7     0.00   0.00  -0.00     0.06  -0.29   0.02    -0.00   0.01  -0.00
  25   1    -0.00  -0.00   0.00     0.22   0.67  -0.01    -0.01  -0.02   0.00
  26   1     0.00  -0.00   0.00    -0.46   0.44  -0.07     0.01  -0.01   0.00
  27   7     0.00  -0.00  -0.00     0.01  -0.01  -0.00    -0.00   0.00   0.00
  28   1    -0.00   0.00   0.00    -0.04   0.05   0.02     0.00  -0.00  -0.00
  29   1    -0.00  -0.00  -0.00    -0.01  -0.00   0.00     0.00   0.00  -0.00
  30   6     0.00   0.00  -0.00     0.00   0.00  -0.00     0.00  -0.00   0.00
  31   8    -0.00  -0.00   0.00    -0.00  -0.00   0.00    -0.00   0.00  -0.00
  32   7     0.00   0.00  -0.00     0.00   0.00  -0.00     0.00   0.00  -0.00
  33   1    -0.00   0.00   0.00    -0.00  -0.00   0.00    -0.00  -0.00   0.00
  34   1    -0.00  -0.00   0.00    -0.00  -0.00   0.00    -0.00  -0.00   0.00
  35   7    -0.00   0.00  -0.00     0.00  -0.00   0.00     0.00  -0.00   0.00
  36   1     0.00  -0.00   0.00     0.00   0.00  -0.00     0.00   0.00  -0.00
  37   1    -0.00   0.00   0.00    -0.00   0.00  -0.00    -0.00   0.00  -0.00
  38   6    -0.00   0.00  -0.01     0.00  -0.00  -0.00    -0.00  -0.00   0.00
  39   8     0.00  -0.00   0.00    -0.00   0.00   0.00    -0.00  -0.00  -0.00
  40   7     0.03   0.04  -0.26    -0.00   0.00  -0.00     0.00  -0.00   0.00
  41   1     0.08  -0.03   0.04     0.00  -0.00   0.00    -0.01   0.00  -0.00
  42   1    -0.16  -0.14   0.93    -0.00  -0.00   0.00     0.00   0.00  -0.01
  43   7    -0.02   0.00   0.01     0.00   0.00  -0.00     0.00  -0.00  -0.00
  44   1     0.00   0.00  -0.02    -0.00  -0.00   0.00    -0.00  -0.00   0.00
  45   1     0.08  -0.01  -0.03    -0.00   0.00   0.00    -0.00   0.00   0.00
  46   6     0.00  -0.00  -0.00    -0.00   0.00   0.00    -0.01   0.01   0.01
  47   8    -0.00   0.00   0.00     0.00  -0.00  -0.00     0.00  -0.00  -0.00
  48   7    -0.00   0.00   0.00    -0.00   0.00   0.01    -0.14   0.15   0.22
  49   1     0.00  -0.00  -0.00     0.02  -0.00  -0.01     0.58  -0.18  -0.28
  50   1    -0.00  -0.01  -0.01    -0.00  -0.01  -0.01    -0.04  -0.38  -0.56
  51   7    -0.00   0.00   0.00    -0.00   0.00   0.00     0.00   0.01   0.01
  52   1    -0.00  -0.01  -0.01    -0.00  -0.00  -0.00    -0.00  -0.04  -0.05
  53   1     0.00   0.00   0.00     0.00  -0.00   0.00    -0.01   0.00  -0.00
                    151                    152                    153
                        a                      a                      a 
 Frequencies --  3564.0288              3569.5436              3570.6405
 Red. masses --     2.1905                 2.1770                 2.1874
 Frc consts  --     0.0000                 0.0000                 0.0000
 IR Inten    --    13.0241                11.5816                20.6156
 Raman Activ --     0.0000                 0.0000                 0.0000
 Depolar     --     0.0000                 0.0000                 0.0000
 Atom AN      X      Y      Z        X      Y      Z        X      Y      Z
   1   8     0.00  -0.00  -0.00     0.00   0.00  -0.00    -0.00  -0.00  -0.00
   2   6    -0.00   0.00  -0.00    -0.00  -0.00   0.00    -0.00  -0.00   0.00
   3   1     0.00   0.00  -0.00     0.00   0.00   0.00    -0.00  -0.00   0.00
   4   1     0.00  -0.00   0.00     0.00   0.00  -0.00    -0.00   0.00  -0.00
   5   6     0.00  -0.00   0.00    -0.00  -0.00   0.00     0.00  -0.00   0.00
   6   1    -0.00  -0.00   0.00    -0.00  -0.00  -0.00     0.00  -0.00   0.00
   7   1    -0.00   0.00   0.00     0.00  -0.00  -0.00    -0.00  -0.00  -0.00
   8   7     0.00  -0.00   0.00     0.00  -0.00   0.00    -0.00   0.00   0.00
   9   6     0.00   0.00  -0.00     0.00   0.00  -0.00     0.00  -0.00  -0.00
  10   1    -0.00   0.00  -0.00    -0.00   0.00  -0.00     0.00   0.00  -0.00
  11   1    -0.00  -0.00   0.00    -0.00  -0.00   0.00    -0.00   0.00  -0.00
  12   1    -0.00   0.00  -0.00    -0.00   0.00  -0.00    -0.00   0.00   0.00
  13   6     0.00  -0.00   0.00    -0.00   0.00  -0.00     0.00  -0.00   0.00
  14   1    -0.00  -0.00   0.00    -0.00   0.00  -0.00     0.00   0.00   0.00
  15   1    -0.00  -0.00   0.00     0.00   0.00  -0.00    -0.00   0.00  -0.00
  16   1    -0.00   0.00  -0.00     0.00  -0.00   0.00    -0.00   0.00  -0.00
  17   6     0.00  -0.00   0.00    -0.00   0.00  -0.00     0.00  -0.00   0.00
  18   1    -0.00   0.00   0.00     0.00   0.00  -0.00    -0.00   0.00  -0.00
  19   1    -0.00  -0.00   0.00    -0.00   0.00  -0.00     0.00   0.00   0.00
  20   1     0.00   0.00  -0.00     0.00  -0.00   0.00    -0.00   0.00  -0.00
  21   1     0.00   0.00   0.00    -0.00  -0.00  -0.00     0.00   0.00   0.00
  22   6    -0.00  -0.00   0.00     0.00   0.00  -0.00    -0.00   0.00  -0.00
  23   8     0.00   0.00  -0.00    -0.00   0.00   0.00     0.00  -0.00  -0.00
  24   7    -0.00   0.00  -0.00     0.00  -0.00   0.00    -0.00   0.00   0.00
  25   1    -0.00  -0.00   0.00     0.00   0.00  -0.00    -0.00  -0.00  -0.00
  26   1     0.00  -0.00   0.00    -0.00   0.00  -0.00     0.00  -0.00   0.00
  27   7     0.00   0.00  -0.00    -0.00  -0.00   0.00     0.00   0.00   0.00
  28   1     0.00  -0.00  -0.00    -0.00   0.00   0.00     0.01  -0.01  -0.00
  29   1    -0.00  -0.00   0.00     0.00   0.00  -0.00    -0.01  -0.00   0.00
  30   6     0.01  -0.00  -0.00    -0.00   0.01  -0.01     0.00  -0.00   0.00
  31   8    -0.00  -0.00   0.00     0.00  -0.00   0.00     0.00   0.00  -0.00
  32   7     0.12   0.11  -0.15     0.11   0.10  -0.13    -0.00  -0.00   0.00
  33   1    -0.46  -0.07   0.27    -0.40  -0.06   0.23     0.00   0.00  -0.00
  34   1    -0.01  -0.35   0.32    -0.01  -0.32   0.29     0.00   0.00  -0.00
  35   7     0.10  -0.13   0.11    -0.11   0.14  -0.13     0.00  -0.00   0.00
  36   1     0.01   0.25  -0.34    -0.01  -0.29   0.39     0.00   0.00  -0.00
  37   1    -0.40   0.24  -0.10     0.44  -0.26   0.11    -0.00   0.00  -0.00
  38   6    -0.00   0.00   0.00     0.00  -0.00  -0.00     0.01  -0.00  -0.01
  39   8     0.00   0.00  -0.00    -0.00   0.00   0.00    -0.00   0.00   0.00
  40   7     0.00  -0.00   0.00    -0.00   0.00  -0.00     0.00   0.00  -0.02
  41   1    -0.00   0.00  -0.00     0.00  -0.00   0.00     0.01  -0.00   0.00
  42   1     0.00   0.00  -0.00    -0.00  -0.00   0.00    -0.01  -0.01   0.07
  43   7    -0.00   0.00   0.00     0.00  -0.00  -0.00     0.19  -0.01  -0.23
  44   1     0.00   0.00  -0.00    -0.00  -0.00   0.01    -0.08  -0.08   0.65
  45   1     0.00  -0.00  -0.00    -0.01   0.00   0.00    -0.63   0.10   0.24
  46   6    -0.00   0.00   0.00    -0.00  -0.00  -0.00     0.00  -0.00  -0.00
  47   8     0.00  -0.00  -0.00     0.00   0.00   0.00    -0.00   0.00   0.00
  48   7     0.00  -0.00  -0.00     0.00  -0.00  -0.00     0.00  -0.00  -0.00
  49   1    -0.00   0.00   0.00    -0.00   0.00   0.00    -0.00   0.00   0.00
  50   1     0.00   0.00   0.00     0.00   0.00   0.00     0.00   0.00   0.00
  51   7     0.00  -0.00   0.00    -0.00   0.00  -0.00    -0.00  -0.00  -0.00
  52   1    -0.00   0.00   0.00    -0.00  -0.00  -0.00     0.00   0.00   0.00
  53   1    -0.00  -0.00  -0.00     0.00  -0.00   0.00     0.01  -0.00   0.00
