      -----------------------------------------------------------      
     |                   =====================                   |     
     |                           x T B                           |     
     |                   =====================                   |     
     |                         S. Grimme                         |     
     |          Mulliken Center for Theoretical Chemistry        |     
     |                    University of Bonn                     |     
      -----------------------------------------------------------      

   * xtb version 6.6.1 (unknown-commit) compiled by '@Linux' on 12/27/2023

   xtb is free software: you can redistribute it and/or modify it under
   the terms of the GNU Lesser General Public License as published by
   the Free Software Foundation, either version 3 of the License, or
   (at your option) any later version.
   
   xtb is distributed in the hope that it will be useful,
   but WITHOUT ANY WARRANTY; without even the implied warranty of
   MERCHANTABILITY or FITNESS FOR A PARTICULAR PURPOSE.  See the
   GNU Lesser General Public License for more details.
   
   Cite this work as:
   * C. Bannwarth, E. Caldeweyher, S. Ehlert, A. Hansen, P. Pracht,
     J. Seibert, S. Spicher, S. Grimme, WIREs Comput. Mol. Sci., 2020, 11,
     e01493. DOI: 10.1002/wcms.1493
   
   for GFN2-xTB:
   * C. Bannwarth, S. Ehlert and S. Grimme., J. Chem. Theory Comput., 2019,
     15, 1652-1671. DOI: 10.1021/acs.jctc.8b01176
   for GFN1-xTB:
   * S. Grimme, C. Bannwarth, P. Shushkov, J. Chem. Theory Comput., 2017,
     13, 1989-2009. DOI: 10.1021/acs.jctc.7b00118
   for GFN0-xTB:
   * P. Pracht, E. Caldeweyher, S. Ehlert, S. Grimme, ChemRxiv, 2019, preprint.
     DOI: 10.26434/chemrxiv.8326202.v1
   for GFN-FF:
   * S. Spicher and S. Grimme, Angew. Chem. Int. Ed., 2020, 59, 15665-15673.
     DOI: 10.1002/anie.202004239
   
   for ALPB and GBSA implicit solvation:
   * S. Ehlert, M. Stahn, S. Spicher, S. Grimme, J. Chem. Theory Comput.,
     2021, 17, 4250-4261. DOI: 10.1021/acs.jctc.1c00471
   
   for DFT-D4:
   * E. Caldeweyher, C. Bannwarth and S. Grimme, J. Chem. Phys., 2017,
     147, 034112. DOI: 10.1063/1.4993215
   * E. Caldeweyher, S. Ehlert, A. Hansen, H. Neugebauer, S. Spicher,
     C. Bannwarth and S. Grimme, J. Chem. Phys., 2019, 150, 154122.
     DOI: 10.1063/1.5090222
   * E. Caldeweyher, J.-M. Mewes, S. Ehlert and S. Grimme, Phys. Chem. Chem. Phys.
     2020, 22, 8499-8512. DOI: 10.1039/D0CP00502A
   
   for sTDA-xTB:
   * S. Grimme and C. Bannwarth, J. Chem. Phys., 2016, 145, 054103.
     DOI: 10.1063/1.4959605
   
   in the mass-spec context:
   * V. Asgeirsson, C. Bauer and S. Grimme, Chem. Sci., 2017, 8, 4879.
     DOI: 10.1039/c7sc00601b
   * J. Koopman and S. Grimme, ACS Omega 2019, 4, 12, 15120-15133.
     DOI: 10.1021/acsomega.9b02011
   
   for metadynamics refer to:
   * S. Grimme, J. Chem. Theory Comput., 2019, 155, 2847-2862
     DOI: 10.1021/acs.jctc.9b00143
   
   for SPH calculations refer to:
   * S. Spicher and S. Grimme, J. Chem. Theory Comput., 2021, 17, 1701-1714
     DOI: 10.1021/acs.jctc.0c01306
   
   with help from (in alphabetical order)
   P. Atkinson, C. Bannwarth, F. Bohle, G. Brandenburg, E. Caldeweyher
   M. Checinski, S. Dohm, S. Ehlert, S. Ehrlich, I. Gerasimov, C. Hölzer
   A. Katbashev, J. Koopman, C. Lavigne, S. Lehtola, F. März, M. Müller,
   F. Musil, H. Neugebauer, J. Pisarek, C. Plett, P. Pracht, F. Pultar,
   J. Seibert, P. Shushkov, S. Spicher, M. Stahn, M. Steiner, T. Strunk,
   J. Stückrath, T. Rose, and J. Unsleber
   
 * started run on 2024/01/10 at 15:38:53.236     

           -------------------------------------------------
          |                Calculation Setup                |
           -------------------------------------------------

          program call               : xtb struc.xyz --gfn2 --hess
          hostname                   : swaroop
          coordinate file            : struc.xyz
          omp threads                :                     1

   ID    Z sym.   atoms
    1    8 O      1, 23, 31, 39, 47
    2    6 C      2, 5, 9, 13, 17, 22, 30, 38, 46
    3    1 H      3, 4, 6, 7, 10-12, 14-16, 18-21, 25, 26, 28, 29, 33, 34,
                  36, 37, 41, 42, 44, 45, 49, 50, 52, 53
    4    7 N      8, 24, 27, 32, 35, 40, 43, 48, 51

molecular fragmentation (1/2 indicates fragments):
11111111111111111111122222222222222222222222222222222
# atoms in fragment 1/2:    21    32
 fragment masses (1/2) :      104.17      240.22
CMA distance (Bohr)    :   3.833
constraining FC (au)   :  0.0500

           -------------------------------------------------
          |                 G F N 2 - x T B                 |
           -------------------------------------------------

        Reference                      10.1021/acs.jctc.8b01176
      * Hamiltonian:
        H0-scaling (s, p, d)           1.850000    2.230000    2.230000
        zeta-weighting                 0.500000
      * Dispersion:
        s8                             2.700000
        a1                             0.520000
        a2                             5.000000
        s9                             5.000000
      * Repulsion:
        kExp                           1.500000    1.000000
        rExp                           1.000000
      * Coulomb:
        alpha                          2.000000
        third order                    shell-resolved
        anisotropic                    true
        a3                             3.000000
        a5                             4.000000
        cn-shift                       1.200000
        cn-exp                         4.000000
        max-rad                        5.000000


          ...................................................
          :                      SETUP                      :
          :.................................................:
          :  # basis functions                 122          :
          :  # atomic orbitals                 122          :
          :  # shells                           76          :
          :  # electrons                       140          :
          :  max. iterations                   250          :
          :  Hamiltonian                  GFN2-xTB          :
          :  restarted?                      false          :
          :  GBSA solvation                  false          :
          :  PC potential                    false          :
          :  electronic temp.          300.0000000     K    :
          :  accuracy                    1.0000000          :
          :  -> integral cutoff          0.2500000E+02      :
          :  -> integral neglect         0.1000000E-07      :
          :  -> SCF convergence          0.1000000E-05 Eh   :
          :  -> wf. convergence          0.1000000E-03 e    :
          :  Broyden damping             0.4000000          :
          ...................................................

 iter      E             dE          RMSdq      gap      omega  full diag
   1    -81.5525081 -0.815525E+02  0.441E+00    5.12       0.0  T
   2    -81.8414066 -0.288899E+00  0.238E+00    5.93       1.0  T
   3    -81.8469263 -0.551966E-02  0.116E+00    5.62       1.0  T
   4    -81.8482687 -0.134240E-02  0.237E-01    5.66       1.0  T
   5    -81.8491308 -0.862093E-03  0.925E-02    5.58       1.0  T
   6    -81.8491555 -0.247531E-04  0.270E-02    5.61       1.0  T
   7    -81.8491602 -0.469855E-05  0.763E-03    5.61       1.8  T
   8    -81.8491605 -0.258333E-06  0.269E-03    5.60       5.1  T
   9    -81.8491605 -0.176306E-07  0.935E-04    5.60      14.7  T
  10    -81.8491605 -0.674120E-08  0.178E-04    5.60      77.2  T

   *** convergence criteria satisfied after 10 iterations ***

         #    Occupation            Energy/Eh            Energy/eV
      -------------------------------------------------------------
         1        2.0000           -0.7948933             -21.6301
       ...           ...                  ...                  ...
        64        2.0000           -0.5008144             -13.6279
        65        2.0000           -0.4997904             -13.6000
        66        2.0000           -0.4969315             -13.5222
        67        2.0000           -0.4957508             -13.4901
        68        2.0000           -0.4917275             -13.3806
        69        2.0000           -0.4908637             -13.3571
        70        2.0000           -0.4846431             -13.1878 (HOMO)
        71                         -0.2787409              -7.5849 (LUMO)
        72                         -0.2707014              -7.3662
        73                         -0.2666922              -7.2571
        74                         -0.2605565              -7.0901
        75                         -0.1413248              -3.8456
       ...                                ...                  ...
       122                          0.5567036              15.1487
      -------------------------------------------------------------
                  HL-Gap            0.2059021 Eh            5.6029 eV
             Fermi-level           -0.3816920 Eh          -10.3864 eV

 SCC (total)                   0 d,  0 h,  0 min,  0.096 sec
 SCC setup                      ...        0 min,  0.000 sec (  0.297%)
 Dispersion                     ...        0 min,  0.001 sec (  0.609%)
 classical contributions        ...        0 min,  0.000 sec (  0.188%)
 integral evaluation            ...        0 min,  0.008 sec (  8.080%)
 iterations                     ...        0 min,  0.059 sec ( 61.875%)
 molecular gradient             ...        0 min,  0.028 sec ( 28.650%)
 printout                       ...        0 min,  0.000 sec (  0.288%)

         :::::::::::::::::::::::::::::::::::::::::::::::::::::
         ::                     SUMMARY                     ::
         :::::::::::::::::::::::::::::::::::::::::::::::::::::
         :: total energy             -80.933038847239 Eh    ::
         :: gradient norm              0.000198852408 Eh/a0 ::
         :: HOMO-LUMO gap              5.602882274924 eV    ::
         ::.................................................::
         :: SCC energy               -81.849160518750 Eh    ::
         :: -> isotropic ES            0.290182035426 Eh    ::
         :: -> anisotropic ES         -0.026568473648 Eh    ::
         :: -> anisotropic XC          0.020631324987 Eh    ::
         :: -> dispersion             -0.043714478388 Eh    ::
         :: repulsion energy           0.914774386940 Eh    ::
         :: add. restraining           0.000000000000 Eh    ::
         :: total charge               1.000000000000 e     ::
         :::::::::::::::::::::::::::::::::::::::::::::::::::::

           ------------------------------------------------- 
          |                Numerical Hessian                |
           ------------------------------------------------- 
step length          :   0.00500
SCC accuracy         :   0.30000
Hessian scale factor :   1.00000
frozen atoms in %    :   0.00000    0
RMS gradient         :   0.00020
estimated CPU  time      0.24 min
estimated wall time      0.24 min

writing file <hessian>.

 projected vibrational frequencies (cm⁻¹)
eigval :       -0.00    -0.00    -0.00     0.00     0.00     0.00
eigval :        3.04    11.69    14.15    21.76    30.36    33.15
eigval :       38.46    42.35    48.91    54.44    57.80    66.31
eigval :       71.78    79.41    83.55    87.37    94.43   100.50
eigval :      102.87   125.00   132.29   141.17   157.95   179.88
eigval :      182.27   191.67   195.85   201.20   275.57   287.09
eigval :      309.33   312.08   327.80   332.72   335.17   366.85
eigval :      384.77   394.26   419.53   431.47   443.93   455.28
eigval :      461.58   463.28   469.20   471.57   479.96   481.41
eigval :      485.08   489.57   496.40   502.35   531.18   542.53
eigval :      548.07   556.30   564.10   629.92   668.67   674.24
eigval :      676.86   678.31   727.28   737.01   768.76   784.87
eigval :      907.59   927.01   946.79   961.24   971.10   972.13
eigval :      995.14   999.99  1007.40  1016.66  1018.64  1025.84
eigval :     1026.86  1037.47  1040.12  1081.50  1082.56  1090.49
eigval :     1093.61  1097.00  1106.29  1128.30  1161.05  1221.40
eigval :     1248.89  1285.53  1316.80  1323.91  1350.23  1352.06
eigval :     1355.77  1356.96  1361.18  1384.28  1400.24  1407.12
eigval :     1427.18  1437.04  1441.38  1443.82  1451.57  1454.75
eigval :     1456.22  1456.67  1462.48  1467.68  1470.90  1481.96
eigval :     1483.07  1496.25  1497.77  1508.31  1517.51  1660.93
eigval :     1693.93  1717.14  1728.26  2886.00  2981.87  2987.10
eigval :     3027.42  3036.79  3040.51  3042.54  3045.37  3048.76
eigval :     3052.79  3053.92  3061.92  3065.19  3144.64  3234.80
eigval :     3268.34  3402.75  3493.04  3493.31  3499.79  3503.70
eigval :     3503.85  3519.91  3520.26  3538.39  3557.43  3558.18
eigval :     3564.03  3569.54  3570.64
           -------------------------------------------------
          |                Property Printout                |
           -------------------------------------------------

    * Orbital Energies and Occupations

         #    Occupation            Energy/Eh            Energy/eV
      -------------------------------------------------------------
         1        2.0000           -0.7948931             -21.6301
       ...           ...                  ...                  ...
        58        2.0000           -0.5117214             -13.9246
        59        2.0000           -0.5111608             -13.9094
        60        2.0000           -0.5077639             -13.8170
        61        2.0000           -0.5042769             -13.7221
        62        2.0000           -0.5023124             -13.6686
        63        2.0000           -0.5011927             -13.6381
        64        2.0000           -0.5008146             -13.6279
        65        2.0000           -0.4997903             -13.6000
        66        2.0000           -0.4969335             -13.5222
        67        2.0000           -0.4957529             -13.4901
        68        2.0000           -0.4917275             -13.3806
        69        2.0000           -0.4908649             -13.3571
        70        2.0000           -0.4846450             -13.1879 (HOMO)
        71                         -0.2787415              -7.5849 (LUMO)
        72                         -0.2706998              -7.3661
        73                         -0.2666946              -7.2571
        74                         -0.2605601              -7.0902
        75                         -0.1413241              -3.8456
        76                         -0.1083236              -2.9476
        77                         -0.0963555              -2.6220
        78                         -0.0844426              -2.2978
        79                         -0.0736757              -2.0048
        80                         -0.0714313              -1.9437
        81                         -0.0651450              -1.7727
       ...                                ...                  ...
       122                          0.5567009              15.1486
      -------------------------------------------------------------
                  HL-Gap            0.2059034 Eh            5.6029 eV
             Fermi-level           -0.3816933 Eh          -10.3864 eV

     #   Z          covCN         q      C6AA      α(0)
     1   8 O        1.655    -0.453    21.904     6.318
     2   6 C        3.673     0.073    19.593     6.343
     3   1 H        0.924     0.057     2.229     2.335
     4   1 H        0.923     0.041     2.438     2.442
     5   6 C        3.766    -0.075    21.966     6.680
     6   1 H        0.924     0.103     1.760     2.074
     7   1 H        0.924     0.116     1.646     2.007
     8   7 N        3.624     0.159    18.564     6.399
     9   6 C        3.723    -0.108    22.683     6.801
    10   1 H        0.925     0.083     1.952     2.185
    11   1 H        0.925     0.114     1.663     2.016
    12   1 H        0.925     0.108     1.716     2.048
    13   6 C        3.740    -0.118    22.833     6.818
    14   1 H        0.925     0.081     1.967     2.193
    15   1 H        0.925     0.116     1.649     2.008
    16   1 H        0.925     0.116     1.646     2.006
    17   6 C        3.729    -0.114    22.789     6.815
    18   1 H        0.925     0.114     1.664     2.017
    19   1 H        0.925     0.084     1.934     2.175
    20   1 H        0.925     0.116     1.642     2.004
    21   1 H        0.804     0.326     0.649     1.265
    22   6 C        2.675     0.343    21.167     7.529
    23   8 O        0.860    -0.525    24.337     6.614
    24   7 N        2.644    -0.297    27.647     7.809
    25   1 H        0.860     0.196     1.124     1.661
    26   1 H        0.860     0.180     1.212     1.725
    27   7 N        2.644    -0.318    28.190     7.885
    28   1 H        0.860     0.173     1.252     1.753
    29   1 H        0.860     0.234     0.949     1.526
    30   6 C        2.675     0.346    21.130     7.522
    31   8 O        0.860    -0.520    24.223     6.599
    32   7 N        2.646    -0.289    27.463     7.783
    33   1 H        0.860     0.199     1.109     1.650
    34   1 H        0.861     0.186     1.180     1.702
    35   7 N        2.646    -0.290    27.477     7.785
    36   1 H        0.861     0.186     1.182     1.703
    37   1 H        0.860     0.199     1.109     1.650
    38   6 C        2.675     0.341    21.213     7.537
    39   8 O        0.860    -0.526    24.357     6.617
    40   7 N        2.645    -0.303    27.799     7.831
    41   1 H        0.860     0.243     0.910     1.494
    42   1 H        0.861     0.183     1.198     1.715
    43   7 N        2.645    -0.289    27.446     7.781
    44   1 H        0.861     0.187     1.176     1.699
    45   1 H        0.861     0.203     1.093     1.638
    46   6 C        2.675     0.342    21.193     7.533
    47   8 O        0.861    -0.530    24.447     6.629
    48   7 N        2.644    -0.289    27.465     7.783
    49   1 H        0.860     0.205     1.079     1.627
    50   1 H        0.861     0.186     1.182     1.703
    51   7 N        2.642    -0.318    28.190     7.885
    52   1 H        0.860     0.177     1.231     1.738
    53   1 H        0.859     0.245     0.904     1.489

 Mol. C6AA /au·bohr⁶  :      21789.299125
 Mol. C8AA /au·bohr⁸  :     454163.893434
 Mol. α(0) /au        :        220.545172


Wiberg/Mayer (AO) data.
largest (>0.10) Wiberg bond orders for each atom

 ---------------------------------------------------------------------------
     #   Z sym  total        # sym  WBO       # sym  WBO       # sym  WBO
 ---------------------------------------------------------------------------
     1   8 O    1.960 --     2 C    1.019    21 H    0.855
     2   6 C    3.966 --     1 O    1.019     5 C    0.996     3 H    0.965
                             4 H    0.961
     3   1 H    0.996 --     2 C    0.965
     4   1 H    0.998 --     2 C    0.961
     5   6 C    3.928 --     2 C    0.996     6 H    0.953     7 H    0.949
                             8 N    0.935
     6   1 H    0.989 --     5 C    0.953
     7   1 H    0.987 --     5 C    0.949
     8   7 N    3.823 --     9 C    0.958    17 C    0.958    13 C    0.955
                             5 C    0.935
     9   6 C    3.925 --    10 H    0.978    12 H    0.970    11 H    0.964
                             8 N    0.958
    10   1 H    0.993 --     9 C    0.978
    11   1 H    0.987 --     9 C    0.964
    12   1 H    0.988 --     9 C    0.970
    13   6 C    3.921 --    14 H    0.978    16 H    0.965    15 H    0.963
                             8 N    0.955
    14   1 H    0.993 --    13 C    0.978
    15   1 H    0.987 --    13 C    0.963
    16   1 H    0.986 --    13 C    0.965
    17   6 C    3.923 --    19 H    0.975    18 H    0.969    20 H    0.964
                             8 N    0.958
    18   1 H    0.987 --    17 C    0.969
    19   1 H    0.993 --    17 C    0.975
    20   1 H    0.986 --    17 C    0.964
    21   1 H    0.894 --     1 O    0.855
    22   6 C    3.959 --    23 O    1.537    27 N    1.221    24 N    1.193
    23   8 O    1.898 --    22 C    1.537    27 N    0.146    24 N    0.138
    24   7 N    3.305 --    22 C    1.193    26 H    0.948    25 H    0.944
                            23 O    0.138
    25   1 H    0.961 --    24 N    0.944
    26   1 H    0.967 --    24 N    0.948
    27   7 N    3.311 --    22 C    1.221    28 H    0.950    29 H    0.883
                            23 O    0.146
    28   1 H    0.970 --    27 N    0.950
    29   1 H    0.945 --    27 N    0.883
    30   6 C    3.959 --    31 O    1.540    32 N    1.206    35 N    1.206
    31   8 O    1.898 --    30 C    1.540    35 N    0.144    32 N    0.144
    32   7 N    3.322 --    30 C    1.206    34 H    0.947    33 H    0.943
                            31 O    0.144
    33   1 H    0.960 --    32 N    0.943
    34   1 H    0.965 --    32 N    0.947
    35   7 N    3.321 --    30 C    1.206    36 H    0.947    37 H    0.943
                            31 O    0.144
    36   1 H    0.965 --    35 N    0.947
    37   1 H    0.960 --    35 N    0.943
    38   6 C    3.960 --    39 O    1.472    40 N    1.264    43 N    1.216
    39   8 O    1.925 --    38 C    1.472    40 N    0.141    43 N    0.129
    40   7 N    3.351 --    38 C    1.264    42 H    0.947    41 H    0.870
                            39 O    0.141
    41   1 H    0.941 --    40 N    0.870
    42   1 H    0.966 --    40 N    0.947
    43   7 N    3.329 --    38 C    1.216    44 H    0.946    45 H    0.940
                            39 O    0.129
    44   1 H    0.965 --    43 N    0.946
    45   1 H    0.959 --    43 N    0.940
    46   6 C    3.959 --    47 O    1.487    51 N    1.241    48 N    1.216
    47   8 O    1.909 --    46 C    1.487    51 N    0.140    48 N    0.133
    48   7 N    3.329 --    46 C    1.216    50 H    0.947    49 H    0.941
                            47 O    0.133
    49   1 H    0.958 --    48 N    0.941
    50   1 H    0.965 --    48 N    0.947
    51   7 N    3.321 --    46 C    1.241    52 H    0.948    53 H    0.865
                            47 O    0.140
    52   1 H    0.969 --    51 N    0.948
    53   1 H    0.940 --    51 N    0.865
 ---------------------------------------------------------------------------

Topologies differ in total number of bonds
Writing topology from bond orders to xtbtopo.mol

molecular dipole:
                 x           y           z       tot (Debye)
 q only:        0.523       0.367      -1.548
   full:        0.791      -0.254      -1.736       4.891
molecular quadrupole (traceless):
                xx          xy          yy          xz          yz          zz
 q only:       -8.087      -3.225       9.842      15.218     -43.992      -1.755
  q+dip:       -8.706      -2.037      11.852      19.227     -53.053      -3.146
   full:       -8.948      -1.803      12.080      19.198     -52.632      -3.131

           -------------------------------------------------
          |               Frequency Printout                |
           -------------------------------------------------
 projected vibrational frequencies (cm⁻¹)
eigval :       -0.00    -0.00    -0.00     0.00     0.00     0.00
eigval :        3.04    11.69    14.15    21.76    30.36    33.15
eigval :       38.46    42.35    48.91    54.44    57.80    66.31
eigval :       71.78    79.41    83.55    87.37    94.43   100.50
eigval :      102.87   125.00   132.29   141.17   157.95   179.88
eigval :      182.27   191.67   195.85   201.20   275.57   287.09
eigval :      309.33   312.08   327.80   332.72   335.17   366.85
eigval :      384.77   394.26   419.53   431.47   443.93   455.28
eigval :      461.58   463.28   469.20   471.57   479.96   481.41
eigval :      485.08   489.57   496.40   502.35   531.18   542.53
eigval :      548.07   556.30   564.10   629.92   668.67   674.24
eigval :      676.86   678.31   727.28   737.01   768.76   784.87
eigval :      907.59   927.01   946.79   961.24   971.10   972.13
eigval :      995.14   999.99  1007.40  1016.66  1018.64  1025.84
eigval :     1026.86  1037.47  1040.12  1081.50  1082.56  1090.49
eigval :     1093.61  1097.00  1106.29  1128.30  1161.05  1221.40
eigval :     1248.89  1285.53  1316.80  1323.91  1350.23  1352.06
eigval :     1355.77  1356.96  1361.18  1384.28  1400.24  1407.12
eigval :     1427.18  1437.04  1441.38  1443.82  1451.57  1454.75
eigval :     1456.22  1456.67  1462.48  1467.68  1470.90  1481.96
eigval :     1483.07  1496.25  1497.77  1508.31  1517.51  1660.93
eigval :     1693.93  1717.14  1728.26  2886.00  2981.87  2987.10
eigval :     3027.42  3036.79  3040.51  3042.54  3045.37  3048.76
eigval :     3052.79  3053.92  3061.92  3065.19  3144.64  3234.80
eigval :     3268.34  3402.75  3493.04  3493.31  3499.79  3503.70
eigval :     3503.85  3519.91  3520.26  3538.39  3557.43  3558.18
eigval :     3564.03  3569.54  3570.64
 reduced masses (amu)
   1: 12.52   2: 12.58   3: 12.59   4: 12.66   5: 12.67   6: 12.81   7: 11.17   8: 12.36
   9: 12.23  10: 12.05  11: 12.12  12: 11.91  13: 12.50  14: 12.52  15: 12.25  16: 11.21
  17: 12.74  18: 13.02  19: 12.72  20: 12.24  21: 13.08  22: 13.11  23: 12.20  24: 12.41
  25: 12.96  26: 11.58  27: 12.55  28: 12.42  29: 12.52  30:  6.76  31:  9.70  32:  4.15
  33: 11.31  34: 12.33  35:  4.18  36:  7.06  37:  2.66  38:  7.53  39:  3.07  40:  3.18
  41:  3.15  42:  1.82  43:  6.99  44:  3.13  45:  3.16  46:  8.63  47:  1.63  48:  8.44
  49:  8.17  50:  8.36  51:  5.93  52:  1.89  53:  3.05  54:  4.85  55:  7.80  56:  6.35
  57:  5.06  58:  3.26  59:  9.60  60: 10.88  61:  8.68  62: 10.84  63: 11.95  64:  3.33
  65: 10.88  66: 11.99  67: 11.79  68: 10.61  69:  2.55  70:  2.16  71:  9.26  72:  2.38
  73:  7.39  74:  7.76  75:  5.24  76:  4.92  77:  5.16  78:  4.93  79:  8.79  80:  7.61
  81:  9.48  82:  8.11  83:  9.04  84:  5.85  85:  9.22  86:  4.99  87:  5.51  88:  9.67
  89:  9.31  90:  7.27  91:  8.20  92:  7.68  93:  3.86  94:  7.46  95:  2.89  96:  5.02
  97:  7.67  98:  8.20  99:  5.05 100:  4.17 101:  5.00 102:  5.55 103:  5.65 104:  4.47
 105:  4.72 106:  4.56 107:  2.54 108:  2.52 109:  2.25 110:  2.21 111:  1.73 112:  3.29
 113:  1.79 114:  3.12 115:  1.84 116:  3.14 117:  2.74 118:  1.84 119:  1.67 120:  1.69
 121:  1.72 122:  7.92 123:  7.82 124:  8.76 125:  9.74 126: 12.33 127: 12.68 128: 12.81
 129: 12.84 130:  1.76 131:  1.68 132:  1.77 133:  1.73 134:  1.66 135:  1.51 136:  1.59
 137:  1.85 138:  1.79 139:  1.93 140:  1.78 141:  1.73 142:  1.76 143:  1.82 144:  1.78
 145:  1.76 146:  1.88 147:  1.45 148:  1.45 149:  1.44 150:  1.45 151:  1.46 152:  1.90
 153:  1.90 154:  1.91 155:  2.17 156:  2.18 157:  2.19 158:  2.18 159:  2.19
 IR intensities (km·mol⁻¹)
   1:  0.83   2:  1.29   3:  2.21   4:  2.08   5:  1.32   6:  1.64   7:  0.01   8:  0.55
   9:  1.53  10:  1.50  11:  1.71  12:  2.76  13:  1.19  14:  4.02  15:  7.43  16:  1.54
  17:  0.35  18:  0.80  19:  1.77  20:  4.21  21: 11.81  22:  9.41  23:  7.72  24:  2.00
  25:  3.28  26: 20.89  27: 21.61  28:  6.82  29:  5.46  30: 76.29  31:104.26  32: 10.29
  33:  8.82  34: 69.35  35:  1.28  36:  2.49  37:148.05  38:  3.66  39: 65.60  40:180.19
  41:406.70  42:  1.49  43: 11.98  44:272.28  45:194.67  46:  0.64  47:  5.70  48:  0.90
  49: 20.46  50: 29.40  51: 15.63  52:  6.23  53:241.41  54:  4.33  55: 12.09  56: 33.84
  57: 16.06  58: 38.07  59: 34.29  60: 17.81  61: 18.01  62:  2.42  63: 43.54  64:167.08
  65: 16.14  66: 33.81  67: 29.06  68: 89.24  69: 52.71  70:196.23  71:  0.99  72:489.17
  73: 10.77  74:  7.62  75:  1.48  76:  8.56  77:  2.25  78:  0.32  79:  0.14  80: 25.34
  81: 21.24  82: 31.96  83:  5.54  84: 23.58  85:  4.90  86:  7.52  87: 10.55  88:  1.92
  89:  0.23  90: 14.71  91:  4.65  92:  4.42  93: 23.66  94: 28.49  95:  8.91  96: 10.61
  97:  3.77  98: 16.58  99:  0.07 100: 18.50 101: 40.50 102: 29.95 103:294.94 104: 49.49
 105:130.92 106: 18.29 107: 24.95 108: 14.54 109:  7.48 110:  1.18 111:  0.12 112: 12.67
 113:  3.35 114:  9.30 115:  6.35 116:  4.93 117: 10.97 118:  5.00 119: 15.09 120:  9.04
 121: 17.04 122:128.46 123:958.35 124:374.90 125:477.27 126:275.61 127:****** 128:******
 129:594.58 130: 38.52 131: 24.98 132: 33.76 133:  0.47 134:  6.63 135:  3.74 136:  9.45
 137:  8.46 138:  5.54 139: 30.96 140: 19.74 141:  7.99 142:  2.17 143:513.96 144:******
 145:544.57 146:257.20 147: 23.53 148: 16.75 149: 38.27 150: 24.29 151:  7.78 152:  9.48
 153: 13.88 154: 20.58 155:  9.31 156: 17.38 157: 13.02 158: 11.58 159: 20.62
 Raman intensities (amu)
Molecule has no symmetry elements
It seems to be the C1 point group
   1:  0.00   2:  0.00   3:  0.00   4:  0.00   5:  0.00   6:  0.00   7:  0.00   8:  0.00
   9:  0.00  10:  0.00  11:  0.00  12:  0.00  13:  0.00  14:  0.00  15:  0.00  16:  0.00
  17:  0.00  18:  0.00  19:  0.00  20:  0.00  21:  0.00  22:  0.00  23:  0.00  24:  0.00
  25:  0.00  26:  0.00  27:  0.00  28:  0.00  29:  0.00  30:  0.00  31:  0.00  32:  0.00
  33:  0.00  34:  0.00  35:  0.00  36:  0.00  37:  0.00  38:  0.00  39:  0.00  40:  0.00
  41:  0.00  42:  0.00  43:  0.00  44:  0.00  45:  0.00  46:  0.00  47:  0.00  48:  0.00
  49:  0.00  50:  0.00  51:  0.00  52:  0.00  53:  0.00  54:  0.00  55:  0.00  56:  0.00
  57:  0.00  58:  0.00  59:  0.00  60:  0.00  61:  0.00  62:  0.00  63:  0.00  64:  0.00
  65:  0.00  66:  0.00  67:  0.00  68:  0.00  69:  0.00  70:  0.00  71:  0.00  72:  0.00
  73:  0.00  74:  0.00  75:  0.00  76:  0.00  77:  0.00  78:  0.00  79:  0.00  80:  0.00
  81:  0.00  82:  0.00  83:  0.00  84:  0.00  85:  0.00  86:  0.00  87:  0.00  88:  0.00
  89:  0.00  90:  0.00  91:  0.00  92:  0.00  93:  0.00  94:  0.00  95:  0.00  96:  0.00
  97:  0.00  98:  0.00  99:  0.00 100:  0.00 101:  0.00 102:  0.00 103:  0.00 104:  0.00
 105:  0.00 106:  0.00 107:  0.00 108:  0.00 109:  0.00 110:  0.00 111:  0.00 112:  0.00
 113:  0.00 114:  0.00 115:  0.00 116:  0.00 117:  0.00 118:  0.00 119:  0.00 120:  0.00
 121:  0.00 122:  0.00 123:  0.00 124:  0.00 125:  0.00 126:  0.00 127:  0.00 128:  0.00
 129:  0.00 130:  0.00 131:  0.00 132:  0.00 133:  0.00 134:  0.00 135:  0.00 136:  0.00
 137:  0.00 138:  0.00 139:  0.00 140:  0.00 141:  0.00 142:  0.00 143:  0.00 144:  0.00
 145:  0.00 146:  0.00 147:  0.00 148:  0.00 149:  0.00 150:  0.00 151:  0.00 152:  0.00
 153:  0.00 154:  0.00 155:  0.00 156:  0.00 157:  0.00 158:  0.00 159:  0.00
 output can be read by thermo (or use thermo option).
 writing <g98.out> molden fake output.
 recommended (thermochemical) frequency scaling factor: 1.0
           -------------------------------------------------
          |             Thermodynamic Functions             |
           -------------------------------------------------

c1  symmetry found (for desy threshold:  0.10E+00) used in thermo

          ...................................................
          :                      SETUP                      :
          :.................................................:
          :  # frequencies                         153      :
          :  # imaginary freq.                       0      :
          :  linear?                             false      :
          :  only rotor calc.                    false      :
          :  symmetry                               c1      :
          :  rotational number                       1      :
          :  scaling factor                  1.0000000      :
          :  rotor cutoff                   50.0000000 cm⁻¹ :
          :  imag. cutoff                  -20.0000000 cm⁻¹ :
          :.................................................:

    mode    ω/cm⁻¹     T·S(HO)/kcal·mol⁻¹    T·S(FR)/kcal·mol⁻¹   T·S(vib)
   ------------------------------------------------------------------------
       1      3.04    -3.09364 (  0.00%)    -1.88547 (100.00%)    -1.88549
       2     11.69    -2.29577 (  0.30%)    -1.48685 ( 99.70%)    -1.48926
       3     14.15    -2.18283 (  0.64%)    -1.43037 ( 99.36%)    -1.43517
       4     21.76    -1.92808 (  3.46%)    -1.30296 ( 96.54%)    -1.32460
       5     30.36    -1.73097 ( 11.97%)    -1.20429 ( 88.03%)    -1.26732
       6     33.15    -1.67907 ( 16.19%)    -1.17829 ( 83.81%)    -1.25935
       7     38.46    -1.59126 ( 25.92%)    -1.13429 ( 74.08%)    -1.25274
       8     42.35    -1.53430 ( 33.98%)    -1.10572 ( 66.02%)    -1.25134
       9     48.91    -1.44934 ( 47.79%)    -1.06307 ( 52.21%)    -1.24767
      10     54.44    -1.38612 ( 58.43%)    -1.03130 ( 41.57%)    -1.23863
      11     57.80    -1.35091 ( 64.10%)    -1.01359 ( 35.90%)    -1.22981
      12     66.31    -1.27008 ( 75.58%)    -0.97287 ( 24.42%)    -1.19749
      13     71.78    -1.22358 ( 80.94%)    -0.94941 ( 19.06%)    -1.17134
      14     79.41    -1.16441 ( 86.42%)    -0.91950 ( 13.58%)    -1.13114
      15     83.55    -1.13466 ( 88.63%)    -0.90443 ( 11.37%)    -1.10849
      16     87.37    -1.10852 ( 90.31%)    -0.89118 (  9.69%)    -1.08747
      17     94.43    -1.06327 ( 92.71%)    -0.86819 (  7.29%)    -1.04905
      18    100.50    -1.02701 ( 94.23%)    -0.84972 (  5.77%)    -1.01678
      19    102.87    -1.01348 ( 94.71%)    -0.84282 (  5.29%)    -1.00445
      20    125.00    -0.90087 ( 97.50%)    -0.78509 (  2.50%)    -0.89798
      21    132.29    -0.86836 ( 98.00%)    -0.76831 (  2.00%)    -0.86636
      22    141.17    -0.83121 ( 98.45%)    -0.74905 (  1.55%)    -0.82994
      23    157.95    -0.76748 ( 99.01%)    -0.71578 (  0.99%)    -0.76697
      24    179.88    -0.69458 ( 99.41%)    -0.67727 (  0.59%)    -0.69447
      25    182.27    -0.68724 ( 99.44%)    -0.67336 (  0.56%)    -0.68716
      26    191.67    -0.65939 ( 99.54%)    -0.65847 (  0.46%)    -0.65939
      27    195.85    -0.64751 ( 99.58%)    -0.65208 (  0.42%)    -0.64753
      28    201.20    -0.63269 ( 99.62%)    -0.64409 (  0.38%)    -0.63273
      29    275.57    -0.46542 ( 99.89%)    -0.55092 (  0.11%)    -0.46551
      30    287.09    -0.44455 ( 99.91%)    -0.53878 (  0.09%)    -0.44464
   ------------------------------------------------------------------------

   temp. (K)  partition function   enthalpy   heat capacity  entropy
                                   cal/mol     cal/K/mol   cal/K/mol   J/K/mol
 298.15  VIB  0.415E+19            19787.074    104.157    132.824
         ROT  0.149E+08              888.752      2.981     35.810
         INT  0.620E+26            20675.826    107.138    168.635
         TR   0.618E+28             1481.254      4.968     43.384
         TOT                       22157.0800   112.1058   212.0190   887.0877

       T/K    H(0)-H(T)+PV         H(T)/Eh          T*S/Eh         G(T)/Eh
   ------------------------------------------------------------------------
    298.15    0.353096E-01    0.474086E+00    0.100737E+00    0.373349E+00
   ------------------------------------------------------------------------

         :::::::::::::::::::::::::::::::::::::::::::::::::::::
         ::                  THERMODYNAMIC                  ::
         :::::::::::::::::::::::::::::::::::::::::::::::::::::
         :: total free energy         -80.559689778665 Eh   ::
         ::.................................................::
         :: total energy              -80.933038847609 Eh   ::
         :: zero point energy           0.438776605934 Eh   ::
         :: G(RRHO) w/o ZPVE           -0.065427536990 Eh   ::
         :: G(RRHO) contrib.            0.373349068944 Eh   ::
         :::::::::::::::::::::::::::::::::::::::::::::::::::::

           -------------------------------------------------
          | TOTAL ENERGY              -80.933038847609 Eh   |
          | TOTAL ENTHALPY            -80.458952687197 Eh   |
          | TOTAL FREE ENERGY         -80.559689778665 Eh   |
          | GRADIENT NORM               0.000198954783 Eh/α |
          | HOMO-LUMO GAP               5.602917202314 eV   |
           -------------------------------------------------

------------------------------------------------------------------------
 * finished run on 2024/01/10 at 15:39:07.638     
------------------------------------------------------------------------
 total:
 * wall-time:     0 d,  0 h,  0 min, 14.401 sec
 *  cpu-time:     0 d,  0 h,  0 min, 14.338 sec
 * ratio c/w:     0.996 speedup
 SCF:
 * wall-time:     0 d,  0 h,  0 min,  0.096 sec
 *  cpu-time:     0 d,  0 h,  0 min,  0.057 sec
 * ratio c/w:     0.591 speedup
 analytical hessian:
 * wall-time:     0 d,  0 h,  0 min, 14.278 sec
 *  cpu-time:     0 d,  0 h,  0 min, 14.255 sec
 * ratio c/w:     0.998 speedup

