 Entering Gaussian System
 *********************************************
 Gaussian 98:
 frequency output generated by the xtb code
 *********************************************
                         Standard orientation:
 --------------------------------------------------------------------
  Center     Atomic     Atomic              Coordinates (Angstroms)
  Number     Number      Type              X           Y           Z
 --------------------------------------------------------------------
    1          8             0       -2.802871   -0.522648    0.564885
    2          6             0       -2.801126    0.756333    1.123472
    3          1             0       -3.730699    1.235372    0.803291
    4          1             0       -2.817636    0.705219    2.222101
    5          6             0       -1.581786    1.617996    0.757498
    6          1             0       -0.669312    1.155698    1.145737
    7          1             0       -1.714178    2.589418    1.238005
    8          7             0       -1.348313    1.844658   -0.693719
    9          6             0       -0.839646    0.617604   -1.332173
   10          1             0        0.085727    0.328431   -0.837301
   11          1             0       -0.650055    0.829465   -2.382550
   12          1             0       -1.573625   -0.178715   -1.236787
   13          6             0       -0.310493    2.880595   -0.837559
   14          1             0       -0.105509    3.017476   -1.898240
   15          1             0        0.590960    2.548807   -0.324444
   16          1             0       -0.651571    3.821098   -0.410140
   17          6             0       -2.565598    2.280413   -1.392857
   18          1             0       -3.301335    1.480072   -1.395417
   19          1             0       -2.300186    2.522726   -2.421623
   20          1             0       -2.984898    3.159943   -0.908034
   21          1             0       -2.022854   -1.018486    0.919762
   22          6             0        2.007013    0.489116    1.857303
   23          8             0        1.462517    0.921928    0.845868
   24          7             0        1.332542   -0.220809    2.795074
   25          1             0        0.477914   -0.667943    2.477373
   26          1             0        1.863774   -0.772368    3.450281
   27          7             0        3.316331    0.727150    2.118714
   28          1             0        3.725558    0.469356    2.998322
   29          1             0        3.808232    1.386725    1.542543
   30          6             0       -0.622858    2.769173   -5.123383
   31          8             0       -0.774206    2.514357   -3.936382
   32          7             0        0.269478    3.691298   -5.556328
   33          1             0        0.762576    4.241742   -4.876666
   34          1             0        0.328142    3.965710   -6.519620
   35          7             0       -1.337612    2.147070   -6.091141
   36          1             0       -1.155931    2.293353   -7.066938
   37          1             0       -1.950729    1.395820   -5.830769
   38          6             0       -1.111459   -2.819193    2.378825
   39          8             0       -0.762397   -1.865444    1.656224
   40          7             0       -2.417135   -3.137513    2.500926
   41          1             0       -3.095179   -2.634733    1.953175
   42          1             0       -2.722494   -3.928781    3.037071
   43          7             0       -0.218540   -3.526421    3.069855
   44          1             0       -0.491888   -4.310937    3.632742
   45          1             0        0.783273   -3.322752    2.952548
   46          6             0        2.729844   -2.709201    1.373140
   47          8             0        2.426959   -2.924704    2.543612
   48          7             0        1.809646   -2.411604    0.430292
   49          1             0        0.867342   -2.192547    0.740131
   50          1             0        2.094214   -2.074050   -0.471258
   51          7             0        4.024219   -2.745985    0.962384
   52          1             0        4.257656   -2.752563   -0.014343
   53          1             0        4.696718   -3.133985    1.601459
 --------------------------------------------------------------------
     1 basis functions        1 primitive gaussians
     1 alpha electrons        1 beta electrons

 Harmonic frequencies (cm**-1), IR intensities (km*mol⁻¹),
 Raman scattering activities (A**4/amu), Raman depolarization ratios,
 reduced masses (AMU), force constants (mDyne/A) and normal coordinates:
                      1                      2                      3
                        a                      a                      a 
 Frequencies --    -6.0763                10.3907                17.2762
 Red. masses --    11.2120                12.4674                11.9411
 Frc consts  --     0.0000                 0.0000                 0.0000
 IR Inten    --     0.0076                 0.0545                 0.4044
 Raman Activ --     0.0000                 0.0000                 0.0000
 Depolar     --     0.0000                 0.0000                 0.0000
 Atom AN      X      Y      Z        X      Y      Z        X      Y      Z
   1   8    -0.01   0.05   0.03    -0.08   0.12   0.13     0.06   0.11  -0.03
   2   6     0.01   0.04   0.03    -0.02   0.11   0.10     0.10   0.08   0.00
   3   1     0.00   0.01   0.01    -0.00   0.04   0.03     0.03   0.03   0.01
   4   1     0.01   0.01   0.01    -0.01   0.04   0.03     0.03   0.01   0.00
   5   6     0.02   0.03   0.02     0.00   0.07   0.08     0.12   0.05   0.01
   6   1     0.00   0.00   0.00    -0.00   0.01   0.03     0.03   0.01  -0.00
   7   1     0.01   0.01   0.01     0.01   0.02   0.02     0.04   0.01   0.01
   8   7     0.01   0.03   0.02     0.02   0.02   0.08     0.12   0.07   0.01
   9   6    -0.01   0.02   0.01    -0.00  -0.01   0.12     0.08   0.06  -0.01
  10   1    -0.00   0.00   0.00    -0.00  -0.00   0.04     0.02   0.01  -0.01
  11   1    -0.00   0.01   0.00     0.00  -0.01   0.03     0.02   0.02  -0.00
  12   1    -0.01   0.01   0.00    -0.00   0.00   0.04     0.02   0.02  -0.01
  13   6     0.03   0.01   0.01     0.04  -0.00   0.05     0.14   0.04   0.01
  14   1     0.01   0.00   0.00     0.01  -0.01   0.01     0.04   0.01   0.00
  15   1     0.01   0.00   0.00     0.01  -0.00   0.02     0.04   0.00  -0.00
  16   1     0.01   0.00   0.01     0.01   0.01   0.01     0.05   0.01   0.01
  17   6     0.01   0.04   0.03     0.03   0.02   0.06     0.12   0.10   0.02
  18   1     0.00   0.02   0.01     0.00   0.01   0.02     0.03   0.04   0.01
  19   1     0.00   0.01   0.01     0.01  -0.01   0.01     0.03   0.03   0.01
  20   1     0.01   0.01   0.01     0.01   0.01   0.01     0.04   0.03   0.01
  21   1    -0.00   0.01   0.00    -0.02   0.03   0.03     0.01   0.02  -0.02
  22   6     0.01  -0.02  -0.00    -0.02   0.00   0.11     0.00  -0.03   0.09
  23   8     0.01  -0.02   0.00     0.00   0.01   0.12     0.09  -0.04   0.06
  24   7     0.01  -0.02   0.00    -0.04  -0.02   0.09    -0.07  -0.03   0.04
  25   1     0.00  -0.00   0.00    -0.01  -0.01   0.02    -0.01  -0.01  -0.01
  26   1     0.00  -0.01  -0.00    -0.02  -0.01   0.03    -0.03  -0.01   0.02
  27   7     0.02  -0.03  -0.01    -0.04   0.02   0.17    -0.02  -0.03   0.20
  28   1     0.01  -0.01  -0.00    -0.01  -0.00   0.05    -0.02  -0.01   0.06
  29   1     0.00  -0.01  -0.00    -0.01   0.01   0.05     0.01  -0.01   0.06
  30   6     0.01  -0.03   0.01     0.08  -0.20   0.05    -0.18  -0.03  -0.06
  31   8     0.00   0.01   0.02     0.08  -0.15   0.07     0.00   0.05  -0.02
  32   7    -0.41   0.38   0.02     0.15  -0.31  -0.01    -0.28  -0.05  -0.26
  33   1    -0.20   0.19   0.01     0.05  -0.08  -0.01    -0.05   0.00  -0.10
  34   1    -0.11   0.08  -0.00     0.05  -0.10  -0.01    -0.12  -0.03  -0.08
  35   7     0.44  -0.49  -0.01     0.04  -0.23   0.09    -0.34  -0.10   0.10
  36   1     0.12  -0.13  -0.00     0.01  -0.08   0.02    -0.13  -0.05   0.02
  37   1     0.21  -0.20  -0.00    -0.01  -0.04   0.04    -0.07  -0.03   0.06
  38   6    -0.02   0.01  -0.01    -0.01  -0.03  -0.10    -0.04  -0.05  -0.17
  39   8    -0.01   0.02   0.00    -0.05   0.06  -0.01     0.02  -0.02  -0.13
  40   7    -0.02   0.02  -0.00     0.00  -0.07  -0.10    -0.05  -0.06  -0.30
  41   1    -0.01   0.01   0.00    -0.01  -0.00  -0.00    -0.00  -0.00  -0.08
  42   1    -0.01   0.01  -0.00     0.01  -0.03  -0.04    -0.03  -0.02  -0.09
  43   7    -0.02  -0.01  -0.02     0.02  -0.09  -0.21    -0.09  -0.09  -0.15
  44   1    -0.01  -0.00  -0.01     0.02  -0.04  -0.08    -0.04  -0.03  -0.06
  45   1    -0.01  -0.00  -0.01     0.00  -0.02  -0.06    -0.02  -0.02  -0.02
  46   6    -0.02  -0.01  -0.03    -0.04   0.15  -0.21     0.05  -0.01   0.14
  47   8    -0.02  -0.03  -0.04    -0.01   0.01  -0.26    -0.06  -0.05   0.13
  48   7    -0.03   0.01  -0.03    -0.08   0.23  -0.17     0.13   0.01   0.08
  49   1    -0.01   0.00  -0.00    -0.02   0.04  -0.03     0.03  -0.00  -0.00
  50   1    -0.01   0.01  -0.01    -0.03   0.10  -0.03     0.06   0.01   0.03
  51   7    -0.03  -0.01  -0.04    -0.06   0.27  -0.26     0.09   0.02   0.27
  52   1    -0.01   0.00  -0.01    -0.02   0.11  -0.07     0.05   0.01   0.08
  53   1    -0.01  -0.01  -0.01    -0.01   0.06  -0.09     0.01   0.00   0.09
                      4                      5                      6
                        a                      a                      a 
 Frequencies --    23.5930                29.3886                34.7862
 Red. masses --    12.0297                12.2839                12.0362
 Frc consts  --     0.0000                 0.0000                 0.0000
 IR Inten    --     3.6826                 1.7240                 2.0920
 Raman Activ --     0.0000                 0.0000                 0.0000
 Depolar     --     0.0000                 0.0000                 0.0000
 Atom AN      X      Y      Z        X      Y      Z        X      Y      Z
   1   8    -0.03  -0.01   0.03    -0.06   0.06   0.15     0.06  -0.16  -0.28
   2   6     0.05   0.02  -0.03     0.03   0.05   0.13    -0.05  -0.17  -0.17
   3   1     0.02   0.02  -0.01     0.01   0.02   0.06    -0.01  -0.06  -0.06
   4   1     0.01   0.02  -0.01     0.03   0.01   0.04    -0.04  -0.07  -0.05
   5   6     0.11  -0.08  -0.06     0.03   0.01   0.05    -0.05  -0.10  -0.01
   6   1     0.02  -0.04  -0.02     0.01  -0.01  -0.01    -0.02  -0.04  -0.01
   7   1     0.05  -0.02  -0.02     0.04   0.00   0.03    -0.03  -0.05   0.03
   8   7     0.12  -0.13  -0.07    -0.08   0.05   0.04     0.00   0.09   0.03
   9   6    -0.01  -0.17  -0.05    -0.24   0.02  -0.05     0.01   0.15  -0.10
  10   1    -0.01  -0.07  -0.02    -0.06  -0.02  -0.04    -0.00   0.03  -0.03
  11   1    -0.00  -0.06  -0.02    -0.09   0.01  -0.02     0.01   0.08  -0.02
  12   1    -0.02  -0.03  -0.01    -0.09   0.02  -0.00     0.00   0.04  -0.06
  13   6     0.19  -0.21  -0.10    -0.00  -0.04  -0.01     0.02   0.09   0.19
  14   1     0.05  -0.07  -0.03    -0.02  -0.01  -0.01     0.02   0.06   0.06
  15   1     0.05  -0.08  -0.03     0.01  -0.04  -0.03     0.00   0.00   0.05
  16   1     0.08  -0.05  -0.03     0.03  -0.01   0.02     0.01   0.01   0.09
  17   6     0.13  -0.03  -0.05    -0.10   0.17   0.16     0.04   0.19   0.03
  18   1     0.02   0.01  -0.01    -0.05   0.07   0.06     0.01   0.06  -0.03
  19   1     0.04  -0.01  -0.02    -0.05   0.05   0.04     0.02   0.09   0.02
  20   1     0.06   0.00  -0.02     0.01   0.06   0.07     0.01   0.04   0.04
  21   1    -0.02  -0.01   0.02    -0.01   0.01   0.02     0.00  -0.04  -0.05
  22   6     0.00  -0.14   0.02    -0.00  -0.09  -0.20    -0.03  -0.09  -0.04
  23   8     0.10  -0.32  -0.10     0.04  -0.22  -0.30    -0.03  -0.13  -0.06
  24   7    -0.10   0.05   0.10    -0.06   0.08  -0.12    -0.05   0.01   0.02
  25   1    -0.02   0.00   0.03    -0.01   0.01  -0.02    -0.02   0.01   0.02
  26   1    -0.04   0.04   0.06    -0.02   0.04  -0.01    -0.01   0.01   0.01
  27   7    -0.01  -0.14   0.08     0.01  -0.14  -0.24    -0.01  -0.16  -0.10
  28   1    -0.02  -0.01   0.04    -0.00  -0.02  -0.06     0.00  -0.04  -0.03
  29   1     0.02  -0.08  -0.00     0.02  -0.07  -0.09     0.01  -0.06  -0.04
  30   6    -0.03   0.10  -0.05     0.03  -0.03   0.05     0.04   0.03   0.04
  31   8     0.08  -0.08  -0.09    -0.21   0.06   0.05     0.12   0.35   0.12
  32   7    -0.13   0.23   0.01     0.18  -0.12   0.15     0.05  -0.12  -0.26
  33   1    -0.03   0.04   0.01     0.02  -0.03   0.05     0.03   0.01  -0.11
  34   1    -0.06   0.10   0.01     0.10  -0.05   0.04    -0.01  -0.09  -0.09
  35   7    -0.08   0.21  -0.09     0.18  -0.06  -0.03    -0.04  -0.19   0.25
  36   1    -0.04   0.09  -0.02     0.09  -0.03  -0.00    -0.03  -0.12   0.05
  37   1     0.00   0.03  -0.04     0.01   0.01  -0.02    -0.02  -0.02   0.13
  38   6    -0.03  -0.03   0.11    -0.00  -0.04  -0.09     0.01  -0.01   0.10
  39   8    -0.08  -0.00   0.14     0.00  -0.02  -0.06    -0.04  -0.04   0.06
  40   7    -0.02  -0.07   0.15     0.00  -0.09  -0.17     0.03  -0.06   0.15
  41   1    -0.01  -0.02   0.05     0.00  -0.02  -0.04     0.00  -0.04   0.03
  42   1     0.01  -0.02   0.04    -0.00  -0.03  -0.05     0.02  -0.01   0.05
  43   7     0.01  -0.02   0.08    -0.01  -0.04  -0.08     0.05   0.07   0.15
  44   1     0.02  -0.01   0.02    -0.00  -0.02  -0.03     0.02   0.02   0.05
  45   1     0.00   0.00   0.01    -0.00   0.00  -0.00     0.01   0.02   0.03
  46   6    -0.06   0.18  -0.01     0.06   0.08   0.13    -0.03   0.07  -0.03
  47   8    -0.04   0.08  -0.03    -0.00   0.09   0.13     0.02   0.08  -0.02
  48   7    -0.11   0.13   0.01     0.10  -0.00   0.07    -0.08   0.01  -0.00
  49   1    -0.03   0.02   0.01     0.02  -0.01   0.00    -0.02  -0.00   0.01
  50   1    -0.04   0.08   0.01     0.04   0.01   0.03    -0.03   0.01  -0.00
  51   7    -0.07   0.38  -0.02     0.09   0.19   0.22    -0.04   0.13  -0.07
  52   1    -0.02   0.12  -0.01     0.04   0.05   0.06    -0.02   0.03  -0.02
  53   1    -0.01   0.11  -0.02     0.02   0.06   0.07    -0.00   0.04  -0.02
                      7                      8                      9
                        a                      a                      a 
 Frequencies --    45.3202                49.1789                52.2154
 Red. masses --    12.0462                12.3830                12.8730
 Frc consts  --     0.0000                 0.0000                 0.0000
 IR Inten    --     7.2718                 2.9340                 8.9063
 Raman Activ --     0.0000                 0.0000                 0.0000
 Depolar     --     0.0000                 0.0000                 0.0000
 Atom AN      X      Y      Z        X      Y      Z        X      Y      Z
   1   8     0.03  -0.03  -0.02     0.10   0.09   0.14     0.13  -0.05   0.05
   2   6     0.11  -0.05   0.05     0.06   0.12   0.01     0.00  -0.01  -0.03
   3   1     0.03   0.00   0.04     0.01   0.02  -0.01    -0.01  -0.03  -0.03
   4   1     0.05  -0.03   0.01     0.02   0.06   0.01    -0.01   0.01  -0.01
   5   6     0.12  -0.08   0.01     0.03   0.14  -0.04    -0.05   0.05  -0.04
   6   1     0.04  -0.04  -0.02     0.01   0.05  -0.02    -0.01   0.03  -0.01
   7   1     0.06  -0.03   0.02     0.01   0.04  -0.02    -0.03   0.01  -0.02
   8   7     0.04  -0.01   0.01    -0.01   0.12  -0.06    -0.05   0.05  -0.05
   9   6    -0.06   0.00  -0.09    -0.12   0.07  -0.06    -0.04   0.05  -0.04
  10   1    -0.01  -0.02  -0.05    -0.03   0.01  -0.03    -0.01   0.02  -0.01
  11   1    -0.04   0.01  -0.03    -0.04   0.01  -0.02    -0.01   0.01  -0.01
  12   1    -0.03   0.01  -0.02    -0.05   0.03  -0.00    -0.01   0.01  -0.01
  13   6     0.08  -0.05  -0.00     0.06   0.04  -0.10    -0.05   0.05  -0.04
  14   1     0.00  -0.00  -0.00     0.01   0.00  -0.03    -0.01   0.01  -0.01
  15   1     0.03  -0.04  -0.02     0.01  -0.00  -0.03    -0.02   0.02  -0.01
  16   1     0.04  -0.02   0.02     0.04   0.02  -0.03    -0.02   0.02  -0.01
  17   6     0.01   0.09   0.11     0.00   0.20  -0.02    -0.05   0.04  -0.05
  18   1    -0.01   0.04   0.03    -0.02   0.07   0.00    -0.01   0.01  -0.02
  19   1    -0.01   0.04   0.03    -0.00   0.05  -0.01    -0.01   0.01  -0.01
  20   1     0.03   0.02   0.06     0.02   0.07  -0.00    -0.02   0.01  -0.01
  21   1     0.01  -0.02  -0.02     0.01   0.02   0.06     0.04   0.00   0.03
  22   6    -0.02   0.09  -0.02    -0.10   0.03   0.08     0.04   0.01   0.00
  23   8     0.13  -0.12  -0.20    -0.16  -0.02   0.09    -0.13   0.03   0.10
  24   7    -0.08  -0.04  -0.16    -0.05   0.01   0.11     0.22  -0.11   0.03
  25   1     0.02  -0.06  -0.09    -0.01  -0.01   0.04     0.05  -0.03   0.04
  26   1    -0.03   0.04   0.00    -0.00   0.01   0.03     0.08  -0.03  -0.01
  27   7    -0.17   0.51   0.34    -0.12   0.11   0.06     0.06   0.08  -0.16
  28   1    -0.08   0.17   0.11    -0.02   0.04   0.01     0.04   0.03  -0.05
  29   1    -0.05   0.15   0.10    -0.04   0.03   0.01    -0.02   0.05  -0.04
  30   6    -0.02   0.02   0.01     0.00   0.04  -0.13     0.01   0.04  -0.08
  31   8    -0.14   0.13   0.02    -0.09   0.11  -0.15    -0.04   0.11  -0.08
  32   7     0.06  -0.05   0.01     0.06   0.00  -0.13     0.05  -0.01  -0.10
  33   1     0.00  -0.00   0.00     0.00   0.01  -0.03     0.00   0.01  -0.03
  34   1     0.04  -0.03  -0.00     0.03  -0.01  -0.04     0.02  -0.01  -0.03
  35   7     0.05  -0.05  -0.00     0.06   0.01  -0.16     0.03   0.00  -0.07
  36   1     0.03  -0.03  -0.00     0.03  -0.01  -0.04     0.02  -0.01  -0.02
  37   1    -0.01   0.01   0.00     0.00   0.01  -0.04    -0.00   0.01  -0.02
  38   6    -0.02  -0.02   0.04     0.08  -0.19   0.09    -0.03  -0.07   0.08
  39   8     0.00  -0.16  -0.12    -0.01  -0.07   0.26     0.06  -0.01   0.23
  40   7    -0.04   0.13   0.21     0.13  -0.44  -0.06    -0.09   0.17   0.21
  41   1    -0.01   0.02   0.04     0.02  -0.11   0.00    -0.01   0.08   0.07
  42   1    -0.02   0.05   0.08     0.05  -0.13  -0.03    -0.04   0.01   0.00
  43   7    -0.03  -0.02   0.05     0.14  -0.14   0.10    -0.08  -0.39  -0.18
  44   1    -0.01   0.02   0.05     0.06  -0.07  -0.01    -0.04  -0.10  -0.06
  45   1    -0.01  -0.02  -0.01     0.03  -0.01   0.04    -0.02  -0.12  -0.04
  46   6    -0.02  -0.08  -0.06    -0.02  -0.05   0.00     0.00  -0.03   0.05
  47   8    -0.05  -0.11  -0.09     0.10   0.07   0.06    -0.06  -0.43  -0.03
  48   7    -0.01  -0.19  -0.12    -0.10  -0.06   0.08     0.04   0.15   0.08
  49   1    -0.01  -0.07  -0.04    -0.01   0.01   0.04     0.00   0.00   0.03
  50   1     0.00  -0.04  -0.03    -0.05  -0.04   0.00     0.02   0.13   0.06
  51   7     0.00   0.05  -0.01    -0.07  -0.21  -0.14     0.04   0.25   0.14
  52   1     0.01   0.01   0.00    -0.05  -0.08  -0.04     0.03   0.14   0.04
  53   1     0.00   0.03   0.01    -0.01  -0.05  -0.05     0.01   0.03   0.02
                     10                     11                     12
                        a                      a                      a 
 Frequencies --    54.0151                60.5568                67.0062
 Red. masses --    11.9475                12.0385                13.2233
 Frc consts  --     0.0000                 0.0000                 0.0000
 IR Inten    --     2.6805                 1.0481                 1.0285
 Raman Activ --     0.0000                 0.0000                 0.0000
 Depolar     --     0.0000                 0.0000                 0.0000
 Atom AN      X      Y      Z        X      Y      Z        X      Y      Z
   1   8    -0.07  -0.11   0.03     0.13   0.01  -0.06     0.08  -0.10  -0.16
   2   6    -0.12  -0.06  -0.06     0.13  -0.03   0.05     0.10  -0.13  -0.02
   3   1    -0.03  -0.02  -0.05     0.03  -0.00   0.04     0.03  -0.03   0.02
   4   1    -0.06   0.00  -0.02     0.05  -0.03   0.01     0.04  -0.07  -0.01
   5   6    -0.07  -0.10  -0.00     0.10   0.01   0.04     0.09  -0.12  -0.00
   6   1    -0.03  -0.05   0.01     0.03   0.01   0.01     0.03  -0.05  -0.02
   7   1    -0.01  -0.03   0.00     0.02   0.00   0.01     0.04  -0.04   0.02
   8   7    -0.01  -0.09   0.01     0.08   0.00   0.03     0.03  -0.04   0.00
   9   6    -0.12  -0.11  -0.02     0.26   0.06   0.07     0.04   0.02  -0.09
  10   1    -0.05  -0.06  -0.00     0.09   0.07   0.02     0.02   0.01  -0.04
  11   1    -0.02  -0.03  -0.00     0.06   0.02   0.02    -0.01   0.02  -0.03
  12   1    -0.06  -0.01  -0.02     0.11  -0.01   0.03     0.02  -0.00  -0.03
  13   6     0.10  -0.18   0.07    -0.09   0.16   0.00    -0.01   0.00   0.01
  14   1     0.04  -0.05   0.02    -0.03   0.05  -0.00    -0.02   0.02   0.00
  15   1     0.02  -0.08   0.02    -0.01   0.09  -0.00     0.01   0.00  -0.01
  16   1     0.05  -0.05   0.03    -0.07   0.03  -0.01    -0.01  -0.01   0.02
  17   6     0.05   0.07  -0.00     0.00  -0.22   0.02    -0.02  -0.04   0.09
  18   1    -0.01   0.04  -0.02     0.04  -0.10   0.01     0.00  -0.02   0.02
  19   1     0.03   0.03   0.00    -0.01  -0.06   0.00    -0.03   0.01   0.02
  20   1     0.04   0.03   0.01    -0.04  -0.08  -0.00    -0.01  -0.02   0.05
  21   1    -0.00  -0.00   0.01     0.01  -0.02   0.00     0.02  -0.03  -0.04
  22   6     0.08   0.09  -0.05     0.12   0.12  -0.14     0.09  -0.04   0.15
  23   8    -0.01  -0.20  -0.13     0.20   0.17  -0.17     0.12  -0.05   0.16
  24   7     0.24   0.13   0.08     0.08   0.12  -0.19     0.08   0.02   0.19
  25   1     0.07   0.00   0.05     0.02   0.03  -0.05     0.02   0.01   0.06
  26   1     0.08   0.09   0.05     0.01   0.04  -0.04     0.02   0.00   0.05
  27   7     0.05   0.39  -0.12     0.13   0.10  -0.09     0.12  -0.10   0.14
  28   1     0.03   0.17  -0.02     0.02   0.02  -0.02     0.03  -0.02   0.04
  29   1    -0.02   0.10  -0.07     0.04   0.03  -0.02     0.04  -0.03   0.03
  30   6     0.04  -0.00   0.08    -0.01  -0.01   0.04    -0.14   0.02  -0.07
  31   8     0.18  -0.02   0.10    -0.02  -0.00   0.05    -0.52   0.16  -0.10
  32   7    -0.03   0.03   0.00    -0.01  -0.01   0.05     0.06  -0.11   0.07
  33   1     0.01   0.01  -0.01    -0.00  -0.00   0.01    -0.04  -0.01   0.04
  34   1    -0.03   0.01  -0.00     0.00  -0.00   0.01     0.08  -0.04   0.02
  35   7    -0.05  -0.00   0.15     0.00  -0.01   0.04     0.09  -0.04  -0.21
  36   1    -0.04  -0.00   0.04    -0.00  -0.00   0.01     0.08  -0.02  -0.05
  37   1     0.00  -0.01   0.05    -0.00  -0.00   0.01    -0.03   0.03  -0.08
  38   6    -0.01   0.08  -0.03    -0.08  -0.13   0.04    -0.01   0.10  -0.00
  39   8     0.05   0.24   0.19    -0.08  -0.07   0.16     0.04   0.13   0.04
  40   7     0.00  -0.05  -0.32    -0.07  -0.28  -0.16    -0.01   0.04  -0.19
  41   1     0.01   0.01  -0.07    -0.02  -0.07  -0.04     0.01   0.02  -0.06
  42   1    -0.01  -0.03  -0.11    -0.02  -0.08  -0.05    -0.02   0.02  -0.04
  43   7    -0.07   0.04   0.00    -0.11  -0.11   0.10    -0.07   0.17   0.14
  44   1    -0.03  -0.03  -0.06    -0.03  -0.05  -0.00    -0.03   0.03   0.01
  45   1    -0.01   0.01   0.02    -0.03  -0.02   0.04    -0.02   0.03   0.03
  46   6    -0.05  -0.03   0.01    -0.18   0.03   0.03    -0.05   0.02  -0.03
  47   8    -0.06  -0.09   0.00    -0.16   0.03   0.05    -0.07  -0.09  -0.06
  48   7    -0.04   0.14   0.04    -0.24  -0.09   0.03    -0.02   0.25   0.01
  49   1     0.00   0.07   0.02    -0.06  -0.03   0.02    -0.00   0.07   0.01
  50   1    -0.00   0.06   0.02    -0.07  -0.02   0.01     0.00   0.10   0.02
  51   7    -0.07  -0.18  -0.02    -0.19   0.18   0.02    -0.06  -0.07  -0.05
  52   1    -0.03  -0.04  -0.01    -0.06   0.05   0.00    -0.02   0.01  -0.01
  53   1    -0.03  -0.08  -0.02    -0.04   0.07   0.00    -0.03  -0.06  -0.03
                     13                     14                     15
                        a                      a                      a 
 Frequencies --    77.4072                79.0982                88.8460
 Red. masses --    12.8746                12.8286                12.3049
 Frc consts  --     0.0000                 0.0000                 0.0000
 IR Inten    --    12.9697                 0.3218                 2.3785
 Raman Activ --     0.0000                 0.0000                 0.0000
 Depolar     --     0.0000                 0.0000                 0.0000
 Atom AN      X      Y      Z        X      Y      Z        X      Y      Z
   1   8     0.07   0.01  -0.10     0.13  -0.08  -0.26    -0.06  -0.07   0.04
   2   6    -0.00   0.00  -0.08     0.04  -0.10  -0.15    -0.09  -0.03  -0.03
   3   1    -0.00  -0.01  -0.03     0.01  -0.03  -0.05    -0.02  -0.02  -0.03
   4   1    -0.01  -0.00  -0.02    -0.00  -0.05  -0.05    -0.05   0.00  -0.01
   5   6    -0.03   0.06  -0.03     0.03  -0.03  -0.04    -0.06  -0.06   0.02
   6   1    -0.01   0.02  -0.01     0.01  -0.02  -0.02    -0.02  -0.02   0.02
   7   1    -0.02   0.01   0.00    -0.00  -0.02   0.01    -0.02  -0.02   0.01
   8   7    -0.01   0.13  -0.01     0.05   0.11  -0.02    -0.00  -0.04   0.04
   9   6    -0.08   0.12  -0.07     0.00   0.14  -0.12    -0.08  -0.07   0.02
  10   1    -0.03   0.01  -0.02     0.00   0.02  -0.05    -0.03  -0.04   0.01
  11   1    -0.02   0.04  -0.02    -0.01   0.06  -0.03    -0.01  -0.02   0.01
  12   1    -0.04   0.05  -0.03    -0.00   0.04  -0.05    -0.04  -0.00  -0.00
  13   6     0.06   0.07   0.04     0.09   0.07   0.09     0.08  -0.12   0.08
  14   1     0.03   0.02   0.01     0.04   0.04   0.03     0.03  -0.03   0.03
  15   1     0.01   0.00   0.02     0.02   0.00   0.02     0.01  -0.06   0.03
  16   1     0.03   0.02   0.01     0.03   0.02   0.04     0.04  -0.03   0.03
  17   6     0.03   0.24   0.00     0.07   0.22   0.03     0.05   0.08   0.01
  18   1    -0.01   0.09  -0.00     0.01   0.08  -0.01    -0.00   0.04  -0.01
  19   1     0.01   0.06   0.00     0.02   0.07   0.01     0.03   0.03   0.01
  20   1     0.03   0.08   0.01     0.04   0.06   0.02     0.03   0.03   0.01
  21   1     0.02   0.00  -0.02     0.02  -0.02  -0.04     0.00   0.00   0.00
  22   6    -0.01  -0.03   0.00    -0.00   0.05  -0.00     0.10   0.03   0.10
  23   8    -0.11   0.06   0.10     0.05   0.03  -0.04     0.00   0.12   0.22
  24   7     0.10  -0.20  -0.05    -0.06   0.15   0.03     0.21  -0.05   0.12
  25   1     0.03  -0.05  -0.01    -0.02   0.04   0.01     0.05  -0.00   0.04
  26   1     0.04  -0.06  -0.03    -0.02   0.04   0.01     0.07  -0.04  -0.00
  27   7    -0.00   0.02  -0.05     0.00  -0.00   0.01     0.15   0.01  -0.01
  28   1     0.02  -0.01  -0.03    -0.00  -0.00   0.00     0.06  -0.01  -0.02
  29   1    -0.03   0.04   0.00     0.02  -0.02  -0.01     0.02   0.02   0.00
  30   6    -0.01  -0.12   0.04    -0.06  -0.14   0.09    -0.03   0.02  -0.07
  31   8     0.06  -0.38  -0.00    -0.09  -0.39   0.05    -0.11   0.08  -0.07
  32   7    -0.08   0.00   0.18    -0.09  -0.04   0.29     0.02  -0.01  -0.06
  33   1    -0.01  -0.04   0.07    -0.02  -0.06   0.11    -0.01   0.01  -0.01
  34   1    -0.02   0.04   0.06    -0.00   0.02   0.09     0.01  -0.01  -0.02
  35   7    -0.05   0.04  -0.05    -0.04   0.01  -0.03     0.02  -0.00  -0.09
  36   1    -0.02   0.06  -0.01    -0.01   0.05  -0.00     0.02  -0.01  -0.02
  37   1     0.01  -0.01  -0.04    -0.01  -0.01  -0.05    -0.01   0.01  -0.03
  38   6    -0.00   0.01   0.04     0.01  -0.04  -0.01     0.02   0.05  -0.07
  39   8     0.03  -0.09  -0.06    -0.00   0.03   0.09     0.07   0.09  -0.03
  40   7     0.01  -0.13  -0.17    -0.01   0.10   0.18     0.01   0.11  -0.09
  41   1     0.01  -0.05  -0.07    -0.00   0.03   0.05     0.01   0.04  -0.02
  42   1    -0.01   0.00   0.01     0.00  -0.01  -0.01    -0.01   0.02  -0.04
  43   7    -0.05   0.26   0.39     0.04  -0.27  -0.29    -0.00  -0.05  -0.15
  44   1    -0.02   0.06   0.08     0.01  -0.06  -0.06    -0.01  -0.01  -0.04
  45   1    -0.01   0.03   0.07     0.01  -0.04  -0.05    -0.00   0.00  -0.01
  46   6     0.01  -0.05  -0.03    -0.03   0.04   0.03    -0.07  -0.01   0.01
  47   8    -0.00  -0.28  -0.08    -0.00   0.21   0.07     0.02   0.25   0.09
  48   7     0.01  -0.10  -0.05    -0.05   0.05   0.05    -0.19  -0.56  -0.05
  49   1    -0.01  -0.05  -0.02    -0.01   0.03   0.02    -0.04  -0.12  -0.01
  50   1     0.00   0.02   0.01    -0.02  -0.03  -0.00    -0.07  -0.20  -0.04
  51   7     0.05   0.26   0.03    -0.06  -0.15  -0.03    -0.07   0.26  -0.01
  52   1     0.02   0.10   0.01    -0.03  -0.07  -0.01    -0.03   0.01  -0.00
  53   1     0.02   0.07   0.00    -0.02  -0.04  -0.01     0.01   0.16   0.02
                     16                     17                     18
                        a                      a                      a 
 Frequencies --   100.0063               104.7262               106.4518
 Red. masses --    12.7149                11.9364                12.1542
 Frc consts  --     0.0000                 0.0000                 0.0000
 IR Inten    --     2.9909                14.4865                 4.3076
 Raman Activ --     0.0000                 0.0000                 0.0000
 Depolar     --     0.0000                 0.0000                 0.0000
 Atom AN      X      Y      Z        X      Y      Z        X      Y      Z
   1   8    -0.27  -0.02  -0.01    -0.04  -0.02  -0.01    -0.16   0.16  -0.10
   2   6    -0.19  -0.01  -0.04    -0.13  -0.04   0.05    -0.20   0.19  -0.21
   3   1    -0.04   0.01  -0.04    -0.03  -0.02  -0.00    -0.04   0.05  -0.12
   4   1    -0.08   0.01  -0.01    -0.06  -0.03   0.01    -0.11   0.08  -0.06
   5   6    -0.11  -0.08   0.04    -0.12   0.01   0.19    -0.12   0.12  -0.09
   6   1    -0.05  -0.04   0.02    -0.04  -0.00   0.07    -0.06   0.03   0.02
   7   1    -0.02  -0.02   0.02    -0.05  -0.01   0.07    -0.04   0.05  -0.05
   8   7    -0.02  -0.03   0.07     0.00   0.08   0.24     0.07   0.03  -0.08
   9   6    -0.13  -0.06   0.03     0.17   0.14   0.23     0.19  -0.01   0.08
  10   1    -0.04  -0.04  -0.00     0.05   0.06   0.09     0.04   0.02   0.06
  11   1    -0.04  -0.02   0.01     0.07   0.05   0.07     0.08  -0.03   0.02
  12   1    -0.06  -0.00   0.01     0.07   0.02   0.04     0.06  -0.01   0.02
  13   6     0.10  -0.13   0.14    -0.08   0.17   0.33     0.05   0.05  -0.02
  14   1     0.04  -0.03   0.04    -0.01   0.07   0.10     0.03   0.01  -0.00
  15   1     0.01  -0.07   0.05    -0.02   0.06   0.10     0.01   0.02   0.02
  16   1     0.05  -0.03   0.04    -0.05   0.04   0.10    -0.00   0.01  -0.02
  17   6     0.06   0.15   0.04     0.04  -0.02   0.10     0.13  -0.07  -0.25
  18   1    -0.01   0.07  -0.01     0.03  -0.02   0.01     0.05  -0.03  -0.09
  19   1     0.04   0.05   0.02     0.03  -0.01   0.03     0.07  -0.03  -0.07
  20   1     0.04   0.05   0.02    -0.02  -0.01   0.01     0.01  -0.02  -0.10
  21   1    -0.08  -0.02   0.01    -0.01   0.00   0.00    -0.05   0.05   0.01
  22   6     0.17   0.11  -0.05    -0.01  -0.09  -0.05     0.02  -0.08  -0.03
  23   8     0.31   0.38  -0.01     0.02  -0.32  -0.17     0.06  -0.19  -0.09
  24   7     0.06  -0.04  -0.26    -0.03   0.01   0.02     0.02  -0.09  -0.04
  25   1     0.00   0.03  -0.09     0.01  -0.03   0.00     0.01  -0.03  -0.01
  26   1    -0.01  -0.05  -0.08    -0.01   0.04   0.04     0.00  -0.00   0.01
  27   7     0.18  -0.05   0.12    -0.06   0.07   0.01    -0.01   0.05   0.06
  28   1     0.01  -0.06   0.03    -0.02   0.05   0.01    -0.02   0.04   0.03
  29   1     0.07   0.02   0.09    -0.01  -0.01  -0.03    -0.01   0.01   0.01
  30   6    -0.00   0.01  -0.09     0.02  -0.03  -0.22    -0.12   0.01   0.12
  31   8    -0.01   0.02  -0.11     0.04  -0.16  -0.28    -0.33   0.12   0.14
  32   7     0.01   0.01  -0.10     0.00   0.02  -0.17    -0.01  -0.07   0.20
  33   1    -0.00   0.01  -0.02    -0.02   0.01  -0.03    -0.02  -0.01   0.06
  34   1    -0.00   0.01  -0.02    -0.03   0.05  -0.03     0.05  -0.05   0.05
  35   7     0.01   0.02  -0.11     0.00   0.09  -0.32     0.02  -0.07   0.09
  36   1     0.01   0.00  -0.03     0.04   0.02  -0.08     0.01  -0.02   0.03
  37   1     0.00   0.00  -0.03     0.03  -0.01  -0.11    -0.04   0.02   0.02
  38   6    -0.06  -0.07   0.02     0.01   0.04   0.00     0.00   0.04   0.02
  39   8    -0.21  -0.08  -0.03    -0.00   0.08   0.05    -0.13   0.15   0.09
  40   7    -0.03  -0.20   0.13     0.01   0.03   0.01     0.04  -0.10   0.05
  41   1    -0.03  -0.08   0.05     0.00   0.00  -0.00    -0.01  -0.03   0.03
  42   1     0.02  -0.06   0.05     0.01  -0.01  -0.02     0.04  -0.05  -0.00
  43   7     0.03   0.00  -0.01     0.02   0.02  -0.03     0.09   0.05  -0.08
  44   1     0.03   0.00   0.01     0.01  -0.00  -0.02     0.04  -0.01  -0.04
  45   1     0.00   0.01  -0.01     0.01   0.01  -0.01     0.02   0.02  -0.02
  46   6     0.03   0.01   0.04     0.03  -0.02  -0.01     0.09  -0.07   0.04
  47   8     0.04  -0.08   0.03     0.02  -0.02  -0.01     0.17  -0.16   0.04
  48   7     0.05   0.21   0.10     0.04  -0.05  -0.03     0.02  -0.14   0.08
  49   1     0.01   0.03   0.02     0.01  -0.00  -0.01     0.01  -0.03   0.03
  50   1     0.01   0.05   0.03     0.01  -0.00  -0.00    -0.00  -0.01   0.03
  51   7     0.02  -0.06   0.02     0.04  -0.01   0.01     0.08   0.05  -0.02
  52   1     0.01   0.02   0.01     0.01  -0.01   0.00     0.01   0.03  -0.01
  53   1     0.00  -0.04  -0.00     0.01  -0.00   0.01     0.04   0.02  -0.02
                     19                     20                     21
                        a                      a                      a 
 Frequencies --   115.8640               123.9087               135.3196
 Red. masses --    12.5571                11.9936                12.9194
 Frc consts  --     0.0000                 0.0000                 0.0000
 IR Inten    --    21.2833                 0.5507                 0.4586
 Raman Activ --     0.0000                 0.0000                 0.0000
 Depolar     --     0.0000                 0.0000                 0.0000
 Atom AN      X      Y      Z        X      Y      Z        X      Y      Z
   1   8    -0.04   0.04  -0.04    -0.22   0.17  -0.23     0.05   0.01   0.05
   2   6     0.04   0.02   0.01     0.10   0.03   0.08    -0.07   0.05  -0.06
   3   1     0.02   0.03  -0.00     0.03   0.07   0.11    -0.02  -0.01  -0.04
   4   1     0.00  -0.00   0.00     0.09  -0.06   0.02    -0.04   0.04  -0.02
   5   6     0.11  -0.05   0.07     0.16  -0.09  -0.00    -0.11   0.11  -0.06
   6   1     0.02  -0.03   0.03     0.05  -0.07  -0.05    -0.03   0.05  -0.00
   7   1     0.04  -0.01   0.02     0.10  -0.04   0.03    -0.05   0.03  -0.03
   8   7     0.21  -0.07   0.09    -0.04   0.00  -0.02    -0.09   0.07  -0.06
   9   6     0.18  -0.09   0.11    -0.02   0.08  -0.15    -0.05   0.05   0.01
  10   1     0.04  -0.03   0.04     0.01   0.03  -0.07    -0.02   0.02   0.01
  11   1     0.06  -0.03   0.03    -0.03   0.05  -0.04    -0.01   0.00   0.00
  12   1     0.04  -0.02   0.02     0.01   0.01  -0.04    -0.01   0.01   0.01
  13   6     0.23  -0.10   0.12    -0.14   0.09  -0.09    -0.09   0.07  -0.06
  14   1     0.07  -0.03   0.04    -0.06   0.03  -0.03    -0.02   0.01  -0.02
  15   1     0.06  -0.04   0.04    -0.02   0.04  -0.04    -0.03   0.02  -0.01
  16   1     0.07  -0.03   0.03    -0.05   0.02  -0.02    -0.03   0.02  -0.02
  17   6     0.24  -0.03   0.03    -0.16  -0.07   0.14    -0.07   0.02  -0.11
  18   1     0.06  -0.00   0.00    -0.03  -0.04   0.06    -0.02   0.00  -0.03
  19   1     0.08  -0.01   0.01    -0.09  -0.00   0.03    -0.01  -0.00  -0.03
  20   1     0.07  -0.00   0.00    -0.05  -0.04   0.06    -0.03   0.01  -0.05
  21   1    -0.02  -0.01  -0.01    -0.08  -0.02  -0.08     0.01   0.01   0.03
  22   6    -0.14   0.02  -0.06     0.08  -0.09   0.05     0.17  -0.12   0.05
  23   8    -0.41   0.09   0.09    -0.05  -0.18   0.10     0.16  -0.23   0.04
  24   7     0.10  -0.15  -0.04     0.26  -0.24   0.07     0.26  -0.21   0.05
  25   1     0.02  -0.04   0.02     0.06  -0.05   0.04     0.08  -0.07   0.01
  26   1     0.07  -0.06  -0.06     0.09  -0.07  -0.00     0.08  -0.06   0.00
  27   7    -0.12   0.15  -0.32     0.06   0.14  -0.01     0.15   0.06   0.09
  28   1     0.03   0.03  -0.12     0.04   0.06  -0.01     0.04   0.04   0.03
  29   1    -0.09   0.08  -0.09    -0.03   0.06  -0.01     0.02   0.04   0.03
  30   6    -0.06   0.01  -0.00     0.05  -0.02  -0.01    -0.00  -0.00   0.02
  31   8    -0.18   0.07  -0.01     0.14  -0.08  -0.02    -0.00  -0.00   0.02
  32   7     0.02  -0.04   0.04    -0.00   0.02  -0.03    -0.01   0.00   0.02
  33   1    -0.03   0.01   0.02     0.01  -0.00  -0.01     0.01  -0.01   0.01
  34   1     0.01  -0.00   0.01    -0.02   0.02  -0.01     0.01  -0.01   0.00
  35   7     0.02  -0.01  -0.05    -0.01   0.02   0.01    -0.00  -0.01   0.02
  36   1     0.03  -0.01  -0.01    -0.01   0.01   0.00    -0.01   0.01   0.01
  37   1    -0.01   0.01  -0.02     0.01  -0.01   0.00    -0.01   0.00   0.01
  38   6    -0.07  -0.06  -0.02    -0.06   0.03  -0.07    -0.09  -0.09   0.06
  39   8    -0.08  -0.17  -0.14    -0.25   0.05  -0.14    -0.04  -0.17   0.03
  40   7    -0.07  -0.03   0.07    -0.02  -0.10   0.10    -0.11  -0.06   0.07
  41   1    -0.02  -0.03   0.01    -0.04  -0.05   0.05    -0.02  -0.03   0.00
  42   1    -0.02   0.01   0.04     0.04  -0.03   0.04    -0.03  -0.01   0.02
  43   7    -0.06  -0.01   0.03     0.07   0.09  -0.18    -0.12  -0.09   0.11
  44   1    -0.01   0.02   0.04     0.04   0.03  -0.02    -0.03  -0.01   0.05
  45   1    -0.02   0.01   0.01     0.02   0.05  -0.04    -0.04  -0.01   0.03
  46   6    -0.00   0.10   0.00     0.02   0.03   0.10     0.01   0.14  -0.08
  47   8    -0.05   0.20   0.01     0.17   0.04   0.16    -0.20   0.43  -0.10
  48   7     0.05   0.19  -0.01    -0.09   0.04   0.22     0.17   0.09  -0.26
  49   1     0.00   0.03  -0.02    -0.02   0.01   0.07     0.04   0.03  -0.11
  50   1     0.02  -0.00  -0.02    -0.05  -0.01   0.04     0.08  -0.02  -0.07
  51   7     0.01  -0.04   0.04    -0.03   0.02  -0.06     0.07  -0.11   0.13
  52   1     0.01  -0.03   0.01    -0.04   0.01  -0.02     0.06  -0.08   0.05
  53   1    -0.01  -0.02   0.02     0.01   0.01  -0.04    -0.02  -0.01   0.09
                     22                     23                     24
                        a                      a                      a 
 Frequencies --   147.4341               158.9902               169.1053
 Red. masses --    13.1570                 3.6219                12.4871
 Frc consts  --     0.0000                 0.0000                 0.0000
 IR Inten    --    13.2284                 7.9081                20.6007
 Raman Activ --     0.0000                 0.0000                 0.0000
 Depolar     --     0.0000                 0.0000                 0.0000
 Atom AN      X      Y      Z        X      Y      Z        X      Y      Z
   1   8     0.11  -0.04   0.11     0.02   0.02  -0.03     0.16  -0.10   0.08
   2   6    -0.06   0.02  -0.03     0.00   0.01  -0.02     0.04  -0.06   0.01
   3   1    -0.03  -0.03  -0.04    -0.00   0.00  -0.00     0.00  -0.04  -0.01
   4   1    -0.04   0.04  -0.01     0.00   0.00  -0.00     0.01  -0.01   0.00
   5   6    -0.13   0.13  -0.01    -0.01   0.02  -0.02    -0.01  -0.00   0.00
   6   1    -0.03   0.07   0.03    -0.00   0.01  -0.00     0.00   0.02   0.01
   7   1    -0.08   0.04  -0.03    -0.01   0.01  -0.01    -0.02  -0.00  -0.00
   8   7    -0.04   0.05  -0.01    -0.01   0.01  -0.02    -0.01  -0.01   0.00
   9   6    -0.01  -0.00   0.10    -0.02  -0.01  -0.00    -0.01  -0.01   0.00
  10   1    -0.02  -0.00   0.06    -0.01  -0.00   0.00    -0.00  -0.00   0.00
  11   1     0.03  -0.02   0.03     0.00  -0.01   0.00    -0.00  -0.00   0.00
  12   1    -0.01   0.01   0.02    -0.01   0.00  -0.00    -0.00  -0.00   0.00
  13   6    -0.00   0.01   0.01     0.00  -0.01  -0.03     0.00  -0.02   0.00
  14   1     0.01  -0.00   0.00     0.01  -0.01  -0.01     0.00  -0.00   0.00
  15   1    -0.01  -0.00   0.01    -0.00  -0.00  -0.00     0.00  -0.01  -0.00
  16   1     0.00   0.01  -0.00     0.00   0.00  -0.01     0.00  -0.01   0.00
  17   6     0.02   0.03  -0.12    -0.01   0.00  -0.01    -0.00   0.00   0.00
  18   1    -0.00   0.02  -0.03    -0.00   0.00   0.00    -0.00   0.00  -0.00
  19   1     0.03  -0.02  -0.03    -0.01  -0.00  -0.01     0.00   0.00   0.00
  20   1     0.01   0.02  -0.06    -0.00   0.00  -0.01     0.00   0.00   0.00
  21   1     0.05   0.02   0.01     0.00   0.00  -0.00     0.06   0.00   0.02
  22   6     0.08  -0.05  -0.01     0.01   0.00   0.01    -0.06  -0.15  -0.10
  23   8     0.08  -0.15  -0.04     0.02  -0.00   0.00    -0.01   0.04  -0.06
  24   7     0.08  -0.02   0.03     0.01   0.01   0.01    -0.04  -0.52  -0.39
  25   1     0.03  -0.01   0.00     0.00   0.00   0.00    -0.01  -0.12  -0.13
  26   1     0.02  -0.00   0.01     0.00   0.00   0.00    -0.01  -0.17  -0.13
  27   7     0.05   0.05   0.03     0.01  -0.00   0.01    -0.13  -0.04   0.13
  28   1     0.02   0.01   0.00     0.00   0.00   0.00    -0.07  -0.05   0.04
  29   1     0.02  -0.01  -0.01     0.01  -0.00   0.00    -0.05   0.07   0.12
  30   6    -0.01   0.00   0.00    -0.01  -0.01   0.04     0.00   0.00   0.00
  31   8    -0.04   0.02   0.00    -0.03   0.01   0.04     0.01   0.00   0.00
  32   7    -0.01  -0.00   0.01     0.24  -0.21  -0.00     0.01  -0.00  -0.01
  33   1     0.00  -0.01   0.00    -0.30   0.24   0.03    -0.01   0.01  -0.00
  34   1     0.01  -0.01   0.00    -0.37   0.30   0.07    -0.01   0.01   0.00
  35   7     0.00  -0.01  -0.00    -0.23   0.20   0.02    -0.01   0.01   0.00
  36   1    -0.00   0.00  -0.00     0.38  -0.34   0.02     0.01  -0.01   0.00
  37   1    -0.01   0.00  -0.00     0.30  -0.25  -0.00     0.01  -0.01   0.00
  38   6     0.15  -0.09  -0.14    -0.00  -0.00  -0.00     0.04   0.11   0.05
  39   8     0.22  -0.32  -0.44    -0.01  -0.01  -0.01     0.11   0.25   0.24
  40   7     0.13   0.12   0.01     0.00  -0.01   0.01     0.04   0.13  -0.15
  41   1     0.05  -0.00  -0.05    -0.00  -0.00   0.00     0.03   0.08  -0.02
  42   1     0.02   0.07   0.05     0.00  -0.00   0.00    -0.02   0.03  -0.07
  43   7     0.11   0.01   0.00     0.00   0.00  -0.00     0.01  -0.00  -0.03
  44   1     0.01   0.06   0.07     0.00   0.00   0.00    -0.01  -0.02  -0.04
  45   1     0.04  -0.01   0.00     0.00   0.00  -0.00     0.00   0.01   0.02
  46   6    -0.17   0.04   0.10    -0.00  -0.00  -0.00    -0.02   0.10   0.06
  47   8    -0.03  -0.04   0.15    -0.01  -0.00  -0.00     0.07   0.19   0.11
  48   7    -0.26   0.20   0.26    -0.00  -0.00  -0.00    -0.09   0.11   0.12
  49   1    -0.08   0.02   0.08    -0.00  -0.00  -0.00    -0.02   0.04   0.04
  50   1    -0.09   0.03   0.06     0.00   0.00   0.00    -0.03   0.01   0.02
  51   7    -0.24   0.00  -0.06    -0.00  -0.00   0.00    -0.08  -0.01  -0.07
  52   1    -0.10   0.02  -0.03     0.00   0.00   0.00    -0.04   0.01  -0.02
  53   1    -0.05  -0.03  -0.05    -0.00   0.00   0.00    -0.00   0.01  -0.03
                     25                     26                     27
                        a                      a                      a 
 Frequencies --   185.5713               193.2261               257.3862
 Red. masses --    12.5040                10.7249                12.0128
 Frc consts  --     0.0000                 0.0000                 0.0000
 IR Inten    --    33.0238                 8.3815                19.9686
 Raman Activ --     0.0000                 0.0000                 0.0000
 Depolar     --     0.0000                 0.0000                 0.0000
 Atom AN      X      Y      Z        X      Y      Z        X      Y      Z
   1   8    -0.12   0.03   0.02    -0.30  -0.14   0.49     0.16  -0.36   0.36
   2   6    -0.03   0.04  -0.02    -0.11   0.09  -0.07     0.18  -0.25   0.13
   3   1     0.00   0.03  -0.01     0.01   0.04  -0.11     0.02  -0.11   0.08
   4   1    -0.01   0.02  -0.00    -0.08   0.14  -0.01     0.12  -0.03   0.04
   5   6     0.05  -0.07  -0.02     0.11  -0.26  -0.12    -0.04   0.02  -0.08
   6   1     0.00  -0.05  -0.02     0.00  -0.18  -0.09     0.02   0.08  -0.02
   7   1     0.05  -0.02   0.01     0.14  -0.09   0.02    -0.09   0.00  -0.03
   8   7     0.03  -0.01  -0.02     0.08   0.01  -0.11     0.01   0.08  -0.08
   9   6     0.04   0.03  -0.07     0.17   0.16  -0.30     0.04   0.04   0.02
  10   1     0.02   0.02  -0.04     0.11   0.10  -0.16     0.01   0.03   0.02
  11   1    -0.01   0.02  -0.02    -0.05   0.07  -0.10     0.02  -0.02   0.00
  12   1     0.02  -0.00  -0.01     0.11  -0.00  -0.03     0.01   0.01   0.03
  13   6    -0.01   0.03   0.01    -0.05   0.17   0.11     0.01   0.09   0.01
  14   1     0.00   0.01   0.01     0.03   0.07   0.04     0.01   0.04   0.01
  15   1    -0.00   0.02   0.01    -0.02   0.08   0.06     0.00   0.02   0.00
  16   1    -0.01   0.00   0.00    -0.07   0.03   0.03    -0.00   0.02   0.02
  17   6     0.00  -0.01   0.02     0.04   0.02  -0.05     0.10   0.11  -0.20
  18   1     0.01  -0.01  -0.01     0.05  -0.03  -0.09    -0.02   0.08   0.02
  19   1    -0.00   0.02   0.01     0.02   0.10   0.01     0.04  -0.07  -0.08
  20   1    -0.01  -0.02   0.02    -0.04  -0.05   0.05     0.08   0.10  -0.13
  21   1    -0.03   0.00   0.01    -0.04   0.01   0.10     0.06  -0.08   0.08
  22   6    -0.03  -0.02   0.00    -0.01  -0.00   0.01     0.01   0.01   0.01
  23   8    -0.05   0.03   0.04    -0.01   0.01   0.01    -0.01  -0.03   0.01
  24   7     0.00  -0.09  -0.05    -0.01   0.00   0.01     0.02   0.01   0.02
  25   1     0.00  -0.03  -0.01     0.00  -0.01   0.00    -0.01   0.03   0.01
  26   1     0.00  -0.01  -0.00     0.00  -0.00  -0.00    -0.00  -0.00   0.01
  27   7    -0.00  -0.05  -0.03    -0.01  -0.00   0.01     0.02   0.00  -0.03
  28   1    -0.02   0.04   0.02     0.00  -0.02  -0.01    -0.01   0.05   0.01
  29   1    -0.03   0.04   0.03     0.01  -0.01  -0.00    -0.01   0.02  -0.00
  30   6    -0.00  -0.00   0.00    -0.00  -0.02   0.00    -0.01   0.00   0.01
  31   8     0.00  -0.01   0.00     0.00  -0.04   0.00    -0.02   0.01   0.01
  32   7     0.00  -0.00   0.00     0.00  -0.01   0.02     0.00  -0.01   0.02
  33   1    -0.00   0.00   0.00    -0.01   0.00   0.01    -0.01   0.00   0.01
  34   1    -0.00   0.00   0.00    -0.02   0.02   0.01     0.00   0.00   0.01
  35   7     0.00  -0.00  -0.00    -0.02   0.01  -0.00    -0.00  -0.01   0.01
  36   1    -0.00   0.00  -0.00     0.02  -0.01   0.00    -0.00  -0.00   0.00
  37   1    -0.00   0.00  -0.00     0.01  -0.02  -0.00    -0.00   0.00   0.00
  38   6     0.24   0.06  -0.01     0.00  -0.03   0.00    -0.17   0.08  -0.07
  39   8     0.07   0.16   0.00     0.10  -0.09  -0.02    -0.32   0.13  -0.11
  40   7     0.31  -0.10   0.11    -0.03   0.06  -0.07    -0.10  -0.15   0.08
  41   1     0.04  -0.05   0.06     0.01   0.05  -0.01    -0.08  -0.04   0.08
  42   1     0.13  -0.05   0.03    -0.04   0.05   0.01     0.03  -0.03   0.07
  43   7     0.34   0.10  -0.13    -0.07  -0.06   0.08     0.04   0.25  -0.21
  44   1     0.11   0.01  -0.05    -0.03  -0.01   0.02     0.07   0.05  -0.05
  45   1     0.09   0.04  -0.06    -0.02  -0.03   0.03     0.00   0.10  -0.09
  46   6    -0.23  -0.03  -0.02     0.02   0.01   0.00     0.01  -0.02   0.00
  47   8    -0.46  -0.09  -0.07     0.07   0.03   0.02     0.01  -0.04   0.00
  48   7    -0.05   0.01  -0.18    -0.00   0.02   0.04     0.00  -0.02   0.01
  49   1    -0.02   0.02  -0.09    -0.00  -0.00   0.02    -0.00  -0.00  -0.01
  50   1     0.04   0.01  -0.03    -0.01  -0.00   0.01     0.00  -0.02  -0.00
  51   7    -0.16  -0.05   0.34     0.01   0.01  -0.07     0.01  -0.01   0.03
  52   1     0.05   0.04   0.11    -0.02  -0.02  -0.02     0.02   0.03   0.01
  53   1    -0.09   0.00   0.15     0.01  -0.00  -0.03     0.00   0.01   0.01
                     28                     29                     30
                        a                      a                      a 
 Frequencies --   277.9349               294.6486               303.0168
 Red. masses --     5.9930                 2.6777                 3.5056
 Frc consts  --     0.0000                 0.0000                 0.0000
 IR Inten    --     2.3667                48.7936               312.7630
 Raman Activ --     0.0000                 0.0000                 0.0000
 Depolar     --     0.0000                 0.0000                 0.0000
 Atom AN      X      Y      Z        X      Y      Z        X      Y      Z
   1   8     0.35  -0.07   0.07     0.03  -0.01  -0.04    -0.00   0.01  -0.02
   2   6    -0.07   0.06  -0.23    -0.00  -0.00  -0.06    -0.02   0.02  -0.03
   3   1     0.01  -0.03  -0.22     0.00  -0.01  -0.03    -0.00   0.00  -0.02
   4   1    -0.17   0.09  -0.07    -0.02   0.01  -0.02    -0.02   0.01  -0.01
   5   6     0.04   0.02   0.06    -0.00   0.02   0.01    -0.00  -0.00   0.01
   6   1    -0.01  -0.03   0.03    -0.00   0.01   0.01    -0.01  -0.01   0.01
   7   1     0.03   0.01   0.02    -0.01   0.01   0.00     0.00  -0.00   0.01
   8   7     0.04  -0.00   0.08    -0.00   0.01   0.02     0.01   0.00   0.02
   9   6    -0.05  -0.05   0.11    -0.02  -0.01   0.05     0.01  -0.00   0.01
  10   1     0.08   0.09  -0.09     0.01   0.02  -0.00    -0.00  -0.01   0.01
  11   1    -0.20  -0.08  -0.02    -0.03  -0.02   0.01     0.02   0.01   0.01
  12   1     0.06  -0.06   0.22     0.01  -0.01   0.05    -0.00   0.00  -0.01
  13   6     0.03  -0.03  -0.13     0.01  -0.00  -0.03     0.00   0.01  -0.02
  14   1     0.07  -0.14  -0.04     0.02  -0.04  -0.01    -0.04   0.03  -0.01
  15   1    -0.02   0.06   0.05    -0.01   0.02   0.02     0.02  -0.01  -0.04
  16   1    -0.03   0.04  -0.18    -0.01   0.01  -0.05     0.02  -0.01   0.03
  17   6    -0.07  -0.01   0.24    -0.02   0.01   0.04     0.00  -0.00   0.03
  18   1     0.10  -0.11  -0.16     0.02  -0.02  -0.04     0.00  -0.00   0.01
  19   1    -0.01   0.27   0.14    -0.00   0.07   0.03    -0.01  -0.00   0.01
  20   1    -0.17  -0.18   0.26    -0.04  -0.04   0.06     0.00  -0.00   0.01
  21   1     0.07   0.02   0.11     0.01  -0.01  -0.02     0.00   0.00  -0.01
  22   6    -0.00   0.00   0.00     0.02  -0.02  -0.01    -0.04   0.05   0.02
  23   8    -0.01  -0.01   0.00     0.01  -0.01  -0.00    -0.01  -0.01  -0.01
  24   7     0.00   0.00   0.01     0.00  -0.00   0.01    -0.02   0.06   0.03
  25   1    -0.00   0.01   0.01     0.01  -0.00  -0.00     0.01  -0.01  -0.01
  26   1     0.00  -0.00   0.00    -0.00  -0.00   0.00     0.02  -0.02  -0.04
  27   7     0.01  -0.01  -0.02    -0.05   0.10   0.05     0.15  -0.28  -0.15
  28   1    -0.01   0.04   0.01     0.08  -0.18  -0.09    -0.25   0.54   0.28
  29   1    -0.01   0.02   0.00     0.06  -0.11  -0.07    -0.17   0.30   0.20
  30   6     0.01  -0.00  -0.00     0.00  -0.00  -0.00     0.01  -0.01  -0.00
  31   8     0.02  -0.01  -0.01     0.00  -0.00  -0.00     0.00  -0.00  -0.00
  32   7    -0.00   0.01  -0.01    -0.00   0.00  -0.00    -0.03   0.02   0.01
  33   1     0.01  -0.00  -0.01     0.01  -0.00  -0.00     0.03  -0.02  -0.00
  34   1    -0.00  -0.00  -0.00     0.01  -0.01  -0.00     0.05  -0.04  -0.01
  35   7     0.00   0.00  -0.00    -0.00   0.00  -0.00    -0.03   0.03  -0.01
  36   1    -0.00   0.00  -0.00     0.00  -0.00  -0.00     0.05  -0.04   0.00
  37   1    -0.00   0.00  -0.00     0.00  -0.00  -0.00     0.03  -0.02  -0.00
  38   6    -0.09   0.02  -0.06    -0.01   0.04   0.05    -0.01  -0.02   0.01
  39   8    -0.14   0.03  -0.08    -0.02   0.01  -0.01     0.02  -0.05  -0.02
  40   7    -0.07  -0.02   0.09     0.06  -0.19  -0.23    -0.00  -0.03  -0.09
  41   1    -0.02  -0.08  -0.04    -0.07   0.27   0.35    -0.02   0.10   0.10
  42   1     0.02  -0.09  -0.07    -0.08   0.42   0.57    -0.05   0.16   0.19
  43   7     0.01   0.13  -0.10     0.01  -0.01  -0.01    -0.02  -0.02   0.04
  44   1     0.03   0.05   0.01     0.02  -0.12  -0.16    -0.00  -0.06  -0.06
  45   1     0.00   0.06  -0.03     0.00  -0.04  -0.06    -0.00  -0.04  -0.02
  46   6     0.01  -0.01   0.00    -0.01  -0.01  -0.00     0.04   0.04   0.01
  47   8     0.01  -0.02   0.01    -0.01   0.01  -0.00     0.04   0.03   0.02
  48   7    -0.00  -0.01   0.01     0.00   0.02   0.01     0.00  -0.00   0.02
  49   1    -0.00   0.00  -0.00    -0.01  -0.01  -0.01    -0.00  -0.02   0.00
  50   1    -0.00  -0.01  -0.00    -0.01  -0.04  -0.02    -0.01  -0.01  -0.00
  51   7    -0.00  -0.01  -0.00     0.02   0.04   0.03    -0.05  -0.14  -0.06
  52   1     0.01   0.03   0.00    -0.01  -0.09   0.00     0.05   0.29   0.00
  53   1     0.01   0.01  -0.00    -0.02  -0.04   0.01     0.06   0.13  -0.00
                     31                     32                     33
                        a                      a                      a 
 Frequencies --   313.5772               321.2227               328.1306
 Red. masses --     9.6621                 3.5283                 3.9151
 Frc consts  --     0.0000                 0.0000                 0.0000
 IR Inten    --     1.6634               598.0114                12.5912
 Raman Activ --     0.0000                 0.0000                 0.0000
 Depolar     --     0.0000                 0.0000                 0.0000
 Atom AN      X      Y      Z        X      Y      Z        X      Y      Z
   1   8     0.38   0.24   0.04    -0.05  -0.00  -0.03     0.14  -0.06   0.12
   2   6     0.01   0.15   0.11     0.01  -0.02   0.03    -0.13   0.08  -0.22
   3   1    -0.00   0.01   0.01    -0.00  -0.00   0.03    -0.01  -0.00  -0.20
   4   1    -0.01   0.05   0.03     0.03  -0.02   0.01    -0.17   0.11  -0.06
   5   6    -0.04   0.06   0.02    -0.01   0.01  -0.01     0.02  -0.03   0.03
   6   1    -0.01   0.01   0.00    -0.00   0.01  -0.00    -0.02  -0.04   0.03
   7   1     0.02   0.04  -0.04    -0.01   0.00  -0.00     0.02  -0.01   0.02
   8   7    -0.09  -0.14  -0.02    -0.01   0.02  -0.01     0.07  -0.01   0.04
   9   6    -0.09   0.02  -0.34    -0.01   0.01   0.01     0.09   0.03  -0.02
  10   1    -0.06  -0.08  -0.09     0.02   0.03  -0.02    -0.07  -0.10   0.11
  11   1     0.03   0.12  -0.07    -0.03  -0.02  -0.01     0.20   0.08   0.04
  12   1    -0.05   0.02  -0.22     0.01  -0.01   0.04    -0.04   0.05  -0.18
  13   6    -0.00  -0.17   0.43    -0.00   0.01  -0.01    -0.00   0.02  -0.14
  14   1     0.06   0.05   0.15     0.07  -0.07   0.00    -0.29   0.24  -0.07
  15   1    -0.03  -0.12   0.14    -0.03   0.04   0.08     0.13  -0.14  -0.36
  16   1     0.00  -0.08   0.20    -0.04   0.03  -0.09     0.15  -0.09   0.28
  17   6    -0.05  -0.21  -0.15     0.00   0.03  -0.02    -0.07  -0.08   0.24
  18   1     0.05  -0.11  -0.14    -0.00   0.01  -0.01    -0.06   0.01   0.20
  19   1     0.03   0.03  -0.01     0.01   0.01  -0.00    -0.10  -0.13   0.02
  20   1    -0.11  -0.12  -0.01    -0.00   0.01  -0.00     0.06   0.04   0.02
  21   1     0.10   0.07   0.03    -0.01  -0.01  -0.02     0.05   0.03   0.07
  22   6     0.01   0.01   0.00    -0.00   0.00  -0.00     0.00   0.01   0.00
  23   8     0.00   0.01   0.00     0.01  -0.01  -0.01    -0.00   0.02   0.01
  24   7    -0.00   0.01  -0.01    -0.01   0.01   0.00     0.01  -0.00   0.00
  25   1    -0.00   0.01  -0.00     0.00  -0.00  -0.00    -0.00   0.00   0.01
  26   1    -0.00  -0.00  -0.00     0.00  -0.01  -0.01     0.00  -0.00   0.00
  27   7     0.01  -0.00  -0.00     0.02  -0.03  -0.01    -0.01   0.02   0.01
  28   1    -0.00   0.01   0.00    -0.03   0.07   0.04     0.02  -0.05  -0.03
  29   1     0.00   0.00   0.00    -0.02   0.03   0.02     0.02  -0.02  -0.01
  30   6    -0.01  -0.00  -0.00    -0.09   0.08   0.01    -0.01   0.01  -0.00
  31   8    -0.01  -0.01  -0.00    -0.02  -0.01  -0.00     0.01  -0.02  -0.00
  32   7     0.01  -0.02   0.00     0.23  -0.18  -0.05     0.05  -0.03  -0.02
  33   1    -0.02   0.01   0.01    -0.22   0.17   0.02    -0.04   0.03   0.00
  34   1    -0.03   0.02   0.01    -0.41   0.36   0.07    -0.09   0.08   0.01
  35   7     0.01  -0.01  -0.01     0.21  -0.19   0.03     0.04  -0.03   0.01
  36   1    -0.02   0.03  -0.00    -0.39   0.38  -0.01    -0.08   0.08  -0.00
  37   1    -0.02   0.01  -0.01    -0.22   0.17  -0.00    -0.04   0.03  -0.00
  38   6    -0.05   0.01  -0.02     0.01  -0.01   0.01    -0.04   0.01  -0.02
  39   8    -0.08   0.01  -0.03     0.02  -0.01   0.01    -0.05   0.01  -0.03
  40   7    -0.03  -0.06   0.02     0.01   0.01  -0.02    -0.03  -0.04   0.02
  41   1    -0.02  -0.01   0.03     0.00   0.02   0.01    -0.02  -0.01   0.02
  42   1     0.00   0.01   0.05    -0.01   0.03   0.02     0.00   0.00   0.03
  43   7     0.01   0.07  -0.05    -0.01  -0.02   0.02     0.01   0.06  -0.04
  44   1     0.02   0.01  -0.02    -0.01  -0.02  -0.01     0.02   0.01  -0.01
  45   1     0.00   0.03  -0.03    -0.00  -0.01   0.00     0.00   0.02  -0.02
  46   6     0.00  -0.00  -0.00     0.01   0.01   0.00    -0.00  -0.01  -0.00
  47   8     0.00  -0.01  -0.00     0.01   0.01   0.01    -0.00  -0.01  -0.00
  48   7     0.00   0.01   0.01     0.00   0.00   0.00     0.00   0.01   0.01
  49   1    -0.00  -0.01  -0.00     0.00  -0.00  -0.00    -0.00  -0.01  -0.00
  50   1    -0.00  -0.02  -0.01    -0.00  -0.01  -0.00    -0.00  -0.03  -0.01
  51   7    -0.00  -0.01   0.01    -0.01  -0.03  -0.01     0.01   0.01   0.01
  52   1     0.01   0.02   0.00     0.01   0.06   0.00     0.00  -0.01   0.00
  53   1     0.00   0.01   0.00     0.01   0.02  -0.00    -0.00  -0.01   0.00
                     34                     35                     36
                        a                      a                      a 
 Frequencies --   358.5429               368.2459               373.8195
 Red. masses --     5.0561                 2.3946                 4.8163
 Frc consts  --     0.0000                 0.0000                 0.0000
 IR Inten    --     1.2281                81.6675                 1.4214
 Raman Activ --     0.0000                 0.0000                 0.0000
 Depolar     --     0.0000                 0.0000                 0.0000
 Atom AN      X      Y      Z        X      Y      Z        X      Y      Z
   1   8     0.23   0.10  -0.05    -0.04  -0.01  -0.00     0.05   0.03  -0.01
   2   6    -0.02   0.13  -0.15     0.02  -0.01   0.01    -0.16  -0.00   0.06
   3   1     0.04   0.05  -0.16     0.00   0.00   0.01    -0.08  -0.04   0.05
   4   1    -0.14   0.07  -0.04     0.02  -0.01   0.00    -0.02  -0.01   0.02
   5   6     0.20  -0.20   0.08     0.01  -0.00  -0.01    -0.23   0.12  -0.00
   6   1     0.03  -0.19  -0.06     0.01   0.00  -0.01    -0.07   0.08   0.06
   7   1     0.20  -0.07   0.10    -0.00  -0.00  -0.00    -0.12   0.06  -0.06
   8   7    -0.03  -0.06   0.08    -0.00   0.01  -0.01     0.00  -0.05  -0.00
   9   6    -0.18  -0.12   0.06    -0.00  -0.00   0.02     0.22   0.15  -0.23
  10   1    -0.01  -0.01  -0.06    -0.03  -0.03   0.05     0.23   0.24  -0.27
  11   1    -0.14  -0.08  -0.01     0.05   0.00   0.02    -0.23   0.04  -0.12
  12   1    -0.05  -0.03   0.12    -0.03   0.02  -0.04     0.24  -0.09   0.14
  13   6    -0.22   0.11   0.11    -0.00   0.01  -0.02     0.16  -0.20  -0.02
  14   1     0.03  -0.03   0.04     0.00   0.00  -0.00     0.07  -0.11  -0.01
  15   1    -0.09   0.14   0.14    -0.00   0.01  -0.00     0.02  -0.08   0.03
  16   1    -0.18   0.04  -0.08    -0.00   0.00  -0.01     0.09  -0.02  -0.05
  17   6     0.08  -0.00  -0.08    -0.00   0.02  -0.01    -0.10  -0.06   0.19
  18   1    -0.13   0.14   0.22     0.02  -0.01  -0.05    -0.11   0.06   0.31
  19   1     0.03  -0.32  -0.10     0.01   0.05   0.01    -0.14  -0.23  -0.02
  20   1     0.21   0.22  -0.25    -0.03  -0.03   0.03     0.13   0.12  -0.06
  21   1     0.04   0.04   0.05    -0.01  -0.00  -0.01     0.02   0.02   0.01
  22   6    -0.00   0.00  -0.01     0.01  -0.03  -0.01     0.00  -0.01   0.00
  23   8     0.00   0.01  -0.00     0.02  -0.02  -0.01     0.00  -0.01   0.00
  24   7    -0.00   0.00   0.00     0.00   0.01   0.03     0.00   0.00   0.01
  25   1     0.00  -0.01   0.00     0.00   0.00   0.00     0.00   0.00  -0.00
  26   1     0.00   0.01   0.00    -0.00  -0.00   0.00     0.00  -0.01  -0.00
  27   7    -0.01   0.01   0.01    -0.05   0.11   0.05    -0.01   0.02   0.00
  28   1     0.01  -0.02  -0.01     0.09  -0.21  -0.11     0.01  -0.02  -0.01
  29   1     0.01  -0.01  -0.01     0.05  -0.10  -0.07     0.01  -0.01  -0.01
  30   6     0.00   0.01   0.00     0.00  -0.00  -0.00     0.01   0.01   0.00
  31   8    -0.00   0.02   0.00    -0.00  -0.00  -0.00     0.01   0.00   0.00
  32   7     0.00   0.00  -0.01    -0.01   0.01   0.01    -0.00   0.01  -0.01
  33   1     0.00   0.00  -0.00     0.01  -0.01   0.00     0.01   0.00  -0.01
  34   1     0.01  -0.01  -0.01     0.02  -0.01  -0.00     0.02  -0.02  -0.01
  35   7    -0.00   0.00   0.01    -0.01   0.01  -0.00    -0.00   0.01   0.01
  36   1     0.00  -0.01   0.00     0.01  -0.01  -0.00     0.01  -0.01   0.00
  37   1     0.00  -0.00   0.00     0.01  -0.00   0.00     0.01  -0.01   0.00
  38   6    -0.02  -0.00  -0.01    -0.00  -0.00   0.03     0.00  -0.00   0.00
  39   8    -0.02  -0.01  -0.01     0.00  -0.00   0.03     0.00  -0.01  -0.00
  40   7    -0.01  -0.01  -0.00    -0.02   0.02  -0.02    -0.00   0.00  -0.01
  41   1    -0.01  -0.00   0.00     0.01   0.01  -0.02     0.00   0.00  -0.00
  42   1    -0.01   0.02   0.03    -0.01  -0.02  -0.04    -0.01   0.01   0.01
  43   7     0.00   0.02  -0.01    -0.00  -0.01   0.01     0.00   0.00   0.00
  44   1     0.01   0.00  -0.01    -0.00   0.02   0.03     0.00  -0.01  -0.01
  45   1     0.00   0.01  -0.01     0.00  -0.00   0.00     0.00  -0.00  -0.00
  46   6     0.00  -0.00  -0.00     0.02  -0.00  -0.04     0.00  -0.00  -0.00
  47   8     0.00  -0.00   0.00     0.01   0.01  -0.03     0.00  -0.00  -0.00
  48   7     0.00   0.01   0.01     0.02   0.12   0.07     0.00   0.01   0.01
  49   1    -0.00  -0.01  -0.00    -0.02  -0.04  -0.03    -0.00   0.01  -0.00
  50   1    -0.01  -0.04  -0.02    -0.09  -0.46  -0.19    -0.01  -0.06  -0.02
  51   7    -0.01  -0.02  -0.00    -0.05  -0.23   0.02    -0.01  -0.02   0.00
  52   1     0.01   0.06   0.00     0.17   0.69   0.05     0.02   0.08   0.01
  53   1     0.01   0.01  -0.00     0.08   0.12   0.00     0.01   0.01  -0.00
                     37                     38                     39
                        a                      a                      a 
 Frequencies --   383.8645               414.4030               427.6903
 Red. masses --     2.6751                 3.8360                 8.5635
 Frc consts  --     0.0000                 0.0000                 0.0000
 IR Inten    --     1.6449               122.6351                 0.1137
 Raman Activ --     0.0000                 0.0000                 0.0000
 Depolar     --     0.0000                 0.0000                 0.0000
 Atom AN      X      Y      Z        X      Y      Z        X      Y      Z
   1   8     0.04  -0.02   0.09     0.00   0.01  -0.01    -0.15  -0.17   0.04
   2   6    -0.08   0.01  -0.01     0.00   0.00   0.01     0.05  -0.04  -0.16
   3   1    -0.03  -0.02  -0.02    -0.00   0.00   0.01     0.03  -0.00  -0.07
   4   1    -0.04   0.03  -0.00     0.00  -0.00   0.00    -0.01   0.01  -0.05
   5   6    -0.06  -0.01  -0.01    -0.00  -0.01  -0.00     0.07   0.10   0.03
   6   1    -0.03   0.00   0.03     0.00  -0.01  -0.01     0.03   0.05   0.02
   7   1    -0.02   0.01  -0.03     0.00  -0.00   0.00    -0.04   0.01   0.03
   8   7     0.03  -0.08  -0.02    -0.02  -0.01  -0.01     0.15   0.29   0.09
   9   6     0.17   0.04  -0.12     0.01  -0.01   0.01    -0.33   0.18  -0.03
  10   1    -0.13  -0.16   0.20     0.01   0.01   0.00    -0.12  -0.08  -0.04
  11   1     0.38   0.14   0.05     0.00  -0.00   0.00    -0.09   0.05  -0.01
  12   1    -0.06   0.08  -0.38     0.01  -0.01   0.01    -0.19   0.14  -0.02
  13   6    -0.01  -0.05  -0.10    -0.01  -0.01   0.00     0.32   0.13   0.05
  14   1     0.23  -0.27  -0.02    -0.00  -0.00   0.00     0.17  -0.05   0.02
  15   1    -0.10   0.16   0.26    -0.00  -0.00   0.00     0.04   0.02   0.10
  16   1    -0.15   0.09  -0.36    -0.01  -0.00  -0.00     0.11   0.08  -0.08
  17   6    -0.05   0.05   0.22    -0.01   0.02  -0.01    -0.06  -0.40   0.02
  18   1    -0.06   0.06   0.14    -0.01   0.01  -0.01     0.09  -0.21   0.14
  19   1    -0.08  -0.02   0.04     0.00   0.01  -0.00    -0.07  -0.24  -0.04
  20   1     0.07   0.05   0.08     0.00   0.01   0.00    -0.12  -0.10  -0.12
  21   1     0.04   0.02   0.00     0.00   0.00  -0.00    -0.03  -0.04  -0.00
  22   6     0.01   0.00  -0.01     0.00  -0.00  -0.03     0.00   0.00  -0.00
  23   8     0.01  -0.00  -0.01    -0.01  -0.01  -0.02    -0.00  -0.00  -0.00
  24   7    -0.00   0.01  -0.01     0.01   0.03   0.04     0.00   0.00   0.00
  25   1     0.00  -0.00  -0.00    -0.01   0.03  -0.00    -0.00   0.01  -0.00
  26   1    -0.00   0.01   0.00     0.04  -0.10  -0.11     0.00  -0.02  -0.02
  27   7     0.01  -0.01   0.00     0.01  -0.07   0.01     0.00  -0.00   0.00
  28   1    -0.01   0.02   0.01    -0.10   0.19   0.11    -0.01   0.02   0.01
  29   1     0.00   0.00   0.00    -0.00  -0.01   0.01     0.00  -0.01  -0.00
  30   6    -0.01   0.00  -0.00     0.00   0.00   0.00     0.00   0.00   0.01
  31   8    -0.01   0.01  -0.00    -0.00  -0.00  -0.00    -0.00  -0.00   0.01
  32   7    -0.01   0.01   0.00     0.00   0.00  -0.00    -0.01  -0.01  -0.02
  33   1    -0.00   0.00  -0.00     0.01  -0.01   0.00    -0.01   0.02  -0.02
  34   1     0.04  -0.04  -0.01    -0.01   0.01   0.00     0.02  -0.04  -0.01
  35   7    -0.01   0.01  -0.01     0.00  -0.00   0.00     0.01   0.02  -0.00
  36   1     0.02  -0.02  -0.00     0.00  -0.01   0.00    -0.00   0.02   0.00
  37   1     0.01  -0.01  -0.00    -0.00   0.00   0.00     0.02  -0.01  -0.01
  38   6    -0.02   0.00  -0.00    -0.00   0.04   0.07     0.01   0.01   0.01
  39   8    -0.02   0.00  -0.00     0.00   0.02   0.05     0.01   0.01   0.00
  40   7    -0.02  -0.02   0.02     0.00  -0.02  -0.06     0.01   0.00  -0.01
  41   1    -0.01  -0.01   0.01     0.01   0.02  -0.00     0.00   0.00   0.00
  42   1     0.00  -0.01   0.00    -0.01  -0.00  -0.02     0.00  -0.00  -0.01
  43   7     0.00   0.02  -0.02     0.02  -0.06  -0.07    -0.00  -0.02  -0.00
  44   1     0.01   0.01  -0.00    -0.02   0.15   0.21    -0.01   0.02   0.03
  45   1    -0.00   0.01  -0.01     0.00   0.02   0.02    -0.00  -0.00   0.01
  46   6    -0.00  -0.00   0.00    -0.01  -0.09  -0.08    -0.00  -0.00  -0.00
  47   8    -0.00  -0.00  -0.00    -0.04  -0.10  -0.09    -0.00  -0.00  -0.00
  48   7    -0.00  -0.00  -0.00    -0.00   0.25   0.16     0.00   0.01   0.00
  49   1    -0.00  -0.01   0.00    -0.04  -0.02  -0.02    -0.00  -0.00   0.00
  50   1     0.00   0.02   0.01    -0.11  -0.63  -0.24    -0.00  -0.02  -0.01
  51   7     0.00   0.01   0.00     0.11   0.21   0.03     0.00   0.01   0.00
  52   1    -0.00  -0.03  -0.00    -0.01  -0.40  -0.00     0.00  -0.01  -0.00
  53   1    -0.00  -0.00   0.00    -0.05  -0.03   0.05    -0.00  -0.00   0.00
                     40                     41                     42
                        a                      a                      a 
 Frequencies --   444.7998               445.6006               454.7167
 Red. masses --     1.7329                 3.2833                 8.2802
 Frc consts  --     0.0000                 0.0000                 0.0000
 IR Inten    --    11.6828               259.3158                 4.5703
 Raman Activ --     0.0000                 0.0000                 0.0000
 Depolar     --     0.0000                 0.0000                 0.0000
 Atom AN      X      Y      Z        X      Y      Z        X      Y      Z
   1   8     0.01   0.01  -0.00    -0.00  -0.00  -0.00     0.03   0.01  -0.01
   2   6     0.01   0.01  -0.01     0.00  -0.00   0.01    -0.07  -0.03   0.08
   3   1     0.00   0.00   0.00     0.00   0.00   0.00    -0.01  -0.01   0.00
   4   1     0.01   0.00  -0.00     0.00  -0.01   0.00    -0.05  -0.03   0.02
   5   6     0.00  -0.00  -0.02     0.00  -0.01   0.00    -0.02  -0.06   0.15
   6   1     0.00  -0.00  -0.01     0.00  -0.00  -0.00    -0.01  -0.06   0.02
   7   1     0.00  -0.00  -0.01     0.01  -0.00   0.00     0.04  -0.02   0.07
   8   7    -0.02  -0.01  -0.02    -0.00   0.01  -0.00    -0.03   0.03   0.12
   9   6     0.02  -0.02   0.02    -0.00   0.01   0.00    -0.02   0.12  -0.04
  10   1     0.01   0.01   0.01    -0.00  -0.00   0.00    -0.00   0.02  -0.03
  11   1     0.01  -0.02   0.00     0.00   0.00   0.00    -0.01   0.08  -0.00
  12   1     0.01  -0.01   0.01    -0.00   0.00  -0.00     0.00   0.03  -0.05
  13   6    -0.02  -0.01   0.02     0.01   0.00  -0.01     0.01  -0.04  -0.13
  14   1    -0.01   0.01   0.01     0.00  -0.00  -0.00    -0.04  -0.06  -0.05
  15   1    -0.00  -0.01  -0.00     0.00  -0.00  -0.00     0.02  -0.01  -0.06
  16   1    -0.00  -0.01   0.02     0.00   0.00  -0.00     0.04   0.02  -0.07
  17   6    -0.02   0.03   0.00    -0.00  -0.00  -0.01     0.07  -0.02  -0.09
  18   1    -0.01   0.01  -0.01     0.00  -0.00  -0.01     0.03  -0.02  -0.06
  19   1    -0.01   0.02   0.00     0.00   0.00  -0.00     0.08  -0.01  -0.01
  20   1     0.00   0.00   0.01    -0.01  -0.00  -0.00    -0.02  -0.01  -0.06
  21   1     0.00   0.00  -0.00    -0.01   0.00   0.01     0.01   0.01  -0.00
  22   6     0.00  -0.00   0.01    -0.01   0.00  -0.03    -0.00   0.01  -0.01
  23   8     0.01  -0.00   0.01    -0.02   0.01  -0.03    -0.02   0.00  -0.01
  24   7    -0.02  -0.00  -0.00     0.05   0.00   0.01     0.02   0.01  -0.00
  25   1     0.01  -0.01  -0.01    -0.03   0.06   0.05     0.02  -0.04   0.00
  26   1    -0.01   0.01   0.01     0.02  -0.06  -0.06     0.01   0.05   0.04
  27   7     0.01   0.00  -0.01    -0.02  -0.01   0.04     0.00  -0.02   0.01
  28   1     0.01   0.00  -0.01    -0.04   0.02   0.03    -0.01  -0.04  -0.00
  29   1    -0.01   0.00  -0.01     0.02  -0.03  -0.00    -0.00   0.03   0.04
  30   6    -0.01  -0.01   0.06    -0.00  -0.00   0.01     0.03   0.06  -0.28
  31   8    -0.01  -0.02   0.07    -0.00  -0.00   0.01     0.04   0.06  -0.30
  32   7     0.04  -0.11  -0.04     0.01  -0.03  -0.01     0.22   0.15   0.27
  33   1    -0.34   0.35  -0.07    -0.09   0.10  -0.02    -0.14   0.01   0.24
  34   1     0.25  -0.37  -0.09     0.07  -0.10  -0.02     0.27   0.12   0.11
  35   7    -0.03   0.12  -0.01    -0.01   0.03   0.00    -0.26  -0.24   0.13
  36   1    -0.25   0.38   0.01    -0.07   0.10   0.00    -0.28  -0.14  -0.02
  37   1     0.35  -0.30  -0.12     0.10  -0.08  -0.03     0.08  -0.12   0.25
  38   6    -0.00   0.03   0.03     0.01  -0.10  -0.11    -0.01   0.00   0.00
  39   8     0.00   0.01   0.01    -0.01  -0.04  -0.04     0.00  -0.00   0.00
  40   7     0.01  -0.03  -0.04    -0.03   0.13   0.13    -0.01  -0.01   0.00
  41   1    -0.00   0.01   0.02     0.02  -0.04  -0.06    -0.00  -0.00  -0.00
  42   1    -0.00   0.02   0.03     0.00  -0.06  -0.10    -0.00   0.01   0.01
  43   7     0.00  -0.04  -0.06    -0.01   0.16   0.22     0.00   0.00  -0.01
  44   1    -0.02   0.13   0.17     0.09  -0.49  -0.63     0.00   0.01   0.01
  45   1     0.00   0.00   0.01    -0.00  -0.00  -0.04     0.00   0.01  -0.00
  46   6    -0.00  -0.00   0.01     0.01   0.01  -0.06    -0.00  -0.00   0.01
  47   8    -0.01   0.00   0.01     0.03  -0.01  -0.07    -0.01  -0.00   0.01
  48   7     0.02  -0.01  -0.02    -0.08   0.05   0.07     0.02   0.00  -0.00
  49   1     0.00  -0.01  -0.01    -0.01   0.05   0.05     0.00   0.00  -0.01
  50   1     0.02   0.04   0.02    -0.08  -0.17  -0.07     0.01  -0.02  -0.01
  51   7    -0.01  -0.01  -0.01     0.06   0.02   0.06    -0.01   0.01  -0.01
  52   1    -0.01   0.03  -0.01     0.06  -0.12   0.03    -0.02  -0.00  -0.01
  53   1     0.01  -0.01  -0.02    -0.03   0.03   0.08     0.00  -0.01  -0.01
                     43                     44                     45
                        a                      a                      a 
 Frequencies --   456.9867               465.2357               466.7047
 Red. masses --     3.5107                 8.1554                 6.8497
 Frc consts  --     0.0000                 0.0000                 0.0000
 IR Inten    --    13.9749                10.1762                48.6500
 Raman Activ --     0.0000                 0.0000                 0.0000
 Depolar     --     0.0000                 0.0000                 0.0000
 Atom AN      X      Y      Z        X      Y      Z        X      Y      Z
   1   8    -0.00   0.00   0.00    -0.01  -0.00   0.00     0.02   0.02  -0.01
   2   6    -0.01  -0.00   0.01    -0.02  -0.02   0.02    -0.07  -0.03   0.08
   3   1    -0.00  -0.00  -0.00    -0.01  -0.01   0.02    -0.02  -0.01   0.02
   4   1    -0.01   0.00   0.00     0.00  -0.01   0.01    -0.03  -0.03   0.02
   5   6    -0.02   0.03   0.01    -0.06   0.07   0.02    -0.04  -0.03   0.12
   6   1    -0.00   0.03   0.03    -0.01   0.08   0.07    -0.02  -0.03   0.03
   7   1    -0.03   0.02  -0.02    -0.08   0.04  -0.05     0.01  -0.01   0.04
   8   7     0.06  -0.05   0.02     0.13  -0.09   0.02     0.02  -0.00   0.09
   9   6    -0.02  -0.05  -0.05    -0.06  -0.10  -0.11    -0.02   0.06  -0.06
  10   1    -0.00  -0.03  -0.03    -0.01  -0.07  -0.08     0.00  -0.01  -0.05
  11   1    -0.02  -0.00  -0.02    -0.06  -0.01  -0.04    -0.02   0.05  -0.01
  12   1    -0.01  -0.01  -0.01    -0.04  -0.00  -0.02    -0.01   0.02  -0.04
  13   6    -0.04   0.05  -0.00    -0.07   0.12  -0.01    -0.01   0.01  -0.11
  14   1    -0.03   0.02  -0.00    -0.04   0.05  -0.01    -0.04  -0.03  -0.04
  15   1     0.00   0.04  -0.01     0.01   0.10  -0.02     0.02   0.03  -0.06
  16   1    -0.04   0.00   0.01    -0.08   0.01   0.00     0.01   0.02  -0.05
  17   6     0.07  -0.00   0.03     0.16  -0.02   0.07     0.11  -0.02  -0.06
  18   1     0.01   0.01   0.00     0.03   0.00   0.01     0.04  -0.01  -0.05
  19   1     0.02   0.01   0.01     0.04   0.01   0.02     0.07   0.00  -0.00
  20   1     0.03  -0.00   0.02     0.05  -0.01   0.04     0.00  -0.01  -0.03
  21   1    -0.00  -0.00  -0.00    -0.00  -0.00  -0.00     0.01   0.01  -0.01
  22   6    -0.03   0.03  -0.04    -0.05   0.08  -0.18    -0.02   0.06  -0.14
  23   8     0.00   0.01  -0.08    -0.18  -0.00  -0.16    -0.16  -0.02  -0.11
  24   7     0.09   0.02   0.11     0.27   0.10   0.07     0.20   0.09   0.02
  25   1    -0.14   0.28   0.08     0.03   0.04   0.12     0.08  -0.08   0.08
  26   1     0.08  -0.44  -0.38     0.16  -0.03  -0.10     0.10   0.18   0.09
  27   7    -0.09   0.05   0.10    -0.08  -0.12   0.19    -0.03  -0.12   0.12
  28   1    -0.08   0.16   0.09    -0.17  -0.16   0.08    -0.09  -0.29  -0.00
  29   1     0.12  -0.29  -0.20     0.11   0.01   0.22     0.03   0.20   0.33
  30   6     0.00   0.01  -0.04    -0.00  -0.00   0.01    -0.01  -0.01   0.06
  31   8     0.01   0.01  -0.04    -0.00  -0.00   0.01    -0.01  -0.01   0.07
  32   7     0.03   0.02   0.03    -0.01  -0.01  -0.01    -0.04  -0.04  -0.05
  33   1    -0.01  -0.00   0.03    -0.00   0.01  -0.01     0.02   0.01  -0.05
  34   1     0.03   0.02   0.01    -0.00  -0.01  -0.01    -0.05  -0.03  -0.02
  35   7    -0.03  -0.03   0.01     0.01   0.01  -0.00     0.05   0.05  -0.02
  36   1    -0.03  -0.02  -0.00     0.00   0.01   0.00     0.05   0.04   0.01
  37   1     0.00  -0.01   0.03     0.01  -0.01  -0.01    -0.01   0.01  -0.05
  38   6     0.01   0.02   0.01     0.02   0.10  -0.09    -0.04  -0.07   0.06
  39   8    -0.00   0.01   0.00     0.09   0.09  -0.07    -0.06  -0.08   0.05
  40   7     0.02  -0.01  -0.03     0.08  -0.10   0.10    -0.09   0.06  -0.09
  41   1     0.00  -0.00  -0.00    -0.06  -0.11   0.05     0.04   0.07  -0.04
  42   1     0.00   0.02   0.02     0.13  -0.04   0.06    -0.10   0.05  -0.02
  43   7    -0.01  -0.04  -0.02    -0.17  -0.03   0.02     0.13   0.03  -0.05
  44   1    -0.03   0.08   0.11    -0.11  -0.02  -0.04     0.09   0.07   0.10
  45   1    -0.00  -0.02   0.00    -0.04  -0.05   0.06     0.03   0.05  -0.05
  46   6     0.02   0.02  -0.13    -0.01  -0.03   0.13     0.01   0.03  -0.16
  47   8     0.09   0.03  -0.11    -0.12  -0.00   0.11     0.14   0.01  -0.14
  48   7    -0.18  -0.06   0.01     0.18  -0.03  -0.05    -0.22   0.01   0.05
  49   1    -0.02  -0.01   0.12     0.04   0.06  -0.09    -0.04  -0.03   0.11
  50   1    -0.10   0.24   0.08     0.12  -0.09  -0.02    -0.15   0.10   0.02
  51   7     0.08  -0.10   0.13    -0.07   0.09  -0.11     0.10  -0.08   0.16
  52   1     0.15   0.07   0.07    -0.15   0.09  -0.06     0.18  -0.06   0.08
  53   1    -0.03   0.04   0.13     0.03  -0.15  -0.19    -0.06   0.06   0.18
                     46                     47                     48
                        a                      a                      a 
 Frequencies --   468.7398               475.5222               489.3018
 Red. masses --     7.6278                 8.2668                 3.3481
 Frc consts  --     0.0000                 0.0000                 0.0000
 IR Inten    --    20.0111                27.7636                24.6662
 Raman Activ --     0.0000                 0.0000                 0.0000
 Depolar     --     0.0000                 0.0000                 0.0000
 Atom AN      X      Y      Z        X      Y      Z        X      Y      Z
   1   8     0.10   0.03  -0.01    -0.01   0.00  -0.02    -0.01   0.00  -0.01
   2   6    -0.11  -0.04   0.15    -0.13  -0.06   0.13    -0.00   0.00   0.00
   3   1    -0.01  -0.00   0.00    -0.04  -0.03   0.03    -0.00   0.00   0.00
   4   1    -0.08  -0.04   0.04    -0.05  -0.04   0.03     0.00  -0.00  -0.00
   5   6     0.02  -0.19   0.22    -0.11   0.06   0.22    -0.00   0.00   0.00
   6   1    -0.01  -0.19  -0.05    -0.03   0.08   0.14     0.00   0.00   0.00
   7   1     0.16  -0.09   0.17    -0.11   0.04  -0.01    -0.00   0.00  -0.00
   8   7    -0.18   0.13   0.16     0.19  -0.12   0.18     0.00  -0.00   0.00
   9   6     0.06   0.30   0.05    -0.13  -0.04  -0.26    -0.00  -0.00  -0.00
  10   1     0.01   0.10   0.03    -0.01  -0.10  -0.17    -0.00  -0.00  -0.00
  11   1     0.06   0.14   0.03    -0.11   0.08  -0.07     0.00   0.00  -0.00
  12   1     0.05   0.04  -0.07    -0.07   0.02  -0.09    -0.00   0.00  -0.00
  13   6     0.08  -0.19  -0.23    -0.13   0.16  -0.19    -0.00   0.00  -0.00
  14   1    -0.02  -0.15  -0.09    -0.14   0.02  -0.08    -0.00   0.00  -0.00
  15   1     0.02  -0.10  -0.10     0.04   0.16  -0.11     0.00   0.00  -0.00
  16   1     0.15   0.02  -0.12    -0.11   0.03  -0.07    -0.00   0.00  -0.00
  17   6    -0.02   0.01  -0.24     0.36  -0.05   0.01     0.00  -0.00   0.00
  18   1     0.02  -0.02  -0.13     0.09  -0.00  -0.07     0.00  -0.00   0.00
  19   1     0.10  -0.02  -0.05     0.16   0.02   0.02     0.00   0.00   0.00
  20   1    -0.08   0.00  -0.14     0.07  -0.02  -0.00     0.00  -0.00   0.00
  21   1     0.03   0.02   0.00     0.01   0.01  -0.01    -0.00  -0.00  -0.00
  22   6    -0.02   0.02  -0.01     0.03  -0.06   0.11     0.01   0.00   0.02
  23   8     0.00   0.02  -0.02     0.13   0.00   0.11     0.01  -0.00   0.02
  24   7     0.03  -0.00   0.03    -0.17  -0.08  -0.03    -0.02  -0.01  -0.02
  25   1    -0.03   0.07   0.03    -0.01  -0.05  -0.09    -0.02   0.02  -0.00
  26   1     0.03  -0.12  -0.11    -0.10   0.02   0.07    -0.02  -0.02  -0.01
  27   7    -0.04   0.01   0.03     0.05   0.08  -0.11     0.03  -0.01  -0.02
  28   1    -0.03   0.06   0.03     0.11   0.13  -0.04    -0.01   0.08   0.03
  29   1     0.04  -0.10  -0.07    -0.06  -0.05  -0.18    -0.02   0.02  -0.00
  30   6    -0.02  -0.02   0.10    -0.01  -0.01   0.05     0.00   0.00  -0.00
  31   8    -0.02  -0.02   0.12    -0.01  -0.01   0.06    -0.00  -0.00  -0.00
  32   7    -0.08  -0.06  -0.09    -0.04  -0.04  -0.04     0.00   0.00  -0.00
  33   1     0.03   0.01  -0.09     0.00   0.02  -0.05    -0.00   0.00  -0.00
  34   1    -0.09  -0.06  -0.04    -0.04  -0.04  -0.02     0.00  -0.00  -0.00
  35   7     0.09   0.09  -0.04     0.04   0.05  -0.01    -0.00   0.00   0.00
  36   1     0.10   0.05   0.01     0.04   0.04   0.01     0.00  -0.00   0.00
[...]
  44   1     0.00   0.01  -0.00     0.00   0.00  -0.00    -0.01  -0.02   0.01
  45   1    -0.07  -0.01   0.01    -0.07  -0.02   0.01    -0.01  -0.00   0.00
  46   6     0.01  -0.00   0.01     0.00  -0.00   0.00    -0.00  -0.00   0.00
  47   8     0.00   0.00  -0.01     0.00   0.00  -0.00     0.00   0.00  -0.00
  48   7     0.20  -0.06  -0.04     0.09  -0.02  -0.01     0.00  -0.00   0.00
  49   1    -0.81   0.18   0.26    -0.35   0.08   0.11    -0.02   0.00   0.01
  50   1     0.05   0.04  -0.13     0.03   0.02  -0.07     0.00   0.00  -0.01
  51   7    -0.00  -0.00   0.00    -0.00  -0.00   0.00    -0.00   0.00  -0.00
  52   1    -0.00   0.00   0.01    -0.00  -0.00   0.00     0.00  -0.00  -0.00
  53   1    -0.01   0.01  -0.01    -0.00   0.00  -0.00     0.00  -0.00   0.00
                    142                    143                    144
                        a                      a                      a 
 Frequencies --  3484.6732              3488.8469              3496.0293
 Red. masses --     1.9099                 1.4547                 1.4514
 Frc consts  --     0.0000                 0.0000                 0.0000
 IR Inten    --    10.4959                14.8764                24.4591
 Raman Activ --     0.0000                 0.0000                 0.0000
 Depolar     --     0.0000                 0.0000                 0.0000
 Atom AN      X      Y      Z        X      Y      Z        X      Y      Z
   1   8     0.00  -0.00   0.00    -0.00   0.00   0.00     0.00  -0.00   0.00
   2   6     0.00  -0.00  -0.00     0.00  -0.00  -0.00    -0.00   0.00   0.00
   3   1     0.00  -0.00   0.00    -0.00  -0.00   0.00     0.00  -0.00   0.00
   4   1    -0.00   0.00  -0.00    -0.00   0.00   0.00    -0.00   0.00  -0.00
   5   6    -0.00   0.00  -0.00    -0.00   0.00  -0.00     0.00  -0.00   0.00
   6   1     0.00  -0.00   0.00     0.00  -0.00   0.00    -0.00   0.00  -0.00
   7   1    -0.00  -0.00  -0.00    -0.00   0.00   0.00     0.00  -0.00  -0.00
   8   7    -0.00   0.00  -0.00     0.00  -0.00  -0.00    -0.00  -0.00  -0.00
   9   6     0.00  -0.00   0.00    -0.00   0.00  -0.00     0.00  -0.00   0.00
  10   1     0.00   0.00   0.00     0.00  -0.00   0.00    -0.00   0.00  -0.00
  11   1    -0.00   0.00  -0.00    -0.00   0.00   0.00     0.00   0.00  -0.00
  12   1     0.00   0.00  -0.00    -0.00  -0.00  -0.00     0.00   0.00   0.00
  13   6     0.00  -0.00   0.00    -0.00   0.00  -0.00     0.00  -0.00   0.00
  14   1    -0.00  -0.00  -0.00    -0.00  -0.00   0.00     0.00  -0.00   0.00
  15   1    -0.00  -0.00  -0.00     0.00  -0.00   0.00    -0.00   0.00  -0.00
  16   1     0.00  -0.00  -0.00    -0.00   0.00   0.00     0.00  -0.00  -0.00
  17   6     0.00   0.00  -0.00     0.00  -0.00  -0.00    -0.00  -0.00   0.00
  18   1    -0.00  -0.00   0.00     0.00   0.00  -0.00    -0.00  -0.00   0.00
  19   1    -0.00   0.00  -0.00    -0.00  -0.00   0.00     0.00   0.00  -0.00
  20   1     0.00  -0.00  -0.00    -0.00   0.00   0.00     0.00  -0.00  -0.00
  21   1    -0.01   0.01  -0.00     0.00   0.00  -0.00    -0.00   0.00  -0.00
  22   6    -0.01   0.00  -0.00    -0.00  -0.00  -0.00    -0.00  -0.00  -0.00
  23   8     0.00  -0.00   0.00     0.00  -0.00   0.00     0.00  -0.00   0.00
  24   7    -0.16   0.11  -0.17    -0.01   0.01  -0.01    -0.01   0.01  -0.02
  25   1     0.12   0.08   0.03     0.01   0.01   0.00     0.01   0.01   0.00
  26   1     0.49  -0.50   0.61     0.04  -0.04   0.05     0.06  -0.06   0.07
  27   7     0.02   0.00   0.02    -0.01  -0.00  -0.00    -0.16  -0.06  -0.06
  28   1    -0.04   0.03  -0.09     0.01  -0.01   0.03     0.28  -0.20   0.62
  29   1    -0.02  -0.04   0.03     0.02   0.02  -0.02     0.32   0.44  -0.40
  30   6     0.00  -0.00   0.00    -0.00  -0.00   0.00     0.00   0.00  -0.00
  31   8    -0.00  -0.00   0.00     0.00   0.00  -0.00    -0.00  -0.00   0.00
  32   7    -0.00  -0.00  -0.00     0.00   0.00  -0.00     0.00   0.00  -0.00
  33   1     0.00   0.00   0.00    -0.00  -0.00  -0.00    -0.00  -0.00  -0.00
  34   1     0.00   0.00  -0.00    -0.00  -0.00   0.00    -0.00  -0.00   0.00
  35   7     0.00   0.00   0.00    -0.00  -0.00  -0.00     0.00   0.00   0.00
  36   1     0.00   0.00  -0.00    -0.00  -0.00   0.00     0.00   0.00  -0.00
  37   1    -0.00  -0.00   0.00     0.00   0.00  -0.00    -0.00  -0.00   0.00
  38   6     0.00  -0.00   0.00     0.00  -0.00   0.00    -0.00  -0.00   0.00
  39   8     0.00   0.00   0.00    -0.00   0.00   0.00     0.00   0.00  -0.00
  40   7     0.03   0.00   0.01     0.00   0.00   0.00     0.00   0.00   0.00
  41   1    -0.09   0.07  -0.07    -0.00   0.00  -0.00    -0.00   0.00  -0.00
  42   1    -0.02  -0.07   0.05    -0.00  -0.00   0.00    -0.00  -0.00   0.00
  43   7    -0.00   0.00  -0.00    -0.00   0.00  -0.00    -0.00   0.00  -0.00
  44   1    -0.00  -0.00   0.00    -0.00  -0.00   0.00    -0.00  -0.00   0.00
  45   1     0.01   0.00  -0.00     0.01   0.00  -0.00    -0.00  -0.00   0.00
  46   6     0.00  -0.00   0.00     0.00  -0.00  -0.00    -0.00  -0.00   0.00
  47   8    -0.00  -0.00  -0.00    -0.00  -0.00   0.00    -0.00   0.00  -0.00
  48   7    -0.00   0.00  -0.00    -0.01  -0.00   0.00     0.00   0.00  -0.00
  49   1     0.02  -0.00  -0.01     0.01  -0.00  -0.00    -0.00  -0.00  -0.00
  50   1    -0.00  -0.00   0.01     0.01   0.01  -0.02    -0.00  -0.00   0.00
  51   7    -0.01   0.00   0.00     0.16  -0.06  -0.06    -0.01   0.00   0.00
  52   1     0.01   0.00  -0.04    -0.14  -0.01   0.67     0.01   0.00  -0.04
  53   1     0.03  -0.02   0.03    -0.46   0.26  -0.46     0.03  -0.02   0.03
                    145                    146                    147
                        a                      a                      a 
 Frequencies --  3500.9667              3505.2284              3532.2127
 Red. masses --     1.4378                 1.4622                 1.9386
 Frc consts  --     0.0000                 0.0000                 0.0000
 IR Inten    --    39.7016                 8.4023                20.7635
 Raman Activ --     0.0000                 0.0000                 0.0000
 Depolar     --     0.0000                 0.0000                 0.0000
 Atom AN      X      Y      Z        X      Y      Z        X      Y      Z
   1   8    -0.00  -0.00  -0.00     0.00  -0.00   0.00    -0.00   0.00  -0.00
   2   6     0.00   0.00   0.00     0.00   0.00   0.00     0.00  -0.00  -0.00
   3   1    -0.00   0.00   0.00    -0.00   0.00  -0.00    -0.00   0.00  -0.00
   4   1    -0.00  -0.00  -0.00    -0.00   0.00  -0.00     0.00   0.00  -0.00
   5   6    -0.00   0.00   0.00     0.00  -0.00  -0.00     0.00  -0.00   0.00
   6   1     0.00   0.00   0.00    -0.00   0.00  -0.00    -0.00  -0.00  -0.00
   7   1     0.00  -0.00  -0.00    -0.00   0.00   0.00    -0.00   0.00  -0.00
   8   7    -0.00  -0.00   0.00     0.00   0.00  -0.00     0.00  -0.00  -0.00
   9   6    -0.00   0.00   0.00    -0.00  -0.00   0.00    -0.00   0.00  -0.00
  10   1    -0.00   0.00  -0.00    -0.00  -0.00  -0.00     0.00  -0.00   0.00
  11   1     0.00   0.00  -0.00     0.00   0.00  -0.00    -0.00   0.00  -0.00
  12   1    -0.00  -0.00   0.00    -0.00  -0.00   0.00     0.00  -0.00   0.00
  13   6     0.00   0.00  -0.00    -0.00  -0.00   0.00    -0.00   0.00  -0.00
  14   1     0.00   0.00   0.00    -0.00  -0.00  -0.00    -0.00   0.00  -0.00
  15   1    -0.00   0.00  -0.00     0.00  -0.00   0.00    -0.00  -0.00   0.00
  16   1     0.00  -0.00  -0.00    -0.00   0.00   0.00     0.00  -0.00  -0.00
  17   6     0.00   0.00   0.00    -0.00  -0.00   0.00    -0.00   0.00  -0.00
  18   1    -0.00  -0.00   0.00    -0.00  -0.00   0.00     0.00   0.00   0.00
  19   1     0.00   0.00  -0.00     0.00   0.00  -0.00    -0.00   0.00   0.00
  20   1     0.00  -0.00  -0.00    -0.00  -0.00   0.00     0.00  -0.00  -0.00
  21   1     0.00  -0.00   0.00    -0.00   0.00  -0.00     0.00  -0.00   0.00
  22   6     0.00   0.00  -0.00    -0.00   0.00  -0.00    -0.00  -0.00  -0.00
  23   8    -0.00  -0.00   0.00     0.00  -0.00   0.00     0.00   0.00   0.00
  24   7    -0.00  -0.00  -0.00    -0.00   0.00  -0.00     0.00   0.00   0.00
  25   1     0.00   0.00   0.00     0.00   0.00   0.00    -0.01  -0.00  -0.00
  26   1     0.00  -0.00   0.00     0.00  -0.00   0.00     0.00   0.00   0.00
  27   7    -0.00  -0.00  -0.00     0.00   0.00   0.00     0.00  -0.00   0.00
  28   1     0.00  -0.00   0.00    -0.00   0.00  -0.00    -0.00   0.00  -0.00
  29   1     0.00   0.00  -0.00    -0.00  -0.00   0.00    -0.00  -0.00   0.00
  30   6    -0.00  -0.00  -0.00     0.00   0.00  -0.00    -0.00   0.00  -0.00
  31   8    -0.00  -0.00  -0.00    -0.00  -0.00   0.01     0.00  -0.00  -0.00
  32   7    -0.07  -0.10   0.05     0.07   0.10  -0.04    -0.00  -0.00   0.00
  33   1     0.23   0.25   0.32    -0.23  -0.25  -0.33     0.00   0.00   0.00
  34   1     0.03   0.13  -0.51    -0.02  -0.13   0.49    -0.00   0.00  -0.00
  35   7    -0.05  -0.07  -0.10    -0.05  -0.07  -0.10     0.00   0.00   0.00
  36   1    -0.10  -0.09   0.50    -0.10  -0.09   0.49     0.00   0.00  -0.00
  37   1     0.28   0.34  -0.13     0.29   0.35  -0.13    -0.00  -0.00   0.00
  38   6     0.00  -0.00   0.00     0.00   0.00  -0.00     0.00   0.00  -0.00
  39   8    -0.00  -0.00  -0.00    -0.00  -0.00   0.00    -0.00  -0.00   0.00
  40   7    -0.00  -0.00  -0.00     0.00  -0.00   0.00    -0.00  -0.01   0.01
  41   1     0.00  -0.00   0.00    -0.00   0.00  -0.00    -0.01   0.00  -0.01
  42   1     0.00   0.00  -0.00    -0.00  -0.00   0.00     0.01   0.02  -0.01
  43   7    -0.00   0.00  -0.00    -0.00  -0.00   0.00     0.01   0.03  -0.02
  44   1    -0.00  -0.00   0.00     0.00   0.00  -0.00    -0.03  -0.10   0.07
  45   1     0.00   0.00  -0.00     0.00   0.00   0.00    -0.01  -0.00   0.00
  46   6     0.00   0.00   0.00    -0.00   0.00  -0.00     0.01   0.00  -0.00
  47   8    -0.00  -0.00  -0.00    -0.00  -0.00   0.00    -0.00  -0.00   0.00
  48   7    -0.00   0.00  -0.00     0.00   0.00  -0.00     0.10   0.07  -0.23
  49   1     0.00  -0.00  -0.00    -0.00   0.00   0.00    -0.12   0.04   0.02
  50   1    -0.00  -0.00   0.00    -0.00  -0.00   0.00    -0.27  -0.31   0.84
  51   7    -0.00   0.00   0.00    -0.00   0.00   0.00     0.01  -0.01   0.04
  52   1     0.00   0.00  -0.00     0.00   0.00  -0.00     0.02  -0.00  -0.07
  53   1     0.00  -0.00   0.00     0.00  -0.00   0.00    -0.07   0.04  -0.06
                    148                    149                    150
                        a                      a                      a 
 Frequencies --  3533.6884              3552.7384              3554.5134
 Red. masses --     1.8909                 2.1724                 2.1502
 Frc consts  --     0.0000                 0.0000                 0.0000
 IR Inten    --     9.3062                11.3901                30.1125
 Raman Activ --     0.0000                 0.0000                 0.0000
 Depolar     --     0.0000                 0.0000                 0.0000
 Atom AN      X      Y      Z        X      Y      Z        X      Y      Z
   1   8     0.00  -0.00   0.00     0.00  -0.00   0.00     0.00  -0.00   0.00
   2   6    -0.00  -0.00  -0.00    -0.00   0.00   0.00    -0.00  -0.00  -0.00
   3   1     0.00  -0.00   0.00    -0.00   0.00  -0.00     0.00  -0.00   0.00
   4   1     0.00   0.00   0.00     0.00  -0.00  -0.00    -0.00   0.00   0.00
   5   6     0.00   0.00   0.00    -0.00   0.00  -0.00     0.00   0.00   0.00
   6   1    -0.00   0.00  -0.00     0.00   0.00   0.00     0.00   0.00  -0.00
   7   1    -0.00   0.00  -0.00     0.00  -0.00  -0.00     0.00   0.00   0.00
   8   7    -0.00   0.00  -0.00     0.00  -0.00   0.00     0.00   0.00   0.00
   9   6     0.00  -0.00   0.00     0.00  -0.00   0.00     0.00   0.00  -0.00
  10   1    -0.00   0.00  -0.00    -0.00   0.00  -0.00     0.00   0.00  -0.00
  11   1     0.00  -0.00   0.00     0.00  -0.00   0.00    -0.00  -0.00   0.00
  12   1     0.00   0.00   0.00    -0.00  -0.00  -0.00    -0.00  -0.00   0.00
  13   6     0.00  -0.00   0.00    -0.00   0.00   0.00     0.00  -0.00  -0.00
  14   1     0.00  -0.00  -0.00     0.00  -0.00  -0.00    -0.00  -0.00   0.00
  15   1    -0.00   0.00  -0.00     0.00   0.00   0.00    -0.00   0.00  -0.00
  16   1    -0.00   0.00   0.00     0.00  -0.00   0.00    -0.00  -0.00   0.00
  17   6    -0.00  -0.00   0.00     0.00  -0.00   0.00     0.00   0.00  -0.00
  18   1     0.00   0.00   0.00    -0.00  -0.00  -0.00    -0.00  -0.00   0.00
  19   1     0.00   0.00  -0.00     0.00   0.00  -0.00    -0.00  -0.00   0.00
  20   1    -0.00   0.00   0.00     0.00  -0.00  -0.00     0.00  -0.00   0.00
  21   1    -0.00   0.00  -0.00    -0.00   0.00  -0.00    -0.01   0.00  -0.00
  22   6    -0.00  -0.00   0.00     0.00   0.00   0.00    -0.00   0.00  -0.00
  23   8     0.00  -0.00  -0.00    -0.00  -0.00  -0.00     0.00  -0.00   0.00
  24   7     0.00  -0.00   0.00    -0.00   0.00  -0.00    -0.00  -0.00  -0.00
  25   1     0.00   0.00   0.00     0.00   0.00   0.00     0.01   0.00   0.00
  26   1    -0.00   0.00  -0.00     0.00  -0.00   0.00     0.00  -0.00   0.00
  27   7     0.00   0.00  -0.00     0.00   0.00  -0.01    -0.00  -0.00   0.00
  28   1     0.00  -0.00   0.00     0.01  -0.00   0.01    -0.00   0.00  -0.00
  29   1    -0.00  -0.00   0.00    -0.01  -0.01   0.01     0.00   0.00  -0.00
  30   6    -0.00  -0.00  -0.00     0.00  -0.00   0.00    -0.00  -0.00   0.00
  31   8    -0.00   0.00   0.00    -0.00   0.00   0.00     0.00   0.00  -0.00
  32   7     0.00   0.00  -0.00     0.00   0.00   0.00     0.00   0.00  -0.00
  33   1    -0.00  -0.00  -0.00    -0.00  -0.00  -0.00    -0.00  -0.00  -0.00
  34   1    -0.00  -0.00   0.00     0.00   0.00  -0.00    -0.00  -0.00   0.00
  35   7     0.00   0.00  -0.00    -0.00  -0.00   0.00    -0.00  -0.00   0.00
  36   1    -0.00  -0.00   0.00     0.00  -0.00  -0.00     0.00   0.00  -0.00
  37   1     0.00   0.00  -0.00     0.00   0.00  -0.00     0.00   0.00  -0.00
  38   6     0.01   0.00  -0.00    -0.00   0.00  -0.00     0.00  -0.01   0.01
  39   8    -0.00  -0.00   0.00     0.00   0.00  -0.00    -0.00   0.00  -0.00
  40   7     0.01  -0.03   0.03    -0.00   0.01  -0.01     0.02  -0.23   0.18
  41   1    -0.06   0.04  -0.05     0.02  -0.01   0.02    -0.35   0.24  -0.27
  42   1     0.03   0.07  -0.05    -0.02  -0.04   0.03     0.25   0.63  -0.43
  43   7     0.08   0.20  -0.14    -0.00  -0.00   0.00    -0.01  -0.03   0.02
  44   1    -0.26  -0.74   0.53     0.00   0.00  -0.00     0.03   0.10  -0.07
  45   1    -0.06   0.00  -0.00     0.01   0.00  -0.00     0.01  -0.00   0.00
  46   6    -0.00   0.00  -0.00     0.00  -0.00   0.01     0.00  -0.00   0.00
  47   8    -0.00  -0.00   0.00    -0.00   0.00  -0.00     0.00   0.00  -0.00
  48   7    -0.01  -0.01   0.03    -0.01  -0.01   0.03    -0.00  -0.00   0.00
  49   1     0.02  -0.01  -0.00     0.02  -0.01  -0.00     0.01  -0.00  -0.00
  50   1     0.04   0.04  -0.11     0.03   0.04  -0.11     0.00   0.01  -0.01
  51   7    -0.00   0.00  -0.00     0.07  -0.06   0.28     0.00  -0.00   0.02
  52   1    -0.00   0.00   0.00     0.17  -0.01  -0.66     0.01  -0.00  -0.04
  53   1     0.01  -0.00   0.01    -0.45   0.25  -0.41    -0.03   0.01  -0.02
                    151                    152                    153
                        a                      a                      a 
 Frequencies --  3562.7183              3565.4249              3570.9452
 Red. masses --     2.1841                 2.1913                 2.1776
 Frc consts  --     0.0000                 0.0000                 0.0000
 IR Inten    --    10.2555                13.5131                11.6921
 Raman Activ --     0.0000                 0.0000                 0.0000
 Depolar     --     0.0000                 0.0000                 0.0000
 Atom AN      X      Y      Z        X      Y      Z        X      Y      Z
   1   8    -0.00   0.00  -0.00    -0.00  -0.00  -0.00    -0.00  -0.00  -0.00
   2   6     0.00  -0.00   0.00     0.00   0.00   0.00     0.00   0.00   0.00
   3   1     0.00   0.00  -0.00    -0.00   0.00   0.00     0.00  -0.00  -0.00
   4   1     0.00  -0.00  -0.00    -0.00  -0.00  -0.00    -0.00  -0.00   0.00
   5   6     0.00  -0.00   0.00    -0.00   0.00   0.00     0.00  -0.00  -0.00
   6   1    -0.00   0.00   0.00     0.00   0.00   0.00    -0.00   0.00  -0.00
   7   1    -0.00   0.00   0.00     0.00  -0.00  -0.00    -0.00  -0.00   0.00
   8   7    -0.00  -0.00  -0.00    -0.00  -0.00   0.00     0.00   0.00  -0.00
   9   6     0.00  -0.00   0.00    -0.00  -0.00   0.00    -0.00  -0.00   0.00
  10   1    -0.00  -0.00  -0.00     0.00  -0.00   0.00    -0.00   0.00   0.00
  11   1     0.00   0.00  -0.00     0.00   0.00  -0.00     0.00   0.00  -0.00
  12   1     0.00  -0.00   0.00     0.00   0.00   0.00     0.00   0.00   0.00
  13   6     0.00  -0.00   0.00     0.00   0.00  -0.00     0.00  -0.00   0.00
  14   1     0.00   0.00  -0.00    -0.00   0.00   0.00    -0.00  -0.00  -0.00
  15   1    -0.00   0.00  -0.00    -0.00   0.00  -0.00    -0.00  -0.00   0.00
  16   1     0.00  -0.00   0.00     0.00  -0.00  -0.00    -0.00  -0.00   0.00
  17   6    -0.00   0.00   0.00    -0.00  -0.00   0.00    -0.00  -0.00   0.00
  18   1     0.00  -0.00   0.00     0.00   0.00   0.00     0.00   0.00   0.00
  19   1     0.00   0.00  -0.00     0.00   0.00  -0.00     0.00   0.00  -0.00
  20   1     0.00  -0.00  -0.00     0.00  -0.00   0.00    -0.00  -0.00   0.00
  21   1     0.00  -0.00   0.00     0.00  -0.00   0.00     0.00   0.00   0.00
  22   6    -0.00  -0.01   0.01     0.00  -0.00   0.00    -0.00   0.00  -0.00
  23   8     0.00   0.00  -0.00    -0.00  -0.00  -0.00     0.00  -0.00   0.00
  24   7     0.01  -0.00   0.00     0.00  -0.00   0.00    -0.00   0.00  -0.00
  25   1    -0.01  -0.00  -0.00     0.00   0.00   0.00     0.00   0.00   0.00
  26   1    -0.02   0.02  -0.02    -0.00   0.00  -0.00     0.00  -0.00   0.00
  27   7    -0.02  -0.16   0.25    -0.00  -0.00   0.00     0.00   0.00  -0.00
  28   1    -0.28   0.16  -0.57    -0.00   0.00  -0.01     0.00  -0.00   0.00
  29   1     0.35   0.45  -0.39     0.00   0.01  -0.00    -0.00  -0.00   0.00
  30   6     0.00   0.00   0.00    -0.01  -0.01  -0.00    -0.00  -0.00   0.01
  31   8    -0.00  -0.00   0.00     0.00   0.00   0.00     0.00   0.00  -0.00
  32   7     0.00   0.00   0.00    -0.06  -0.04  -0.21     0.05   0.04   0.19
  33   1    -0.00  -0.00  -0.01     0.26   0.30   0.35    -0.23  -0.26  -0.31
  34   1     0.00   0.00  -0.01    -0.03  -0.13   0.45     0.03   0.12  -0.42
  35   7     0.00   0.00  -0.00    -0.10  -0.11   0.14    -0.11  -0.12   0.16
  36   1    -0.00  -0.00   0.00     0.07   0.06  -0.41     0.08   0.06  -0.47
  37   1    -0.00  -0.00   0.00     0.30   0.36  -0.12     0.32   0.39  -0.12
  38   6     0.00   0.00  -0.00     0.00   0.00   0.00     0.00   0.00  -0.00
  39   8    -0.00  -0.00  -0.00    -0.00  -0.00  -0.00    -0.00  -0.00   0.00
  40   7    -0.00   0.00  -0.00    -0.00   0.00  -0.00    -0.00   0.00  -0.00
  41   1     0.00  -0.00   0.00     0.00  -0.00   0.00     0.00  -0.00   0.00
  42   1    -0.00  -0.00   0.00    -0.00  -0.00   0.00    -0.00  -0.00   0.00
  43   7     0.00   0.00  -0.00    -0.00   0.00  -0.00     0.00   0.00  -0.00
  44   1    -0.00  -0.00   0.00    -0.00  -0.00   0.00    -0.00  -0.00   0.00
  45   1    -0.00   0.00  -0.00     0.00   0.00  -0.00    -0.00   0.00  -0.00
  46   6    -0.00   0.00   0.00     0.00   0.00   0.00    -0.00   0.00  -0.00
  47   8     0.00  -0.00  -0.00    -0.00  -0.00  -0.00    -0.00  -0.00   0.00
  48   7    -0.00  -0.00   0.00    -0.00  -0.00   0.00     0.00   0.00  -0.00
  49   1     0.00  -0.00   0.00     0.00  -0.00  -0.00    -0.00   0.00  -0.00
  50   1     0.00   0.00  -0.01     0.00   0.00  -0.00    -0.00  -0.00   0.00
  51   7     0.00  -0.00   0.01     0.00  -0.00   0.00    -0.00   0.00  -0.00
  52   1     0.00  -0.00  -0.01     0.00   0.00  -0.00    -0.00   0.00   0.00
  53   1    -0.01   0.01  -0.01    -0.00   0.00  -0.00     0.00  -0.00   0.00
