      -----------------------------------------------------------      
     |                   =====================                   |     
     |                           x T B                           |     
     |                   =====================                   |     
     |                         S. Grimme                         |     
     |          Mulliken Center for Theoretical Chemistry        |     
     |                    University of Bonn                     |     
      -----------------------------------------------------------      

   * xtb version 6.6.1 (unknown-commit) compiled by '@Linux' on 12/27/2023

   xtb is free software: you can redistribute it and/or modify it under
   the terms of the GNU Lesser General Public License as published by
   the Free Software Foundation, either version 3 of the License, or
   (at your option) any later version.
   
   xtb is distributed in the hope that it will be useful,
   but WITHOUT ANY WARRANTY; without even the implied warranty of
   MERCHANTABILITY or FITNESS FOR A PARTICULAR PURPOSE.  See the
   GNU Lesser General Public License for more details.
   
   Cite this work as:
   * C. Bannwarth, E. Caldeweyher, S. Ehlert, A. Hansen, P. Pracht,
     J. Seibert, S. Spicher, S. Grimme, WIREs Comput. Mol. Sci., 2020, 11,
     e01493. DOI: 10.1002/wcms.1493
   
   for GFN2-xTB:
   * C. Bannwarth, S. Ehlert and S. Grimme., J. Chem. Theory Comput., 2019,
     15, 1652-1671. DOI: 10.1021/acs.jctc.8b01176
   for GFN1-xTB:
   * S. Grimme, C. Bannwarth, P. Shushkov, J. Chem. Theory Comput., 2017,
     13, 1989-2009. DOI: 10.1021/acs.jctc.7b00118
   for GFN0-xTB:
   * P. Pracht, E. Caldeweyher, S. Ehlert, S. Grimme, ChemRxiv, 2019, preprint.
     DOI: 10.26434/chemrxiv.8326202.v1
   for GFN-FF:
   * S. Spicher and S. Grimme, Angew. Chem. Int. Ed., 2020, 59, 15665-15673.
     DOI: 10.1002/anie.202004239
   
   for ALPB and GBSA implicit solvation:
   * S. Ehlert, M. Stahn, S. Spicher, S. Grimme, J. Chem. Theory Comput.,
     2021, 17, 4250-4261. DOI: 10.1021/acs.jctc.1c00471
   
   for DFT-D4:
   * E. Caldeweyher, C. Bannwarth and S. Grimme, J. Chem. Phys., 2017,
     147, 034112. DOI: 10.1063/1.4993215
   * E. Caldeweyher, S. Ehlert, A. Hansen, H. Neugebauer, S. Spicher,
     C. Bannwarth and S. Grimme, J. Chem. Phys., 2019, 150, 154122.
     DOI: 10.1063/1.5090222
   * E. Caldeweyher, J.-M. Mewes, S. Ehlert and S. Grimme, Phys. Chem. Chem. Phys.
     2020, 22, 8499-8512. DOI: 10.1039/D0CP00502A
   
   for sTDA-xTB:
   * S. Grimme and C. Bannwarth, J. Chem. Phys., 2016, 145, 054103.
     DOI: 10.1063/1.4959605
   
   in the mass-spec context:
   * V. Asgeirsson, C. Bauer and S. Grimme, Chem. Sci., 2017, 8, 4879.
     DOI: 10.1039/c7sc00601b
   * J. Koopman and S. Grimme, ACS Omega 2019, 4, 12, 15120-15133.
     DOI: 10.1021/acsomega.9b02011
   
   for metadynamics refer to:
   * S. Grimme, J. Chem. Theory Comput., 2019, 155, 2847-2862
     DOI: 10.1021/acs.jctc.9b00143
   
   for SPH calculations refer to:
   * S. Spicher and S. Grimme, J. Chem. Theory Comput., 2021, 17, 1701-1714
     DOI: 10.1021/acs.jctc.0c01306
   
   with help from (in alphabetical order)
   P. Atkinson, C. Bannwarth, F. Bohle, G. Brandenburg, E. Caldeweyher
   M. Checinski, S. Dohm, S. Ehlert, S. Ehrlich, I. Gerasimov, C. Hölzer
   A. Katbashev, J. Koopman, C. Lavigne, S. Lehtola, F. März, M. Müller,
   F. Musil, H. Neugebauer, J. Pisarek, C. Plett, P. Pracht, F. Pultar,
   J. Seibert, P. Shushkov, S. Spicher, M. Stahn, M. Steiner, T. Strunk,
   J. Stückrath, T. Rose, and J. Unsleber
   
 * started run on 2024/01/10 at 15:36:11.350     

           -------------------------------------------------
          |                Calculation Setup                |
           -------------------------------------------------

          program call               : xtb struc.xyz --gfn2 --hess
          hostname                   : swaroop
          coordinate file            : struc.xyz
          omp threads                :                     1

   ID    Z sym.   atoms
    1    8 O      1, 23, 31, 39, 47
    2    6 C      2, 5, 9, 13, 17, 22, 30, 38, 46
    3    1 H      3, 4, 6, 7, 10-12, 14-16, 18-21, 25, 26, 28, 29, 33, 34,
                  36, 37, 41, 42, 44, 45, 49, 50, 52, 53
    4    7 N      8, 24, 27, 32, 35, 40, 43, 48, 51

molecular fragmentation (1/2 indicates fragments):
11111111111111111111122222222222222222222222222222222
# atoms in fragment 1/2:    21    32
 fragment masses (1/2) :      104.17      240.22
CMA distance (Bohr)    :   5.997
constraining FC (au)   :  0.0500

           -------------------------------------------------
          |                 G F N 2 - x T B                 |
           -------------------------------------------------

        Reference                      10.1021/acs.jctc.8b01176
      * Hamiltonian:
        H0-scaling (s, p, d)           1.850000    2.230000    2.230000
        zeta-weighting                 0.500000
      * Dispersion:
        s8                             2.700000
        a1                             0.520000
        a2                             5.000000
        s9                             5.000000
      * Repulsion:
        kExp                           1.500000    1.000000
        rExp                           1.000000
      * Coulomb:
        alpha                          2.000000
        third order                    shell-resolved
        anisotropic                    true
        a3                             3.000000
        a5                             4.000000
        cn-shift                       1.200000
        cn-exp                         4.000000
        max-rad                        5.000000


          ...................................................
          :                      SETUP                      :
          :.................................................:
          :  # basis functions                 122          :
          :  # atomic orbitals                 122          :
          :  # shells                           76          :
          :  # electrons                       140          :
          :  max. iterations                   250          :
          :  Hamiltonian                  GFN2-xTB          :
          :  restarted?                      false          :
          :  GBSA solvation                  false          :
          :  PC potential                    false          :
          :  electronic temp.          300.0000000     K    :
          :  accuracy                    1.0000000          :
          :  -> integral cutoff          0.2500000E+02      :
          :  -> integral neglect         0.1000000E-07      :
          :  -> SCF convergence          0.1000000E-05 Eh   :
          :  -> wf. convergence          0.1000000E-03 e    :
          :  Broyden damping             0.4000000          :
          ...................................................

 iter      E             dE          RMSdq      gap      omega  full diag
   1    -81.5509629 -0.815510E+02  0.434E+00    5.01       0.0  T
   2    -81.8385485 -0.287586E+00  0.236E+00    6.03       1.0  T
   3    -81.8442129 -0.566443E-02  0.115E+00    5.72       1.0  T
   4    -81.8455118 -0.129884E-02  0.240E-01    5.77       1.0  T
   5    -81.8464212 -0.909396E-03  0.925E-02    5.69       1.0  T
   6    -81.8464472 -0.259932E-04  0.287E-02    5.72       1.0  T
   7    -81.8464519 -0.477684E-05  0.782E-03    5.71       1.8  T
   8    -81.8464522 -0.295878E-06  0.295E-03    5.71       4.7  T
   9    -81.8464523 -0.353831E-07  0.112E-03    5.71      12.2  T
  10    -81.8464523 -0.858006E-08  0.220E-04    5.71      62.5  T
  11    -81.8464523 -0.550941E-09  0.908E-05    5.71     151.3  T

   *** convergence criteria satisfied after 11 iterations ***

         #    Occupation            Energy/Eh            Energy/eV
      -------------------------------------------------------------
         1        2.0000           -0.7939929             -21.6056
       ...           ...                  ...                  ...
        64        2.0000           -0.4990882             -13.5809
        65        2.0000           -0.4979881             -13.5509
        66        2.0000           -0.4950468             -13.4709
        67        2.0000           -0.4917238             -13.3805
        68        2.0000           -0.4898313             -13.3290
        69        2.0000           -0.4859571             -13.2236
        70        2.0000           -0.4824040             -13.1269 (HOMO)
        71                         -0.2725311              -7.4159 (LUMO)
        72                         -0.2687931              -7.3142
        73                         -0.2649780              -7.2104
        74                         -0.2586635              -7.0386
        75                         -0.1508792              -4.1056
       ...                                ...                  ...
       122                          0.5537107              15.0672
      -------------------------------------------------------------
                  HL-Gap            0.2098729 Eh            5.7109 eV
             Fermi-level           -0.3774675 Eh          -10.2714 eV

 SCC (total)                   0 d,  0 h,  0 min,  0.084 sec
 SCC setup                      ...        0 min,  0.000 sec (  0.343%)
 Dispersion                     ...        0 min,  0.001 sec (  0.691%)
 classical contributions        ...        0 min,  0.000 sec (  0.213%)
 integral evaluation            ...        0 min,  0.008 sec (  9.025%)
 iterations                     ...        0 min,  0.048 sec ( 57.145%)
 molecular gradient             ...        0 min,  0.027 sec ( 32.254%)
 printout                       ...        0 min,  0.000 sec (  0.315%)

         :::::::::::::::::::::::::::::::::::::::::::::::::::::
         ::                     SUMMARY                     ::
         :::::::::::::::::::::::::::::::::::::::::::::::::::::
         :: total energy             -80.934932716563 Eh    ::
         :: gradient norm              0.000068386372 Eh/a0 ::
         :: HOMO-LUMO gap              5.710932319016 eV    ::
         ::.................................................::
         :: SCC energy               -81.846452271747 Eh    ::
         :: -> isotropic ES            0.292460737935 Eh    ::
         :: -> anisotropic ES         -0.028697479651 Eh    ::
         :: -> anisotropic XC          0.020825620508 Eh    ::
         :: -> dispersion             -0.044035425567 Eh    ::
         :: repulsion energy           0.910539684099 Eh    ::
         :: add. restraining           0.000000000000 Eh    ::
         :: total charge               1.000000000000 e     ::
         :::::::::::::::::::::::::::::::::::::::::::::::::::::

           ------------------------------------------------- 
          |                Numerical Hessian                |
           ------------------------------------------------- 
step length          :   0.00500
SCC accuracy         :   0.30000
Hessian scale factor :   1.00000
frozen atoms in %    :   0.00000    0
RMS gradient         :   0.00007
estimated CPU  time      0.23 min
estimated wall time      0.23 min

writing file <hessian>.

 projected vibrational frequencies (cm⁻¹)
eigval :       -0.00    -0.00    -0.00     0.00     0.00     0.00
eigval :       -6.08    10.39    17.28    23.59    29.39    34.79
eigval :       45.32    49.18    52.22    54.02    60.56    67.01
eigval :       77.41    79.10    88.85   100.01   104.73   106.45
eigval :      115.86   123.91   135.32   147.43   158.99   169.11
eigval :      185.57   193.23   257.39   277.93   294.65   303.02
eigval :      313.58   321.22   328.13   358.54   368.25   373.82
eigval :      383.86   414.40   427.69   444.80   445.60   454.72
eigval :      456.99   465.24   466.70   468.74   475.52   489.30
eigval :      493.59   505.04   505.83   506.91   529.95   544.03
eigval :      556.98   570.39   583.96   647.00   668.63   672.59
eigval :      674.39   689.26   752.61   769.35   799.36   843.93
eigval :      893.90   930.44   945.23   974.42   974.88   977.87
eigval :      995.08  1004.45  1012.11  1014.14  1021.22  1029.38
eigval :     1034.51  1040.89  1043.99  1080.93  1085.09  1093.77
eigval :     1100.23  1106.56  1107.97  1135.88  1173.62  1229.36
eigval :     1251.36  1284.20  1310.15  1338.24  1346.39  1351.19
eigval :     1353.16  1365.06  1378.63  1395.15  1400.14  1404.67
eigval :     1429.33  1436.00  1440.96  1442.46  1449.73  1454.60
eigval :     1456.17  1457.13  1469.13  1472.18  1474.18  1478.47
eigval :     1493.60  1497.88  1499.55  1506.12  1536.37  1641.52
eigval :     1692.86  1717.41  1727.12  2881.38  2962.97  2975.46
eigval :     2992.16  3032.91  3039.47  3040.81  3041.60  3042.78
eigval :     3044.59  3052.50  3054.42  3058.35  3062.42  3085.11
eigval :     3316.24  3358.02  3481.36  3484.67  3488.85  3496.03
eigval :     3500.97  3505.23  3532.21  3533.69  3552.74  3554.51
eigval :     3562.72  3565.42  3570.95
           -------------------------------------------------
          |                Property Printout                |
           -------------------------------------------------

    * Orbital Energies and Occupations

         #    Occupation            Energy/Eh            Energy/eV
      -------------------------------------------------------------
         1        2.0000           -0.7939929             -21.6056
       ...           ...                  ...                  ...
        58        2.0000           -0.5107846             -13.8992
        59        2.0000           -0.5065737             -13.7846
        60        2.0000           -0.5050282             -13.7425
        61        2.0000           -0.5033916             -13.6980
        62        2.0000           -0.5001347             -13.6094
        63        2.0000           -0.4995541             -13.5936
        64        2.0000           -0.4990888             -13.5809
        65        2.0000           -0.4979881             -13.5509
        66        2.0000           -0.4950476             -13.4709
        67        2.0000           -0.4917243             -13.3805
        68        2.0000           -0.4898319             -13.3290
        69        2.0000           -0.4859580             -13.2236
        70        2.0000           -0.4824049             -13.1269 (HOMO)
        71                         -0.2725311              -7.4159 (LUMO)
        72                         -0.2687936              -7.3142
        73                         -0.2649784              -7.2104
        74                         -0.2586639              -7.0386
        75                         -0.1508792              -4.1056
        76                         -0.1021842              -2.7806
        77                         -0.0993124              -2.7024
        78                         -0.0801824              -2.1819
        79                         -0.0750744              -2.0429
        80                         -0.0723767              -1.9695
        81                         -0.0693856              -1.8881
       ...                                ...                  ...
       122                          0.5537104              15.0672
      -------------------------------------------------------------
                  HL-Gap            0.2098738 Eh            5.7110 eV
             Fermi-level           -0.3774680 Eh          -10.2714 eV

     #   Z          covCN         q      C6AA      α(0)
     1   8 O        1.652    -0.482    22.505     6.404
     2   6 C        3.673     0.077    19.529     6.333
     3   1 H        0.924     0.052     2.292     2.367
     4   1 H        0.923     0.040     2.453     2.449
     5   6 C        3.762    -0.064    21.774     6.652
     6   1 H        0.924     0.121     1.603     1.980
     7   1 H        0.924     0.070     2.085     2.258
     8   7 N        3.623     0.160    18.547     6.396
     9   6 C        3.731    -0.120    22.908     6.832
    10   1 H        0.925     0.115     1.656     2.013
    11   1 H        0.925     0.109     1.707     2.043
    12   1 H        0.925     0.108     1.716     2.049
    13   6 C        3.736    -0.118    22.852     6.822
    14   1 H        0.925     0.120     1.615     1.987
    15   1 H        0.925     0.122     1.598     1.977
    16   1 H        0.925     0.076     2.026     2.226
    17   6 C        3.722    -0.106    22.645     6.796
    18   1 H        0.925     0.096     1.821     2.110
    19   1 H        0.925     0.123     1.592     1.973
    20   1 H        0.925     0.078     2.000     2.212
    21   1 H        0.801     0.335     0.625     1.242
    22   6 C        2.675     0.342    21.184     7.532
    23   8 O        0.860    -0.533    24.535     6.641
    24   7 N        2.643    -0.318    28.177     7.884
    25   1 H        0.860     0.223     0.996     1.563
    26   1 H        0.860     0.192     1.148     1.679
    27   7 N        2.644    -0.295    27.593     7.802
    28   1 H        0.861     0.186     1.181     1.702
    29   1 H        0.860     0.195     1.132     1.667
    30   6 C        2.675     0.346    21.130     7.522
    31   8 O        0.860    -0.521    24.260     6.604
    32   7 N        2.646    -0.289    27.450     7.781
    33   1 H        0.860     0.199     1.109     1.650
    34   1 H        0.861     0.186     1.179     1.701
    35   7 N        2.646    -0.289    27.459     7.783
    36   1 H        0.861     0.186     1.180     1.701
    37   1 H        0.860     0.200     1.107     1.648
    38   6 C        2.675     0.339    21.239     7.541
    39   8 O        0.861    -0.546    24.815     6.679
    40   7 N        2.644    -0.288    27.442     7.780
    41   1 H        0.860     0.213     1.040     1.597
    42   1 H        0.861     0.188     1.171     1.695
    43   7 N        2.643    -0.296    27.633     7.807
    44   1 H        0.861     0.184     1.191     1.709
    45   1 H        0.859     0.258     0.853     1.447
    46   6 C        2.675     0.343    21.176     7.530
    47   8 O        0.860    -0.508    23.959     6.563
    48   7 N        2.643    -0.308    27.933     7.849
    49   1 H        0.860     0.232     0.957     1.532
    50   1 H        0.861     0.179     1.221     1.731
    51   7 N        2.644    -0.294    27.570     7.798
    52   1 H        0.860     0.183     1.199     1.715
    53   1 H        0.860     0.201     1.099     1.642

 Mol. C6AA /au·bohr⁶  :      21800.901950
 Mol. C8AA /au·bohr⁸  :     454357.044204
 Mol. α(0) /au        :        220.596837


Wiberg/Mayer (AO) data.
largest (>0.10) Wiberg bond orders for each atom

 ---------------------------------------------------------------------------
     #   Z sym  total        # sym  WBO       # sym  WBO       # sym  WBO
 ---------------------------------------------------------------------------
     1   8 O    1.944 --     2 C    1.025    21 H    0.800
     2   6 C    3.967 --     1 O    1.025     5 C    0.990     3 H    0.968
                             4 H    0.962
     3   1 H    0.997 --     2 C    0.968
     4   1 H    0.998 --     2 C    0.962
     5   6 C    3.935 --     2 C    0.990     7 H    0.970     6 H    0.948
                             8 N    0.939
     6   1 H    0.985 --     5 C    0.948
     7   1 H    0.995 --     5 C    0.970
     8   7 N    3.823 --    17 C    0.962    13 C    0.955     9 C    0.951
                             5 C    0.939
     9   6 C    3.912 --    11 H    0.968    12 H    0.967    10 H    0.966
                             8 N    0.951
    10   1 H    0.987 --     9 C    0.966
    11   1 H    0.988 --     9 C    0.968
    12   1 H    0.988 --     9 C    0.967
    13   6 C    3.919 --    16 H    0.979    15 H    0.963    14 H    0.962
                             8 N    0.955
    14   1 H    0.985 --    13 C    0.962
    15   1 H    0.985 --    13 C    0.963
    16   1 H    0.994 --    13 C    0.979
    17   6 C    3.930 --    20 H    0.979    18 H    0.974     8 N    0.962
                            19 H    0.960
    18   1 H    0.991 --    17 C    0.974
    19   1 H    0.985 --    17 C    0.960
    20   1 H    0.994 --    17 C    0.979
    21   1 H    0.888 --     1 O    0.800
    22   6 C    3.959 --    23 O    1.528    24 N    1.216    27 N    1.204
    23   8 O    1.885 --    22 C    1.528    27 N    0.141    24 N    0.139
    24   7 N    3.297 --    22 C    1.216    26 H    0.938    25 H    0.896
                            23 O    0.139
    25   1 H    0.950 --    24 N    0.896
    26   1 H    0.963 --    24 N    0.938
    27   7 N    3.318 --    22 C    1.204    28 H    0.947    29 H    0.945
                            23 O    0.141
    28   1 H    0.965 --    27 N    0.947
    29   1 H    0.962 --    27 N    0.945
    30   6 C    3.959 --    31 O    1.537    32 N    1.208    35 N    1.207
    31   8 O    1.895 --    30 C    1.537    35 N    0.144    32 N    0.143
    32   7 N    3.323 --    30 C    1.208    34 H    0.947    33 H    0.943
                            31 O    0.143
    33   1 H    0.960 --    32 N    0.943
    34   1 H    0.965 --    32 N    0.947
    35   7 N    3.323 --    30 C    1.207    36 H    0.947    37 H    0.943
                            31 O    0.144
    36   1 H    0.965 --    35 N    0.947
    37   1 H    0.960 --    35 N    0.943
    38   6 C    3.960 --    39 O    1.421    43 N    1.299    40 N    1.229
    39   8 O    1.910 --    38 C    1.421    43 N    0.135    40 N    0.120
    40   7 N    3.337 --    38 C    1.229    42 H    0.946    41 H    0.933
                            39 O    0.120
    41   1 H    0.954 --    40 N    0.933
    42   1 H    0.964 --    40 N    0.946
    43   7 N    3.371 --    38 C    1.299    44 H    0.946    45 H    0.849
                            39 O    0.135
    44   1 H    0.966 --    43 N    0.946
    45   1 H    0.933 --    43 N    0.849
    46   6 C    3.960 --    47 O    1.522    48 N    1.231    51 N    1.199
    47   8 O    1.939 --    46 C    1.522    48 N    0.145    51 N    0.133
    48   7 N    3.324 --    46 C    1.231    50 H    0.948    49 H    0.891
                            47 O    0.145
    49   1 H    0.946 --    48 N    0.891
    50   1 H    0.968 --    48 N    0.948
    51   7 N    3.308 --    46 C    1.199    52 H    0.947    53 H    0.942
                            47 O    0.133
    52   1 H    0.966 --    51 N    0.947
    53   1 H    0.959 --    51 N    0.942
 ---------------------------------------------------------------------------

Topologies differ in total number of bonds
Writing topology from bond orders to xtbtopo.mol

molecular dipole:
                 x           y           z       tot (Debye)
 q only:       -0.549       1.285      -1.842
   full:       -0.173       1.035      -1.970       5.673
molecular quadrupole (traceless):
                xx          xy          yy          xz          yz          zz
 q only:      -15.933      -4.484      -5.868       2.125     -38.194      21.801
  q+dip:      -18.305      -4.265      -7.695       1.473     -44.662      26.000
   full:      -19.001      -4.433      -6.511       1.286     -43.869      25.512

           -------------------------------------------------
          |               Frequency Printout                |
           -------------------------------------------------
 projected vibrational frequencies (cm⁻¹)
eigval :       -0.00    -0.00    -0.00     0.00     0.00     0.00
eigval :       -6.08    10.39    17.28    23.59    29.39    34.79
eigval :       45.32    49.18    52.22    54.02    60.56    67.01
eigval :       77.41    79.10    88.85   100.01   104.73   106.45
eigval :      115.86   123.91   135.32   147.43   158.99   169.11
eigval :      185.57   193.23   257.39   277.93   294.65   303.02
eigval :      313.58   321.22   328.13   358.54   368.25   373.82
eigval :      383.86   414.40   427.69   444.80   445.60   454.72
eigval :      456.99   465.24   466.70   468.74   475.52   489.30
eigval :      493.59   505.04   505.83   506.91   529.95   544.03
eigval :      556.98   570.39   583.96   647.00   668.63   672.59
eigval :      674.39   689.26   752.61   769.35   799.36   843.93
eigval :      893.90   930.44   945.23   974.42   974.88   977.87
eigval :      995.08  1004.45  1012.11  1014.14  1021.22  1029.38
eigval :     1034.51  1040.89  1043.99  1080.93  1085.09  1093.77
eigval :     1100.23  1106.56  1107.97  1135.88  1173.62  1229.36
eigval :     1251.36  1284.20  1310.15  1338.24  1346.39  1351.19
eigval :     1353.16  1365.06  1378.63  1395.15  1400.14  1404.67
eigval :     1429.33  1436.00  1440.96  1442.46  1449.73  1454.60
eigval :     1456.17  1457.13  1469.13  1472.18  1474.18  1478.47
eigval :     1493.60  1497.88  1499.55  1506.12  1536.37  1641.52
eigval :     1692.86  1717.41  1727.12  2881.38  2962.97  2975.46
eigval :     2992.16  3032.91  3039.47  3040.81  3041.60  3042.78
eigval :     3044.59  3052.50  3054.42  3058.35  3062.42  3085.11
eigval :     3316.24  3358.02  3481.36  3484.67  3488.85  3496.03
eigval :     3500.97  3505.23  3532.21  3533.69  3552.74  3554.51
eigval :     3562.72  3565.42  3570.95
 reduced masses (amu)
   1: 12.67   2: 12.57   3: 12.35   4: 12.55   5: 12.54   6: 12.73   7: 11.21   8: 12.47
   9: 11.94  10: 12.03  11: 12.28  12: 12.04  13: 12.05  14: 12.38  15: 12.87  16: 11.95
  17: 12.04  18: 13.22  19: 12.87  20: 12.83  21: 12.30  22: 12.71  23: 11.94  24: 12.15
  25: 12.56  26: 11.99  27: 12.92  28: 13.16  29:  3.62  30: 12.49  31: 12.50  32: 10.72
  33: 12.01  34:  5.99  35:  2.68  36:  3.51  37:  9.66  38:  3.53  39:  3.92  40:  5.06
  41:  2.39  42:  4.82  43:  2.68  44:  3.84  45:  8.56  46:  1.73  47:  3.28  48:  8.28
  49:  3.51  50:  8.16  51:  6.85  52:  7.63  53:  8.27  54:  3.35  55:  7.36  56:  3.26
  57:  3.98  58:  1.88  59:  9.60  60: 11.49  61: 11.19  62:  8.56  63: 12.30  64:  5.58
  65: 10.67  66: 11.42  67: 11.95  68:  7.97  69:  4.77  70:  9.29  71:  1.85  72:  2.01
  73:  6.75  74:  8.50  75:  5.27  76:  5.35  77:  4.79  78:  4.70  79:  8.73  80:  7.69
  81:  9.65  82:  7.68  83:  9.79  84:  7.99  85:  9.21  86:  3.23  87:  4.89  88:  9.78
  89:  8.82  90:  8.08  91:  6.54  92:  6.76  93:  4.93  94:  8.42  95:  3.13  96:  4.77
  97:  6.42  98:  7.95  99:  6.68 100:  3.23 101:  4.85 102:  5.90 103:  5.76 104:  5.94
 105:  3.84 106:  3.27 107:  2.62 108:  2.54 109:  2.25 110:  2.02 111:  3.42 112:  1.83
 113:  1.84 114:  2.57 115:  3.06 116:  2.14 117:  3.50 118:  2.04 119:  1.65 120:  1.75
 121:  1.81 122:  8.11 123:  7.01 124:  7.66 125: 10.46 126: 12.16 127: 12.79 128: 12.71
 129: 12.79 130:  1.76 131:  1.68 132:  1.75 133:  1.74 134:  1.70 135:  1.57 136:  1.64
 137:  1.78 138:  1.75 139:  1.88 140:  1.56 141:  1.96 142:  1.84 143:  1.84 144:  1.85
 145:  1.74 146:  1.71 147:  1.49 148:  1.91 149:  1.45 150:  1.45 151:  1.44 152:  1.46
 153:  1.94 154:  1.89 155:  2.17 156:  2.15 157:  2.18 158:  2.19 159:  2.18
 IR intensities (km·mol⁻¹)
   1:  0.78   2:  2.44   3:  2.35   4:  1.38   5:  0.53   6:  1.71   7:  0.01   8:  0.05
   9:  0.40  10:  3.68  11:  1.72  12:  2.09  13:  7.27  14:  2.93  15:  8.91  16:  2.68
  17:  1.05  18:  1.03  19: 12.97  20:  0.32  21:  2.38  22:  2.99  23: 14.49  24:  4.31
  25: 21.28  26:  0.55  27:  0.46  28: 13.23  29:  7.91  30: 20.60  31: 33.02  32:  8.38
  33: 19.97  34:  2.37  35: 48.79  36:312.76  37:  1.66  38:598.01  39: 12.59  40:  1.23
  41: 81.67  42:  1.42  43:  1.64  44:122.64  45:  0.11  46: 11.68  47:259.32  48:  4.57
  49: 13.97  50: 10.18  51: 48.65  52: 20.01  53: 27.76  54: 24.67  55: 53.63  56: 34.92
  57: 30.95  58: 11.19  59: 33.09  60: 22.60  61: 24.90  62: 13.27  63: 44.68  64: 76.80
  65: 19.94  66: 25.14  67: 33.53  68:208.52  69:262.34  70:  6.65  71:245.76  72:224.21
  73:  2.35  74:  6.38  75:  1.61  76:  2.26  77:  7.99  78:  9.94  79:  0.14  80: 20.73
  81:  2.22  82: 28.42  83:  2.70  84: 14.11  85:  2.87  86:  1.10  87: 31.35  88:  1.72
  89:  4.83  90:  1.30  91: 11.84  92:  8.01  93: 20.04  94: 50.07  95: 16.49  96:  2.34
  97:  3.90  98: 17.78  99: 10.15 100:  4.59 101: 16.25 102: 85.71 103: 57.67 104:264.03
 105: 57.24 106: 47.84 107: 65.60 108: 13.73 109:  1.27 110:  0.21 111:  5.47 112:  1.56
 113:  4.42 114: 10.28 115:  4.10 116:  8.67 117: 23.98 118: 24.13 119: 17.73 120: 27.35
 121:  7.21 122:424.65 123:138.27 124:872.67 125:416.95 126:622.41 127:307.11 128:******
 129:102.43 130: 37.95 131:108.80 132: 19.46 133: 26.16 134: 29.51 135:353.59 136:516.56
 137:264.30 138: 88.89 139: 13.68 140: 10.46 141:161.22 142: 36.02 143: 96.50 144:785.04
 145:322.55 146:680.93 147: 49.68 148: 10.50 149: 14.88 150: 24.46 151: 39.70 152:  8.40
 153: 20.76 154:  9.31 155: 11.39 156: 30.11 157: 10.26 158: 13.51 159: 11.69
 Raman intensities (amu)
Molecule has no symmetry elements
It seems to be the C1 point group
   1:  0.00   2:  0.00   3:  0.00   4:  0.00   5:  0.00   6:  0.00   7:  0.00   8:  0.00
   9:  0.00  10:  0.00  11:  0.00  12:  0.00  13:  0.00  14:  0.00  15:  0.00  16:  0.00
  17:  0.00  18:  0.00  19:  0.00  20:  0.00  21:  0.00  22:  0.00  23:  0.00  24:  0.00
  25:  0.00  26:  0.00  27:  0.00  28:  0.00  29:  0.00  30:  0.00  31:  0.00  32:  0.00
  33:  0.00  34:  0.00  35:  0.00  36:  0.00  37:  0.00  38:  0.00  39:  0.00  40:  0.00
  41:  0.00  42:  0.00  43:  0.00  44:  0.00  45:  0.00  46:  0.00  47:  0.00  48:  0.00
  49:  0.00  50:  0.00  51:  0.00  52:  0.00  53:  0.00  54:  0.00  55:  0.00  56:  0.00
  57:  0.00  58:  0.00  59:  0.00  60:  0.00  61:  0.00  62:  0.00  63:  0.00  64:  0.00
  65:  0.00  66:  0.00  67:  0.00  68:  0.00  69:  0.00  70:  0.00  71:  0.00  72:  0.00
  73:  0.00  74:  0.00  75:  0.00  76:  0.00  77:  0.00  78:  0.00  79:  0.00  80:  0.00
  81:  0.00  82:  0.00  83:  0.00  84:  0.00  85:  0.00  86:  0.00  87:  0.00  88:  0.00
  89:  0.00  90:  0.00  91:  0.00  92:  0.00  93:  0.00  94:  0.00  95:  0.00  96:  0.00
  97:  0.00  98:  0.00  99:  0.00 100:  0.00 101:  0.00 102:  0.00 103:  0.00 104:  0.00
 105:  0.00 106:  0.00 107:  0.00 108:  0.00 109:  0.00 110:  0.00 111:  0.00 112:  0.00
 113:  0.00 114:  0.00 115:  0.00 116:  0.00 117:  0.00 118:  0.00 119:  0.00 120:  0.00
 121:  0.00 122:  0.00 123:  0.00 124:  0.00 125:  0.00 126:  0.00 127:  0.00 128:  0.00
 129:  0.00 130:  0.00 131:  0.00 132:  0.00 133:  0.00 134:  0.00 135:  0.00 136:  0.00
 137:  0.00 138:  0.00 139:  0.00 140:  0.00 141:  0.00 142:  0.00 143:  0.00 144:  0.00
 145:  0.00 146:  0.00 147:  0.00 148:  0.00 149:  0.00 150:  0.00 151:  0.00 152:  0.00
 153:  0.00 154:  0.00 155:  0.00 156:  0.00 157:  0.00 158:  0.00 159:  0.00
 output can be read by thermo (or use thermo option).
 writing <g98.out> molden fake output.
 recommended (thermochemical) frequency scaling factor: 1.0
           -------------------------------------------------
          |             Thermodynamic Functions             |
           -------------------------------------------------

c1  symmetry found (for desy threshold:  0.10E+00) used in thermo
 inverting freq            1   6.0763252261370120     

          ...................................................
          :                      SETUP                      :
          :.................................................:
          :  # frequencies                         153      :
          :  # imaginary freq.                       0      :
          :  linear?                             false      :
          :  only rotor calc.                    false      :
          :  symmetry                               c1      :
          :  rotational number                       1      :
          :  scaling factor                  1.0000000      :
          :  rotor cutoff                   50.0000000 cm⁻¹ :
          :  imag. cutoff                  -20.0000000 cm⁻¹ :
          :.................................................:

    mode    ω/cm⁻¹     T·S(HO)/kcal·mol⁻¹    T·S(FR)/kcal·mol⁻¹   T·S(vib)
   ------------------------------------------------------------------------
       1      6.08    -2.68362 (  0.02%)    -1.68070 ( 99.98%)    -1.68092
       2     10.39    -2.36579 (  0.19%)    -1.52185 ( 99.81%)    -1.52342
       3     17.28    -2.06467 (  1.41%)    -1.37129 ( 98.59%)    -1.38103
       4     23.59    -1.88019 (  4.72%)    -1.27899 ( 95.28%)    -1.30739
       5     29.39    -1.75022 ( 10.66%)    -1.21393 ( 89.34%)    -1.27112
       6     34.79    -1.65052 ( 18.98%)    -1.16399 ( 81.02%)    -1.25634
       7     45.32    -1.49427 ( 40.30%)    -1.08563 ( 59.70%)    -1.25030
       8     49.18    -1.44606 ( 48.34%)    -1.06143 ( 51.66%)    -1.24738
       9     52.22    -1.41074 ( 54.32%)    -1.04368 ( 45.68%)    -1.24309
      10     54.02    -1.39078 ( 57.66%)    -1.03364 ( 42.34%)    -1.23958
      11     60.56    -1.32347 ( 68.27%)    -0.99978 ( 31.73%)    -1.22077
      12     67.01    -1.26398 ( 76.33%)    -0.96980 ( 23.67%)    -1.19436
      13     77.41    -1.17935 ( 85.17%)    -0.92706 ( 14.83%)    -1.14194
      14     79.10    -1.16670 ( 86.23%)    -0.92066 ( 13.77%)    -1.13282
      15     88.85    -1.09878 ( 90.88%)    -0.88623 (  9.12%)    -1.07940
      16    100.01    -1.02987 ( 94.12%)    -0.85118 (  5.88%)    -1.01936
      17    104.73    -1.00309 ( 95.06%)    -0.83752 (  4.94%)    -0.99491
      18    106.45    -0.99362 ( 95.36%)    -0.83268 (  4.64%)    -0.98615
      19    115.86    -0.94460 ( 96.65%)    -0.80758 (  3.35%)    -0.94001
      20    123.91    -0.90592 ( 97.42%)    -0.78769 (  2.58%)    -0.90287
      21    135.32    -0.85540 ( 98.17%)    -0.76160 (  1.83%)    -0.85368
      22    147.43    -0.80652 ( 98.69%)    -0.73620 (  1.31%)    -0.80560
      23    158.99    -0.76379 ( 99.03%)    -0.71384 (  0.97%)    -0.76331
      24    169.11    -0.72910 ( 99.24%)    -0.69557 (  0.76%)    -0.72884
      25    185.57    -0.67728 ( 99.48%)    -0.66805 (  0.52%)    -0.67723
      26    193.23    -0.65493 ( 99.55%)    -0.65607 (  0.45%)    -0.65494
      27    257.39    -0.50072 ( 99.86%)    -0.57114 (  0.14%)    -0.50082
      28    277.93    -0.46104 ( 99.90%)    -0.54838 (  0.10%)    -0.46113
      29    294.65    -0.43146 ( 99.92%)    -0.53108 (  0.08%)    -0.43154
   ------------------------------------------------------------------------

   temp. (K)  partition function   enthalpy   heat capacity  entropy
                                   cal/mol     cal/K/mol   cal/K/mol   J/K/mol
 298.15  VIB  0.441E+18            19374.115    103.592    128.830
         ROT  0.155E+08              888.752      2.981     35.885
         INT  0.684E+25            20262.868    106.573    164.715
         TR   0.618E+28             1481.254      4.968     43.384
         TOT                       21744.1217   111.5412   208.0990   870.6861

       T/K    H(0)-H(T)+PV         H(T)/Eh          T*S/Eh         G(T)/Eh
   ------------------------------------------------------------------------
    298.15    0.346515E-01    0.474263E+00    0.988745E-01    0.375389E+00
   ------------------------------------------------------------------------

         :::::::::::::::::::::::::::::::::::::::::::::::::::::
         ::                  THERMODYNAMIC                  ::
         :::::::::::::::::::::::::::::::::::::::::::::::::::::
         :: total free energy         -80.559544166980 Eh   ::
         ::.................................................::
         :: total energy              -80.934932716597 Eh   ::
         :: zero point energy           0.439611617605 Eh   ::
         :: G(RRHO) w/o ZPVE           -0.064223067989 Eh   ::
         :: G(RRHO) contrib.            0.375388549616 Eh   ::
         :::::::::::::::::::::::::::::::::::::::::::::::::::::
imag cut-off (cm-1) :    5.00
 found            1  significant imaginary frequency
 writing imag mode distorted coords to xtbhess.xyz
 for further optimization.

           -------------------------------------------------
          | TOTAL ENERGY              -80.934932716597 Eh   |
          | TOTAL ENTHALPY            -80.460669635426 Eh   |
          | TOTAL FREE ENERGY         -80.559544166980 Eh   |
          | GRADIENT NORM               0.000068418226 Eh/α |
          | HOMO-LUMO GAP               5.710956865340 eV   |
           -------------------------------------------------

------------------------------------------------------------------------
 * finished run on 2024/01/10 at 15:36:25.573     
------------------------------------------------------------------------
 total:
 * wall-time:     0 d,  0 h,  0 min, 14.222 sec
 *  cpu-time:     0 d,  0 h,  0 min, 14.160 sec
 * ratio c/w:     0.996 speedup
 SCF:
 * wall-time:     0 d,  0 h,  0 min,  0.085 sec
 *  cpu-time:     0 d,  0 h,  0 min,  0.058 sec
 * ratio c/w:     0.684 speedup
 analytical hessian:
 * wall-time:     0 d,  0 h,  0 min, 14.111 sec
 *  cpu-time:     0 d,  0 h,  0 min, 14.075 sec
 * ratio c/w:     0.997 speedup

