      -----------------------------------------------------------      
     |                   =====================                   |     
     |                           x T B                           |     
     |                   =====================                   |     
     |                         S. Grimme                         |     
     |          Mulliken Center for Theoretical Chemistry        |     
     |                    University of Bonn                     |     
      -----------------------------------------------------------      

   * xtb version 6.6.1 (unknown-commit) compiled by '@Linux' on 12/27/2023

   xtb is free software: you can redistribute it and/or modify it under
   the terms of the GNU Lesser General Public License as published by
   the Free Software Foundation, either version 3 of the License, or
   (at your option) any later version.
   
   xtb is distributed in the hope that it will be useful,
   but WITHOUT ANY WARRANTY; without even the implied warranty of
   MERCHANTABILITY or FITNESS FOR A PARTICULAR PURPOSE.  See the
   GNU Lesser General Public License for more details.
   
   Cite this work as:
   * C. Bannwarth, E. Caldeweyher, S. Ehlert, A. Hansen, P. Pracht,
     J. Seibert, S. Spicher, S. Grimme, WIREs Comput. Mol. Sci., 2020, 11,
     e01493. DOI: 10.1002/wcms.1493
   
   for GFN2-xTB:
   * C. Bannwarth, S. Ehlert and S. Grimme., J. Chem. Theory Comput., 2019,
     15, 1652-1671. DOI: 10.1021/acs.jctc.8b01176
   for GFN1-xTB:
   * S. Grimme, C. Bannwarth, P. Shushkov, J. Chem. Theory Comput., 2017,
     13, 1989-2009. DOI: 10.1021/acs.jctc.7b00118
   for GFN0-xTB:
   * P. Pracht, E. Caldeweyher, S. Ehlert, S. Grimme, ChemRxiv, 2019, preprint.
     DOI: 10.26434/chemrxiv.8326202.v1
   for GFN-FF:
   * S. Spicher and S. Grimme, Angew. Chem. Int. Ed., 2020, 59, 15665-15673.
     DOI: 10.1002/anie.202004239
   
   for ALPB and GBSA implicit solvation:
   * S. Ehlert, M. Stahn, S. Spicher, S. Grimme, J. Chem. Theory Comput.,
     2021, 17, 4250-4261. DOI: 10.1021/acs.jctc.1c00471
   
   for DFT-D4:
   * E. Caldeweyher, C. Bannwarth and S. Grimme, J. Chem. Phys., 2017,
     147, 034112. DOI: 10.1063/1.4993215
   * E. Caldeweyher, S. Ehlert, A. Hansen, H. Neugebauer, S. Spicher,
     C. Bannwarth and S. Grimme, J. Chem. Phys., 2019, 150, 154122.
     DOI: 10.1063/1.5090222
   * E. Caldeweyher, J.-M. Mewes, S. Ehlert and S. Grimme, Phys. Chem. Chem. Phys.
     2020, 22, 8499-8512. DOI: 10.1039/D0CP00502A
   
   for sTDA-xTB:
   * S. Grimme and C. Bannwarth, J. Chem. Phys., 2016, 145, 054103.
     DOI: 10.1063/1.4959605
   
   in the mass-spec context:
   * V. Asgeirsson, C. Bauer and S. Grimme, Chem. Sci., 2017, 8, 4879.
     DOI: 10.1039/c7sc00601b
   * J. Koopman and S. Grimme, ACS Omega 2019, 4, 12, 15120-15133.
     DOI: 10.1021/acsomega.9b02011
   
   for metadynamics refer to:
   * S. Grimme, J. Chem. Theory Comput., 2019, 155, 2847-2862
     DOI: 10.1021/acs.jctc.9b00143
   
   for SPH calculations refer to:
   * S. Spicher and S. Grimme, J. Chem. Theory Comput., 2021, 17, 1701-1714
     DOI: 10.1021/acs.jctc.0c01306
   
   with help from (in alphabetical order)
   P. Atkinson, C. Bannwarth, F. Bohle, G. Brandenburg, E. Caldeweyher
   M. Checinski, S. Dohm, S. Ehlert, S. Ehrlich, I. Gerasimov, C. Hölzer
   A. Katbashev, J. Koopman, C. Lavigne, S. Lehtola, F. März, M. Müller,
   F. Musil, H. Neugebauer, J. Pisarek, C. Plett, P. Pracht, F. Pultar,
   J. Seibert, P. Shushkov, S. Spicher, M. Stahn, M. Steiner, T. Strunk,
   J. Stückrath, T. Rose, and J. Unsleber
   
 * started run on 2024/01/10 at 18:22:59.845     

           -------------------------------------------------
          |                Calculation Setup                |
           -------------------------------------------------

          program call               : xtb struc.xyz --gfn2 --hess
          hostname                   : swaroop
          coordinate file            : struc.xyz
          omp threads                :                     1

   ID    Z sym.   atoms
    1    8 O      1, 23, 31, 39, 47
    2    6 C      2, 5, 9, 13, 17, 22, 30, 38, 46
    3    1 H      3, 4, 6, 7, 10-12, 14-16, 18-21, 25, 26, 28, 29, 33, 34,
                  36, 37, 41, 42, 44, 45, 49, 50, 52, 53
    4    7 N      8, 24, 27, 32, 35, 40, 43, 48, 51

molecular fragmentation (1/2 indicates fragments):
11111111111111111111122222222222222222222222222222222
# atoms in fragment 1/2:    21    32
 fragment masses (1/2) :      104.17      240.22
CMA distance (Bohr)    :   7.160
constraining FC (au)   :  0.0500

           -------------------------------------------------
          |                 G F N 2 - x T B                 |
           -------------------------------------------------

        Reference                      10.1021/acs.jctc.8b01176
      * Hamiltonian:
        H0-scaling (s, p, d)           1.850000    2.230000    2.230000
        zeta-weighting                 0.500000
      * Dispersion:
        s8                             2.700000
        a1                             0.520000
        a2                             5.000000
        s9                             5.000000
      * Repulsion:
        kExp                           1.500000    1.000000
        rExp                           1.000000
      * Coulomb:
        alpha                          2.000000
        third order                    shell-resolved
        anisotropic                    true
        a3                             3.000000
        a5                             4.000000
        cn-shift                       1.200000
        cn-exp                         4.000000
        max-rad                        5.000000


          ...................................................
          :                      SETUP                      :
          :.................................................:
          :  # basis functions                 122          :
          :  # atomic orbitals                 122          :
          :  # shells                           76          :
          :  # electrons                       140          :
          :  max. iterations                   250          :
          :  Hamiltonian                  GFN2-xTB          :
          :  restarted?                      false          :
          :  GBSA solvation                  false          :
          :  PC potential                    false          :
          :  electronic temp.          300.0000000     K    :
          :  accuracy                    1.0000000          :
          :  -> integral cutoff          0.2500000E+02      :
          :  -> integral neglect         0.1000000E-07      :
          :  -> SCF convergence          0.1000000E-05 Eh   :
          :  -> wf. convergence          0.1000000E-03 e    :
          :  Broyden damping             0.4000000          :
          ...................................................

 iter      E             dE          RMSdq      gap      omega  full diag
   1    -81.5527638 -0.815528E+02  0.433E+00    5.11       0.0  T
   2    -81.8371406 -0.284377E+00  0.238E+00    6.05       1.0  T
   3    -81.8429422 -0.580165E-02  0.116E+00    5.76       1.0  T
   4    -81.8443848 -0.144260E-02  0.240E-01    5.85       1.0  T
   5    -81.8452904 -0.905618E-03  0.910E-02    5.77       1.0  T
   6    -81.8453144 -0.239778E-04  0.264E-02    5.79       1.0  T
   7    -81.8453190 -0.453461E-05  0.747E-03    5.79       1.8  T
   8    -81.8453192 -0.244958E-06  0.296E-03    5.79       4.6  T
   9    -81.8453192 -0.371624E-07  0.917E-04    5.79      15.0  T
  10    -81.8453192 -0.390637E-08  0.191E-04    5.79      72.0  T

   *** convergence criteria satisfied after 10 iterations ***

         #    Occupation            Energy/Eh            Energy/eV
      -------------------------------------------------------------
         1        2.0000           -0.8077252             -21.9793
       ...           ...                  ...                  ...
        64        2.0000           -0.4916690             -13.3790
        65        2.0000           -0.4906678             -13.3518
        66        2.0000           -0.4885693             -13.2946
        67        2.0000           -0.4854688             -13.2103
        68        2.0000           -0.4840068             -13.1705
        69        2.0000           -0.4825009             -13.1295
        70        2.0000           -0.4795218             -13.0485 (HOMO)
        71                         -0.2669076              -7.2629 (LUMO)
        72                         -0.2606041              -7.0914
        73                         -0.2561473              -6.9701
        74                         -0.2523435              -6.8666
        75                         -0.1554698              -4.2305
       ...                                ...                  ...
       122                          0.5678280              15.4514
      -------------------------------------------------------------
                  HL-Gap            0.2126143 Eh            5.7855 eV
             Fermi-level           -0.3732147 Eh          -10.1557 eV

 SCC (total)                   0 d,  0 h,  0 min,  0.095 sec
 SCC setup                      ...        0 min,  0.000 sec (  0.295%)
 Dispersion                     ...        0 min,  0.001 sec (  0.608%)
 classical contributions        ...        0 min,  0.000 sec (  0.186%)
 integral evaluation            ...        0 min,  0.008 sec (  8.196%)
 iterations                     ...        0 min,  0.059 sec ( 62.095%)
 molecular gradient             ...        0 min,  0.027 sec ( 28.322%)
 printout                       ...        0 min,  0.000 sec (  0.286%)

         :::::::::::::::::::::::::::::::::::::::::::::::::::::
         ::                     SUMMARY                     ::
         :::::::::::::::::::::::::::::::::::::::::::::::::::::
         :: total energy             -80.931071258806 Eh    ::
         :: gradient norm              0.000052000319 Eh/a0 ::
         :: HOMO-LUMO gap              5.785528275334 eV    ::
         ::.................................................::
         :: SCC energy               -81.845319243577 Eh    ::
         :: -> isotropic ES            0.295097398920 Eh    ::
         :: -> anisotropic ES         -0.027147081763 Eh    ::
         :: -> anisotropic XC          0.020216822097 Eh    ::
         :: -> dispersion             -0.045121968650 Eh    ::
         :: repulsion energy           0.912892751320 Eh    ::
         :: add. restraining           0.000000000000 Eh    ::
         :: total charge               1.000000000000 e     ::
         :::::::::::::::::::::::::::::::::::::::::::::::::::::

           ------------------------------------------------- 
          |                Numerical Hessian                |
           ------------------------------------------------- 
step length          :   0.00500
SCC accuracy         :   0.30000
Hessian scale factor :   1.00000
frozen atoms in %    :   0.00000    0
RMS gradient         :   0.00005
estimated CPU  time      0.23 min
estimated wall time      0.23 min

writing file <hessian>.

 projected vibrational frequencies (cm⁻¹)
eigval :       -0.00    -0.00    -0.00    -0.00     0.00     0.00
eigval :       14.12    18.66    26.24    36.88    40.73    41.92
eigval :       48.73    51.09    52.51    56.79    66.41    68.21
eigval :       78.91    84.58    91.12    97.98   106.59   120.14
eigval :      125.34   132.52   144.77   150.93   180.61   183.68
eigval :      187.64   188.80   204.48   221.83   236.50   251.99
eigval :      278.91   292.47   303.86   332.01   339.31   347.35
eigval :      362.31   371.33   379.39   421.57   428.09   459.71
eigval :      463.49   465.88   470.34   473.81   477.51   483.16
eigval :      485.23   500.92   539.42   543.79   549.30   554.28
eigval :      559.40   565.30   573.38   645.75   670.31   674.44
eigval :      676.21   694.43   720.65   751.75   763.65   790.18
eigval :      887.71   921.96   960.84   963.07   965.68   976.46
eigval :      998.33  1010.89  1011.01  1013.54  1017.69  1022.80
eigval :     1031.47  1033.33  1039.42  1083.15  1086.49  1089.19
eigval :     1090.81  1091.97  1112.63  1122.60  1176.60  1214.38
eigval :     1238.72  1250.66  1275.50  1318.21  1347.59  1354.19
eigval :     1361.83  1367.78  1374.08  1384.39  1401.99  1408.10
eigval :     1412.71  1435.90  1440.12  1445.71  1447.44  1450.38
eigval :     1457.51  1461.95  1465.93  1467.22  1471.89  1479.95
eigval :     1490.16  1500.47  1506.81  1509.97  1529.00  1649.90
eigval :     1690.70  1704.00  1708.92  2912.57  2939.03  2966.84
eigval :     3006.64  3024.03  3036.19  3042.81  3045.22  3045.97
eigval :     3050.97  3058.83  3067.14  3070.44  3138.76  3238.29
eigval :     3294.97  3349.72  3418.07  3443.01  3499.11  3501.55
eigval :     3505.07  3533.37  3536.39  3542.99  3546.65  3562.06
eigval :     3565.35  3568.09  3573.80
           -------------------------------------------------
          |                Property Printout                |
           -------------------------------------------------

    * Orbital Energies and Occupations

         #    Occupation            Energy/Eh            Energy/eV
      -------------------------------------------------------------
         1        2.0000           -0.8077249             -21.9793
       ...           ...                  ...                  ...
        58        2.0000           -0.5277706             -14.3614
        59        2.0000           -0.5043769             -13.7248
        60        2.0000           -0.5006718             -13.6240
        61        2.0000           -0.4974166             -13.5354
        62        2.0000           -0.4939278             -13.4405
        63        2.0000           -0.4930561             -13.4167
        64        2.0000           -0.4916710             -13.3790
        65        2.0000           -0.4906699             -13.3518
        66        2.0000           -0.4885710             -13.2947
        67        2.0000           -0.4854709             -13.2103
        68        2.0000           -0.4840088             -13.1706
        69        2.0000           -0.4825029             -13.1296
        70        2.0000           -0.4795239             -13.0485 (HOMO)
        71                         -0.2669088              -7.2630 (LUMO)
        72                         -0.2606056              -7.0914
        73                         -0.2561498              -6.9702
        74                         -0.2523464              -6.8667
        75                         -0.1554691              -4.2305
        76                         -0.1065116              -2.8983
        77                         -0.0907053              -2.4682
        78                         -0.0855593              -2.3282
        79                         -0.0819792              -2.2308
        80                         -0.0766359              -2.0854
        81                         -0.0713640              -1.9419
       ...                                ...                  ...
       122                          0.5678255              15.4513
      -------------------------------------------------------------
                  HL-Gap            0.2126150 Eh            5.7855 eV
             Fermi-level           -0.3732164 Eh          -10.1557 eV

     #   Z          covCN         q      C6AA      α(0)
     1   8 O        1.654    -0.445    21.743     6.295
     2   6 C        3.672     0.070    19.630     6.350
     3   1 H        0.924     0.046     2.366     2.405
     4   1 H        0.924     0.055     2.260     2.351
     5   6 C        3.772    -0.068    21.834     6.659
     6   1 H        0.924     0.121     1.607     1.982
     7   1 H        0.924     0.138     1.479     1.902
     8   7 N        3.624     0.160    18.546     6.396
     9   6 C        3.719    -0.113    22.789     6.818
    10   1 H        0.924     0.129     1.545     1.944
    11   1 H        0.925     0.077     2.015     2.220
    12   1 H        0.925     0.100     1.789     2.092
    13   6 C        3.741    -0.115    22.786     6.811
    14   1 H        0.925     0.113     1.668     2.019
    15   1 H        0.925     0.126     1.566     1.957
    16   1 H        0.925     0.081     1.964     2.192
    17   6 C        3.724    -0.108    22.686     6.801
    18   1 H        0.925     0.085     1.930     2.172
    19   1 H        0.925     0.086     1.917     2.165
    20   1 H        0.925     0.130     1.532     1.936
    21   1 H        0.805     0.301     0.718     1.331
    22   6 C        2.675     0.341    21.208     7.536
    23   8 O        0.860    -0.528    24.423     6.626
    24   7 N        2.645    -0.321    28.248     7.894
    25   1 H        0.860     0.221     1.004     1.570
    26   1 H        0.860     0.203     1.089     1.635
    27   7 N        2.645    -0.294    27.569     7.798
    28   1 H        0.861     0.187     1.177     1.699
    29   1 H        0.861     0.191     1.151     1.680
    30   6 C        2.675     0.341    21.213     7.537
    31   8 O        0.861    -0.552    24.958     6.698
    32   7 N        2.644    -0.304    27.834     7.836
    33   1 H        0.859     0.250     0.885     1.474
    34   1 H        0.861     0.179     1.222     1.732
    35   7 N        2.645    -0.301    27.751     7.824
    36   1 H        0.861     0.178     1.223     1.732
    37   1 H        0.860     0.222     1.002     1.568
    38   6 C        2.675     0.342    21.189     7.533
    39   8 O        0.861    -0.518    24.189     6.594
    40   7 N        2.644    -0.305    27.851     7.838
    41   1 H        0.860     0.233     0.954     1.530
    42   1 H        0.861     0.177     1.230     1.737
    43   7 N        2.645    -0.287    27.418     7.777
    44   1 H        0.861     0.183     1.195     1.712
    45   1 H        0.860     0.203     1.091     1.636
    46   6 C        2.675     0.342    21.183     7.531
    47   8 O        0.860    -0.538    24.652     6.657
    48   7 N        2.645    -0.294    27.572     7.799
    49   1 H        0.860     0.196     1.124     1.661
    50   1 H        0.861     0.180     1.216     1.727
    51   7 N        2.644    -0.309    27.962     7.854
    52   1 H        0.861     0.172     1.262     1.760
    53   1 H        0.860     0.242     0.915     1.498

 Mol. C6AA /au·bohr⁶  :      21779.599929
 Mol. C8AA /au·bohr⁸  :     454171.693679
 Mol. α(0) /au        :        220.479330


Wiberg/Mayer (AO) data.
largest (>0.10) Wiberg bond orders for each atom

 ---------------------------------------------------------------------------
     #   Z sym  total        # sym  WBO       # sym  WBO       # sym  WBO
 ---------------------------------------------------------------------------
     1   8 O    1.974 --     2 C    0.985    21 H    0.894
     2   6 C    3.953 --     5 C    1.013     1 O    0.985     4 H    0.966
                             3 H    0.965
     3   1 H    0.998 --     2 C    0.965
     4   1 H    0.997 --     2 C    0.966
     5   6 C    3.923 --     2 C    1.013     6 H    0.954     7 H    0.936
                             8 N    0.935
     6   1 H    0.985 --     5 C    0.954
     7   1 H    0.981 --     5 C    0.936
     8   7 N    3.823 --    17 C    0.960     9 C    0.957    13 C    0.953
                             5 C    0.935
     9   6 C    3.921 --    11 H    0.979    12 H    0.971     8 N    0.957
                            10 H    0.951
    10   1 H    0.983 --     9 C    0.951
    11   1 H    0.994 --     9 C    0.979
    12   1 H    0.990 --     9 C    0.971
    13   6 C    3.916 --    16 H    0.978    14 H    0.968    15 H    0.960
                             8 N    0.953
    14   1 H    0.987 --    13 C    0.968
    15   1 H    0.984 --    13 C    0.960
    16   1 H    0.993 --    13 C    0.978
    17   6 C    3.928 --    19 H    0.977    18 H    0.975    20 H    0.961
                             8 N    0.960
    18   1 H    0.993 --    17 C    0.975
    19   1 H    0.993 --    17 C    0.977
    20   1 H    0.983 --    17 C    0.961
    21   1 H    0.909 --     1 O    0.894
    22   6 C    3.959 --    23 O    1.515    24 N    1.233    27 N    1.202
    23   8 O    1.905 --    22 C    1.515    27 N    0.139    24 N    0.139
    24   7 N    3.312 --    22 C    1.233    26 H    0.923    25 H    0.892
                            23 O    0.139
    25   1 H    0.951 --    24 N    0.892
    26   1 H    0.958 --    24 N    0.923
    27   7 N    3.320 --    22 C    1.202    28 H    0.947    29 H    0.946
                            23 O    0.139
    28   1 H    0.965 --    27 N    0.947
    29   1 H    0.963 --    27 N    0.946
    30   6 C    3.960 --    31 O    1.441    32 N    1.278    35 N    1.229
    31   8 O    1.884 --    30 C    1.441    32 N    0.138    35 N    0.125
    32   7 N    3.358 --    30 C    1.278    34 H    0.948    33 H    0.859
                            31 O    0.138
    33   1 H    0.938 --    32 N    0.859
    34   1 H    0.968 --    32 N    0.948
    35   7 N    3.332 --    30 C    1.229    36 H    0.949    37 H    0.910
                            31 O    0.125
    36   1 H    0.968 --    35 N    0.949
    37   1 H    0.951 --    35 N    0.910
    38   6 C    3.960 --    39 O    1.501    40 N    1.240    43 N    1.210
    39   8 O    1.922 --    38 C    1.501    40 N    0.144    43 N    0.133
    40   7 N    3.336 --    38 C    1.240    42 H    0.949    41 H    0.888
                            39 O    0.144
    41   1 H    0.946 --    40 N    0.888
    42   1 H    0.969 --    40 N    0.949
    43   7 N    3.324 --    38 C    1.210    44 H    0.947    45 H    0.942
                            39 O    0.133
    44   1 H    0.966 --    43 N    0.947
    45   1 H    0.959 --    43 N    0.942
    46   6 C    3.959 --    47 O    1.510    51 N    1.244    48 N    1.197
    47   8 O    1.881 --    46 C    1.510    51 N    0.147    48 N    0.135
    48   7 N    3.313 --    46 C    1.197    50 H    0.949    49 H    0.945
                            47 O    0.135
    49   1 H    0.961 --    48 N    0.945
    50   1 H    0.967 --    48 N    0.949
    51   7 N    3.334 --    46 C    1.244    52 H    0.951    53 H    0.876
                            47 O    0.147
    52   1 H    0.970 --    51 N    0.951
    53   1 H    0.941 --    51 N    0.876
 ---------------------------------------------------------------------------

Topologies differ in total number of bonds
Writing topology from bond orders to xtbtopo.mol

molecular dipole:
                 x           y           z       tot (Debye)
 q only:       -0.037      -1.009       1.102
   full:        0.002      -0.447       0.961       2.695
molecular quadrupole (traceless):
                xx          xy          yy          xz          yz          zz
 q only:       17.299       1.182     -20.850     -10.557      -5.582       3.551
  q+dip:       22.936       0.389     -26.478     -13.055      -5.096       3.542
   full:       23.208       0.525     -26.681     -12.349      -4.148       3.473

           -------------------------------------------------
          |               Frequency Printout                |
           -------------------------------------------------
 projected vibrational frequencies (cm⁻¹)
eigval :       -0.00    -0.00    -0.00    -0.00     0.00     0.00
eigval :       14.12    18.66    26.24    36.88    40.73    41.92
eigval :       48.73    51.09    52.51    56.79    66.41    68.21
eigval :       78.91    84.58    91.12    97.98   106.59   120.14
eigval :      125.34   132.52   144.77   150.93   180.61   183.68
eigval :      187.64   188.80   204.48   221.83   236.50   251.99
eigval :      278.91   292.47   303.86   332.01   339.31   347.35
eigval :      362.31   371.33   379.39   421.57   428.09   459.71
eigval :      463.49   465.88   470.34   473.81   477.51   483.16
eigval :      485.23   500.92   539.42   543.79   549.30   554.28
eigval :      559.40   565.30   573.38   645.75   670.31   674.44
eigval :      676.21   694.43   720.65   751.75   763.65   790.18
eigval :      887.71   921.96   960.84   963.07   965.68   976.46
eigval :      998.33  1010.89  1011.01  1013.54  1017.69  1022.80
eigval :     1031.47  1033.33  1039.42  1083.15  1086.49  1089.19
eigval :     1090.81  1091.97  1112.63  1122.60  1176.60  1214.38
eigval :     1238.72  1250.66  1275.50  1318.21  1347.59  1354.19
eigval :     1361.83  1367.78  1374.08  1384.39  1401.99  1408.10
eigval :     1412.71  1435.90  1440.12  1445.71  1447.44  1450.38
eigval :     1457.51  1461.95  1465.93  1467.22  1471.89  1479.95
eigval :     1490.16  1500.47  1506.81  1509.97  1529.00  1649.90
eigval :     1690.70  1704.00  1708.92  2912.57  2939.03  2966.84
eigval :     3006.64  3024.03  3036.19  3042.81  3045.22  3045.97
eigval :     3050.97  3058.83  3067.14  3070.44  3138.76  3238.29
eigval :     3294.97  3349.72  3418.07  3443.01  3499.11  3501.55
eigval :     3505.07  3533.37  3536.39  3542.99  3546.65  3562.06
eigval :     3565.35  3568.09  3573.80
 reduced masses (amu)
   1: 12.82   2: 12.43   3: 12.29   4: 12.28   5: 12.81   6: 12.65   7: 12.21   8: 12.24
   9: 11.88  10: 12.29  11: 12.68  12: 12.54  13: 11.79  14: 12.07  15: 13.39  16: 12.92
  17: 12.74  18: 11.90  19: 12.86  20: 12.82  21: 12.82  22: 12.28  23: 11.38  24: 13.18
  25: 13.01  26: 12.64  27: 12.73  28: 13.13  29:  9.18  30: 11.81  31:  5.62  32: 12.83
  33: 11.90  34:  2.32  35:  2.04  36:  3.87  37:  4.77  38:  5.03  39:  6.30  40:  2.74
  41:  3.66  42:  3.92  43:  3.71  44:  6.55  45:  3.11  46:  3.21  47:  8.49  48:  8.19
  49:  7.70  50:  7.61  51:  6.01  52:  3.69  53:  3.84  54:  2.33  55:  8.37  56:  8.61
  57:  7.82  58:  8.36  59:  9.43  60: 10.86  61:  9.20  62:  7.57  63:  5.75  64:  5.40
  65: 11.13  66: 11.32  67: 11.82  68:  7.43  69:  2.07  70:  3.06  71:  9.17  72:  1.89
  73:  7.33  74:  8.22  75:  4.96  76:  5.01  77:  5.03  78:  4.50  79:  7.69  80:  9.07
  81:  8.48  82:  8.57  83:  9.15  84:  6.94  85:  9.33  86:  3.74  87:  4.38  88:  8.96
  89:  8.56  90:  8.65  91:  8.42  92:  7.34  93:  4.56  94:  7.87  95:  3.54  96:  3.06
  97:  6.42  98:  5.67  99:  8.24 100:  5.85 101:  3.79 102:  4.90 103:  5.53 104:  5.46
 105:  4.81 106:  4.51 107:  2.45 108:  2.22 109:  2.55 110:  2.65 111:  1.70 112:  3.03
 113:  3.07 114:  2.08 115:  1.90 116:  2.31 117:  2.29 118:  1.70 119:  3.81 120:  1.69
 121:  1.74 122:  7.41 123:  8.67 124:  8.72 125: 10.06 126: 12.27 127: 12.73 128: 12.64
 129: 12.69 130:  1.98 131:  1.46 132:  1.79 133:  1.75 134:  1.73 135:  1.69 136:  1.86
 137:  1.82 138:  1.49 139:  1.77 140:  1.76 141:  1.76 142:  1.70 143:  1.83 144:  1.77
 145:  1.76 146:  1.71 147:  1.63 148:  1.94 149:  1.45 150:  1.45 151:  1.45 152:  1.91
 153:  1.90 154:  1.94 155:  2.00 156:  1.88 157:  2.18 158:  2.18 159:  2.19
 IR intensities (km·mol⁻¹)
   1:  1.15   2:  1.95   3:  0.61   4:  2.51   5:  2.24   6:  0.36   7:  0.50   8:  0.63
   9:  0.95  10:  0.82  11:  3.94  12:  1.38  13:  0.15  14:  0.40  15:  0.72  16:  1.32
  17:  1.01  18:  1.50  19:  1.57  20: 10.37  21:  6.15  22: 10.81  23:  2.29  24:  9.26
  25:  2.10  26: 25.85  27: 14.07  28: 19.84  29: 29.23  30: 35.85  31:173.96  32:  5.17
  33: 75.00  34:112.20  35: 79.25  36:  0.92  37: 28.64  38: 30.96  39: 38.04  40:  7.95
  41:  5.77  42:203.69  43:116.46  44: 23.23  45:372.26  46:357.50  47: 12.20  48:  4.10
  49:  2.54  50: 20.74  51: 16.14  52: 16.60  53:  9.88  54: 13.95  55: 23.75  56: 34.94
  57:  1.75  58: 32.99  59: 27.76  60: 13.66  61: 12.34  62: 50.11  63: 36.18  64:  4.42
  65: 15.55  66: 19.32  67: 28.64  68: 54.30  69: 64.53  70:537.98  71:  6.44  72:303.28
  73:  6.94  74:  8.57  75:  3.81  76:  8.89  77: 12.35  78:  1.97  79: 31.53  80:  2.01
  81: 30.61  82:  4.53  83:  1.31  84: 19.57  85:  1.06  86:  0.56  87:  2.74  88:  1.37
  89:  0.99  90:  0.66  91:  8.77  92: 72.60  93:  2.41  94: 33.39  95:  3.79  96: 53.50
  97: 48.16  98: 10.93  99:  1.76 100:  5.58 101: 23.90 102:175.68 103: 44.25 104: 68.85
 105: 52.99 106: 22.93 107: 40.36 108:  6.29 109:  5.58 110: 25.20 111:  0.19 112: 10.99
 113: 13.92 114: 19.60 115:  2.49 116:  5.34 117: 22.81 118:  4.79 119: 42.59 120: 61.90
 121:  5.20 122:748.23 123:124.22 124:829.48 125:456.90 126:504.32 127:899.96 128:******
 129:487.86 130: 26.17 131: 39.18 132: 77.18 133:109.49 134:  8.16 135:  7.30 136: 27.83
 137:  9.49 138: 16.55 139: 20.17 140:  5.31 141:  1.69 142:  0.12 143:840.08 144:******
 145:681.13 146:582.30 147:225.50 148:114.82 149: 20.54 150: 17.50 151: 18.85 152: 10.19
 153:  9.61 154: 17.12 155: 26.96 156: 26.61 157: 15.73 158: 10.49 159: 11.48
 Raman intensities (amu)
Molecule has no symmetry elements
It seems to be the C1 point group
   1:  0.00   2:  0.00   3:  0.00   4:  0.00   5:  0.00   6:  0.00   7:  0.00   8:  0.00
   9:  0.00  10:  0.00  11:  0.00  12:  0.00  13:  0.00  14:  0.00  15:  0.00  16:  0.00
  17:  0.00  18:  0.00  19:  0.00  20:  0.00  21:  0.00  22:  0.00  23:  0.00  24:  0.00
  25:  0.00  26:  0.00  27:  0.00  28:  0.00  29:  0.00  30:  0.00  31:  0.00  32:  0.00
  33:  0.00  34:  0.00  35:  0.00  36:  0.00  37:  0.00  38:  0.00  39:  0.00  40:  0.00
  41:  0.00  42:  0.00  43:  0.00  44:  0.00  45:  0.00  46:  0.00  47:  0.00  48:  0.00
  49:  0.00  50:  0.00  51:  0.00  52:  0.00  53:  0.00  54:  0.00  55:  0.00  56:  0.00
  57:  0.00  58:  0.00  59:  0.00  60:  0.00  61:  0.00  62:  0.00  63:  0.00  64:  0.00
  65:  0.00  66:  0.00  67:  0.00  68:  0.00  69:  0.00  70:  0.00  71:  0.00  72:  0.00
  73:  0.00  74:  0.00  75:  0.00  76:  0.00  77:  0.00  78:  0.00  79:  0.00  80:  0.00
  81:  0.00  82:  0.00  83:  0.00  84:  0.00  85:  0.00  86:  0.00  87:  0.00  88:  0.00
  89:  0.00  90:  0.00  91:  0.00  92:  0.00  93:  0.00  94:  0.00  95:  0.00  96:  0.00
  97:  0.00  98:  0.00  99:  0.00 100:  0.00 101:  0.00 102:  0.00 103:  0.00 104:  0.00
 105:  0.00 106:  0.00 107:  0.00 108:  0.00 109:  0.00 110:  0.00 111:  0.00 112:  0.00
 113:  0.00 114:  0.00 115:  0.00 116:  0.00 117:  0.00 118:  0.00 119:  0.00 120:  0.00
 121:  0.00 122:  0.00 123:  0.00 124:  0.00 125:  0.00 126:  0.00 127:  0.00 128:  0.00
 129:  0.00 130:  0.00 131:  0.00 132:  0.00 133:  0.00 134:  0.00 135:  0.00 136:  0.00
 137:  0.00 138:  0.00 139:  0.00 140:  0.00 141:  0.00 142:  0.00 143:  0.00 144:  0.00
 145:  0.00 146:  0.00 147:  0.00 148:  0.00 149:  0.00 150:  0.00 151:  0.00 152:  0.00
 153:  0.00 154:  0.00 155:  0.00 156:  0.00 157:  0.00 158:  0.00 159:  0.00
 output can be read by thermo (or use thermo option).
 writing <g98.out> molden fake output.
 recommended (thermochemical) frequency scaling factor: 1.0
           -------------------------------------------------
          |             Thermodynamic Functions             |
           -------------------------------------------------

c1  symmetry found (for desy threshold:  0.10E+00) used in thermo

          ...................................................
          :                      SETUP                      :
          :.................................................:
          :  # frequencies                         153      :
          :  # imaginary freq.                       0      :
          :  linear?                             false      :
          :  only rotor calc.                    false      :
          :  symmetry                               c1      :
          :  rotational number                       1      :
          :  scaling factor                  1.0000000      :
          :  rotor cutoff                   50.0000000 cm⁻¹ :
          :  imag. cutoff                  -20.0000000 cm⁻¹ :
          :.................................................:

    mode    ω/cm⁻¹     T·S(HO)/kcal·mol⁻¹    T·S(FR)/kcal·mol⁻¹   T·S(vib)
   ------------------------------------------------------------------------
       1     14.12    -2.18431 (  0.63%)    -1.43111 ( 99.37%)    -1.43586
       2     18.66    -2.01890 (  1.90%)    -1.34839 ( 98.10%)    -1.36116
       3     26.24    -1.81725 (  7.05%)    -1.24749 ( 92.95%)    -1.28766
       4     36.88    -1.61605 ( 22.83%)    -1.14671 ( 77.17%)    -1.25386
       5     40.73    -1.55724 ( 30.58%)    -1.11722 ( 69.42%)    -1.25179
       6     41.92    -1.54024 ( 33.08%)    -1.10870 ( 66.92%)    -1.25145
       7     48.73    -1.45153 ( 47.42%)    -1.06417 ( 52.58%)    -1.24786
       8     51.09    -1.42353 ( 52.16%)    -1.05010 ( 47.84%)    -1.24490
       9     52.51    -1.40748 ( 54.87%)    -1.04204 ( 45.13%)    -1.24257
      10     56.79    -1.36130 ( 62.46%)    -1.01881 ( 37.54%)    -1.23273
      11     66.41    -1.26919 ( 75.69%)    -0.97243 ( 24.31%)    -1.19704
      12     68.21    -1.25356 ( 77.59%)    -0.96454 ( 22.41%)    -1.18879
      13     78.91    -1.16806 ( 86.12%)    -0.92135 ( 13.88%)    -1.13382
      14     84.58    -1.12752 ( 89.12%)    -0.90081 ( 10.88%)    -1.10284
      15     91.12    -1.08401 ( 91.69%)    -0.87873 (  8.31%)    -1.06695
      16     97.98    -1.04174 ( 93.65%)    -0.85723 (  6.35%)    -1.03002
      17    106.59    -0.99285 ( 95.38%)    -0.83228 (  4.62%)    -0.98544
      18    120.14    -0.92368 ( 97.09%)    -0.79683 (  2.91%)    -0.91999
      19    125.34    -0.89931 ( 97.53%)    -0.78429 (  2.47%)    -0.89647
      20    132.52    -0.86734 ( 98.01%)    -0.76778 (  1.99%)    -0.86536
      21    144.77    -0.81687 ( 98.60%)    -0.74159 (  1.40%)    -0.81582
      22    150.93    -0.79324 ( 98.81%)    -0.72926 (  1.19%)    -0.79248
      23    180.61    -0.69233 ( 99.42%)    -0.67607 (  0.58%)    -0.69223
      24    183.68    -0.68296 ( 99.45%)    -0.67108 (  0.55%)    -0.68290
      25    187.64    -0.67113 ( 99.50%)    -0.66476 (  0.50%)    -0.67110
      26    188.80    -0.66774 ( 99.51%)    -0.66294 (  0.49%)    -0.66772
      27    204.48    -0.62384 ( 99.64%)    -0.63930 (  0.36%)    -0.62390
      28    221.83    -0.57963 ( 99.74%)    -0.61517 (  0.26%)    -0.57972
      29    236.50    -0.54533 ( 99.80%)    -0.59620 (  0.20%)    -0.54543
      30    251.99    -0.51180 ( 99.85%)    -0.57741 (  0.15%)    -0.51190
      31    278.91    -0.45925 ( 99.90%)    -0.54734 (  0.10%)    -0.45934
      32    292.47    -0.43518 ( 99.91%)    -0.53328 (  0.09%)    -0.43527
   ------------------------------------------------------------------------

   temp. (K)  partition function   enthalpy   heat capacity  entropy
                                   cal/mol     cal/K/mol   cal/K/mol   J/K/mol
 298.15  VIB  0.317E+17            19578.443    105.605    128.393
         ROT  0.130E+08              888.752      2.981     35.532
         INT  0.411E+24            20467.195    108.586    163.925
         TR   0.618E+28             1481.254      4.968     43.384
         TOT                       21948.4488   113.5542   207.3092   867.3819

       T/K    H(0)-H(T)+PV         H(T)/Eh          T*S/Eh         G(T)/Eh
   ------------------------------------------------------------------------
    298.15    0.349771E-01    0.473605E+00    0.984993E-01    0.375105E+00
   ------------------------------------------------------------------------

         :::::::::::::::::::::::::::::::::::::::::::::::::::::
         ::                  THERMODYNAMIC                  ::
         :::::::::::::::::::::::::::::::::::::::::::::::::::::
         :: total free energy         -80.555966044362 Eh   ::
         ::.................................................::
         :: total energy              -80.931071259063 Eh   ::
         :: zero point energy           0.438627443450 Eh   ::
         :: G(RRHO) w/o ZPVE           -0.063522228749 Eh   ::
         :: G(RRHO) contrib.            0.375105214701 Eh   ::
         :::::::::::::::::::::::::::::::::::::::::::::::::::::

           -------------------------------------------------
          | TOTAL ENERGY              -80.931071259063 Eh   |
          | TOTAL ENTHALPY            -80.457466735985 Eh   |
          | TOTAL FREE ENERGY         -80.555966044362 Eh   |
          | GRADIENT NORM               0.000052314354 Eh/α |
          | HOMO-LUMO GAP               5.785549760616 eV   |
           -------------------------------------------------

------------------------------------------------------------------------
 * finished run on 2024/01/10 at 18:23:14.295     
------------------------------------------------------------------------
 total:
 * wall-time:     0 d,  0 h,  0 min, 14.449 sec
 *  cpu-time:     0 d,  0 h,  0 min, 14.373 sec
 * ratio c/w:     0.995 speedup
 SCF:
 * wall-time:     0 d,  0 h,  0 min,  0.095 sec
 *  cpu-time:     0 d,  0 h,  0 min,  0.057 sec
 * ratio c/w:     0.597 speedup
 analytical hessian:
 * wall-time:     0 d,  0 h,  0 min, 14.327 sec
 *  cpu-time:     0 d,  0 h,  0 min, 14.290 sec
 * ratio c/w:     0.997 speedup

