      -----------------------------------------------------------      
     |                   =====================                   |     
     |                           x T B                           |     
     |                   =====================                   |     
     |                         S. Grimme                         |     
     |          Mulliken Center for Theoretical Chemistry        |     
     |                    University of Bonn                     |     
      -----------------------------------------------------------      

   * xtb version 6.6.1 (unknown-commit) compiled by '@Linux' on 12/27/2023

   xtb is free software: you can redistribute it and/or modify it under
   the terms of the GNU Lesser General Public License as published by
   the Free Software Foundation, either version 3 of the License, or
   (at your option) any later version.
   
   xtb is distributed in the hope that it will be useful,
   but WITHOUT ANY WARRANTY; without even the implied warranty of
   MERCHANTABILITY or FITNESS FOR A PARTICULAR PURPOSE.  See the
   GNU Lesser General Public License for more details.
   
   Cite this work as:
   * C. Bannwarth, E. Caldeweyher, S. Ehlert, A. Hansen, P. Pracht,
     J. Seibert, S. Spicher, S. Grimme, WIREs Comput. Mol. Sci., 2020, 11,
     e01493. DOI: 10.1002/wcms.1493
   
   for GFN2-xTB:
   * C. Bannwarth, S. Ehlert and S. Grimme., J. Chem. Theory Comput., 2019,
     15, 1652-1671. DOI: 10.1021/acs.jctc.8b01176
   for GFN1-xTB:
   * S. Grimme, C. Bannwarth, P. Shushkov, J. Chem. Theory Comput., 2017,
     13, 1989-2009. DOI: 10.1021/acs.jctc.7b00118
   for GFN0-xTB:
   * P. Pracht, E. Caldeweyher, S. Ehlert, S. Grimme, ChemRxiv, 2019, preprint.
     DOI: 10.26434/chemrxiv.8326202.v1
   for GFN-FF:
   * S. Spicher and S. Grimme, Angew. Chem. Int. Ed., 2020, 59, 15665-15673.
     DOI: 10.1002/anie.202004239
   
   for ALPB and GBSA implicit solvation:
   * S. Ehlert, M. Stahn, S. Spicher, S. Grimme, J. Chem. Theory Comput.,
     2021, 17, 4250-4261. DOI: 10.1021/acs.jctc.1c00471
   
   for DFT-D4:
   * E. Caldeweyher, C. Bannwarth and S. Grimme, J. Chem. Phys., 2017,
     147, 034112. DOI: 10.1063/1.4993215
   * E. Caldeweyher, S. Ehlert, A. Hansen, H. Neugebauer, S. Spicher,
     C. Bannwarth and S. Grimme, J. Chem. Phys., 2019, 150, 154122.
     DOI: 10.1063/1.5090222
   * E. Caldeweyher, J.-M. Mewes, S. Ehlert and S. Grimme, Phys. Chem. Chem. Phys.
     2020, 22, 8499-8512. DOI: 10.1039/D0CP00502A
   
   for sTDA-xTB:
   * S. Grimme and C. Bannwarth, J. Chem. Phys., 2016, 145, 054103.
     DOI: 10.1063/1.4959605
   
   in the mass-spec context:
   * V. Asgeirsson, C. Bauer and S. Grimme, Chem. Sci., 2017, 8, 4879.
     DOI: 10.1039/c7sc00601b
   * J. Koopman and S. Grimme, ACS Omega 2019, 4, 12, 15120-15133.
     DOI: 10.1021/acsomega.9b02011
   
   for metadynamics refer to:
   * S. Grimme, J. Chem. Theory Comput., 2019, 155, 2847-2862
     DOI: 10.1021/acs.jctc.9b00143
   
   for SPH calculations refer to:
   * S. Spicher and S. Grimme, J. Chem. Theory Comput., 2021, 17, 1701-1714
     DOI: 10.1021/acs.jctc.0c01306
   
   with help from (in alphabetical order)
   P. Atkinson, C. Bannwarth, F. Bohle, G. Brandenburg, E. Caldeweyher
   M. Checinski, S. Dohm, S. Ehlert, S. Ehrlich, I. Gerasimov, C. Hölzer
   A. Katbashev, J. Koopman, C. Lavigne, S. Lehtola, F. März, M. Müller,
   F. Musil, H. Neugebauer, J. Pisarek, C. Plett, P. Pracht, F. Pultar,
   J. Seibert, P. Shushkov, S. Spicher, M. Stahn, M. Steiner, T. Strunk,
   J. Stückrath, T. Rose, and J. Unsleber
   
 * started run on 2024/01/10 at 18:23:58.822     

           -------------------------------------------------
          |                Calculation Setup                |
           -------------------------------------------------

          program call               : xtb struc.xyz --gfn2 --hess
          hostname                   : swaroop
          coordinate file            : struc.xyz
          omp threads                :                     1

   ID    Z sym.   atoms
    1    8 O      1, 23, 31, 39, 47
    2    6 C      2, 5, 9, 13, 17, 22, 30, 38, 46
    3    1 H      3, 4, 6, 7, 10-12, 14-16, 18-21, 25, 26, 28, 29, 33, 34,
                  36, 37, 41, 42, 44, 45, 49, 50, 52, 53
    4    7 N      8, 24, 27, 32, 35, 40, 43, 48, 51

molecular fragmentation (1/2 indicates fragments):
11111111111111111111122222222222222222222222222222222
# atoms in fragment 1/2:    21    32
 fragment masses (1/2) :      104.17      240.22
CMA distance (Bohr)    :  10.205
constraining FC (au)   :  0.0500

           -------------------------------------------------
          |                 G F N 2 - x T B                 |
           -------------------------------------------------

        Reference                      10.1021/acs.jctc.8b01176
      * Hamiltonian:
        H0-scaling (s, p, d)           1.850000    2.230000    2.230000
        zeta-weighting                 0.500000
      * Dispersion:
        s8                             2.700000
        a1                             0.520000
        a2                             5.000000
        s9                             5.000000
      * Repulsion:
        kExp                           1.500000    1.000000
        rExp                           1.000000
      * Coulomb:
        alpha                          2.000000
        third order                    shell-resolved
        anisotropic                    true
        a3                             3.000000
        a5                             4.000000
        cn-shift                       1.200000
        cn-exp                         4.000000
        max-rad                        5.000000


          ...................................................
          :                      SETUP                      :
          :.................................................:
          :  # basis functions                 122          :
          :  # atomic orbitals                 122          :
          :  # shells                           76          :
          :  # electrons                       140          :
          :  max. iterations                   250          :
          :  Hamiltonian                  GFN2-xTB          :
          :  restarted?                      false          :
          :  GBSA solvation                  false          :
          :  PC potential                    false          :
          :  electronic temp.          300.0000000     K    :
          :  accuracy                    1.0000000          :
          :  -> integral cutoff          0.2500000E+02      :
          :  -> integral neglect         0.1000000E-07      :
          :  -> SCF convergence          0.1000000E-05 Eh   :
          :  -> wf. convergence          0.1000000E-03 e    :
          :  Broyden damping             0.4000000          :
          ...................................................

 iter      E             dE          RMSdq      gap      omega  full diag
   1    -81.5574790 -0.815575E+02  0.429E+00    4.98       0.0  T
   2    -81.8376592 -0.280180E+00  0.234E+00    5.99       1.0  T
   3    -81.8435790 -0.591978E-02  0.114E+00    5.69       1.0  T
   4    -81.8450542 -0.147519E-02  0.249E-01    5.74       1.0  T
   5    -81.8460395 -0.985329E-03  0.928E-02    5.65       1.0  T
   6    -81.8460657 -0.261336E-04  0.276E-02    5.67       1.0  T
   7    -81.8460701 -0.442107E-05  0.789E-03    5.66       1.7  T
   8    -81.8460704 -0.324480E-06  0.292E-03    5.66       4.7  T
   9    -81.8460704 -0.442805E-07  0.118E-03    5.66      11.6  T
  10    -81.8460704 -0.818110E-08  0.243E-04    5.66      56.6  T
  11    -81.8460704 -0.566345E-09  0.958E-05    5.66     143.4  T

   *** convergence criteria satisfied after 11 iterations ***

         #    Occupation            Energy/Eh            Energy/eV
      -------------------------------------------------------------
         1        2.0000           -0.8130918             -22.1254
       ...           ...                  ...                  ...
        64        2.0000           -0.4951321             -13.4732
        65        2.0000           -0.4944553             -13.4548
        66        2.0000           -0.4935626             -13.4305
        67        2.0000           -0.4901957             -13.3389
        68        2.0000           -0.4887116             -13.2985
        69        2.0000           -0.4826944             -13.1348
        70        2.0000           -0.4783061             -13.0154 (HOMO)
        71                         -0.2702453              -7.3537 (LUMO)
        72                         -0.2695742              -7.3355
        73                         -0.2630008              -7.1566
        74                         -0.2536688              -6.9027
        75                         -0.1704440              -4.6380
       ...                                ...                  ...
       122                          0.5640779              15.3493
      -------------------------------------------------------------
                  HL-Gap            0.2080608 Eh            5.6616 eV
             Fermi-level           -0.3742757 Eh          -10.1846 eV

 SCC (total)                   0 d,  0 h,  0 min,  0.071 sec
 SCC setup                      ...        0 min,  0.000 sec (  0.403%)
 Dispersion                     ...        0 min,  0.001 sec (  0.816%)
 classical contributions        ...        0 min,  0.000 sec (  0.253%)
 integral evaluation            ...        0 min,  0.008 sec ( 11.398%)
 iterations                     ...        0 min,  0.033 sec ( 46.817%)
 molecular gradient             ...        0 min,  0.028 sec ( 39.915%)
 printout                       ...        0 min,  0.000 sec (  0.381%)

         :::::::::::::::::::::::::::::::::::::::::::::::::::::
         ::                     SUMMARY                     ::
         :::::::::::::::::::::::::::::::::::::::::::::::::::::
         :: total energy             -80.936955925936 Eh    ::
         :: gradient norm              0.000063457202 Eh/a0 ::
         :: HOMO-LUMO gap              5.661622813138 eV    ::
         ::.................................................::
         :: SCC energy               -81.846070449191 Eh    ::
         :: -> isotropic ES            0.298710979736 Eh    ::
         :: -> anisotropic ES         -0.031538950301 Eh    ::
         :: -> anisotropic XC          0.020794620240 Eh    ::
         :: -> dispersion             -0.046918067785 Eh    ::
         :: repulsion energy           0.907500439328 Eh    ::
         :: add. restraining           0.000000000000 Eh    ::
         :: total charge               1.000000000000 e     ::
         :::::::::::::::::::::::::::::::::::::::::::::::::::::

           ------------------------------------------------- 
          |                Numerical Hessian                |
           ------------------------------------------------- 
step length          :   0.00500
SCC accuracy         :   0.30000
Hessian scale factor :   1.00000
frozen atoms in %    :   0.00000    0
RMS gradient         :   0.00006
estimated CPU  time      0.24 min
estimated wall time      0.24 min

writing file <hessian>.

 projected vibrational frequencies (cm⁻¹)
eigval :       -0.00    -0.00    -0.00    -0.00    -0.00     0.00
eigval :       14.59    17.89    29.07    32.57    42.04    47.34
eigval :       49.95    54.94    56.53    61.50    62.64    71.36
eigval :       84.07    93.15   102.93   108.00   113.91   119.10
eigval :      128.67   142.69   143.79   169.83   171.59   191.54
eigval :      192.85   227.69   233.24   255.82   265.01   300.40
eigval :      312.38   330.77   334.32   351.81   367.61   392.86
eigval :      422.32   440.05   450.97   452.83   455.24   469.29
eigval :      470.73   473.35   480.07   486.83   488.01   492.58
eigval :      499.43   517.55   544.38   552.62   556.50   569.57
eigval :      574.13   581.12   629.14   663.95   664.81   674.55
eigval :      676.95   701.55   735.15   762.76   778.79   811.29
eigval :      889.53   924.91   959.99   966.22   986.03   991.50
eigval :      996.62  1007.13  1007.56  1017.60  1020.55  1023.29
eigval :     1030.90  1032.04  1038.43  1084.07  1090.27  1093.73
eigval :     1095.79  1098.10  1115.95  1131.14  1171.26  1221.65
eigval :     1245.17  1268.80  1304.81  1331.87  1346.07  1348.72
eigval :     1356.12  1366.26  1381.49  1394.68  1401.06  1408.72
eigval :     1425.31  1433.60  1442.29  1452.67  1454.35  1455.37
eigval :     1459.82  1465.83  1470.35  1472.51  1474.84  1477.36
eigval :     1496.77  1500.11  1506.57  1511.97  1524.83  1650.24
eigval :     1683.45  1695.62  1723.88  2881.09  2959.96  2974.76
eigval :     2995.66  3017.32  3030.99  3038.45  3041.22  3043.80
eigval :     3046.73  3049.12  3053.49  3058.71  3134.92  3177.23
eigval :     3243.37  3337.52  3400.04  3430.95  3482.07  3488.63
eigval :     3498.84  3501.77  3506.90  3524.65  3536.97  3551.15
eigval :     3561.45  3564.30  3568.51
           -------------------------------------------------
          |                Property Printout                |
           -------------------------------------------------

    * Orbital Energies and Occupations

         #    Occupation            Energy/Eh            Energy/eV
      -------------------------------------------------------------
         1        2.0000           -0.8130918             -22.1254
       ...           ...                  ...                  ...
        58        2.0000           -0.5085421             -13.8381
        59        2.0000           -0.5067898             -13.7905
        60        2.0000           -0.5054102             -13.7529
        61        2.0000           -0.5042866             -13.7223
        62        2.0000           -0.5000188             -13.6062
        63        2.0000           -0.4975489             -13.5390
        64        2.0000           -0.4951325             -13.4732
        65        2.0000           -0.4944554             -13.4548
        66        2.0000           -0.4935632             -13.4305
        67        2.0000           -0.4901961             -13.3389
        68        2.0000           -0.4887126             -13.2985
        69        2.0000           -0.4826955             -13.1348
        70        2.0000           -0.4783070             -13.0154 (HOMO)
        71                         -0.2702451              -7.3537 (LUMO)
        72                         -0.2695741              -7.3355
        73                         -0.2630015              -7.1566
        74                         -0.2536694              -6.9027
        75                         -0.1704438              -4.6380
        76                         -0.1081043              -2.9417
        77                         -0.1015064              -2.7621
        78                         -0.0920998              -2.5062
        79                         -0.0862535              -2.3471
        80                         -0.0825819              -2.2472
        81                         -0.0707291              -1.9246
       ...                                ...                  ...
       122                          0.5640774              15.3493
      -------------------------------------------------------------
                  HL-Gap            0.2080619 Eh            5.6617 eV
             Fermi-level           -0.3742761 Eh          -10.1846 eV

     #   Z          covCN         q      C6AA      α(0)
     1   8 O        1.654    -0.465    22.149     6.353
     2   6 C        3.673     0.076    19.546     6.336
     3   1 H        0.924     0.055     2.256     2.349
     4   1 H        0.923     0.040     2.454     2.450
     5   6 C        3.765    -0.066    21.812     6.657
     6   1 H        0.924     0.130     1.538     1.940
     7   1 H        0.924     0.073     2.053     2.241
     8   7 N        3.623     0.157    18.593     6.404
     9   6 C        3.726    -0.118    22.864     6.827
    10   1 H        0.925     0.078     2.000     2.211
    11   1 H        0.925     0.119     1.623     1.993
    12   1 H        0.924     0.131     1.530     1.934
    13   6 C        3.732    -0.110    22.695     6.800
    14   1 H        0.925     0.087     1.907     2.159
    15   1 H        0.924     0.137     1.479     1.902
    16   1 H        0.925     0.083     1.953     2.185
    17   6 C        3.718    -0.097    22.470     6.771
    18   1 H        0.925     0.086     1.914     2.164
    19   1 H        0.925     0.109     1.703     2.041
    20   1 H        0.925     0.088     1.895     2.153
    21   1 H        0.802     0.340     0.612     1.229
    22   6 C        2.675     0.342    21.182     7.531
    23   8 O        0.860    -0.531    24.484     6.634
    24   7 N        2.643    -0.314    28.080     7.870
    25   1 H        0.859     0.246     0.899     1.485
    26   1 H        0.860     0.177     1.229     1.736
    27   7 N        2.645    -0.289    27.462     7.783
    28   1 H        0.861     0.184     1.189     1.708
    29   1 H        0.860     0.200     1.107     1.648
    30   6 C        2.675     0.342    21.184     7.531
    31   8 O        0.860    -0.529    24.435     6.628
    32   7 N        2.645    -0.299    27.705     7.817
    33   1 H        0.860     0.235     0.942     1.520
    34   1 H        0.861     0.180     1.212     1.725
    35   7 N        2.645    -0.287    27.415     7.776
    36   1 H        0.861     0.185     1.187     1.707
    37   1 H        0.860     0.202     1.097     1.641
    38   6 C        2.675     0.344    21.150     7.525
    39   8 O        0.860    -0.535    24.573     6.646
    40   7 N        2.644    -0.314    28.072     7.869
    41   1 H        0.860     0.240     0.925     1.507
    42   1 H        0.860     0.211     1.053     1.607
    43   7 N        2.644    -0.298    27.668     7.812
    44   1 H        0.860     0.188     1.168     1.693
    45   1 H        0.860     0.192     1.147     1.678
    46   6 C        2.675     0.342    21.191     7.533
    47   8 O        0.859    -0.552    24.976     6.700
    48   7 N        2.649    -0.301    27.743     7.823
    49   1 H        0.861     0.188     1.170     1.694
    50   1 H        0.860     0.204     1.084     1.631
    51   7 N        2.648    -0.312    28.023     7.862
    52   1 H        0.860     0.223     0.994     1.562
    53   1 H        0.860     0.199     1.109     1.650

 Mol. C6AA /au·bohr⁶  :      21809.742962
 Mol. C8AA /au·bohr⁸  :     454629.558744
 Mol. α(0) /au        :        220.632212


Wiberg/Mayer (AO) data.
largest (>0.10) Wiberg bond orders for each atom

 ---------------------------------------------------------------------------
     #   Z sym  total        # sym  WBO       # sym  WBO       # sym  WBO
 ---------------------------------------------------------------------------
     1   8 O    1.958 --     2 C    1.030    21 H    0.816
     2   6 C    3.968 --     1 O    1.030     5 C    0.987     3 H    0.968
                             4 H    0.961
     3   1 H    0.997 --     2 C    0.968
     4   1 H    0.998 --     2 C    0.961
     5   6 C    3.926 --     2 C    0.987     7 H    0.970     6 H    0.946
                             8 N    0.932
     6   1 H    0.983 --     5 C    0.946
     7   1 H    0.995 --     5 C    0.970
     8   7 N    3.822 --    17 C    0.964    13 C    0.957     9 C    0.951
                             5 C    0.932
     9   6 C    3.910 --    10 H    0.979    11 H    0.962    12 H    0.956
                             8 N    0.951
    10   1 H    0.994 --     9 C    0.979
    11   1 H    0.986 --     9 C    0.962
    12   1 H    0.983 --     9 C    0.956
    13   6 C    3.923 --    16 H    0.978    14 H    0.977     8 N    0.957
                            15 H    0.956
    14   1 H    0.992 --    13 C    0.977
    15   1 H    0.981 --    13 C    0.956
    16   1 H    0.993 --    13 C    0.978
    17   6 C    3.937 --    18 H    0.978    20 H    0.977    19 H    0.972
                             8 N    0.964
    18   1 H    0.993 --    17 C    0.978
    19   1 H    0.988 --    17 C    0.972
    20   1 H    0.992 --    17 C    0.977
    21   1 H    0.884 --     1 O    0.816
    22   6 C    3.959 --    23 O    1.484    24 N    1.252    27 N    1.211
    23   8 O    1.911 --    22 C    1.484    24 N    0.141    27 N    0.132
    24   7 N    3.329 --    22 C    1.252    26 H    0.948    25 H    0.862
                            23 O    0.141
    25   1 H    0.939 --    24 N    0.862
    26   1 H    0.968 --    24 N    0.948
    27   7 N    3.327 --    22 C    1.211    28 H    0.947    29 H    0.943
                            23 O    0.132
    28   1 H    0.966 --    27 N    0.947
    29   1 H    0.960 --    27 N    0.943
    30   6 C    3.959 --    31 O    1.501    32 N    1.239    35 N    1.211
    31   8 O    1.900 --    30 C    1.501    32 N    0.144    35 N    0.134
    32   7 N    3.338 --    30 C    1.239    34 H    0.948    33 H    0.902
                            31 O    0.144
    33   1 H    0.945 --    32 N    0.902
    34   1 H    0.967 --    32 N    0.948
    35   7 N    3.325 --    30 C    1.211    36 H    0.947    37 H    0.942
                            31 O    0.134
    36   1 H    0.965 --    35 N    0.947
    37   1 H    0.959 --    35 N    0.942
    38   6 C    3.959 --    39 O    1.466    40 N    1.286    43 N    1.194
    39   8 O    1.925 --    38 C    1.466    40 N    0.142    43 N    0.122
    40   7 N    3.352 --    38 C    1.286    42 H    0.916    41 H    0.868
                            39 O    0.142
    41   1 H    0.943 --    40 N    0.868
    42   1 H    0.955 --    40 N    0.916
    43   7 N    3.300 --    38 C    1.194    44 H    0.946    45 H    0.944
                            39 O    0.122
    44   1 H    0.964 --    43 N    0.946
    45   1 H    0.963 --    43 N    0.944
    46   6 C    3.959 --    47 O    1.501    51 N    1.239    48 N    1.207
    47   8 O    1.865 --    46 C    1.501    51 N    0.139    48 N    0.135
    48   7 N    3.317 --    46 C    1.207    49 H    0.947    50 H    0.936
                            47 O    0.135
    49   1 H    0.965 --    48 N    0.947
    50   1 H    0.958 --    48 N    0.936
    51   7 N    3.322 --    46 C    1.239    53 H    0.935    52 H    0.892
                            47 O    0.139
    52   1 H    0.950 --    51 N    0.892
    53   1 H    0.960 --    51 N    0.935
 ---------------------------------------------------------------------------

Topologies differ in total number of bonds
Writing topology from bond orders to xtbtopo.mol

molecular dipole:
                 x           y           z       tot (Debye)
 q only:       -0.657      -2.009       0.007
   full:       -0.312      -1.337      -0.238       3.542
molecular quadrupole (traceless):
                xx          xy          yy          xz          yz          zz
 q only:       -7.321      23.316      36.414     -30.430     -23.482     -29.093
  q+dip:       -6.665      22.637      38.527     -36.868     -24.383     -31.862
   full:       -5.916      23.032      37.760     -35.983     -24.007     -31.844

           -------------------------------------------------
          |               Frequency Printout                |
           -------------------------------------------------
 projected vibrational frequencies (cm⁻¹)
eigval :       -0.00    -0.00    -0.00    -0.00    -0.00     0.00
eigval :       14.59    17.89    29.07    32.57    42.04    47.34
eigval :       49.95    54.94    56.53    61.50    62.64    71.36
eigval :       84.07    93.15   102.93   108.00   113.91   119.10
eigval :      128.67   142.69   143.79   169.83   171.59   191.54
eigval :      192.85   227.69   233.24   255.82   265.01   300.40
eigval :      312.38   330.77   334.32   351.81   367.61   392.86
eigval :      422.32   440.05   450.97   452.83   455.24   469.29
eigval :      470.73   473.35   480.07   486.83   488.01   492.58
eigval :      499.43   517.55   544.38   552.62   556.50   569.57
eigval :      574.13   581.12   629.14   663.95   664.81   674.55
eigval :      676.95   701.55   735.15   762.76   778.79   811.29
eigval :      889.53   924.91   959.99   966.22   986.03   991.50
eigval :      996.62  1007.13  1007.56  1017.60  1020.55  1023.29
eigval :     1030.90  1032.04  1038.43  1084.07  1090.27  1093.73
eigval :     1095.79  1098.10  1115.95  1131.14  1171.26  1221.65
eigval :     1245.17  1268.80  1304.81  1331.87  1346.07  1348.72
eigval :     1356.12  1366.26  1381.49  1394.68  1401.06  1408.72
eigval :     1425.31  1433.60  1442.29  1452.67  1454.35  1455.37
eigval :     1459.82  1465.83  1470.35  1472.51  1474.84  1477.36
eigval :     1496.77  1500.11  1506.57  1511.97  1524.83  1650.24
eigval :     1683.45  1695.62  1723.88  2881.09  2959.96  2974.76
eigval :     2995.66  3017.32  3030.99  3038.45  3041.22  3043.80
eigval :     3046.73  3049.12  3053.49  3058.71  3134.92  3177.23
eigval :     3243.37  3337.52  3400.04  3430.95  3482.07  3488.63
eigval :     3498.84  3501.77  3506.90  3524.65  3536.97  3551.15
eigval :     3561.45  3564.30  3568.51
 reduced masses (amu)
   1: 12.69   2: 12.34   3: 12.61   4: 12.52   5: 11.80   6: 12.52   7: 12.11   8: 11.62
   9: 12.22  10: 11.97  11: 12.26  12: 12.77  13: 12.10  14: 12.67  15: 12.05  16: 12.53
  17: 12.42  18: 11.71  19: 13.43  20: 12.91  21: 12.54  22: 13.24  23: 11.49  24: 12.31
  25: 13.16  26: 12.84  27: 13.04  28: 12.76  29: 12.55  30: 12.31  31: 10.08  32:  5.98
  33:  9.82  34:  4.50  35:  2.66  36:  5.65  37:  7.30  38:  3.91  39:  3.97  40:  3.07
  41:  7.29  42:  3.42  43:  8.80  44:  3.54  45:  2.71  46:  2.32  47:  8.08  48:  7.27
  49:  8.11  50:  6.14  51:  5.29  52:  2.51  53:  6.05  54:  3.65  55:  9.03  56:  7.46
  57: 11.19  58:  7.06  59: 11.18  60:  8.41  61:  5.28  62:  9.39  63:  2.15  64:  8.67
  65: 11.63  66: 10.83  67: 11.52  68:  6.40  69:  2.24  70:  7.94  71:  3.53  72:  2.79
  73:  6.58  74:  8.73  75:  4.97  76:  5.14  77:  4.55  78:  4.96  79:  7.41  80:  8.79
  81:  7.37  82:  9.34  83:  8.29  84:  9.31  85:  6.82  86:  5.85  87:  4.83  88:  9.13
  89:  8.24  90:  6.26  91:  6.89  92:  5.16  93:  8.34  94:  9.53  95:  3.37  96:  4.55
  97:  6.83  98:  8.15  99:  6.52 100:  3.32 101:  4.46 102:  5.53 103:  5.11 104:  5.50
 105:  3.83 106:  3.47 107:  3.80 108:  2.58 109:  2.42 110:  1.87 111:  1.81 112:  3.19
 113:  1.75 114:  3.14 115:  1.67 116:  2.82 117:  1.85 118:  1.81 119:  3.27 120:  1.94
 121:  1.88 122:  7.58 123:  8.32 124:  8.91 125:  8.97 126: 12.51 127: 12.67 128: 12.64
 129: 12.66 130:  1.77 131:  1.67 132:  1.75 133:  1.75 134:  1.74 135:  1.67 136:  1.94
 137:  1.57 138:  1.89 139:  1.56 140:  1.68 141:  1.74 142:  1.81 143:  1.84 144:  1.88
 145:  1.82 146:  1.73 147:  1.66 148:  1.88 149:  1.48 150:  1.45 151:  1.45 152:  1.46
 153:  1.92 154:  1.88 155:  1.99 156:  2.17 157:  2.16 158:  2.18 159:  2.19
 IR intensities (km·mol⁻¹)
   1:  2.39   2:  2.15   3:  1.30   4:  0.87   5:  1.66   6:  0.64   7:  0.69   8:  1.52
   9:  3.86  10:  2.65  11:  1.12  12:  3.98  13:  0.26  14:  1.84  15:  6.47  16:  0.73
  17:  1.67  18:  0.11  19:  5.90  20:  3.43  21:  7.43  22:  3.37  23:  7.53  24: 13.72
  25:  5.56  26:  8.28  27:  7.98  28: 14.18  29: 12.62  30: 22.01  31:  5.55  32:127.84
  33: 65.17  34:  1.65  35: 86.40  36:  1.28  37:  1.77  38:181.78  39:107.25  40:  2.03
  41:  0.70  42:299.71  43:  0.86  44: 63.10  45: 84.31  46: 73.33  47:  0.80  48:  6.99
  49:  8.39  50:  3.88  51:  6.59  52:  3.92  53: 61.96  54:161.28  55: 49.68  56: 15.79
  57: 30.45  58: 20.45  59: 15.50  60: 14.05  61: 89.46  62: 30.22  63: 58.66  64: 23.94
  65: 24.64  66: 10.37  67:  0.19  68:644.49  69: 41.12  70: 26.23  71:107.25  72:613.10
  73:  1.64  74:  6.51  75:  1.54  76:  6.52  77: 15.14  78:  6.00  79: 15.00  80:  3.10
  81: 19.93  82:  5.20  83: 16.34  84:  9.94  85:  0.29  86:  3.16  87: 18.00  88:  2.94
  89:  8.99  90: 21.27  91:  7.61  92: 17.33  93:  2.61  94: 45.19  95: 20.94  96:  2.42
  97:  4.99  98:  3.21  99: 11.01 100:  5.87 101: 19.07 102: 47.31 103: 79.38 104:122.01
 105: 99.26 106:  1.47 107: 58.80 108: 10.59 109: 26.98 110:  3.52 111:  0.32 112: 15.00
 113:  4.62 114: 10.20 115: 10.75 116: 33.04 117: 10.58 118:  5.94 119: 31.10 120: 50.47
 121:  8.23 122: 23.70 123:500.22 124:496.56 125:****** 126:177.19 127:509.93 128:******
 129:****** 130: 37.06 131: 76.98 132:  1.85 133: 14.94 134: 19.59 135: 82.47 136:  1.73
 137:  0.11 138:  1.50 139: 10.61 140: 18.30 141:  1.62 142:  3.24 143:713.42 144:677.41
 145:****** 146:391.61 147:395.71 148:257.19 149: 53.67 150: 14.05 151: 19.41 152: 26.12
 153: 49.94 154: 11.94 155: 25.60 156: 12.01 157: 20.77 158: 14.37 159: 15.55
 Raman intensities (amu)
Molecule has no symmetry elements
It seems to be the C1 point group
   1:  0.00   2:  0.00   3:  0.00   4:  0.00   5:  0.00   6:  0.00   7:  0.00   8:  0.00
   9:  0.00  10:  0.00  11:  0.00  12:  0.00  13:  0.00  14:  0.00  15:  0.00  16:  0.00
  17:  0.00  18:  0.00  19:  0.00  20:  0.00  21:  0.00  22:  0.00  23:  0.00  24:  0.00
  25:  0.00  26:  0.00  27:  0.00  28:  0.00  29:  0.00  30:  0.00  31:  0.00  32:  0.00
  33:  0.00  34:  0.00  35:  0.00  36:  0.00  37:  0.00  38:  0.00  39:  0.00  40:  0.00
  41:  0.00  42:  0.00  43:  0.00  44:  0.00  45:  0.00  46:  0.00  47:  0.00  48:  0.00
  49:  0.00  50:  0.00  51:  0.00  52:  0.00  53:  0.00  54:  0.00  55:  0.00  56:  0.00
  57:  0.00  58:  0.00  59:  0.00  60:  0.00  61:  0.00  62:  0.00  63:  0.00  64:  0.00
  65:  0.00  66:  0.00  67:  0.00  68:  0.00  69:  0.00  70:  0.00  71:  0.00  72:  0.00
  73:  0.00  74:  0.00  75:  0.00  76:  0.00  77:  0.00  78:  0.00  79:  0.00  80:  0.00
  81:  0.00  82:  0.00  83:  0.00  84:  0.00  85:  0.00  86:  0.00  87:  0.00  88:  0.00
  89:  0.00  90:  0.00  91:  0.00  92:  0.00  93:  0.00  94:  0.00  95:  0.00  96:  0.00
  97:  0.00  98:  0.00  99:  0.00 100:  0.00 101:  0.00 102:  0.00 103:  0.00 104:  0.00
 105:  0.00 106:  0.00 107:  0.00 108:  0.00 109:  0.00 110:  0.00 111:  0.00 112:  0.00
 113:  0.00 114:  0.00 115:  0.00 116:  0.00 117:  0.00 118:  0.00 119:  0.00 120:  0.00
 121:  0.00 122:  0.00 123:  0.00 124:  0.00 125:  0.00 126:  0.00 127:  0.00 128:  0.00
 129:  0.00 130:  0.00 131:  0.00 132:  0.00 133:  0.00 134:  0.00 135:  0.00 136:  0.00
 137:  0.00 138:  0.00 139:  0.00 140:  0.00 141:  0.00 142:  0.00 143:  0.00 144:  0.00
 145:  0.00 146:  0.00 147:  0.00 148:  0.00 149:  0.00 150:  0.00 151:  0.00 152:  0.00
 153:  0.00 154:  0.00 155:  0.00 156:  0.00 157:  0.00 158:  0.00 159:  0.00
 output can be read by thermo (or use thermo option).
 writing <g98.out> molden fake output.
 recommended (thermochemical) frequency scaling factor: 1.0
           -------------------------------------------------
          |             Thermodynamic Functions             |
           -------------------------------------------------

c1  symmetry found (for desy threshold:  0.10E+00) used in thermo

          ...................................................
          :                      SETUP                      :
          :.................................................:
          :  # frequencies                         153      :
          :  # imaginary freq.                       0      :
          :  linear?                             false      :
          :  only rotor calc.                    false      :
          :  symmetry                               c1      :
          :  rotational number                       1      :
          :  scaling factor                  1.0000000      :
          :  rotor cutoff                   50.0000000 cm⁻¹ :
          :  imag. cutoff                  -20.0000000 cm⁻¹ :
          :.................................................:

    mode    ω/cm⁻¹     T·S(HO)/kcal·mol⁻¹    T·S(FR)/kcal·mol⁻¹   T·S(vib)
   ------------------------------------------------------------------------
       1     14.59    -2.16494 (  0.72%)    -1.42141 ( 99.28%)    -1.42676
       2     17.89    -2.04415 (  1.61%)    -1.36101 ( 98.39%)    -1.37201
       3     29.07    -1.75657 ( 10.26%)    -1.21710 ( 89.74%)    -1.27246
       4     32.57    -1.68944 ( 15.26%)    -1.18348 ( 84.74%)    -1.26068
       5     42.04    -1.53863 ( 33.32%)    -1.10789 ( 66.68%)    -1.25142
       6     47.34    -1.46853 ( 44.56%)    -1.07271 ( 55.44%)    -1.24907
       7     49.95    -1.43689 ( 49.90%)    -1.05681 ( 50.10%)    -1.24647
       8     54.94    -1.38075 ( 59.32%)    -1.02860 ( 40.68%)    -1.23748
       9     56.53    -1.36394 ( 62.04%)    -1.02014 ( 37.96%)    -1.23343
      10     61.50    -1.31438 ( 69.60%)    -0.99520 ( 30.40%)    -1.21733
      11     62.64    -1.30354 ( 71.13%)    -0.98973 ( 28.87%)    -1.21295
      12     71.36    -1.22704 ( 80.58%)    -0.95115 ( 19.42%)    -1.17345
      13     84.07    -1.13106 ( 88.88%)    -0.90261 ( 11.12%)    -1.10566
      14     93.15    -1.07122 ( 92.33%)    -0.87223 (  7.67%)    -1.05596
      15    102.93    -1.01311 ( 94.73%)    -0.84263 (  5.27%)    -1.00412
      16    108.00    -0.98528 ( 95.61%)    -0.82841 (  4.39%)    -0.97838
      17    113.91    -0.95445 ( 96.42%)    -0.81263 (  3.58%)    -0.94937
      18    119.10    -0.92872 ( 96.99%)    -0.79942 (  3.01%)    -0.92482
      19    128.67    -0.88426 ( 97.77%)    -0.77652 (  2.23%)    -0.88186
      20    142.69    -0.82512 ( 98.51%)    -0.74588 (  1.49%)    -0.82394
      21    143.79    -0.82073 ( 98.56%)    -0.74360 (  1.44%)    -0.81962
      22    169.83    -0.72671 ( 99.25%)    -0.69431 (  0.75%)    -0.72646
      23    171.59    -0.72092 ( 99.28%)    -0.69125 (  0.72%)    -0.72071
      24    191.54    -0.65976 ( 99.54%)    -0.65867 (  0.46%)    -0.65976
      25    192.85    -0.65600 ( 99.55%)    -0.65664 (  0.45%)    -0.65600
      26    227.69    -0.56561 ( 99.77%)    -0.60745 (  0.23%)    -0.56571
      27    233.24    -0.55274 ( 99.79%)    -0.60032 (  0.21%)    -0.55284
      28    255.82    -0.50390 ( 99.85%)    -0.57294 (  0.15%)    -0.50400
      29    265.01    -0.48556 ( 99.87%)    -0.56249 (  0.13%)    -0.48565
   ------------------------------------------------------------------------

   temp. (K)  partition function   enthalpy   heat capacity  entropy
                                   cal/mol     cal/K/mol   cal/K/mol   J/K/mol
 298.15  VIB  0.543E+16            18890.619    103.988    123.269
         ROT  0.114E+08              888.752      2.981     35.278
         INT  0.621E+23            19779.372    106.969    158.547
         TR   0.618E+28             1481.254      4.968     43.384
         TOT                       21260.6257   111.9374   201.9311   844.8799

       T/K    H(0)-H(T)+PV         H(T)/Eh          T*S/Eh         G(T)/Eh
   ------------------------------------------------------------------------
    298.15    0.338810E-01    0.474427E+00    0.959440E-01    0.378483E+00
   ------------------------------------------------------------------------

         :::::::::::::::::::::::::::::::::::::::::::::::::::::
         ::                  THERMODYNAMIC                  ::
         :::::::::::::::::::::::::::::::::::::::::::::::::::::
         :: total free energy         -80.558473081446 Eh   ::
         ::.................................................::
         :: total energy              -80.936955925973 Eh   ::
         :: zero point energy           0.440545879469 Eh   ::
         :: G(RRHO) w/o ZPVE           -0.062063034942 Eh   ::
         :: G(RRHO) contrib.            0.378482844527 Eh   ::
         :::::::::::::::::::::::::::::::::::::::::::::::::::::

           -------------------------------------------------
          | TOTAL ENERGY              -80.936955925973 Eh   |
          | TOTAL ENTHALPY            -80.462529082802 Eh   |
          | TOTAL FREE ENERGY         -80.558473081446 Eh   |
          | GRADIENT NORM               0.000063485437 Eh/α |
          | HOMO-LUMO GAP               5.661652003936 eV   |
           -------------------------------------------------

------------------------------------------------------------------------
 * finished run on 2024/01/10 at 18:24:13.577     
------------------------------------------------------------------------
 total:
 * wall-time:     0 d,  0 h,  0 min, 14.755 sec
 *  cpu-time:     0 d,  0 h,  0 min, 14.700 sec
 * ratio c/w:     0.996 speedup
 SCF:
 * wall-time:     0 d,  0 h,  0 min,  0.071 sec
 *  cpu-time:     0 d,  0 h,  0 min,  0.060 sec
 * ratio c/w:     0.839 speedup
 analytical hessian:
 * wall-time:     0 d,  0 h,  0 min, 14.656 sec
 *  cpu-time:     0 d,  0 h,  0 min, 14.613 sec
 * ratio c/w:     0.997 speedup

