      -----------------------------------------------------------      
     |                   =====================                   |     
     |                           x T B                           |     
     |                   =====================                   |     
     |                         S. Grimme                         |     
     |          Mulliken Center for Theoretical Chemistry        |     
     |                    University of Bonn                     |     
      -----------------------------------------------------------      

   * xtb version 6.6.1 (unknown-commit) compiled by '@Linux' on 12/27/2023

   xtb is free software: you can redistribute it and/or modify it under
   the terms of the GNU Lesser General Public License as published by
   the Free Software Foundation, either version 3 of the License, or
   (at your option) any later version.
   
   xtb is distributed in the hope that it will be useful,
   but WITHOUT ANY WARRANTY; without even the implied warranty of
   MERCHANTABILITY or FITNESS FOR A PARTICULAR PURPOSE.  See the
   GNU Lesser General Public License for more details.
   
   Cite this work as:
   * C. Bannwarth, E. Caldeweyher, S. Ehlert, A. Hansen, P. Pracht,
     J. Seibert, S. Spicher, S. Grimme, WIREs Comput. Mol. Sci., 2020, 11,
     e01493. DOI: 10.1002/wcms.1493
   
   for GFN2-xTB:
   * C. Bannwarth, S. Ehlert and S. Grimme., J. Chem. Theory Comput., 2019,
     15, 1652-1671. DOI: 10.1021/acs.jctc.8b01176
   for GFN1-xTB:
   * S. Grimme, C. Bannwarth, P. Shushkov, J. Chem. Theory Comput., 2017,
     13, 1989-2009. DOI: 10.1021/acs.jctc.7b00118
   for GFN0-xTB:
   * P. Pracht, E. Caldeweyher, S. Ehlert, S. Grimme, ChemRxiv, 2019, preprint.
     DOI: 10.26434/chemrxiv.8326202.v1
   for GFN-FF:
   * S. Spicher and S. Grimme, Angew. Chem. Int. Ed., 2020, 59, 15665-15673.
     DOI: 10.1002/anie.202004239
   
   for ALPB and GBSA implicit solvation:
   * S. Ehlert, M. Stahn, S. Spicher, S. Grimme, J. Chem. Theory Comput.,
     2021, 17, 4250-4261. DOI: 10.1021/acs.jctc.1c00471
   
   for DFT-D4:
   * E. Caldeweyher, C. Bannwarth and S. Grimme, J. Chem. Phys., 2017,
     147, 034112. DOI: 10.1063/1.4993215
   * E. Caldeweyher, S. Ehlert, A. Hansen, H. Neugebauer, S. Spicher,
     C. Bannwarth and S. Grimme, J. Chem. Phys., 2019, 150, 154122.
     DOI: 10.1063/1.5090222
   * E. Caldeweyher, J.-M. Mewes, S. Ehlert and S. Grimme, Phys. Chem. Chem. Phys.
     2020, 22, 8499-8512. DOI: 10.1039/D0CP00502A
   
   for sTDA-xTB:
   * S. Grimme and C. Bannwarth, J. Chem. Phys., 2016, 145, 054103.
     DOI: 10.1063/1.4959605
   
   in the mass-spec context:
   * V. Asgeirsson, C. Bauer and S. Grimme, Chem. Sci., 2017, 8, 4879.
     DOI: 10.1039/c7sc00601b
   * J. Koopman and S. Grimme, ACS Omega 2019, 4, 12, 15120-15133.
     DOI: 10.1021/acsomega.9b02011
   
   for metadynamics refer to:
   * S. Grimme, J. Chem. Theory Comput., 2019, 155, 2847-2862
     DOI: 10.1021/acs.jctc.9b00143
   
   for SPH calculations refer to:
   * S. Spicher and S. Grimme, J. Chem. Theory Comput., 2021, 17, 1701-1714
     DOI: 10.1021/acs.jctc.0c01306
   
   with help from (in alphabetical order)
   P. Atkinson, C. Bannwarth, F. Bohle, G. Brandenburg, E. Caldeweyher
   M. Checinski, S. Dohm, S. Ehlert, S. Ehrlich, I. Gerasimov, C. Hölzer
   A. Katbashev, J. Koopman, C. Lavigne, S. Lehtola, F. März, M. Müller,
   F. Musil, H. Neugebauer, J. Pisarek, C. Plett, P. Pracht, F. Pultar,
   J. Seibert, P. Shushkov, S. Spicher, M. Stahn, M. Steiner, T. Strunk,
   J. Stückrath, T. Rose, and J. Unsleber
   
 * started run on 2024/01/10 at 18:25:56.261     

           -------------------------------------------------
          |                Calculation Setup                |
           -------------------------------------------------

          program call               : xtb struc.xyz --gfn2 --hess
          hostname                   : swaroop
          coordinate file            : struc.xyz
          omp threads                :                     1

   ID    Z sym.   atoms
    1    8 O      1, 23, 31, 39, 47
    2    6 C      2, 5, 9, 13, 17, 22, 30, 38, 46
    3    1 H      3, 4, 6, 7, 10-12, 14-16, 18-21, 25, 26, 28, 29, 33, 34,
                  36, 37, 41, 42, 44, 45, 49, 50, 52, 53
    4    7 N      8, 24, 27, 32, 35, 40, 43, 48, 51

molecular fragmentation (1/2 indicates fragments):
11111111111111111111122222222222222222222222222222222
# atoms in fragment 1/2:    21    32
 fragment masses (1/2) :      104.17      240.22
CMA distance (Bohr)    :   5.691
constraining FC (au)   :  0.0500

           -------------------------------------------------
          |                 G F N 2 - x T B                 |
           -------------------------------------------------

        Reference                      10.1021/acs.jctc.8b01176
      * Hamiltonian:
        H0-scaling (s, p, d)           1.850000    2.230000    2.230000
        zeta-weighting                 0.500000
      * Dispersion:
        s8                             2.700000
        a1                             0.520000
        a2                             5.000000
        s9                             5.000000
      * Repulsion:
        kExp                           1.500000    1.000000
        rExp                           1.000000
      * Coulomb:
        alpha                          2.000000
        third order                    shell-resolved
        anisotropic                    true
        a3                             3.000000
        a5                             4.000000
        cn-shift                       1.200000
        cn-exp                         4.000000
        max-rad                        5.000000


          ...................................................
          :                      SETUP                      :
          :.................................................:
          :  # basis functions                 122          :
          :  # atomic orbitals                 122          :
          :  # shells                           76          :
          :  # electrons                       140          :
          :  max. iterations                   250          :
          :  Hamiltonian                  GFN2-xTB          :
          :  restarted?                      false          :
          :  GBSA solvation                  false          :
          :  PC potential                    false          :
          :  electronic temp.          300.0000000     K    :
          :  accuracy                    1.0000000          :
          :  -> integral cutoff          0.2500000E+02      :
          :  -> integral neglect         0.1000000E-07      :
          :  -> SCF convergence          0.1000000E-05 Eh   :
          :  -> wf. convergence          0.1000000E-03 e    :
          :  Broyden damping             0.4000000          :
          ...................................................

 iter      E             dE          RMSdq      gap      omega  full diag
   1    -81.5527280 -0.815527E+02  0.433E+00    5.02       0.0  T
   2    -81.8393548 -0.286627E+00  0.237E+00    6.02       1.0  T
   3    -81.8449839 -0.562907E-02  0.116E+00    5.70       1.0  T
   4    -81.8462766 -0.129269E-02  0.240E-01    5.74       1.0  T
   5    -81.8471940 -0.917432E-03  0.924E-02    5.67       1.0  T
   6    -81.8472200 -0.260090E-04  0.282E-02    5.69       1.0  T
   7    -81.8472246 -0.459445E-05  0.780E-03    5.69       1.8  T
   8    -81.8472249 -0.304210E-06  0.297E-03    5.69       4.6  T
   9    -81.8472249 -0.394221E-07  0.115E-03    5.69      11.9  T
  10    -81.8472249 -0.753482E-08  0.197E-04    5.69      69.6  T
  11    -81.8472249 -0.415952E-09  0.889E-05    5.69     154.5  T

   *** convergence criteria satisfied after 11 iterations ***

         #    Occupation            Energy/Eh            Energy/eV
      -------------------------------------------------------------
         1        2.0000           -0.7934309             -21.5904
       ...           ...                  ...                  ...
        64        2.0000           -0.4982277             -13.5575
        65        2.0000           -0.4972358             -13.5305
        66        2.0000           -0.4943053             -13.4507
        67        2.0000           -0.4922582             -13.3950
        68        2.0000           -0.4898834             -13.3304
        69        2.0000           -0.4858268             -13.2200
        70        2.0000           -0.4816077             -13.1052 (HOMO)
        71                         -0.2726413              -7.4189 (LUMO)
        72                         -0.2690566              -7.3214
        73                         -0.2643257              -7.1927
        74                         -0.2588298              -7.0431
        75                         -0.1498086              -4.0765
       ...                                ...                  ...
       122                          0.5527928              15.0423
      -------------------------------------------------------------
                  HL-Gap            0.2089665 Eh            5.6863 eV
             Fermi-level           -0.3771245 Eh          -10.2621 eV

 SCC (total)                   0 d,  0 h,  0 min,  0.090 sec
 SCC setup                      ...        0 min,  0.000 sec (  0.342%)
 Dispersion                     ...        0 min,  0.001 sec (  0.703%)
 classical contributions        ...        0 min,  0.000 sec (  0.216%)
 integral evaluation            ...        0 min,  0.008 sec (  9.141%)
 iterations                     ...        0 min,  0.052 sec ( 58.402%)
 molecular gradient             ...        0 min,  0.028 sec ( 30.878%)
 printout                       ...        0 min,  0.000 sec (  0.302%)

         :::::::::::::::::::::::::::::::::::::::::::::::::::::
         ::                     SUMMARY                     ::
         :::::::::::::::::::::::::::::::::::::::::::::::::::::
         :: total energy             -80.935140751559 Eh    ::
         :: gradient norm              0.000041723482 Eh/a0 ::
         :: HOMO-LUMO gap              5.686266871837 eV    ::
         ::.................................................::
         :: SCC energy               -81.847224942850 Eh    ::
         :: -> isotropic ES            0.293067898456 Eh    ::
         :: -> anisotropic ES         -0.028405136113 Eh    ::
         :: -> anisotropic XC          0.020841288407 Eh    ::
         :: -> dispersion             -0.043983057488 Eh    ::
         :: repulsion energy           0.910988125514 Eh    ::
         :: add. restraining           0.000000000000 Eh    ::
         :: total charge               1.000000000000 e     ::
         :::::::::::::::::::::::::::::::::::::::::::::::::::::

           ------------------------------------------------- 
          |                Numerical Hessian                |
           ------------------------------------------------- 
step length          :   0.00500
SCC accuracy         :   0.30000
Hessian scale factor :   1.00000
frozen atoms in %    :   0.00000    0
RMS gradient         :   0.00004
estimated CPU  time      0.24 min
estimated wall time      0.24 min

writing file <hessian>.

 projected vibrational frequencies (cm⁻¹)
eigval :       -0.00    -0.00    -0.00    -0.00     0.00     0.00
eigval :        3.48    10.66    13.97    21.26    28.13    33.89
eigval :       42.17    49.31    52.32    54.12    59.99    74.14
eigval :       77.86    79.56    87.37    93.43   102.88   110.78
eigval :      118.96   123.26   138.54   147.04   154.33   170.73
eigval :      183.93   197.48   256.79   272.81   295.48   302.74
eigval :      313.91   320.81   322.44   346.92   355.43   366.31
eigval :      373.29   404.86   425.60   443.14   444.16   453.58
eigval :      455.19   459.72   466.36   468.94   477.69   487.37
eigval :      492.95   504.82   506.12   508.74   529.77   543.79
eigval :      556.48   572.22   583.53   646.30   668.56   672.88
eigval :      674.21   689.03   753.51   767.15   795.70   844.39
eigval :      901.25   929.26   945.02   972.79   974.60   978.00
eigval :      995.06  1002.38  1011.67  1016.74  1021.23  1028.90
eigval :     1033.56  1039.58  1042.38  1080.76  1084.83  1091.57
eigval :     1098.42  1107.25  1108.62  1131.85  1176.11  1230.86
eigval :     1249.56  1275.27  1318.27  1337.57  1350.62  1351.70
eigval :     1354.74  1364.51  1375.68  1391.97  1402.68  1403.14
eigval :     1418.67  1435.20  1440.99  1444.21  1451.74  1454.22
eigval :     1456.17  1458.63  1468.14  1470.90  1472.17  1479.64
eigval :     1493.89  1497.77  1500.44  1506.71  1535.61  1642.41
eigval :     1692.54  1716.40  1726.25  2884.02  2972.89  2987.56
eigval :     3005.44  3031.66  3035.50  3040.24  3042.33  3043.21
eigval :     3046.51  3050.30  3050.97  3059.44  3062.70  3096.46
eigval :     3315.38  3362.94  3474.02  3479.13  3489.24  3495.83
eigval :     3500.98  3505.29  3533.78  3536.55  3553.10  3553.41
eigval :     3563.00  3565.57  3571.07
           -------------------------------------------------
          |                Property Printout                |
           -------------------------------------------------

    * Orbital Energies and Occupations

         #    Occupation            Energy/Eh            Energy/eV
      -------------------------------------------------------------
         1        2.0000           -0.7934309             -21.5904
       ...           ...                  ...                  ...
        58        2.0000           -0.5106282             -13.8949
        59        2.0000           -0.5069596             -13.7951
        60        2.0000           -0.5043536             -13.7242
        61        2.0000           -0.5037024             -13.7064
        62        2.0000           -0.5002078             -13.6113
        63        2.0000           -0.4997125             -13.5979
        64        2.0000           -0.4982277             -13.5575
        65        2.0000           -0.4972349             -13.5304
        66        2.0000           -0.4943061             -13.4508
        67        2.0000           -0.4922588             -13.3950
        68        2.0000           -0.4898840             -13.3304
        69        2.0000           -0.4858276             -13.2200
        70        2.0000           -0.4816086             -13.1052 (HOMO)
        71                         -0.2726414              -7.4189 (LUMO)
        72                         -0.2690574              -7.3214
        73                         -0.2643260              -7.1927
        74                         -0.2588301              -7.0431
        75                         -0.1498084              -4.0765
        76                         -0.1023148              -2.7841
        77                         -0.0994621              -2.7065
        78                         -0.0835120              -2.2725
        79                         -0.0749987              -2.0408
        80                         -0.0708508              -1.9279
        81                         -0.0685326              -1.8649
       ...                                ...                  ...
       122                          0.5527926              15.0423
      -------------------------------------------------------------
                  HL-Gap            0.2089673 Eh            5.6863 eV
             Fermi-level           -0.3771250 Eh          -10.2621 eV

     #   Z          covCN         q      C6AA      α(0)
     1   8 O        1.652    -0.484    22.552     6.411
     2   6 C        3.673     0.075    19.547     6.336
     3   1 H        0.924     0.055     2.260     2.351
     4   1 H        0.923     0.039     2.460     2.453
     5   6 C        3.769    -0.073    21.927     6.673
     6   1 H        0.924     0.114     1.662     2.016
     7   1 H        0.924     0.106     1.732     2.058
     8   7 N        3.623     0.161    18.537     6.395
     9   6 C        3.723    -0.112    22.756     6.812
    10   1 H        0.925     0.076     2.025     2.225
    11   1 H        0.925     0.111     1.686     2.030
    12   1 H        0.925     0.121     1.607     1.982
    13   6 C        3.736    -0.117    22.831     6.819
    14   1 H        0.925     0.123     1.589     1.971
    15   1 H        0.925     0.113     1.672     2.022
    16   1 H        0.925     0.080     1.974     2.197
    17   6 C        3.721    -0.106    22.642     6.796
    18   1 H        0.925     0.119     1.620     1.990
    19   1 H        0.925     0.095     1.828     2.115
    20   1 H        0.925     0.081     1.968     2.194
    21   1 H        0.802     0.334     0.629     1.246
    22   6 C        2.675     0.343    21.178     7.531
    23   8 O        0.860    -0.510    24.009     6.570
    24   7 N        2.644    -0.307    27.912     7.846
    25   1 H        0.860     0.232     0.955     1.530
    26   1 H        0.861     0.178     1.224     1.733
    27   7 N        2.644    -0.293    27.560     7.797
    28   1 H        0.860     0.183     1.197     1.714
    29   1 H        0.860     0.202     1.097     1.641
    30   6 C        2.675     0.339    21.237     7.541
    31   8 O        0.861    -0.545    24.799     6.677
    32   7 N        2.643    -0.296    27.630     7.807
    33   1 H        0.859     0.257     0.858     1.451
    34   1 H        0.861     0.184     1.191     1.710
    35   7 N        2.644    -0.289    27.451     7.781
    36   1 H        0.861     0.187     1.173     1.696
    37   1 H        0.860     0.214     1.037     1.595
    38   6 C        2.675     0.342    21.183     7.531
    39   8 O        0.860    -0.534    24.545     6.642
    40   7 N        2.644    -0.295    27.604     7.803
    41   1 H        0.860     0.195     1.133     1.667
    42   1 H        0.861     0.186     1.182     1.703
    43   7 N        2.643    -0.319    28.202     7.887
    44   1 H        0.860     0.194     1.137     1.670
    45   1 H        0.860     0.222     1.000     1.566
    46   6 C        2.675     0.346    21.128     7.522
    47   8 O        0.860    -0.523    24.292     6.608
    48   7 N        2.646    -0.289    27.459     7.783
    49   1 H        0.860     0.199     1.110     1.650
    50   1 H        0.861     0.187     1.177     1.699
    51   7 N        2.646    -0.288    27.439     7.780
    52   1 H        0.861     0.187     1.176     1.698
    53   1 H        0.860     0.199     1.109     1.650

 Mol. C6AA /au·bohr⁶  :      21796.733162
 Mol. C8AA /au·bohr⁸  :     454305.902339
 Mol. α(0) /au        :        220.573894


Wiberg/Mayer (AO) data.
largest (>0.10) Wiberg bond orders for each atom

 ---------------------------------------------------------------------------
     #   Z sym  total        # sym  WBO       # sym  WBO       # sym  WBO
 ---------------------------------------------------------------------------
     1   8 O    1.944 --     2 C    1.021    21 H    0.803
     2   6 C    3.966 --     1 O    1.021     5 C    0.993     3 H    0.968
                             4 H    0.962
     3   1 H    0.997 --     2 C    0.968
     4   1 H    0.998 --     2 C    0.962
     5   6 C    3.927 --     2 C    0.993     7 H    0.957     6 H    0.952
                             8 N    0.933
     6   1 H    0.987 --     5 C    0.952
     7   1 H    0.989 --     5 C    0.957
     8   7 N    3.823 --    17 C    0.962     9 C    0.958    13 C    0.955
                             5 C    0.933
     9   6 C    3.922 --    10 H    0.979    11 H    0.965    12 H    0.962
                             8 N    0.958
    10   1 H    0.994 --     9 C    0.979
    11   1 H    0.988 --     9 C    0.965
    12   1 H    0.985 --     9 C    0.962
    13   6 C    3.920 --    16 H    0.978    15 H    0.966    14 H    0.963
                             8 N    0.955
    14   1 H    0.985 --    13 C    0.963
    15   1 H    0.987 --    13 C    0.966
    16   1 H    0.993 --    13 C    0.978
    17   6 C    3.930 --    20 H    0.978    19 H    0.974    18 H    0.963
                             8 N    0.962
    18   1 H    0.986 --    17 C    0.963
    19   1 H    0.991 --    17 C    0.974
    20   1 H    0.993 --    17 C    0.978
    21   1 H    0.889 --     1 O    0.803
    22   6 C    3.960 --    23 O    1.518    24 N    1.234    27 N    1.200
    23   8 O    1.935 --    22 C    1.518    24 N    0.146    27 N    0.133
    24   7 N    3.328 --    22 C    1.234    26 H    0.949    25 H    0.890
                            23 O    0.146
    25   1 H    0.946 --    24 N    0.890
    26   1 H    0.968 --    24 N    0.949
    27   7 N    3.309 --    22 C    1.200    28 H    0.947    29 H    0.942
                            23 O    0.133
    28   1 H    0.966 --    27 N    0.947
    29   1 H    0.959 --    27 N    0.942
    30   6 C    3.960 --    31 O    1.423    32 N    1.297    35 N    1.229
    31   8 O    1.910 --    30 C    1.423    32 N    0.135    35 N    0.121
    32   7 N    3.370 --    30 C    1.297    34 H    0.946    33 H    0.851
                            31 O    0.135
    33   1 H    0.934 --    32 N    0.851
    34   1 H    0.966 --    32 N    0.946
    35   7 N    3.337 --    30 C    1.229    36 H    0.946    37 H    0.932
                            31 O    0.121
    36   1 H    0.965 --    35 N    0.946
    37   1 H    0.954 --    35 N    0.932
    38   6 C    3.959 --    39 O    1.528    43 N    1.217    40 N    1.204
    39   8 O    1.884 --    38 C    1.528    40 N    0.141    43 N    0.139
    40   7 N    3.318 --    38 C    1.204    42 H    0.947    41 H    0.945
                            39 O    0.141
    41   1 H    0.962 --    40 N    0.945
    42   1 H    0.965 --    40 N    0.947
    43   7 N    3.297 --    38 C    1.217    44 H    0.935    45 H    0.898
                            39 O    0.139
    44   1 H    0.962 --    43 N    0.935
    45   1 H    0.951 --    43 N    0.898
    46   6 C    3.959 --    47 O    1.537    51 N    1.208    48 N    1.207
    47   8 O    1.895 --    46 C    1.537    48 N    0.144    51 N    0.144
    48   7 N    3.323 --    46 C    1.207    50 H    0.946    49 H    0.943
                            47 O    0.144
    49   1 H    0.960 --    48 N    0.943
    50   1 H    0.965 --    48 N    0.946
    51   7 N    3.324 --    46 C    1.208    52 H    0.946    53 H    0.943
                            47 O    0.144
    52   1 H    0.965 --    51 N    0.946
    53   1 H    0.960 --    51 N    0.943
 ---------------------------------------------------------------------------

Topologies differ in total number of bonds
Writing topology from bond orders to xtbtopo.mol

molecular dipole:
                 x           y           z       tot (Debye)
 q only:       -1.842      -0.802       0.564
   full:       -1.683      -0.608       0.274       4.602
molecular quadrupole (traceless):
                xx          xy          yy          xz          yz          zz
 q only:       50.701       4.731     -25.079     -14.075       4.846     -25.622
  q+dip:       60.879       3.652     -30.371     -16.749       7.209     -30.508
   full:       61.555       3.513     -30.515     -15.765       7.254     -31.040

           -------------------------------------------------
          |               Frequency Printout                |
           -------------------------------------------------
 projected vibrational frequencies (cm⁻¹)
eigval :       -0.00    -0.00    -0.00    -0.00     0.00     0.00
eigval :        3.48    10.66    13.97    21.26    28.13    33.89
eigval :       42.17    49.31    52.32    54.12    59.99    74.14
eigval :       77.86    79.56    87.37    93.43   102.88   110.78
eigval :      118.96   123.26   138.54   147.04   154.33   170.73
eigval :      183.93   197.48   256.79   272.81   295.48   302.74
eigval :      313.91   320.81   322.44   346.92   355.43   366.31
eigval :      373.29   404.86   425.60   443.14   444.16   453.58
eigval :      455.19   459.72   466.36   468.94   477.69   487.37
eigval :      492.95   504.82   506.12   508.74   529.77   543.79
eigval :      556.48   572.22   583.53   646.30   668.56   672.88
eigval :      674.21   689.03   753.51   767.15   795.70   844.39
eigval :      901.25   929.26   945.02   972.79   974.60   978.00
eigval :      995.06  1002.38  1011.67  1016.74  1021.23  1028.90
eigval :     1033.56  1039.58  1042.38  1080.76  1084.83  1091.57
eigval :     1098.42  1107.25  1108.62  1131.85  1176.11  1230.86
eigval :     1249.56  1275.27  1318.27  1337.57  1350.62  1351.70
eigval :     1354.74  1364.51  1375.68  1391.97  1402.68  1403.14
eigval :     1418.67  1435.20  1440.99  1444.21  1451.74  1454.22
eigval :     1456.17  1458.63  1468.14  1470.90  1472.17  1479.64
eigval :     1493.89  1497.77  1500.44  1506.71  1535.61  1642.41
eigval :     1692.54  1716.40  1726.25  2884.02  2972.89  2987.56
eigval :     3005.44  3031.66  3035.50  3040.24  3042.33  3043.21
eigval :     3046.51  3050.30  3050.97  3059.44  3062.70  3096.46
eigval :     3315.38  3362.94  3474.02  3479.13  3489.24  3495.83
eigval :     3500.98  3505.29  3533.78  3536.55  3553.10  3553.41
eigval :     3563.00  3565.57  3571.07
 reduced masses (amu)
   1: 12.52   2: 12.47   3: 12.60   4: 12.66   5: 12.58   6: 12.48   7: 11.12   8: 12.15
   9: 12.19  10: 12.11  11: 12.36  12: 11.90  13: 12.22  14: 12.55  15: 12.19  16: 12.65
  17: 12.82  18: 12.92  19: 13.22  20: 12.35  21: 12.96  22: 12.35  23: 12.02  24: 12.03
  25: 11.27  26: 12.67  27: 12.80  28: 12.86  29:  4.11  30: 12.51  31: 12.59  32: 10.41
  33: 12.12  34:  5.53  35:  3.52  36:  2.64  37:  9.43  38:  3.83  39:  4.38  40:  2.61
  41:  2.26  42:  6.20  43:  3.60  44:  3.83  45:  8.89  46:  3.34  47:  1.49  48:  3.89
  49:  8.06  50:  8.30  51:  7.40  52:  7.35  53:  7.96  54:  3.24  55:  7.29  56:  3.16
  57:  4.22  58:  1.65  59:  9.72  60: 11.48  61: 11.26  62:  8.60  63: 12.28  64:  5.44
  65: 10.46  66: 11.54  67: 11.95  68:  7.94  69:  4.88  70:  9.20  71:  1.83  72:  2.00
  73:  6.49  74:  8.79  75:  5.28  76:  4.79  77:  5.35  78:  4.65  79:  8.71  80:  7.58
  81:  9.64  82:  7.51  83:  9.74  84:  8.06  85:  9.04  86:  4.06  87:  3.94  88:  9.79
  89:  8.84  90:  8.27  91:  6.67  92:  6.70  93:  4.86  94:  8.83  95:  2.99  96:  4.72
  97:  6.64  98:  8.12  99:  6.42 100:  3.42 101:  5.53 102:  5.61 103:  4.94 104:  5.86
 105:  3.73 106:  3.56 107:  2.53 108:  2.57 109:  2.10 110:  2.37 111:  3.47 112:  1.72
 113:  2.76 114:  1.93 115:  3.04 116:  1.90 117:  2.18 118:  3.49 119:  1.63 120:  1.73
 121:  1.69 122:  8.26 123:  7.07 124:  7.67 125: 10.42 126: 12.17 127: 12.77 128: 12.71
 129: 12.80 130:  1.76 131:  1.66 132:  1.71 133:  1.82 134:  1.64 135:  1.71 136:  1.73
 137:  1.82 138:  1.31 139:  1.89 140:  1.87 141:  1.91 142:  1.80 143:  1.85 144:  1.84
 145:  1.74 146:  1.70 147:  1.93 148:  1.50 149:  1.45 150:  1.45 151:  1.44 152:  1.46
 153:  1.89 154:  1.94 155:  2.17 156:  2.15 157:  2.19 158:  2.19 159:  2.18
 IR intensities (km·mol⁻¹)
   1:  2.26   2:  0.88   3:  2.47   4:  1.64   5:  0.42   6:  1.35   7:  0.03   8:  0.91
   9:  1.18  10:  0.86  11:  1.56  12:  0.73  13:  5.06  14:  3.62  15:  2.11  16: 14.19
  17:  0.11  18:  8.09  19:  2.08  20:  5.90  21: 10.56  22:  1.47  23:  9.01  24: 12.86
  25:  9.15  26:  3.96  27:  0.30  28: 24.01  29:  3.95  30: 22.95  31: 31.22  32:  4.70
  33: 16.51  34:  1.69  35:147.68  36:267.62  37: 20.41  38:419.69  39:106.07  40:  1.21
  41: 74.68  42:  2.45  43:  1.22  44:157.93  45:  0.30  46:259.90  47: 13.65  48: 11.98
  49:  7.39  50:  1.72  51: 39.53  52: 34.25  53: 15.74  54: 31.81  55: 54.68  56: 21.96
  57: 39.22  58:  9.45  59: 31.48  60: 23.91  61: 24.96  62:  8.70  63: 46.99  64: 72.33
  65: 16.85  66: 29.56  67: 35.31  68:175.63  69:275.93  70:  4.75  71:272.62  72:214.33
  73:  3.26  74:  5.67  75:  2.05  76:  5.78  77:  2.87  78: 12.29  79:  0.09  80: 23.03
  81:  1.80  82: 38.40  83:  2.43  84: 15.47  85:  4.38  86: 12.81  87: 10.74  88:  1.79
  89:  4.84  90:  1.29  91: 24.00  92:  6.20  93: 23.03  94: 49.19  95: 19.34  96:  5.28
  97:  4.04  98:  2.39  99: 14.97 100:  0.99 101: 16.06 102:135.00 103: 19.08 104:252.55
 105: 78.04 106: 51.52 107: 31.50 108:  6.86 109: 11.62 110: 16.98 111:  5.72 112:  3.01
 113:  7.42 114:  5.53 115:  7.68 116:  6.03 117:  2.74 118: 46.16 119:  3.81 120: 69.99
 121:  8.49 122:450.04 123:140.05 124:866.39 125:398.01 126:628.51 127:423.27 128:******
 129:890.23 130: 37.62 131: 98.56 132: 14.34 133:  3.64 134: 29.86 135:  5.54 136:  4.50
 137: 19.21 138: 39.96 139:176.39 140: 67.98 141: 12.39 142:387.83 143:827.71 144:719.00
 145:394.28 146:609.96 147: 35.42 148: 34.98 149: 16.20 150: 23.62 151: 39.08 152:  8.52
 153: 14.38 154: 15.37 155:  5.21 156: 37.68 157: 10.10 158: 13.55 159: 11.91
 Raman intensities (amu)
Molecule has no symmetry elements
It seems to be the C1 point group
   1:  0.00   2:  0.00   3:  0.00   4:  0.00   5:  0.00   6:  0.00   7:  0.00   8:  0.00
   9:  0.00  10:  0.00  11:  0.00  12:  0.00  13:  0.00  14:  0.00  15:  0.00  16:  0.00
  17:  0.00  18:  0.00  19:  0.00  20:  0.00  21:  0.00  22:  0.00  23:  0.00  24:  0.00
  25:  0.00  26:  0.00  27:  0.00  28:  0.00  29:  0.00  30:  0.00  31:  0.00  32:  0.00
  33:  0.00  34:  0.00  35:  0.00  36:  0.00  37:  0.00  38:  0.00  39:  0.00  40:  0.00
  41:  0.00  42:  0.00  43:  0.00  44:  0.00  45:  0.00  46:  0.00  47:  0.00  48:  0.00
  49:  0.00  50:  0.00  51:  0.00  52:  0.00  53:  0.00  54:  0.00  55:  0.00  56:  0.00
  57:  0.00  58:  0.00  59:  0.00  60:  0.00  61:  0.00  62:  0.00  63:  0.00  64:  0.00
  65:  0.00  66:  0.00  67:  0.00  68:  0.00  69:  0.00  70:  0.00  71:  0.00  72:  0.00
  73:  0.00  74:  0.00  75:  0.00  76:  0.00  77:  0.00  78:  0.00  79:  0.00  80:  0.00
  81:  0.00  82:  0.00  83:  0.00  84:  0.00  85:  0.00  86:  0.00  87:  0.00  88:  0.00
  89:  0.00  90:  0.00  91:  0.00  92:  0.00  93:  0.00  94:  0.00  95:  0.00  96:  0.00
  97:  0.00  98:  0.00  99:  0.00 100:  0.00 101:  0.00 102:  0.00 103:  0.00 104:  0.00
 105:  0.00 106:  0.00 107:  0.00 108:  0.00 109:  0.00 110:  0.00 111:  0.00 112:  0.00
 113:  0.00 114:  0.00 115:  0.00 116:  0.00 117:  0.00 118:  0.00 119:  0.00 120:  0.00
 121:  0.00 122:  0.00 123:  0.00 124:  0.00 125:  0.00 126:  0.00 127:  0.00 128:  0.00
 129:  0.00 130:  0.00 131:  0.00 132:  0.00 133:  0.00 134:  0.00 135:  0.00 136:  0.00
 137:  0.00 138:  0.00 139:  0.00 140:  0.00 141:  0.00 142:  0.00 143:  0.00 144:  0.00
 145:  0.00 146:  0.00 147:  0.00 148:  0.00 149:  0.00 150:  0.00 151:  0.00 152:  0.00
 153:  0.00 154:  0.00 155:  0.00 156:  0.00 157:  0.00 158:  0.00 159:  0.00
 output can be read by thermo (or use thermo option).
 writing <g98.out> molden fake output.
 recommended (thermochemical) frequency scaling factor: 1.0
           -------------------------------------------------
          |             Thermodynamic Functions             |
           -------------------------------------------------

c1  symmetry found (for desy threshold:  0.10E+00) used in thermo

          ...................................................
          :                      SETUP                      :
          :.................................................:
          :  # frequencies                         153      :
          :  # imaginary freq.                       0      :
          :  linear?                             false      :
          :  only rotor calc.                    false      :
          :  symmetry                               c1      :
          :  rotational number                       1      :
          :  scaling factor                  1.0000000      :
          :  rotor cutoff                   50.0000000 cm⁻¹ :
          :  imag. cutoff                  -20.0000000 cm⁻¹ :
          :.................................................:

    mode    ω/cm⁻¹     T·S(HO)/kcal·mol⁻¹    T·S(FR)/kcal·mol⁻¹   T·S(vib)
   ------------------------------------------------------------------------
       1      3.48    -3.01356 (  0.00%)    -1.84552 (100.00%)    -1.84554
       2     10.66    -2.35065 (  0.21%)    -1.51429 ( 99.79%)    -1.51601
       3     13.97    -2.19053 (  0.61%)    -1.43423 ( 99.39%)    -1.43881
       4     21.26    -1.94187 (  3.16%)    -1.30986 ( 96.84%)    -1.32986
       5     28.13    -1.77602 (  9.11%)    -1.22685 ( 90.89%)    -1.27689
       6     33.89    -1.66594 ( 17.43%)    -1.17172 ( 82.57%)    -1.25785
       7     42.17    -1.53683 ( 33.59%)    -1.10699 ( 66.41%)    -1.25139
       8     49.31    -1.44446 ( 48.62%)    -1.06062 ( 51.38%)    -1.24723
       9     52.32    -1.40958 ( 54.52%)    -1.04310 ( 45.48%)    -1.24291
      10     54.12    -1.38967 ( 57.85%)    -1.03309 ( 42.15%)    -1.23936
      11     59.99    -1.32898 ( 67.45%)    -1.00255 ( 32.55%)    -1.22274
      12     74.14    -1.20464 ( 82.86%)    -0.93984 ( 17.14%)    -1.15925
      13     77.86    -1.17596 ( 85.46%)    -0.92535 ( 14.54%)    -1.13953
      14     79.56    -1.16332 ( 86.50%)    -0.91895 ( 13.50%)    -1.13034
      15     87.37    -1.10853 ( 90.31%)    -0.89118 (  9.69%)    -1.08748
      16     93.43    -1.06946 ( 92.42%)    -0.87134 (  7.58%)    -1.05444
      17    102.88    -1.01343 ( 94.72%)    -0.84280 (  5.28%)    -1.00441
      18    110.78    -0.97051 ( 96.02%)    -0.82086 (  3.98%)    -0.96455
      19    118.96    -0.92940 ( 96.97%)    -0.79977 (  3.03%)    -0.92548
      20    123.26    -0.90893 ( 97.36%)    -0.78924 (  2.64%)    -0.90577
      21    138.54    -0.84194 ( 98.33%)    -0.75462 (  1.67%)    -0.84048
      22    147.04    -0.80803 ( 98.68%)    -0.73699 (  1.32%)    -0.80710
      23    154.33    -0.78062 ( 98.91%)    -0.72266 (  1.09%)    -0.77998
      24    170.73    -0.72374 ( 99.27%)    -0.69274 (  0.73%)    -0.72351
      25    183.93    -0.68222 ( 99.46%)    -0.67069 (  0.54%)    -0.68216
      26    197.48    -0.64294 ( 99.59%)    -0.64962 (  0.41%)    -0.64297
      27    256.79    -0.50194 ( 99.86%)    -0.57183 (  0.14%)    -0.50204
      28    272.81    -0.47058 ( 99.89%)    -0.55390 (  0.11%)    -0.47068
      29    295.48    -0.43004 ( 99.92%)    -0.53025 (  0.08%)    -0.43013
   ------------------------------------------------------------------------

   temp. (K)  partition function   enthalpy   heat capacity  entropy
                                   cal/mol     cal/K/mol   cal/K/mol   J/K/mol
 298.15  VIB  0.116E+19            19434.527    103.690    129.884
         ROT  0.147E+08              888.752      2.981     35.772
         INT  0.170E+26            20323.279    106.671    165.656
         TR   0.618E+28             1481.254      4.968     43.384
         TOT                       21804.5332   111.6389   209.0405   874.6255

       T/K    H(0)-H(T)+PV         H(T)/Eh          T*S/Eh         G(T)/Eh
   ------------------------------------------------------------------------
    298.15    0.347477E-01    0.474213E+00    0.993219E-01    0.374891E+00
   ------------------------------------------------------------------------

         :::::::::::::::::::::::::::::::::::::::::::::::::::::
         ::                  THERMODYNAMIC                  ::
         :::::::::::::::::::::::::::::::::::::::::::::::::::::
         :: total free energy         -80.560249732104 Eh   ::
         ::.................................................::
         :: total energy              -80.935140751600 Eh   ::
         :: zero point energy           0.439465172428 Eh   ::
         :: G(RRHO) w/o ZPVE           -0.064574152932 Eh   ::
         :: G(RRHO) contrib.            0.374891019496 Eh   ::
         :::::::::::::::::::::::::::::::::::::::::::::::::::::

           -------------------------------------------------
          | TOTAL ENERGY              -80.935140751600 Eh   |
          | TOTAL ENTHALPY            -80.460927843737 Eh   |
          | TOTAL FREE ENERGY         -80.560249732104 Eh   |
          | GRADIENT NORM               0.000041818800 Eh/α |
          | HOMO-LUMO GAP               5.686288634065 eV   |
           -------------------------------------------------

------------------------------------------------------------------------
 * finished run on 2024/01/10 at 18:26:10.552     
------------------------------------------------------------------------
 total:
 * wall-time:     0 d,  0 h,  0 min, 14.290 sec
 *  cpu-time:     0 d,  0 h,  0 min, 14.212 sec
 * ratio c/w:     0.995 speedup
 SCF:
 * wall-time:     0 d,  0 h,  0 min,  0.090 sec
 *  cpu-time:     0 d,  0 h,  0 min,  0.061 sec
 * ratio c/w:     0.677 speedup
 analytical hessian:
 * wall-time:     0 d,  0 h,  0 min, 14.172 sec
 *  cpu-time:     0 d,  0 h,  0 min, 14.124 sec
 * ratio c/w:     0.997 speedup

