      -----------------------------------------------------------      
     |                   =====================                   |     
     |                           x T B                           |     
     |                   =====================                   |     
     |                         S. Grimme                         |     
     |          Mulliken Center for Theoretical Chemistry        |     
     |                    University of Bonn                     |     
      -----------------------------------------------------------      

   * xtb version 6.6.1 (unknown-commit) compiled by '@Linux' on 12/27/2023

   xtb is free software: you can redistribute it and/or modify it under
   the terms of the GNU Lesser General Public License as published by
   the Free Software Foundation, either version 3 of the License, or
   (at your option) any later version.
   
   xtb is distributed in the hope that it will be useful,
   but WITHOUT ANY WARRANTY; without even the implied warranty of
   MERCHANTABILITY or FITNESS FOR A PARTICULAR PURPOSE.  See the
   GNU Lesser General Public License for more details.
   
   Cite this work as:
   * C. Bannwarth, E. Caldeweyher, S. Ehlert, A. Hansen, P. Pracht,
     J. Seibert, S. Spicher, S. Grimme, WIREs Comput. Mol. Sci., 2020, 11,
     e01493. DOI: 10.1002/wcms.1493
   
   for GFN2-xTB:
   * C. Bannwarth, S. Ehlert and S. Grimme., J. Chem. Theory Comput., 2019,
     15, 1652-1671. DOI: 10.1021/acs.jctc.8b01176
   for GFN1-xTB:
   * S. Grimme, C. Bannwarth, P. Shushkov, J. Chem. Theory Comput., 2017,
     13, 1989-2009. DOI: 10.1021/acs.jctc.7b00118
   for GFN0-xTB:
   * P. Pracht, E. Caldeweyher, S. Ehlert, S. Grimme, ChemRxiv, 2019, preprint.
     DOI: 10.26434/chemrxiv.8326202.v1
   for GFN-FF:
   * S. Spicher and S. Grimme, Angew. Chem. Int. Ed., 2020, 59, 15665-15673.
     DOI: 10.1002/anie.202004239
   
   for ALPB and GBSA implicit solvation:
   * S. Ehlert, M. Stahn, S. Spicher, S. Grimme, J. Chem. Theory Comput.,
     2021, 17, 4250-4261. DOI: 10.1021/acs.jctc.1c00471
   
   for DFT-D4:
   * E. Caldeweyher, C. Bannwarth and S. Grimme, J. Chem. Phys., 2017,
     147, 034112. DOI: 10.1063/1.4993215
   * E. Caldeweyher, S. Ehlert, A. Hansen, H. Neugebauer, S. Spicher,
     C. Bannwarth and S. Grimme, J. Chem. Phys., 2019, 150, 154122.
     DOI: 10.1063/1.5090222
   * E. Caldeweyher, J.-M. Mewes, S. Ehlert and S. Grimme, Phys. Chem. Chem. Phys.
     2020, 22, 8499-8512. DOI: 10.1039/D0CP00502A
   
   for sTDA-xTB:
   * S. Grimme and C. Bannwarth, J. Chem. Phys., 2016, 145, 054103.
     DOI: 10.1063/1.4959605
   
   in the mass-spec context:
   * V. Asgeirsson, C. Bauer and S. Grimme, Chem. Sci., 2017, 8, 4879.
     DOI: 10.1039/c7sc00601b
   * J. Koopman and S. Grimme, ACS Omega 2019, 4, 12, 15120-15133.
     DOI: 10.1021/acsomega.9b02011
   
   for metadynamics refer to:
   * S. Grimme, J. Chem. Theory Comput., 2019, 155, 2847-2862
     DOI: 10.1021/acs.jctc.9b00143
   
   for SPH calculations refer to:
   * S. Spicher and S. Grimme, J. Chem. Theory Comput., 2021, 17, 1701-1714
     DOI: 10.1021/acs.jctc.0c01306
   
   with help from (in alphabetical order)
   P. Atkinson, C. Bannwarth, F. Bohle, G. Brandenburg, E. Caldeweyher
   M. Checinski, S. Dohm, S. Ehlert, S. Ehrlich, I. Gerasimov, C. Hölzer
   A. Katbashev, J. Koopman, C. Lavigne, S. Lehtola, F. März, M. Müller,
   F. Musil, H. Neugebauer, J. Pisarek, C. Plett, P. Pracht, F. Pultar,
   J. Seibert, P. Shushkov, S. Spicher, M. Stahn, M. Steiner, T. Strunk,
   J. Stückrath, T. Rose, and J. Unsleber
   
 * started run on 2024/01/10 at 18:23:58.738     

           -------------------------------------------------
          |                Calculation Setup                |
           -------------------------------------------------

          program call               : xtb struc.xyz --gfn2 --hess
          hostname                   : swaroop
          coordinate file            : struc.xyz
          omp threads                :                     1

   ID    Z sym.   atoms
    1    8 O      1, 23, 31, 39, 47
    2    6 C      2, 5, 9, 13, 17, 22, 30, 38, 46
    3    1 H      3, 4, 6, 7, 10-12, 14-16, 18-21, 25, 26, 28, 29, 33, 34,
                  36, 37, 41, 42, 44, 45, 49, 50, 52, 53
    4    7 N      8, 24, 27, 32, 35, 40, 43, 48, 51

molecular fragmentation (1/2 indicates fragments):
11111111111111111111122222222222222222222222222222222
# atoms in fragment 1/2:    21    32
 fragment masses (1/2) :      104.17      240.22
CMA distance (Bohr)    :   6.017
constraining FC (au)   :  0.0500

           -------------------------------------------------
          |                 G F N 2 - x T B                 |
           -------------------------------------------------

        Reference                      10.1021/acs.jctc.8b01176
      * Hamiltonian:
        H0-scaling (s, p, d)           1.850000    2.230000    2.230000
        zeta-weighting                 0.500000
      * Dispersion:
        s8                             2.700000
        a1                             0.520000
        a2                             5.000000
        s9                             5.000000
      * Repulsion:
        kExp                           1.500000    1.000000
        rExp                           1.000000
      * Coulomb:
        alpha                          2.000000
        third order                    shell-resolved
        anisotropic                    true
        a3                             3.000000
        a5                             4.000000
        cn-shift                       1.200000
        cn-exp                         4.000000
        max-rad                        5.000000


          ...................................................
          :                      SETUP                      :
          :.................................................:
          :  # basis functions                 122          :
          :  # atomic orbitals                 122          :
          :  # shells                           76          :
          :  # electrons                       140          :
          :  max. iterations                   250          :
          :  Hamiltonian                  GFN2-xTB          :
          :  restarted?                      false          :
          :  GBSA solvation                  false          :
          :  PC potential                    false          :
          :  electronic temp.          300.0000000     K    :
          :  accuracy                    1.0000000          :
          :  -> integral cutoff          0.2500000E+02      :
          :  -> integral neglect         0.1000000E-07      :
          :  -> SCF convergence          0.1000000E-05 Eh   :
          :  -> wf. convergence          0.1000000E-03 e    :
          :  Broyden damping             0.4000000          :
          ...................................................

 iter      E             dE          RMSdq      gap      omega  full diag
   1    -81.5481663 -0.815482E+02  0.437E+00    5.16       0.0  T
   2    -81.8387548 -0.290589E+00  0.238E+00    5.89       1.0  T
   3    -81.8445702 -0.581543E-02  0.116E+00    5.62       1.0  T
   4    -81.8459284 -0.135819E-02  0.246E-01    5.67       1.0  T
   5    -81.8468710 -0.942534E-03  0.927E-02    5.57       1.0  T
   6    -81.8468972 -0.261976E-04  0.281E-02    5.57       1.0  T
   7    -81.8469016 -0.442168E-05  0.779E-03    5.57       1.8  T
   8    -81.8469019 -0.302535E-06  0.265E-03    5.57       5.2  T
   9    -81.8469019 -0.158017E-07  0.901E-04    5.57      15.3  T
  10    -81.8469019 -0.447562E-08  0.183E-04    5.57      75.0  T

   *** convergence criteria satisfied after 10 iterations ***

         #    Occupation            Energy/Eh            Energy/eV
      -------------------------------------------------------------
         1        2.0000           -0.7919613             -21.5504
       ...           ...                  ...                  ...
        64        2.0000           -0.4948582             -13.4658
        65        2.0000           -0.4918027             -13.3826
        66        2.0000           -0.4906995             -13.3526
        67        2.0000           -0.4872791             -13.2595
        68        2.0000           -0.4821292             -13.1194
        69        2.0000           -0.4776429             -12.9973
        70        2.0000           -0.4704719             -12.8022 (HOMO)
        71                         -0.2659575              -7.2371 (LUMO)
        72                         -0.2633501              -7.1661
        73                         -0.2609479              -7.1008
        74                         -0.2481992              -6.7538
        75                         -0.1480295              -4.0281
       ...                                ...                  ...
       122                          0.5766636              15.6918
      -------------------------------------------------------------
                  HL-Gap            0.2045145 Eh            5.5651 eV
             Fermi-level           -0.3682147 Eh          -10.0196 eV

 SCC (total)                   0 d,  0 h,  0 min,  0.065 sec
 SCC setup                      ...        0 min,  0.000 sec (  0.446%)
 Dispersion                     ...        0 min,  0.001 sec (  0.900%)
 classical contributions        ...        0 min,  0.000 sec (  0.278%)
 integral evaluation            ...        0 min,  0.007 sec ( 11.455%)
 iterations                     ...        0 min,  0.030 sec ( 45.782%)
 molecular gradient             ...        0 min,  0.027 sec ( 40.736%)
 printout                       ...        0 min,  0.000 sec (  0.386%)

         :::::::::::::::::::::::::::::::::::::::::::::::::::::
         ::                     SUMMARY                     ::
         :::::::::::::::::::::::::::::::::::::::::::::::::::::
         :: total energy             -80.931250176635 Eh    ::
         :: gradient norm              0.000180880492 Eh/a0 ::
         :: HOMO-LUMO gap              5.565121846314 eV    ::
         ::.................................................::
         :: SCC energy               -81.846901895622 Eh    ::
         :: -> isotropic ES            0.292894050170 Eh    ::
         :: -> anisotropic ES         -0.027488680434 Eh    ::
         :: -> anisotropic XC          0.020420127565 Eh    ::
         :: -> dispersion             -0.040986848253 Eh    ::
         :: repulsion energy           0.914960557191 Eh    ::
         :: add. restraining           0.000000000000 Eh    ::
         :: total charge               1.000000000000 e     ::
         :::::::::::::::::::::::::::::::::::::::::::::::::::::

           ------------------------------------------------- 
          |                Numerical Hessian                |
           ------------------------------------------------- 
step length          :   0.00500
SCC accuracy         :   0.30000
Hessian scale factor :   1.00000
frozen atoms in %    :   0.00000    0
RMS gradient         :   0.00018
estimated CPU  time      0.23 min
estimated wall time      0.23 min

writing file <hessian>.

 projected vibrational frequencies (cm⁻¹)
eigval :       -0.00    -0.00    -0.00     0.00     0.00     0.00
eigval :       -0.98     8.59    10.86    13.52    17.00    19.77
eigval :       28.76    33.14    41.25    47.80    51.69    61.18
eigval :       67.61    70.68    80.89    81.15    91.54   102.64
eigval :      106.71   111.17   128.06   141.52   145.58   161.28
eigval :      189.56   198.17   203.13   219.84   236.24   267.29
eigval :      305.09   316.14   325.16   328.42   352.98   362.52
eigval :      377.57   383.07   429.67   439.61   443.01   444.68
eigval :      454.86   456.73   462.48   469.72   473.94   494.88
eigval :      498.65   506.12   512.24   529.58   532.29   545.21
eigval :      550.32   558.15   575.03   621.05   668.47   674.21
eigval :      676.18   682.37   706.94   727.25   768.38   815.49
eigval :      897.11   926.29   944.54   948.01   965.52   995.02
eigval :      995.81  1002.23  1005.71  1011.62  1023.88  1029.55
eigval :     1035.08  1035.92  1039.81  1080.83  1082.64  1090.18
eigval :     1095.81  1105.12  1120.31  1132.48  1164.80  1226.07
eigval :     1248.52  1283.17  1308.64  1330.88  1340.94  1346.46
eigval :     1352.05  1353.09  1366.50  1383.86  1401.89  1405.91
eigval :     1428.78  1435.65  1439.59  1442.47  1448.05  1450.29
eigval :     1455.93  1456.18  1457.99  1468.02  1472.39  1479.79
eigval :     1489.66  1495.36  1497.96  1511.06  1525.80  1655.20
eigval :     1683.65  1724.19  1727.75  2894.96  2972.41  2993.38
eigval :     3008.47  3016.71  3029.27  3041.24  3043.03  3044.38
eigval :     3049.30  3054.81  3059.30  3062.00  3108.73  3236.01
eigval :     3326.57  3410.89  3452.24  3498.51  3500.12  3501.26
eigval :     3502.59  3505.70  3528.04  3550.37  3562.68  3566.00
eigval :     3567.79  3568.16  3571.54
           -------------------------------------------------
          |                Property Printout                |
           -------------------------------------------------

    * Orbital Energies and Occupations

         #    Occupation            Energy/Eh            Energy/eV
      -------------------------------------------------------------
         1        2.0000           -0.7919618             -21.5504
       ...           ...                  ...                  ...
        58        2.0000           -0.5039326             -13.7127
        59        2.0000           -0.5007741             -13.6268
        60        2.0000           -0.4997311             -13.5984
        61        2.0000           -0.4966976             -13.5158
        62        2.0000           -0.4958745             -13.4934
        63        2.0000           -0.4957918             -13.4912
        64        2.0000           -0.4948596             -13.4658
        65        2.0000           -0.4918041             -13.3827
        66        2.0000           -0.4906987             -13.3526
        67        2.0000           -0.4872797             -13.2596
        68        2.0000           -0.4821312             -13.1195
        69        2.0000           -0.4776450             -12.9974
        70        2.0000           -0.4704738             -12.8022 (HOMO)
        71                         -0.2659590              -7.2371 (LUMO)
        72                         -0.2633514              -7.1662
        73                         -0.2609491              -7.1008
        74                         -0.2482019              -6.7539
        75                         -0.1480301              -4.0281
        76                         -0.0971602              -2.6439
        77                         -0.0934007              -2.5416
        78                         -0.0864968              -2.3537
        79                         -0.0760522              -2.0695
        80                         -0.0695828              -1.8934
        81                         -0.0642895              -1.7494
       ...                                ...                  ...
       122                          0.5766621              15.6918
      -------------------------------------------------------------
                  HL-Gap            0.2045148 Eh            5.5651 eV
             Fermi-level           -0.3682164 Eh          -10.0197 eV

     #   Z          covCN         q      C6AA      α(0)
     1   8 O        1.654    -0.461    22.061     6.341
     2   6 C        3.673     0.074    19.569     6.340
     3   1 H        0.924     0.055     2.263     2.353
     4   1 H        0.923     0.047     2.355     2.400
     5   6 C        3.762    -0.062    21.739     6.646
     6   1 H        0.924     0.119     1.623     1.992
     7   1 H        0.924     0.070     2.091     2.261
     8   7 N        3.623     0.158    18.577     6.402
     9   6 C        3.730    -0.117    22.851     6.824
    10   1 H        0.925     0.105     1.742     2.064
    11   1 H        0.925     0.111     1.689     2.032
    12   1 H        0.925     0.111     1.688     2.032
    13   6 C        3.735    -0.119    22.868     6.825
    14   1 H        0.924     0.123     1.590     1.972
    15   1 H        0.925     0.075     2.030     2.228
    16   1 H        0.925     0.118     1.628     1.995
    17   6 C        3.724    -0.107    22.656     6.797
    18   1 H        0.925     0.078     1.995     2.209
    19   1 H        0.925     0.094     1.842     2.123
    20   1 H        0.925     0.124     1.579     1.965
    21   1 H        0.803     0.333     0.629     1.246
    22   6 C        2.675     0.347    21.104     7.517
    23   8 O        0.860    -0.509    23.992     6.567
    24   7 N        2.646    -0.289    27.449     7.781
    25   1 H        0.860     0.200     1.107     1.648
    26   1 H        0.861     0.186     1.179     1.701
    27   7 N        2.646    -0.289    27.454     7.782
    28   1 H        0.861     0.186     1.179     1.701
    29   1 H        0.860     0.200     1.105     1.647
    30   6 C        2.675     0.342    21.188     7.532
    31   8 O        0.861    -0.533    24.534     6.641
    32   7 N        2.644    -0.288    27.430     7.778
    33   1 H        0.860     0.203     1.089     1.635
    34   1 H        0.861     0.184     1.193     1.711
    35   7 N        2.643    -0.315    28.112     7.875
    36   1 H        0.860     0.175     1.244     1.747
    37   1 H        0.859     0.245     0.902     1.488
    38   6 C        2.675     0.336    21.287     7.550
    39   8 O        0.860    -0.560    25.149     6.724
    40   7 N        2.648    -0.299    27.693     7.816
    41   1 H        0.861     0.188     1.167     1.692
    42   1 H        0.860     0.220     1.007     1.572
    43   7 N        2.648    -0.316    28.143     7.879
    44   1 H        0.860     0.213     1.042     1.599
    45   1 H        0.860     0.224     0.992     1.560
    46   6 C        2.675     0.346    21.128     7.522
    47   8 O        0.860    -0.521    24.262     6.604
    48   7 N        2.646    -0.289    27.459     7.783
    49   1 H        0.860     0.200     1.108     1.649
    50   1 H        0.861     0.186     1.181     1.703
    51   7 N        2.646    -0.288    27.438     7.780
    52   1 H        0.861     0.186     1.179     1.701
    53   1 H        0.860     0.200     1.107     1.648

 Mol. C6AA /au·bohr⁶  :      21796.571765
 Mol. C8AA /au·bohr⁸  :     454254.902757
 Mol. α(0) /au        :        220.576155


Wiberg/Mayer (AO) data.
largest (>0.10) Wiberg bond orders for each atom

 ---------------------------------------------------------------------------
     #   Z sym  total        # sym  WBO       # sym  WBO       # sym  WBO
 ---------------------------------------------------------------------------
     1   8 O    1.961 --     2 C    1.026    21 H    0.827
     2   6 C    3.967 --     1 O    1.026     5 C    0.989     3 H    0.966
                             4 H    0.962
     3   1 H    0.997 --     2 C    0.966
     4   1 H    0.997 --     2 C    0.962
     5   6 C    3.936 --     2 C    0.989     7 H    0.970     6 H    0.951
                             8 N    0.938
     6   1 H    0.986 --     5 C    0.951
     7   1 H    0.995 --     5 C    0.970
     8   7 N    3.822 --    17 C    0.961    13 C    0.953     9 C    0.953
                             5 C    0.938
     9   6 C    3.915 --    10 H    0.970    11 H    0.967    12 H    0.966
                             8 N    0.953
    10   1 H    0.989 --     9 C    0.970
    11   1 H    0.988 --     9 C    0.967
    12   1 H    0.988 --     9 C    0.966
    13   6 C    3.917 --    15 H    0.980    16 H    0.963    14 H    0.957
                             8 N    0.953
    14   1 H    0.985 --    13 C    0.957
    15   1 H    0.994 --    13 C    0.980
    16   1 H    0.986 --    13 C    0.963
    17   6 C    3.929 --    18 H    0.979    19 H    0.974     8 N    0.961
                            20 H    0.959
    18   1 H    0.994 --    17 C    0.979
    19   1 H    0.991 --    17 C    0.974
    20   1 H    0.985 --    17 C    0.959
    21   1 H    0.889 --     1 O    0.827
    22   6 C    3.959 --    23 O    1.541    24 N    1.206    27 N    1.206
    23   8 O    1.925 --    22 C    1.541    24 N    0.144    27 N    0.144
    24   7 N    3.321 --    22 C    1.206    26 H    0.947    25 H    0.943
                            23 O    0.144
    25   1 H    0.960 --    24 N    0.943
    26   1 H    0.965 --    24 N    0.947
    27   7 N    3.321 --    22 C    1.206    28 H    0.947    29 H    0.943
                            23 O    0.144
    28   1 H    0.965 --    27 N    0.947
    29   1 H    0.960 --    27 N    0.943
    30   6 C    3.960 --    31 O    1.477    35 N    1.250    32 N    1.217
    31   8 O    1.895 --    30 C    1.477    35 N    0.138    32 N    0.131
    32   7 N    3.333 --    30 C    1.217    34 H    0.947    33 H    0.942
                            31 O    0.131
    33   1 H    0.958 --    32 N    0.942
    34   1 H    0.966 --    32 N    0.947
    35   7 N    3.331 --    30 C    1.250    36 H    0.949    37 H    0.856
                            31 O    0.138
    36   1 H    0.969 --    35 N    0.949
    37   1 H    0.940 --    35 N    0.856
    38   6 C    3.960 --    39 O    1.448    43 N    1.262    40 N    1.237
    39   8 O    1.868 --    38 C    1.448    43 N    0.138    40 N    0.127
    40   7 N    3.337 --    38 C    1.237    41 H    0.947    42 H    0.911
                            39 O    0.127
    41   1 H    0.964 --    40 N    0.947
    42   1 H    0.951 --    40 N    0.911
    43   7 N    3.346 --    38 C    1.262    44 H    0.916    45 H    0.894
                            39 O    0.138
    44   1 H    0.955 --    43 N    0.916
    45   1 H    0.950 --    43 N    0.894
    46   6 C    3.959 --    47 O    1.537    51 N    1.209    48 N    1.207
    47   8 O    1.895 --    46 C    1.537    51 N    0.144    48 N    0.143
    48   7 N    3.323 --    46 C    1.207    50 H    0.947    49 H    0.943
                            47 O    0.143
    49   1 H    0.960 --    48 N    0.943
    50   1 H    0.965 --    48 N    0.947
    51   7 N    3.325 --    46 C    1.209    52 H    0.947    53 H    0.943
                            47 O    0.144
    52   1 H    0.965 --    51 N    0.947
    53   1 H    0.960 --    51 N    0.943
 ---------------------------------------------------------------------------

Topologies differ in total number of bonds
Writing topology from bond orders to xtbtopo.mol

molecular dipole:
                 x           y           z       tot (Debye)
 q only:       -1.247      -0.855       0.115
   full:       -0.621      -1.259       0.422       3.725
molecular quadrupole (traceless):
                xx          xy          yy          xz          yz          zz
 q only:       80.173     -15.697     -46.168     -38.818      12.738     -34.005
  q+dip:       93.588     -17.023     -55.273     -45.826      13.731     -38.315
   full:       93.246     -17.020     -55.452     -45.168      14.391     -37.794

           -------------------------------------------------
          |               Frequency Printout                |
           -------------------------------------------------
 projected vibrational frequencies (cm⁻¹)
eigval :       -0.00    -0.00    -0.00     0.00     0.00     0.00
eigval :       -0.98     8.59    10.86    13.52    17.00    19.77
eigval :       28.76    33.14    41.25    47.80    51.69    61.18
eigval :       67.61    70.68    80.89    81.15    91.54   102.64
eigval :      106.71   111.17   128.06   141.52   145.58   161.28
eigval :      189.56   198.17   203.13   219.84   236.24   267.29
eigval :      305.09   316.14   325.16   328.42   352.98   362.52
eigval :      377.57   383.07   429.67   439.61   443.01   444.68
eigval :      454.86   456.73   462.48   469.72   473.94   494.88
eigval :      498.65   506.12   512.24   529.58   532.29   545.21
eigval :      550.32   558.15   575.03   621.05   668.47   674.21
eigval :      676.18   682.37   706.94   727.25   768.38   815.49
eigval :      897.11   926.29   944.54   948.01   965.52   995.02
eigval :      995.81  1002.23  1005.71  1011.62  1023.88  1029.55
eigval :     1035.08  1035.92  1039.81  1080.83  1082.64  1090.18
eigval :     1095.81  1105.12  1120.31  1132.48  1164.80  1226.07
eigval :     1248.52  1283.17  1308.64  1330.88  1340.94  1346.46
eigval :     1352.05  1353.09  1366.50  1383.86  1401.89  1405.91
eigval :     1428.78  1435.65  1439.59  1442.47  1448.05  1450.29
eigval :     1455.93  1456.18  1457.99  1468.02  1472.39  1479.79
eigval :     1489.66  1495.36  1497.96  1511.06  1525.80  1655.20
eigval :     1683.65  1724.19  1727.75  2894.96  2972.41  2993.38
eigval :     3008.47  3016.71  3029.27  3041.24  3043.03  3044.38
eigval :     3049.30  3054.81  3059.30  3062.00  3108.73  3236.01
eigval :     3326.57  3410.89  3452.24  3498.51  3500.12  3501.26
eigval :     3502.59  3505.70  3528.04  3550.37  3562.68  3566.00
eigval :     3567.79  3568.16  3571.54
 reduced masses (amu)
   1: 12.40   2: 12.79   3: 12.48   4: 12.42   5: 12.82   6: 12.68   7: 11.20   8: 10.99
   9: 12.07  10: 12.00  11: 12.27  12: 12.04  13: 11.70  14: 13.45  15: 12.12  16: 11.47
  17: 12.98  18: 12.79  19: 12.90  20: 13.36  21: 13.08  22: 13.24  23: 11.87  24: 12.06
  25: 12.53  26: 10.47  27: 13.71  28:  4.32  29: 12.34  30: 12.46  31: 10.14  32:  3.90
  33: 13.11  34:  5.56  35: 11.00  36:  5.16  37:  8.45  38:  3.49  39:  4.69  40:  3.69
  41:  3.22  42:  7.00  43:  2.94  44:  2.68  45:  8.52  46:  3.14  47:  1.57  48:  1.52
  49:  8.44  50:  8.58  51:  7.82  52:  8.44  53:  8.61  54:  1.91  55:  2.88  56:  3.11
  57:  9.28  58:  9.77  59: 10.04  60: 11.23  61: 11.53  62:  8.68  63:  1.58  64:  4.42
  65:  9.99  66: 11.93  67: 11.90  68:  9.57  69:  3.00  70:  3.04  71:  9.13  72:  2.14
  73:  7.14  74:  8.25  75:  5.27  76:  5.20  77:  5.15  78:  8.70  79:  8.84  80:  7.58
  81:  5.13  82:  7.60  83:  9.49  84:  8.06  85:  4.66  86:  9.71  87:  3.46  88:  9.82
  89:  9.63  90:  7.70  91:  7.08  92:  4.11  93:  7.78  94:  8.17  95:  2.87  96:  5.22
  97:  6.75  98:  8.03  99:  6.57 100:  3.26 101:  4.43 102:  4.52 103:  6.07 104:  5.77
 105:  4.21 106:  3.37 107:  2.57 108:  2.53 109:  2.20 110:  2.01 111:  2.50 112:  2.71
 113:  2.78 114:  1.90 115:  2.41 116:  2.46 117:  2.94 118:  1.72 119:  1.64 120:  1.61
 121:  1.67 122:  8.05 123:  8.31 124:  9.44 125:  9.96 126: 12.30 127: 12.65 128: 12.85
 129: 12.84 130:  1.77 131:  1.66 132:  1.72 133:  1.78 134:  1.71 135:  1.70 136:  1.70
 137:  1.73 138:  1.62 139:  1.72 140:  1.90 141:  1.75 142:  1.78 143:  1.83 144:  1.90
 145:  1.65 146:  1.68 147:  1.98 148:  1.44 149:  1.45 150:  1.44 151:  1.46 152:  1.46
 153:  1.89 154:  2.03 155:  2.19 156:  2.19 157:  2.19 158:  2.18 159:  2.18
 IR intensities (km·mol⁻¹)
   1:  1.64   2:  1.47   3:  1.42   4:  1.80   5:  2.56   6:  0.23   7:  0.11   8:  0.22
   9:  2.30  10:  3.01  11:  1.25  12:  0.24  13:  0.46  14:  2.02  15:  4.78  16:  1.44
  17:  3.33  18:  4.00  19:  8.37  20:  1.11  21:  0.71  22:  3.64  23:  7.06  24:  4.95
  25: 26.75  26:  2.53  27:  1.63  28:  4.83  29: 16.50  30:  6.59  31: 11.94  32:  9.15
  33: 22.48  34:132.93  35:101.42  36:  6.12  37:  2.30  38:470.49  39:  8.92  40:403.27
  41:  1.87  42:  3.40  43: 29.41  44:227.62  45:  0.21  46:183.18  47:  3.88  48:  7.32
  49:  2.79  50:  7.71  51:  3.05  52: 11.36  53: 18.40  54:  3.73  55: 18.88  56: 31.60
  57:103.99  58: 30.19  59: 38.26  60:  2.42  61: 28.27  62:  0.40  63: 63.80  64:310.42
  65: 15.54  66: 26.38  67:142.41  68: 61.73  69: 82.37  70:205.74  71:  1.18  72:302.36
  73:  2.95  74:  9.33  75:  1.68  76:  0.95  77:  5.18  78:  0.11  79:  0.47  80: 17.20
  81:  5.22  82: 23.89  83:  3.68  84: 14.95  85: 19.34  86:  4.65  87:  5.55  88:  1.71
  89:  0.97  90:  3.37  91: 10.73  92: 23.99  93:  2.38  94: 49.26  95:  8.86  96:  5.66
  97:  5.00  98: 18.90  99:  4.36 100:  6.39 101: 48.48 102: 97.37 103: 50.74 104: 98.58
 105: 10.75 106:116.25 107: 38.57 108: 15.28 109:  2.96 110:  1.27 111:  2.03 112: 12.58
 113:  5.70 114:  7.25 115:  5.76 116:  6.90 117: 12.43 118: 12.45 119: 15.96 120: 17.23
 121: 13.77 122:301.98 123:453.84 124:565.29 125:673.43 126:795.95 127:****** 128:******
 129:289.03 130: 31.79 131: 44.11 132: 15.31 133:  1.97 134: 61.49 135: 24.12 136:  7.62
 137: 17.89 138:  5.71 139:  4.49 140: 23.85 141: 10.66 142:  2.86 143:910.10 144:624.51
 145:526.95 146:105.81 147:471.19 148: 38.35 149: 23.08 150: 39.75 151:  2.45 152:  8.47
 153: 10.22 154: 39.10 155: 13.36 156: 13.80 157: 16.06 158: 15.14 159: 11.81
 Raman intensities (amu)
Molecule has no symmetry elements
It seems to be the C1 point group
   1:  0.00   2:  0.00   3:  0.00   4:  0.00   5:  0.00   6:  0.00   7:  0.00   8:  0.00
   9:  0.00  10:  0.00  11:  0.00  12:  0.00  13:  0.00  14:  0.00  15:  0.00  16:  0.00
  17:  0.00  18:  0.00  19:  0.00  20:  0.00  21:  0.00  22:  0.00  23:  0.00  24:  0.00
  25:  0.00  26:  0.00  27:  0.00  28:  0.00  29:  0.00  30:  0.00  31:  0.00  32:  0.00
  33:  0.00  34:  0.00  35:  0.00  36:  0.00  37:  0.00  38:  0.00  39:  0.00  40:  0.00
  41:  0.00  42:  0.00  43:  0.00  44:  0.00  45:  0.00  46:  0.00  47:  0.00  48:  0.00
  49:  0.00  50:  0.00  51:  0.00  52:  0.00  53:  0.00  54:  0.00  55:  0.00  56:  0.00
  57:  0.00  58:  0.00  59:  0.00  60:  0.00  61:  0.00  62:  0.00  63:  0.00  64:  0.00
  65:  0.00  66:  0.00  67:  0.00  68:  0.00  69:  0.00  70:  0.00  71:  0.00  72:  0.00
  73:  0.00  74:  0.00  75:  0.00  76:  0.00  77:  0.00  78:  0.00  79:  0.00  80:  0.00
  81:  0.00  82:  0.00  83:  0.00  84:  0.00  85:  0.00  86:  0.00  87:  0.00  88:  0.00
  89:  0.00  90:  0.00  91:  0.00  92:  0.00  93:  0.00  94:  0.00  95:  0.00  96:  0.00
  97:  0.00  98:  0.00  99:  0.00 100:  0.00 101:  0.00 102:  0.00 103:  0.00 104:  0.00
 105:  0.00 106:  0.00 107:  0.00 108:  0.00 109:  0.00 110:  0.00 111:  0.00 112:  0.00
 113:  0.00 114:  0.00 115:  0.00 116:  0.00 117:  0.00 118:  0.00 119:  0.00 120:  0.00
 121:  0.00 122:  0.00 123:  0.00 124:  0.00 125:  0.00 126:  0.00 127:  0.00 128:  0.00
 129:  0.00 130:  0.00 131:  0.00 132:  0.00 133:  0.00 134:  0.00 135:  0.00 136:  0.00
 137:  0.00 138:  0.00 139:  0.00 140:  0.00 141:  0.00 142:  0.00 143:  0.00 144:  0.00
 145:  0.00 146:  0.00 147:  0.00 148:  0.00 149:  0.00 150:  0.00 151:  0.00 152:  0.00
 153:  0.00 154:  0.00 155:  0.00 156:  0.00 157:  0.00 158:  0.00 159:  0.00
 output can be read by thermo (or use thermo option).
 writing <g98.out> molden fake output.
 recommended (thermochemical) frequency scaling factor: 1.0
           -------------------------------------------------
          |             Thermodynamic Functions             |
           -------------------------------------------------

c1  symmetry found (for desy threshold:  0.10E+00) used in thermo

          ...................................................
          :                      SETUP                      :
          :.................................................:
          :  # frequencies                         152      :
          :  # imaginary freq.                       0      :
          :  linear?                             false      :
          :  only rotor calc.                    false      :
          :  symmetry                               c1      :
          :  rotational number                       1      :
          :  scaling factor                  1.0000000      :
          :  rotor cutoff                   50.0000000 cm⁻¹ :
          :  imag. cutoff                  -20.0000000 cm⁻¹ :
          :.................................................:

    mode    ω/cm⁻¹     T·S(HO)/kcal·mol⁻¹    T·S(FR)/kcal·mol⁻¹   T·S(vib)
   ------------------------------------------------------------------------
       1      8.59    -2.47855 (  0.09%)    -1.57824 ( 99.91%)    -1.57903
       2     10.86    -2.33969 (  0.22%)    -1.50883 ( 99.78%)    -1.51068
       3     13.52    -2.20988 (  0.53%)    -1.44392 ( 99.47%)    -1.44800
       4     17.00    -2.07408 (  1.32%)    -1.37601 ( 98.68%)    -1.38523
       5     19.77    -1.98487 (  2.39%)    -1.33139 ( 97.61%)    -1.34698
       6     28.76    -1.76297 (  9.87%)    -1.22033 ( 90.13%)    -1.27388
       7     33.14    -1.67921 ( 16.17%)    -1.17837 ( 83.83%)    -1.25938
       8     41.25    -1.54975 ( 31.67%)    -1.11348 ( 68.33%)    -1.25164
       9     47.80    -1.46286 ( 45.51%)    -1.06987 ( 54.49%)    -1.24871
      10     51.69    -1.41668 ( 53.32%)    -1.04667 ( 46.68%)    -1.24397
      11     61.18    -1.31747 ( 69.15%)    -0.99676 ( 30.85%)    -1.21853
      12     67.61    -1.25875 ( 76.97%)    -0.96717 ( 23.03%)    -1.19160
      13     70.68    -1.23265 ( 79.97%)    -0.95399 ( 20.03%)    -1.17684
      14     80.89    -1.15361 ( 87.26%)    -0.91404 ( 12.74%)    -1.12309
      15     81.15    -1.15171 ( 87.40%)    -0.91308 ( 12.60%)    -1.12165
      16     91.54    -1.08137 ( 91.83%)    -0.87739 (  8.17%)    -1.06470
      17    102.64    -1.01474 ( 94.67%)    -0.84347 (  5.33%)    -1.00561
      18    106.71    -0.99219 ( 95.40%)    -0.83195 (  4.60%)    -0.98482
      19    111.17    -0.96853 ( 96.07%)    -0.81985 (  3.93%)    -0.96268
      20    128.06    -0.88697 ( 97.73%)    -0.77793 (  2.27%)    -0.88450
      21    141.52    -0.82984 ( 98.47%)    -0.74834 (  1.53%)    -0.82858
      22    145.58    -0.81373 ( 98.63%)    -0.73996 (  1.37%)    -0.81272
      23    161.28    -0.75572 ( 99.08%)    -0.70960 (  0.92%)    -0.75530
      24    189.56    -0.66550 ( 99.52%)    -0.66174 (  0.48%)    -0.66548
      25    198.17    -0.64103 ( 99.60%)    -0.64859 (  0.40%)    -0.64106
      26    203.13    -0.62748 ( 99.63%)    -0.64127 (  0.37%)    -0.62753
      27    219.84    -0.58448 ( 99.73%)    -0.61784 (  0.27%)    -0.58457
      28    236.24    -0.54591 ( 99.80%)    -0.59653 (  0.20%)    -0.54601
      29    267.29    -0.48111 ( 99.88%)    -0.55995 (  0.12%)    -0.48121
   ------------------------------------------------------------------------

   temp. (K)  partition function   enthalpy   heat capacity  entropy
                                   cal/mol     cal/K/mol   cal/K/mol   J/K/mol
 298.15  VIB  0.180E+19            19376.412    101.893    129.276
         ROT  0.193E+08              888.752      2.981     36.321
         INT  0.347E+26            20265.165    104.874    165.597
         TR   0.618E+28             1481.254      4.968     43.384
         TOT                       21746.4187   109.8420   208.9810   874.3764

       T/K    H(0)-H(T)+PV         H(T)/Eh          T*S/Eh         G(T)/Eh
   ------------------------------------------------------------------------
    298.15    0.346551E-01    0.473096E+00    0.992936E-01    0.373803E+00
   ------------------------------------------------------------------------

         :::::::::::::::::::::::::::::::::::::::::::::::::::::
         ::                  THERMODYNAMIC                  ::
         :::::::::::::::::::::::::::::::::::::::::::::::::::::
         :: total free energy         -80.557447283767 Eh   ::
         ::.................................................::
         :: total energy              -80.931250176950 Eh   ::
         :: zero point energy           0.438441372215 Eh   ::
         :: G(RRHO) w/o ZPVE           -0.064638479032 Eh   ::
         :: G(RRHO) contrib.            0.373802893183 Eh   ::
         :::::::::::::::::::::::::::::::::::::::::::::::::::::

           -------------------------------------------------
          | TOTAL ENERGY              -80.931250176950 Eh   |
          | TOTAL ENTHALPY            -80.458153680596 Eh   |
          | TOTAL FREE ENERGY         -80.557447283767 Eh   |
          | GRADIENT NORM               0.000180676491 Eh/α |
          | HOMO-LUMO GAP               5.565131210383 eV   |
           -------------------------------------------------

------------------------------------------------------------------------
 * finished run on 2024/01/10 at 18:24:12.614     
------------------------------------------------------------------------
 total:
 * wall-time:     0 d,  0 h,  0 min, 13.875 sec
 *  cpu-time:     0 d,  0 h,  0 min, 13.818 sec
 * ratio c/w:     0.996 speedup
 SCF:
 * wall-time:     0 d,  0 h,  0 min,  0.065 sec
 *  cpu-time:     0 d,  0 h,  0 min,  0.056 sec
 * ratio c/w:     0.851 speedup
 analytical hessian:
 * wall-time:     0 d,  0 h,  0 min, 13.784 sec
 *  cpu-time:     0 d,  0 h,  0 min, 13.736 sec
 * ratio c/w:     0.997 speedup

