      -----------------------------------------------------------      
     |                   =====================                   |     
     |                           x T B                           |     
     |                   =====================                   |     
     |                         S. Grimme                         |     
     |          Mulliken Center for Theoretical Chemistry        |     
     |                    University of Bonn                     |     
      -----------------------------------------------------------      

   * xtb version 6.6.1 (unknown-commit) compiled by '@Linux' on 12/27/2023

   xtb is free software: you can redistribute it and/or modify it under
   the terms of the GNU Lesser General Public License as published by
   the Free Software Foundation, either version 3 of the License, or
   (at your option) any later version.
   
   xtb is distributed in the hope that it will be useful,
   but WITHOUT ANY WARRANTY; without even the implied warranty of
   MERCHANTABILITY or FITNESS FOR A PARTICULAR PURPOSE.  See the
   GNU Lesser General Public License for more details.
   
   Cite this work as:
   * C. Bannwarth, E. Caldeweyher, S. Ehlert, A. Hansen, P. Pracht,
     J. Seibert, S. Spicher, S. Grimme, WIREs Comput. Mol. Sci., 2020, 11,
     e01493. DOI: 10.1002/wcms.1493
   
   for GFN2-xTB:
   * C. Bannwarth, S. Ehlert and S. Grimme., J. Chem. Theory Comput., 2019,
     15, 1652-1671. DOI: 10.1021/acs.jctc.8b01176
   for GFN1-xTB:
   * S. Grimme, C. Bannwarth, P. Shushkov, J. Chem. Theory Comput., 2017,
     13, 1989-2009. DOI: 10.1021/acs.jctc.7b00118
   for GFN0-xTB:
   * P. Pracht, E. Caldeweyher, S. Ehlert, S. Grimme, ChemRxiv, 2019, preprint.
     DOI: 10.26434/chemrxiv.8326202.v1
   for GFN-FF:
   * S. Spicher and S. Grimme, Angew. Chem. Int. Ed., 2020, 59, 15665-15673.
     DOI: 10.1002/anie.202004239
   
   for ALPB and GBSA implicit solvation:
   * S. Ehlert, M. Stahn, S. Spicher, S. Grimme, J. Chem. Theory Comput.,
     2021, 17, 4250-4261. DOI: 10.1021/acs.jctc.1c00471
   
   for DFT-D4:
   * E. Caldeweyher, C. Bannwarth and S. Grimme, J. Chem. Phys., 2017,
     147, 034112. DOI: 10.1063/1.4993215
   * E. Caldeweyher, S. Ehlert, A. Hansen, H. Neugebauer, S. Spicher,
     C. Bannwarth and S. Grimme, J. Chem. Phys., 2019, 150, 154122.
     DOI: 10.1063/1.5090222
   * E. Caldeweyher, J.-M. Mewes, S. Ehlert and S. Grimme, Phys. Chem. Chem. Phys.
     2020, 22, 8499-8512. DOI: 10.1039/D0CP00502A
   
   for sTDA-xTB:
   * S. Grimme and C. Bannwarth, J. Chem. Phys., 2016, 145, 054103.
     DOI: 10.1063/1.4959605
   
   in the mass-spec context:
   * V. Asgeirsson, C. Bauer and S. Grimme, Chem. Sci., 2017, 8, 4879.
     DOI: 10.1039/c7sc00601b
   * J. Koopman and S. Grimme, ACS Omega 2019, 4, 12, 15120-15133.
     DOI: 10.1021/acsomega.9b02011
   
   for metadynamics refer to:
   * S. Grimme, J. Chem. Theory Comput., 2019, 155, 2847-2862
     DOI: 10.1021/acs.jctc.9b00143
   
   for SPH calculations refer to:
   * S. Spicher and S. Grimme, J. Chem. Theory Comput., 2021, 17, 1701-1714
     DOI: 10.1021/acs.jctc.0c01306
   
   with help from (in alphabetical order)
   P. Atkinson, C. Bannwarth, F. Bohle, G. Brandenburg, E. Caldeweyher
   M. Checinski, S. Dohm, S. Ehlert, S. Ehrlich, I. Gerasimov, C. Hölzer
   A. Katbashev, J. Koopman, C. Lavigne, S. Lehtola, F. März, M. Müller,
   F. Musil, H. Neugebauer, J. Pisarek, C. Plett, P. Pracht, F. Pultar,
   J. Seibert, P. Shushkov, S. Spicher, M. Stahn, M. Steiner, T. Strunk,
   J. Stückrath, T. Rose, and J. Unsleber
   
 * started run on 2024/01/10 at 18:28:05.041     

           -------------------------------------------------
          |                Calculation Setup                |
           -------------------------------------------------

          program call               : xtb struc.xyz --gfn2 --hess
          hostname                   : swaroop
          coordinate file            : struc.xyz
          omp threads                :                     1

   ID    Z sym.   atoms
    1    8 O      1, 23, 31, 39, 47
    2    6 C      2, 5, 9, 13, 17, 22, 30, 38, 46
    3    1 H      3, 4, 6, 7, 10-12, 14-16, 18-21, 25, 26, 28, 29, 33, 34,
                  36, 37, 41, 42, 44, 45, 49, 50, 52, 53
    4    7 N      8, 24, 27, 32, 35, 40, 43, 48, 51

molecular fragmentation (1/2 indicates fragments):
11111111111111111111122222222222222222222222222222222
# atoms in fragment 1/2:    21    32
 fragment masses (1/2) :      104.17      240.22
CMA distance (Bohr)    :   6.775
constraining FC (au)   :  0.0500

           -------------------------------------------------
          |                 G F N 2 - x T B                 |
           -------------------------------------------------

        Reference                      10.1021/acs.jctc.8b01176
      * Hamiltonian:
        H0-scaling (s, p, d)           1.850000    2.230000    2.230000
        zeta-weighting                 0.500000
      * Dispersion:
        s8                             2.700000
        a1                             0.520000
        a2                             5.000000
        s9                             5.000000
      * Repulsion:
        kExp                           1.500000    1.000000
        rExp                           1.000000
      * Coulomb:
        alpha                          2.000000
        third order                    shell-resolved
        anisotropic                    true
        a3                             3.000000
        a5                             4.000000
        cn-shift                       1.200000
        cn-exp                         4.000000
        max-rad                        5.000000


          ...................................................
          :                      SETUP                      :
          :.................................................:
          :  # basis functions                 122          :
          :  # atomic orbitals                 122          :
          :  # shells                           76          :
          :  # electrons                       140          :
          :  max. iterations                   250          :
          :  Hamiltonian                  GFN2-xTB          :
          :  restarted?                      false          :
          :  GBSA solvation                  false          :
          :  PC potential                    false          :
          :  electronic temp.          300.0000000     K    :
          :  accuracy                    1.0000000          :
          :  -> integral cutoff          0.2500000E+02      :
          :  -> integral neglect         0.1000000E-07      :
          :  -> SCF convergence          0.1000000E-05 Eh   :
          :  -> wf. convergence          0.1000000E-03 e    :
          :  Broyden damping             0.4000000          :
          ...................................................

 iter      E             dE          RMSdq      gap      omega  full diag
   1    -81.5554356 -0.815554E+02  0.433E+00    4.96       0.0  T
   2    -81.8361997 -0.280764E+00  0.236E+00    5.98       1.0  T
   3    -81.8417270 -0.552732E-02  0.114E+00    5.78       1.0  T
   4    -81.8430594 -0.133243E-02  0.243E-01    5.92       1.0  T
   5    -81.8439961 -0.936664E-03  0.924E-02    5.86       1.0  T
   6    -81.8440202 -0.241289E-04  0.259E-02    5.87       1.0  T
   7    -81.8440244 -0.415542E-05  0.756E-03    5.87       1.8  T
   8    -81.8440247 -0.279209E-06  0.305E-03    5.87       4.5  T
   9    -81.8440247 -0.443151E-07  0.114E-03    5.87      12.0  T
  10    -81.8440247 -0.704638E-08  0.223E-04    5.87      61.6  T
  11    -81.8440247 -0.531116E-09  0.970E-05    5.87     141.6  T

   *** convergence criteria satisfied after 11 iterations ***

         #    Occupation            Energy/Eh            Energy/eV
      -------------------------------------------------------------
         1        2.0000           -0.8098528             -22.0372
       ...           ...                  ...                  ...
        64        2.0000           -0.5069259             -13.7942
        65        2.0000           -0.5050812             -13.7440
        66        2.0000           -0.5028312             -13.6827
        67        2.0000           -0.5015310             -13.6474
        68        2.0000           -0.4990647             -13.5802
        69        2.0000           -0.4983244             -13.5601
        70        2.0000           -0.4963440             -13.5062 (HOMO)
        71                         -0.2806463              -7.6368 (LUMO)
        72                         -0.2780031              -7.5649
        73                         -0.2745191              -7.4700
        74                         -0.2727374              -7.4216
        75                         -0.1637303              -4.4553
       ...                                ...                  ...
       122                          0.5453860              14.8407
      -------------------------------------------------------------
                  HL-Gap            0.2156977 Eh            5.8694 eV
             Fermi-level           -0.3884952 Eh          -10.5715 eV

 SCC (total)                   0 d,  0 h,  0 min,  0.102 sec
 SCC setup                      ...        0 min,  0.000 sec (  0.297%)
 Dispersion                     ...        0 min,  0.001 sec (  0.567%)
 classical contributions        ...        0 min,  0.000 sec (  0.177%)
 integral evaluation            ...        0 min,  0.009 sec (  8.987%)
 iterations                     ...        0 min,  0.063 sec ( 61.654%)
 molecular gradient             ...        0 min,  0.029 sec ( 28.054%)
 printout                       ...        0 min,  0.000 sec (  0.252%)

         :::::::::::::::::::::::::::::::::::::::::::::::::::::
         ::                     SUMMARY                     ::
         :::::::::::::::::::::::::::::::::::::::::::::::::::::
         :: total energy             -80.934233217396 Eh    ::
         :: gradient norm              0.000063349882 Eh/a0 ::
         :: HOMO-LUMO gap              5.869432437652 eV    ::
         ::.................................................::
         :: SCC energy               -81.844024709343 Eh    ::
         :: -> isotropic ES            0.297959710254 Eh    ::
         :: -> anisotropic ES         -0.028525940631 Eh    ::
         :: -> anisotropic XC          0.020943497993 Eh    ::
         :: -> dispersion             -0.048548040217 Eh    ::
         :: repulsion energy           0.907503428274 Eh    ::
         :: add. restraining           0.000000000000 Eh    ::
         :: total charge               1.000000000000 e     ::
         :::::::::::::::::::::::::::::::::::::::::::::::::::::

           ------------------------------------------------- 
          |                Numerical Hessian                |
           ------------------------------------------------- 
step length          :   0.00500
SCC accuracy         :   0.30000
Hessian scale factor :   1.00000
frozen atoms in %    :   0.00000    0
RMS gradient         :   0.00006
estimated CPU  time      0.25 min
estimated wall time      0.25 min

writing file <hessian>.

 projected vibrational frequencies (cm⁻¹)
eigval :       -0.00    -0.00    -0.00     0.00     0.00     0.00
eigval :       16.37    27.53    29.89    36.40    42.28    47.31
eigval :       48.65    55.16    56.20    59.13    67.48    73.43
eigval :       90.02    95.11   100.66   107.89   112.77   121.32
eigval :      132.77   136.29   139.99   163.16   170.06   179.93
eigval :      192.58   216.68   252.05   276.79   282.53   301.54
eigval :      318.93   338.96   341.16   359.90   373.43   395.62
eigval :      412.33   423.13   428.34   440.30   461.05   467.45
eigval :      468.77   476.49   481.58   484.37   486.23   509.69
eigval :      511.48   534.08   546.93   551.89   553.76   561.50
eigval :      566.89   577.22   629.57   658.16   667.75   674.58
eigval :      687.17   703.04   720.66   738.09   762.53   775.53
eigval :      918.41   919.08   965.78   975.26   980.69   984.84
eigval :      990.50  1009.67  1012.05  1019.69  1020.17  1021.56
eigval :     1033.94  1036.12  1038.57  1085.58  1088.92  1089.94
eigval :     1094.82  1095.30  1106.55  1125.53  1156.25  1220.26
eigval :     1245.44  1271.45  1316.75  1322.45  1341.10  1348.47
eigval :     1353.55  1355.82  1374.42  1393.59  1406.51  1409.47
eigval :     1423.41  1435.96  1443.46  1446.04  1451.07  1454.62
eigval :     1457.23  1458.35  1462.94  1467.22  1469.37  1478.20
eigval :     1482.09  1491.45  1506.97  1514.77  1526.34  1642.86
eigval :     1676.56  1696.32  1726.91  2925.01  2987.05  3005.64
eigval :     3020.39  3032.76  3034.45  3040.73  3042.26  3045.16
eigval :     3048.28  3051.23  3057.61  3063.80  3153.87  3202.60
eigval :     3231.46  3312.28  3355.81  3438.88  3457.98  3489.06
eigval :     3497.44  3510.21  3527.25  3529.83  3530.36  3535.88
eigval :     3538.42  3551.83  3562.20
           -------------------------------------------------
          |                Property Printout                |
           -------------------------------------------------

    * Orbital Energies and Occupations

         #    Occupation            Energy/Eh            Energy/eV
      -------------------------------------------------------------
         1        2.0000           -0.8098526             -22.0372
       ...           ...                  ...                  ...
        58        2.0000           -0.5159535             -14.0398
        59        2.0000           -0.5149544             -14.0126
        60        2.0000           -0.5142306             -13.9929
        61        2.0000           -0.5110224             -13.9056
        62        2.0000           -0.5101514             -13.8819
        63        2.0000           -0.5088772             -13.8473
        64        2.0000           -0.5069264             -13.7942
        65        2.0000           -0.5050817             -13.7440
        66        2.0000           -0.5028317             -13.6827
        67        2.0000           -0.5015316             -13.6474
        68        2.0000           -0.4990652             -13.5803
        69        2.0000           -0.4983250             -13.5601
        70        2.0000           -0.4963448             -13.5062 (HOMO)
        71                         -0.2806463              -7.6368 (LUMO)
        72                         -0.2780038              -7.5649
        73                         -0.2745195              -7.4701
        74                         -0.2727379              -7.4216
        75                         -0.1637299              -4.4553
        76                         -0.1144212              -3.1136
        77                         -0.0983625              -2.6766
        78                         -0.0943075              -2.5662
        79                         -0.0882065              -2.4002
        80                         -0.0807701              -2.1979
        81                         -0.0771563              -2.0995
       ...                                ...                  ...
       122                          0.5453855              14.8407
      -------------------------------------------------------------
                  HL-Gap            0.2156985 Eh            5.8695 eV
             Fermi-level           -0.3884955 Eh          -10.5715 eV

     #   Z          covCN         q      C6AA      α(0)
     1   8 O        1.655    -0.449    21.825     6.306
     2   6 C        3.673     0.065    19.713     6.363
     3   1 H        0.924     0.058     2.220     2.330
     4   1 H        0.924     0.062     2.178     2.308
     5   6 C        3.772    -0.076    21.986     6.682
     6   1 H        0.925     0.106     1.735     2.060
     7   1 H        0.924     0.122     1.598     1.977
     8   7 N        3.623     0.155    18.628     6.410
     9   6 C        3.720    -0.110    22.722     6.808
    10   1 H        0.924     0.127     1.557     1.951
    11   1 H        0.925     0.080     1.977     2.199
    12   1 H        0.925     0.106     1.727     2.055
    13   6 C        3.737    -0.113    22.740     6.805
    14   1 H        0.925     0.122     1.599     1.977
    15   1 H        0.925     0.106     1.729     2.056
    16   1 H        0.925     0.088     1.898     2.155
    17   6 C        3.722    -0.101    22.540     6.780
    18   1 H        0.925     0.090     1.880     2.144
    19   1 H        0.925     0.089     1.893     2.152
    20   1 H        0.925     0.108     1.715     2.048
    21   1 H        0.804     0.309     0.695     1.309
    22   6 C        2.675     0.343    21.172     7.529
    23   8 O        0.860    -0.519    24.199     6.596
    24   7 N        2.644    -0.300    27.738     7.822
    25   1 H        0.860     0.194     1.138     1.671
    26   1 H        0.860     0.230     0.964     1.538
    27   7 N        2.643    -0.324    28.333     7.905
    28   1 H        0.860     0.186     1.180     1.702
    29   1 H        0.860     0.199     1.109     1.650
    30   6 C        2.675     0.341    21.211     7.536
    31   8 O        0.860    -0.526    24.359     6.617
    32   7 N        2.644    -0.294    27.584     7.800
    33   1 H        0.860     0.202     1.094     1.638
    34   1 H        0.860     0.184     1.190     1.709
    35   7 N        2.643    -0.312    28.023     7.862
    36   1 H        0.861     0.178     1.224     1.733
    37   1 H        0.859     0.243     0.910     1.494
    38   6 C        2.675     0.338    21.252     7.544
    39   8 O        0.860    -0.542    24.732     6.668
    40   7 N        2.644    -0.304    27.831     7.835
    41   1 H        0.860     0.244     0.905     1.491
    42   1 H        0.861     0.179     1.221     1.731
    43   7 N        2.644    -0.308    27.919     7.847
    44   1 H        0.861     0.180     1.217     1.728
    45   1 H        0.860     0.230     0.964     1.538
    46   6 C        2.675     0.340    21.222     7.538
    47   8 O        0.861    -0.541    24.712     6.665
    48   7 N        2.644    -0.288    27.440     7.780
    49   1 H        0.860     0.202     1.094     1.638
    50   1 H        0.861     0.186     1.178     1.700
    51   7 N        2.644    -0.309    27.945     7.851
    52   1 H        0.861     0.180     1.211     1.724
    53   1 H        0.860     0.239     0.925     1.507

 Mol. C6AA /au·bohr⁶  :      21777.178956
 Mol. C8AA /au·bohr⁸  :     454239.134478
 Mol. α(0) /au        :        220.464791


Wiberg/Mayer (AO) data.
largest (>0.10) Wiberg bond orders for each atom

 ---------------------------------------------------------------------------
     #   Z sym  total        # sym  WBO       # sym  WBO       # sym  WBO
 ---------------------------------------------------------------------------
     1   8 O    1.962 --     2 C    1.012    21 H    0.872
     2   6 C    3.960 --     1 O    1.012     5 C    0.998     3 H    0.964
                             4 H    0.959
     3   1 H    0.997 --     2 C    0.964
     4   1 H    0.996 --     2 C    0.959
     5   6 C    3.920 --     2 C    0.998     6 H    0.953     7 H    0.938
                             8 N    0.927
     6   1 H    0.989 --     5 C    0.953
     7   1 H    0.985 --     5 C    0.938
     8   7 N    3.821 --    17 C    0.964    13 C    0.956     9 C    0.955
                             5 C    0.927
     9   6 C    3.918 --    11 H    0.979    12 H    0.971    10 H    0.958
                             8 N    0.955
    10   1 H    0.984 --     9 C    0.958
    11   1 H    0.994 --     9 C    0.979
    12   1 H    0.989 --     9 C    0.971
    13   6 C    3.922 --    16 H    0.977    15 H    0.973    14 H    0.966
                             8 N    0.956
    14   1 H    0.985 --    13 C    0.966
    15   1 H    0.989 --    13 C    0.973
    16   1 H    0.992 --    13 C    0.977
    17   6 C    3.936 --    19 H    0.977    18 H    0.974    20 H    0.970
                             8 N    0.964
    18   1 H    0.992 --    17 C    0.974
    19   1 H    0.992 --    17 C    0.977
    20   1 H    0.988 --    17 C    0.970
    21   1 H    0.905 --     1 O    0.872
    22   6 C    3.959 --    23 O    1.549    24 N    1.251    27 N    1.146
    23   8 O    1.906 --    22 C    1.549    24 N    0.156    27 N    0.127
    24   7 N    3.342 --    22 C    1.251    25 H    0.943    26 H    0.895
                            23 O    0.156
    25   1 H    0.962 --    24 N    0.943
    26   1 H    0.947 --    24 N    0.895
    27   7 N    3.258 --    22 C    1.146    28 H    0.946    29 H    0.938
                            23 O    0.127
    28   1 H    0.965 --    27 N    0.946
    29   1 H    0.960 --    27 N    0.938
    30   6 C    3.960 --    31 O    1.489    35 N    1.255    32 N    1.203
    31   8 O    1.915 --    30 C    1.489    35 N    0.144    32 N    0.128
    32   7 N    3.313 --    30 C    1.203    34 H    0.947    33 H    0.942
                            31 O    0.128
    33   1 H    0.959 --    32 N    0.942
    34   1 H    0.966 --    32 N    0.947
    35   7 N    3.339 --    30 C    1.255    36 H    0.949    37 H    0.865
                            31 O    0.144
    36   1 H    0.968 --    35 N    0.949
    37   1 H    0.941 --    35 N    0.865
    38   6 C    3.960 --    39 O    1.449    40 N    1.262    43 N    1.239
    39   8 O    1.912 --    38 C    1.449    40 N    0.134    43 N    0.130
    40   7 N    3.346 --    38 C    1.262    42 H    0.948    41 H    0.871
                            39 O    0.134
    41   1 H    0.940 --    40 N    0.871
    42   1 H    0.968 --    40 N    0.948
    43   7 N    3.333 --    38 C    1.239    44 H    0.948    45 H    0.889
                            39 O    0.130
    44   1 H    0.967 --    43 N    0.948
    45   1 H    0.947 --    43 N    0.889
    46   6 C    3.960 --    47 O    1.481    51 N    1.254    48 N    1.214
    47   8 O    1.884 --    46 C    1.481    51 N    0.144    48 N    0.131
    48   7 N    3.327 --    46 C    1.214    50 H    0.946    49 H    0.942
                            47 O    0.131
    49   1 H    0.959 --    48 N    0.942
    50   1 H    0.965 --    48 N    0.946
    51   7 N    3.342 --    46 C    1.254    52 H    0.948    53 H    0.874
                            47 O    0.144
    52   1 H    0.967 --    51 N    0.948
    53   1 H    0.943 --    51 N    0.874
 ---------------------------------------------------------------------------

Topologies differ in total number of bonds
Writing topology from bond orders to xtbtopo.mol

molecular dipole:
                 x           y           z       tot (Debye)
 q only:       -1.432      -0.859       1.068
   full:       -1.520      -0.041       0.741       4.300
molecular quadrupole (traceless):
                xx          xy          yy          xz          yz          zz
 q only:       14.286      16.962       6.003       0.802      -2.532     -20.290
  q+dip:       19.720      18.454       5.453       1.816      -1.059     -25.173
   full:       19.854      17.697       5.223       2.286      -1.216     -25.077

           -------------------------------------------------
          |               Frequency Printout                |
           -------------------------------------------------
 projected vibrational frequencies (cm⁻¹)
eigval :       -0.00    -0.00    -0.00     0.00     0.00     0.00
eigval :       16.37    27.53    29.89    36.40    42.28    47.31
eigval :       48.65    55.16    56.20    59.13    67.48    73.43
eigval :       90.02    95.11   100.66   107.89   112.77   121.32
eigval :      132.77   136.29   139.99   163.16   170.06   179.93
eigval :      192.58   216.68   252.05   276.79   282.53   301.54
eigval :      318.93   338.96   341.16   359.90   373.43   395.62
eigval :      412.33   423.13   428.34   440.30   461.05   467.45
eigval :      468.77   476.49   481.58   484.37   486.23   509.69
eigval :      511.48   534.08   546.93   551.89   553.76   561.50
eigval :      566.89   577.22   629.57   658.16   667.75   674.58
eigval :      687.17   703.04   720.66   738.09   762.53   775.53
eigval :      918.41   919.08   965.78   975.26   980.69   984.84
eigval :      990.50  1009.67  1012.05  1019.69  1020.17  1021.56
eigval :     1033.94  1036.12  1038.57  1085.58  1088.92  1089.94
eigval :     1094.82  1095.30  1106.55  1125.53  1156.25  1220.26
eigval :     1245.44  1271.45  1316.75  1322.45  1341.10  1348.47
eigval :     1353.55  1355.82  1374.42  1393.59  1406.51  1409.47
eigval :     1423.41  1435.96  1443.46  1446.04  1451.07  1454.62
eigval :     1457.23  1458.35  1462.94  1467.22  1469.37  1478.20
eigval :     1482.09  1491.45  1506.97  1514.77  1526.34  1642.86
eigval :     1676.56  1696.32  1726.91  2925.01  2987.05  3005.64
eigval :     3020.39  3032.76  3034.45  3040.73  3042.26  3045.16
eigval :     3048.28  3051.23  3057.61  3063.80  3153.87  3202.60
eigval :     3231.46  3312.28  3355.81  3438.88  3457.98  3489.06
eigval :     3497.44  3510.21  3527.25  3529.83  3530.36  3535.88
eigval :     3538.42  3551.83  3562.20
 reduced masses (amu)
   1: 12.61   2: 12.22   3: 12.49   4: 12.68   5: 12.56   6: 12.52   7: 12.16   8: 11.98
   9: 11.93  10: 12.16  11: 12.11  12: 12.33  13: 12.70  14: 11.91  15: 12.77  16: 12.60
  17: 11.58  18: 12.33  19: 11.45  20: 11.91  21: 12.69  22: 13.28  23: 12.78  24: 13.82
  25: 13.43  26: 13.08  27: 13.27  28: 12.58  29: 13.08  30: 10.35  31: 13.05  32: 12.80
  33:  3.74  34:  6.67  35:  2.33  36:  3.98  37:  6.71  38:  2.24  39:  2.29  40:  2.07
  41:  6.19  42:  3.87  43:  3.20  44:  7.41  45:  4.96  46:  3.10  47:  8.51  48:  8.41
  49:  8.43  50:  7.27  51:  6.64  52:  2.56  53:  4.72  54:  8.87  55:  4.60  56:  5.06
  57:  8.53  58:  7.78  59: 11.03  60:  7.41  61:  6.41  62: 11.82  63:  5.03  64:  5.90
  65: 10.00  66: 11.44  67:  7.99  68:  9.81  69:  2.63  70:  1.80  71:  8.91  72:  2.92
  73:  7.94  74:  7.30  75:  4.96  76:  4.74  77:  6.52  78:  5.04  79:  7.26  80:  7.10
  81:  7.33  82:  6.54  83:  9.34  84:  8.74  85:  8.88  86:  8.72  87:  3.58  88:  8.64
  89:  8.29  90:  7.00  91:  7.79  92:  4.27  93:  7.53  94:  7.97  95:  2.81  96:  5.53
  97:  7.40  98:  8.30  99:  6.31 100:  3.07 101:  5.00 102:  4.84 103:  5.32 104:  4.42
 105:  4.88 106:  4.54 107:  2.57 108:  2.54 109:  2.16 110:  2.43 111:  1.72 112:  3.21
 113:  3.17 114:  1.79 115:  1.88 116:  2.57 117:  2.29 118:  3.19 119:  1.65 120:  1.72
 121:  1.69 122:  6.54 123:  8.91 124:  9.28 125:  9.52 126: 12.17 127: 12.60 128: 12.65
 129: 12.78 130:  1.77 131:  1.67 132:  1.79 133:  1.75 134:  1.72 135:  1.74 136:  1.86
 137:  1.43 138:  1.82 139:  1.76 140:  1.83 141:  1.66 142:  1.74 143:  1.81 144:  1.81
 145:  1.77 146:  1.75 147:  1.71 148:  1.83 149:  1.55 150:  1.45 151:  1.45 152:  2.14
 153:  1.94 154:  1.91 155:  1.90 156:  1.91 157:  1.92 158:  2.17 159:  2.18
 IR intensities (km·mol⁻¹)
   1:  2.13   2:  2.42   3:  0.10   4:  1.33   5:  2.15   6:  1.03   7:  2.37   8:  0.27
   9:  1.32  10:  0.71  11:  1.64  12:  1.90  13:  3.02  14:  3.62  15:  0.02  16:  1.12
  17:  1.94  18:  1.97  19:  7.88  20:  1.78  21:  1.87  22:  8.68  23:  4.45  24: 15.25
  25: 15.14  26: 27.30  27:  6.20  28: 17.51  29: 14.20  30: 11.33  31:  6.68  32:108.50
  33:  1.96  34:  9.46  35:110.50  36:  2.26  37:  1.18  38: 51.67  39:  3.76  40: 43.69
  41: 13.99  42: 26.53  43:164.98  44: 14.80  45: 28.49  46:695.07  47:  6.74  48: 17.61
  49: 20.92  50: 59.38  51:  7.54  52: 26.13  53: 49.56  54: 52.62  55: 58.26  56:124.58
  57: 16.21  58: 21.34  59: 32.96  60: 63.62  61:154.48  62: 67.80  63:139.76  64: 75.19
  65:  2.18  66: 58.42  67:  2.17  68:239.58  69: 29.97  70: 22.34  71: 37.32  72:600.78
  73:  8.59  74: 10.84  75:  6.21  76:  5.45  77:  7.37  78:  1.18  79: 16.23  80: 35.05
  81:  6.31  82: 14.07  83:  2.35  84:  3.95  85:  9.46  86:  5.74  87:  2.24  88:  0.79
  89:  0.77  90: 19.66  91:  0.94  92: 20.47  93:  8.52  94: 27.28  95: 10.35  96:  2.75
  97:  1.24  98:  3.17  99:  1.11 100: 14.28 101: 13.08 102:139.02 103:173.49 104:116.78
 105:  5.60 106: 12.54 107: 22.14 108: 12.50 109: 10.83 110: 16.48 111:  2.23 112: 14.34
 113:  4.65 114:  5.81 115:  3.18 116:  4.03 117:  7.66 118: 15.12 119: 17.43 120: 21.94
 121: 58.13 122:302.69 123:952.95 124:101.67 125:426.90 126:162.65 127:285.95 128:******
 129:703.97 130: 17.58 131: 23.16 132: 78.26 133: 31.70 134:  1.13 135:  7.20 136:  8.38
 137: 12.35 138:  0.78 139: 10.65 140:  6.71 141:  2.45 142:  0.30 143:519.77 144:******
 145:919.66 146:613.63 147:424.91 148:110.56 149: 28.39 150: 20.13 151: 23.45 152:  9.82
 153: 16.15 154: 21.48 155:  5.36 156: 17.77 157: 28.99 158: 16.31 159: 16.74
 Raman intensities (amu)
Molecule has no symmetry elements
It seems to be the C1 point group
   1:  0.00   2:  0.00   3:  0.00   4:  0.00   5:  0.00   6:  0.00   7:  0.00   8:  0.00
   9:  0.00  10:  0.00  11:  0.00  12:  0.00  13:  0.00  14:  0.00  15:  0.00  16:  0.00
  17:  0.00  18:  0.00  19:  0.00  20:  0.00  21:  0.00  22:  0.00  23:  0.00  24:  0.00
  25:  0.00  26:  0.00  27:  0.00  28:  0.00  29:  0.00  30:  0.00  31:  0.00  32:  0.00
  33:  0.00  34:  0.00  35:  0.00  36:  0.00  37:  0.00  38:  0.00  39:  0.00  40:  0.00
  41:  0.00  42:  0.00  43:  0.00  44:  0.00  45:  0.00  46:  0.00  47:  0.00  48:  0.00
  49:  0.00  50:  0.00  51:  0.00  52:  0.00  53:  0.00  54:  0.00  55:  0.00  56:  0.00
  57:  0.00  58:  0.00  59:  0.00  60:  0.00  61:  0.00  62:  0.00  63:  0.00  64:  0.00
  65:  0.00  66:  0.00  67:  0.00  68:  0.00  69:  0.00  70:  0.00  71:  0.00  72:  0.00
  73:  0.00  74:  0.00  75:  0.00  76:  0.00  77:  0.00  78:  0.00  79:  0.00  80:  0.00
  81:  0.00  82:  0.00  83:  0.00  84:  0.00  85:  0.00  86:  0.00  87:  0.00  88:  0.00
  89:  0.00  90:  0.00  91:  0.00  92:  0.00  93:  0.00  94:  0.00  95:  0.00  96:  0.00
  97:  0.00  98:  0.00  99:  0.00 100:  0.00 101:  0.00 102:  0.00 103:  0.00 104:  0.00
 105:  0.00 106:  0.00 107:  0.00 108:  0.00 109:  0.00 110:  0.00 111:  0.00 112:  0.00
 113:  0.00 114:  0.00 115:  0.00 116:  0.00 117:  0.00 118:  0.00 119:  0.00 120:  0.00
 121:  0.00 122:  0.00 123:  0.00 124:  0.00 125:  0.00 126:  0.00 127:  0.00 128:  0.00
 129:  0.00 130:  0.00 131:  0.00 132:  0.00 133:  0.00 134:  0.00 135:  0.00 136:  0.00
 137:  0.00 138:  0.00 139:  0.00 140:  0.00 141:  0.00 142:  0.00 143:  0.00 144:  0.00
 145:  0.00 146:  0.00 147:  0.00 148:  0.00 149:  0.00 150:  0.00 151:  0.00 152:  0.00
 153:  0.00 154:  0.00 155:  0.00 156:  0.00 157:  0.00 158:  0.00 159:  0.00
 output can be read by thermo (or use thermo option).
 writing <g98.out> molden fake output.
 recommended (thermochemical) frequency scaling factor: 1.0
           -------------------------------------------------
          |             Thermodynamic Functions             |
           -------------------------------------------------

c1  symmetry found (for desy threshold:  0.10E+00) used in thermo

          ...................................................
          :                      SETUP                      :
          :.................................................:
          :  # frequencies                         153      :
          :  # imaginary freq.                       0      :
          :  linear?                             false      :
          :  only rotor calc.                    false      :
          :  symmetry                               c1      :
          :  rotational number                       1      :
          :  scaling factor                  1.0000000      :
          :  rotor cutoff                   50.0000000 cm⁻¹ :
          :  imag. cutoff                  -20.0000000 cm⁻¹ :
          :.................................................:

    mode    ω/cm⁻¹     T·S(HO)/kcal·mol⁻¹    T·S(FR)/kcal·mol⁻¹   T·S(vib)
   ------------------------------------------------------------------------
       1     16.37    -2.09644 (  1.14%)    -1.38715 ( 98.86%)    -1.39521
       2     27.53    -1.78896 (  8.41%)    -1.23331 ( 91.59%)    -1.28006
       3     29.89    -1.74030 ( 11.32%)    -1.20895 ( 88.68%)    -1.26909
       4     36.40    -1.62364 ( 21.94%)    -1.15051 ( 78.06%)    -1.25430
       5     42.28    -1.53519 ( 33.84%)    -1.10616 ( 66.16%)    -1.25135
       6     47.31    -1.46887 ( 44.50%)    -1.07287 ( 55.50%)    -1.24909
       7     48.65    -1.45250 ( 47.26%)    -1.06465 ( 52.74%)    -1.24793
       8     55.16    -1.37838 ( 59.70%)    -1.02740 ( 40.30%)    -1.23695
       9     56.20    -1.36747 ( 61.47%)    -1.02191 ( 38.53%)    -1.23434
      10     59.13    -1.33745 ( 66.18%)    -1.00681 ( 33.82%)    -1.22562
      11     67.48    -1.25981 ( 76.84%)    -0.96769 ( 23.16%)    -1.19216
      12     73.43    -1.21027 ( 82.31%)    -0.94268 ( 17.69%)    -1.16292
      13     90.02    -1.09109 ( 91.31%)    -0.88232 (  8.69%)    -1.07295
      14     95.11    -1.05907 ( 92.90%)    -0.86605 (  7.10%)    -1.04538
      15    100.66    -1.02607 ( 94.26%)    -0.84924 (  5.74%)    -1.01592
      16    107.89    -0.98586 ( 95.59%)    -0.82871 (  4.41%)    -0.97893
      17    112.77    -0.96024 ( 96.28%)    -0.81559 (  3.72%)    -0.95486
      18    121.32    -0.91806 ( 97.20%)    -0.79394 (  2.80%)    -0.91458
      19    132.77    -0.86627 ( 98.03%)    -0.76722 (  1.97%)    -0.86432
      20    136.29    -0.85129 ( 98.22%)    -0.75947 (  1.78%)    -0.84966
      21    139.99    -0.83602 ( 98.40%)    -0.75154 (  1.60%)    -0.83466
      22    163.16    -0.74920 ( 99.13%)    -0.70617 (  0.87%)    -0.74882
      23    170.06    -0.72594 ( 99.26%)    -0.69390 (  0.74%)    -0.72570
      24    179.93    -0.69444 ( 99.41%)    -0.67719 (  0.59%)    -0.69434
      25    192.58    -0.65678 ( 99.55%)    -0.65706 (  0.45%)    -0.65679
      26    216.68    -0.59231 ( 99.72%)    -0.62213 (  0.28%)    -0.59240
      27    252.05    -0.51169 ( 99.85%)    -0.57734 (  0.15%)    -0.51179
      28    276.79    -0.46316 ( 99.89%)    -0.54961 (  0.11%)    -0.46325
      29    282.53    -0.45269 ( 99.90%)    -0.54353 (  0.10%)    -0.45278
   ------------------------------------------------------------------------

   temp. (K)  partition function   enthalpy   heat capacity  entropy
                                   cal/mol     cal/K/mol   cal/K/mol   J/K/mol
 298.15  VIB  0.261E+16            18852.541    104.262    122.631
         ROT  0.103E+08              888.752      2.981     35.073
         INT  0.269E+23            19741.294    107.243    157.704
         TR   0.618E+28             1481.254      4.968     43.384
         TOT                       21222.5474   112.2110   201.0886   841.3549

       T/K    H(0)-H(T)+PV         H(T)/Eh          T*S/Eh         G(T)/Eh
   ------------------------------------------------------------------------
    298.15    0.338203E-01    0.474283E+00    0.955437E-01    0.378740E+00
   ------------------------------------------------------------------------

         :::::::::::::::::::::::::::::::::::::::::::::::::::::
         ::                  THERMODYNAMIC                  ::
         :::::::::::::::::::::::::::::::::::::::::::::::::::::
         :: total free energy         -80.555493583123 Eh   ::
         ::.................................................::
         :: total energy              -80.934233217437 Eh   ::
         :: zero point energy           0.440463057172 Eh   ::
         :: G(RRHO) w/o ZPVE           -0.061723422858 Eh   ::
         :: G(RRHO) contrib.            0.378739634314 Eh   ::
         :::::::::::::::::::::::::::::::::::::::::::::::::::::

           -------------------------------------------------
          | TOTAL ENERGY              -80.934233217437 Eh   |
          | TOTAL ENTHALPY            -80.459949878173 Eh   |
          | TOTAL FREE ENERGY         -80.555493583123 Eh   |
          | GRADIENT NORM               0.000063779382 Eh/α |
          | HOMO-LUMO GAP               5.869455368127 eV   |
           -------------------------------------------------

------------------------------------------------------------------------
 * finished run on 2024/01/10 at 18:28:19.996     
------------------------------------------------------------------------
 total:
 * wall-time:     0 d,  0 h,  0 min, 14.955 sec
 *  cpu-time:     0 d,  0 h,  0 min, 14.886 sec
 * ratio c/w:     0.995 speedup
 SCF:
 * wall-time:     0 d,  0 h,  0 min,  0.102 sec
 *  cpu-time:     0 d,  0 h,  0 min,  0.061 sec
 * ratio c/w:     0.596 speedup
 analytical hessian:
 * wall-time:     0 d,  0 h,  0 min, 14.825 sec
 *  cpu-time:     0 d,  0 h,  0 min, 14.798 sec
 * ratio c/w:     0.998 speedup

