      -----------------------------------------------------------      
     |                   =====================                   |     
     |                           x T B                           |     
     |                   =====================                   |     
     |                         S. Grimme                         |     
     |          Mulliken Center for Theoretical Chemistry        |     
     |                    University of Bonn                     |     
      -----------------------------------------------------------      

   * xtb version 6.6.1 (unknown-commit) compiled by '@Linux' on 12/27/2023

   xtb is free software: you can redistribute it and/or modify it under
   the terms of the GNU Lesser General Public License as published by
   the Free Software Foundation, either version 3 of the License, or
   (at your option) any later version.
   
   xtb is distributed in the hope that it will be useful,
   but WITHOUT ANY WARRANTY; without even the implied warranty of
   MERCHANTABILITY or FITNESS FOR A PARTICULAR PURPOSE.  See the
   GNU Lesser General Public License for more details.
   
   Cite this work as:
   * C. Bannwarth, E. Caldeweyher, S. Ehlert, A. Hansen, P. Pracht,
     J. Seibert, S. Spicher, S. Grimme, WIREs Comput. Mol. Sci., 2020, 11,
     e01493. DOI: 10.1002/wcms.1493
   
   for GFN2-xTB:
   * C. Bannwarth, S. Ehlert and S. Grimme., J. Chem. Theory Comput., 2019,
     15, 1652-1671. DOI: 10.1021/acs.jctc.8b01176
   for GFN1-xTB:
   * S. Grimme, C. Bannwarth, P. Shushkov, J. Chem. Theory Comput., 2017,
     13, 1989-2009. DOI: 10.1021/acs.jctc.7b00118
   for GFN0-xTB:
   * P. Pracht, E. Caldeweyher, S. Ehlert, S. Grimme, ChemRxiv, 2019, preprint.
     DOI: 10.26434/chemrxiv.8326202.v1
   for GFN-FF:
   * S. Spicher and S. Grimme, Angew. Chem. Int. Ed., 2020, 59, 15665-15673.
     DOI: 10.1002/anie.202004239
   
   for ALPB and GBSA implicit solvation:
   * S. Ehlert, M. Stahn, S. Spicher, S. Grimme, J. Chem. Theory Comput.,
     2021, 17, 4250-4261. DOI: 10.1021/acs.jctc.1c00471
   
   for DFT-D4:
   * E. Caldeweyher, C. Bannwarth and S. Grimme, J. Chem. Phys., 2017,
     147, 034112. DOI: 10.1063/1.4993215
   * E. Caldeweyher, S. Ehlert, A. Hansen, H. Neugebauer, S. Spicher,
     C. Bannwarth and S. Grimme, J. Chem. Phys., 2019, 150, 154122.
     DOI: 10.1063/1.5090222
   * E. Caldeweyher, J.-M. Mewes, S. Ehlert and S. Grimme, Phys. Chem. Chem. Phys.
     2020, 22, 8499-8512. DOI: 10.1039/D0CP00502A
   
   for sTDA-xTB:
   * S. Grimme and C. Bannwarth, J. Chem. Phys., 2016, 145, 054103.
     DOI: 10.1063/1.4959605
   
   in the mass-spec context:
   * V. Asgeirsson, C. Bauer and S. Grimme, Chem. Sci., 2017, 8, 4879.
     DOI: 10.1039/c7sc00601b
   * J. Koopman and S. Grimme, ACS Omega 2019, 4, 12, 15120-15133.
     DOI: 10.1021/acsomega.9b02011
   
   for metadynamics refer to:
   * S. Grimme, J. Chem. Theory Comput., 2019, 155, 2847-2862
     DOI: 10.1021/acs.jctc.9b00143
   
   for SPH calculations refer to:
   * S. Spicher and S. Grimme, J. Chem. Theory Comput., 2021, 17, 1701-1714
     DOI: 10.1021/acs.jctc.0c01306
   
   with help from (in alphabetical order)
   P. Atkinson, C. Bannwarth, F. Bohle, G. Brandenburg, E. Caldeweyher
   M. Checinski, S. Dohm, S. Ehlert, S. Ehrlich, I. Gerasimov, C. Hölzer
   A. Katbashev, J. Koopman, C. Lavigne, S. Lehtola, F. März, M. Müller,
   F. Musil, H. Neugebauer, J. Pisarek, C. Plett, P. Pracht, F. Pultar,
   J. Seibert, P. Shushkov, S. Spicher, M. Stahn, M. Steiner, T. Strunk,
   J. Stückrath, T. Rose, and J. Unsleber
   
 * started run on 2024/01/10 at 15:42:01.212     

           -------------------------------------------------
          |                Calculation Setup                |
           -------------------------------------------------

          program call               : xtb struc.xyz --gfn2 --hess
          hostname                   : swaroop
          coordinate file            : struc.xyz
          omp threads                :                     1

   ID    Z sym.   atoms
    1    8 O      1, 23, 31, 39, 47
    2    6 C      2, 5, 9, 13, 17, 22, 30, 38, 46
    3    1 H      3, 4, 6, 7, 10-12, 14-16, 18-21, 25, 26, 28, 29, 33, 34,
                  36, 37, 41, 42, 44, 45, 49, 50, 52, 53
    4    7 N      8, 24, 27, 32, 35, 40, 43, 48, 51

molecular fragmentation (1/2 indicates fragments):
11111111111111111111122222222222222222222222222222222
# atoms in fragment 1/2:    21    32
 fragment masses (1/2) :      104.17      240.22
CMA distance (Bohr)    :   2.234
constraining FC (au)   :  0.0500

           -------------------------------------------------
          |                 G F N 2 - x T B                 |
           -------------------------------------------------

        Reference                      10.1021/acs.jctc.8b01176
      * Hamiltonian:
        H0-scaling (s, p, d)           1.850000    2.230000    2.230000
        zeta-weighting                 0.500000
      * Dispersion:
        s8                             2.700000
        a1                             0.520000
        a2                             5.000000
        s9                             5.000000
      * Repulsion:
        kExp                           1.500000    1.000000
        rExp                           1.000000
      * Coulomb:
        alpha                          2.000000
        third order                    shell-resolved
        anisotropic                    true
        a3                             3.000000
        a5                             4.000000
        cn-shift                       1.200000
        cn-exp                         4.000000
        max-rad                        5.000000


          ...................................................
          :                      SETUP                      :
          :.................................................:
          :  # basis functions                 122          :
          :  # atomic orbitals                 122          :
          :  # shells                           76          :
          :  # electrons                       140          :
          :  max. iterations                   250          :
          :  Hamiltonian                  GFN2-xTB          :
          :  restarted?                      false          :
          :  GBSA solvation                  false          :
          :  PC potential                    false          :
          :  electronic temp.          300.0000000     K    :
          :  accuracy                    1.0000000          :
          :  -> integral cutoff          0.2500000E+02      :
          :  -> integral neglect         0.1000000E-07      :
          :  -> SCF convergence          0.1000000E-05 Eh   :
          :  -> wf. convergence          0.1000000E-03 e    :
          :  Broyden damping             0.4000000          :
          ...................................................

 iter      E             dE          RMSdq      gap      omega  full diag
   1    -81.5478622 -0.815479E+02  0.439E+00    5.19       0.0  T
   2    -81.8401725 -0.292310E+00  0.238E+00    5.92       1.0  T
   3    -81.8458009 -0.562841E-02  0.117E+00    5.57       1.0  T
   4    -81.8471304 -0.132950E-02  0.241E-01    5.61       1.0  T
   5    -81.8480342 -0.903858E-03  0.919E-02    5.52       1.0  T
   6    -81.8480591 -0.248756E-04  0.265E-02    5.55       1.0  T
   7    -81.8480638 -0.472708E-05  0.757E-03    5.54       1.8  T
   8    -81.8480641 -0.243164E-06  0.256E-03    5.54       5.4  T
   9    -81.8480641 -0.156065E-07  0.833E-04    5.54      16.5  T
  10    -81.8480641 -0.504795E-08  0.163E-04    5.54      84.1  T

   *** convergence criteria satisfied after 10 iterations ***

         #    Occupation            Energy/Eh            Energy/eV
      -------------------------------------------------------------
         1        2.0000           -0.7872753             -21.4229
       ...           ...                  ...                  ...
        64        2.0000           -0.4954744             -13.4825
        65        2.0000           -0.4952585             -13.4767
        66        2.0000           -0.4942211             -13.4484
        67        2.0000           -0.4897417             -13.3266
        68        2.0000           -0.4865233             -13.2390
        69        2.0000           -0.4815444             -13.1035
        70        2.0000           -0.4764659             -12.9653 (HOMO)
        71                         -0.2727910              -7.4230 (LUMO)
        72                         -0.2667283              -7.2580
        73                         -0.2660153              -7.2386
        74                         -0.2495764              -6.7913
        75                         -0.1394190              -3.7938
       ...                                ...                  ...
       122                          0.5633644              15.3299
      -------------------------------------------------------------
                  HL-Gap            0.2036749 Eh            5.5423 eV
             Fermi-level           -0.3746284 Eh          -10.1942 eV

 SCC (total)                   0 d,  0 h,  0 min,  0.105 sec
 SCC setup                      ...        0 min,  0.000 sec (  0.280%)
 Dispersion                     ...        0 min,  0.001 sec (  0.574%)
 classical contributions        ...        0 min,  0.000 sec (  0.172%)
 integral evaluation            ...        0 min,  0.009 sec (  8.145%)
 iterations                     ...        0 min,  0.068 sec ( 64.641%)
 molecular gradient             ...        0 min,  0.027 sec ( 25.919%)
 printout                       ...        0 min,  0.000 sec (  0.258%)

         :::::::::::::::::::::::::::::::::::::::::::::::::::::
         ::                     SUMMARY                     ::
         :::::::::::::::::::::::::::::::::::::::::::::::::::::
         :: total energy             -80.931979913926 Eh    ::
         :: gradient norm              0.000187816521 Eh/a0 ::
         :: HOMO-LUMO gap              5.542276782933 eV    ::
         ::.................................................::
         :: SCC energy               -81.848064088418 Eh    ::
         :: -> isotropic ES            0.291083926271 Eh    ::
         :: -> anisotropic ES         -0.028322521023 Eh    ::
         :: -> anisotropic XC          0.020526029309 Eh    ::
         :: -> dispersion             -0.042484794064 Eh    ::
         :: repulsion energy           0.914959089255 Eh    ::
         :: add. restraining           0.000000000000 Eh    ::
         :: total charge               1.000000000000 e     ::
         :::::::::::::::::::::::::::::::::::::::::::::::::::::

           ------------------------------------------------- 
          |                Numerical Hessian                |
           ------------------------------------------------- 
step length          :   0.00500
SCC accuracy         :   0.30000
Hessian scale factor :   1.00000
frozen atoms in %    :   0.00000    0
RMS gradient         :   0.00019
estimated CPU  time      0.24 min
estimated wall time      0.24 min

writing file <hessian>.

 projected vibrational frequencies (cm⁻¹)
eigval :       -0.00    -0.00     0.00     0.00     0.00     0.00
eigval :       -5.85    14.08    17.68    22.09    28.40    39.94
eigval :       42.75    43.86    48.39    54.59    58.19    70.19
eigval :       77.56    79.76    90.73    94.28   100.77   105.10
eigval :      124.48   127.81   135.59   139.59   162.15   170.29
eigval :      192.78   213.38   228.72   240.45   248.77   270.02
eigval :      277.22   292.27   322.58   337.14   340.22   363.55
eigval :      379.07   380.02   398.17   435.25   444.03   456.62
eigval :      459.53   462.73   470.98   473.22   477.18   477.84
eigval :      481.61   486.70   499.63   504.70   531.89   539.59
eigval :      542.34   547.18   553.64   617.54   654.34   673.21
eigval :      674.58   676.05   686.00   733.21   765.08   794.82
eigval :      914.63   930.38   948.24   962.71   963.19   965.78
eigval :      994.85   997.82  1007.25  1016.40  1018.27  1028.91
eigval :     1030.99  1040.04  1045.16  1081.87  1084.00  1087.60
eigval :     1089.86  1095.43  1116.98  1131.78  1186.22  1230.98
eigval :     1248.60  1278.59  1291.89  1323.57  1345.03  1350.80
eigval :     1354.79  1358.00  1370.92  1382.43  1402.63  1411.40
eigval :     1414.68  1437.25  1445.13  1446.53  1447.46  1451.27
eigval :     1457.08  1458.28  1461.80  1464.46  1474.07  1480.50
eigval :     1483.82  1495.90  1500.52  1511.86  1513.89  1659.68
eigval :     1689.96  1715.42  1728.41  2888.00  2983.37  2994.98
eigval :     3008.68  3034.11  3042.05  3042.16  3047.13  3048.42
eigval :     3050.62  3053.71  3056.85  3068.37  3147.21  3226.59
eigval :     3269.27  3368.65  3497.21  3498.58  3498.60  3500.46
eigval :     3502.63  3519.78  3539.11  3539.22  3562.63  3563.50
eigval :     3566.29  3567.07  3568.15
           -------------------------------------------------
          |                Property Printout                |
           -------------------------------------------------

    * Orbital Energies and Occupations

         #    Occupation            Energy/Eh            Energy/eV
      -------------------------------------------------------------
         1        2.0000           -0.7872754             -21.4229
       ...           ...                  ...                  ...
        58        2.0000           -0.5051489             -13.7458
        59        2.0000           -0.5041200             -13.7178
        60        2.0000           -0.5037359             -13.7074
        61        2.0000           -0.5024488             -13.6723
        62        2.0000           -0.5010178             -13.6334
        63        2.0000           -0.4978013             -13.5459
        64        2.0000           -0.4954762             -13.4826
        65        2.0000           -0.4952590             -13.4767
        66        2.0000           -0.4942217             -13.4485
        67        2.0000           -0.4897419             -13.3266
        68        2.0000           -0.4865247             -13.2390
        69        2.0000           -0.4815457             -13.1035
        70        2.0000           -0.4764673             -12.9653 (HOMO)
        71                         -0.2727918              -7.4230 (LUMO)
        72                         -0.2667309              -7.2581
        73                         -0.2660156              -7.2387
        74                         -0.2495782              -6.7914
        75                         -0.1394184              -3.7938
        76                         -0.0986559              -2.6846
        77                         -0.0953336              -2.5942
        78                         -0.0795414              -2.1644
        79                         -0.0760461              -2.0693
        80                         -0.0740081              -2.0139
        81                         -0.0620104              -1.6874
       ...                                ...                  ...
       122                          0.5633628              15.3299
      -------------------------------------------------------------
                  HL-Gap            0.2036755 Eh            5.5423 eV
             Fermi-level           -0.3746296 Eh          -10.1942 eV

     #   Z          covCN         q      C6AA      α(0)
     1   8 O        1.653    -0.473    22.323     6.378
     2   6 C        3.673     0.069    19.658     6.354
     3   1 H        0.924     0.058     2.228     2.334
     4   1 H        0.923     0.042     2.424     2.435
     5   6 C        3.771    -0.067    21.820     6.656
     6   1 H        0.924     0.125     1.574     1.962
     7   1 H        0.924     0.106     1.728     2.056
     8   7 N        3.624     0.159    18.563     6.399
     9   6 C        3.722    -0.109    22.694     6.803
    10   1 H        0.925     0.124     1.581     1.967
    11   1 H        0.925     0.075     2.028     2.227
    12   1 H        0.925     0.104     1.747     2.067
    13   6 C        3.738    -0.116    22.814     6.815
    14   1 H        0.925     0.124     1.580     1.966
    15   1 H        0.925     0.112     1.680     2.027
    16   1 H        0.925     0.080     1.982     2.202
    17   6 C        3.722    -0.118    22.884     6.832
    18   1 H        0.925     0.113     1.675     2.024
    19   1 H        0.925     0.118     1.627     1.994
    20   1 H        0.925     0.079     1.993     2.208
    21   1 H        0.803     0.330     0.637     1.254
    22   6 C        2.675     0.342    21.189     7.532
    23   8 O        0.861    -0.534    24.549     6.643
    24   7 N        2.645    -0.290    27.471     7.784
    25   1 H        0.860     0.201     1.103     1.645
    26   1 H        0.861     0.184     1.189     1.708
    27   7 N        2.644    -0.303    27.816     7.833
    28   1 H        0.861     0.180     1.212     1.724
    29   1 H        0.860     0.241     0.917     1.500
    30   6 C        2.675     0.346    21.127     7.521
    31   8 O        0.860    -0.519    24.199     6.595
    32   7 N        2.646    -0.290    27.477     7.785
    33   1 H        0.860     0.199     1.110     1.650
    34   1 H        0.861     0.186     1.181     1.702
    35   7 N        2.646    -0.290    27.491     7.787
    36   1 H        0.861     0.186     1.181     1.702
    37   1 H        0.860     0.199     1.113     1.653
    38   6 C        2.675     0.343    21.175     7.530
    39   8 O        0.860    -0.526    24.377     6.620
    40   7 N        2.644    -0.294    27.592     7.801
    41   1 H        0.860     0.197     1.120     1.658
    42   1 H        0.861     0.180     1.215     1.727
    43   7 N        2.644    -0.307    27.903     7.845
    44   1 H        0.861     0.175     1.241     1.745
    45   1 H        0.860     0.231     0.959     1.534
    46   6 C        2.675     0.343    21.174     7.530
    47   8 O        0.861    -0.527    24.399     6.623
    48   7 N        2.643    -0.315    28.120     7.876
    49   1 H        0.859     0.244     0.907     1.492
    50   1 H        0.860     0.177     1.233     1.739
    51   7 N        2.644    -0.284    27.324     7.763
    52   1 H        0.861     0.187     1.177     1.699
    53   1 H        0.860     0.205     1.079     1.627

 Mol. C6AA /au·bohr⁶  :      21788.873272
 Mol. C8AA /au·bohr⁸  :     454156.129870
 Mol. α(0) /au        :        220.536058


Wiberg/Mayer (AO) data.
largest (>0.10) Wiberg bond orders for each atom

 ---------------------------------------------------------------------------
     #   Z sym  total        # sym  WBO       # sym  WBO       # sym  WBO
 ---------------------------------------------------------------------------
     1   8 O    1.955 --     2 C    0.999    21 H    0.828
     2   6 C    3.961 --     5 C    1.007     1 O    0.999     4 H    0.964
                             3 H    0.958
     3   1 H    0.997 --     2 C    0.958
     4   1 H    0.998 --     2 C    0.964
     5   6 C    3.926 --     2 C    1.007     7 H    0.957     6 H    0.948
                             8 N    0.933
     6   1 H    0.984 --     5 C    0.948
     7   1 H    0.989 --     5 C    0.957
     8   7 N    3.823 --     9 C    0.959    17 C    0.959    13 C    0.955
                             5 C    0.933
     9   6 C    3.925 --    11 H    0.979    12 H    0.969    10 H    0.960
                             8 N    0.959
    10   1 H    0.985 --     9 C    0.960
    11   1 H    0.994 --     9 C    0.979
    12   1 H    0.989 --     9 C    0.969
    13   6 C    3.920 --    16 H    0.978    15 H    0.966    14 H    0.964
                             8 N    0.955
    14   1 H    0.985 --    13 C    0.964
    15   1 H    0.987 --    13 C    0.966
    16   1 H    0.993 --    13 C    0.978
    17   6 C    3.923 --    20 H    0.978    18 H    0.966     8 N    0.959
                            19 H    0.955
    18   1 H    0.987 --    17 C    0.966
    19   1 H    0.986 --    17 C    0.955
    20   1 H    0.994 --    17 C    0.978
    21   1 H    0.891 --     1 O    0.828
    22   6 C    3.960 --    23 O    1.479    27 N    1.260    24 N    1.209
    23   8 O    1.899 --    22 C    1.479    27 N    0.144    24 N    0.129
    24   7 N    3.323 --    22 C    1.209    26 H    0.947    25 H    0.943
                            23 O    0.129
    25   1 H    0.960 --    24 N    0.943
    26   1 H    0.966 --    24 N    0.947
    27   7 N    3.350 --    22 C    1.260    28 H    0.948    29 H    0.874
                            23 O    0.144
    28   1 H    0.967 --    27 N    0.948
    29   1 H    0.942 --    27 N    0.874
    30   6 C    3.959 --    31 O    1.544    32 N    1.205    35 N    1.204
    31   8 O    1.900 --    30 C    1.544    32 N    0.144    35 N    0.144
    32   7 N    3.320 --    30 C    1.205    34 H    0.947    33 H    0.943
                            31 O    0.144
    33   1 H    0.960 --    32 N    0.943
    34   1 H    0.965 --    32 N    0.947
    35   7 N    3.318 --    30 C    1.204    36 H    0.947    37 H    0.944
                            31 O    0.144
    36   1 H    0.965 --    35 N    0.947
    37   1 H    0.961 --    35 N    0.944
    38   6 C    3.959 --    39 O    1.530    43 N    1.226    40 N    1.195
    39   8 O    1.893 --    38 C    1.530    43 N    0.148    40 N    0.138
    40   7 N    3.310 --    38 C    1.195    42 H    0.949    41 H    0.944
                            39 O    0.138
    41   1 H    0.961 --    40 N    0.944
    42   1 H    0.967 --    40 N    0.949
    43   7 N    3.325 --    38 C    1.226    44 H    0.950    45 H    0.898
                            39 O    0.148
    44   1 H    0.969 --    43 N    0.950
    45   1 H    0.946 --    43 N    0.898
    46   6 C    3.959 --    47 O    1.474    48 N    1.243    51 N    1.226
    47   8 O    1.910 --    46 C    1.474    48 N    0.136    51 N    0.131
    48   7 N    3.322 --    46 C    1.243    50 H    0.949    49 H    0.863
                            47 O    0.136
    49   1 H    0.940 --    48 N    0.863
    50   1 H    0.969 --    48 N    0.949
    51   7 N    3.341 --    46 C    1.226    52 H    0.946    53 H    0.941
                            47 O    0.131
    52   1 H    0.965 --    51 N    0.946
    53   1 H    0.958 --    51 N    0.941
 ---------------------------------------------------------------------------

Topologies differ in total number of bonds
Writing topology from bond orders to xtbtopo.mol

molecular dipole:
                 x           y           z       tot (Debye)
 q only:       -0.250       1.076      -0.236
   full:        0.272       1.014      -0.409       2.864
molecular quadrupole (traceless):
                xx          xy          yy          xz          yz          zz
 q only:       -0.741      -3.665       8.077      16.307     -32.109      -7.336
  q+dip:        0.025      -2.205       9.273      21.717     -37.537      -9.298
   full:        0.473      -2.297       8.912      21.981     -37.986      -9.385

           -------------------------------------------------
          |               Frequency Printout                |
           -------------------------------------------------
 projected vibrational frequencies (cm⁻¹)
eigval :       -0.00    -0.00     0.00     0.00     0.00     0.00
eigval :       -5.85    14.08    17.68    22.09    28.40    39.94
eigval :       42.75    43.86    48.39    54.59    58.19    70.19
eigval :       77.56    79.76    90.73    94.28   100.77   105.10
eigval :      124.48   127.81   135.59   139.59   162.15   170.29
eigval :      192.78   213.38   228.72   240.45   248.77   270.02
eigval :      277.22   292.27   322.58   337.14   340.22   363.55
eigval :      379.07   380.02   398.17   435.25   444.03   456.62
eigval :      459.53   462.73   470.98   473.22   477.18   477.84
eigval :      481.61   486.70   499.63   504.70   531.89   539.59
eigval :      542.34   547.18   553.64   617.54   654.34   673.21
eigval :      674.58   676.05   686.00   733.21   765.08   794.82
eigval :      914.63   930.38   948.24   962.71   963.19   965.78
eigval :      994.85   997.82  1007.25  1016.40  1018.27  1028.91
eigval :     1030.99  1040.04  1045.16  1081.87  1084.00  1087.60
eigval :     1089.86  1095.43  1116.98  1131.78  1186.22  1230.98
eigval :     1248.60  1278.59  1291.89  1323.57  1345.03  1350.80
eigval :     1354.79  1358.00  1370.92  1382.43  1402.63  1411.40
eigval :     1414.68  1437.25  1445.13  1446.53  1447.46  1451.27
eigval :     1457.08  1458.28  1461.80  1464.46  1474.07  1480.50
eigval :     1483.82  1495.90  1500.52  1511.86  1513.89  1659.68
eigval :     1689.96  1715.42  1728.41  2888.00  2983.37  2994.98
eigval :     3008.68  3034.11  3042.05  3042.16  3047.13  3048.42
eigval :     3050.62  3053.71  3056.85  3068.37  3147.21  3226.59
eigval :     3269.27  3368.65  3497.21  3498.58  3498.60  3500.46
eigval :     3502.63  3519.78  3539.11  3539.22  3562.63  3563.50
eigval :     3566.29  3567.07  3568.15
 reduced masses (amu)
   1: 12.75   2: 12.66   3: 12.55   4: 12.56   5: 12.66   6: 12.52   7: 10.99   8: 12.35
   9: 12.12  10: 11.81  11: 12.24  12: 12.60  13: 12.61  14: 12.76  15: 12.98  16: 12.73
  17: 12.93  18: 12.74  19: 12.62  20: 14.32  21: 12.09  22: 12.33  23: 10.92  24: 12.90
  25: 12.06  26: 12.56  27: 12.00  28: 11.48  29: 11.09  30: 13.39  31: 12.60  32:  3.72
  33: 11.90  34:  2.82  35:  2.22  36:  2.57  37:  6.28  38:  4.45  39:  7.08  40:  4.94
  41:  3.59  42:  2.28  43:  4.24  44:  6.14  45:  3.35  46:  8.67  47:  1.67  48:  8.47
  49:  8.39  50:  7.90  51:  5.95  52:  3.39  53:  2.50  54:  5.07  55:  7.48  56:  8.06
  57:  3.34  58:  2.26  59:  9.54  60:  8.60  61: 11.19  62: 11.16  63: 11.76  64:  2.61
  65:  2.76  66: 11.61  67: 11.94  68: 11.90  69:  9.22  70:  2.07  71:  9.33  72:  2.63
  73:  8.04  74:  7.46  75:  5.21  76:  4.97  77:  4.89  78:  5.32  79:  8.88  80:  7.65
  81:  9.38  82:  9.09  83:  7.42  84:  9.19  85:  6.18  86:  3.86  87:  6.00  88:  9.56
  89:  9.06  90:  8.71  91:  7.98  92:  7.66  93:  4.54  94:  7.38  95:  3.56  96:  5.34
  97:  5.91  98:  7.93  99:  2.78 100:  6.12 101:  4.01 102:  6.11 103:  4.93 104:  5.59
 105:  4.49 106:  4.57 107:  2.49 108:  2.45 109:  2.12 110:  2.56 111:  3.12 112:  2.34
 113:  2.81 114:  1.94 115:  3.07 116:  2.26 117:  2.15 118:  1.90 119:  1.68 120:  1.62
 121:  1.81 122:  8.00 123:  8.08 124:  9.28 125:  9.46 126: 12.30 127: 12.70 128: 12.77
 129: 12.84 130:  1.77 131:  1.69 132:  1.69 133:  1.82 134:  1.66 135:  1.82 136:  1.71
 137:  1.58 138:  1.86 139:  1.55 140:  1.87 141:  1.82 142:  1.73 143:  1.82 144:  1.82
 145:  1.87 146:  1.69 147:  1.45 148:  1.44 149:  1.45 150:  1.45 151:  1.46 152:  1.89
 153:  1.97 154:  1.91 155:  2.19 156:  2.18 157:  2.19 158:  2.18 159:  2.18
 IR intensities (km·mol⁻¹)
   1:  0.53   2:  2.72   3:  0.68   4:  1.35   5:  1.18   6:  2.37   7:  0.03   8:  0.31
   9:  1.17  10:  2.14  11:  0.47  12:  1.08  13:  2.28  14:  3.31  15:  1.98  16:  3.67
  17:  4.44  18:  1.74  19:  3.26  20:  8.84  21:  1.64  22:  3.69  23:  3.96  24: 11.07
  25:  0.13  26:  7.80  27: 57.25  28:  9.94  29:  2.85  30: 10.47  31: 57.81  32: 20.56
  33:  1.41  34:214.55  35:123.54  36:127.89  37:  2.97  38:  1.46  39:  2.62  40: 10.11
  41:518.03  42:  1.08  43:153.27  44: 69.22  45:308.21  46:  7.74  47:  6.73  48:  4.93
  49: 30.37  50: 11.01  51: 48.94  52:108.87  53: 23.95  54:  8.47  55: 35.25  56: 44.61
  57: 40.96  58:  0.50  59: 39.38  60: 11.11  61: 20.80  62:  7.39  63: 37.44  64: 98.51
  65:105.71  66: 37.48  67: 29.95  68: 52.96  69:131.59  70:143.71  71:  0.31  72:387.84
  73:  7.48  74:  6.91  75:  1.52  76:  1.82  77:  6.53  78:  2.55  79:  0.18  80: 12.33
  81:  1.66  82:  2.88  83: 35.32  84:  5.79  85: 10.41  86:  0.32  87:  3.45  88:  1.89
  89:  1.46  90:  1.74  91: 59.56  92:  4.49  93:  5.96  94: 24.39  95:  3.82  96:  4.11
  97:  0.50  98:  2.99  99:111.59 100:  4.74 101: 20.47 102: 87.52 103:238.93 104: 64.28
 105: 73.60 106:  3.28 107: 12.69 108: 12.01 109: 10.24 110: 11.97 111: 10.92 112:  1.73
 113:  4.73 114:  0.84 115:  6.52 116:  2.43 117:  9.30 118: 14.61 119:  4.36 120: 16.61
 121: 21.08 122:440.15 123:478.31 124:254.57 125:749.03 126:423.29 127:****** 128:******
 129:667.79 130: 39.80 131: 25.77 132:  1.42 133: 13.02 134: 25.43 135:  5.09 136: 10.38
 137: 20.57 138: 11.37 139: 26.38 140: 24.96 141: 28.67 142:  4.98 143:388.68 144:967.38
 145:****** 146:367.79 147: 17.39 148: 38.88 149: 20.75 150: 20.73 151:  8.99 152: 12.22
 153: 21.86 154: 13.33 155: 12.84 156: 10.79 157: 14.60 158: 17.63 159: 10.96
 Raman intensities (amu)
Molecule has no symmetry elements
It seems to be the C1 point group
   1:  0.00   2:  0.00   3:  0.00   4:  0.00   5:  0.00   6:  0.00   7:  0.00   8:  0.00
   9:  0.00  10:  0.00  11:  0.00  12:  0.00  13:  0.00  14:  0.00  15:  0.00  16:  0.00
  17:  0.00  18:  0.00  19:  0.00  20:  0.00  21:  0.00  22:  0.00  23:  0.00  24:  0.00
  25:  0.00  26:  0.00  27:  0.00  28:  0.00  29:  0.00  30:  0.00  31:  0.00  32:  0.00
  33:  0.00  34:  0.00  35:  0.00  36:  0.00  37:  0.00  38:  0.00  39:  0.00  40:  0.00
  41:  0.00  42:  0.00  43:  0.00  44:  0.00  45:  0.00  46:  0.00  47:  0.00  48:  0.00
  49:  0.00  50:  0.00  51:  0.00  52:  0.00  53:  0.00  54:  0.00  55:  0.00  56:  0.00
  57:  0.00  58:  0.00  59:  0.00  60:  0.00  61:  0.00  62:  0.00  63:  0.00  64:  0.00
  65:  0.00  66:  0.00  67:  0.00  68:  0.00  69:  0.00  70:  0.00  71:  0.00  72:  0.00
  73:  0.00  74:  0.00  75:  0.00  76:  0.00  77:  0.00  78:  0.00  79:  0.00  80:  0.00
  81:  0.00  82:  0.00  83:  0.00  84:  0.00  85:  0.00  86:  0.00  87:  0.00  88:  0.00
  89:  0.00  90:  0.00  91:  0.00  92:  0.00  93:  0.00  94:  0.00  95:  0.00  96:  0.00
  97:  0.00  98:  0.00  99:  0.00 100:  0.00 101:  0.00 102:  0.00 103:  0.00 104:  0.00
 105:  0.00 106:  0.00 107:  0.00 108:  0.00 109:  0.00 110:  0.00 111:  0.00 112:  0.00
 113:  0.00 114:  0.00 115:  0.00 116:  0.00 117:  0.00 118:  0.00 119:  0.00 120:  0.00
 121:  0.00 122:  0.00 123:  0.00 124:  0.00 125:  0.00 126:  0.00 127:  0.00 128:  0.00
 129:  0.00 130:  0.00 131:  0.00 132:  0.00 133:  0.00 134:  0.00 135:  0.00 136:  0.00
 137:  0.00 138:  0.00 139:  0.00 140:  0.00 141:  0.00 142:  0.00 143:  0.00 144:  0.00
 145:  0.00 146:  0.00 147:  0.00 148:  0.00 149:  0.00 150:  0.00 151:  0.00 152:  0.00
 153:  0.00 154:  0.00 155:  0.00 156:  0.00 157:  0.00 158:  0.00 159:  0.00
 output can be read by thermo (or use thermo option).
 writing <g98.out> molden fake output.
 recommended (thermochemical) frequency scaling factor: 1.0
           -------------------------------------------------
          |             Thermodynamic Functions             |
           -------------------------------------------------

c1  symmetry found (for desy threshold:  0.10E+00) used in thermo
 inverting freq            1   5.8516799867710860     

          ...................................................
          :                      SETUP                      :
          :.................................................:
          :  # frequencies                         153      :
          :  # imaginary freq.                       0      :
          :  linear?                             false      :
          :  only rotor calc.                    false      :
          :  symmetry                               c1      :
          :  rotational number                       1      :
          :  scaling factor                  1.0000000      :
          :  rotor cutoff                   50.0000000 cm⁻¹ :
          :  imag. cutoff                  -20.0000000 cm⁻¹ :
          :.................................................:

    mode    ω/cm⁻¹     T·S(HO)/kcal·mol⁻¹    T·S(FR)/kcal·mol⁻¹   T·S(vib)
   ------------------------------------------------------------------------
       1      5.85    -2.70594 (  0.02%)    -1.69184 ( 99.98%)    -1.69203
       2     14.08    -2.18570 (  0.63%)    -1.43181 ( 99.37%)    -1.43653
       3     17.68    -2.05104 (  1.54%)    -1.36447 ( 98.46%)    -1.37504
       4     22.09    -1.91904 (  3.67%)    -1.29843 ( 96.33%)    -1.32123
       5     28.40    -1.77050 (  9.43%)    -1.22409 ( 90.57%)    -1.27559
       6     39.94    -1.56885 ( 28.94%)    -1.12305 ( 71.06%)    -1.25206
       7     42.75    -1.52874 ( 34.83%)    -1.10293 ( 65.17%)    -1.25122
       8     43.86    -1.51354 ( 37.20%)    -1.09531 ( 62.80%)    -1.25088
       9     48.39    -1.45557 ( 46.74%)    -1.06620 ( 53.26%)    -1.24818
      10     54.59    -1.38452 ( 58.70%)    -1.03050 ( 41.30%)    -1.23830
      11     58.19    -1.34698 ( 64.71%)    -1.01161 ( 35.29%)    -1.22864
      12     70.19    -1.23676 ( 79.52%)    -0.95606 ( 20.48%)    -1.17927
      13     77.56    -1.17818 ( 85.27%)    -0.92646 ( 14.73%)    -1.14111
      14     79.76    -1.16179 ( 86.63%)    -0.91817 ( 13.37%)    -1.12920
      15     90.73    -1.08654 ( 91.56%)    -0.88002 (  8.44%)    -1.06910
      16     94.28    -1.06416 ( 92.67%)    -0.86864 (  7.33%)    -1.04983
      17    100.77    -1.02544 ( 94.29%)    -0.84892 (  5.71%)    -1.01536
      18    105.10    -1.00103 ( 95.13%)    -0.83646 (  4.87%)    -0.99301
      19    124.48    -0.90327 ( 97.46%)    -0.78633 (  2.54%)    -0.90031
      20    127.81    -0.88810 ( 97.71%)    -0.77851 (  2.29%)    -0.88560
      21    135.59    -0.85424 ( 98.18%)    -0.76100 (  1.82%)    -0.85255
      22    139.59    -0.83766 ( 98.38%)    -0.75240 (  1.62%)    -0.83628
      23    162.15    -0.75270 ( 99.10%)    -0.70802 (  0.90%)    -0.75230
      24    170.29    -0.72517 ( 99.26%)    -0.69350 (  0.74%)    -0.72494
      25    192.78    -0.65621 ( 99.55%)    -0.65676 (  0.45%)    -0.65621
      26    213.38    -0.60064 ( 99.70%)    -0.62668 (  0.30%)    -0.60072
      27    228.72    -0.56318 ( 99.77%)    -0.60611 (  0.23%)    -0.56328
      28    240.45    -0.53652 ( 99.81%)    -0.59129 (  0.19%)    -0.53663
      29    248.77    -0.51856 ( 99.84%)    -0.58122 (  0.16%)    -0.51866
      30    270.02    -0.47586 ( 99.88%)    -0.55694 (  0.12%)    -0.47596
      31    277.22    -0.46236 ( 99.89%)    -0.54915 (  0.11%)    -0.46245
      32    292.27    -0.43553 ( 99.91%)    -0.53349 (  0.09%)    -0.43562
   ------------------------------------------------------------------------

   temp. (K)  partition function   enthalpy   heat capacity  entropy
                                   cal/mol     cal/K/mol   cal/K/mol   J/K/mol
 298.15  VIB  0.657E+18            19723.393    104.831    130.759
         ROT  0.158E+08              888.752      2.981     35.926
         INT  0.104E+26            20612.145    107.812    166.685
         TR   0.618E+28             1481.254      4.968     43.384
         TOT                       22093.3990   112.7799   210.0697   878.9315

       T/K    H(0)-H(T)+PV         H(T)/Eh          T*S/Eh         G(T)/Eh
   ------------------------------------------------------------------------
    298.15    0.352081E-01    0.473841E+00    0.998109E-01    0.374030E+00
   ------------------------------------------------------------------------

         :::::::::::::::::::::::::::::::::::::::::::::::::::::
         ::                  THERMODYNAMIC                  ::
         :::::::::::::::::::::::::::::::::::::::::::::::::::::
         :: total free energy         -80.557950199760 Eh   ::
         ::.................................................::
         :: total energy              -80.931979914141 Eh   ::
         :: zero point energy           0.438632524574 Eh   ::
         :: G(RRHO) w/o ZPVE           -0.064602810193 Eh   ::
         :: G(RRHO) contrib.            0.374029714381 Eh   ::
         :::::::::::::::::::::::::::::::::::::::::::::::::::::
imag cut-off (cm-1) :    5.00
 found            1  significant imaginary frequency
 writing imag mode distorted coords to xtbhess.xyz
 for further optimization.

           -------------------------------------------------
          | TOTAL ENERGY              -80.931979914141 Eh   |
          | TOTAL ENTHALPY            -80.458139317103 Eh   |
          | TOTAL FREE ENERGY         -80.557950199760 Eh   |
          | GRADIENT NORM               0.000188028947 Eh/α |
          | HOMO-LUMO GAP               5.542291181200 eV   |
           -------------------------------------------------

------------------------------------------------------------------------
 * finished run on 2024/01/10 at 15:42:15.522     
------------------------------------------------------------------------
 total:
 * wall-time:     0 d,  0 h,  0 min, 14.309 sec
 *  cpu-time:     0 d,  0 h,  0 min, 14.222 sec
 * ratio c/w:     0.994 speedup
 SCF:
 * wall-time:     0 d,  0 h,  0 min,  0.105 sec
 *  cpu-time:     0 d,  0 h,  0 min,  0.056 sec
 * ratio c/w:     0.536 speedup
 analytical hessian:
 * wall-time:     0 d,  0 h,  0 min, 14.170 sec
 *  cpu-time:     0 d,  0 h,  0 min, 14.139 sec
 * ratio c/w:     0.998 speedup

