 Entering Gaussian System
 *********************************************
 Gaussian 98:
 frequency output generated by the xtb code
 *********************************************
                         Standard orientation:
 --------------------------------------------------------------------
  Center     Atomic     Atomic              Coordinates (Angstroms)
  Number     Number      Type              X           Y           Z
 --------------------------------------------------------------------
    1          8             0       -0.532263    0.529054   -1.725134
    2          6             0        0.651575   -0.156968   -1.998295
    3          1             0        0.437059   -0.837239   -2.826219
    4          1             0        1.435620    0.535369   -2.334200
    5          6             0        1.226378   -0.909380   -0.785589
    6          1             0        1.291119   -0.215592    0.056153
    7          1             0        2.231764   -1.250728   -1.038633
    8          7             0        0.450318   -2.084979   -0.310118
    9          6             0       -0.892380   -1.681951    0.140676
   10          1             0       -0.796962   -0.980921    0.965900
   11          1             0       -1.425295   -2.571475    0.471680
   12          1             0       -1.430267   -1.196912   -0.670519
   13          6             0        1.162313   -2.666229    0.842917
   14          1             0        1.276892   -1.907178    1.616561
   15          1             0        2.145534   -3.019270    0.539803
   16          1             0        0.580398   -3.503182    1.225283
   17          6             0        0.312828   -3.115872   -1.349912
   18          1             0        1.291429   -3.396777   -1.734084
   19          1             0       -0.305016   -2.751658   -2.166437
   20          1             0       -0.170621   -3.985334   -0.903536
   21          1             0       -0.318128    1.281001   -1.135149
   22          6             0        1.672718    2.748891   -0.069296
   23          8             0        0.448493    2.496051   -0.118637
   24          7             0        2.477384    2.024169    0.740521
   25          1             0        2.057341    1.367840    1.393982
   26          1             0        3.430343    2.299840    0.893630
   27          7             0        2.223965    3.688860   -0.828816
   28          1             0        3.208547    3.879044   -0.781370
   29          1             0        1.656899    4.220161   -1.514285
   30          6             0       -0.463393    4.851338   -2.762271
   31          8             0        0.749969    5.008878   -2.677943
   32          7             0       -1.163296    4.122682   -1.865084
   33          1             0       -0.641564    3.570258   -1.190150
   34          1             0       -2.117825    3.868786   -2.042816
   35          7             0       -1.177973    5.406402   -3.775431
   36          1             0       -2.181152    5.437931   -3.752440
   37          1             0       -0.702062    6.067570   -4.364251
   38          6             0        0.088290    0.714580    2.905247
   39          8             0        1.006974    0.137138    2.317051
   40          7             0       -0.641711    1.668660    2.305839
   41          1             0       -0.336352    2.008395    1.389311
   42          1             0       -1.331099    2.196371    2.808950
   43          7             0       -0.282495    0.347909    4.157631
   44          1             0       -0.929235    0.898317    4.693207
   45          1             0        0.310984   -0.291687    4.656217
   46          6             0       -1.745819   -5.807499    1.176291
   47          8             0       -1.153951   -4.804422    0.798792
   48          7             0       -1.567255   -7.014722    0.590891
   49          1             0       -0.868992   -7.109679   -0.124212
   50          1             0       -1.992800   -7.849697    0.949241
   51          7             0       -2.622143   -5.780954    2.207921
   52          1             0       -3.170666   -6.581336    2.463214
   53          1             0       -2.853335   -4.896129    2.622095
 --------------------------------------------------------------------
     1 basis functions        1 primitive gaussians
     1 alpha electrons        1 beta electrons

 Harmonic frequencies (cm**-1), IR intensities (km*mol⁻¹),
 Raman scattering activities (A**4/amu), Raman depolarization ratios,
 reduced masses (AMU), force constants (mDyne/A) and normal coordinates:
                      1                      2                      3
                        a                      a                      a 
 Frequencies --   -10.4524                11.0165                13.1018
 Red. masses --    11.0136                12.3677                12.6932
 Frc consts  --     0.0000                 0.0000                 0.0000
 IR Inten    --     0.0392                 0.1867                 0.4188
 Raman Activ --     0.0000                 0.0000                 0.0000
 Depolar     --     0.0000                 0.0000                 0.0000
 Atom AN      X      Y      Z        X      Y      Z        X      Y      Z
   1   8    -0.04   0.01   0.02    -0.26   0.06   0.13    -0.16   0.17   0.15
   2   6    -0.04   0.00  -0.01    -0.26   0.03  -0.01    -0.15   0.16   0.05
   3   1    -0.02   0.00  -0.00    -0.10   0.01   0.00    -0.06   0.05   0.01
   4   1    -0.01   0.00  -0.01    -0.08   0.01  -0.02    -0.05   0.05   0.01
   5   6    -0.02  -0.00  -0.03    -0.17   0.01  -0.06    -0.09   0.13  -0.00
   6   1    -0.00  -0.00  -0.01    -0.04  -0.00  -0.02    -0.02   0.03   0.01
   7   1    -0.01  -0.00  -0.01    -0.05   0.01  -0.04    -0.03   0.04  -0.02
   8   7    -0.02  -0.00  -0.02    -0.12  -0.01  -0.04    -0.07   0.11  -0.01
   9   6    -0.01  -0.00   0.01    -0.11  -0.06   0.02    -0.04   0.08   0.07
  10   1     0.00  -0.00   0.00    -0.03  -0.02   0.01    -0.00   0.01   0.03
  11   1    -0.00  -0.00   0.00    -0.02  -0.02   0.01    -0.01   0.02   0.02
  12   1    -0.01  -0.00   0.00    -0.04  -0.02   0.01    -0.02   0.03   0.03
  13   6     0.00  -0.01  -0.03    -0.05   0.01  -0.07    -0.01   0.07  -0.06
  14   1     0.00  -0.00  -0.01    -0.02   0.00  -0.02     0.01   0.01  -0.01
  15   1    -0.00  -0.00  -0.01    -0.01   0.01  -0.03    -0.00   0.03  -0.03
  16   1     0.00  -0.00  -0.01     0.00  -0.01  -0.02     0.01   0.01  -0.02
  17   6    -0.04  -0.00  -0.02    -0.12  -0.01  -0.04    -0.10   0.14  -0.04
  18   1    -0.01  -0.00  -0.01    -0.04   0.01  -0.02    -0.03   0.05  -0.03
  19   1    -0.01   0.00  -0.00    -0.05  -0.01  -0.00    -0.04   0.05  -0.00
  20   1    -0.01  -0.00  -0.00    -0.02  -0.01  -0.01    -0.02   0.03  -0.02
  21   1    -0.00   0.00   0.00    -0.04   0.02   0.02    -0.03   0.04   0.04
  22   6     0.01  -0.01  -0.01     0.02  -0.03  -0.03     0.01   0.02   0.09
  23   8     0.01   0.00   0.00     0.00   0.06  -0.02     0.00   0.07   0.16
  24   7     0.02  -0.02  -0.03    -0.02  -0.11  -0.04     0.02   0.02   0.09
  25   1     0.01  -0.01  -0.01    -0.02  -0.02  -0.01     0.01   0.01   0.03
  26   1     0.01  -0.01  -0.01    -0.00  -0.05  -0.01     0.01  -0.00   0.01
  27   7     0.01  -0.01  -0.02     0.09  -0.08  -0.03     0.02  -0.03   0.04
  28   1     0.00  -0.00  -0.01     0.03  -0.04  -0.01     0.01  -0.02  -0.01
  29   1     0.00   0.00  -0.00     0.04  -0.01  -0.01     0.01  -0.03  -0.01
  30   6    -0.01   0.02   0.02     0.16   0.13  -0.01     0.04  -0.23  -0.12
  31   8    -0.01   0.02   0.01     0.20   0.05  -0.02     0.06  -0.32  -0.20
  32   7    -0.00   0.02   0.03     0.13   0.18  -0.02     0.02  -0.03   0.03
  33   1     0.00   0.00   0.01     0.02   0.04  -0.01     0.00   0.01   0.03
  34   1    -0.00   0.01   0.01     0.03   0.07  -0.00     0.00  -0.01   0.02
  35   7    -0.02   0.03   0.04     0.21   0.22   0.01     0.05  -0.41  -0.23
  36   1    -0.00   0.01   0.01     0.06   0.08   0.00     0.02  -0.09  -0.05
  37   1    -0.01   0.01   0.01     0.07   0.05   0.00     0.02  -0.15  -0.10
  38   6     0.04  -0.02  -0.00    -0.11   0.02  -0.04     0.06   0.00   0.11
  39   8     0.03  -0.02  -0.02    -0.15  -0.01  -0.05     0.03   0.00   0.08
  40   7     0.04  -0.01   0.01    -0.03   0.11  -0.02     0.07   0.05   0.19
  41   1     0.01  -0.00   0.00    -0.00   0.03  -0.00     0.01   0.02   0.05
  42   1     0.01  -0.00   0.01    -0.01   0.03  -0.01     0.03   0.01   0.06
  43   7     0.06  -0.02  -0.00    -0.18  -0.01  -0.07     0.09  -0.03   0.12
  44   1     0.02  -0.01   0.00    -0.04   0.01  -0.02     0.03  -0.01   0.04
  45   1     0.01  -0.01  -0.01    -0.06  -0.02  -0.02     0.02  -0.02   0.02
  46   6    -0.01   0.00   0.01     0.17  -0.13   0.09     0.04   0.00  -0.11
  47   8    -0.02   0.01   0.02     0.08  -0.11   0.03     0.01   0.04  -0.07
  48   7     0.46  -0.11   0.40     0.24  -0.14   0.11     0.09   0.04  -0.17
  49   1     0.21  -0.05   0.20     0.05  -0.03   0.01     0.03   0.02  -0.04
  50   1     0.12  -0.03   0.11     0.09  -0.04   0.04     0.03   0.00  -0.06
  51   7    -0.46   0.11  -0.37     0.26  -0.19   0.16     0.02  -0.07  -0.14
  52   1    -0.12   0.02  -0.11     0.09  -0.06   0.06     0.01  -0.03  -0.05
  53   1    -0.22   0.05  -0.19     0.06  -0.05   0.04    -0.01  -0.03  -0.03
                      4                      5                      6
                        a                      a                      a 
 Frequencies --    19.0784                26.5497                30.6898
 Red. masses --    11.9554                12.6581                12.1337
 Frc consts  --     0.0000                 0.0000                 0.0000
 IR Inten    --     0.1902                 7.2161                 0.6839
 Raman Activ --     0.0000                 0.0000                 0.0000
 Depolar     --     0.0000                 0.0000                 0.0000
 Atom AN      X      Y      Z        X      Y      Z        X      Y      Z
   1   8    -0.00   0.08  -0.12    -0.05   0.03   0.08    -0.18  -0.03   0.33
   2   6    -0.00   0.08  -0.13    -0.07  -0.01   0.02    -0.17   0.03   0.12
   3   1    -0.00   0.03  -0.04    -0.03   0.00   0.01    -0.07   0.01   0.04
   4   1    -0.00   0.03  -0.04    -0.02  -0.01   0.00    -0.07   0.02   0.02
   5   6     0.02   0.06  -0.16    -0.05  -0.04  -0.01    -0.00   0.01   0.03
   6   1     0.01   0.01  -0.04    -0.00  -0.02   0.00     0.00  -0.01   0.02
   7   1     0.00   0.02  -0.05    -0.02  -0.02  -0.01     0.00   0.03  -0.02
   8   7     0.02   0.05  -0.18    -0.07  -0.03  -0.00     0.14  -0.09   0.04
   9   6     0.03   0.04  -0.14    -0.05  -0.01   0.04     0.11  -0.22   0.09
  10   1     0.01   0.01  -0.04    -0.00  -0.01   0.01     0.02  -0.07   0.03
  11   1     0.01   0.01  -0.04    -0.02  -0.00   0.01     0.06  -0.08   0.03
  12   1     0.00   0.01  -0.04    -0.02   0.00   0.02     0.01  -0.07   0.04
  13   6     0.04   0.03  -0.18    -0.05  -0.06  -0.03     0.23  -0.04  -0.01
  14   1     0.01   0.00  -0.05    -0.00  -0.02  -0.01     0.05  -0.01   0.00
  15   1     0.01   0.01  -0.06    -0.02  -0.02  -0.02     0.07   0.02  -0.01
  16   1     0.01   0.01  -0.06    -0.02  -0.02  -0.01     0.09  -0.03  -0.00
  17   6     0.01   0.06  -0.18    -0.11  -0.02  -0.01     0.19  -0.07   0.02
  18   1     0.00   0.02  -0.06    -0.04  -0.01  -0.01     0.06   0.01  -0.00
  19   1     0.00   0.02  -0.05    -0.04   0.00   0.00     0.04  -0.03   0.01
  20   1     0.00   0.02  -0.05    -0.03  -0.00  -0.00     0.08  -0.03   0.00
  21   1    -0.00   0.01  -0.02    -0.00   0.00   0.02    -0.03   0.00   0.07
  22   6    -0.02  -0.03   0.10    -0.01   0.13   0.06    -0.02   0.08  -0.02
  23   8    -0.02  -0.06   0.07     0.00   0.06   0.01    -0.03   0.14   0.03
  24   7    -0.04  -0.05   0.11     0.02   0.07  -0.02    -0.02   0.07  -0.04
  25   1    -0.01  -0.02   0.02     0.01  -0.00  -0.02    -0.00   0.02  -0.01
  26   1    -0.01  -0.01   0.04    -0.00   0.03   0.01    -0.00   0.01  -0.02
  27   7    -0.02  -0.00   0.15    -0.06   0.29   0.22    -0.01   0.07  -0.04
  28   1    -0.01   0.00   0.05    -0.02   0.09   0.07    -0.00   0.01  -0.02
  29   1    -0.00  -0.00   0.04    -0.02   0.09   0.07    -0.00   0.02  -0.01
  30   6     0.02  -0.07   0.03     0.04   0.02  -0.07     0.00   0.05  -0.06
  31   8     0.02  -0.07   0.08    -0.03   0.43   0.29     0.01   0.03  -0.09
  32   7     0.00  -0.05   0.04     0.02  -0.27  -0.33    -0.00   0.08  -0.04
  33   1    -0.00  -0.01   0.02     0.00  -0.04  -0.06    -0.00   0.03  -0.01
  34   1     0.00  -0.02   0.00     0.04  -0.15  -0.16    -0.00   0.03  -0.00
  35   7     0.05  -0.13  -0.01     0.15  -0.13  -0.24     0.00   0.04  -0.07
  36   1     0.01  -0.04  -0.01     0.04  -0.11  -0.13     0.00   0.02  -0.02
  37   1     0.02  -0.04  -0.00     0.03   0.02  -0.01     0.00   0.00  -0.02
  38   6    -0.07  -0.16  -0.01     0.10  -0.04  -0.03    -0.01  -0.05  -0.05
  39   8    -0.04  -0.12  -0.00     0.09  -0.04  -0.08     0.01  -0.00  -0.07
  40   7    -0.09  -0.18  -0.01     0.07  -0.05   0.01     0.07   0.06   0.05
  41   1    -0.02  -0.03   0.01     0.01  -0.01   0.00     0.02   0.03   0.02
  42   1    -0.03  -0.06  -0.00     0.02  -0.01   0.01     0.00  -0.01   0.01
  43   7    -0.11  -0.24  -0.04     0.17  -0.06  -0.02    -0.12  -0.23  -0.13
  44   1    -0.04  -0.07  -0.01     0.05  -0.02   0.00    -0.02  -0.06  -0.02
  45   1    -0.03  -0.06  -0.01     0.05  -0.02  -0.01    -0.03  -0.07  -0.04
  46   6     0.05   0.17   0.13    -0.03  -0.05   0.03    -0.03   0.01  -0.02
  47   8     0.04   0.12  -0.09    -0.08  -0.04   0.01     0.27  -0.15   0.01
  48   7    -0.02   0.08   0.33     0.00  -0.05   0.03    -0.30  -0.04   0.00
  49   1    -0.03  -0.01   0.07    -0.00  -0.01   0.00    -0.06  -0.06   0.03
  50   1    -0.01   0.04   0.13     0.01  -0.02   0.01    -0.14   0.02   0.00
  51   7     0.15   0.37   0.22    -0.00  -0.08   0.05    -0.13   0.26  -0.11
  52   1     0.04   0.11   0.11     0.01  -0.03   0.02    -0.09   0.10  -0.03
  53   1     0.05   0.12   0.02    -0.01  -0.02   0.01     0.02   0.08  -0.03
                      7                      8                      9
                        a                      a                      a 
 Frequencies --    35.5743                42.8379                47.4068
 Red. masses --    12.4882                12.2524                12.7608
 Frc consts  --     0.0000                 0.0000                 0.0000
 IR Inten    --     1.7269                 4.5697                 4.3918
 Raman Activ --     0.0000                 0.0000                 0.0000
 Depolar     --     0.0000                 0.0000                 0.0000
 Atom AN      X      Y      Z        X      Y      Z        X      Y      Z
   1   8     0.12   0.09   0.08     0.20   0.02   0.02     0.03   0.05  -0.01
   2   6     0.08   0.03   0.11     0.21   0.04   0.11    -0.00   0.01  -0.02
   3   1     0.02   0.01   0.03     0.09   0.03   0.01    -0.01  -0.00  -0.00
   4   1     0.04  -0.00   0.04     0.07   0.02   0.07     0.00  -0.01  -0.02
   5   6     0.00  -0.01   0.12     0.06  -0.06   0.12     0.00   0.02  -0.02
   6   1    -0.00  -0.01   0.04    -0.00  -0.04   0.05     0.00   0.01  -0.01
   7   1    -0.00  -0.02   0.05     0.02  -0.02   0.06     0.00   0.00  -0.01
   8   7    -0.07   0.01   0.08    -0.03  -0.08  -0.04    -0.00   0.03   0.00
   9   6    -0.08   0.05  -0.00    -0.04  -0.06  -0.11    -0.01   0.04  -0.03
  10   1    -0.03   0.01   0.00    -0.02  -0.04  -0.01    -0.01   0.02  -0.02
  11   1    -0.04   0.02  -0.01    -0.03  -0.02  -0.07    -0.00   0.01  -0.00
  12   1    -0.01   0.02  -0.01     0.01   0.01  -0.03    -0.00   0.00  -0.02
  13   6    -0.15  -0.03   0.10    -0.14  -0.18  -0.03    -0.02   0.07   0.03
  14   1    -0.03  -0.01   0.03    -0.05  -0.07   0.01    -0.01   0.03   0.00
  15   1    -0.05  -0.03   0.04    -0.04  -0.06   0.01    -0.00   0.02   0.02
  16   1    -0.06   0.00   0.03    -0.06  -0.05  -0.04    -0.01   0.02   0.01
  17   6    -0.05   0.02   0.06     0.02   0.02  -0.13     0.02  -0.00   0.03
  18   1    -0.01  -0.00   0.03     0.01   0.01  -0.02     0.01  -0.01   0.02
  19   1    -0.00   0.01   0.01     0.03   0.03  -0.04     0.01  -0.01   0.00
  20   1    -0.03   0.01   0.01    -0.01  -0.00  -0.07     0.00   0.00   0.01
  21   1     0.03   0.03   0.01     0.03   0.01   0.01     0.02   0.01   0.00
  22   6     0.08   0.15  -0.00    -0.04   0.07   0.01     0.14  -0.06  -0.06
  23   8     0.10   0.14   0.01    -0.06   0.12   0.05     0.15  -0.02   0.00
  24   7     0.11   0.22   0.02    -0.05   0.05   0.00     0.15  -0.10  -0.09
  25   1     0.04   0.05   0.00    -0.02   0.01  -0.01     0.03  -0.01  -0.01
  26   1     0.03   0.06  -0.01    -0.01   0.00  -0.01     0.04  -0.03  -0.03
  27   7     0.05   0.16  -0.04    -0.04   0.06  -0.00     0.15  -0.12  -0.14
  28   1     0.01   0.05  -0.02    -0.01   0.00  -0.01     0.04  -0.03  -0.04
  29   1     0.01   0.02  -0.02    -0.01   0.01  -0.01     0.02  -0.01  -0.00
  30   6    -0.02   0.01  -0.03    -0.03   0.02  -0.03    -0.08  -0.09   0.11
  31   8    -0.01  -0.08  -0.18    -0.02  -0.04  -0.09    -0.13   0.14   0.25
  32   7     0.01   0.16   0.11    -0.05   0.11   0.03    -0.03  -0.25   0.04
  33   1     0.01   0.04   0.02    -0.01   0.03   0.01     0.01  -0.04   0.02
  34   1    -0.01   0.06   0.06    -0.02   0.04   0.02     0.01  -0.12  -0.02
  35   7    -0.09  -0.03  -0.02    -0.03  -0.01  -0.05    -0.10  -0.20   0.07
  36   1    -0.02   0.01   0.02    -0.01   0.01  -0.01    -0.03  -0.10   0.00
  37   1    -0.03  -0.03  -0.03    -0.00  -0.02  -0.03    -0.05  -0.02   0.04
  38   6     0.03  -0.15  -0.14     0.02   0.08   0.04    -0.07   0.08  -0.03
  39   8     0.23   0.04  -0.07    -0.16  -0.05  -0.10    -0.11   0.07  -0.06
  40   7    -0.00  -0.20  -0.17     0.19   0.32   0.23     0.22   0.40   0.14
  41   1     0.02  -0.02  -0.02     0.02   0.07   0.05     0.06   0.10   0.03
  42   1    -0.04  -0.10  -0.06     0.07   0.09   0.08     0.03   0.08   0.03
  43   7    -0.15  -0.39  -0.27     0.06   0.03   0.05    -0.35  -0.20  -0.19
  44   1    -0.07  -0.13  -0.08     0.07   0.04   0.05    -0.06  -0.04  -0.03
  45   1    -0.03  -0.08  -0.06    -0.00  -0.03  -0.02    -0.12  -0.09  -0.06
  46   6    -0.04  -0.03   0.05    -0.03  -0.11  -0.04     0.01   0.04   0.00
  47   8    -0.20   0.04   0.03    -0.14  -0.18  -0.36    -0.02   0.09   0.05
  48   7     0.08  -0.01   0.04    -0.04  -0.24   0.21     0.05   0.08  -0.05
  49   1     0.01   0.02  -0.00    -0.05  -0.09   0.02     0.02   0.03  -0.01
  50   1     0.05  -0.02   0.01     0.00  -0.05   0.11     0.02   0.01  -0.02
  51   7     0.01  -0.16   0.10     0.12   0.06   0.08    -0.00  -0.02  -0.01
  52   1     0.03  -0.06   0.03     0.04   0.03   0.08     0.01  -0.01  -0.01
  53   1    -0.03  -0.05   0.03     0.02   0.04  -0.03    -0.01  -0.01   0.01
                     10                     11                     12
                        a                      a                      a 
 Frequencies --    52.4302                57.9390                69.8089
 Red. masses --    12.2964                12.3560                 9.4589
 Frc consts  --     0.0000                 0.0000                 0.0000
 IR Inten    --     0.3484                 0.4258                 0.3425
 Raman Activ --     0.0000                 0.0000                 0.0000
 Depolar     --     0.0000                 0.0000                 0.0000
 Atom AN      X      Y      Z        X      Y      Z        X      Y      Z
   1   8    -0.09   0.06   0.03     0.06  -0.08  -0.09     0.08  -0.04   0.11
   2   6    -0.13  -0.02  -0.02    -0.00  -0.14  -0.16     0.11   0.04   0.08
   3   1    -0.06  -0.01   0.00    -0.03  -0.04  -0.03     0.05   0.03   0.00
   4   1    -0.03  -0.02  -0.03     0.00  -0.05  -0.07     0.03   0.03   0.05
   5   6    -0.09   0.01  -0.03     0.07  -0.13  -0.18     0.10  -0.05   0.03
   6   1    -0.04   0.01  -0.01     0.05  -0.03  -0.06     0.06  -0.03   0.02
   7   1    -0.02   0.02  -0.00     0.01  -0.05  -0.08     0.02  -0.03  -0.01
   8   7    -0.04  -0.03  -0.03     0.05  -0.08  -0.08     0.03  -0.00   0.02
   9   6    -0.09  -0.10  -0.13     0.10   0.01   0.02     0.18   0.12   0.37
  10   1    -0.06  -0.02  -0.04     0.06   0.02  -0.01     0.13  -0.01   0.13
  11   1    -0.02  -0.04  -0.04     0.03   0.02   0.04     0.04   0.04   0.09
  12   1    -0.02  -0.04  -0.05     0.02  -0.01   0.01     0.03   0.10   0.16
  13   6    -0.07   0.06   0.03     0.11  -0.05  -0.10     0.19  -0.26  -0.21
  14   1    -0.05   0.03   0.00     0.05  -0.01  -0.04     0.12  -0.11  -0.04
  15   1    -0.01   0.03   0.03     0.02  -0.02  -0.04     0.03  -0.10  -0.13
  16   1    -0.01   0.01   0.01     0.03  -0.01  -0.01     0.05  -0.07  -0.06
  17   6     0.10  -0.07  -0.00    -0.08  -0.12  -0.01    -0.36   0.17  -0.10
  18   1     0.04  -0.01   0.02    -0.04  -0.06  -0.02    -0.14   0.04  -0.12
  19   1     0.04  -0.04  -0.02    -0.03  -0.04   0.00    -0.16   0.11   0.04
  20   1     0.04  -0.03  -0.00    -0.03  -0.02   0.02    -0.10   0.04  -0.03
  21   1     0.00   0.01  -0.00     0.03  -0.02  -0.03     0.01  -0.01   0.02
  22   6     0.17   0.07   0.03    -0.05   0.08   0.08     0.05   0.01  -0.02
  23   8     0.21  -0.00  -0.05    -0.03  -0.01  -0.06     0.06   0.04  -0.04
  24   7     0.18   0.05   0.01    -0.05  -0.01   0.00     0.02   0.03   0.02
  25   1     0.05   0.00  -0.01    -0.02  -0.02  -0.02    -0.00   0.01   0.01
  26   1     0.04   0.03   0.03    -0.03   0.02   0.05     0.01   0.00   0.01
  27   7     0.14   0.20   0.16    -0.09   0.34   0.36     0.08  -0.03  -0.06
  28   1     0.03   0.06   0.05    -0.02   0.08   0.10     0.02  -0.00  -0.01
  29   1     0.03   0.04   0.04    -0.01   0.05   0.06     0.02  -0.00  -0.01
  30   6    -0.02  -0.09   0.14     0.01  -0.01   0.01    -0.03  -0.02   0.04
  31   8    -0.03  -0.05   0.10     0.04  -0.17  -0.10    -0.04   0.02   0.06
  32   7     0.02   0.01   0.28    -0.02   0.20   0.17    -0.02  -0.03   0.05
  33   1     0.02   0.01   0.07    -0.01   0.04   0.03     0.00  -0.00   0.01
  34   1     0.01  -0.03   0.08    -0.01   0.08   0.06    -0.00  -0.02   0.01
  35   7    -0.07  -0.27   0.09     0.01  -0.05  -0.01    -0.04  -0.08   0.02
  36   1    -0.02  -0.08   0.04     0.01   0.02   0.02    -0.01  -0.03   0.00
  37   1    -0.03  -0.09  -0.00     0.01  -0.05  -0.03    -0.01  -0.02   0.00
  38   6    -0.03   0.13  -0.12    -0.02   0.04  -0.05    -0.10   0.05  -0.07
  39   8    -0.03   0.10  -0.08    -0.14  -0.05  -0.16    -0.08   0.03  -0.00
  40   7    -0.15  -0.03  -0.27     0.13   0.24   0.09    -0.13  -0.03  -0.18
  41   1    -0.01  -0.01  -0.07     0.01   0.04   0.01    -0.01  -0.01  -0.04
  42   1    -0.02   0.02  -0.08     0.04   0.06   0.04    -0.04   0.00  -0.06
  43   7     0.05   0.34  -0.05    -0.02  -0.03  -0.07    -0.14   0.15  -0.06
  44   1    -0.00   0.09  -0.04     0.02   0.01   0.00    -0.05   0.04  -0.04
  45   1     0.02   0.11   0.00    -0.03  -0.04  -0.04    -0.04   0.05   0.00
  46   6     0.00  -0.08  -0.03    -0.02   0.01   0.09     0.01  -0.03  -0.01
  47   8     0.08  -0.18  -0.12    -0.00   0.07   0.30     0.02  -0.06  -0.05
  48   7    -0.10  -0.15   0.06     0.02   0.10  -0.08    -0.02  -0.05   0.02
  49   1    -0.03  -0.07   0.02     0.03   0.05  -0.00    -0.01  -0.02   0.00
  50   1    -0.04  -0.02   0.04     0.01   0.01  -0.05    -0.01  -0.01   0.01
  51   7     0.01   0.06  -0.02    -0.10  -0.15   0.03     0.01   0.02  -0.01
  52   1    -0.01   0.03   0.01    -0.03  -0.05  -0.03    -0.00   0.01   0.00
  53   1     0.02   0.03  -0.02    -0.04  -0.06   0.04     0.01   0.01  -0.01
                     13                     14                     15
                        a                      a                      a 
 Frequencies --    72.2597                80.7241                87.0872
 Red. masses --    12.6615                13.2305                13.4057
 Frc consts  --     0.0000                 0.0000                 0.0000
 IR Inten    --     9.6631                 9.3879                 4.4642
 Raman Activ --     0.0000                 0.0000                 0.0000
 Depolar     --     0.0000                 0.0000                 0.0000
 Atom AN      X      Y      Z        X      Y      Z        X      Y      Z
   1   8     0.08   0.04   0.12     0.10   0.05  -0.30     0.07   0.09   0.01
   2   6     0.06   0.03   0.07     0.09  -0.01  -0.11     0.01   0.02  -0.04
   3   1     0.01   0.02   0.01     0.04  -0.02  -0.02    -0.02   0.01  -0.01
   4   1     0.02   0.01   0.03     0.04  -0.02  -0.03     0.01  -0.00  -0.02
   5   6     0.06  -0.04   0.03    -0.03   0.06  -0.01     0.02  -0.03  -0.08
   6   1     0.03  -0.02   0.02    -0.01   0.04  -0.02     0.01  -0.02  -0.02
   7   1     0.02  -0.01  -0.00    -0.01  -0.00   0.03     0.00  -0.01  -0.03
   8   7     0.06  -0.04   0.01    -0.11   0.13   0.04     0.01  -0.04  -0.11
   9   6     0.04  -0.04  -0.04    -0.07   0.21   0.04     0.00  -0.03  -0.13
  10   1     0.00  -0.00  -0.02    -0.01   0.06   0.01    -0.00   0.00  -0.05
  11   1     0.01  -0.01  -0.01    -0.04   0.07   0.01     0.00  -0.01  -0.02
  12   1     0.02  -0.02  -0.02    -0.01   0.07   0.01    -0.00  -0.02  -0.05
  13   6     0.02  -0.03   0.03    -0.12   0.12   0.05    -0.01  -0.03  -0.08
  14   1    -0.00  -0.01   0.01    -0.02   0.04   0.01    -0.01  -0.01  -0.02
  15   1     0.01  -0.01   0.02    -0.04   0.02   0.01    -0.00  -0.01  -0.02
  16   1     0.00  -0.01   0.00    -0.04   0.04   0.02    -0.00  -0.01  -0.03
  17   6     0.09  -0.04   0.00    -0.17   0.10   0.07     0.03  -0.05  -0.09
  18   1     0.03  -0.02   0.02    -0.06   0.03  -0.00     0.01  -0.02  -0.01
  19   1     0.04  -0.01  -0.01    -0.07   0.02   0.03     0.02  -0.02  -0.03
  20   1     0.01  -0.01  -0.01    -0.03   0.03   0.04     0.00  -0.01  -0.02
  21   1     0.02   0.01   0.03     0.01   0.01  -0.07     0.03   0.02   0.00
  22   6    -0.05  -0.06  -0.09    -0.04  -0.03  -0.03    -0.00   0.05   0.05
  23   8    -0.11   0.16   0.06    -0.04  -0.05  -0.04    -0.01   0.08   0.06
  24   7    -0.04  -0.35  -0.35    -0.02  -0.05  -0.07    -0.11   0.38   0.41
  25   1    -0.02  -0.05  -0.06     0.00  -0.01  -0.01    -0.03   0.07   0.07
  26   1    -0.00  -0.12  -0.11    -0.01  -0.00  -0.02    -0.01   0.06   0.07
  27   7    -0.02  -0.06  -0.06    -0.05   0.00   0.00     0.10  -0.30  -0.32
  28   1     0.01  -0.07  -0.05    -0.01   0.00   0.00     0.02  -0.04  -0.04
  29   1    -0.01   0.03   0.02    -0.01   0.01   0.01     0.02  -0.05  -0.06
  30   6    -0.00   0.09   0.05     0.01   0.06   0.00     0.01   0.05   0.04
  31   8    -0.03   0.22   0.17     0.01   0.10   0.04    -0.01   0.18   0.11
  32   7    -0.09   0.37   0.21    -0.02   0.18   0.08     0.01   0.10   0.08
  33   1    -0.03   0.11   0.08    -0.01   0.05   0.02     0.00   0.03   0.03
  34   1    -0.01   0.05   0.03     0.00   0.03   0.01     0.01  -0.01   0.00
  35   7     0.10  -0.30  -0.24     0.05  -0.09  -0.11     0.02  -0.13  -0.07
  36   1     0.02  -0.08  -0.09     0.01  -0.02  -0.04     0.01  -0.05  -0.03
  37   1     0.03  -0.11  -0.09     0.02  -0.04  -0.04    -0.00  -0.03  -0.02
  38   6    -0.04  -0.03   0.00     0.05  -0.02   0.06    -0.02  -0.03  -0.05
  39   8    -0.04  -0.02  -0.00     0.12   0.04   0.12    -0.14  -0.08  -0.19
  40   7    -0.14  -0.12  -0.03     0.09  -0.00   0.06    -0.07  -0.02   0.02
  41   1    -0.03  -0.02  -0.00     0.02  -0.00   0.02    -0.02   0.00   0.01
  42   1    -0.03  -0.03  -0.00    -0.00  -0.02   0.00     0.02   0.02   0.03
  43   7     0.04   0.03   0.05    -0.07  -0.14   0.00     0.17   0.03   0.02
  44   1     0.00  -0.00   0.01    -0.02  -0.04  -0.00     0.06   0.00   0.02
  45   1     0.02   0.02   0.01    -0.02  -0.03   0.01     0.04  -0.01  -0.02
  46   6    -0.01   0.06   0.01     0.09  -0.16   0.04    -0.01  -0.04   0.10
  47   8    -0.08   0.11   0.03     0.42  -0.34   0.14     0.08  -0.04   0.28
  48   7     0.06   0.09  -0.02    -0.19  -0.21   0.02    -0.05   0.01  -0.02
  49   1     0.01   0.04  -0.01    -0.01  -0.11   0.05     0.02   0.01   0.02
  50   1     0.03   0.01  -0.01    -0.10  -0.03   0.01    -0.02  -0.00  -0.02
  51   7     0.00  -0.02   0.02    -0.05   0.04  -0.09    -0.10  -0.12   0.04
  52   1     0.01  -0.02  -0.00    -0.07   0.04  -0.03    -0.05  -0.03  -0.03
  53   1    -0.01  -0.01   0.01     0.05   0.02  -0.01    -0.02  -0.04   0.03
                     16                     17                     18
                        a                      a                      a 
 Frequencies --    93.9763                98.1836               116.5800
 Red. masses --    13.4001                12.2312                10.9504
 Frc consts  --     0.0000                 0.0000                 0.0000
 IR Inten    --     0.2210                 4.2385                11.8007
 Raman Activ --     0.0000                 0.0000                 0.0000
 Depolar     --     0.0000                 0.0000                 0.0000
 Atom AN      X      Y      Z        X      Y      Z        X      Y      Z
   1   8    -0.17  -0.20  -0.15     0.08   0.20   0.06     0.18   0.11   0.20
   2   6    -0.12  -0.12  -0.11    -0.02   0.10  -0.13    -0.09  -0.21  -0.10
   3   1    -0.03  -0.06  -0.01    -0.06   0.03  -0.03    -0.14  -0.06  -0.00
   4   1    -0.05  -0.03  -0.06    -0.01   0.01  -0.08    -0.00  -0.12  -0.10
   5   6    -0.02   0.02  -0.06     0.13   0.06  -0.22     0.05  -0.29  -0.22
   6   1    -0.01   0.03  -0.03     0.08   0.02  -0.07     0.11  -0.08  -0.07
   7   1    -0.00   0.02  -0.02     0.02   0.01  -0.11    -0.02  -0.14  -0.12
   8   7     0.07   0.00   0.05     0.17   0.10  -0.10    -0.08  -0.15  -0.04
   9   6     0.08  -0.04   0.13     0.17   0.12  -0.06    -0.02   0.07  -0.06
  10   1     0.03  -0.02   0.04     0.06   0.06  -0.04     0.02   0.06  -0.05
  11   1     0.03  -0.02   0.04     0.06   0.04   0.01    -0.03   0.05   0.03
  12   1     0.01  -0.01   0.05     0.04   0.01  -0.02    -0.00  -0.00  -0.03
  13   6     0.17   0.07   0.02     0.19   0.18  -0.07    -0.11  -0.05   0.04
  14   1     0.06   0.03  -0.00     0.05   0.06  -0.03    -0.03   0.01  -0.01
  15   1     0.05   0.02  -0.01     0.06   0.06  -0.02    -0.03  -0.03   0.03
  16   1     0.06   0.02   0.03     0.07   0.05  -0.01    -0.04   0.00   0.03
  17   6     0.04  -0.04   0.09     0.11   0.00   0.01    -0.18  -0.26   0.10
  18   1     0.01  -0.01   0.02     0.03  -0.03   0.02    -0.06  -0.13   0.05
  19   1    -0.00  -0.02   0.03     0.05  -0.01  -0.01    -0.03  -0.09   0.01
  20   1     0.02  -0.01   0.04     0.01   0.02   0.02    -0.09  -0.04   0.06
  21   1    -0.05  -0.04  -0.05     0.05   0.04   0.02     0.12   0.02   0.04
  22   6    -0.05  -0.02  -0.02     0.02   0.03   0.02     0.04   0.07   0.04
  23   8    -0.02  -0.18  -0.18     0.00   0.13   0.13     0.03   0.18   0.10
  24   7    -0.09   0.20   0.21     0.04  -0.08  -0.09     0.00   0.06   0.07
  25   1    -0.02   0.03   0.04     0.00   0.01   0.00    -0.01   0.02   0.02
  26   1    -0.03   0.07   0.06     0.01  -0.03  -0.03     0.01  -0.01   0.01
  27   7    -0.03  -0.07  -0.07     0.03   0.00  -0.01     0.09  -0.03  -0.05
  28   1    -0.02   0.03   0.04     0.01  -0.02  -0.03     0.03  -0.02  -0.02
  29   1    -0.00  -0.01  -0.01     0.00   0.00   0.00     0.02  -0.01  -0.01
  30   6     0.02   0.08   0.03    -0.02  -0.02  -0.03    -0.06   0.01  -0.03
  31   8     0.01   0.18   0.08    -0.02  -0.05  -0.03    -0.07  -0.03   0.01
  32   7     0.00   0.24   0.15    -0.03  -0.08  -0.09    -0.11   0.02  -0.07
  33   1     0.00   0.05   0.03    -0.01  -0.01  -0.01    -0.04   0.01  -0.01
  34   1     0.01   0.03   0.02    -0.01  -0.01  -0.02    -0.03   0.01  -0.03
  35   7     0.05  -0.16  -0.12    -0.02   0.08   0.02    -0.01   0.06  -0.05
  36   1     0.01  -0.04  -0.04    -0.01   0.02   0.00    -0.00   0.03  -0.02
  37   1     0.01  -0.06  -0.05    -0.00   0.03   0.02     0.01   0.02  -0.01
  38   6     0.08   0.02   0.06    -0.03   0.04   0.08     0.01   0.04   0.11
  39   8     0.18   0.04   0.20     0.05   0.14   0.12     0.11   0.10   0.23
  40   7     0.20   0.06  -0.01    -0.11  -0.04   0.05    -0.01  -0.03   0.03
  41   1     0.05  -0.01  -0.01    -0.02   0.01   0.02     0.01   0.00   0.02
  42   1     0.01  -0.01  -0.04    -0.04  -0.02   0.01    -0.03  -0.02  -0.01
  43   7    -0.12  -0.02  -0.00    -0.05  -0.00   0.06    -0.11   0.03   0.09
  44   1    -0.04   0.01  -0.02    -0.04  -0.02   0.01    -0.05   0.01   0.00
  45   1    -0.04   0.01   0.02    -0.01   0.01   0.02    -0.02   0.03   0.05
  46   6    -0.08  -0.01  -0.09    -0.17  -0.20   0.06     0.08   0.07  -0.09
  47   8    -0.30   0.03  -0.31    -0.28  -0.21   0.00     0.12   0.05  -0.16
  48   7     0.03  -0.06   0.06    -0.14  -0.24   0.10     0.07   0.04  -0.03
  49   1    -0.03  -0.01  -0.02    -0.03  -0.06   0.03    -0.01   0.00  -0.03
  50   1     0.03  -0.02   0.04    -0.00  -0.07   0.06    -0.01   0.02  -0.02
  51   7     0.06  -0.01   0.03    -0.12  -0.27   0.13     0.10   0.17  -0.10
  52   1     0.05  -0.01   0.04    -0.04  -0.07   0.02     0.05   0.05   0.02
  53   1    -0.02   0.01  -0.03    -0.07  -0.07   0.01     0.06   0.05  -0.02
                     19                     20                     21
                        a                      a                      a 
 Frequencies --   118.9750               126.6356               147.1729
 Red. masses --    12.0896                12.5443                13.8036
 Frc consts  --     0.0000                 0.0000                 0.0000
 IR Inten    --    22.3039                13.8937                14.0993
 Raman Activ --     0.0000                 0.0000                 0.0000
 Depolar     --     0.0000                 0.0000                 0.0000
 Atom AN      X      Y      Z        X      Y      Z        X      Y      Z
   1   8    -0.04   0.01   0.04     0.01   0.08   0.03    -0.01  -0.05   0.09
   2   6     0.04   0.12   0.07    -0.02   0.02   0.01     0.03   0.04   0.04
   3   1     0.05   0.06  -0.01    -0.02  -0.00   0.01     0.02   0.03  -0.01
   4   1     0.01   0.06   0.07    -0.00  -0.00  -0.01     0.00   0.03   0.04
   5   6    -0.03   0.02   0.04     0.01   0.06   0.02     0.04  -0.04  -0.01
   6   1    -0.04  -0.02   0.04     0.01   0.02   0.00     0.03  -0.02   0.00
   7   1     0.00   0.03   0.03     0.00   0.01   0.00     0.00  -0.02  -0.02
   8   7    -0.02  -0.07  -0.16     0.02   0.08   0.09    -0.01  -0.02  -0.05
   9   6    -0.06  -0.17  -0.18     0.02   0.09   0.08    -0.01  -0.00  -0.07
  10   1    -0.04  -0.07  -0.03     0.01   0.03   0.02    -0.01   0.01  -0.03
  11   1    -0.01  -0.06  -0.08     0.00   0.03   0.02    -0.00   0.00  -0.01
  12   1    -0.01  -0.03  -0.05     0.01   0.02   0.02    -0.00  -0.01  -0.03
  13   6    -0.05  -0.16  -0.17     0.03   0.12   0.10    -0.06  -0.04  -0.03
  14   1    -0.02  -0.06  -0.03     0.00   0.04   0.02    -0.01  -0.01  -0.01
  15   1    -0.01  -0.04  -0.05     0.01   0.04   0.03    -0.02  -0.02  -0.00
  16   1    -0.02  -0.05  -0.07     0.01   0.03   0.03    -0.03  -0.01  -0.01
  17   6     0.08   0.04  -0.26     0.02   0.04   0.13    -0.02  -0.01  -0.06
  18   1     0.03   0.04  -0.07     0.01   0.01   0.04    -0.00  -0.01  -0.01
  19   1     0.03   0.03  -0.07     0.01   0.00   0.03     0.01   0.01  -0.02
  20   1     0.03  -0.01  -0.11     0.01   0.02   0.05    -0.02   0.00  -0.03
  21   1    -0.03   0.01   0.00     0.02   0.03  -0.00    -0.01  -0.01   0.03
  22   6     0.05  -0.00  -0.00     0.04  -0.06   0.07    -0.19  -0.06   0.05
  23   8     0.06  -0.01  -0.10     0.02   0.05  -0.04    -0.26   0.03   0.04
  24   7     0.01  -0.01   0.03    -0.07  -0.10   0.15    -0.27  -0.08   0.06
  25   1     0.00  -0.00   0.01    -0.03  -0.04   0.02    -0.08  -0.03   0.02
  26   1    -0.00   0.00   0.02    -0.01  -0.05   0.04    -0.06  -0.04  -0.01
  27   7     0.07   0.03   0.05     0.15  -0.11   0.10    -0.14  -0.13   0.03
  28   1     0.02   0.02   0.03     0.04  -0.04   0.04    -0.03  -0.05   0.02
  29   1     0.02   0.00   0.01     0.04  -0.03   0.04    -0.02  -0.02   0.01
  30   6    -0.08   0.02  -0.03    -0.13  -0.03   0.01     0.08  -0.09   0.11
  31   8    -0.09  -0.06   0.05    -0.14  -0.29   0.25     0.09  -0.13   0.15
  32   7    -0.18   0.07  -0.06    -0.44   0.10  -0.12     0.04  -0.11   0.07
  33   1    -0.06   0.01  -0.02    -0.16   0.01  -0.02    -0.00  -0.03   0.03
  34   1    -0.05   0.02  -0.03    -0.12   0.05  -0.08     0.01  -0.00   0.02
  35   7     0.01   0.05  -0.08     0.17   0.14  -0.12     0.14  -0.04   0.12
  36   1     0.00   0.03  -0.04     0.05   0.10  -0.09     0.04  -0.00   0.02
  37   1     0.02   0.01  -0.01     0.12   0.01  -0.00     0.05  -0.01   0.04
  38   6     0.09   0.02   0.11     0.06  -0.05  -0.16     0.13   0.21  -0.13
  39   8     0.23  -0.04   0.41    -0.03  -0.21  -0.20     0.35   0.48  -0.09
  40   7     0.25   0.00  -0.11     0.17   0.02  -0.18     0.01   0.13  -0.11
  41   1     0.09  -0.03  -0.03     0.05  -0.01  -0.05    -0.01   0.06  -0.03
  42   1     0.03  -0.00  -0.08     0.07   0.03  -0.04    -0.06  -0.03  -0.04
  43   7    -0.24   0.15   0.06     0.09   0.05  -0.14     0.07  -0.03  -0.23
  44   1    -0.08   0.08  -0.04     0.04   0.03  -0.04    -0.01  -0.05  -0.06
  45   1    -0.09   0.06   0.08     0.00  -0.01  -0.04     0.06   0.03  -0.06
  46   6    -0.01  -0.01   0.10    -0.01  -0.01  -0.02     0.00  -0.01   0.01
  47   8     0.04   0.01   0.24    -0.02  -0.02  -0.06     0.02  -0.01   0.02
  48   7    -0.02   0.05  -0.02    -0.01  -0.03   0.01     0.00  -0.00   0.01
  49   1     0.02   0.02   0.02    -0.00  -0.01   0.00    -0.01  -0.00  -0.01
  50   1    -0.00   0.00  -0.02     0.01  -0.01   0.02    -0.02   0.00  -0.01
  51   7    -0.09  -0.09   0.03     0.02   0.01   0.00    -0.01   0.00  -0.01
  52   1    -0.03  -0.03  -0.01    -0.00   0.01  -0.00     0.01  -0.00   0.01
  53   1    -0.02  -0.04   0.04    -0.00   0.01  -0.02     0.01  -0.00   0.01
                     22                     23                     24
                        a                      a                      a 
 Frequencies --   159.6043               161.0130               181.3146
 Red. masses --     4.0457                12.6672                11.2100
 Frc consts  --     0.0000                 0.0000                 0.0000
 IR Inten    --     6.2798                 2.4578                13.7542
 Raman Activ --     0.0000                 0.0000                 0.0000
 Depolar     --     0.0000                 0.0000                 0.0000
 Atom AN      X      Y      Z        X      Y      Z        X      Y      Z
   1   8     0.00   0.02  -0.06     0.02   0.06   0.09     0.11   0.21  -0.41
   2   6     0.00   0.01  -0.01    -0.00   0.05   0.01    -0.04  -0.16  -0.12
   3   1     0.01  -0.00  -0.00    -0.01   0.02   0.00    -0.05  -0.10   0.02
   4   1     0.00  -0.00  -0.00    -0.00   0.02  -0.00     0.03  -0.12  -0.09
   5   6    -0.02   0.03   0.02     0.06  -0.00  -0.05    -0.21   0.06   0.10
   6   1    -0.02   0.01   0.00     0.05  -0.01  -0.01    -0.16   0.04   0.01
   7   1     0.00   0.02   0.02     0.00  -0.02  -0.04    -0.02   0.07   0.11
   8   7     0.01   0.01  -0.00     0.02   0.06   0.02    -0.03  -0.09   0.06
   9   6     0.00  -0.03   0.02     0.02   0.11  -0.02    -0.05  -0.25   0.15
  10   1    -0.00  -0.02   0.01     0.01   0.05  -0.02    -0.02  -0.17   0.12
  11   1     0.00  -0.02  -0.01     0.00   0.04   0.02    -0.02  -0.11  -0.06
  12   1     0.00  -0.00   0.01     0.01   0.01  -0.02     0.00   0.02   0.09
  13   6     0.03  -0.01  -0.02    -0.02   0.09   0.06     0.14  -0.08  -0.05
  14   1     0.01  -0.01  -0.00    -0.02   0.03   0.02     0.08  -0.02  -0.02
  15   1     0.01   0.00  -0.01     0.00   0.03   0.03     0.02  -0.03  -0.06
  16   1     0.01  -0.01  -0.01    -0.00   0.02   0.01     0.05  -0.02   0.02
  17   6     0.02   0.01  -0.01     0.01  -0.00   0.08     0.03  -0.04  -0.00
  18   1     0.00   0.01  -0.01     0.00  -0.03   0.05     0.01   0.08  -0.07
  19   1    -0.01  -0.00   0.00     0.03  -0.00   0.00    -0.08  -0.05   0.05
  20   1     0.02  -0.00   0.00    -0.02   0.02   0.03     0.11  -0.06   0.01
  21   1    -0.00   0.00  -0.01     0.00   0.02   0.01     0.05   0.06  -0.11
  22   6     0.03  -0.01   0.01    -0.14   0.11  -0.07    -0.02   0.16  -0.02
  23   8     0.04  -0.03   0.02    -0.20   0.28  -0.09    -0.07   0.39   0.06
  24   7     0.05  -0.00   0.00    -0.29  -0.00  -0.05    -0.10   0.03  -0.08
  25   1     0.02   0.00   0.00    -0.09  -0.01  -0.03    -0.04   0.02  -0.01
  26   1     0.01   0.01   0.00    -0.06  -0.06  -0.03    -0.01  -0.04  -0.04
  27   7     0.01  -0.01   0.01    -0.04   0.05  -0.06     0.11   0.04  -0.08
  28   1     0.00   0.00  -0.00    -0.00  -0.02  -0.01     0.04  -0.04  -0.04
  29   1     0.00  -0.00   0.00     0.00   0.03  -0.02     0.03   0.02  -0.02
  30   6    -0.02   0.01  -0.01     0.08  -0.07   0.07     0.02  -0.08   0.07
  31   8    -0.02  -0.01   0.01     0.09   0.03  -0.04     0.03  -0.12   0.10
  32   7    -0.04   0.03  -0.02     0.23  -0.18   0.08    -0.02  -0.10   0.01
  33   1    -0.01   0.00  -0.00     0.07  -0.03   0.03    -0.01  -0.01   0.03
  34   1    -0.01   0.01  -0.01     0.05  -0.04   0.05    -0.01  -0.00   0.01
  35   7     0.01   0.02  -0.03    -0.06  -0.10   0.17     0.08   0.00   0.08
  36   1     0.00   0.01  -0.01    -0.02  -0.06   0.07     0.02   0.01   0.00
  37   1     0.01   0.00  -0.01    -0.05  -0.01   0.03     0.04  -0.00   0.03
  38   6    -0.01   0.01   0.00     0.05  -0.12  -0.05     0.01   0.01   0.04
  39   8    -0.01   0.05  -0.03    -0.03  -0.43   0.08     0.04   0.05   0.05
  40   7    -0.05   0.01   0.04     0.30  -0.05  -0.21    -0.04  -0.03   0.03
  41   1    -0.02   0.01   0.01     0.08  -0.04  -0.07    -0.01   0.01   0.02
  42   1    -0.02  -0.01   0.01     0.09   0.02  -0.08    -0.01  -0.01   0.01
  43   7     0.02  -0.03   0.00    -0.10   0.16  -0.02     0.01  -0.03   0.03
  44   1     0.01  -0.01   0.01    -0.01   0.10  -0.04     0.00  -0.01   0.01
  45   1     0.02   0.00  -0.01    -0.09   0.02   0.03     0.01   0.01   0.01
  46   6    -0.02  -0.02   0.02     0.00  -0.01  -0.00    -0.01   0.02   0.00
  47   8    -0.02  -0.02   0.03     0.01  -0.02  -0.01    -0.03   0.03  -0.00
  48   7     0.22  -0.05   0.22     0.03  -0.02   0.04    -0.00   0.03  -0.02
  49   1    -0.27   0.05  -0.27    -0.05   0.00  -0.04     0.02   0.01   0.01
  50   1    -0.35   0.04  -0.32    -0.06   0.00  -0.05     0.03   0.00   0.02
  51   7    -0.24   0.03  -0.21    -0.04   0.01  -0.04     0.01  -0.01   0.02
  52   1     0.31  -0.12   0.34     0.05  -0.02   0.06    -0.02   0.00  -0.02
  53   1     0.26  -0.07   0.28     0.05  -0.01   0.04    -0.02   0.00  -0.01
                     25                     26                     27
                        a                      a                      a 
 Frequencies --   201.3192               221.0549               237.5056
 Red. masses --    13.0056                12.1168                12.8293
 Frc consts  --     0.0000                 0.0000                 0.0000
 IR Inten    --     5.1564                98.0668                22.1040
 Raman Activ --     0.0000                 0.0000                 0.0000
 Depolar     --     0.0000                 0.0000                 0.0000
 Atom AN      X      Y      Z        X      Y      Z        X      Y      Z
   1   8    -0.15  -0.30   0.07    -0.10  -0.22  -0.06    -0.21  -0.47  -0.21
   2   6     0.03   0.02   0.02     0.03  -0.01  -0.01     0.08  -0.04  -0.06
   3   1     0.07   0.02  -0.02     0.06   0.00  -0.02     0.12   0.00  -0.05
   4   1    -0.03   0.06   0.05    -0.01   0.04   0.03    -0.02   0.07   0.05
   5   6     0.08  -0.02  -0.03     0.03   0.01   0.00     0.03  -0.01  -0.03
   6   1     0.05  -0.01  -0.01     0.01   0.00  -0.00     0.00   0.00  -0.01
   7   1     0.01  -0.02  -0.03     0.01  -0.00   0.00     0.01  -0.01   0.00
   8   7     0.01   0.04  -0.03    -0.00   0.03  -0.00    -0.01   0.02  -0.03
   9   6     0.01   0.08  -0.06    -0.01   0.02  -0.01    -0.01  -0.00  -0.01
  10   1     0.00   0.07  -0.06    -0.01   0.02  -0.02    -0.00   0.09  -0.08
  11   1     0.01   0.04   0.03     0.01   0.01   0.02     0.05   0.01   0.11
  12   1    -0.01  -0.03  -0.04    -0.01  -0.02  -0.01    -0.06  -0.12  -0.04
  13   6    -0.07   0.02   0.01    -0.02   0.02   0.01    -0.01   0.05  -0.02
  14   1    -0.04   0.00   0.01    -0.01   0.00   0.00    -0.04   0.01   0.00
  15   1    -0.01   0.01   0.02    -0.01   0.01   0.01     0.01   0.05   0.01
  16   1    -0.02   0.00  -0.01    -0.01   0.00  -0.00     0.02  -0.01  -0.02
  17   6    -0.02   0.04  -0.03    -0.00   0.04  -0.01    -0.05   0.01  -0.01
  18   1    -0.00  -0.02   0.02     0.00   0.00   0.00    -0.01  -0.05   0.03
  19   1     0.03   0.03  -0.03     0.01   0.02  -0.01     0.03   0.02  -0.03
  20   1    -0.04   0.03  -0.02    -0.01   0.01  -0.01    -0.07   0.03  -0.01
  21   1    -0.07  -0.05  -0.01    -0.06  -0.02  -0.05    -0.14  -0.12  -0.03
  22   6     0.01   0.17  -0.24     0.09  -0.00   0.07     0.02   0.11   0.18
  23   8     0.03   0.14  -0.38     0.06   0.29  -0.19    -0.02   0.29   0.53
  24   7    -0.04   0.20  -0.17    -0.25  -0.25   0.18     0.20   0.04  -0.04
  25   1    -0.02   0.07  -0.04    -0.14  -0.06   0.01     0.09   0.03   0.03
  26   1    -0.02   0.07  -0.01    -0.05  -0.15   0.09     0.07  -0.01  -0.09
  27   7     0.13   0.18  -0.17     0.46  -0.06   0.22    -0.03  -0.03  -0.04
  28   1     0.03   0.04  -0.01     0.13  -0.06   0.10     0.01  -0.06  -0.10
  29   1     0.04   0.05  -0.05     0.16   0.01   0.05    -0.03  -0.00   0.01
  30   6     0.02  -0.11   0.14    -0.05   0.07  -0.10    -0.01   0.01  -0.00
  31   8     0.04  -0.23   0.24    -0.07   0.14  -0.16    -0.01  -0.01   0.02
  32   7    -0.12  -0.06   0.07     0.05   0.02  -0.06    -0.02  -0.01  -0.04
  33   1    -0.04  -0.04   0.02     0.05   0.02  -0.03    -0.02   0.04   0.04
  34   1    -0.04   0.01  -0.00     0.03  -0.04  -0.01    -0.03   0.06   0.04
  35   7     0.24  -0.00   0.07    -0.27  -0.04  -0.05     0.03   0.03  -0.02
  36   1     0.06   0.03  -0.03    -0.07   0.01   0.09     0.01   0.00  -0.03
  37   1     0.12  -0.02   0.04    -0.13   0.04  -0.01     0.02  -0.01  -0.01
  38   6    -0.05  -0.04   0.12     0.01   0.02   0.03     0.02   0.01  -0.04
  39   8    -0.07   0.04   0.05     0.05   0.11  -0.00     0.02  -0.05  -0.00
  40   7    -0.14  -0.06   0.18    -0.07  -0.01   0.06     0.04  -0.01  -0.08
  41   1    -0.04  -0.00   0.05    -0.02   0.02   0.02     0.06   0.03   0.00
  42   1    -0.02  -0.01   0.06    -0.02  -0.01   0.02     0.05   0.03  -0.00
  43   7     0.05  -0.12   0.14     0.10  -0.08   0.02    -0.05   0.08  -0.04
  44   1     0.01  -0.06   0.06    -0.01  -0.07   0.02    -0.02   0.03  -0.03
  45   1     0.03  -0.04   0.01     0.04  -0.03  -0.02    -0.04   0.01   0.00
  46   6     0.00  -0.01   0.00    -0.00  -0.00  -0.00     0.00  -0.00  -0.00
  47   8     0.01  -0.01   0.00     0.00  -0.00  -0.00    -0.00  -0.00  -0.01
  48   7    -0.00  -0.01   0.01    -0.00  -0.01   0.01    -0.00  -0.00  -0.00
  49   1    -0.01  -0.00  -0.00    -0.01  -0.00  -0.00     0.00  -0.00   0.00
  50   1    -0.01  -0.00  -0.01    -0.01   0.00  -0.00     0.00  -0.00   0.00
  51   7    -0.00   0.00  -0.00     0.00  -0.00   0.00     0.00   0.00  -0.00
  52   1     0.00  -0.00   0.01    -0.00   0.00  -0.00     0.00  -0.00   0.00
  53   1     0.01  -0.00   0.00    -0.00   0.00  -0.00     0.00   0.00   0.00
                     28                     29                     30
                        a                      a                      a 
 Frequencies --   265.1209               298.1024               312.9040
 Red. masses --     5.5564                 7.8238                 4.5485
 Frc consts  --     0.0000                 0.0000                 0.0000
 IR Inten    --    12.3830                 0.6463                11.4278
 Raman Activ --     0.0000                 0.0000                 0.0000
 Depolar     --     0.0000                 0.0000                 0.0000
 Atom AN      X      Y      Z        X      Y      Z        X      Y      Z
   1   8     0.01   0.26  -0.22    -0.25   0.10  -0.22     0.10   0.04   0.06
   2   6     0.08   0.26   0.07    -0.21  -0.01   0.02    -0.14  -0.30  -0.05
   3   1     0.10   0.13  -0.05    -0.06  -0.02   0.02    -0.16  -0.16   0.08
   4   1     0.06   0.09   0.14    -0.06  -0.02  -0.02    -0.03  -0.17  -0.18
   5   6    -0.12  -0.03   0.02    -0.02   0.04   0.04    -0.00   0.08   0.11
   6   1    -0.02  -0.04   0.03    -0.01   0.00   0.02    -0.05   0.06   0.01
   7   1    -0.04  -0.01  -0.02     0.00   0.05  -0.02     0.02   0.05   0.07
   8   7    -0.06  -0.11   0.02     0.13  -0.06   0.05     0.03   0.07   0.05
   9   6    -0.03  -0.15   0.13     0.22   0.32  -0.02     0.04   0.07   0.05
  10   1     0.00   0.12  -0.10     0.13  -0.00   0.07     0.01   0.27  -0.20
  11   1     0.07  -0.02   0.23    -0.07   0.13  -0.11     0.12   0.06   0.31
  12   1    -0.10  -0.23  -0.02     0.16   0.24   0.02    -0.11  -0.27  -0.08
  13   6     0.15  -0.02  -0.06    -0.14  -0.39   0.04    -0.08  -0.16  -0.01
  14   1    -0.07  -0.04   0.03     0.03  -0.15   0.03    -0.18  -0.13   0.10
  15   1     0.10   0.15  -0.02    -0.08  -0.22   0.02     0.05   0.12   0.04
  16   1     0.15  -0.11  -0.08    -0.15  -0.06  -0.03     0.05  -0.17  -0.16
  17   6    -0.11  -0.19   0.12     0.20  -0.06   0.04     0.11   0.26  -0.15
  18   1    -0.01  -0.30   0.27     0.09  -0.15   0.19     0.05   0.09  -0.02
  19   1     0.23   0.04  -0.12     0.24   0.04  -0.10     0.06   0.11  -0.05
  20   1    -0.31   0.08  -0.01    -0.12   0.05  -0.04     0.01   0.06  -0.11
  21   1    -0.03   0.05  -0.03    -0.07   0.03  -0.06     0.10   0.02  -0.02
  22   6     0.00  -0.02  -0.03     0.01   0.01   0.02    -0.01  -0.01  -0.01
  23   8     0.01  -0.05  -0.09     0.00   0.03   0.04    -0.01  -0.01  -0.02
  24   7    -0.03   0.00   0.01     0.02   0.00  -0.00    -0.02  -0.01  -0.00
  25   1    -0.01  -0.01  -0.01     0.01   0.00   0.00    -0.00  -0.00  -0.00
  26   1    -0.01   0.00   0.01     0.01  -0.00  -0.01    -0.00  -0.01  -0.01
  27   7     0.02   0.01   0.01     0.01  -0.00   0.00    -0.02  -0.00  -0.00
  28   1     0.00   0.01   0.02     0.01  -0.01  -0.01    -0.01   0.00  -0.00
  29   1     0.01   0.00  -0.00     0.00   0.00   0.00    -0.01  -0.00  -0.00
  30   6     0.00  -0.01  -0.00    -0.00   0.00  -0.00     0.01  -0.00   0.00
  31   8     0.00  -0.01  -0.00    -0.00  -0.00   0.00     0.01   0.00  -0.00
  32   7    -0.00   0.00   0.01     0.00  -0.01  -0.01    -0.00   0.01   0.01
  33   1     0.00  -0.01  -0.01    -0.00   0.01   0.01     0.00  -0.01  -0.01
  34   1     0.01  -0.02  -0.01    -0.01   0.02   0.02     0.01  -0.03  -0.03
  35   7    -0.00   0.00   0.01     0.00   0.01   0.01    -0.00  -0.02  -0.02
  36   1    -0.00  -0.00   0.00    -0.00  -0.02  -0.02     0.00   0.06   0.05
  37   1    -0.00   0.00   0.00     0.00  -0.01  -0.01    -0.00   0.02   0.02
  38   6     0.00   0.01   0.01     0.00   0.01  -0.00     0.01   0.00   0.00
  39   8     0.01   0.03   0.01     0.00   0.01  -0.00     0.02   0.00   0.01
  40   7    -0.01  -0.00   0.01    -0.01   0.00  -0.00    -0.00  -0.00  -0.01
  41   1    -0.00   0.00   0.00     0.00   0.00   0.00     0.01   0.01   0.00
  42   1    -0.00   0.00   0.00    -0.00  -0.00   0.00     0.03   0.03   0.01
  43   7     0.01  -0.02   0.00    -0.01  -0.00  -0.01     0.02   0.02  -0.00
  44   1    -0.00  -0.01   0.00     0.00   0.00   0.00    -0.07  -0.06  -0.03
  45   1     0.01  -0.00  -0.00     0.00   0.01   0.00    -0.03  -0.04  -0.01
  46   6     0.01  -0.00  -0.01     0.01  -0.00   0.01    -0.02   0.01  -0.01
  47   8     0.01  -0.00  -0.02     0.03  -0.01   0.02     0.00  -0.00   0.00
  48   7     0.00   0.00  -0.01    -0.00  -0.00  -0.01     0.03  -0.00   0.04
  49   1     0.01  -0.00   0.00     0.01  -0.00   0.01    -0.04   0.01  -0.04
  50   1     0.01  -0.00   0.01    -0.00  -0.00  -0.00    -0.07   0.01  -0.06
  51   7     0.01   0.03  -0.01    -0.00   0.01  -0.01     0.02  -0.03   0.04
  52   1     0.00   0.01   0.00    -0.00   0.00   0.00    -0.06   0.01  -0.06
  53   1     0.01   0.01  -0.01     0.01   0.00   0.00    -0.04   0.00  -0.03
                     31                     32                     33
                        a                      a                      a 
 Frequencies --   319.6986               320.6147               327.8289
 Red. masses --     2.8077                 2.9624                 3.0001
 Frc consts  --     0.0000                 0.0000                 0.0000
 IR Inten    --    32.9059               381.4595               295.0712
 Raman Activ --     0.0000                 0.0000                 0.0000
 Depolar     --     0.0000                 0.0000                 0.0000
 Atom AN      X      Y      Z        X      Y      Z        X      Y      Z
   1   8     0.04  -0.02   0.04    -0.03   0.04  -0.04     0.02   0.00   0.02
   2   6    -0.01  -0.06  -0.02     0.01   0.07   0.04    -0.01  -0.04   0.00
   3   1    -0.03  -0.03   0.01     0.03   0.03  -0.00    -0.02  -0.02   0.01
   4   1    -0.00  -0.03  -0.04     0.01   0.03   0.05    -0.00  -0.02  -0.02
   5   6     0.01   0.01   0.01    -0.02  -0.01   0.01    -0.01   0.01   0.03
   6   1    -0.00   0.01  -0.01    -0.00  -0.01   0.01    -0.02   0.01   0.00
   7   1     0.00   0.00   0.01    -0.00   0.00  -0.00     0.00   0.01   0.02
   8   7    -0.00   0.02   0.01     0.00  -0.04  -0.01     0.00   0.00   0.01
   9   6    -0.01  -0.02   0.02     0.01   0.02  -0.04    -0.00   0.00  -0.01
  10   1    -0.01   0.02  -0.01     0.01   0.03  -0.03    -0.00   0.01  -0.01
  11   1     0.02  -0.01   0.04    -0.00   0.02   0.01    -0.00   0.00  -0.00
  12   1    -0.02  -0.04  -0.00     0.01  -0.01  -0.02     0.00  -0.00  -0.01
  13   6    -0.01   0.01   0.00     0.02  -0.02  -0.01     0.02   0.00  -0.01
  14   1    -0.05  -0.02   0.02     0.07   0.02  -0.03     0.03   0.01  -0.01
  15   1     0.02   0.06   0.01    -0.02  -0.07  -0.02    -0.00  -0.01  -0.01
  16   1     0.02  -0.03  -0.04    -0.02   0.04   0.05    -0.00   0.01   0.01
  17   6     0.01   0.07  -0.04    -0.03  -0.09   0.04     0.00   0.01  -0.01
  18   1     0.01   0.01   0.01    -0.02   0.02  -0.05     0.00  -0.00   0.01
  19   1     0.02   0.04  -0.02    -0.07  -0.06   0.05     0.01   0.01  -0.01
  20   1    -0.02   0.02  -0.03     0.06  -0.04   0.05    -0.02   0.01  -0.01
  21   1     0.03   0.01  -0.02    -0.02   0.01  -0.00     0.01  -0.00   0.01
  22   6     0.02  -0.01   0.00     0.01  -0.01  -0.01    -0.01  -0.01  -0.01
  23   8     0.02   0.00  -0.04     0.01  -0.02  -0.03    -0.00  -0.01  -0.01
  24   7    -0.03  -0.04   0.03    -0.01  -0.01   0.01    -0.01  -0.00  -0.00
  25   1    -0.02  -0.01   0.00    -0.01  -0.00   0.00    -0.00  -0.00   0.00
  26   1    -0.01  -0.02   0.02    -0.00  -0.00   0.01    -0.00   0.00   0.00
  27   7     0.05  -0.01   0.02    -0.00   0.00   0.00    -0.02   0.00  -0.00
  28   1     0.01   0.00   0.02    -0.00   0.01   0.01    -0.01   0.00  -0.00
  29   1     0.01   0.00   0.01    -0.00   0.00   0.00    -0.01  -0.00  -0.00
  30   6    -0.03  -0.00  -0.03    -0.01  -0.00  -0.01     0.00  -0.00   0.00
  31   8    -0.02   0.01  -0.03    -0.01   0.00  -0.01     0.00   0.00  -0.00
  32   7     0.03  -0.04  -0.04     0.01  -0.02  -0.02    -0.00   0.01   0.01
  33   1    -0.01   0.04   0.04    -0.01   0.02   0.02    -0.00  -0.01  -0.00
  34   1    -0.08   0.21   0.18    -0.04   0.11   0.09     0.00  -0.01  -0.01
  35   7     0.00   0.22   0.19     0.01   0.11   0.09     0.00  -0.01  -0.00
  36   1    -0.02  -0.58  -0.46    -0.01  -0.28  -0.22     0.00   0.02   0.01
  37   1    -0.02  -0.17  -0.20    -0.00  -0.08  -0.10     0.00   0.01   0.01
  38   6    -0.00   0.01   0.00     0.01  -0.00   0.01     0.00  -0.00   0.00
  39   8    -0.01   0.02  -0.01     0.02  -0.00   0.03     0.02  -0.01   0.02
  40   7     0.02   0.01   0.01    -0.06  -0.02  -0.01    -0.05  -0.02  -0.01
  41   1    -0.02  -0.02  -0.01     0.05   0.04   0.03     0.04   0.04   0.03
  42   1    -0.08  -0.07  -0.04     0.18   0.17   0.09     0.18   0.17   0.09
  43   7    -0.05  -0.07  -0.00     0.14   0.13   0.01     0.15   0.14   0.01
  44   1     0.16   0.12   0.06    -0.35  -0.31  -0.13    -0.37  -0.32  -0.14
  45   1     0.09   0.08   0.01    -0.19  -0.20  -0.04    -0.18  -0.19  -0.04
  46   6     0.02  -0.01   0.03    -0.05   0.01  -0.05     0.06  -0.02   0.06
  47   8    -0.01   0.00   0.01     0.01  -0.00  -0.01    -0.01   0.01   0.01
  48   7    -0.06   0.00  -0.06     0.13  -0.01   0.11    -0.17   0.01  -0.14
  49   1     0.06  -0.01   0.06    -0.12   0.02  -0.12     0.15  -0.03   0.15
  50   1     0.12  -0.02   0.10    -0.24   0.04  -0.20     0.31  -0.05   0.26
  51   7    -0.06   0.02  -0.06     0.11  -0.03   0.12    -0.14   0.06  -0.16
  52   1     0.11  -0.04   0.11    -0.21   0.07  -0.21     0.29  -0.10   0.29
  53   1     0.05  -0.02   0.06    -0.11   0.03  -0.12     0.14  -0.03   0.15
                     34                     35                     36
                        a                      a                      a 
 Frequencies --   341.9115               364.8872               371.3780
 Red. masses --     4.0192                 4.4884                 5.3375
 Frc consts  --     0.0000                 0.0000                 0.0000
 IR Inten    --    29.8907                 3.3149                 1.2938
 Raman Activ --     0.0000                 0.0000                 0.0000
 Depolar     --     0.0000                 0.0000                 0.0000
 Atom AN      X      Y      Z        X      Y      Z        X      Y      Z
   1   8     0.11  -0.13   0.13     0.12  -0.12   0.18    -0.02  -0.08   0.06
   2   6     0.02  -0.12  -0.15     0.03  -0.17   0.00    -0.01  -0.11   0.13
   3   1    -0.04  -0.03  -0.04    -0.05  -0.10   0.06    -0.01  -0.08   0.08
   4   1    -0.00  -0.05  -0.08    -0.01  -0.08  -0.09    -0.02  -0.04  -0.02
   5   6     0.02  -0.03  -0.12    -0.07   0.17   0.17    -0.02   0.10   0.21
   6   1     0.03   0.02  -0.06    -0.17   0.08   0.04    -0.11   0.02   0.08
   7   1    -0.00  -0.05  -0.02     0.03   0.11   0.18     0.03   0.10   0.12
   8   7    -0.07   0.09   0.01    -0.04   0.09  -0.04     0.04  -0.01  -0.03
   9   6    -0.10  -0.15   0.16    -0.10   0.02  -0.15     0.01   0.20  -0.32
  10   1    -0.04  -0.29   0.26    -0.06   0.06  -0.09    -0.03  -0.04  -0.01
  11   1    -0.07  -0.12  -0.23    -0.01   0.01   0.01    -0.11   0.08  -0.24
  12   1     0.03   0.22   0.16    -0.03  -0.07  -0.08     0.14   0.20  -0.10
  13   6    -0.05   0.14   0.02     0.18   0.06  -0.21     0.22   0.01  -0.15
  14   1    -0.14   0.02   0.05     0.38   0.09  -0.18    -0.19  -0.09   0.08
  15   1     0.05   0.18   0.05    -0.10  -0.28  -0.21     0.19   0.33  -0.03
  16   1     0.06  -0.05  -0.07    -0.07   0.21   0.17     0.26  -0.21  -0.21
  17   6     0.03   0.19  -0.10    -0.07   0.00   0.05    -0.19  -0.15   0.12
  18   1     0.05  -0.13   0.20    -0.01  -0.18   0.18    -0.08  -0.08  -0.01
  19   1     0.27   0.18  -0.17     0.16   0.04  -0.10    -0.10  -0.08   0.06
  20   1    -0.25   0.14  -0.15    -0.21   0.10   0.01    -0.05  -0.01   0.11
  21   1     0.06  -0.04   0.03     0.06  -0.02   0.02    -0.00   0.00  -0.02
  22   6     0.00   0.01   0.01    -0.00  -0.00  -0.00     0.00  -0.01  -0.00
  23   8    -0.00   0.01   0.02    -0.01   0.00  -0.01    -0.00   0.00   0.00
  24   7    -0.00   0.00   0.00    -0.01  -0.01   0.00    -0.00   0.01   0.01
  25   1    -0.00  -0.00  -0.00    -0.00   0.00   0.00     0.01  -0.01  -0.00
  26   1     0.00  -0.01  -0.00    -0.00  -0.01  -0.01     0.01  -0.03  -0.03
  27   7    -0.01  -0.00  -0.01    -0.00  -0.00   0.00     0.00  -0.00   0.01
  28   1    -0.00   0.01  -0.00    -0.00   0.00   0.00     0.00   0.00   0.00
  29   1    -0.01   0.00  -0.00    -0.00  -0.00   0.00     0.00   0.00   0.00
  30   6    -0.00   0.00   0.00     0.00   0.00   0.00    -0.00   0.01   0.00
  31   8    -0.00   0.00  -0.00     0.00   0.00  -0.00    -0.00   0.00   0.01
  32   7     0.00  -0.00  -0.00     0.00  -0.00  -0.00     0.01  -0.02  -0.01
  33   1    -0.00  -0.00   0.00    -0.00  -0.00  -0.00    -0.00   0.01   0.01
  34   1    -0.01   0.02   0.01    -0.00   0.01   0.01    -0.01   0.04   0.03
  35   7     0.00  -0.00  -0.00    -0.00  -0.00   0.00    -0.00  -0.01  -0.01
  36   1     0.00  -0.01  -0.01    -0.00  -0.01  -0.00     0.00   0.02   0.01
  37   1     0.00  -0.00  -0.00    -0.00  -0.00  -0.00     0.00   0.00   0.00
  38   6     0.00   0.00  -0.00    -0.01  -0.01   0.00     0.00   0.01   0.00
  39   8     0.01  -0.01   0.00    -0.01  -0.01  -0.00     0.01   0.01   0.00
  40   7    -0.01  -0.01  -0.01     0.01   0.00   0.01    -0.00  -0.00  -0.00
  41   1     0.01   0.00   0.00    -0.01  -0.00  -0.00     0.00   0.00   0.00
  42   1     0.05   0.04   0.02    -0.03  -0.03  -0.01     0.00   0.00  -0.00
  43   7     0.04   0.04  -0.00    -0.02   0.01   0.01     0.00  -0.01  -0.00
  44   1    -0.10  -0.09  -0.04     0.03   0.04   0.01    -0.00  -0.01  -0.00
  45   1    -0.04  -0.05  -0.01    -0.00   0.00   0.00     0.01   0.00  -0.00
  46   6    -0.01   0.00   0.00     0.01  -0.01  -0.01    -0.01   0.00   0.00
  47   8     0.02  -0.01   0.02     0.01  -0.01  -0.00    -0.01   0.00   0.00
  48   7     0.04   0.00   0.03     0.01  -0.02   0.01     0.01   0.00  -0.00
  49   1    -0.03   0.01  -0.03    -0.01  -0.01  -0.01    -0.00   0.01  -0.01
  50   1    -0.08   0.01  -0.07    -0.03   0.00  -0.02     0.00  -0.00  -0.00
  51   7     0.02  -0.02   0.04     0.01   0.00   0.00     0.00  -0.00   0.01
  52   1    -0.07   0.02  -0.07    -0.02   0.01  -0.02    -0.02   0.01  -0.01
  53   1    -0.03   0.01  -0.03    -0.00   0.01  -0.01     0.00   0.00  -0.00
                     37                     38                     39
                        a                      a                      a 
 Frequencies --   394.3179               399.6560               430.2235
 Red. masses --     3.6986                 2.1937                 8.5121
 Frc consts  --     0.0000                 0.0000                 0.0000
 IR Inten    --   194.2502                93.2366                 1.1678
 Raman Activ --     0.0000                 0.0000                 0.0000
 Depolar     --     0.0000                 0.0000                 0.0000
 Atom AN      X      Y      Z        X      Y      Z        X      Y      Z
   1   8     0.02   0.03   0.01    -0.01   0.02  -0.02     0.11  -0.13   0.15
   2   6    -0.00   0.02  -0.01    -0.01  -0.02   0.02     0.12   0.05  -0.09
   3   1    -0.00   0.01  -0.00    -0.01  -0.01   0.01     0.05   0.03  -0.04
   4   1     0.00   0.00  -0.00    -0.00  -0.01   0.00     0.03   0.04   0.01
   5   6    -0.00  -0.01  -0.01     0.01  -0.00   0.02    -0.15   0.04  -0.03
   6   1     0.00  -0.00  -0.00     0.03  -0.00   0.00    -0.10   0.02  -0.01
   7   1    -0.00  -0.01  -0.01    -0.00  -0.01  -0.01    -0.02   0.01   0.07
   8   7    -0.00  -0.00   0.00     0.00   0.00   0.02    -0.28   0.08  -0.14
   9   6     0.00  -0.02   0.02    -0.01  -0.01  -0.03    -0.11   0.24   0.28
  10   1     0.00   0.01  -0.01    -0.01  -0.00  -0.01     0.10   0.05   0.08
  11   1     0.01  -0.01   0.03    -0.01  -0.01  -0.02    -0.03   0.09   0.13
  12   1    -0.01  -0.02   0.00     0.00  -0.01  -0.02    -0.09   0.10   0.14
  13   6    -0.01  -0.00   0.01     0.02  -0.01   0.01    -0.11  -0.02  -0.32
  14   1     0.01   0.01  -0.00     0.00  -0.00   0.00    -0.04  -0.06  -0.04
  15   1    -0.01  -0.02   0.00     0.01   0.01  -0.00    -0.02   0.07  -0.14
  16   1    -0.01   0.01   0.01     0.01  -0.01  -0.00     0.02  -0.06  -0.13
  17   6     0.01   0.00  -0.00    -0.02   0.02   0.00     0.32  -0.24   0.09
  18   1     0.00   0.01  -0.00    -0.01  -0.00  -0.00     0.16   0.07   0.10
  19   1    -0.00   0.00   0.00    -0.00   0.01   0.00     0.07  -0.25  -0.04
  20   1     0.01  -0.00  -0.00    -0.02   0.01  -0.00     0.22  -0.11   0.08
  21   1     0.01   0.04  -0.04     0.00   0.01  -0.02     0.03  -0.04   0.05
  22   6     0.03  -0.04  -0.04    -0.03   0.03   0.04    -0.00   0.00  -0.00
  23   8     0.03  -0.05  -0.05    -0.03   0.06   0.00    -0.00   0.00  -0.00
  24   7    -0.02   0.03   0.05     0.11  -0.16  -0.13    -0.00  -0.01  -0.01
  25   1     0.00  -0.02  -0.01    -0.06   0.10   0.06    -0.01  -0.00  -0.01
  26   1     0.03  -0.08  -0.07    -0.24   0.55   0.60    -0.02   0.04   0.05
  27   7    -0.01   0.03   0.03     0.00  -0.02   0.02     0.00   0.00   0.00
  28   1     0.00  -0.00  -0.01     0.06  -0.23  -0.21     0.01  -0.02  -0.02
  29   1    -0.01  -0.01  -0.01     0.01  -0.03  -0.03     0.00  -0.00  -0.00
  30   6    -0.06   0.08   0.06    -0.00   0.02   0.01     0.00   0.00   0.00
  31   8    -0.06   0.06   0.10     0.00   0.02   0.02     0.00   0.00   0.00
  32   7     0.15  -0.23  -0.17     0.02  -0.03  -0.03     0.00   0.00  -0.00
  33   1    -0.03   0.01   0.06    -0.01   0.00   0.01    -0.00  -0.01  -0.01
  34   1    -0.23   0.63   0.49    -0.03   0.08   0.06    -0.00   0.01   0.01
  35   7    -0.01  -0.13  -0.17    -0.02  -0.03  -0.01    -0.00  -0.00  -0.00
  36   1     0.01   0.24   0.12    -0.00   0.02   0.02    -0.00  -0.00   0.00
  37   1     0.04   0.02   0.04    -0.01   0.00   0.00    -0.00   0.00   0.00
  38   6    -0.01   0.00   0.01    -0.02  -0.04  -0.03     0.01   0.01   0.00
  39   8    -0.01   0.01   0.00    -0.00  -0.02  -0.01     0.01   0.00   0.00
  40   7    -0.00   0.00  -0.00     0.07   0.05   0.01    -0.01  -0.01  -0.01
  41   1     0.00  -0.01  -0.00    -0.03  -0.02  -0.02     0.00   0.00   0.00
  42   1     0.00   0.01  -0.00    -0.14  -0.13  -0.07     0.01   0.01   0.00
  43   7     0.00  -0.01   0.01     0.06   0.05   0.01    -0.01  -0.01  -0.01
  44   1     0.00  -0.01   0.01    -0.05  -0.05  -0.02     0.01   0.00   0.00
  45   1     0.01  -0.00  -0.00    -0.02  -0.03  -0.01     0.00  -0.00  -0.00
  46   6     0.00  -0.00  -0.00     0.00  -0.00  -0.00    -0.00   0.01  -0.00
  47   8    -0.00  -0.00  -0.00     0.00  -0.00   0.00    -0.00   0.01  -0.01
  48   7    -0.00  -0.00  -0.00     0.00  -0.00   0.00    -0.00   0.00   0.01
  49   1     0.00   0.00   0.00    -0.00  -0.00  -0.00    -0.02   0.00  -0.01
  50   1     0.01  -0.00   0.01    -0.00   0.00  -0.00     0.03  -0.00   0.03
  51   7    -0.00   0.00  -0.00     0.00   0.00   0.00    -0.00  -0.01  -0.01
  52   1     0.01  -0.00   0.01    -0.00   0.00  -0.00    -0.00  -0.00  -0.01
  53   1     0.00   0.00   0.00     0.00   0.00  -0.00     0.01  -0.01   0.01
                     40                     41                     42
                        a                      a                      a 
 Frequencies --   439.2154               443.0376               456.0530
 Red. masses --     3.2669                 1.4607                 8.4769
 Frc consts  --     0.0000                 0.0000                 0.0000
 IR Inten    --   216.3289                 1.3667                 3.7824
 Raman Activ --     0.0000                 0.0000                 0.0000
 Depolar     --     0.0000                 0.0000                 0.0000
 Atom AN      X      Y      Z        X      Y      Z        X      Y      Z
   1   8    -0.01  -0.02  -0.00    -0.00   0.00  -0.00    -0.01   0.02  -0.03
   2   6     0.01   0.01  -0.01    -0.00   0.00  -0.01    -0.02  -0.05   0.08
   3   1     0.01   0.00  -0.01    -0.00   0.00  -0.00     0.01   0.00   0.01
   4   1     0.00   0.01   0.01    -0.00   0.00  -0.01     0.01  -0.02   0.05
   5   6    -0.02   0.01   0.01     0.02   0.01  -0.01    -0.06  -0.12   0.04
   6   1    -0.02   0.00   0.00     0.01   0.00  -0.00     0.01  -0.04   0.02
   7   1     0.00   0.01   0.02     0.00  -0.00  -0.01    -0.02  -0.04  -0.01
   8   7    -0.01  -0.02  -0.03     0.01   0.01   0.01    -0.05  -0.09   0.02
   9   6     0.02   0.01   0.03    -0.01  -0.02  -0.01    -0.01   0.08  -0.00
  10   1     0.04   0.00   0.00    -0.01  -0.00  -0.00     0.03   0.03  -0.01
  11   1     0.01   0.01   0.02     0.00  -0.01  -0.00    -0.04   0.05   0.01
  12   1    -0.00   0.01   0.02    -0.00  -0.01  -0.01     0.02   0.04  -0.01
  13   6    -0.03   0.02   0.00    -0.00  -0.02   0.01     0.07   0.08   0.03
  14   1    -0.02   0.01  -0.00     0.01  -0.01   0.00     0.03   0.06  -0.03
  15   1    -0.00   0.01   0.02    -0.00  -0.02  -0.00     0.02   0.03  -0.01
  16   1    -0.01   0.00  -0.00    -0.01  -0.00  -0.00     0.05   0.03   0.06
  17   6     0.00  -0.03  -0.02    -0.01   0.02   0.02     0.03   0.01  -0.10
  18   1     0.00  -0.00  -0.00    -0.01  -0.00   0.00     0.02   0.02  -0.01
  19   1    -0.00  -0.02  -0.01    -0.00   0.01   0.01     0.03   0.04  -0.03
  20   1     0.01  -0.01  -0.00    -0.01   0.01   0.01    -0.00  -0.01  -0.07
  21   1     0.01   0.01  -0.02     0.00   0.00  -0.00    -0.01   0.00  -0.01
  22   6     0.01   0.03   0.04    -0.00   0.00   0.00     0.00  -0.00  -0.00
  23   8     0.01   0.01   0.02     0.00   0.00   0.00     0.00  -0.00   0.00
  24   7     0.01   0.01  -0.01     0.00   0.00  -0.00    -0.00   0.00   0.01
  25   1     0.02   0.02   0.02     0.00   0.00   0.00    -0.00  -0.00  -0.00
  26   1     0.06  -0.11  -0.13     0.00  -0.01  -0.01     0.00  -0.01  -0.00
  27   7     0.02  -0.04  -0.05     0.00  -0.00  -0.00    -0.00   0.01   0.00
  28   1    -0.04   0.17   0.17    -0.00   0.02   0.02     0.00  -0.01  -0.02
  29   1    -0.00   0.01   0.01     0.00   0.00   0.00    -0.00  -0.00  -0.00
  30   6    -0.02  -0.01  -0.00    -0.00  -0.00  -0.00    -0.00  -0.00   0.00
  31   8    -0.02  -0.01  -0.01    -0.00  -0.00  -0.00    -0.00   0.00  -0.00
  32   7     0.01  -0.01   0.02     0.00  -0.00   0.00     0.00  -0.00   0.00
  33   1     0.02   0.01   0.01     0.00   0.00   0.00     0.00   0.00   0.00
  34   1     0.01  -0.02   0.01     0.00  -0.00   0.00     0.00  -0.00   0.00
  35   7     0.02   0.02  -0.01     0.00   0.00  -0.00     0.00   0.00  -0.00
  36   1     0.01   0.02  -0.02     0.00   0.00  -0.00     0.00   0.00  -0.00
  37   1     0.03  -0.02  -0.01     0.00  -0.00  -0.00     0.00  -0.00  -0.00
  38   6    -0.08  -0.11  -0.04    -0.00  -0.01  -0.01    -0.01   0.01   0.01
  39   8    -0.04  -0.04  -0.06    -0.00  -0.01  -0.01    -0.01   0.00   0.02
  40   7     0.20   0.14   0.12     0.01   0.01   0.02     0.00   0.00  -0.03
  41   1    -0.05   0.01  -0.01    -0.01   0.00   0.00     0.01  -0.00  -0.00
  42   1    -0.55  -0.51  -0.22    -0.04  -0.03  -0.01     0.00   0.01  -0.01
  43   7     0.14   0.17   0.07     0.01   0.01   0.00     0.01  -0.01   0.01
  44   1    -0.25  -0.18  -0.10    -0.04  -0.02  -0.02     0.03   0.00   0.02
  45   1    -0.07  -0.04   0.03     0.00   0.02   0.01    -0.00  -0.03  -0.02
  46   6     0.01   0.01  -0.01    -0.02  -0.04   0.01     0.15   0.24  -0.09
  47   8     0.01   0.01  -0.00    -0.03  -0.04   0.02     0.16   0.27  -0.10
  48   7    -0.01  -0.00   0.01     0.10  -0.03   0.04    -0.24  -0.00   0.31
  49   1     0.02  -0.02   0.02    -0.32   0.16  -0.35    -0.19  -0.22  -0.01
  50   1    -0.04   0.01  -0.01     0.41  -0.10   0.24    -0.11   0.11   0.29
  51   7     0.01  -0.01  -0.00    -0.09   0.05  -0.05     0.03  -0.35  -0.18
  52   1     0.03  -0.01   0.01    -0.36   0.17  -0.26     0.07  -0.20  -0.25
  53   1    -0.03  -0.00  -0.02     0.40  -0.02   0.30    -0.08  -0.22   0.17
                     43                     44                     45
                        a                      a                      a 
 Frequencies --   461.7915               465.3596               468.9247
 Red. masses --     7.6847                 7.2383                 5.8401
 Frc consts  --     0.0000                 0.0000                 0.0000
 IR Inten    --     5.7965                 9.2872                11.0688
 Raman Activ --     0.0000                 0.0000                 0.0000
 Depolar     --     0.0000                 0.0000                 0.0000
 Atom AN      X      Y      Z        X      Y      Z        X      Y      Z
   1   8     0.02  -0.01   0.06     0.01  -0.00   0.03    -0.01   0.01  -0.04
   2   6     0.01  -0.02   0.02     0.01   0.01  -0.02    -0.02  -0.02   0.03
   3   1    -0.00  -0.02   0.02    -0.00  -0.00   0.00     0.00   0.01  -0.00
   4   1    -0.00  -0.01  -0.01    -0.00   0.00  -0.01     0.00  -0.01   0.02
   5   6    -0.10   0.09   0.10    -0.02   0.06   0.02     0.02  -0.09  -0.02
   6   1    -0.22   0.02   0.05    -0.08   0.02   0.01     0.09  -0.03  -0.01
   7   1     0.05   0.15   0.16     0.02   0.06   0.06    -0.03  -0.08  -0.07
   8   7     0.10  -0.17  -0.25     0.05  -0.04  -0.08    -0.06   0.03   0.10
   9   6     0.30   0.01   0.12     0.10  -0.02   0.04    -0.12   0.03  -0.04
  10   1     0.20  -0.01   0.03     0.06  -0.01   0.01    -0.06   0.01  -0.01
  11   1     0.07   0.03   0.09     0.03  -0.00   0.03    -0.04   0.01  -0.03
  12   1     0.02   0.04   0.10     0.00   0.00   0.03    -0.00   0.00  -0.04
  13   6    -0.18   0.23   0.11    -0.08   0.06   0.04     0.10  -0.05  -0.04
  14   1    -0.13   0.15  -0.04    -0.05   0.04  -0.00     0.06  -0.03   0.00
  15   1    -0.01   0.05   0.17    -0.01   0.01   0.06     0.01  -0.00  -0.07
  16   1    -0.07   0.10   0.08    -0.04   0.03   0.01     0.05  -0.03  -0.01
  17   6    -0.10  -0.19  -0.26    -0.05  -0.07  -0.06     0.06   0.08   0.04
  18   1    -0.05  -0.11  -0.09    -0.02  -0.04  -0.02     0.03   0.06   0.02
  19   1    -0.03  -0.02  -0.06    -0.02  -0.02  -0.01     0.03   0.02   0.01
  20   1    -0.07  -0.02  -0.05    -0.03  -0.00   0.00     0.03   0.00  -0.02
  21   1     0.01   0.01  -0.01     0.01   0.00   0.00    -0.01  -0.00  -0.00
  22   6     0.02  -0.01  -0.01    -0.09  -0.05  -0.04    -0.03   0.02   0.03
  23   8     0.01   0.01  -0.00    -0.10  -0.02  -0.04    -0.04   0.02   0.00
  24   7    -0.01  -0.01   0.02     0.07   0.13  -0.05     0.06   0.03  -0.05
  25   1    -0.01  -0.00   0.00     0.10   0.01   0.00     0.05   0.02   0.02
  26   1    -0.01  -0.00   0.02     0.03   0.06  -0.11     0.02   0.03  -0.05
  27   7    -0.04   0.03   0.00     0.08  -0.03   0.11    -0.00  -0.06  -0.02
  28   1     0.00  -0.05  -0.08     0.05  -0.15  -0.02    -0.03   0.11   0.13
  29   1    -0.02  -0.00  -0.00     0.07   0.01   0.01     0.00  -0.00   0.01
  30   6     0.00   0.00   0.00     0.21   0.03  -0.01     0.17   0.02  -0.01
  31   8     0.01   0.00  -0.00     0.23  -0.05   0.11     0.19  -0.04   0.08
  32   7    -0.00   0.00  -0.00    -0.16   0.14  -0.22    -0.13   0.12  -0.18
  33   1    -0.00   0.01   0.01    -0.16  -0.03  -0.02    -0.14  -0.03  -0.02
  34   1     0.01  -0.02  -0.01    -0.07   0.18  -0.12    -0.06   0.16  -0.10
  35   7    -0.00  -0.00   0.01    -0.15  -0.17   0.12    -0.11  -0.14   0.10
  36   1     0.00  -0.00   0.00    -0.04  -0.23   0.16    -0.03  -0.18   0.15
  37   1    -0.00  -0.00  -0.00    -0.26   0.16   0.08    -0.21   0.12   0.06
  38   6    -0.09   0.09   0.05     0.09  -0.09  -0.03    -0.09   0.09   0.03
  39   8    -0.08   0.02   0.14     0.06  -0.02  -0.15    -0.06   0.02   0.17
  40   7     0.03   0.03  -0.19    -0.01  -0.04   0.18     0.00   0.04  -0.18
  41   1     0.08  -0.02  -0.04    -0.07   0.01   0.04     0.07   0.01  -0.03
  42   1    -0.01   0.04  -0.11     0.02  -0.03   0.10    -0.08  -0.03  -0.13
  43   7     0.11  -0.10   0.04    -0.11   0.07  -0.03     0.13  -0.03   0.04
  44   1     0.11  -0.06   0.15    -0.15   0.03  -0.17     0.21  -0.01   0.21
  45   1     0.01  -0.17  -0.15     0.04   0.24   0.19    -0.15  -0.39  -0.26
  46   6    -0.01  -0.02   0.01     0.01   0.02  -0.01    -0.01  -0.02   0.01
  47   8    -0.02  -0.02   0.01     0.01   0.02  -0.01    -0.01  -0.02   0.01
  48   7     0.02  -0.01  -0.02    -0.02  -0.00   0.02     0.02   0.00  -0.02
  49   1    -0.00   0.02  -0.02    -0.01  -0.02   0.01     0.00   0.02  -0.01
  50   1     0.03  -0.01  -0.01    -0.02   0.01   0.01     0.02  -0.01  -0.02
  51   7    -0.01   0.03   0.01     0.01  -0.02  -0.01    -0.01   0.03   0.01
  52   1    -0.02   0.03   0.01     0.00  -0.01  -0.02    -0.00   0.01   0.02
  53   1     0.03   0.02   0.00    -0.00  -0.01   0.01     0.01   0.02  -0.01
                     46                     47                     48
                        a                      a                      a 
 Frequencies --   474.9669               476.0450               479.9992
 Red. masses --     5.4400                 6.2019                 5.7902
 Frc consts  --     0.0000                 0.0000                 0.0000
 IR Inten    --   143.4514               175.8051                26.7030
 Raman Activ --     0.0000                 0.0000                 0.0000
 Depolar     --     0.0000                 0.0000                 0.0000
 Atom AN      X      Y      Z        X      Y      Z        X      Y      Z
   1   8    -0.02   0.03  -0.06     0.02  -0.03   0.06     0.01   0.01   0.00
   2   6    -0.04  -0.08   0.14     0.04   0.11  -0.17    -0.00  -0.01   0.02
   3   1     0.01   0.00   0.01    -0.01   0.00  -0.02     0.00   0.00  -0.00
   4   1     0.02  -0.03   0.08    -0.02   0.04  -0.10     0.00  -0.01   0.01
   5   6    -0.07  -0.22   0.05     0.12   0.24  -0.09    -0.04  -0.02   0.02
   6   1     0.06  -0.08   0.02    -0.01   0.08  -0.03    -0.04  -0.00   0.01
   7   1    -0.05  -0.11  -0.05     0.05   0.08   0.01     0.00   0.02   0.03
   8   7    -0.12  -0.11   0.06     0.12   0.19  -0.01     0.00  -0.06  -0.03
   9   6    -0.07   0.15  -0.01     0.01  -0.19  -0.01     0.05   0.03   0.03
  10   1     0.02   0.06  -0.02    -0.07  -0.07   0.02     0.04   0.01   0.01
  11   1    -0.08   0.08   0.01     0.08  -0.11  -0.04    -0.00   0.02   0.01
  12   1     0.02   0.06  -0.02    -0.04  -0.08   0.01     0.01   0.02   0.02
  13   6     0.16   0.11   0.00    -0.15  -0.19  -0.03    -0.01   0.06   0.04
  14   1     0.08   0.07  -0.04    -0.06  -0.13   0.06    -0.03   0.04  -0.01
  15   1     0.04   0.05  -0.05    -0.04  -0.07   0.02     0.01   0.03   0.04
  16   1     0.10   0.03   0.08    -0.10  -0.07  -0.12     0.01   0.02   0.02
  17   6     0.10   0.07  -0.15    -0.09  -0.03   0.24    -0.01  -0.03  -0.08
  18   1     0.06   0.08  -0.01    -0.05  -0.06   0.04    -0.00  -0.01  -0.02
  19   1     0.06   0.06  -0.05    -0.07  -0.07   0.07     0.00   0.01  -0.02
  20   1     0.03  -0.02  -0.12    -0.02   0.03   0.16    -0.01  -0.01  -0.03
  21   1    -0.02   0.01  -0.01     0.01  -0.02   0.03     0.00  -0.00   0.01
  22   6     0.02  -0.09  -0.11     0.02  -0.07  -0.08    -0.04  -0.01  -0.01
  23   8     0.01  -0.06  -0.03     0.01  -0.04  -0.03    -0.04  -0.01  -0.02
  24   7    -0.05   0.12   0.11    -0.04   0.08   0.08     0.01   0.01  -0.03
  25   1     0.01   0.01   0.01     0.00   0.00   0.01     0.02  -0.01  -0.01
  26   1     0.06  -0.13  -0.16     0.04  -0.10  -0.11    -0.02   0.06   0.02
  27   7    -0.01   0.17   0.16    -0.03   0.13   0.11     0.07  -0.05   0.02
  28   1     0.11  -0.44  -0.44     0.08  -0.32  -0.34     0.01   0.03   0.10
  29   1     0.01   0.00  -0.00    -0.00  -0.00  -0.00     0.04   0.01   0.00
  30   6    -0.02   0.01   0.01    -0.01   0.00   0.00    -0.04  -0.01  -0.00
  31   8    -0.02   0.00  -0.00    -0.01  -0.00  -0.00    -0.05   0.01  -0.02
  32   7     0.00   0.00   0.03     0.00   0.01   0.03     0.04  -0.03   0.04
  33   1     0.02   0.03   0.02     0.01   0.01   0.01     0.04  -0.01  -0.01
  34   1     0.02  -0.06  -0.02     0.02  -0.04  -0.01     0.00  -0.01   0.04
  35   7     0.02   0.02  -0.02     0.02   0.01  -0.02     0.02   0.03  -0.03
  36   1     0.00  -0.03  -0.04     0.00  -0.05  -0.04     0.01   0.04  -0.04
[...]
  44   1     0.00   0.00   0.00    -0.00   0.00   0.00     0.00  -0.00  -0.00
  45   1     0.00  -0.00   0.00     0.01  -0.01   0.01    -0.00   0.00  -0.00
  46   6    -0.00  -0.00   0.00     0.00   0.00   0.00     0.00  -0.00  -0.00
  47   8     0.00   0.00  -0.00    -0.00  -0.00  -0.00    -0.00   0.00   0.00
  48   7     0.00   0.00  -0.00    -0.00  -0.00  -0.00    -0.00  -0.00  -0.00
  49   1    -0.00  -0.00   0.00     0.00   0.00  -0.00    -0.00   0.00   0.00
  50   1     0.00   0.00  -0.00    -0.00  -0.00   0.00     0.00   0.00  -0.00
  51   7     0.00   0.00  -0.00    -0.00   0.00   0.00    -0.00  -0.00  -0.00
  52   1     0.00   0.00   0.00     0.00   0.00   0.00    -0.00  -0.00   0.00
  53   1     0.00  -0.00   0.00     0.00  -0.00  -0.00    -0.00   0.00   0.00
                    142                    143                    144
                        a                      a                      a 
 Frequencies --  3492.4873              3494.1272              3501.2751
 Red. masses --     1.4486                 1.4525                 1.4396
 Frc consts  --     0.0000                 0.0000                 0.0000
 IR Inten    --    16.9292                19.0546                38.9284
 Raman Activ --     0.0000                 0.0000                 0.0000
 Depolar     --     0.0000                 0.0000                 0.0000
 Atom AN      X      Y      Z        X      Y      Z        X      Y      Z
   1   8     0.00  -0.00   0.00     0.00  -0.00  -0.00    -0.00   0.00   0.00
   2   6    -0.00   0.00  -0.00    -0.00  -0.00   0.00     0.00  -0.00  -0.00
   3   1    -0.00   0.00  -0.00    -0.00  -0.00  -0.00     0.00   0.00   0.00
   4   1    -0.00   0.00  -0.00     0.00   0.00  -0.00    -0.00  -0.00   0.00
   5   6    -0.00   0.00   0.00    -0.00  -0.00  -0.00     0.00   0.00   0.00
   6   1    -0.00  -0.00  -0.00    -0.00   0.00   0.00     0.00  -0.00  -0.00
   7   1     0.00  -0.00   0.00     0.00  -0.00  -0.00    -0.00   0.00   0.00
   8   7     0.00   0.00   0.00     0.00  -0.00   0.00    -0.00   0.00   0.00
   9   6     0.00  -0.00   0.00    -0.00  -0.00  -0.00     0.00   0.00  -0.00
  10   1     0.00   0.00   0.00     0.00   0.00   0.00     0.00   0.00   0.00
  11   1     0.00   0.00   0.00     0.00   0.00  -0.00    -0.00  -0.00  -0.00
  12   1    -0.00   0.00  -0.00     0.00  -0.00  -0.00    -0.00   0.00  -0.00
  13   6    -0.00  -0.00   0.00    -0.00  -0.00  -0.00     0.00   0.00  -0.00
  14   1    -0.00   0.00  -0.00    -0.00   0.00   0.00     0.00   0.00  -0.00
  15   1     0.00  -0.00  -0.00     0.00  -0.00  -0.00    -0.00   0.00   0.00
  16   1     0.00   0.00  -0.00    -0.00   0.00  -0.00     0.00  -0.00  -0.00
  17   6    -0.00  -0.00   0.00    -0.00  -0.00   0.00     0.00  -0.00   0.00
  18   1    -0.00   0.00   0.00     0.00  -0.00  -0.00    -0.00  -0.00   0.00
  19   1    -0.00   0.00  -0.00     0.00  -0.00   0.00     0.00  -0.00   0.00
  20   1     0.00   0.00  -0.00     0.00   0.00  -0.00     0.00   0.00  -0.00
  21   1    -0.00   0.00  -0.00     0.00   0.00   0.00     0.00   0.00  -0.00
  22   6    -0.00   0.00  -0.00    -0.00  -0.00   0.00     0.00   0.00  -0.00
  23   8     0.00  -0.00   0.00     0.00   0.00  -0.00    -0.00  -0.00   0.00
  24   7     0.00  -0.00   0.00    -0.00   0.00  -0.00     0.00  -0.00   0.00
  25   1     0.00   0.00  -0.00    -0.00  -0.01   0.01     0.00   0.00  -0.00
  26   1    -0.00  -0.00  -0.00     0.01   0.00   0.00    -0.00  -0.00  -0.00
  27   7    -0.00  -0.00   0.00     0.00   0.00  -0.00     0.00   0.00   0.00
  28   1     0.00   0.00   0.00    -0.00  -0.00  -0.00    -0.00  -0.00  -0.00
  29   1    -0.00   0.00  -0.00     0.00  -0.00   0.00     0.00   0.00  -0.00
  30   6    -0.00   0.00  -0.00    -0.00  -0.00   0.00     0.00   0.00  -0.00
  31   8     0.00   0.00  -0.00    -0.00   0.00  -0.00    -0.00  -0.00   0.00
  32   7     0.01  -0.00   0.01    -0.00   0.00  -0.00     0.00  -0.00   0.00
  33   1    -0.01   0.01  -0.01     0.00  -0.00   0.00    -0.00   0.00  -0.00
  34   1    -0.02  -0.01  -0.00    -0.00  -0.00  -0.00    -0.00  -0.00  -0.00
  35   7    -0.10   0.12  -0.10     0.00  -0.00   0.00     0.00   0.00  -0.00
  36   1     0.70  -0.00  -0.02    -0.00   0.00   0.00    -0.00   0.00  -0.00
  37   1    -0.34  -0.44   0.40     0.00   0.00  -0.00    -0.00  -0.00   0.00
  38   6    -0.00   0.00  -0.00     0.00   0.00   0.00     0.00   0.00  -0.00
  39   8     0.00  -0.00   0.00     0.00  -0.00  -0.00    -0.00   0.00   0.00
  40   7     0.00  -0.00   0.00     0.01  -0.00  -0.01    -0.00  -0.00   0.00
  41   1     0.00   0.00  -0.00    -0.00  -0.00   0.01     0.00   0.00  -0.00
  42   1    -0.00   0.00   0.00    -0.03   0.02   0.02     0.00  -0.00  -0.00
  43   7    -0.00  -0.00   0.00    -0.02  -0.01   0.18     0.00  -0.00  -0.00
  44   1     0.00  -0.00  -0.00     0.47  -0.39  -0.36    -0.00   0.00   0.00
  45   1    -0.00   0.00  -0.00    -0.40   0.44  -0.32     0.00  -0.00   0.00
  46   6     0.00   0.00  -0.00     0.00   0.00  -0.00    -0.00   0.00   0.00
  47   8    -0.00  -0.00   0.00    -0.00  -0.00   0.00    -0.00   0.00   0.00
  48   7     0.00  -0.00  -0.00    -0.00   0.00   0.00    -0.02   0.12   0.03
  49   1    -0.00   0.00   0.00     0.00  -0.00  -0.00     0.31  -0.03  -0.32
  50   1     0.00   0.00  -0.00    -0.00  -0.00   0.00    -0.23  -0.42   0.19
  51   7    -0.00  -0.00   0.00    -0.00   0.00   0.00    -0.10  -0.01   0.08
  52   1     0.00   0.00  -0.00     0.00   0.00  -0.00     0.28   0.43  -0.13
  53   1     0.00  -0.00  -0.00     0.00  -0.00  -0.00     0.10  -0.41  -0.19
                    145                    146                    147
                        a                      a                      a 
 Frequencies --  3505.7101              3527.9185              3534.1614
 Red. masses --     1.4637                 1.8818                 1.8999
 Frc consts  --     0.0000                 0.0000                 0.0000
 IR Inten    --     9.2275                 2.9455                14.7317
 Raman Activ --     0.0000                 0.0000                 0.0000
 Depolar     --     0.0000                 0.0000                 0.0000
 Atom AN      X      Y      Z        X      Y      Z        X      Y      Z
   1   8    -0.00  -0.00  -0.00    -0.00  -0.00  -0.00    -0.00  -0.00  -0.00
   2   6    -0.00   0.00  -0.00     0.00  -0.00   0.00    -0.00   0.00  -0.00
   3   1     0.00   0.00   0.00    -0.00  -0.00  -0.00     0.00   0.00   0.00
   4   1    -0.00  -0.00   0.00     0.00   0.00   0.00    -0.00  -0.00   0.00
   5   6     0.00  -0.00  -0.00     0.00  -0.00   0.00    -0.00   0.00   0.00
   6   1    -0.00   0.00   0.00     0.00   0.00  -0.00     0.00  -0.00  -0.00
   7   1    -0.00  -0.00  -0.00    -0.00  -0.00  -0.00     0.00   0.00   0.00
   8   7     0.00   0.00   0.00    -0.00  -0.00  -0.00     0.00  -0.00  -0.00
   9   6    -0.00  -0.00   0.00     0.00   0.00   0.00     0.00  -0.00   0.00
  10   1    -0.00  -0.00  -0.00    -0.00  -0.00  -0.00    -0.00  -0.00   0.00
  11   1     0.00   0.00  -0.00    -0.00  -0.00   0.00     0.00   0.00   0.00
  12   1    -0.00  -0.00   0.00     0.00   0.00  -0.00    -0.00   0.00  -0.00
  13   6    -0.00  -0.00   0.00     0.00   0.00   0.00    -0.00  -0.00  -0.00
  14   1    -0.00   0.00   0.00    -0.00  -0.00  -0.00    -0.00  -0.00   0.00
  15   1    -0.00  -0.00   0.00    -0.00   0.00   0.00     0.00  -0.00  -0.00
  16   1     0.00   0.00  -0.00    -0.00  -0.00   0.00    -0.00   0.00   0.00
  17   6    -0.00  -0.00   0.00    -0.00  -0.00   0.00    -0.00  -0.00  -0.00
  18   1    -0.00  -0.00   0.00    -0.00   0.00   0.00    -0.00  -0.00  -0.00
  19   1     0.00  -0.00   0.00     0.00  -0.00   0.00     0.00  -0.00   0.00
  20   1     0.00   0.00  -0.00    -0.00  -0.00  -0.00     0.00   0.00  -0.00
  21   1     0.00   0.00   0.00     0.00   0.00   0.00     0.00   0.00   0.00
  22   6     0.00   0.00  -0.00     0.00  -0.00   0.00    -0.00  -0.00  -0.00
  23   8    -0.00  -0.00  -0.00    -0.00   0.00  -0.00     0.00   0.00  -0.00
  24   7    -0.00  -0.00   0.00    -0.11  -0.04  -0.01    -0.04  -0.01  -0.00
  25   1     0.00   0.00  -0.00     0.02   0.04  -0.04     0.01   0.01  -0.01
  26   1     0.00   0.00   0.00     0.40   0.11   0.06     0.13   0.04   0.02
  27   7    -0.00  -0.00   0.00     0.23   0.04   0.01    -0.02  -0.00  -0.00
  28   1     0.00   0.00   0.00    -0.85  -0.17  -0.04     0.09   0.02   0.00
  29   1    -0.00   0.00  -0.00    -0.01   0.02  -0.03     0.00  -0.00   0.00
  30   6    -0.00   0.00  -0.00     0.00   0.00  -0.00     0.00  -0.00   0.00
  31   8     0.00  -0.00   0.00    -0.00  -0.00  -0.00    -0.00   0.00  -0.00
  32   7     0.00  -0.00   0.00     0.01   0.00   0.00     0.07   0.01   0.02
  33   1    -0.00   0.00  -0.00    -0.00   0.00  -0.00    -0.01   0.02  -0.02
  34   1    -0.00  -0.00   0.00    -0.03  -0.01  -0.01    -0.25  -0.06  -0.04
  35   7    -0.00   0.00  -0.00    -0.00  -0.00   0.00    -0.01  -0.00   0.00
  36   1     0.00  -0.00  -0.00     0.01  -0.00  -0.00     0.01  -0.00  -0.00
  37   1    -0.00  -0.00   0.00     0.00   0.00  -0.00     0.01   0.02  -0.01
  38   6    -0.00   0.00   0.00    -0.00   0.00   0.00    -0.00   0.00   0.01
  39   8     0.00  -0.00  -0.00     0.00  -0.00  -0.00     0.00  -0.00  -0.00
  40   7     0.00  -0.00  -0.00    -0.00   0.00   0.00    -0.17   0.12   0.13
  41   1    -0.00  -0.00   0.00     0.00   0.00  -0.00     0.01   0.04  -0.06
  42   1    -0.00   0.00   0.00     0.01  -0.01  -0.01     0.62  -0.47  -0.45
  43   7    -0.00   0.00   0.00     0.00  -0.00  -0.00     0.02  -0.02   0.01
  44   1     0.00  -0.00  -0.00    -0.00   0.00   0.00    -0.02   0.02   0.02
  45   1    -0.00   0.00  -0.00    -0.00   0.00  -0.00    -0.05   0.06  -0.05
  46   6     0.00   0.00  -0.00     0.00  -0.00  -0.00    -0.00   0.00  -0.00
  47   8    -0.00  -0.00   0.00    -0.00  -0.00   0.00     0.00  -0.00   0.00
  48   7    -0.03   0.12   0.04    -0.00   0.00   0.00    -0.00   0.00   0.00
  49   1     0.33  -0.03  -0.34     0.00  -0.00  -0.00     0.00  -0.00  -0.00
  50   1    -0.23  -0.43   0.19    -0.00  -0.00   0.00    -0.00  -0.00   0.00
  51   7     0.10  -0.00  -0.09     0.00   0.00  -0.00     0.00   0.00  -0.00
  52   1    -0.27  -0.41   0.12    -0.00  -0.00   0.00    -0.00  -0.00   0.00
  53   1    -0.10   0.41   0.19    -0.00   0.00   0.00    -0.00   0.00   0.00
                    148                    149                    150
                        a                      a                      a 
 Frequencies --  3534.8843              3535.0672              3557.9223
 Red. masses --     1.9211                 1.9199                 2.1766
 Frc consts  --     0.0000                 0.0000                 0.0000
 IR Inten    --     5.8303                38.8514                12.6747
 Raman Activ --     0.0000                 0.0000                 0.0000
 Depolar     --     0.0000                 0.0000                 0.0000
 Atom AN      X      Y      Z        X      Y      Z        X      Y      Z
   1   8     0.00   0.00   0.00     0.00   0.00   0.00    -0.00  -0.00  -0.00
   2   6    -0.00   0.00   0.00    -0.00  -0.00  -0.00    -0.00   0.00  -0.00
   3   1     0.00   0.00   0.00    -0.00   0.00   0.00     0.00  -0.00  -0.00
   4   1    -0.00  -0.00  -0.00     0.00   0.00  -0.00    -0.00  -0.00   0.00
   5   6     0.00   0.00   0.00    -0.00  -0.00  -0.00     0.00  -0.00  -0.00
   6   1    -0.00   0.00  -0.00     0.00  -0.00   0.00    -0.00   0.00   0.00
   7   1     0.00  -0.00  -0.00    -0.00   0.00   0.00     0.00  -0.00  -0.00
   8   7    -0.00  -0.00   0.00     0.00   0.00   0.00    -0.00   0.00   0.00
   9   6     0.00   0.00   0.00    -0.00  -0.00  -0.00    -0.00  -0.00   0.00
  10   1     0.00  -0.00  -0.00     0.00   0.00   0.00     0.00  -0.00   0.00
  11   1    -0.00  -0.00  -0.00     0.00   0.00  -0.00     0.00  -0.00   0.00
  12   1     0.00  -0.00   0.00    -0.00  -0.00  -0.00     0.00   0.00  -0.00
  13   6     0.00   0.00   0.00     0.00  -0.00  -0.00    -0.00  -0.00  -0.00
  14   1    -0.00  -0.00  -0.00     0.00   0.00   0.00    -0.00   0.00   0.00
  15   1     0.00  -0.00   0.00    -0.00   0.00  -0.00     0.00  -0.00  -0.00
  16   1    -0.00  -0.00   0.00    -0.00   0.00  -0.00     0.00   0.00  -0.00
  17   6     0.00   0.00  -0.00     0.00   0.00  -0.00    -0.00   0.00   0.00
  18   1     0.00  -0.00  -0.00     0.00  -0.00   0.00    -0.00  -0.00   0.00
  19   1    -0.00  -0.00   0.00    -0.00  -0.00  -0.00     0.00  -0.00   0.00
  20   1    -0.00  -0.00   0.00    -0.00   0.00   0.00     0.00  -0.00  -0.00
  21   1    -0.00  -0.01  -0.00    -0.00  -0.00  -0.00    -0.00   0.00   0.00
  22   6    -0.00  -0.00  -0.00     0.01   0.00  -0.00    -0.00  -0.00   0.00
  23   8     0.00   0.00   0.00    -0.00  -0.00  -0.00     0.00   0.00   0.00
  24   7    -0.12  -0.04  -0.01     0.18   0.06   0.01    -0.00  -0.00  -0.00
  25   1     0.01   0.03  -0.04    -0.03  -0.06   0.07    -0.00  -0.00   0.00
  26   1     0.45   0.13   0.07    -0.67  -0.19  -0.11     0.00   0.00   0.00
  27   7    -0.07  -0.01  -0.00     0.09   0.02   0.01    -0.00   0.00  -0.00
  28   1     0.25   0.05   0.01    -0.32  -0.06  -0.01     0.01   0.00   0.00
  29   1    -0.00  -0.00   0.01    -0.00   0.01  -0.01     0.00  -0.00   0.00
  30   6     0.00  -0.00   0.01     0.00  -0.00   0.00    -0.01  -0.00   0.00
  31   8    -0.00  -0.00  -0.00    -0.00  -0.00  -0.00     0.00   0.00  -0.00
  32   7     0.19   0.03   0.05     0.15   0.02   0.04    -0.03  -0.00  -0.01
  33   1    -0.04   0.06  -0.07    -0.03   0.05  -0.05     0.01  -0.01   0.01
  34   1    -0.69  -0.18  -0.13    -0.52  -0.14  -0.10     0.10   0.03   0.02
  35   7    -0.02  -0.01   0.01    -0.02  -0.01   0.01    -0.26  -0.11   0.11
  36   1     0.04  -0.00  -0.00     0.04  -0.00  -0.00     0.66  -0.03  -0.01
  37   1     0.03   0.05  -0.04     0.03   0.04  -0.03     0.31   0.45  -0.40
  38   6     0.00   0.00  -0.00     0.00  -0.00  -0.00     0.00  -0.00   0.00
  39   8     0.00   0.00   0.00    -0.00   0.00   0.00    -0.00   0.00   0.00
  40   7     0.06  -0.04  -0.05     0.00  -0.00  -0.00     0.00  -0.00  -0.00
  41   1    -0.00  -0.01   0.02    -0.00  -0.00   0.01     0.00  -0.00   0.00
  42   1    -0.21   0.16   0.15    -0.01   0.01   0.01    -0.01   0.00   0.00
  43   7    -0.01   0.01  -0.00    -0.00   0.00   0.00     0.02  -0.02  -0.00
  44   1     0.00  -0.00  -0.00     0.01  -0.01  -0.01    -0.03   0.03   0.03
  45   1     0.02  -0.02   0.02     0.00  -0.00   0.00    -0.03   0.04  -0.03
  46   6    -0.00  -0.00  -0.00    -0.00   0.00   0.00     0.00  -0.00  -0.00
  47   8     0.00   0.00  -0.00     0.00  -0.00  -0.00    -0.00  -0.00   0.00
  48   7     0.00  -0.00  -0.00    -0.00  -0.00   0.00     0.00   0.00  -0.00
  49   1    -0.00   0.00   0.00     0.00  -0.00  -0.00    -0.00   0.00   0.00
  50   1     0.00   0.00  -0.00     0.00   0.00  -0.00    -0.00  -0.00   0.00
  51   7    -0.00  -0.00   0.00     0.00   0.00  -0.00    -0.00  -0.00  -0.00
  52   1     0.00   0.00  -0.00    -0.00  -0.00   0.00     0.00   0.00  -0.00
  53   1    -0.00  -0.00  -0.00     0.00  -0.00  -0.00    -0.00   0.00   0.00
                    151                    152                    153
                        a                      a                      a 
 Frequencies --  3558.0762              3565.6689              3571.1563
 Red. masses --     2.1759                 2.1898                 2.1769
 Frc consts  --     0.0000                 0.0000                 0.0000
 IR Inten    --    14.5130                13.5843                12.5603
 Raman Activ --     0.0000                 0.0000                 0.0000
 Depolar     --     0.0000                 0.0000                 0.0000
 Atom AN      X      Y      Z        X      Y      Z        X      Y      Z
   1   8     0.00   0.00   0.00     0.00  -0.00  -0.00    -0.00  -0.00  -0.00
   2   6     0.00  -0.00   0.00    -0.00   0.00   0.00    -0.00   0.00   0.00
   3   1    -0.00   0.00  -0.00    -0.00  -0.00  -0.00     0.00  -0.00  -0.00
   4   1    -0.00   0.00  -0.00     0.00   0.00  -0.00    -0.00  -0.00   0.00
   5   6     0.00  -0.00  -0.00    -0.00  -0.00  -0.00     0.00  -0.00  -0.00
   6   1    -0.00   0.00   0.00    -0.00   0.00   0.00    -0.00   0.00   0.00
   7   1    -0.00  -0.00  -0.00     0.00  -0.00  -0.00    -0.00  -0.00  -0.00
   8   7    -0.00   0.00   0.00     0.00  -0.00  -0.00     0.00   0.00  -0.00
   9   6    -0.00  -0.00  -0.00    -0.00  -0.00   0.00    -0.00  -0.00   0.00
  10   1     0.00  -0.00   0.00    -0.00  -0.00   0.00    -0.00  -0.00   0.00
  11   1     0.00   0.00  -0.00     0.00   0.00  -0.00     0.00   0.00  -0.00
  12   1    -0.00  -0.00  -0.00    -0.00  -0.00   0.00    -0.00  -0.00   0.00
  13   6    -0.00  -0.00  -0.00    -0.00  -0.00  -0.00    -0.00  -0.00   0.00
  14   1    -0.00   0.00   0.00    -0.00   0.00   0.00    -0.00   0.00   0.00
  15   1     0.00  -0.00  -0.00     0.00  -0.00   0.00     0.00  -0.00   0.00
  16   1     0.00   0.00  -0.00     0.00   0.00  -0.00     0.00   0.00  -0.00
  17   6    -0.00  -0.00   0.00     0.00   0.00  -0.00    -0.00  -0.00   0.00
  18   1    -0.00  -0.00  -0.00     0.00   0.00  -0.00    -0.00  -0.00   0.00
  19   1    -0.00  -0.00  -0.00    -0.00   0.00  -0.00    -0.00  -0.00  -0.00
  20   1     0.00   0.00  -0.00    -0.00  -0.00   0.00     0.00   0.00  -0.00
  21   1    -0.00  -0.00  -0.00    -0.00   0.00   0.00     0.00   0.00   0.00
  22   6     0.00   0.00   0.00    -0.00  -0.00   0.00    -0.00   0.00   0.00
  23   8    -0.00  -0.00   0.00     0.00   0.00  -0.00     0.00  -0.00  -0.00
  24   7     0.00   0.00  -0.00     0.00   0.00  -0.00     0.00   0.00  -0.00
  25   1    -0.00  -0.01   0.01    -0.00  -0.00   0.00    -0.00  -0.00   0.00
  26   1    -0.01  -0.00  -0.00    -0.00  -0.00  -0.00    -0.00  -0.00  -0.00
  27   7     0.00  -0.00   0.00     0.00   0.00  -0.00     0.00  -0.00   0.00
  28   1    -0.00  -0.00  -0.00    -0.00  -0.00  -0.00    -0.00  -0.00  -0.00
  29   1    -0.00   0.00  -0.00    -0.00   0.00   0.00    -0.00   0.00  -0.00
  30   6     0.00   0.00  -0.00    -0.00  -0.00   0.00     0.00   0.00   0.00
  31   8    -0.00  -0.00   0.00     0.00   0.00  -0.00     0.00  -0.00   0.00
  32   7     0.00   0.00   0.00     0.00   0.00   0.00     0.00   0.00   0.00
  33   1    -0.00   0.00  -0.00    -0.00  -0.00   0.00    -0.00   0.00  -0.00
  34   1    -0.01  -0.00  -0.00    -0.00  -0.00  -0.00    -0.00  -0.00  -0.00
  35   7     0.02   0.01  -0.01     0.00   0.00  -0.00     0.00   0.00  -0.00
  36   1    -0.05   0.00   0.00    -0.00   0.00   0.00    -0.00   0.00   0.00
  37   1    -0.03  -0.04   0.03    -0.00  -0.00   0.00    -0.00  -0.00   0.00
  38   6     0.01  -0.01   0.00    -0.00  -0.00   0.00    -0.00   0.00   0.00
  39   8    -0.00   0.00   0.00     0.00  -0.00  -0.00     0.00  -0.00  -0.00
  40   7     0.02  -0.01  -0.01    -0.00   0.00  -0.00    -0.00   0.00  -0.00
  41   1    -0.00  -0.00   0.01    -0.00  -0.00   0.00    -0.00  -0.00   0.00
  42   1    -0.07   0.05   0.05     0.00  -0.00  -0.00     0.00  -0.00  -0.00
  43   7     0.21  -0.21  -0.00    -0.00   0.00   0.00    -0.00   0.00   0.00
  44   1    -0.42   0.35   0.36     0.00  -0.00  -0.00     0.00  -0.00  -0.00
  45   1    -0.40   0.44  -0.35     0.00  -0.00   0.00     0.00  -0.00   0.00
  46   6     0.00   0.00  -0.00     0.00  -0.00  -0.01    -0.01  -0.01   0.00
  47   8    -0.00  -0.00   0.00    -0.00   0.00   0.00     0.00   0.00  -0.00
  48   7    -0.00  -0.00   0.00     0.15   0.09  -0.14    -0.13  -0.08   0.13
  49   1     0.00   0.00  -0.00    -0.37   0.06   0.38     0.33  -0.05  -0.34
  50   1    -0.00  -0.00   0.00    -0.19  -0.39   0.16     0.18   0.37  -0.15
  51   7    -0.00  -0.00  -0.00    -0.03  -0.20  -0.02    -0.04  -0.22  -0.03
  52   1     0.00   0.00  -0.00     0.23   0.33  -0.11     0.26   0.37  -0.13
  53   1    -0.00   0.00   0.00    -0.12   0.43   0.21    -0.13   0.45   0.22
