 Entering Gaussian System
 *********************************************
 Gaussian 98:
 frequency output generated by the xtb code
 *********************************************
                         Standard orientation:
 --------------------------------------------------------------------
  Center     Atomic     Atomic              Coordinates (Angstroms)
  Number     Number      Type              X           Y           Z
 --------------------------------------------------------------------
    1          8             0       -1.787803   -2.567790    1.355630
    2          6             0       -0.444249   -2.943726    1.257693
    3          1             0       -0.383458   -4.018783    1.469648
    4          1             0       -0.051727   -2.776875    0.251133
    5          6             0        0.468533   -2.261188    2.299614
    6          1             0        1.476168   -2.650940    2.143866
    7          1             0        0.129424   -2.543951    3.298215
    8          7             0        0.527846   -0.776694    2.244539
    9          6             0        1.701425   -0.302678    2.996884
   10          1             0        1.672171   -0.669550    4.021237
   11          1             0        1.689013    0.787280    2.997914
   12          1             0        2.616395   -0.647377    2.519382
   13          6             0       -0.676929   -0.183678    2.851473
   14          1             0       -0.710339   -0.410850    3.915248
   15          1             0       -1.566995   -0.589783    2.377120
   16          1             0       -0.634128    0.895818    2.711671
   17          6             0        0.642856   -0.292376    0.859433
   18          1             0        1.449787   -0.803049    0.338340
   19          1             0        0.834294    0.780215    0.891083
   20          1             0       -0.294053   -0.458487    0.334253
   21          1             0       -2.008032   -1.960279    0.614050
   22          6             0        2.217253   -2.763535   -2.505635
   23          8             0        2.073497   -1.902404   -1.643352
   24          7             0        1.484754   -2.774143   -3.642893
   25          1             0        0.744714   -2.102771   -3.753818
   26          1             0        1.550808   -3.521197   -4.309649
   27          7             0        3.113042   -3.768874   -2.370958
   28          1             0        3.312519   -4.404828   -3.121541
   29          1             0        3.756582   -3.734072   -1.600526
   30          6             0        0.481904    3.699890    1.677168
   31          8             0        0.661447    2.530806    2.006072
   32          7             0        0.173254    4.068016    0.418561
   33          1             0       -0.079440    3.365451   -0.274870
   34          1             0       -0.086642    5.017481    0.219925
   35          7             0        0.588997    4.709299    2.582379
   36          1             0        0.581812    5.672498    2.300014
   37          1             0        0.951712    4.493419    3.493793
   38          6             0        0.382941    1.352390   -1.893693
   39          8             0       -0.483719    2.181104   -1.596427
   40          7             0        0.100239    0.067061   -2.190331
   41          1             0       -0.811180   -0.260947   -1.883865
   42          1             0        0.854753   -0.609866   -2.087978
   43          7             0        1.690328    1.698801   -1.948584
   44          1             0        2.379462    1.041063   -2.264936
   45          1             0        1.939729    2.670257   -1.894106
   46          6             0       -3.145415    0.016918   -0.616621
   47          8             0       -2.158751   -0.734061   -0.579301
   48          7             0       -3.057080    1.265723   -1.080685
   49          1             0       -2.137606    1.645955   -1.335390
   50          1             0       -3.852481    1.877296   -1.089339
   51          7             0       -4.346921   -0.403162   -0.156732
   52          1             0       -5.178225    0.146609   -0.275246
   53          1             0       -4.451960   -1.367442    0.107335
 --------------------------------------------------------------------
     1 basis functions        1 primitive gaussians
     1 alpha electrons        1 beta electrons

 Harmonic frequencies (cm**-1), IR intensities (km*mol⁻¹),
 Raman scattering activities (A**4/amu), Raman depolarization ratios,
 reduced masses (AMU), force constants (mDyne/A) and normal coordinates:
                      1                      2                      3
                        a                      a                      a 
 Frequencies --     3.2833                18.4530                20.6213
 Red. masses --    12.2376                11.8539                12.0526
 Frc consts  --     0.0000                 0.0000                 0.0000
 IR Inten    --     0.9667                 0.6521                 0.7271
 Raman Activ --     0.0000                 0.0000                 0.0000
 Depolar     --     0.0000                 0.0000                 0.0000
 Atom AN      X      Y      Z        X      Y      Z        X      Y      Z
   1   8    -0.20   0.07   0.19    -0.07   0.05   0.01    -0.02  -0.02  -0.09
   2   6    -0.20  -0.02   0.15    -0.07   0.01  -0.03    -0.02  -0.01  -0.11
   3   1    -0.07  -0.00   0.06    -0.03   0.00  -0.01    -0.00  -0.00  -0.04
   4   1    -0.06  -0.02   0.04    -0.03   0.00  -0.01    -0.01   0.01  -0.03
   5   6    -0.14  -0.02   0.11    -0.03  -0.02  -0.05    -0.01  -0.03  -0.10
   6   1    -0.05  -0.02   0.03    -0.01  -0.01  -0.03    -0.00  -0.01  -0.04
   7   1    -0.04   0.01   0.04     0.00  -0.01  -0.01     0.00  -0.02  -0.03
   8   7    -0.07  -0.02   0.05    -0.00  -0.03  -0.04    -0.01  -0.03  -0.06
   9   6    -0.03  -0.05   0.01     0.03  -0.05  -0.07    -0.01  -0.05  -0.04
  10   1    -0.01  -0.00   0.01     0.02  -0.02  -0.02    -0.00  -0.02  -0.02
  11   1     0.01  -0.01  -0.01     0.02  -0.02  -0.02    -0.00  -0.01  -0.00
  12   1    -0.02  -0.03   0.00     0.00  -0.02  -0.03    -0.00  -0.01  -0.02
  13   6    -0.03   0.06   0.04     0.03  -0.01   0.02    -0.01  -0.05  -0.03
  14   1    -0.01   0.03   0.01     0.02  -0.01   0.00    -0.00  -0.02  -0.01
  15   1    -0.02   0.03   0.02     0.00   0.00   0.01    -0.00  -0.01  -0.01
  16   1     0.01   0.02  -0.00     0.01  -0.00   0.01    -0.00  -0.01  -0.00
  17   6    -0.06  -0.08   0.02    -0.05  -0.01  -0.03    -0.02   0.01  -0.04
  18   1    -0.02  -0.04   0.01    -0.02  -0.00  -0.02    -0.01   0.01  -0.02
  19   1    -0.00  -0.03  -0.01    -0.01  -0.00  -0.01    -0.01   0.00  -0.00
  20   1    -0.02  -0.02   0.01    -0.02   0.00  -0.00    -0.01   0.01  -0.01
  21   1    -0.04   0.01   0.04    -0.02   0.01  -0.00    -0.01   0.01  -0.01
  22   6     0.20   0.14  -0.12     0.04   0.03   0.09     0.11  -0.04   0.01
  23   8     0.06   0.04  -0.05     0.07   0.17  -0.02     0.01  -0.02  -0.03
  24   7     0.35   0.23  -0.21    -0.27  -0.37   0.31     0.03  -0.26   0.07
  25   1     0.08   0.05  -0.06    -0.11  -0.14   0.10    -0.02  -0.11   0.02
  26   1     0.13   0.08  -0.08    -0.06  -0.12   0.11     0.04  -0.08   0.03
  27   7     0.27   0.20  -0.14     0.33   0.28   0.04     0.32   0.14   0.01
  28   1     0.10   0.08  -0.05     0.08   0.05   0.03     0.10   0.03   0.01
  29   1     0.05   0.04  -0.01     0.14   0.16  -0.04     0.10   0.08  -0.01
  30   6     0.11  -0.03  -0.09     0.13  -0.02   0.02    -0.13  -0.03   0.01
  31   8     0.11  -0.04  -0.09     0.11  -0.03   0.01    -0.12  -0.03   0.02
  32   7     0.08  -0.05  -0.09     0.08   0.00   0.04    -0.06  -0.04  -0.01
  33   1     0.01  -0.01  -0.02    -0.00   0.00   0.02     0.01  -0.01  -0.01
  34   1     0.03  -0.01  -0.02     0.03   0.00   0.02    -0.02  -0.01  -0.01
  35   7     0.19  -0.03  -0.11     0.27  -0.02   0.02    -0.28  -0.03   0.03
  36   1     0.06  -0.01  -0.03     0.08  -0.01   0.01    -0.08  -0.01   0.01
  37   1     0.06  -0.01  -0.03     0.08  -0.01  -0.00    -0.09  -0.01   0.01
  38   6    -0.06  -0.10   0.03    -0.07   0.06   0.02     0.03  -0.07  -0.09
  39   8    -0.06  -0.08  -0.00    -0.10   0.04   0.07     0.10  -0.02  -0.10
  40   7    -0.10  -0.10   0.03    -0.05   0.07  -0.01    -0.05  -0.07  -0.05
  41   1    -0.03  -0.02   0.01    -0.01   0.01   0.00    -0.02  -0.00  -0.01
  42   1    -0.03  -0.03   0.01    -0.01   0.02  -0.02    -0.02  -0.03  -0.02
  43   7    -0.06  -0.14   0.05    -0.09   0.10   0.00     0.05  -0.16  -0.14
  44   1    -0.02  -0.05   0.03    -0.02   0.03  -0.00     0.00  -0.06  -0.04
  45   1    -0.01  -0.04   0.02    -0.03   0.03   0.01     0.03  -0.05  -0.05
  46   6    -0.09   0.01   0.05    -0.07  -0.05  -0.09     0.02   0.19   0.17
  47   8    -0.11  -0.01   0.11    -0.06  -0.03  -0.06    -0.05   0.12   0.05
  48   7    -0.08  -0.02  -0.01    -0.09  -0.04  -0.06     0.08   0.20   0.18
  49   1    -0.02  -0.01  -0.00    -0.02  -0.00  -0.00     0.02   0.03   0.02
  50   1    -0.02  -0.00  -0.01    -0.03  -0.02  -0.03     0.04   0.07   0.08
  51   7    -0.11   0.04   0.06    -0.09  -0.10  -0.18     0.04   0.32   0.35
  52   1    -0.03   0.01   0.01    -0.03  -0.03  -0.05     0.02   0.11   0.11
  53   1    -0.03   0.02   0.03    -0.02  -0.03  -0.05    -0.01   0.09   0.09
                      4                      5                      6
                        a                      a                      a 
 Frequencies --    27.0179                28.7075                37.3430
 Red. masses --    11.1798                11.9300                12.3408
 Frc consts  --     0.0000                 0.0000                 0.0000
 IR Inten    --     1.9011                 2.8166                 4.7610
 Raman Activ --     0.0000                 0.0000                 0.0000
 Depolar     --     0.0000                 0.0000                 0.0000
 Atom AN      X      Y      Z        X      Y      Z        X      Y      Z
   1   8     0.02   0.09   0.00     0.07  -0.24  -0.25     0.15  -0.07  -0.05
   2   6    -0.00   0.05  -0.16     0.11  -0.08  -0.13     0.16   0.08  -0.11
   3   1    -0.00   0.01  -0.07     0.06  -0.02  -0.04     0.08   0.02  -0.05
   4   1    -0.03   0.03  -0.05     0.05  -0.01  -0.03     0.04   0.05  -0.03
   5   6     0.11  -0.03  -0.20    -0.04  -0.01  -0.05     0.11   0.08  -0.07
   6   1     0.03  -0.01  -0.10     0.00   0.01   0.01     0.04   0.05  -0.03
   7   1     0.07  -0.03  -0.05    -0.03  -0.01  -0.02     0.05  -0.00  -0.03
   8   7     0.11  -0.03  -0.10    -0.13  -0.01  -0.05    -0.02   0.10   0.03
   9   6     0.20  -0.08  -0.21    -0.22   0.06   0.07    -0.05   0.15   0.03
  10   1     0.09  -0.05  -0.07    -0.09   0.02   0.02    -0.00   0.02   0.00
  11   1     0.06  -0.02  -0.04    -0.08   0.02   0.02    -0.04   0.04   0.03
  12   1     0.04  -0.01  -0.10    -0.04   0.03   0.05    -0.01   0.07  -0.00
  13   6     0.18  -0.08   0.09    -0.21  -0.07  -0.16    -0.06  -0.05   0.08
  14   1     0.09  -0.04   0.02    -0.09  -0.02  -0.05    -0.01  -0.04   0.02
  15   1     0.04  -0.02   0.05    -0.04  -0.03  -0.07    -0.01  -0.03   0.02
  16   1     0.04  -0.02   0.05    -0.07  -0.02  -0.04    -0.05  -0.01   0.05
  17   6    -0.06   0.07  -0.07    -0.02  -0.00  -0.03    -0.09   0.19   0.05
  18   1    -0.03   0.03  -0.06     0.01   0.01   0.01    -0.02   0.08   0.00
  19   1    -0.02   0.02  -0.01    -0.02   0.00  -0.00    -0.05   0.06   0.03
  20   1    -0.03   0.03   0.01     0.01  -0.01  -0.03    -0.03   0.05   0.02
  21   1    -0.02   0.02   0.01     0.02  -0.05  -0.05     0.01  -0.02  -0.00
  22   6     0.05  -0.02   0.15     0.02   0.04   0.09    -0.02  -0.06  -0.09
  23   8    -0.10   0.02   0.11    -0.03   0.09   0.05    -0.16  -0.17  -0.04
  24   7     0.36   0.02  -0.04     0.14   0.03   0.02     0.00  -0.07  -0.12
  25   1     0.11   0.02  -0.06     0.05   0.01  -0.02    -0.02  -0.04  -0.02
  26   1     0.12  -0.01   0.01     0.04  -0.00   0.02     0.03  -0.00  -0.05
  27   7    -0.09  -0.11   0.44    -0.05  -0.00   0.24     0.12   0.05  -0.18
  28   1     0.02  -0.03   0.13     0.00  -0.01   0.07     0.05   0.03  -0.06
  29   1    -0.07  -0.03   0.16    -0.03   0.00   0.08     0.02   0.01  -0.04
  30   6     0.03  -0.01   0.05     0.11   0.02  -0.07     0.03   0.10   0.09
  31   8     0.09  -0.01   0.06    -0.13  -0.00  -0.03    -0.17   0.13   0.27
  32   7    -0.04  -0.03   0.07     0.20   0.03  -0.09     0.27   0.01   0.01
  33   1    -0.01  -0.01   0.02     0.01   0.01  -0.01     0.05  -0.01   0.02
  34   1    -0.02  -0.01   0.02     0.10   0.02  -0.03     0.10   0.00  -0.03
  35   7     0.03  -0.01   0.04     0.35   0.04  -0.12     0.05   0.20  -0.01
  36   1    -0.00  -0.00   0.01     0.14   0.01  -0.04     0.05   0.05  -0.03
  37   1     0.02   0.00   0.01     0.07   0.00  -0.03    -0.03   0.07   0.02
  38   6    -0.09  -0.01  -0.01    -0.06   0.06  -0.01    -0.00  -0.15   0.07
  39   8    -0.09  -0.00   0.02    -0.10   0.04   0.01     0.08  -0.12   0.16
  40   7    -0.13   0.00  -0.05    -0.04   0.07  -0.06    -0.10  -0.12   0.01
  41   1    -0.03   0.00  -0.01    -0.01   0.01  -0.02    -0.03  -0.02   0.01
  42   1    -0.04  -0.00  -0.01    -0.01   0.02  -0.01    -0.04  -0.05  -0.01
  43   7    -0.10  -0.03  -0.02    -0.08   0.10   0.01     0.03  -0.26   0.07
  44   1    -0.03  -0.01  -0.01    -0.02   0.03  -0.00    -0.01  -0.08  -0.00
  45   1    -0.02  -0.01   0.00    -0.03   0.03   0.01     0.03  -0.08   0.02
  46   6    -0.12   0.05  -0.03     0.02  -0.04   0.12    -0.08  -0.01  -0.04
  47   8    -0.13   0.06   0.01     0.02  -0.05  -0.05    -0.11  -0.03   0.02
  48   7    -0.12   0.05  -0.05    -0.04  -0.01   0.22    -0.00   0.03   0.08
  49   1    -0.03   0.01  -0.00    -0.02   0.00   0.03     0.01   0.00   0.04
  50   1    -0.03   0.01  -0.02    -0.01   0.00   0.10     0.00   0.01   0.00
  51   7    -0.14   0.05  -0.08     0.08  -0.06   0.28    -0.15  -0.03  -0.23
  52   1    -0.04   0.01  -0.03     0.02  -0.02   0.10    -0.03  -0.00  -0.07
  53   1    -0.04   0.01  -0.02     0.03  -0.02   0.05    -0.05  -0.01  -0.08
                      7                      8                      9
                        a                      a                      a 
 Frequencies --    47.5295                50.4178                54.7820
 Red. masses --    11.8418                12.3310                12.3587
 Frc consts  --     0.0000                 0.0000                 0.0000
 IR Inten    --     3.1988                 0.8981                 0.8088
 Raman Activ --     0.0000                 0.0000                 0.0000
 Depolar     --     0.0000                 0.0000                 0.0000
 Atom AN      X      Y      Z        X      Y      Z        X      Y      Z
   1   8     0.00   0.04  -0.05    -0.08   0.04   0.07     0.06  -0.05  -0.11
   2   6    -0.00   0.01  -0.06    -0.07   0.02   0.11     0.08   0.04  -0.05
   3   1    -0.00   0.00  -0.01    -0.02   0.01   0.05     0.04   0.01  -0.02
   4   1    -0.01  -0.00  -0.02    -0.02  -0.02   0.03     0.03   0.03  -0.01
   5   6     0.02   0.01  -0.08    -0.08   0.09   0.07    -0.01   0.06   0.02
   6   1     0.01   0.00  -0.03    -0.02   0.02   0.04     0.00   0.02   0.03
   7   1     0.01   0.00  -0.02    -0.03   0.05   0.02    -0.03   0.02  -0.00
   8   7     0.03   0.01  -0.10    -0.04   0.09  -0.06    -0.01   0.06   0.02
   9   6     0.05   0.01  -0.13    -0.06   0.11  -0.04    -0.08   0.06   0.14
  10   1     0.03   0.01  -0.04    -0.03   0.05  -0.00    -0.06   0.02   0.04
  11   1     0.01   0.00  -0.04    -0.01   0.03  -0.04    -0.02   0.02   0.04
  12   1     0.01   0.00  -0.05    -0.01   0.01   0.01    -0.01   0.01   0.07
  13   6     0.04   0.01  -0.05    -0.05   0.17  -0.15    -0.06   0.07  -0.10
  14   1     0.02   0.01  -0.01    -0.03   0.07  -0.04    -0.06   0.01  -0.03
  15   1     0.01   0.00  -0.00    -0.01   0.05  -0.05    -0.01   0.03  -0.06
  16   1     0.01   0.00  -0.02     0.00   0.05  -0.06    -0.01   0.02  -0.02
  17   6    -0.02   0.00  -0.09     0.02  -0.02  -0.09     0.13   0.05   0.03
  18   1    -0.01   0.00  -0.03     0.01  -0.02  -0.01     0.04   0.01   0.03
  19   1    -0.01   0.00  -0.03     0.01  -0.01  -0.04     0.05   0.01   0.01
  20   1    -0.01  -0.00  -0.02     0.01  -0.01  -0.03     0.05   0.03  -0.01
  21   1    -0.00   0.00  -0.02    -0.01  -0.00   0.00     0.02   0.01  -0.01
  22   6    -0.00   0.01  -0.02     0.06  -0.11  -0.14     0.01  -0.11  -0.07
  23   8     0.09   0.08  -0.07     0.03   0.06  -0.36    -0.13  -0.15  -0.08
  24   7    -0.09  -0.04   0.04     0.16  -0.32  -0.22     0.07  -0.18  -0.12
  25   1    -0.00   0.01  -0.00     0.05  -0.09  -0.11     0.00  -0.07  -0.04
  26   1    -0.03  -0.01   0.01     0.04  -0.12  -0.01     0.04  -0.05  -0.03
  27   7    -0.04  -0.02  -0.00    -0.01  -0.15   0.13     0.09  -0.04  -0.04
  28   1    -0.03  -0.02   0.01     0.02  -0.07   0.07     0.05  -0.01  -0.01
  29   1    -0.00  -0.00  -0.01    -0.01   0.00   0.04     0.01  -0.00   0.00
  30   6    -0.03   0.04  -0.10     0.02   0.03   0.07     0.02   0.01   0.11
  31   8     0.01   0.04  -0.16     0.16   0.03  -0.03     0.19   0.03   0.14
  32   7    -0.00   0.08  -0.10    -0.06   0.09   0.11    -0.36  -0.07   0.20
  33   1    -0.01   0.02  -0.03     0.00   0.03   0.02    -0.08  -0.03   0.06
  34   1    -0.02   0.02  -0.02    -0.05   0.02   0.05    -0.10  -0.02   0.05
  35   7    -0.09   0.01  -0.07    -0.08  -0.03   0.16     0.22   0.05   0.04
  36   1    -0.03   0.01  -0.01    -0.04  -0.00   0.06     0.02   0.01   0.00
  37   1    -0.02  -0.00  -0.02    -0.00  -0.02   0.03     0.12   0.03  -0.01
  38   6     0.02  -0.06   0.22     0.00   0.03   0.03    -0.05  -0.01   0.01
  39   8    -0.01  -0.04   0.09     0.04   0.01   0.20    -0.07  -0.04   0.02
  40   7     0.02   0.00  -0.05    -0.03   0.08  -0.10    -0.02  -0.01  -0.04
  41   1    -0.01  -0.00  -0.07    -0.01   0.01  -0.03    -0.01  -0.01  -0.02
  42   1    -0.00  -0.01  -0.00    -0.01   0.01  -0.07    -0.01  -0.00  -0.02
  43   7     0.07  -0.16   0.72     0.01   0.02   0.00    -0.05   0.01   0.08
  44   1     0.03  -0.05   0.23    -0.01   0.01  -0.03    -0.01   0.01   0.00
  45   1     0.04  -0.05   0.26     0.01   0.00   0.03    -0.02   0.00   0.02
  46   6    -0.01  -0.01   0.01     0.02  -0.06   0.05    -0.01   0.05  -0.04
  47   8    -0.03  -0.03  -0.09     0.02  -0.08  -0.04     0.05   0.15   0.09
  48   7    -0.05  -0.03  -0.08     0.07   0.04   0.35    -0.14  -0.09  -0.45
  49   1    -0.01  -0.01  -0.02     0.02   0.01   0.09    -0.04  -0.01  -0.10
  50   1    -0.01   0.00   0.02     0.01   0.01   0.09    -0.04  -0.03  -0.11
  51   7     0.03   0.05   0.19    -0.02  -0.16  -0.13     0.06   0.10   0.20
  52   1     0.01   0.01   0.06    -0.00  -0.03  -0.01     0.00  -0.00   0.01
  53   1     0.01   0.01   0.05    -0.01  -0.05  -0.07     0.04   0.04   0.11
                     10                     11                     12
                        a                      a                      a 
 Frequencies --    59.9882                64.9838                66.3831
 Red. masses --    13.6864                12.8175                13.0031
 Frc consts  --     0.0000                 0.0000                 0.0000
 IR Inten    --     2.3717                 2.6987                 1.0093
 Raman Activ --     0.0000                 0.0000                 0.0000
 Depolar     --     0.0000                 0.0000                 0.0000
 Atom AN      X      Y      Z        X      Y      Z        X      Y      Z
   1   8     0.04  -0.01  -0.11    -0.14   0.26   0.08    -0.01   0.01  -0.02
   2   6     0.04  -0.01  -0.04    -0.16   0.07   0.01    -0.00   0.03  -0.06
   3   1     0.01  -0.00  -0.01    -0.07   0.02   0.01     0.01   0.01  -0.03
   4   1     0.03  -0.00  -0.01    -0.06   0.00  -0.00    -0.01   0.02  -0.02
   5   6    -0.01   0.00  -0.00    -0.05   0.03  -0.06     0.01   0.01  -0.06
   6   1    -0.00  -0.00   0.02    -0.02   0.01  -0.05     0.00   0.01  -0.03
   7   1    -0.02   0.01  -0.00     0.02   0.00  -0.01     0.01  -0.01  -0.02
   8   7     0.01   0.00  -0.03    -0.05   0.03  -0.03    -0.04   0.02   0.00
   9   6     0.00   0.01  -0.02     0.05   0.01  -0.16    -0.03   0.02  -0.00
  10   1    -0.01   0.01  -0.00     0.05  -0.01  -0.05    -0.00  -0.01  -0.00
  11   1     0.01   0.00  -0.02     0.01   0.00  -0.03    -0.02   0.01   0.01
  12   1     0.00  -0.01   0.00    -0.00   0.01  -0.09    -0.01   0.02  -0.01
  13   6     0.00   0.03  -0.08     0.02  -0.00   0.15    -0.04  -0.04   0.05
  14   1    -0.01   0.02  -0.02     0.05  -0.00   0.04    -0.00  -0.02   0.01
  15   1     0.00   0.01  -0.02    -0.01  -0.01   0.08    -0.01  -0.01   0.02
  16   1     0.01   0.01  -0.03    -0.01   0.00   0.04    -0.02  -0.01   0.03
  17   6     0.04  -0.03  -0.04    -0.21   0.07  -0.03    -0.07   0.07   0.02
  18   1     0.01  -0.02  -0.01    -0.07   0.03  -0.03    -0.02   0.04  -0.00
  19   1     0.02  -0.01  -0.02    -0.07   0.02  -0.00    -0.03   0.02   0.02
  20   1     0.01  -0.01  -0.01    -0.07   0.01   0.01    -0.02   0.02   0.01
  21   1     0.02  -0.01  -0.03    -0.03   0.02  -0.02    -0.01  -0.00  -0.01
  22   6    -0.06  -0.06   0.10     0.01  -0.09  -0.02     0.07   0.09  -0.01
  23   8    -0.33  -0.34   0.35    -0.07  -0.21   0.07     0.38   0.24  -0.09
  24   7     0.02   0.09   0.05     0.06  -0.02  -0.06    -0.09   0.10   0.10
  25   1    -0.04  -0.02   0.06    -0.01  -0.03   0.01     0.02   0.07   0.02
  26   1     0.05   0.07  -0.03     0.02   0.01  -0.03    -0.08   0.01   0.04
  27   7     0.16   0.11  -0.11     0.08  -0.05  -0.10    -0.12  -0.08  -0.00
  28   1     0.08   0.08  -0.06     0.04   0.01  -0.04    -0.09  -0.05   0.01
  29   1     0.01  -0.00  -0.01     0.01  -0.03  -0.02     0.00  -0.03  -0.03
  30   6     0.01   0.01  -0.08    -0.04   0.04   0.08    -0.05  -0.00   0.03
  31   8     0.23   0.01  -0.22    -0.19   0.05   0.16    -0.02   0.02   0.11
  32   7    -0.33   0.06   0.02    -0.06   0.00   0.08    -0.49  -0.12   0.12
  33   1    -0.06   0.02  -0.01    -0.02  -0.00   0.03    -0.10  -0.04   0.03
  34   1    -0.11   0.01   0.03     0.02   0.01   0.00    -0.09  -0.03   0.01
  35   7     0.08  -0.04  -0.04     0.15   0.09   0.01     0.31   0.09  -0.11
  36   1    -0.02  -0.01   0.01     0.06   0.02  -0.01     0.05   0.02  -0.05
  37   1     0.08  -0.02  -0.04     0.03   0.03   0.01     0.13   0.04  -0.05
  38   6     0.02   0.01   0.04     0.06   0.05  -0.02     0.05  -0.13  -0.03
  39   8     0.01   0.03  -0.03     0.01  -0.03   0.04     0.07  -0.11  -0.09
  40   7     0.03   0.01   0.05     0.16   0.04  -0.04     0.04  -0.15   0.02
  41   1    -0.00   0.01  -0.00     0.04  -0.01  -0.02     0.01  -0.03   0.00
  42   1    -0.00  -0.01   0.04     0.05   0.01  -0.01     0.02  -0.03   0.01
  43   7     0.03   0.01   0.12     0.04   0.16  -0.04     0.06  -0.18  -0.03
  44   1     0.01   0.01   0.03     0.02   0.07  -0.05     0.01  -0.06   0.02
  45   1     0.00   0.00   0.03    -0.02   0.05  -0.02     0.03  -0.05  -0.02
  46   6    -0.00   0.02   0.01     0.07  -0.13  -0.04    -0.00   0.02   0.01
  47   8    -0.02  -0.00  -0.10     0.02  -0.24  -0.38    -0.05  -0.04  -0.05
  48   7     0.05   0.14   0.35     0.04  -0.12  -0.01     0.10   0.09   0.22
  49   1     0.01   0.03   0.07     0.01  -0.03  -0.02     0.03   0.00   0.03
  50   1     0.01   0.03   0.08     0.03  -0.01   0.09     0.03   0.03   0.05
  51   7    -0.04  -0.08  -0.17     0.17  -0.06   0.30    -0.05   0.04  -0.09
  52   1    -0.01  -0.01  -0.01     0.05  -0.00   0.13    -0.00   0.03  -0.00
  53   1    -0.01  -0.03  -0.09     0.04  -0.02   0.06    -0.03   0.01  -0.05
                     13                     14                     15
                        a                      a                      a 
 Frequencies --    77.9254                82.2890                92.0089
 Red. masses --    13.1829                11.5964                13.1627
 Frc consts  --     0.0000                 0.0000                 0.0000
 IR Inten    --     5.9688                 4.4884                 8.2325
 Raman Activ --     0.0000                 0.0000                 0.0000
 Depolar     --     0.0000                 0.0000                 0.0000
 Atom AN      X      Y      Z        X      Y      Z        X      Y      Z
   1   8    -0.04   0.06  -0.08    -0.11   0.17  -0.15    -0.02  -0.21  -0.01
   2   6    -0.03   0.08  -0.06    -0.12   0.11  -0.18     0.01  -0.04  -0.10
   3   1    -0.00   0.02  -0.02    -0.04   0.02  -0.09     0.04  -0.01  -0.04
   4   1    -0.01   0.03  -0.01    -0.03   0.07  -0.05    -0.02   0.01  -0.03
   5   6    -0.06   0.10  -0.04    -0.10  -0.07  -0.09     0.00  -0.00  -0.11
   6   1    -0.02   0.02   0.00    -0.04  -0.04  -0.03     0.01   0.02  -0.05
   7   1    -0.03   0.03  -0.01    -0.05  -0.04  -0.04     0.02  -0.02  -0.03
   8   7    -0.04   0.10  -0.08     0.04  -0.07   0.08    -0.09   0.00  -0.07
   9   6    -0.06   0.07  -0.01     0.02  -0.25   0.21    -0.07   0.04  -0.11
  10   1    -0.04   0.03  -0.00    -0.03  -0.10   0.05    -0.01   0.01  -0.03
  11   1    -0.01   0.02  -0.01     0.04  -0.07   0.09    -0.03   0.01  -0.03
  12   1    -0.01   0.01   0.01     0.01  -0.08   0.07    -0.02   0.02  -0.04
  13   6    -0.05   0.13  -0.15     0.05  -0.01   0.04    -0.09  -0.07  -0.02
  14   1    -0.04   0.03  -0.04    -0.01  -0.03   0.01    -0.02  -0.03  -0.01
  15   1    -0.01   0.05  -0.06     0.01   0.03  -0.02    -0.02  -0.02  -0.00
  16   1     0.00   0.04  -0.03     0.04  -0.00   0.04    -0.04  -0.02   0.00
  17   6     0.04   0.07  -0.07     0.17   0.07   0.13    -0.15   0.04  -0.06
  18   1     0.01   0.01  -0.01     0.05   0.01   0.04    -0.05   0.02  -0.03
  19   1     0.03   0.02  -0.02     0.07   0.02   0.07    -0.05   0.01  -0.01
  20   1     0.02   0.02  -0.03     0.06   0.06   0.02    -0.05   0.01  -0.00
  21   1    -0.01  -0.00  -0.03    -0.02   0.06  -0.03    -0.03  -0.04   0.02
  22   6    -0.05   0.13   0.10     0.06  -0.07  -0.04     0.11  -0.09   0.00
  23   8    -0.01   0.11   0.16     0.15  -0.07  -0.04     0.29  -0.13   0.06
  24   7    -0.09   0.21   0.13     0.02  -0.05  -0.01     0.02   0.03   0.07
  25   1    -0.02   0.06   0.05     0.01  -0.00   0.00     0.02   0.02   0.05
  26   1    -0.03   0.07   0.02    -0.01  -0.01  -0.00    -0.03   0.01   0.01
  27   7    -0.06   0.12   0.03     0.02  -0.12  -0.07     0.04  -0.19  -0.13
  28   1    -0.03   0.04   0.00    -0.01  -0.03  -0.02    -0.02  -0.04  -0.05
  29   1    -0.01   0.02   0.01     0.02  -0.04  -0.03     0.03  -0.08  -0.05
  30   6     0.14  -0.04   0.10     0.02   0.06  -0.05     0.07   0.12  -0.04
  31   8     0.45   0.01   0.14     0.14   0.14   0.13     0.26   0.13  -0.18
  32   7     0.15  -0.12   0.08     0.09  -0.12  -0.13     0.02   0.21  -0.01
  33   1     0.07  -0.05   0.03     0.01  -0.06  -0.01     0.01   0.06  -0.00
  34   1    -0.02  -0.05   0.02    -0.01  -0.05  -0.06    -0.05   0.05   0.03
  35   7    -0.22  -0.01   0.13    -0.16   0.21  -0.18    -0.09   0.05   0.07
  36   1    -0.10  -0.00   0.03    -0.05   0.04  -0.09    -0.04   0.02   0.04
  37   1    -0.04   0.02   0.03    -0.04   0.10  -0.04     0.01   0.00   0.00
  38   6    -0.02  -0.14  -0.06    -0.05   0.00   0.02     0.07   0.02   0.12
  39   8     0.04  -0.15   0.06    -0.16  -0.10  -0.00     0.03  -0.08   0.25
  40   7    -0.08  -0.13  -0.15     0.09  -0.03   0.04     0.17  -0.04   0.26
  41   1    -0.02  -0.03  -0.04     0.03  -0.02   0.01     0.05  -0.02   0.08
  42   1    -0.02  -0.03  -0.02     0.04   0.01   0.01     0.06   0.00   0.05
  43   7    -0.01  -0.21  -0.14    -0.09   0.15   0.06     0.01   0.18  -0.17
  44   1    -0.01  -0.06  -0.04    -0.00   0.06   0.01     0.02   0.07  -0.05
  45   1     0.01  -0.06  -0.01    -0.06   0.05   0.02    -0.02   0.06  -0.05
  46   6     0.01  -0.10  -0.03    -0.03   0.02   0.05    -0.12  -0.00   0.05
  47   8    -0.00  -0.14  -0.20     0.09   0.17  -0.01    -0.18  -0.05   0.13
  48   7    -0.02  -0.10  -0.02    -0.17   0.08   0.20    -0.07  -0.06  -0.09
  49   1    -0.01  -0.03  -0.01    -0.05   0.03   0.03    -0.01  -0.02   0.00
  50   1     0.00  -0.02   0.03    -0.06  -0.01   0.04    -0.01   0.00  -0.02
  51   7     0.07  -0.08   0.16     0.03  -0.20  -0.01    -0.16   0.11   0.10
  52   1     0.02  -0.02   0.07    -0.01  -0.08   0.03    -0.04   0.03  -0.01
  53   1     0.02  -0.02   0.03     0.05  -0.06  -0.01    -0.06   0.03   0.03
                     16                     17                     18
                        a                      a                      a 
 Frequencies --   100.0795               101.1991               113.7084
 Red. masses --    12.9809                12.3584                12.5267
 Frc consts  --     0.0000                 0.0000                 0.0000
 IR Inten    --     7.3964                17.1106                 8.3649
 Raman Activ --     0.0000                 0.0000                 0.0000
 Depolar     --     0.0000                 0.0000                 0.0000
 Atom AN      X      Y      Z        X      Y      Z        X      Y      Z
   1   8     0.19   0.22  -0.15    -0.15  -0.05   0.11     0.03   0.15  -0.12
   2   6     0.15   0.08   0.07    -0.13   0.01  -0.01    -0.00   0.02  -0.03
   3   1     0.01   0.03   0.05    -0.02   0.01   0.01    -0.03   0.00  -0.01
   4   1     0.08  -0.01   0.03    -0.07  -0.00  -0.01     0.02   0.00  -0.00
   5   6     0.06   0.12   0.12    -0.04   0.06  -0.12    -0.03  -0.07   0.05
   6   1     0.02   0.03   0.07    -0.02  -0.00  -0.04    -0.02  -0.05   0.04
   7   1    -0.01   0.05   0.03    -0.00   0.05  -0.02    -0.05  -0.01   0.00
   8   7     0.04   0.12   0.04     0.06   0.06  -0.23     0.13  -0.08   0.04
   9   6     0.02   0.19   0.01     0.04   0.02  -0.17     0.08  -0.17   0.16
  10   1     0.01   0.07   0.01    -0.01   0.01  -0.05    -0.02  -0.05   0.05
  11   1    -0.01   0.06  -0.01     0.02   0.00  -0.05     0.05  -0.05   0.05
  12   1     0.01   0.06   0.01     0.02  -0.01  -0.03     0.03  -0.07   0.08
  13   6     0.01   0.11  -0.02     0.06   0.18  -0.34     0.11   0.05  -0.10
  14   1     0.01   0.06   0.00    -0.02   0.06  -0.10    -0.00   0.03  -0.03
  15   1     0.01   0.01   0.00     0.02   0.08  -0.12     0.04   0.02  -0.05
  16   1    -0.01   0.03  -0.03     0.05   0.05  -0.10     0.06   0.01  -0.05
  17   6     0.04  -0.00  -0.01     0.19  -0.04  -0.23     0.28  -0.10   0.05
  18   1     0.01  -0.01   0.01     0.05  -0.04  -0.05     0.09  -0.04   0.03
  19   1     0.01  -0.00  -0.02     0.07  -0.02  -0.08     0.08  -0.03   0.01
  20   1     0.01  -0.01   0.00     0.06  -0.00  -0.07     0.09  -0.02  -0.01
  21   1     0.06   0.03  -0.06    -0.04   0.02   0.05     0.01   0.01  -0.05
  22   6     0.09  -0.07  -0.00     0.03  -0.03   0.07     0.00   0.02   0.01
  23   8     0.22  -0.08   0.02     0.09  -0.11   0.17     0.02   0.04   0.00
  24   7     0.03   0.00   0.04    -0.02   0.09   0.11     0.01   0.03   0.01
  25   1     0.01   0.01   0.03    -0.00   0.03   0.05    -0.00   0.00   0.01
  26   1    -0.02  -0.00   0.01    -0.01   0.05   0.01    -0.01  -0.00   0.01
  27   7     0.03  -0.15  -0.08     0.03  -0.05  -0.08    -0.02   0.00   0.03
  28   1    -0.01  -0.03  -0.03    -0.01  -0.00  -0.04    -0.00   0.01   0.01
  29   1     0.03  -0.05  -0.04     0.01  -0.04  -0.02     0.00   0.01   0.00
  30   6    -0.01  -0.21   0.01    -0.08  -0.00   0.10    -0.08   0.15  -0.02
  31   8    -0.11  -0.27  -0.01    -0.36  -0.02   0.17    -0.25   0.10  -0.18
  32   7     0.11  -0.18  -0.00     0.04  -0.01   0.07    -0.06   0.33   0.02
  33   1     0.01  -0.04  -0.00    -0.01  -0.00   0.03    -0.02   0.10  -0.01
  34   1     0.05  -0.04   0.00     0.06   0.01  -0.00     0.01   0.10   0.02
  35   7     0.01  -0.28   0.06     0.11   0.02   0.05     0.09   0.04   0.09
  36   1     0.02  -0.07   0.03     0.06   0.00   0.01     0.05   0.02   0.05
  37   1    -0.02  -0.09   0.02    -0.02  -0.00   0.03     0.01  -0.03   0.02
  38   6    -0.06  -0.01   0.03     0.02  -0.04   0.00    -0.05  -0.09   0.10
  39   8    -0.14  -0.05  -0.04     0.00  -0.09   0.03     0.06  -0.06   0.32
  40   7     0.04  -0.05   0.13     0.07  -0.05  -0.03    -0.17  -0.07   0.12
  41   1     0.01  -0.02   0.03     0.02  -0.01  -0.01    -0.04  -0.01   0.06
  42   1     0.02   0.00   0.03     0.02  -0.01   0.01    -0.05  -0.02   0.00
  43   7    -0.09   0.10   0.03     0.02   0.00   0.01    -0.05  -0.17  -0.19
  44   1    -0.01   0.04   0.01     0.01   0.01  -0.01    -0.04  -0.06  -0.07
  45   1    -0.05   0.03  -0.02    -0.01   0.00  -0.00     0.01  -0.05  -0.04
  46   6    -0.15   0.09  -0.06    -0.01   0.01   0.10    -0.03  -0.02  -0.09
  47   8    -0.18   0.08  -0.27     0.09   0.14   0.30    -0.10  -0.12  -0.26
  48   7    -0.19   0.14   0.06    -0.08  -0.01   0.03     0.00  -0.02  -0.08
  49   1    -0.06   0.03  -0.01    -0.02   0.00   0.02     0.01  -0.01   0.01
  50   1    -0.05   0.04   0.05    -0.04  -0.03  -0.04     0.02   0.02   0.04
  51   7    -0.12   0.07   0.02    -0.02  -0.12  -0.05    -0.01   0.06   0.05
  52   1    -0.03   0.02   0.04    -0.02  -0.05  -0.03     0.00   0.03   0.04
  53   1    -0.03   0.01  -0.01     0.02  -0.02   0.02    -0.02   0.01  -0.01
                     19                     20                     21
                        a                      a                      a 
 Frequencies --   128.5734               134.2250               143.8545
 Red. masses --    11.8315                12.1204                13.1829
 Frc consts  --     0.0000                 0.0000                 0.0000
 IR Inten    --     5.2654                 2.7215                27.4851
 Raman Activ --     0.0000                 0.0000                 0.0000
 Depolar     --     0.0000                 0.0000                 0.0000
 Atom AN      X      Y      Z        X      Y      Z        X      Y      Z
   1   8    -0.08   0.17   0.06    -0.07   0.03   0.27    -0.00  -0.00  -0.08
   2   6    -0.06   0.23  -0.19    -0.05   0.14  -0.12    -0.00  -0.03   0.01
   3   1     0.01   0.06  -0.11     0.03   0.03  -0.10    -0.01  -0.01   0.01
   4   1    -0.06   0.13  -0.06    -0.08   0.11  -0.05     0.01  -0.02   0.01
   5   6     0.03   0.09  -0.18     0.09   0.04  -0.18    -0.03  -0.02   0.03
   6   1     0.01   0.05  -0.10     0.02   0.02  -0.10    -0.01  -0.00   0.02
   7   1     0.04  -0.02  -0.05     0.06  -0.02  -0.05    -0.02  -0.00   0.01
   8   7    -0.05   0.11   0.05     0.07   0.05  -0.03    -0.04  -0.01   0.02
   9   6    -0.08   0.06   0.11    -0.06  -0.02   0.20    -0.00  -0.01  -0.04
  10   1    -0.03  -0.01   0.02    -0.07  -0.02   0.05     0.02  -0.00  -0.01
  11   1    -0.03   0.02   0.06    -0.01  -0.00   0.07    -0.00  -0.00  -0.01
  12   1    -0.02   0.04   0.03     0.01  -0.00   0.10    -0.01  -0.00  -0.03
  13   6    -0.07  -0.04   0.13    -0.02  -0.00  -0.15    -0.01  -0.02   0.07
  14   1    -0.00  -0.04   0.03    -0.06  -0.04  -0.05     0.02   0.00   0.02
  15   1    -0.02  -0.02   0.04     0.01   0.02  -0.10    -0.01  -0.02   0.04
  16   1    -0.05  -0.01   0.06     0.01   0.00  -0.01    -0.01  -0.01   0.01
  17   6    -0.05   0.25   0.09     0.23   0.13   0.02    -0.09  -0.01   0.02
  18   1    -0.01   0.09   0.02     0.08   0.05   0.02    -0.03  -0.00  -0.00
  19   1    -0.02   0.07   0.06     0.06   0.04   0.03    -0.02  -0.00   0.00
  20   1    -0.01   0.08   0.02     0.08   0.04  -0.02    -0.03  -0.00   0.01
  21   1    -0.04   0.06   0.03    -0.08  -0.03   0.05     0.02   0.01  -0.02
  22   6    -0.01   0.01  -0.00     0.00  -0.02  -0.02     0.10  -0.08   0.01
  23   8    -0.02   0.01  -0.00    -0.02  -0.02  -0.03     0.22  -0.11   0.05
  24   7    -0.01   0.00  -0.00     0.02  -0.03  -0.03     0.03  -0.00   0.06
  25   1    -0.00   0.00  -0.00     0.00  -0.02  -0.01     0.02   0.01   0.04
  26   1     0.00   0.00  -0.00     0.00  -0.01  -0.00    -0.02   0.01   0.01
  27   7    -0.00   0.02  -0.00     0.01  -0.01  -0.00     0.04  -0.17  -0.10
  28   1    -0.00   0.00   0.00     0.01  -0.00   0.00    -0.01  -0.03  -0.05
  29   1    -0.00   0.00   0.00    -0.00  -0.00   0.00     0.04  -0.06  -0.05
  30   6    -0.02  -0.11  -0.10     0.02  -0.04   0.01     0.05   0.15   0.11
  31   8    -0.08  -0.20  -0.34     0.01  -0.05   0.01     0.04   0.12  -0.04
  32   7    -0.03   0.11  -0.03     0.04  -0.04   0.01     0.10   0.32   0.14
  33   1    -0.01   0.05  -0.03     0.01   0.00  -0.01     0.03   0.11   0.02
  34   1     0.00   0.04   0.03     0.02  -0.01   0.00     0.02   0.09   0.06
  35   7     0.07  -0.32   0.10    -0.00  -0.06   0.02     0.02   0.03   0.27
  36   1     0.03  -0.07   0.09    -0.01  -0.01   0.01     0.02   0.02   0.11
  37   1     0.02  -0.15   0.01    -0.01  -0.02   0.01     0.01  -0.03   0.06
  38   6     0.02  -0.06   0.02    -0.02   0.09  -0.03    -0.17  -0.00  -0.15
  39   8     0.05  -0.08   0.13    -0.03   0.20  -0.34    -0.14   0.16  -0.49
  40   7    -0.01  -0.05  -0.06    -0.01   0.05   0.22    -0.22  -0.04  -0.02
  41   1     0.00  -0.01   0.00    -0.01   0.02   0.04    -0.06  -0.00  -0.00
  42   1    -0.00  -0.01  -0.01    -0.00   0.01   0.06    -0.06  -0.00   0.03
  43   7     0.02  -0.08  -0.08     0.01   0.04   0.12    -0.11  -0.19   0.08
  44   1     0.00  -0.03  -0.02     0.00  -0.01   0.07    -0.04  -0.09   0.07
  45   1     0.02  -0.03   0.01     0.00   0.02  -0.05    -0.00  -0.06  -0.04
  46   6     0.08  -0.02   0.06    -0.04  -0.13   0.00     0.04  -0.00  -0.01
  47   8     0.20   0.13   0.18    -0.21  -0.36  -0.02     0.11   0.06  -0.02
  48   7    -0.03  -0.04  -0.01     0.17  -0.14   0.04    -0.03   0.01   0.03
  49   1    -0.01   0.00   0.01     0.05  -0.05  -0.01    -0.02   0.01  -0.03
  50   1    -0.02  -0.03  -0.03     0.07  -0.01   0.01    -0.03  -0.02  -0.02
  51   7     0.13  -0.18   0.01    -0.14   0.12   0.03     0.09  -0.12  -0.01
  52   1     0.01  -0.08  -0.01    -0.00   0.08  -0.00     0.01  -0.05   0.02
  53   1     0.07  -0.05   0.03    -0.10   0.04  -0.01     0.05  -0.03   0.01
                     22                     23                     24
                        a                      a                      a 
 Frequencies --   164.5153               169.0938               184.2583
 Red. masses --    11.9591                11.4277                11.8054
 Frc consts  --     0.0000                 0.0000                 0.0000
 IR Inten    --     1.1770                 3.7918                41.0386
 Raman Activ --     0.0000                 0.0000                 0.0000
 Depolar     --     0.0000                 0.0000                 0.0000
 Atom AN      X      Y      Z        X      Y      Z        X      Y      Z
   1   8    -0.07  -0.17  -0.19    -0.03  -0.24  -0.22    -0.03  -0.25   0.02
   2   6    -0.01   0.05  -0.11     0.06   0.09  -0.12     0.04   0.06  -0.06
   3   1     0.04   0.01  -0.05     0.07   0.02  -0.08     0.07   0.01  -0.07
   4   1     0.01   0.05  -0.02     0.04   0.09  -0.01     0.00   0.08  -0.01
   5   6    -0.16   0.08   0.01    -0.21   0.07   0.12    -0.10   0.05   0.06
   6   1    -0.05   0.00   0.06    -0.06  -0.02   0.14    -0.03  -0.00   0.06
   7   1    -0.10   0.04  -0.01    -0.17   0.04   0.01    -0.08   0.02   0.00
   8   7    -0.03   0.09  -0.03     0.01   0.08   0.09     0.01   0.06   0.07
   9   6     0.09  -0.01  -0.16     0.15  -0.12  -0.01     0.08  -0.08   0.04
  10   1     0.06  -0.01  -0.05     0.06  -0.05  -0.01     0.02  -0.03   0.01
  11   1     0.05  -0.00  -0.04     0.09  -0.04   0.01     0.05  -0.02   0.03
  12   1     0.00  -0.02  -0.08     0.02  -0.07  -0.04     0.01  -0.04  -0.00
  13   6     0.07   0.20   0.03     0.14   0.27   0.14     0.08   0.15   0.10
  14   1     0.03   0.07   0.01     0.05   0.09   0.04     0.02   0.03   0.03
  15   1     0.00   0.08   0.03     0.02   0.11   0.05     0.01   0.07   0.02
  16   1     0.04   0.06   0.00     0.08   0.07   0.03     0.05   0.04   0.04
  17   6    -0.09   0.06  -0.04    -0.03   0.07   0.08     0.00   0.08   0.06
  18   1    -0.04   0.00  -0.02    -0.03   0.00   0.01    -0.01   0.01   0.01
  19   1    -0.01   0.01  -0.02     0.02   0.02   0.02     0.01   0.02   0.02
  20   1    -0.04   0.02   0.01    -0.02   0.04   0.03    -0.01   0.04   0.02
  21   1    -0.01  -0.01  -0.02    -0.02  -0.02  -0.02    -0.04  -0.05   0.03
  22   6    -0.02   0.00  -0.02    -0.03   0.02  -0.02     0.04  -0.03   0.03
  23   8    -0.04   0.03  -0.05    -0.06   0.05  -0.04     0.08  -0.07   0.07
  24   7     0.02  -0.02  -0.05    -0.01  -0.02  -0.03     0.01   0.04   0.05
  25   1    -0.01  -0.02  -0.01     0.00  -0.00  -0.02    -0.00   0.01   0.03
  26   1    -0.00  -0.02   0.00     0.01  -0.01  -0.01    -0.02   0.01   0.01
  27   7    -0.01   0.02   0.03    -0.01   0.06   0.03     0.02  -0.07  -0.07
  28   1     0.01   0.00   0.01    -0.00  -0.00   0.02    -0.01  -0.01  -0.03
  29   1    -0.01   0.02   0.01    -0.02   0.02   0.02     0.02  -0.04  -0.02
  30   6    -0.01  -0.07  -0.02    -0.01   0.00   0.00    -0.01  -0.01   0.00
  31   8    -0.01  -0.06   0.05    -0.07  -0.02  -0.03    -0.05  -0.02  -0.04
  32   7    -0.01  -0.13  -0.03    -0.01   0.05   0.02     0.04   0.03  -0.01
  33   1    -0.00  -0.04  -0.01     0.02   0.02  -0.01    -0.03   0.01   0.01
  34   1     0.01  -0.03  -0.02     0.03   0.02   0.00    -0.02   0.00   0.01
  35   7    -0.02  -0.02  -0.08     0.03  -0.05   0.05     0.02  -0.05   0.03
  36   1    -0.01  -0.01  -0.03     0.01  -0.01   0.03    -0.00  -0.01   0.02
  37   1    -0.01   0.01  -0.02    -0.00  -0.03   0.01    -0.01  -0.03   0.01
  38   6    -0.11  -0.02   0.18     0.18   0.04  -0.09    -0.15  -0.05  -0.07
  39   8    -0.08   0.10   0.05     0.20   0.05  -0.19    -0.25  -0.20   0.11
  40   7    -0.16  -0.06   0.57     0.17   0.04  -0.08    -0.01  -0.03  -0.41
  41   1    -0.04  -0.01   0.18     0.04   0.02  -0.04     0.01  -0.05  -0.12
  42   1    -0.04  -0.02   0.10     0.03  -0.00  -0.00     0.01   0.01  -0.09
  43   7    -0.12  -0.04  -0.01     0.23  -0.03   0.00    -0.24   0.16   0.06
  44   1    -0.04  -0.04   0.03     0.05  -0.02  -0.01    -0.02   0.10   0.00
  45   1    -0.03  -0.01  -0.09     0.07  -0.01  -0.04    -0.11   0.05   0.13
  46   6     0.17   0.01  -0.03    -0.18  -0.11   0.07     0.11   0.03  -0.02
  47   8     0.19  -0.03   0.00    -0.18  -0.07   0.08     0.00  -0.14   0.03
  48   7     0.21  -0.01  -0.04    -0.20  -0.11   0.03     0.31   0.02   0.01
  49   1     0.06   0.00  -0.01    -0.06  -0.04  -0.00     0.10  -0.02   0.01
  50   1     0.05  -0.01  -0.02    -0.05  -0.03  -0.00     0.10   0.03   0.00
  51   7     0.19   0.00  -0.04    -0.18  -0.12   0.10     0.01   0.27  -0.08
  52   1     0.05   0.00  -0.00    -0.05  -0.04   0.02     0.03   0.11  -0.08
  53   1     0.06   0.00  -0.00    -0.04  -0.03   0.03    -0.07   0.07  -0.06
                     25                     26                     27
                        a                      a                      a 
 Frequencies --   207.7224               236.8028               247.5352
 Red. masses --    12.6322                 3.6668                10.7272
 Frc consts  --     0.0000                 0.0000                 0.0000
 IR Inten    --    13.3789                 8.4826                 3.9594
 Raman Activ --     0.0000                 0.0000                 0.0000
 Depolar     --     0.0000                 0.0000                 0.0000
 Atom AN      X      Y      Z        X      Y      Z        X      Y      Z
   1   8     0.03   0.11  -0.06     0.02   0.05  -0.01     0.14   0.45  -0.24
   2   6     0.00  -0.01   0.00     0.01   0.02  -0.02     0.05   0.14  -0.14
   3   1    -0.02  -0.00   0.01     0.00   0.00  -0.01    -0.04   0.03  -0.08
   4   1     0.01  -0.02   0.00     0.01   0.01  -0.00     0.06   0.06  -0.02
   5   6     0.01  -0.02   0.01    -0.01  -0.00   0.02    -0.08  -0.05   0.08
   6   1     0.00  -0.01   0.00    -0.00  -0.00   0.02    -0.02  -0.04   0.10
   7   1     0.00  -0.00   0.00    -0.02   0.00   0.00    -0.11  -0.00  -0.00
   8   7     0.00  -0.02  -0.01    -0.01  -0.01   0.01    -0.04  -0.07   0.00
   9   6    -0.01   0.01  -0.03    -0.00  -0.00  -0.00    -0.04   0.03  -0.06
  10   1     0.00   0.01  -0.01     0.00  -0.00  -0.00     0.04  -0.03  -0.03
  11   1    -0.01   0.00  -0.01    -0.00  -0.00   0.00    -0.06   0.01   0.02
  12   1    -0.00   0.01  -0.01    -0.00   0.00  -0.01    -0.01   0.07  -0.06
  13   6    -0.01  -0.03  -0.03    -0.00   0.00   0.00    -0.06  -0.05  -0.04
  14   1     0.01   0.01  -0.00     0.01   0.02   0.00     0.09   0.16   0.03
  15   1    -0.00  -0.03   0.00    -0.00  -0.01   0.01    -0.01  -0.18   0.12
  16   1    -0.02  -0.01  -0.03    -0.01  -0.00  -0.01    -0.12  -0.04  -0.19
  17   6    -0.00  -0.05  -0.02    -0.01  -0.02  -0.00    -0.02  -0.18  -0.04
  18   1    -0.00  -0.02  -0.00    -0.01  -0.01  -0.00    -0.04  -0.11  -0.02
  19   1     0.01  -0.02  -0.01     0.00  -0.01  -0.00     0.06  -0.06  -0.03
  20   1    -0.00  -0.01  -0.00    -0.00  -0.00   0.00    -0.03   0.00   0.01
  21   1     0.02   0.03  -0.02     0.00   0.00  -0.01     0.05   0.09  -0.09
  22   6    -0.10   0.08  -0.06     0.04  -0.02  -0.01     0.01  -0.01   0.01
  23   8    -0.20   0.13  -0.11     0.03  -0.04   0.01     0.02  -0.01   0.02
  24   7    -0.07  -0.07  -0.07    -0.19  -0.18   0.18     0.03   0.03  -0.00
  25   1     0.03   0.02  -0.08     0.25   0.24  -0.20    -0.03  -0.03   0.03
  26   1     0.07   0.03  -0.06     0.35   0.30  -0.29    -0.05  -0.03   0.04
  27   7    -0.03   0.20   0.11     0.16   0.13  -0.13    -0.01  -0.04  -0.01
  28   1    -0.02  -0.02   0.09    -0.27  -0.31   0.18     0.02   0.03  -0.03
  29   1    -0.07   0.05   0.08    -0.19  -0.23   0.16     0.03   0.01  -0.03
  30   6     0.02   0.08   0.06    -0.01  -0.01  -0.00     0.00  -0.01   0.01
  31   8    -0.01   0.06  -0.04    -0.00  -0.01   0.02     0.01   0.00   0.03
  32   7     0.07   0.17   0.06    -0.00  -0.02  -0.00     0.00  -0.03   0.00
  33   1    -0.00   0.05   0.03    -0.01  -0.00  -0.00    -0.01  -0.01   0.01
  34   1    -0.00   0.04   0.03    -0.00  -0.01  -0.00    -0.01  -0.01   0.00
  35   7     0.02  -0.00   0.16     0.01   0.01  -0.02    -0.01   0.03  -0.03
  36   1     0.02   0.01   0.07    -0.01   0.00  -0.01     0.01   0.00  -0.02
  37   1     0.01  -0.03   0.04    -0.01   0.01  -0.00     0.00   0.02  -0.01
  38   6     0.02  -0.21  -0.03    -0.02   0.04   0.02    -0.01   0.04  -0.00
  39   8    -0.19  -0.38  -0.25     0.02   0.08   0.04     0.01   0.05   0.02
  40   7     0.36  -0.33   0.18    -0.06   0.05  -0.01    -0.04   0.05  -0.05
  41   1     0.10  -0.11   0.02    -0.02   0.02  -0.01    -0.01   0.01  -0.02
  42   1     0.12  -0.06   0.08    -0.03   0.00   0.01    -0.01   0.01  -0.02
  43   7    -0.05   0.13   0.08    -0.03   0.01  -0.10    -0.01   0.02  -0.01
  44   1     0.03   0.09   0.00     0.01  -0.03   0.10     0.00  -0.00   0.03
  45   1    -0.11   0.07  -0.08     0.03  -0.01   0.08     0.01  -0.00   0.05
  46   6     0.02   0.03   0.01     0.01  -0.02   0.00    -0.00  -0.10   0.15
  47   8     0.01   0.02   0.04    -0.00  -0.03   0.01    -0.03  -0.15   0.36
  48   7     0.06   0.03   0.04     0.02  -0.02  -0.00     0.20  -0.19   0.01
  49   1     0.02  -0.02  -0.02     0.01  -0.00   0.01     0.07  -0.07   0.01
  50   1     0.02   0.00  -0.03     0.01  -0.00   0.00     0.06  -0.04  -0.09
  51   7    -0.01   0.05  -0.03    -0.00   0.00   0.01    -0.11   0.02  -0.06
  52   1     0.00   0.02  -0.01    -0.00  -0.00  -0.02     0.00   0.06   0.03
  53   1    -0.01   0.02   0.00    -0.01  -0.00  -0.01    -0.05   0.05   0.11
                     28                     29                     30
                        a                      a                      a 
 Frequencies --   267.5691               286.3993               293.7034
 Red. masses --     4.1766                 9.4590                 2.9151
 Frc consts  --     0.0000                 0.0000                 0.0000
 IR Inten    --     4.3016                22.3943               137.3602
 Raman Activ --     0.0000                 0.0000                 0.0000
 Depolar     --     0.0000                 0.0000                 0.0000
 Atom AN      X      Y      Z        X      Y      Z        X      Y      Z
   1   8    -0.15  -0.26   0.17    -0.25  -0.09  -0.45    -0.01   0.01   0.00
   2   6    -0.04   0.07  -0.03    -0.23  -0.19   0.23    -0.00   0.02  -0.02
   3   1     0.05   0.01  -0.07    -0.13  -0.02   0.27     0.00   0.00  -0.02
   4   1    -0.05   0.10  -0.01    -0.00  -0.25   0.05    -0.00   0.02  -0.00
   5   6    -0.02   0.02   0.01     0.04   0.11  -0.09    -0.01  -0.02   0.01
   6   1    -0.01  -0.01   0.01    -0.01   0.03  -0.14    -0.00  -0.01   0.01
   7   1    -0.02   0.01   0.00     0.13   0.04   0.02    -0.01  -0.01  -0.00
   8   7     0.06   0.01   0.02     0.12   0.12  -0.00     0.01  -0.02   0.01
   9   6     0.02   0.07   0.04     0.09   0.10   0.07    -0.00   0.03  -0.01
  10   1     0.12  -0.16  -0.05     0.05  -0.03  -0.00    -0.01   0.05   0.01
  11   1    -0.13   0.02   0.19    -0.02   0.03   0.08     0.01   0.01  -0.04
  12   1     0.02   0.22  -0.11     0.03   0.09  -0.01     0.00  -0.02   0.02
  13   6    -0.01  -0.07  -0.02     0.06  -0.08   0.07    -0.00  -0.03  -0.00
  14   1     0.21   0.32   0.07     0.07   0.01   0.03     0.02   0.02   0.01
  15   1    -0.00  -0.35   0.26     0.03  -0.11   0.06    -0.00  -0.03   0.02
  16   1    -0.22  -0.06  -0.35    -0.07  -0.03  -0.01    -0.01  -0.01  -0.03
  17   6     0.14  -0.03   0.01     0.17   0.25   0.05     0.01  -0.03   0.00
  18   1    -0.02  -0.09  -0.02     0.09   0.13   0.03     0.00  -0.01   0.00
  19   1     0.15  -0.03  -0.00    -0.02   0.08   0.04    -0.00  -0.01   0.00
  20   1     0.01   0.09   0.02     0.08   0.01  -0.02     0.00  -0.01  -0.00
  21   1    -0.07  -0.05   0.07     0.04   0.03  -0.11    -0.01   0.01   0.01
  22   6    -0.00   0.01  -0.01    -0.00  -0.01   0.01    -0.00   0.00  -0.01
  23   8    -0.00   0.01  -0.01    -0.00  -0.01   0.01    -0.01  -0.00  -0.00
  24   7    -0.01  -0.00  -0.00     0.00  -0.00   0.00     0.00  -0.00  -0.01
  25   1     0.00   0.00  -0.00     0.00   0.00  -0.00    -0.00  -0.00   0.00
  26   1     0.01   0.00  -0.01     0.01   0.00  -0.00    -0.01  -0.01   0.01
  27   7    -0.00   0.01   0.01     0.01   0.01  -0.01    -0.01  -0.01   0.01
  28   1    -0.00  -0.00   0.01    -0.02  -0.02   0.01     0.03   0.03  -0.02
  29   1    -0.00   0.00   0.00    -0.01  -0.02   0.01     0.01   0.02  -0.01
  30   6     0.01   0.00   0.01    -0.00  -0.01  -0.01    -0.04   0.02   0.02
  31   8     0.02   0.01   0.00     0.01  -0.01  -0.01     0.01   0.02   0.02
  32   7    -0.00  -0.00   0.01    -0.00  -0.01  -0.01    -0.03   0.00   0.01
  33   1     0.00  -0.00   0.00     0.00  -0.00  -0.00     0.05   0.01  -0.02
  34   1    -0.01  -0.00   0.00     0.01   0.00  -0.00     0.16   0.03  -0.06
  35   7    -0.02   0.02   0.01     0.03  -0.03  -0.01     0.33  -0.03  -0.11
  36   1     0.03   0.00  -0.01    -0.06  -0.00   0.02    -0.72   0.04   0.20
  37   1     0.02   0.01  -0.01    -0.03  -0.01   0.01    -0.40   0.01   0.16
  38   6     0.00  -0.01  -0.00    -0.00   0.01  -0.00     0.00  -0.01   0.01
  39   8     0.00  -0.01  -0.01    -0.00   0.01   0.01    -0.01  -0.01  -0.01
  40   7     0.01  -0.01   0.01    -0.01   0.01  -0.02     0.02  -0.01   0.02
  41   1     0.00  -0.00   0.01    -0.00   0.00  -0.01     0.00  -0.00  -0.00
  42   1     0.00  -0.00   0.00    -0.00   0.00  -0.00     0.00  -0.00   0.01
  43   7     0.01  -0.01   0.02    -0.01   0.01   0.00    -0.03   0.02  -0.08
  44   1    -0.01   0.00  -0.03     0.00   0.01   0.00     0.03  -0.02   0.12
  45   1    -0.00   0.00  -0.03    -0.00   0.00   0.01     0.02  -0.01   0.10
  46   6     0.00   0.05  -0.07    -0.02  -0.05   0.06    -0.00  -0.00  -0.01
  47   8     0.01   0.06  -0.17    -0.04  -0.07   0.09     0.00   0.01  -0.00
  48   7    -0.10   0.09  -0.01     0.08  -0.07   0.02    -0.01   0.00  -0.00
  49   1    -0.03   0.04  -0.00     0.03  -0.04  -0.01     0.00   0.00   0.01
  50   1    -0.03   0.02   0.06     0.02  -0.02  -0.07     0.00   0.01   0.03
  51   7     0.05  -0.00   0.04    -0.07   0.01  -0.07     0.01   0.01   0.07
  52   1    -0.00  -0.03  -0.04     0.01   0.07   0.12    -0.02  -0.05  -0.13
  53   1     0.02  -0.03  -0.08    -0.02   0.04   0.12    -0.00  -0.03  -0.08
                     31                     32                     33
                        a                      a                      a 
 Frequencies --   304.6826               309.3231               325.2798
 Red. masses --     6.3145                 3.2698                 3.6483
 Frc consts  --     0.0000                 0.0000                 0.0000
 IR Inten    --     4.5121               152.8173               190.1831
 Raman Activ --     0.0000                 0.0000                 0.0000
 Depolar     --     0.0000                 0.0000                 0.0000
 Atom AN      X      Y      Z        X      Y      Z        X      Y      Z
   1   8     0.23   0.11   0.11    -0.00   0.10  -0.15    -0.02  -0.04   0.01
   2   6     0.11  -0.17   0.13    -0.04  -0.04   0.05    -0.01   0.00  -0.00
   3   1    -0.01  -0.04   0.11    -0.05  -0.00   0.07     0.01   0.00  -0.00
   4   1     0.04  -0.12   0.03     0.02  -0.07   0.01    -0.01   0.00  -0.00
   5   6     0.04   0.02  -0.02     0.00   0.02  -0.01     0.01   0.01  -0.01
   6   1     0.03   0.05   0.01    -0.00   0.01  -0.02     0.00   0.00  -0.01
   7   1     0.02   0.03   0.00     0.02   0.01   0.00     0.01   0.00  -0.00
   8   7    -0.13   0.03  -0.10     0.00   0.02  -0.01     0.02   0.01   0.00
   9   6    -0.06  -0.37   0.04     0.01  -0.01  -0.01     0.02   0.03   0.01
  10   1     0.12  -0.45  -0.11     0.02  -0.04  -0.01    -0.00   0.02   0.01
  11   1    -0.10  -0.11   0.35    -0.01  -0.00   0.04     0.00   0.01  -0.00
  12   1    -0.03   0.13  -0.20     0.00   0.03  -0.03     0.01   0.00   0.01
  13   6    -0.08   0.19  -0.14    -0.00  -0.01   0.00     0.02   0.01   0.00
  14   1    -0.06   0.05  -0.04    -0.00  -0.02  -0.00     0.01   0.01   0.00
  15   1    -0.03   0.10  -0.06    -0.00   0.01  -0.01     0.01  -0.01   0.01
  16   1     0.04   0.05  -0.04    -0.00  -0.00   0.02    -0.00   0.00  -0.01
  17   6    -0.13   0.22  -0.02     0.02   0.04  -0.00     0.01  -0.01  -0.00
  18   1    -0.08   0.05  -0.05     0.02   0.02   0.01     0.00  -0.01   0.00
  19   1     0.02   0.05   0.05    -0.01   0.01   0.01    -0.00  -0.00  -0.00
  20   1    -0.06   0.13   0.01     0.01  -0.00  -0.01     0.00  -0.01  -0.00
  21   1     0.08  -0.00  -0.00     0.03   0.06  -0.02    -0.01  -0.01   0.00
  22   6    -0.00   0.00  -0.00     0.00  -0.00   0.00    -0.01   0.01  -0.03
  23   8    -0.00  -0.00  -0.00    -0.00  -0.00   0.00    -0.04  -0.01  -0.01
  24   7    -0.00  -0.00  -0.00     0.00   0.00   0.00    -0.01  -0.02  -0.01
  25   1    -0.00  -0.00  -0.00    -0.00  -0.00   0.00     0.01   0.01  -0.02
  26   1     0.00  -0.00   0.00    -0.01  -0.01   0.01     0.01  -0.01  -0.00
  27   7    -0.00  -0.00   0.00    -0.01  -0.01  -0.00    -0.05  -0.04   0.05
  28   1     0.01   0.01  -0.00     0.01   0.02  -0.01     0.13   0.13  -0.07
  29   1     0.00   0.01  -0.00     0.01   0.01  -0.01     0.05   0.08  -0.04
  30   6    -0.00  -0.00  -0.01     0.00  -0.01   0.00    -0.02   0.01   0.03
  31   8     0.00  -0.00  -0.02    -0.00  -0.01   0.00    -0.02   0.00   0.02
  32   7    -0.01   0.01  -0.01     0.00  -0.01  -0.00     0.04   0.01  -0.00
  33   1     0.00   0.01  -0.01    -0.01  -0.00   0.00    -0.06   0.00   0.02
  34   1     0.02   0.01  -0.01    -0.03  -0.01   0.01    -0.09  -0.02   0.04
  35   7     0.04  -0.03  -0.01    -0.06   0.00   0.01    -0.04   0.01   0.04
  36   1    -0.08  -0.00   0.03     0.13  -0.01  -0.04     0.14  -0.01  -0.03
  37   1    -0.04  -0.01   0.01     0.07  -0.00  -0.03     0.08  -0.00  -0.02
  38   6     0.00  -0.00   0.01    -0.00   0.01  -0.01     0.04  -0.02   0.05
  39   8     0.00  -0.00  -0.00    -0.00   0.02  -0.03     0.00  -0.01  -0.06
  40   7     0.01  -0.00   0.02    -0.00   0.00   0.01     0.06  -0.03   0.06
  41   1     0.00  -0.00   0.00    -0.00   0.00  -0.01     0.00  -0.00  -0.03
  42   1     0.00  -0.00   0.00    -0.00  -0.00   0.01     0.00  -0.02   0.00
  43   7    -0.01   0.01  -0.03    -0.00  -0.01  -0.00    -0.09   0.08  -0.38
  44   1     0.01  -0.01   0.04    -0.00  -0.01   0.02     0.15  -0.13   0.62
  45   1     0.01  -0.00   0.03     0.01  -0.01   0.00     0.11  -0.05   0.51
  46   6    -0.00   0.00   0.00    -0.00  -0.04   0.01    -0.01   0.01  -0.02
  47   8    -0.00  -0.00   0.00     0.01  -0.01   0.08    -0.01   0.01  -0.04
  48   7     0.01   0.00   0.01     0.04  -0.07  -0.03    -0.02   0.03   0.03
  49   1     0.00  -0.00  -0.01     0.03  -0.00   0.08    -0.01  -0.00  -0.03
  50   1    -0.00  -0.01  -0.02     0.06   0.06   0.22    -0.02  -0.01  -0.05
  51   7    -0.00  -0.00  -0.02    -0.02   0.09   0.31     0.01  -0.02   0.01
  52   1     0.00   0.02   0.04    -0.08  -0.25  -0.68    -0.00  -0.00   0.03
  53   1     0.01   0.01   0.03    -0.06  -0.11  -0.41     0.01  -0.00   0.01
                     34                     35                     36
                        a                      a                      a 
 Frequencies --   335.8097               358.3122               362.0948
 Red. masses --     3.7545                 6.4285                 3.7033
 Frc consts  --     0.0000                 0.0000                 0.0000
 IR Inten    --     1.4605                10.0133               508.5453
 Raman Activ --     0.0000                 0.0000                 0.0000
 Depolar     --     0.0000                 0.0000                 0.0000
 Atom AN      X      Y      Z        X      Y      Z        X      Y      Z
   1   8     0.12   0.03   0.03    -0.03  -0.04  -0.10     0.00  -0.01  -0.00
   2   6     0.05  -0.14   0.02    -0.05  -0.08  -0.09    -0.01  -0.01  -0.01
   3   1    -0.01  -0.03   0.07    -0.02  -0.01   0.03    -0.00  -0.00   0.00
   4   1     0.00  -0.11  -0.01    -0.04  -0.08  -0.05    -0.01  -0.01  -0.00
   5   6     0.09   0.02  -0.15     0.15  -0.01  -0.24     0.03  -0.01  -0.03
   6   1     0.03   0.04  -0.09     0.05   0.07  -0.20     0.01   0.01  -0.03
   7   1     0.09  -0.01  -0.03     0.17  -0.09  -0.05     0.03  -0.01  -0.01
   8   7    -0.06   0.03  -0.06    -0.03   0.02   0.06    -0.01  -0.01   0.00
   9   6    -0.07  -0.24   0.12    -0.17   0.15   0.21    -0.03   0.01   0.03
  10   1    -0.26   0.17   0.11    -0.04  -0.02   0.04    -0.01   0.00   0.01
  11   1     0.20  -0.07  -0.20    -0.13   0.04   0.12    -0.02   0.00   0.01
  12   1    -0.02  -0.38   0.26    -0.01   0.15   0.06    -0.00   0.01   0.02
  13   6     0.03   0.20  -0.01     0.17   0.29   0.20     0.02   0.04   0.02
  14   1     0.17   0.33   0.06     0.05   0.05   0.05     0.01   0.01   0.01
  15   1    -0.02  -0.14   0.22    -0.01   0.20   0.06    -0.00   0.02   0.01
  16   1    -0.09   0.03  -0.27     0.16   0.08   0.09     0.02   0.01   0.00
  17   6    -0.15   0.13  -0.03    -0.07  -0.34  -0.06    -0.01  -0.05  -0.01
  18   1    -0.04   0.07  -0.03    -0.18  -0.32  -0.06    -0.03  -0.04  -0.01
  19   1    -0.07   0.04   0.00     0.22  -0.14  -0.12     0.03  -0.02  -0.01
  20   1    -0.05   0.02   0.01    -0.11   0.07   0.08    -0.02   0.01   0.01
  21   1     0.04   0.01   0.01     0.01   0.03  -0.00     0.00   0.02   0.01
  22   6     0.00   0.00  -0.00     0.01   0.01  -0.01    -0.08  -0.07   0.06
  23   8     0.00  -0.00   0.00     0.00   0.01  -0.01    -0.01  -0.02   0.03
  24   7    -0.00  -0.00   0.01    -0.03  -0.01   0.02     0.18   0.13  -0.17
  25   1     0.00   0.00  -0.00     0.02   0.02  -0.01    -0.15  -0.15   0.13
  26   1     0.01   0.01  -0.01     0.04   0.04  -0.03    -0.33  -0.27   0.26
  27   7    -0.00  -0.01   0.00    -0.02  -0.03   0.02     0.18   0.23  -0.13
  28   1     0.01   0.01  -0.00     0.05   0.05  -0.03    -0.40  -0.40   0.25
  29   1     0.00   0.00  -0.00     0.02   0.03  -0.02    -0.13  -0.18   0.12
  30   6    -0.00  -0.00   0.01    -0.00  -0.00   0.01    -0.00   0.01   0.00
  31   8    -0.01  -0.00   0.01    -0.01  -0.00  -0.00    -0.00   0.00   0.00
  32   7    -0.00  -0.02   0.00     0.00   0.01   0.01     0.00   0.00   0.00
  33   1     0.00  -0.01   0.00     0.00   0.00   0.00    -0.01   0.00   0.00
  34   1     0.01  -0.01  -0.00     0.00   0.00   0.00     0.00   0.00   0.00
  35   7    -0.01   0.00   0.01     0.01   0.02  -0.01    -0.00   0.00   0.01
  36   1     0.03  -0.00  -0.01    -0.03   0.00  -0.00     0.00   0.00   0.00
  37   1     0.00  -0.00  -0.00    -0.01   0.01   0.00     0.00   0.00   0.00
  38   6    -0.00  -0.00  -0.00    -0.00   0.00  -0.00     0.00   0.01   0.00
  39   8    -0.00   0.00  -0.00     0.00   0.00   0.01    -0.02  -0.00  -0.01
  40   7    -0.00  -0.00   0.00    -0.01   0.00  -0.01     0.02   0.00   0.02
  41   1     0.00  -0.00   0.00     0.00  -0.00   0.01     0.01  -0.01   0.00
  42   1    -0.00  -0.00   0.00    -0.00   0.00  -0.00     0.02   0.01  -0.03
  43   7     0.00   0.00   0.01     0.01  -0.00   0.02    -0.02  -0.00  -0.07
  44   1    -0.00   0.00  -0.01    -0.01   0.01  -0.03     0.02  -0.04   0.13
  45   1    -0.00   0.00  -0.01    -0.00   0.00  -0.02     0.03  -0.02   0.10
  46   6     0.00   0.00   0.00    -0.01  -0.01   0.00    -0.01   0.01  -0.01
  47   8     0.00   0.00   0.01    -0.01  -0.01   0.00    -0.00   0.01  -0.01
  48   7     0.00  -0.00  -0.00     0.03  -0.01   0.00    -0.01   0.01   0.01
  49   1     0.00   0.00   0.00     0.01  -0.01   0.00    -0.00   0.00  -0.01
  50   1     0.00   0.00   0.00     0.01  -0.00  -0.01    -0.01  -0.00  -0.01
  51   7     0.00   0.01   0.01    -0.00  -0.00   0.01     0.01  -0.01   0.01
  52   1    -0.00  -0.01  -0.02    -0.00  -0.00   0.00    -0.00  -0.01  -0.01
  53   1     0.00  -0.00  -0.01     0.00  -0.00   0.01     0.01  -0.01  -0.01
                     37                     38                     39
                        a                      a                      a 
 Frequencies --   392.7997               422.8009               436.8294
 Red. masses --     2.8814                 3.2217                 7.5676
 Frc consts  --     0.0000                 0.0000                 0.0000
 IR Inten    --     4.3157               184.1750                65.2451
 Raman Activ --     0.0000                 0.0000                 0.0000
 Depolar     --     0.0000                 0.0000                 0.0000
 Atom AN      X      Y      Z        X      Y      Z        X      Y      Z
   1   8     0.04   0.02   0.05    -0.00   0.00  -0.01     0.15   0.04   0.12
   2   6    -0.00  -0.06  -0.14    -0.00  -0.00   0.01     0.04  -0.19  -0.05
   3   1    -0.01  -0.02  -0.05     0.00  -0.00   0.00    -0.01  -0.05   0.03
   4   1    -0.01  -0.02  -0.04     0.00  -0.00   0.00     0.00  -0.09  -0.02
   5   6    -0.01  -0.08  -0.10    -0.00   0.00   0.01    -0.18   0.01  -0.05
   6   1     0.01   0.01  -0.04    -0.00  -0.00   0.00    -0.03  -0.00   0.11
   7   1    -0.00  -0.06  -0.04    -0.00   0.00   0.00    -0.15   0.05  -0.03
   8   7    -0.06  -0.05   0.03     0.01   0.00  -0.00    -0.19   0.03  -0.19
   9   6    -0.10   0.06   0.02     0.00   0.00   0.00    -0.23   0.02  -0.15
  10   1     0.05  -0.08  -0.03    -0.01   0.01   0.00    -0.08   0.03  -0.03
  11   1    -0.13   0.02   0.10     0.00   0.00  -0.00    -0.06   0.01  -0.06
  12   1    -0.01   0.15  -0.06     0.00  -0.00   0.01    -0.06  -0.01  -0.01
  13   6     0.09   0.23   0.09     0.00  -0.01  -0.00     0.03  -0.03   0.33
  14   1     0.08   0.14   0.04    -0.00  -0.01  -0.00     0.15  -0.08   0.09
  15   1    -0.02   0.07   0.10     0.00  -0.00  -0.01    -0.06   0.03   0.18
  16   1     0.06   0.05  -0.05     0.00  -0.00   0.01     0.01  -0.00   0.16
  17   6     0.02  -0.17   0.02    -0.00   0.01  -0.00     0.35   0.12  -0.12
  18   1     0.32   0.27   0.18    -0.03  -0.03  -0.02     0.11  -0.03   0.04
  19   1    -0.45   0.04  -0.01     0.04  -0.00   0.00     0.19   0.02   0.00
  20   1     0.17  -0.48  -0.15    -0.02   0.04   0.01     0.14   0.12  -0.13
  21   1    -0.01   0.02   0.03    -0.00  -0.02  -0.02     0.05   0.03   0.04
  22   6    -0.00   0.00   0.01    -0.00  -0.00  -0.00    -0.00  -0.00  -0.01
  23   8    -0.01  -0.00   0.01     0.00  -0.00   0.00     0.00  -0.01  -0.00
  24   7     0.00  -0.01  -0.00    -0.00  -0.00  -0.00    -0.01   0.01  -0.00
  25   1     0.00   0.00  -0.00     0.00   0.00  -0.00     0.00   0.01   0.00
  26   1    -0.00  -0.01   0.00    -0.00  -0.00   0.00    -0.01  -0.00   0.00
  27   7     0.00  -0.00  -0.01    -0.00   0.00   0.00     0.01   0.01   0.01
  28   1     0.00   0.00  -0.01     0.01   0.01  -0.00     0.01  -0.00   0.01
  29   1    -0.00  -0.01   0.00    -0.00   0.00   0.00    -0.01   0.00   0.01
  30   6     0.02   0.01  -0.00     0.07   0.03  -0.03    -0.04  -0.02   0.01
  31   8     0.03   0.01  -0.00     0.03   0.02  -0.04    -0.02  -0.01   0.02
  32   7    -0.02  -0.02   0.01    -0.17  -0.08   0.06     0.08   0.04  -0.04
  33   1     0.01  -0.00  -0.01     0.03   0.01  -0.04     0.00  -0.01   0.01
  34   1     0.06   0.01  -0.02     0.54   0.10  -0.17    -0.28  -0.05   0.09
  35   7    -0.02   0.00   0.02    -0.10   0.01   0.06     0.06  -0.01  -0.03
  36   1    -0.00   0.00   0.01     0.06   0.00   0.01    -0.03  -0.00   0.00
  37   1     0.01  -0.00  -0.00     0.06  -0.01  -0.02    -0.04  -0.00   0.01
  38   6    -0.00  -0.01  -0.00    -0.02  -0.01  -0.01    -0.00   0.01  -0.00
  39   8    -0.01  -0.01  -0.00    -0.02  -0.01  -0.01    -0.01   0.01  -0.01
  40   7     0.01  -0.01  -0.00     0.04  -0.01  -0.00     0.02  -0.00   0.04
  41   1    -0.01   0.01  -0.02    -0.00  -0.00  -0.05    -0.01   0.00  -0.03
  42   1    -0.00  -0.01   0.02     0.01  -0.00   0.00     0.00  -0.00   0.02
  43   7    -0.01   0.01   0.00    -0.03   0.02  -0.03     0.00  -0.02  -0.01
  44   1    -0.00   0.01  -0.01     0.02  -0.03   0.12    -0.01  -0.01  -0.01
  45   1    -0.00   0.00   0.00     0.01   0.00  -0.01     0.01  -0.01   0.01
  46   6     0.01   0.01   0.02     0.05   0.03   0.12     0.02  -0.00   0.04
  47   8     0.01   0.01   0.01     0.02  -0.01   0.06     0.02  -0.01   0.00
  48   7    -0.02   0.01  -0.01    -0.08  -0.06  -0.21    -0.05  -0.03  -0.07
  49   1    -0.01   0.01   0.01    -0.00   0.02   0.06    -0.01   0.01   0.01
  50   1    -0.00   0.01   0.03     0.12   0.18   0.62     0.03   0.06   0.23
  51   7     0.00   0.00  -0.02    -0.02  -0.03  -0.17    -0.02   0.01  -0.07
  52   1     0.00   0.01   0.01     0.02   0.07   0.11     0.02   0.05   0.05
  53   1    -0.00   0.00   0.00    -0.01   0.02   0.06    -0.02   0.02   0.02
                     40                     41                     42
                        a                      a                      a 
 Frequencies --   439.7916               450.2549               456.7671
 Red. masses --     4.0094                 1.7159                 7.8817
 Frc consts  --     0.0000                 0.0000                 0.0000
 IR Inten    --   230.3638                 9.6767                 0.4870
 Raman Activ --     0.0000                 0.0000                 0.0000
 Depolar     --     0.0000                 0.0000                 0.0000
 Atom AN      X      Y      Z        X      Y      Z        X      Y      Z
   1   8    -0.07  -0.02  -0.06     0.00   0.00   0.00     0.02  -0.03  -0.04
   2   6    -0.01   0.10   0.03     0.00  -0.00  -0.00     0.03   0.08   0.02
   3   1     0.01   0.03  -0.01     0.00  -0.00  -0.00     0.03   0.03   0.03
   4   1    -0.00   0.04   0.01     0.00  -0.00  -0.00    -0.00   0.00  -0.00
   5   6     0.09   0.03   0.02    -0.00  -0.00  -0.00     0.12   0.13  -0.09
   6   1     0.02   0.02  -0.06     0.00   0.00  -0.00     0.05   0.15  -0.20
   7   1     0.08  -0.02   0.02     0.00  -0.00  -0.00     0.21  -0.08  -0.00
   8   7     0.07   0.01   0.09    -0.02  -0.00   0.00    -0.27   0.12   0.22
   9   6     0.11  -0.03   0.08    -0.00   0.00  -0.02     0.14  -0.16  -0.26
  10   1     0.04  -0.03   0.01     0.01   0.00  -0.00     0.15  -0.01  -0.06
  11   1     0.04  -0.01   0.04     0.00   0.00  -0.01     0.16  -0.05  -0.11
  12   1     0.02  -0.01   0.00    -0.00  -0.00  -0.01    -0.06  -0.16  -0.20
  13   6    -0.03   0.02  -0.14    -0.01   0.01   0.01    -0.38   0.10   0.08
  14   1    -0.07   0.04  -0.03    -0.00   0.00   0.00    -0.14   0.04   0.03
  15   1     0.02  -0.02  -0.08    -0.00   0.00   0.00    -0.08  -0.01  -0.00
  16   1    -0.01   0.00  -0.07    -0.00   0.00   0.00    -0.12   0.03  -0.00
  17   6    -0.17  -0.08   0.04     0.02  -0.00   0.01     0.23  -0.18   0.18
  18   1    -0.04   0.02  -0.01     0.01  -0.00   0.01     0.09  -0.13   0.17
  19   1    -0.11  -0.01  -0.02     0.01  -0.00   0.00     0.12  -0.06  -0.01
  20   1    -0.06  -0.09   0.05     0.01   0.00  -0.01     0.12  -0.04  -0.04
  21   1    -0.03  -0.04  -0.04     0.00   0.01   0.00     0.01   0.01   0.00
  22   6    -0.00   0.00  -0.00    -0.01   0.05   0.06    -0.00  -0.00  -0.01
  23   8     0.00   0.00  -0.00    -0.04   0.07   0.04     0.00  -0.01  -0.00
  24   7     0.00   0.00  -0.00     0.12   0.01  -0.03    -0.01  -0.00  -0.01
  25   1    -0.00  -0.00   0.00    -0.29  -0.33   0.15     0.01   0.01  -0.01
  26   1    -0.00  -0.01   0.00     0.39   0.19  -0.19    -0.01  -0.01   0.01
  27   7     0.00   0.00  -0.00    -0.12  -0.07   0.01     0.00   0.01   0.01
  28   1    -0.02  -0.01   0.01    -0.37  -0.21   0.08     0.01   0.00   0.00
  29   1     0.01   0.01  -0.01     0.38   0.22  -0.35    -0.01   0.00   0.01
  30   6    -0.06  -0.04   0.03    -0.00   0.01  -0.00     0.00  -0.02   0.02
  31   8    -0.03  -0.03   0.05     0.00   0.01   0.00    -0.01  -0.04  -0.01
  32   7     0.16   0.09  -0.05    -0.00  -0.01  -0.01     0.00   0.03   0.04
  33   1     0.02  -0.01   0.02    -0.00  -0.00   0.00    -0.01   0.02   0.00
  34   1    -0.57  -0.10   0.19     0.00  -0.00  -0.01     0.04   0.02   0.01
  35   7     0.11  -0.01  -0.07     0.00  -0.00   0.01    -0.01   0.03  -0.03
  36   1    -0.06  -0.00  -0.01     0.01   0.00   0.01    -0.03  -0.00  -0.04
  37   1    -0.10   0.01   0.03    -0.00  -0.01   0.00     0.03   0.05  -0.01
  38   6     0.01   0.00  -0.03     0.01  -0.01  -0.00    -0.01   0.02   0.01
  39   8     0.01   0.01  -0.04    -0.00  -0.02  -0.01    -0.02   0.01   0.01
  40   7    -0.00  -0.01   0.03    -0.00  -0.00   0.01     0.03   0.01  -0.01
  41   1    -0.01   0.01  -0.02     0.01  -0.00   0.02     0.01  -0.00  -0.02
  42   1    -0.01  -0.01   0.01     0.01   0.00  -0.04     0.01   0.01   0.02
  43   7     0.01  -0.01   0.00     0.01   0.01  -0.01    -0.00  -0.02  -0.01
  44   1    -0.00   0.01  -0.05     0.01  -0.00   0.03    -0.01  -0.02   0.00
  45   1    -0.00  -0.00   0.04     0.00   0.00   0.02     0.02  -0.01  -0.01
  46   6     0.02   0.04   0.09    -0.01   0.01   0.00     0.02  -0.03   0.00
  47   8    -0.01   0.01   0.05    -0.01   0.00   0.00     0.03  -0.00  -0.01
  48   7    -0.04  -0.03  -0.17     0.01   0.00  -0.00    -0.04  -0.02   0.01
  49   1     0.01  -0.00   0.02     0.00  -0.00  -0.00    -0.02   0.01   0.00
  50   1     0.11   0.15   0.49     0.01   0.01   0.00    -0.02  -0.02  -0.01
  51   7    -0.00  -0.06  -0.12    -0.00  -0.01   0.00    -0.01   0.04  -0.01
  52   1     0.00   0.01   0.08    -0.01  -0.01  -0.01     0.02   0.05   0.02
  53   1     0.03   0.01   0.07     0.01  -0.00   0.01    -0.04   0.01  -0.03
                     43                     44                     45
                        a                      a                      a 
 Frequencies --   460.4110               464.9277               471.6620
 Red. masses --     8.3498                 4.7718                 5.8939
 Frc consts  --     0.0000                 0.0000                 0.0000
 IR Inten    --     8.8661                 8.6193                 2.9279
 Raman Activ --     0.0000                 0.0000                 0.0000
 Depolar     --     0.0000                 0.0000                 0.0000
 Atom AN      X      Y      Z        X      Y      Z        X      Y      Z
   1   8     0.01   0.00   0.01     0.02   0.03   0.02     0.03   0.03   0.04
   2   6    -0.01  -0.03  -0.01    -0.04  -0.13  -0.06    -0.05  -0.19  -0.09
   3   1    -0.01  -0.01  -0.01    -0.03  -0.04  -0.03    -0.05  -0.06  -0.04
   4   1    -0.00  -0.01  -0.00    -0.01  -0.03  -0.02    -0.02  -0.04  -0.03
   5   6     0.00  -0.03  -0.01     0.01  -0.17  -0.03    -0.01  -0.24  -0.03
   6   1     0.00  -0.00  -0.01     0.01  -0.03  -0.03     0.00  -0.05  -0.01
   7   1     0.01  -0.02  -0.00     0.01  -0.08  -0.01    -0.00  -0.09  -0.02
   8   7    -0.02  -0.02   0.02    -0.03  -0.12   0.11    -0.02  -0.16   0.13
   9   6    -0.00   0.02  -0.03     0.02   0.12  -0.10     0.03   0.17  -0.13
  10   1     0.01   0.02  -0.00     0.07   0.09  -0.01     0.09   0.13  -0.00
  11   1    -0.00   0.01  -0.02    -0.03   0.03  -0.09    -0.05   0.05  -0.12
  12   1    -0.00   0.00  -0.02    -0.00   0.04  -0.06    -0.00   0.06  -0.06
  13   6    -0.01   0.02  -0.01    -0.02   0.11  -0.07    -0.01   0.14  -0.11
  14   1    -0.01   0.02   0.00    -0.05   0.08  -0.01    -0.06   0.12  -0.02
  15   1    -0.00   0.01  -0.00    -0.01   0.05  -0.03    -0.00   0.06  -0.04
  16   1     0.01   0.00  -0.01     0.05   0.02  -0.07     0.06   0.03  -0.10
  17   6     0.02   0.01   0.04     0.03   0.09   0.20     0.04   0.17   0.26
  18   1    -0.00  -0.01   0.01    -0.02   0.02   0.02    -0.03   0.04   0.02
  19   1     0.03  -0.00   0.02     0.06   0.02   0.11     0.07   0.03   0.15
  20   1     0.00   0.03   0.01     0.00   0.10   0.04    -0.00   0.15   0.06
  21   1     0.00   0.00   0.00     0.01   0.00   0.00     0.01   0.01   0.01
  22   6    -0.03   0.22   0.21     0.01  -0.04  -0.03     0.01  -0.02  -0.02
  23   8    -0.06   0.25   0.22     0.01  -0.04  -0.04     0.01  -0.02  -0.02
  24   7     0.24  -0.32   0.04    -0.04   0.05  -0.00    -0.02   0.02  -0.00
  25   1     0.11  -0.09  -0.27    -0.01   0.02   0.04     0.00   0.02   0.02
  26   1     0.16  -0.23   0.18    -0.04   0.03  -0.02    -0.02   0.01  -0.01
  27   7    -0.20   0.01  -0.35     0.04  -0.00   0.05     0.02  -0.00   0.02
  28   1    -0.14   0.17  -0.26     0.03  -0.02   0.04     0.01  -0.01   0.02
  29   1    -0.04  -0.29  -0.09    -0.00   0.04   0.02    -0.00   0.01   0.01
  30   6    -0.00   0.03  -0.02     0.02   0.11  -0.10    -0.07   0.06   0.00
  31   8     0.01   0.04   0.01     0.07   0.17   0.06    -0.08   0.06  -0.01
  32   7    -0.01  -0.02  -0.03    -0.12  -0.12  -0.12     0.10  -0.07  -0.09
  33   1     0.01  -0.02  -0.00     0.05  -0.08  -0.02    -0.04  -0.06   0.03
  34   1    -0.02  -0.01  -0.02    -0.08  -0.05  -0.08    -0.04  -0.04  -0.05
  35   7     0.02  -0.02   0.03     0.07  -0.07   0.07    -0.01  -0.05   0.13
  36   1     0.05   0.00   0.03     0.41   0.01   0.14    -0.29  -0.00   0.08
  37   1    -0.06  -0.04   0.02    -0.53  -0.26   0.18     0.48   0.02  -0.15
  38   6     0.03  -0.04  -0.00     0.00   0.01  -0.00     0.03  -0.04  -0.03
  39   8     0.04  -0.04  -0.02    -0.00   0.00   0.01     0.07   0.01  -0.03
  40   7    -0.05  -0.02   0.02    -0.02   0.02  -0.01    -0.08  -0.02   0.01
  41   1    -0.01   0.01   0.01    -0.00   0.01   0.01    -0.02   0.02   0.02
  42   1    -0.03  -0.02  -0.03    -0.00   0.00  -0.00    -0.03  -0.02   0.00
  43   7     0.02   0.05   0.01     0.00   0.01   0.00     0.00   0.05   0.02
  44   1     0.03   0.03   0.02     0.00  -0.01   0.02     0.02   0.08  -0.08
  45   1    -0.04   0.03  -0.02     0.00   0.00  -0.02    -0.04   0.02   0.12
  46   6    -0.02   0.02  -0.00     0.01  -0.02   0.00    -0.03   0.03  -0.01
  47   8    -0.03   0.01  -0.00     0.03  -0.01  -0.00    -0.06   0.00  -0.00
  48   7     0.02   0.01  -0.01    -0.03  -0.02   0.01     0.05   0.02  -0.02
  49   1     0.01  -0.01  -0.00    -0.01   0.01   0.00     0.02  -0.02  -0.01
  50   1     0.02   0.02   0.01    -0.01  -0.01   0.00     0.04   0.04   0.04
  51   7     0.00  -0.03   0.01    -0.01   0.03  -0.01     0.00  -0.05   0.00
  52   1    -0.01  -0.02   0.01     0.01   0.03  -0.00    -0.03  -0.07  -0.02
  53   1     0.02  -0.01   0.01    -0.03   0.01  -0.01     0.06   0.00   0.08
                     46                     47                     48
                        a                      a                      a 
 Frequencies --   472.0802               482.6417               485.5757
 Red. masses --     7.5304                 2.8630                 7.5481
 Frc consts  --     0.0000                 0.0000                 0.0000
 IR Inten    --    14.7978                 8.9973                18.2431
 Raman Activ --     0.0000                 0.0000                 0.0000
 Depolar     --     0.0000                 0.0000                 0.0000
 Atom AN      X      Y      Z        X      Y      Z        X      Y      Z
   1   8    -0.00   0.03  -0.01     0.00  -0.01   0.03     0.02   0.02   0.02
   2   6    -0.03  -0.05  -0.03    -0.00  -0.04  -0.02    -0.03  -0.12  -0.05
   3   1    -0.02  -0.02  -0.02    -0.00  -0.01  -0.01    -0.03  -0.04  -0.02
   4   1    -0.00  -0.01  -0.01    -0.01  -0.00  -0.01    -0.01  -0.04  -0.02
   5   6    -0.00  -0.09   0.00    -0.01  -0.04  -0.01    -0.02  -0.13  -0.02
   6   1    -0.00  -0.03   0.01     0.00  -0.01  -0.00    -0.00  -0.04   0.01
   7   1    -0.01  -0.02  -0.00    -0.00  -0.02  -0.00    -0.03  -0.04  -0.01
   8   7     0.04  -0.07   0.03    -0.01  -0.03   0.03     0.01  -0.08   0.06
   9   6     0.01   0.07   0.01     0.00   0.03  -0.03     0.01   0.11  -0.05
  10   1     0.01   0.04   0.01     0.02   0.02  -0.00     0.04   0.07   0.00
  11   1    -0.03   0.02  -0.02    -0.01   0.01  -0.02    -0.03   0.03  -0.05
  12   1     0.01   0.04   0.01    -0.00   0.01  -0.01     0.00   0.05  -0.02
  13   6     0.05   0.04  -0.07    -0.00   0.03  -0.01     0.02   0.07  -0.06
  14   1    -0.01   0.04  -0.02    -0.01   0.02   0.00    -0.02   0.06  -0.01
  15   1     0.01   0.02  -0.03    -0.00   0.01  -0.00     0.00   0.04  -0.02
  16   1     0.04   0.01  -0.04     0.01   0.01  -0.02     0.04   0.01  -0.05
  17   6    -0.06   0.06   0.07     0.02   0.04   0.05     0.01   0.12   0.13
  18   1    -0.03   0.03  -0.02     0.01   0.01   0.01    -0.01   0.05   0.01
  19   1    -0.01   0.02   0.04     0.01   0.01   0.03     0.02   0.03   0.08
  20   1    -0.03   0.04   0.03     0.01   0.02   0.00    -0.00   0.08   0.03
  21   1     0.00  -0.01  -0.01     0.00  -0.02  -0.01     0.01   0.03   0.02
  22   6    -0.02   0.02   0.02    -0.01  -0.00  -0.00    -0.00  -0.00  -0.00
  23   8    -0.01   0.02   0.03     0.00  -0.00   0.00     0.00  -0.00   0.00
  24   7     0.03  -0.04  -0.00    -0.00  -0.00  -0.00    -0.00   0.00  -0.00
  25   1    -0.01  -0.03  -0.02    -0.01  -0.01   0.00    -0.01  -0.01   0.00
  26   1     0.04  -0.02   0.01     0.01   0.01  -0.01     0.00   0.00  -0.00
  27   7    -0.03   0.01  -0.04    -0.00   0.00  -0.00     0.00   0.00   0.00
  28   1    -0.01   0.03  -0.03     0.02   0.01  -0.01     0.00  -0.00   0.00
  29   1    -0.00  -0.03  -0.01    -0.02  -0.01   0.01     0.00   0.01  -0.00
  30   6    -0.02  -0.02   0.01     0.02  -0.07   0.03     0.06  -0.21   0.09
  31   8    -0.03  -0.02   0.00     0.01  -0.10  -0.01     0.02  -0.28  -0.04
  32   7     0.05   0.02  -0.01    -0.00   0.09   0.09    -0.00   0.23   0.25
  33   1    -0.01   0.00   0.01     0.00   0.06  -0.01     0.02   0.17  -0.04
  34   1    -0.07  -0.01   0.03     0.02   0.04   0.07     0.06   0.11   0.19
  35   7     0.00  -0.01  -0.00    -0.02   0.04  -0.10    -0.06   0.11  -0.26
  36   1    -0.11  -0.00  -0.01     0.02  -0.01  -0.10     0.04  -0.03  -0.27
[...]
  44   1     0.00  -0.01  -0.00    -0.02   0.02   0.01     0.00  -0.00  -0.00
  45   1    -0.00  -0.01   0.00    -0.00  -0.02   0.00     0.00   0.01  -0.00
  46   6    -0.00   0.00   0.00    -0.00   0.00   0.00    -0.01   0.01  -0.00
  47   8     0.00  -0.00  -0.00     0.00   0.00  -0.00     0.00  -0.00  -0.00
  48   7     0.01   0.00  -0.00     0.02   0.01  -0.01    -0.02  -0.01   0.01
  49   1    -0.04  -0.02   0.01    -0.10  -0.04   0.03     0.08   0.03  -0.02
  50   1     0.00  -0.00   0.00     0.01  -0.01   0.00    -0.01   0.01  -0.00
  51   7     0.00  -0.00  -0.00     0.00  -0.00  -0.00     0.00  -0.00   0.00
  52   1     0.00  -0.00   0.00     0.00  -0.00   0.00     0.01  -0.00   0.00
  53   1    -0.00   0.00   0.00     0.00   0.00  -0.00     0.00   0.02  -0.00
                    142                    143                    144
                        a                      a                      a 
 Frequencies --  3491.8105              3493.2941              3495.8803
 Red. masses --     1.4478                 1.4535                 1.4424
 Frc consts  --     0.0000                 0.0000                 0.0000
 IR Inten    --    46.4377                25.3278                30.2730
 Raman Activ --     0.0000                 0.0000                 0.0000
 Depolar     --     0.0000                 0.0000                 0.0000
 Atom AN      X      Y      Z        X      Y      Z        X      Y      Z
   1   8     0.00  -0.00   0.00     0.00  -0.00   0.00    -0.00   0.00  -0.00
   2   6    -0.00   0.00  -0.00     0.00   0.00   0.00     0.00  -0.00   0.00
   3   1     0.00  -0.00   0.00     0.00  -0.00   0.00     0.00   0.00  -0.00
   4   1    -0.00   0.00   0.00    -0.00   0.00  -0.00     0.00  -0.00  -0.00
   5   6    -0.00   0.00   0.00    -0.00   0.00  -0.00    -0.00  -0.00   0.00
   6   1     0.00  -0.00   0.00     0.00  -0.00  -0.00     0.00  -0.00  -0.00
   7   1    -0.00  -0.00  -0.00     0.00  -0.00   0.00     0.00   0.00  -0.00
   8   7     0.00  -0.00   0.00     0.00   0.00   0.00    -0.00   0.00  -0.00
   9   6    -0.00  -0.00   0.00    -0.00  -0.00  -0.00    -0.00  -0.00   0.00
  10   1    -0.00  -0.00   0.00     0.00   0.00   0.00     0.00   0.00  -0.00
  11   1    -0.00   0.00  -0.00    -0.00  -0.00  -0.00    -0.00   0.00   0.00
  12   1     0.00   0.00   0.00     0.00   0.00  -0.00     0.00  -0.00  -0.00
  13   6    -0.00  -0.00  -0.00     0.00   0.00   0.00    -0.00  -0.00   0.00
  14   1     0.00  -0.00   0.00     0.00  -0.00   0.00     0.00   0.00  -0.00
  15   1     0.00   0.00   0.00    -0.00   0.00  -0.00    -0.00  -0.00  -0.00
  16   1     0.00   0.00  -0.00    -0.00  -0.00  -0.00     0.00   0.00   0.00
  17   6     0.00  -0.00  -0.00     0.00   0.00   0.00    -0.00   0.00   0.00
  18   1    -0.00   0.00   0.00     0.00   0.00   0.00     0.00  -0.00  -0.00
  19   1    -0.00   0.00  -0.00    -0.00  -0.00   0.00    -0.00   0.00   0.00
  20   1    -0.00   0.00  -0.00    -0.00  -0.00  -0.00    -0.00  -0.00   0.00
  21   1    -0.00   0.00  -0.00    -0.00   0.01  -0.01     0.00  -0.00   0.00
  22   6     0.00   0.00   0.00     0.00   0.00   0.00    -0.00   0.00   0.00
  23   8     0.00  -0.00  -0.00     0.00  -0.00  -0.00    -0.00  -0.00  -0.00
  24   7     0.12  -0.01   0.12     0.01  -0.00   0.01    -0.01  -0.00  -0.01
  25   1    -0.52   0.48  -0.07    -0.02   0.02  -0.00     0.05  -0.05   0.01
  26   1     0.05  -0.45  -0.39     0.00  -0.02  -0.02    -0.01   0.05   0.05
  27   7     0.04  -0.03  -0.01     0.00  -0.00  -0.00    -0.02   0.02   0.00
  28   1    -0.04   0.14   0.17    -0.00   0.01   0.01     0.02  -0.07  -0.08
  29   1    -0.12  -0.01  -0.15    -0.01  -0.00  -0.01     0.06   0.00   0.07
  30   6    -0.00   0.00  -0.00    -0.00  -0.00  -0.00    -0.00   0.00  -0.00
  31   8     0.00  -0.00   0.00     0.00   0.00   0.00     0.00  -0.00  -0.00
  32   7     0.00  -0.00   0.00     0.00   0.00   0.00    -0.00  -0.00  -0.00
  33   1    -0.00  -0.00  -0.00    -0.00  -0.00  -0.00     0.00   0.01   0.01
  34   1    -0.00   0.00  -0.00    -0.00   0.00  -0.00     0.00  -0.00   0.00
  35   7    -0.00  -0.00  -0.00    -0.00  -0.00  -0.00    -0.00  -0.00  -0.00
  36   1    -0.00   0.00  -0.00    -0.00   0.00  -0.00    -0.00   0.02  -0.01
  37   1     0.00  -0.00   0.00     0.00  -0.00   0.00     0.01  -0.00   0.02
  38   6    -0.00  -0.00   0.00    -0.00  -0.00   0.00    -0.00  -0.00   0.00
  39   8     0.00  -0.00   0.00     0.00   0.00  -0.00     0.00  -0.00  -0.00
  40   7     0.00  -0.00   0.00     0.00   0.00  -0.00    -0.00   0.01   0.00
  41   1     0.01   0.00  -0.00    -0.01  -0.00   0.00    -0.01  -0.00   0.00
  42   1    -0.02   0.02  -0.00    -0.00   0.00  -0.00     0.02  -0.02   0.00
  43   7    -0.02  -0.01   0.01    -0.00  -0.00   0.00    -0.17  -0.05   0.04
  44   1     0.07  -0.07  -0.03     0.01  -0.01  -0.01     0.47  -0.47  -0.21
  45   1     0.02   0.09   0.01     0.00   0.01   0.00     0.16   0.65   0.05
  46   6     0.00   0.00  -0.00    -0.00  -0.00  -0.00    -0.00   0.00   0.00
  47   8    -0.00   0.00   0.00     0.00  -0.00   0.00     0.00   0.00  -0.00
  48   7    -0.00  -0.00   0.00     0.01  -0.00  -0.00     0.00   0.00  -0.00
  49   1     0.00   0.00  -0.00    -0.01  -0.00   0.00    -0.01  -0.00   0.00
  50   1     0.00  -0.00  -0.00    -0.03   0.02  -0.00     0.01  -0.00   0.00
  51   7     0.01   0.00  -0.00    -0.16  -0.09   0.03     0.00   0.00  -0.00
  52   1    -0.03   0.02  -0.00     0.53  -0.37   0.08    -0.01   0.01  -0.00
  53   1    -0.00  -0.04   0.01     0.06   0.70  -0.20    -0.00  -0.01   0.00
                    145                    146                    147
                        a                      a                      a 
 Frequencies --  3497.6686              3499.2400              3526.8764
 Red. masses --     1.4531                 1.4637                 1.9018
 Frc consts  --     0.0000                 0.0000                 0.0000
 IR Inten    --    14.7161                 8.3093                12.8480
 Raman Activ --     0.0000                 0.0000                 0.0000
 Depolar     --     0.0000                 0.0000                 0.0000
 Atom AN      X      Y      Z        X      Y      Z        X      Y      Z
   1   8    -0.00   0.00  -0.00     0.00  -0.00   0.00    -0.00   0.00  -0.00
   2   6     0.00  -0.00   0.00    -0.00   0.00   0.00     0.00   0.00   0.00
   3   1    -0.00   0.00   0.00    -0.00  -0.00   0.00    -0.00  -0.00   0.00
   4   1    -0.00  -0.00  -0.00    -0.00   0.00   0.00     0.00  -0.00  -0.00
   5   6    -0.00  -0.00   0.00    -0.00   0.00   0.00    -0.00   0.00   0.00
   6   1    -0.00   0.00   0.00     0.00  -0.00   0.00     0.00  -0.00  -0.00
   7   1     0.00   0.00  -0.00     0.00  -0.00  -0.00    -0.00  -0.00  -0.00
   8   7    -0.00  -0.00  -0.00     0.00   0.00   0.00    -0.00  -0.00  -0.00
   9   6    -0.00   0.00   0.00     0.00  -0.00   0.00     0.00   0.00  -0.00
  10   1     0.00   0.00  -0.00     0.00  -0.00  -0.00    -0.00  -0.00  -0.00
  11   1     0.00  -0.00   0.00    -0.00  -0.00  -0.00    -0.00  -0.00  -0.00
  12   1    -0.00   0.00   0.00     0.00  -0.00   0.00    -0.00   0.00   0.00
  13   6     0.00   0.00  -0.00    -0.00  -0.00  -0.00    -0.00   0.00  -0.00
  14   1     0.00   0.00  -0.00     0.00  -0.00   0.00     0.00  -0.00  -0.00
  15   1    -0.00   0.00  -0.00    -0.00   0.00   0.00     0.00   0.00   0.00
  16   1    -0.00  -0.00   0.00     0.00   0.00  -0.00     0.00  -0.00  -0.00
  17   6     0.00   0.00   0.00     0.00  -0.00  -0.00    -0.00  -0.00  -0.00
  18   1    -0.00   0.00   0.00    -0.00   0.00   0.00    -0.00  -0.00   0.00
  19   1    -0.00  -0.00  -0.00     0.00  -0.00  -0.00    -0.00   0.00   0.00
  20   1     0.00   0.00  -0.00    -0.00   0.00  -0.00     0.00   0.00   0.00
  21   1     0.00  -0.00   0.00    -0.00   0.00  -0.00     0.00  -0.00   0.00
  22   6     0.00  -0.00  -0.00    -0.00   0.00   0.00     0.00  -0.00   0.00
  23   8    -0.00   0.00   0.00     0.00  -0.00  -0.00    -0.00   0.00  -0.00
  24   7    -0.00  -0.00  -0.00     0.04  -0.01   0.04     0.00  -0.00  -0.00
  25   1     0.00  -0.00  -0.00    -0.18   0.17  -0.03    -0.00  -0.00  -0.00
  26   1    -0.00   0.00   0.00     0.02  -0.14  -0.12    -0.00   0.00   0.00
  27   7     0.00  -0.00  -0.00    -0.14   0.11   0.01    -0.00   0.00   0.00
  28   1    -0.00   0.00   0.00     0.12  -0.44  -0.52     0.00  -0.00  -0.00
  29   1    -0.00  -0.00  -0.00     0.38   0.03   0.48     0.00   0.00   0.00
  30   6    -0.00  -0.00  -0.00    -0.00  -0.00   0.00     0.00  -0.01  -0.00
  31   8    -0.00   0.00  -0.00    -0.00  -0.00   0.00    -0.00   0.00   0.00
  32   7    -0.00   0.01   0.00     0.00   0.00   0.00     0.06  -0.25   0.03
  33   1    -0.00  -0.01  -0.01    -0.00  -0.00  -0.00     0.03   0.05   0.07
  34   1     0.01  -0.04   0.01    -0.00   0.00  -0.00    -0.24   0.91  -0.19
  35   7    -0.05  -0.14  -0.10     0.00   0.00   0.00    -0.01   0.01  -0.02
  36   1    -0.02   0.70  -0.22    -0.00  -0.00   0.00    -0.00  -0.01   0.00
  37   1     0.23  -0.16   0.59    -0.00   0.00  -0.00     0.03  -0.02   0.08
  38   6     0.00  -0.00  -0.00     0.00  -0.00  -0.00     0.00  -0.00  -0.00
  39   8    -0.00   0.00   0.00    -0.00   0.00   0.00    -0.00   0.00   0.00
  40   7    -0.00  -0.00   0.00     0.00  -0.00   0.00     0.00   0.00  -0.00
  41   1     0.00   0.00  -0.00     0.00  -0.00  -0.00    -0.00  -0.00   0.00
  42   1    -0.00   0.00   0.00    -0.02   0.02  -0.00     0.00  -0.00   0.00
  43   7     0.01   0.00  -0.00     0.02   0.01  -0.00    -0.00  -0.00  -0.00
  44   1    -0.01   0.01   0.01    -0.05   0.05   0.02    -0.00   0.00   0.00
  45   1    -0.00  -0.02  -0.00    -0.02  -0.07  -0.01     0.00   0.00   0.00
  46   6    -0.00  -0.00   0.00    -0.00   0.00  -0.00    -0.00  -0.00   0.00
  47   8    -0.00   0.00   0.00     0.00  -0.00   0.00     0.00   0.00  -0.00
  48   7    -0.00   0.00   0.00     0.00  -0.00   0.00    -0.00   0.00  -0.00
  49   1     0.00  -0.00  -0.00     0.00   0.00  -0.00    -0.00  -0.00   0.00
  50   1     0.00  -0.00  -0.00    -0.00   0.00  -0.00     0.02  -0.01   0.00
  51   7     0.00   0.00  -0.00    -0.00  -0.00   0.00     0.00  -0.00   0.00
  52   1    -0.00   0.00  -0.00     0.00  -0.00   0.00    -0.00   0.00  -0.00
  53   1    -0.00  -0.00   0.00     0.00   0.00  -0.00     0.00   0.00  -0.00
                    148                    149                    150
                        a                      a                      a 
 Frequencies --  3534.9316              3556.4511              3558.1819
 Red. masses --     1.8911                 2.1866                 2.1772
 Frc consts  --     0.0000                 0.0000                 0.0000
 IR Inten    --    14.2177                19.7560                17.0714
 Raman Activ --     0.0000                 0.0000                 0.0000
 Depolar     --     0.0000                 0.0000                 0.0000
 Atom AN      X      Y      Z        X      Y      Z        X      Y      Z
   1   8    -0.00   0.00  -0.00    -0.00   0.00  -0.00    -0.00   0.00  -0.00
   2   6     0.00   0.00   0.00     0.00  -0.00   0.00    -0.00  -0.00   0.00
   3   1     0.00   0.00  -0.00    -0.00   0.00   0.00    -0.00   0.00  -0.00
   4   1     0.00  -0.00  -0.00     0.00   0.00  -0.00     0.00  -0.00  -0.00
   5   6    -0.00  -0.00  -0.00     0.00  -0.00  -0.00     0.00  -0.00   0.00
   6   1    -0.00  -0.00   0.00    -0.00   0.00  -0.00    -0.00   0.00  -0.00
   7   1     0.00  -0.00   0.00     0.00   0.00  -0.00    -0.00  -0.00  -0.00
   8   7    -0.00  -0.00  -0.00    -0.00   0.00  -0.00    -0.00  -0.00  -0.00
   9   6     0.00  -0.00  -0.00     0.00   0.00   0.00     0.00  -0.00   0.00
  10   1     0.00   0.00  -0.00     0.00   0.00  -0.00    -0.00  -0.00  -0.00
  11   1    -0.00   0.00  -0.00     0.00  -0.00   0.00     0.00   0.00   0.00
  12   1    -0.00   0.00   0.00     0.00  -0.00  -0.00    -0.00  -0.00   0.00
  13   6     0.00  -0.00   0.00     0.00   0.00   0.00    -0.00  -0.00  -0.00
  14   1     0.00  -0.00   0.00    -0.00   0.00  -0.00    -0.00  -0.00  -0.00
  15   1    -0.00  -0.00  -0.00     0.00  -0.00   0.00     0.00   0.00   0.00
  16   1    -0.00   0.00  -0.00     0.00  -0.00   0.00    -0.00   0.00  -0.00
  17   6    -0.00  -0.00   0.00    -0.00   0.00  -0.00    -0.00  -0.00  -0.00
  18   1     0.00  -0.00  -0.00    -0.00  -0.00  -0.00    -0.00  -0.00  -0.00
  19   1     0.00   0.00  -0.00     0.00  -0.00   0.00    -0.00   0.00  -0.00
  20   1     0.00  -0.00   0.00     0.00  -0.00   0.00     0.00   0.00   0.00
  21   1    -0.00  -0.00   0.00     0.00  -0.00   0.00     0.00  -0.00   0.00
  22   6    -0.00   0.00   0.00    -0.01   0.01  -0.00     0.00  -0.00   0.00
  23   8     0.00  -0.00  -0.00     0.00  -0.00   0.00    -0.00   0.00   0.00
  24   7    -0.00   0.00   0.00    -0.12   0.23   0.10     0.00  -0.00  -0.00
  25   1     0.00  -0.00   0.00     0.41  -0.36   0.07    -0.00   0.00  -0.00
  26   1     0.00  -0.00  -0.00     0.04  -0.49  -0.45    -0.00   0.00   0.00
  27   7    -0.00  -0.00  -0.00    -0.04  -0.05  -0.11     0.00   0.00   0.00
  28   1    -0.00   0.00   0.00    -0.05   0.16   0.19     0.00  -0.00  -0.00
  29   1     0.00   0.00   0.00     0.20   0.01   0.24    -0.00  -0.00  -0.00
  30   6    -0.00   0.00  -0.00     0.00  -0.00   0.00    -0.00  -0.00   0.00
  31   8     0.00  -0.00   0.00    -0.00   0.00  -0.00     0.00  -0.00  -0.00
  32   7    -0.00   0.01  -0.00    -0.00  -0.00  -0.00    -0.00   0.00   0.00
  33   1    -0.00  -0.00  -0.00     0.00   0.00   0.00    -0.00  -0.00  -0.00
  34   1     0.01  -0.02   0.00    -0.00   0.00  -0.00     0.00  -0.00   0.00
  35   7     0.00  -0.00   0.00    -0.00   0.00  -0.00     0.00  -0.00   0.00
  36   1     0.00   0.00  -0.00     0.00  -0.00   0.00     0.00   0.00  -0.00
  37   1    -0.00   0.00  -0.00     0.00  -0.00   0.00    -0.00   0.00  -0.00
  38   6    -0.00   0.00   0.00     0.00   0.00   0.00    -0.00   0.00   0.00
  39   8     0.00  -0.00  -0.00     0.00  -0.00  -0.00     0.00  -0.00  -0.00
  40   7     0.00  -0.00  -0.00    -0.00   0.00  -0.00    -0.00  -0.00   0.00
  41   1     0.00  -0.00  -0.00    -0.00  -0.00   0.00     0.01   0.00  -0.00
  42   1    -0.00   0.00  -0.00     0.01  -0.01   0.00     0.00  -0.00   0.00
  43   7     0.00  -0.00  -0.00    -0.00  -0.00  -0.00     0.00  -0.00  -0.00
  44   1    -0.01   0.01   0.00    -0.00   0.00   0.00    -0.01   0.00   0.00
  45   1     0.00   0.00  -0.00     0.00   0.01   0.00     0.00   0.01   0.00
  46   6    -0.01  -0.00   0.00    -0.00   0.00   0.00    -0.00   0.01  -0.00
  47   8     0.00  -0.00  -0.00     0.00   0.00  -0.00     0.00  -0.00   0.00
  48   7    -0.21   0.15  -0.00     0.00  -0.00  -0.00    -0.02   0.01   0.00
  49   1     0.05   0.04  -0.02    -0.00  -0.00   0.00     0.01   0.00  -0.00
  50   1     0.76  -0.58   0.01    -0.00   0.00   0.00     0.08  -0.07   0.00
  51   7     0.01  -0.03   0.01    -0.00   0.00  -0.00    -0.14   0.26  -0.06
  52   1    -0.05   0.03  -0.01     0.00  -0.00   0.00     0.59  -0.38   0.08
  53   1     0.01   0.09  -0.03    -0.00  -0.00   0.00    -0.08  -0.60   0.17
                    151                    152                    153
                        a                      a                      a 
 Frequencies --  3562.8871              3563.7289              3564.2357
 Red. masses --     2.1756                 2.1758                 2.1906
 Frc consts  --     0.0000                 0.0000                 0.0000
 IR Inten    --     8.5365                15.0082                22.1078
 Raman Activ --     0.0000                 0.0000                 0.0000
 Depolar     --     0.0000                 0.0000                 0.0000
 Atom AN      X      Y      Z        X      Y      Z        X      Y      Z
   1   8     0.00  -0.00   0.00     0.00  -0.00   0.00    -0.00   0.00  -0.00
   2   6    -0.00  -0.00  -0.00    -0.00   0.00   0.00     0.00  -0.00   0.00
   3   1     0.00   0.00   0.00     0.00  -0.00  -0.00     0.00   0.00  -0.00
   4   1     0.00  -0.00  -0.00    -0.00  -0.00   0.00     0.00  -0.00   0.00
   5   6     0.00  -0.00   0.00    -0.00   0.00   0.00    -0.00  -0.00   0.00
   6   1    -0.00   0.00   0.00     0.00  -0.00   0.00     0.00  -0.00  -0.00
   7   1     0.00   0.00   0.00     0.00  -0.00  -0.00     0.00   0.00  -0.00
   8   7    -0.00  -0.00   0.00     0.00  -0.00  -0.00     0.00  -0.00  -0.00
   9   6    -0.00   0.00  -0.00    -0.00   0.00   0.00    -0.00   0.00   0.00
  10   1     0.00   0.00  -0.00     0.00   0.00  -0.00    -0.00  -0.00  -0.00
  11   1     0.00  -0.00   0.00     0.00   0.00   0.00    -0.00  -0.00  -0.00
  12   1     0.00   0.00   0.00     0.00  -0.00  -0.00     0.00  -0.00  -0.00
  13   6     0.00   0.00  -0.00    -0.00   0.00   0.00    -0.00   0.00  -0.00
  14   1    -0.00   0.00   0.00     0.00   0.00  -0.00     0.00  -0.00  -0.00
  15   1    -0.00   0.00  -0.00    -0.00   0.00  -0.00     0.00   0.00   0.00
  16   1    -0.00  -0.00   0.00    -0.00   0.00  -0.00    -0.00  -0.00  -0.00
  17   6     0.00   0.00   0.00     0.00  -0.00  -0.00    -0.00  -0.00   0.00
  18   1     0.00   0.00  -0.00    -0.00   0.00   0.00     0.00  -0.00  -0.00
  19   1    -0.00  -0.00  -0.00     0.00   0.00  -0.00     0.00   0.00  -0.00
  20   1    -0.00   0.00  -0.00    -0.00  -0.00  -0.00    -0.00  -0.00   0.00
  21   1    -0.00   0.00  -0.00    -0.00   0.00  -0.00     0.00  -0.00   0.00
  22   6     0.00   0.00   0.00    -0.00  -0.01  -0.01     0.00   0.00   0.00
  23   8     0.00  -0.00   0.00     0.00   0.00   0.00    -0.00  -0.00  -0.00
  24   7    -0.00   0.00   0.00     0.05  -0.10  -0.05    -0.01   0.02   0.01
  25   1     0.00  -0.00   0.00    -0.18   0.16  -0.03     0.04  -0.03   0.01
  26   1     0.00  -0.00  -0.00    -0.02   0.23   0.21     0.00  -0.04  -0.04
  27   7     0.00   0.00   0.00    -0.08  -0.10  -0.24     0.01   0.02   0.04
  28   1     0.00  -0.01  -0.01    -0.12   0.37   0.42     0.02  -0.06  -0.07
  29   1    -0.01  -0.00  -0.01     0.41   0.01   0.48    -0.07  -0.00  -0.08
  30   6    -0.00   0.01  -0.01    -0.00   0.00  -0.00    -0.00  -0.00   0.00
  31   8     0.00  -0.00   0.00     0.00  -0.00   0.00     0.00   0.00   0.00
  32   7    -0.00   0.02  -0.00     0.00   0.00   0.00     0.00   0.00   0.00
  33   1    -0.00  -0.00  -0.01    -0.00  -0.00  -0.00    -0.00  -0.00  -0.00
  34   1     0.02  -0.07   0.02     0.00  -0.00   0.00    -0.00   0.00  -0.00
  35   7    -0.07   0.20  -0.21    -0.00   0.00  -0.00    -0.00   0.00  -0.00
  36   1     0.00  -0.61   0.17     0.00  -0.01   0.00    -0.00  -0.00   0.00
  37   1     0.25  -0.14   0.65     0.00  -0.00   0.01     0.00  -0.00   0.01
  38   6    -0.00   0.00  -0.00    -0.00   0.00   0.00    -0.00   0.01   0.00
  39   8     0.00  -0.00  -0.00     0.00  -0.00  -0.00     0.00  -0.00  -0.00
  40   7    -0.00  -0.00   0.00     0.00  -0.00   0.00    -0.00   0.00  -0.00
  41   1     0.00   0.00  -0.00     0.00   0.00  -0.00     0.00   0.00  -0.00
  42   1    -0.00   0.00  -0.00    -0.01   0.01  -0.00     0.01  -0.01   0.00
  43   7     0.00  -0.00  -0.00    -0.01   0.05   0.01    -0.07   0.28   0.06
  44   1    -0.00   0.00   0.00     0.08  -0.07  -0.03     0.46  -0.42  -0.21
  45   1     0.00   0.01   0.00    -0.03  -0.11  -0.01    -0.18  -0.65  -0.03
  46   6    -0.00   0.00  -0.00    -0.00   0.00  -0.00    -0.00   0.00  -0.00
  47   8     0.00  -0.00   0.00     0.00  -0.00   0.00     0.00  -0.00  -0.00
  48   7    -0.00   0.00   0.00    -0.00   0.00   0.00    -0.00   0.00   0.00
  49   1     0.00   0.00  -0.00     0.00   0.00  -0.00     0.01   0.00  -0.00
  50   1     0.00  -0.00   0.00     0.00  -0.00   0.00     0.01  -0.00   0.00
  51   7    -0.00   0.00  -0.00    -0.00   0.00  -0.00    -0.00   0.00  -0.00
  52   1     0.00  -0.00   0.00     0.00  -0.00   0.00     0.01  -0.00   0.00
  53   1    -0.00  -0.00   0.00    -0.00  -0.00   0.00    -0.00  -0.01   0.00
