      -----------------------------------------------------------      
     |                   =====================                   |     
     |                           x T B                           |     
     |                   =====================                   |     
     |                         S. Grimme                         |     
     |          Mulliken Center for Theoretical Chemistry        |     
     |                    University of Bonn                     |     
      -----------------------------------------------------------      

   * xtb version 6.6.1 (unknown-commit) compiled by '@Linux' on 12/27/2023

   xtb is free software: you can redistribute it and/or modify it under
   the terms of the GNU Lesser General Public License as published by
   the Free Software Foundation, either version 3 of the License, or
   (at your option) any later version.
   
   xtb is distributed in the hope that it will be useful,
   but WITHOUT ANY WARRANTY; without even the implied warranty of
   MERCHANTABILITY or FITNESS FOR A PARTICULAR PURPOSE.  See the
   GNU Lesser General Public License for more details.
   
   Cite this work as:
   * C. Bannwarth, E. Caldeweyher, S. Ehlert, A. Hansen, P. Pracht,
     J. Seibert, S. Spicher, S. Grimme, WIREs Comput. Mol. Sci., 2020, 11,
     e01493. DOI: 10.1002/wcms.1493
   
   for GFN2-xTB:
   * C. Bannwarth, S. Ehlert and S. Grimme., J. Chem. Theory Comput., 2019,
     15, 1652-1671. DOI: 10.1021/acs.jctc.8b01176
   for GFN1-xTB:
   * S. Grimme, C. Bannwarth, P. Shushkov, J. Chem. Theory Comput., 2017,
     13, 1989-2009. DOI: 10.1021/acs.jctc.7b00118
   for GFN0-xTB:
   * P. Pracht, E. Caldeweyher, S. Ehlert, S. Grimme, ChemRxiv, 2019, preprint.
     DOI: 10.26434/chemrxiv.8326202.v1
   for GFN-FF:
   * S. Spicher and S. Grimme, Angew. Chem. Int. Ed., 2020, 59, 15665-15673.
     DOI: 10.1002/anie.202004239
   
   for ALPB and GBSA implicit solvation:
   * S. Ehlert, M. Stahn, S. Spicher, S. Grimme, J. Chem. Theory Comput.,
     2021, 17, 4250-4261. DOI: 10.1021/acs.jctc.1c00471
   
   for DFT-D4:
   * E. Caldeweyher, C. Bannwarth and S. Grimme, J. Chem. Phys., 2017,
     147, 034112. DOI: 10.1063/1.4993215
   * E. Caldeweyher, S. Ehlert, A. Hansen, H. Neugebauer, S. Spicher,
     C. Bannwarth and S. Grimme, J. Chem. Phys., 2019, 150, 154122.
     DOI: 10.1063/1.5090222
   * E. Caldeweyher, J.-M. Mewes, S. Ehlert and S. Grimme, Phys. Chem. Chem. Phys.
     2020, 22, 8499-8512. DOI: 10.1039/D0CP00502A
   
   for sTDA-xTB:
   * S. Grimme and C. Bannwarth, J. Chem. Phys., 2016, 145, 054103.
     DOI: 10.1063/1.4959605
   
   in the mass-spec context:
   * V. Asgeirsson, C. Bauer and S. Grimme, Chem. Sci., 2017, 8, 4879.
     DOI: 10.1039/c7sc00601b
   * J. Koopman and S. Grimme, ACS Omega 2019, 4, 12, 15120-15133.
     DOI: 10.1021/acsomega.9b02011
   
   for metadynamics refer to:
   * S. Grimme, J. Chem. Theory Comput., 2019, 155, 2847-2862
     DOI: 10.1021/acs.jctc.9b00143
   
   for SPH calculations refer to:
   * S. Spicher and S. Grimme, J. Chem. Theory Comput., 2021, 17, 1701-1714
     DOI: 10.1021/acs.jctc.0c01306
   
   with help from (in alphabetical order)
   P. Atkinson, C. Bannwarth, F. Bohle, G. Brandenburg, E. Caldeweyher
   M. Checinski, S. Dohm, S. Ehlert, S. Ehrlich, I. Gerasimov, C. Hölzer
   A. Katbashev, J. Koopman, C. Lavigne, S. Lehtola, F. März, M. Müller,
   F. Musil, H. Neugebauer, J. Pisarek, C. Plett, P. Pracht, F. Pultar,
   J. Seibert, P. Shushkov, S. Spicher, M. Stahn, M. Steiner, T. Strunk,
   J. Stückrath, T. Rose, and J. Unsleber
   
 * started run on 2024/01/10 at 15:40:51.480     

           -------------------------------------------------
          |                Calculation Setup                |
           -------------------------------------------------

          program call               : xtb struc.xyz --gfn2 --hess
          hostname                   : swaroop
          coordinate file            : struc.xyz
          omp threads                :                     1

   ID    Z sym.   atoms
    1    8 O      1, 23, 31, 39, 47
    2    6 C      2, 5, 9, 13, 17, 22, 30, 38, 46
    3    1 H      3, 4, 6, 7, 10-12, 14-16, 18-21, 25, 26, 28, 29, 33, 34,
                  36, 37, 41, 42, 44, 45, 49, 50, 52, 53
    4    7 N      8, 24, 27, 32, 35, 40, 43, 48, 51

molecular fragmentation (1/2 indicates fragments):
11111111111111111111122222222222222222222222222222222
# atoms in fragment 1/2:    21    32
 fragment masses (1/2) :      104.17      240.22
CMA distance (Bohr)    :   4.088
constraining FC (au)   :  0.0500

           -------------------------------------------------
          |                 G F N 2 - x T B                 |
           -------------------------------------------------

        Reference                      10.1021/acs.jctc.8b01176
      * Hamiltonian:
        H0-scaling (s, p, d)           1.850000    2.230000    2.230000
        zeta-weighting                 0.500000
      * Dispersion:
        s8                             2.700000
        a1                             0.520000
        a2                             5.000000
        s9                             5.000000
      * Repulsion:
        kExp                           1.500000    1.000000
        rExp                           1.000000
      * Coulomb:
        alpha                          2.000000
        third order                    shell-resolved
        anisotropic                    true
        a3                             3.000000
        a5                             4.000000
        cn-shift                       1.200000
        cn-exp                         4.000000
        max-rad                        5.000000


          ...................................................
          :                      SETUP                      :
          :.................................................:
          :  # basis functions                 122          :
          :  # atomic orbitals                 122          :
          :  # shells                           76          :
          :  # electrons                       140          :
          :  max. iterations                   250          :
          :  Hamiltonian                  GFN2-xTB          :
          :  restarted?                      false          :
          :  GBSA solvation                  false          :
          :  PC potential                    false          :
          :  electronic temp.          300.0000000     K    :
          :  accuracy                    1.0000000          :
          :  -> integral cutoff          0.2500000E+02      :
          :  -> integral neglect         0.1000000E-07      :
          :  -> SCF convergence          0.1000000E-05 Eh   :
          :  -> wf. convergence          0.1000000E-03 e    :
          :  Broyden damping             0.4000000          :
          ...................................................

 iter      E             dE          RMSdq      gap      omega  full diag
   1    -81.5514569 -0.815515E+02  0.433E+00    5.15       0.0  T
   2    -81.8395316 -0.288075E+00  0.235E+00    6.06       1.0  T
   3    -81.8451277 -0.559608E-02  0.115E+00    5.77       1.0  T
   4    -81.8464927 -0.136503E-02  0.237E-01    5.83       1.0  T
   5    -81.8473840 -0.891352E-03  0.907E-02    5.76       1.0  T
   6    -81.8474072 -0.231272E-04  0.251E-02    5.78       1.0  T
   7    -81.8474118 -0.460758E-05  0.731E-03    5.77       1.9  T
   8    -81.8474120 -0.207774E-06  0.248E-03    5.77       5.5  T
   9    -81.8474120 -0.137405E-07  0.735E-04    5.77      18.7  T
  10    -81.8474120 -0.388214E-08  0.173E-04    5.77      79.4  T

   *** convergence criteria satisfied after 10 iterations ***

         #    Occupation            Energy/Eh            Energy/eV
      -------------------------------------------------------------
         1        2.0000           -0.7939568             -21.6047
       ...           ...                  ...                  ...
        64        2.0000           -0.4949036             -13.4670
        65        2.0000           -0.4941582             -13.4467
        66        2.0000           -0.4940025             -13.4425
        67        2.0000           -0.4905411             -13.3483
        68        2.0000           -0.4894550             -13.3187
        69        2.0000           -0.4845226             -13.1845
        70        2.0000           -0.4833538             -13.1527 (HOMO)
        71                         -0.2712430              -7.3809 (LUMO)
        72                         -0.2673786              -7.2757
        73                         -0.2591483              -7.0518
        74                         -0.2570775              -6.9954
        75                         -0.1446385              -3.9358
       ...                                ...                  ...
       122                          0.5576561              15.1746
      -------------------------------------------------------------
                  HL-Gap            0.2121108 Eh            5.7718 eV
             Fermi-level           -0.3772984 Eh          -10.2668 eV

 SCC (total)                   0 d,  0 h,  0 min,  0.098 sec
 SCC setup                      ...        0 min,  0.000 sec (  0.292%)
 Dispersion                     ...        0 min,  0.001 sec (  0.596%)
 classical contributions        ...        0 min,  0.000 sec (  0.188%)
 integral evaluation            ...        0 min,  0.008 sec (  8.083%)
 iterations                     ...        0 min,  0.061 sec ( 62.063%)
 molecular gradient             ...        0 min,  0.028 sec ( 28.489%)
 printout                       ...        0 min,  0.000 sec (  0.277%)

         :::::::::::::::::::::::::::::::::::::::::::::::::::::
         ::                     SUMMARY                     ::
         :::::::::::::::::::::::::::::::::::::::::::::::::::::
         :: total energy             -80.932325249187 Eh    ::
         :: gradient norm              0.000024341240 Eh/a0 ::
         :: HOMO-LUMO gap              5.771828873043 eV    ::
         ::.................................................::
         :: SCC energy               -81.847411994326 Eh    ::
         :: -> isotropic ES            0.291140898802 Eh    ::
         :: -> anisotropic ES         -0.028888098665 Eh    ::
         :: -> anisotropic XC          0.020709355480 Eh    ::
         :: -> dispersion             -0.045005055694 Eh    ::
         :: repulsion energy           0.913791975516 Eh    ::
         :: add. restraining           0.000000000000 Eh    ::
         :: total charge               1.000000000000 e     ::
         :::::::::::::::::::::::::::::::::::::::::::::::::::::

           ------------------------------------------------- 
          |                Numerical Hessian                |
           ------------------------------------------------- 
step length          :   0.00500
SCC accuracy         :   0.30000
Hessian scale factor :   1.00000
frozen atoms in %    :   0.00000    0
RMS gradient         :   0.00002
estimated CPU  time      0.24 min
estimated wall time      0.24 min

writing file <hessian>.

 projected vibrational frequencies (cm⁻¹)
eigval :       -0.00    -0.00     0.00     0.00     0.00     0.00
eigval :       15.76    24.69    26.90    32.90    39.10    41.72
eigval :       46.23    46.97    54.54    63.47    68.18    79.88
eigval :       89.39    94.39    98.28    99.53   104.18   108.82
eigval :      124.76   127.00   130.15   136.36   158.35   171.38
eigval :      180.09   213.69   238.63   250.12   278.83   292.22
eigval :      297.97   312.98   321.24   331.78   351.73   366.98
eigval :      371.43   380.27   406.38   428.84   429.69   440.73
eigval :      460.66   465.28   466.52   471.60   472.76   476.73
eigval :      477.89   479.00   482.94   496.13   534.72   538.62
eigval :      543.50   555.24   568.60   604.23   668.60   674.18
eigval :      675.23   676.67   731.76   753.03   770.23   784.06
eigval :      900.89   932.20   958.43   965.17   969.08   978.89
eigval :     1001.44  1007.27  1012.00  1016.32  1018.81  1026.22
eigval :     1030.79  1038.00  1041.45  1085.44  1086.38  1088.30
eigval :     1093.37  1095.31  1114.23  1134.14  1181.70  1228.95
eigval :     1239.16  1255.01  1286.70  1319.58  1346.00  1350.63
eigval :     1358.37  1361.21  1373.95  1384.13  1401.23  1408.54
eigval :     1418.28  1434.95  1441.05  1442.50  1446.57  1449.19
eigval :     1454.08  1455.51  1459.14  1464.59  1474.99  1478.86
eigval :     1482.42  1497.73  1499.94  1510.81  1516.75  1660.45
eigval :     1693.69  1714.58  1723.14  2900.38  2953.39  2967.68
eigval :     3001.14  3031.54  3040.85  3044.68  3045.47  3050.66
eigval :     3056.82  3058.27  3066.46  3077.90  3155.57  3206.72
eigval :     3249.62  3418.01  3490.62  3495.14  3500.15  3500.87
eigval :     3520.34  3529.78  3537.91  3541.48  3556.05  3560.10
eigval :     3566.47  3567.06  3573.18
           -------------------------------------------------
          |                Property Printout                |
           -------------------------------------------------

    * Orbital Energies and Occupations

         #    Occupation            Energy/Eh            Energy/eV
      -------------------------------------------------------------
         1        2.0000           -0.7939559             -21.6046
       ...           ...                  ...                  ...
        58        2.0000           -0.5168024             -14.0629
        59        2.0000           -0.5077927             -13.8177
        60        2.0000           -0.5038337             -13.7100
        61        2.0000           -0.5019885             -13.6598
        62        2.0000           -0.4985342             -13.5658
        63        2.0000           -0.4961168             -13.5000
        64        2.0000           -0.4949053             -13.4671
        65        2.0000           -0.4941593             -13.4468
        66        2.0000           -0.4940034             -13.4425
        67        2.0000           -0.4905422             -13.3483
        68        2.0000           -0.4894565             -13.3188
        69        2.0000           -0.4845240             -13.1846
        70        2.0000           -0.4833554             -13.1528 (HOMO)
        71                         -0.2712416              -7.3809 (LUMO)
        72                         -0.2673788              -7.2757
        73                         -0.2591524              -7.0519
        74                         -0.2570793              -6.9955
        75                         -0.1446385              -3.9358
        76                         -0.1030198              -2.8033
        77                         -0.0928901              -2.5277
        78                         -0.0807110              -2.1963
        79                         -0.0751014              -2.0436
        80                         -0.0714029              -1.9430
        81                         -0.0659387              -1.7943
       ...                                ...                  ...
       122                          0.5576537              15.1745
      -------------------------------------------------------------
                  HL-Gap            0.2121138 Eh            5.7719 eV
             Fermi-level           -0.3772985 Eh          -10.2668 eV

     #   Z          covCN         q      C6AA      α(0)
     1   8 O        1.655    -0.446    21.757     6.297
     2   6 C        3.672     0.061    19.782     6.375
     3   1 H        0.924     0.077     2.011     2.218
     4   1 H        0.923     0.046     2.369     2.407
     5   6 C        3.765    -0.057    21.633     6.629
     6   1 H        0.924     0.134     1.502     1.917
     7   1 H        0.924     0.073     2.050     2.239
     8   7 N        3.624     0.159    18.558     6.398
     9   6 C        3.731    -0.119    22.888     6.829
    10   1 H        0.925     0.115     1.655     2.012
    11   1 H        0.925     0.114     1.666     2.019
    12   1 H        0.925     0.100     1.782     2.088
    13   6 C        3.739    -0.119    22.862     6.823
    14   1 H        0.925     0.077     2.013     2.219
    15   1 H        0.925     0.124     1.581     1.966
    16   1 H        0.925     0.122     1.596     1.976
    17   6 C        3.724    -0.118    22.870     6.829
    18   1 H        0.925     0.073     2.058     2.243
    19   1 H        0.925     0.111     1.688     2.032
    20   1 H        0.925     0.125     1.571     1.960
    21   1 H        0.805     0.301     0.716     1.330
    22   6 C        2.675     0.343    21.176     7.530
    23   8 O        0.860    -0.528    24.409     6.624
    24   7 N        2.644    -0.296    27.636     7.808
    25   1 H        0.860     0.196     1.127     1.663
    26   1 H        0.860     0.181     1.208     1.722
    27   7 N        2.643    -0.321    28.263     7.896
    28   1 H        0.860     0.174     1.246     1.749
    29   1 H        0.860     0.235     0.943     1.521
    30   6 C        2.675     0.343    21.165     7.528
    31   8 O        0.860    -0.522    24.283     6.607
    32   7 N        2.644    -0.305    27.864     7.840
    33   1 H        0.860     0.221     1.004     1.570
    34   1 H        0.861     0.177     1.230     1.737
    35   7 N        2.645    -0.290    27.482     7.786
    36   1 H        0.861     0.183     1.199     1.715
    37   1 H        0.860     0.201     1.102     1.644
    38   6 C        2.675     0.341    21.210     7.536
    39   8 O        0.861    -0.540    24.686     6.662
    40   7 N        2.645    -0.290    27.470     7.784
    41   1 H        0.860     0.199     1.111     1.651
    42   1 H        0.861     0.185     1.188     1.708
    43   7 N        2.644    -0.305    27.861     7.839
    44   1 H        0.861     0.180     1.216     1.728
    45   1 H        0.859     0.247     0.897     1.484
    46   6 C        2.675     0.343    21.166     7.528
    47   8 O        0.860    -0.515    24.110     6.583
    48   7 N        2.645    -0.289    27.461     7.783
    49   1 H        0.860     0.205     1.080     1.628
    50   1 H        0.861     0.184     1.189     1.708
    51   7 N        2.644    -0.311    27.994     7.858
    52   1 H        0.861     0.177     1.231     1.738
    53   1 H        0.859     0.242     0.914     1.498

 Mol. C6AA /au·bohr⁶  :      21773.881868
 Mol. C8AA /au·bohr⁸  :     454020.701672
 Mol. α(0) /au        :        220.459412


Wiberg/Mayer (AO) data.
largest (>0.10) Wiberg bond orders for each atom

 ---------------------------------------------------------------------------
     #   Z sym  total        # sym  WBO       # sym  WBO       # sym  WBO
 ---------------------------------------------------------------------------
     1   8 O    1.966 --     2 C    0.986    21 H    0.895
     2   6 C    3.950 --     5 C    1.010     1 O    0.986     4 H    0.966
                             3 H    0.953
     3   1 H    0.994 --     2 C    0.953
     4   1 H    0.998 --     2 C    0.966
     5   6 C    3.939 --     2 C    1.010     7 H    0.969     8 N    0.942
                             6 H    0.938
     6   1 H    0.982 --     5 C    0.938
     7   1 H    0.995 --     5 C    0.969
     8   7 N    3.823 --    17 C    0.958    13 C    0.953     9 C    0.953
                             5 C    0.942
     9   6 C    3.915 --    12 H    0.970    11 H    0.967    10 H    0.966
                             8 N    0.953
    10   1 H    0.987 --     9 C    0.966
    11   1 H    0.987 --     9 C    0.967
    12   1 H    0.990 --     9 C    0.970
    13   6 C    3.917 --    14 H    0.980    16 H    0.966    15 H    0.961
                             8 N    0.953
    14   1 H    0.994 --    13 C    0.980
    15   1 H    0.984 --    13 C    0.961
    16   1 H    0.985 --    13 C    0.966
    17   6 C    3.921 --    18 H    0.980    19 H    0.958     8 N    0.958
                            20 H    0.957
    18   1 H    0.995 --    17 C    0.980
    19   1 H    0.988 --    17 C    0.958
    20   1 H    0.984 --    17 C    0.957
    21   1 H    0.909 --     1 O    0.895
    22   6 C    3.959 --    23 O    1.534    27 N    1.221    24 N    1.196
    23   8 O    1.892 --    22 C    1.534    27 N    0.144    24 N    0.140
    24   7 N    3.310 --    22 C    1.196    26 H    0.948    25 H    0.944
                            23 O    0.140
    25   1 H    0.961 --    24 N    0.944
    26   1 H    0.967 --    24 N    0.948
    27   7 N    3.308 --    22 C    1.221    28 H    0.949    29 H    0.879
                            23 O    0.144
    28   1 H    0.969 --    27 N    0.949
    29   1 H    0.945 --    27 N    0.879
    30   6 C    3.959 --    31 O    1.533    32 N    1.214    35 N    1.206
    31   8 O    1.900 --    30 C    1.533    32 N    0.145    35 N    0.141
    32   7 N    3.318 --    30 C    1.214    34 H    0.950    33 H    0.912
                            31 O    0.145
    33   1 H    0.951 --    32 N    0.912
    34   1 H    0.968 --    32 N    0.950
    35   7 N    3.321 --    30 C    1.206    36 H    0.948    37 H    0.943
                            31 O    0.141
    36   1 H    0.966 --    35 N    0.948
    37   1 H    0.960 --    35 N    0.943
    38   6 C    3.960 --    39 O    1.473    43 N    1.267    40 N    1.209
    39   8 O    1.891 --    38 C    1.473    43 N    0.144    40 N    0.127
    40   7 N    3.323 --    38 C    1.209    42 H    0.947    41 H    0.943
                            39 O    0.127
    41   1 H    0.960 --    40 N    0.943
    42   1 H    0.965 --    40 N    0.947
    43   7 N    3.351 --    38 C    1.267    44 H    0.948    45 H    0.866
                            39 O    0.144
    44   1 H    0.968 --    43 N    0.948
    45   1 H    0.939 --    43 N    0.866
    46   6 C    3.960 --    47 O    1.488    51 N    1.247    48 N    1.215
    47   8 O    1.944 --    46 C    1.488    51 N    0.138    48 N    0.131
    48   7 N    3.325 --    46 C    1.215    50 H    0.947    49 H    0.937
                            47 O    0.131
    49   1 H    0.958 --    48 N    0.937
    50   1 H    0.966 --    48 N    0.947
    51   7 N    3.331 --    46 C    1.247    52 H    0.948    53 H    0.867
                            47 O    0.138
    52   1 H    0.968 --    51 N    0.948
    53   1 H    0.941 --    51 N    0.867
 ---------------------------------------------------------------------------

Topologies differ in total number of bonds
Writing topology from bond orders to xtbtopo.mol

molecular dipole:
                 x           y           z       tot (Debye)
 q only:       -0.424       0.068      -0.147
   full:       -0.626       0.001       0.305       1.768
molecular quadrupole (traceless):
                xx          xy          yy          xz          yz          zz
 q only:        6.037      -4.989       4.474      11.796     -22.724     -10.511
  q+dip:       11.328      -4.575       4.866      14.107     -28.779     -16.194
   full:       10.730      -4.719       5.254      13.573     -28.026     -15.984

           -------------------------------------------------
          |               Frequency Printout                |
           -------------------------------------------------
 projected vibrational frequencies (cm⁻¹)
eigval :       -0.00    -0.00     0.00     0.00     0.00     0.00
eigval :       15.76    24.69    26.90    32.90    39.10    41.72
eigval :       46.23    46.97    54.54    63.47    68.18    79.88
eigval :       89.39    94.39    98.28    99.53   104.18   108.82
eigval :      124.76   127.00   130.15   136.36   158.35   171.38
eigval :      180.09   213.69   238.63   250.12   278.83   292.22
eigval :      297.97   312.98   321.24   331.78   351.73   366.98
eigval :      371.43   380.27   406.38   428.84   429.69   440.73
eigval :      460.66   465.28   466.52   471.60   472.76   476.73
eigval :      477.89   479.00   482.94   496.13   534.72   538.62
eigval :      543.50   555.24   568.60   604.23   668.60   674.18
eigval :      675.23   676.67   731.76   753.03   770.23   784.06
eigval :      900.89   932.20   958.43   965.17   969.08   978.89
eigval :     1001.44  1007.27  1012.00  1016.32  1018.81  1026.22
eigval :     1030.79  1038.00  1041.45  1085.44  1086.38  1088.30
eigval :     1093.37  1095.31  1114.23  1134.14  1181.70  1228.95
eigval :     1239.16  1255.01  1286.70  1319.58  1346.00  1350.63
eigval :     1358.37  1361.21  1373.95  1384.13  1401.23  1408.54
eigval :     1418.28  1434.95  1441.05  1442.50  1446.57  1449.19
eigval :     1454.08  1455.51  1459.14  1464.59  1474.99  1478.86
eigval :     1482.42  1497.73  1499.94  1510.81  1516.75  1660.45
eigval :     1693.69  1714.58  1723.14  2900.38  2953.39  2967.68
eigval :     3001.14  3031.54  3040.85  3044.68  3045.47  3050.66
eigval :     3056.82  3058.27  3066.46  3077.90  3155.57  3206.72
eigval :     3249.62  3418.01  3490.62  3495.14  3500.15  3500.87
eigval :     3520.34  3529.78  3537.91  3541.48  3556.05  3560.10
eigval :     3566.47  3567.06  3573.18
 reduced masses (amu)
   1: 12.65   2: 12.65   3: 12.49   4: 12.73   5: 12.57   6: 12.62   7: 12.39   8: 12.00
   9: 12.18  10: 12.46  11: 12.45  12: 12.70  13: 12.44  14: 12.47  15: 13.10  16: 13.22
  17: 13.12  18: 12.49  19: 11.75  20: 12.58  21: 13.22  22: 12.10  23: 12.23  24: 12.13
  25: 13.07  26: 12.01  27: 12.34  28: 11.51  29: 12.38  30: 10.26  31: 12.95  32: 12.88
  33:  2.34  34:  2.34  35:  4.22  36:  3.78  37:  8.16  38:  3.08  39:  5.01  40:  3.51
  41:  3.26  42:  3.21  43:  3.27  44:  5.88  45:  3.47  46:  4.22  47:  7.19  48:  3.10
  49:  8.23  50:  7.92  51:  7.32  52:  5.55  53:  3.92  54:  4.47  55:  2.81  56:  4.06
  57:  5.37  58:  8.76  59:  8.38  60: 11.02  61: 11.23  62: 11.67  63: 11.90  64:  1.90
  65: 11.09  66: 11.57  67: 11.96  68: 11.81  69:  2.34  70:  2.17  71:  9.34  72:  2.20
  73:  8.01  74:  7.49  75:  5.14  76:  4.91  77:  5.09  78:  4.77  79:  7.77  80:  9.16
  81:  9.56  82:  8.15  83:  9.43  84:  9.49  85:  6.75  86:  5.21  87:  3.04  88:  8.81
  89:  8.84  90:  7.71  91:  8.11  92:  7.84  93:  4.36  94:  6.76  95:  3.54  96:  3.85
  97:  5.95  98:  5.28  99:  7.78 100:  6.29 101:  4.15 102:  5.77 103:  5.55 104:  5.39
 105:  4.32 106:  4.64 107:  2.50 108:  2.58 109:  2.07 110:  2.34 111:  1.72 112:  1.88
 113:  3.15 114:  2.76 115:  2.48 116:  3.01 117:  2.75 118:  1.89 119:  1.67 120:  1.66
 121:  1.74 122:  7.82 123:  8.21 124:  9.09 125:  9.53 126: 12.34 127: 12.66 128: 12.77
 129: 12.75 130:  1.80 131:  1.72 132:  1.69 133:  1.76 134:  1.74 135:  1.62 136:  1.81
 137:  1.57 138:  1.72 139:  1.85 140:  1.80 141:  1.71 142:  1.79 143:  1.82 144:  1.79
 145:  1.77 146:  1.62 147:  1.46 148:  1.45 149:  1.45 150:  1.45 151:  1.91 152:  1.90
 153:  1.90 154:  2.03 155:  2.17 156:  2.18 157:  2.18 158:  2.18 159:  1.88
 IR intensities (km·mol⁻¹)
   1:  2.51   2:  1.23   3:  0.07   4:  2.74   5:  0.46   6:  1.65   7:  1.05   8:  0.28
   9:  1.68  10:  1.76  11:  3.53  12:  1.27  13:  3.08  14:  2.93  15:  5.45  16:  4.84
  17:  3.53  18:  0.73  19:  0.12  20:  4.89  21:  9.47  22:  7.65  23:  2.14  24: 18.61
  25: 15.01  26: 16.54  27:  2.34  28: 18.72  29:  4.94  30:  3.46  31: 25.13  32: 71.77
  33:113.46  34:142.86  35:  9.86  36: 57.13  37:  3.60  38:265.80  39: 32.57  40: 69.25
  41: 28.27  42:311.05  43:122.47  44:  3.01  45:117.47  46:162.09  47: 48.28  48:410.02
  49:  4.61  50:  2.72  51: 15.97  52: 37.33  53: 12.78  54:  6.91  55:  0.18  56: 15.25
  57: 16.71  58: 49.10  59:  7.41  60: 17.65  61: 13.38  62: 10.24  63: 48.08  64:135.36
  65:  9.20  66: 37.95  67: 33.52  68: 47.93  69:  2.43  70:108.36  71:  7.15  72:553.05
  73:  2.83  74: 13.89  75:  2.06  76:  5.73  77:  0.64  78:  4.38  79: 17.46  80:  0.13
  81:  3.81  82: 25.45  83:  2.70  84:  0.07  85: 10.20  86: 10.87  87:  1.81  88:  0.26
  89:  5.14  90: 62.15  91:  1.29  92:  2.42  93:  0.79  94: 24.55  95:  4.64  96: 41.22
  97: 68.56  98:  7.30  99: 16.78 100:  2.12 101: 27.17 102:246.35 103:109.09 104: 91.67
 105: 54.25 106:  1.69 107: 24.67 108: 14.91 109:  2.51 110:  1.72 111:  0.62 112:  6.99
 113:  6.30 114:  1.34 115: 11.76 116:  7.49 117: 11.59 118: 12.60 119: 10.25 120: 20.90
 121: 44.54 122:315.37 123:640.46 124:489.51 125:423.59 126:219.88 127:827.01 128:******
 129:106.04 130: 28.26 131: 63.81 132: 19.22 133: 13.67 134: 11.20 135: 25.19 136:  1.19
 137: 17.38 138:  5.30 139: 21.58 140: 14.89 141: 25.35 142:  2.48 143: 38.30 144:******
 145:415.64 146:247.22 147: 32.42 148: 14.89 149: 20.77 150: 20.05 151: 12.20 152: 13.92
 153: 15.44 154: 24.66 155: 20.17 156:  9.47 157: 12.91 158: 13.87 159: 26.87
 Raman intensities (amu)
Molecule has no symmetry elements
It seems to be the C1 point group
   1:  0.00   2:  0.00   3:  0.00   4:  0.00   5:  0.00   6:  0.00   7:  0.00   8:  0.00
   9:  0.00  10:  0.00  11:  0.00  12:  0.00  13:  0.00  14:  0.00  15:  0.00  16:  0.00
  17:  0.00  18:  0.00  19:  0.00  20:  0.00  21:  0.00  22:  0.00  23:  0.00  24:  0.00
  25:  0.00  26:  0.00  27:  0.00  28:  0.00  29:  0.00  30:  0.00  31:  0.00  32:  0.00
  33:  0.00  34:  0.00  35:  0.00  36:  0.00  37:  0.00  38:  0.00  39:  0.00  40:  0.00
  41:  0.00  42:  0.00  43:  0.00  44:  0.00  45:  0.00  46:  0.00  47:  0.00  48:  0.00
  49:  0.00  50:  0.00  51:  0.00  52:  0.00  53:  0.00  54:  0.00  55:  0.00  56:  0.00
  57:  0.00  58:  0.00  59:  0.00  60:  0.00  61:  0.00  62:  0.00  63:  0.00  64:  0.00
  65:  0.00  66:  0.00  67:  0.00  68:  0.00  69:  0.00  70:  0.00  71:  0.00  72:  0.00
  73:  0.00  74:  0.00  75:  0.00  76:  0.00  77:  0.00  78:  0.00  79:  0.00  80:  0.00
  81:  0.00  82:  0.00  83:  0.00  84:  0.00  85:  0.00  86:  0.00  87:  0.00  88:  0.00
  89:  0.00  90:  0.00  91:  0.00  92:  0.00  93:  0.00  94:  0.00  95:  0.00  96:  0.00
  97:  0.00  98:  0.00  99:  0.00 100:  0.00 101:  0.00 102:  0.00 103:  0.00 104:  0.00
 105:  0.00 106:  0.00 107:  0.00 108:  0.00 109:  0.00 110:  0.00 111:  0.00 112:  0.00
 113:  0.00 114:  0.00 115:  0.00 116:  0.00 117:  0.00 118:  0.00 119:  0.00 120:  0.00
 121:  0.00 122:  0.00 123:  0.00 124:  0.00 125:  0.00 126:  0.00 127:  0.00 128:  0.00
 129:  0.00 130:  0.00 131:  0.00 132:  0.00 133:  0.00 134:  0.00 135:  0.00 136:  0.00
 137:  0.00 138:  0.00 139:  0.00 140:  0.00 141:  0.00 142:  0.00 143:  0.00 144:  0.00
 145:  0.00 146:  0.00 147:  0.00 148:  0.00 149:  0.00 150:  0.00 151:  0.00 152:  0.00
 153:  0.00 154:  0.00 155:  0.00 156:  0.00 157:  0.00 158:  0.00 159:  0.00
 output can be read by thermo (or use thermo option).
 writing <g98.out> molden fake output.
 recommended (thermochemical) frequency scaling factor: 1.0
           -------------------------------------------------
          |             Thermodynamic Functions             |
           -------------------------------------------------

c1  symmetry found (for desy threshold:  0.10E+00) used in thermo

          ...................................................
          :                      SETUP                      :
          :.................................................:
          :  # frequencies                         153      :
          :  # imaginary freq.                       0      :
          :  linear?                             false      :
          :  only rotor calc.                    false      :
          :  symmetry                               c1      :
          :  rotational number                       1      :
          :  scaling factor                  1.0000000      :
          :  rotor cutoff                   50.0000000 cm⁻¹ :
          :  imag. cutoff                  -20.0000000 cm⁻¹ :
          :.................................................:

    mode    ω/cm⁻¹     T·S(HO)/kcal·mol⁻¹    T·S(FR)/kcal·mol⁻¹   T·S(vib)
   ------------------------------------------------------------------------
       1     15.76    -2.11906 (  0.98%)    -1.39848 ( 99.02%)    -1.40553
       2     24.69    -1.85324 (  5.61%)    -1.26550 ( 94.39%)    -1.29850
       3     26.90    -1.80251 (  7.73%)    -1.24011 ( 92.27%)    -1.28360
       4     32.90    -1.68353 ( 15.78%)    -1.18053 ( 84.22%)    -1.25991
       5     39.10    -1.58144 ( 27.22%)    -1.12936 ( 72.78%)    -1.25240
       6     41.72    -1.54312 ( 32.65%)    -1.11014 ( 67.35%)    -1.25151
       7     46.23    -1.48253 ( 42.23%)    -1.07974 ( 57.77%)    -1.24982
       8     46.97    -1.47320 ( 43.78%)    -1.07505 ( 56.22%)    -1.24935
       9     54.54    -1.38509 ( 58.60%)    -1.03078 ( 41.40%)    -1.23842
      10     63.47    -1.29583 ( 72.20%)    -0.98586 ( 27.80%)    -1.20965
      11     68.18    -1.25382 ( 77.56%)    -0.96467 ( 22.44%)    -1.18894
      12     79.88    -1.16096 ( 86.69%)    -0.91775 ( 13.31%)    -1.12859
      13     89.39    -1.09519 ( 91.09%)    -0.88441 (  8.91%)    -1.07640
      14     94.39    -1.06347 ( 92.70%)    -0.86829 (  7.30%)    -1.04922
      15     98.28    -1.04000 ( 93.72%)    -0.85634 (  6.28%)    -1.02847
      16     99.53    -1.03262 ( 94.01%)    -0.85258 (  5.99%)    -1.02185
      17    104.18    -1.00613 ( 94.96%)    -0.83907 (  5.04%)    -0.99771
      18    108.82    -0.98089 ( 95.73%)    -0.82617 (  4.27%)    -0.97428
      19    124.76    -0.90197 ( 97.49%)    -0.78566 (  2.51%)    -0.89905
      20    127.00    -0.89177 ( 97.65%)    -0.78040 (  2.35%)    -0.88916
      21    130.15    -0.87769 ( 97.87%)    -0.77313 (  2.13%)    -0.87547
      22    136.36    -0.85102 ( 98.22%)    -0.75933 (  1.78%)    -0.84939
      23    158.35    -0.76605 ( 99.02%)    -0.71503 (  0.98%)    -0.76555
      24    171.38    -0.72162 ( 99.28%)    -0.69162 (  0.72%)    -0.72141
      25    180.09    -0.69393 ( 99.41%)    -0.67692 (  0.59%)    -0.69383
      26    213.69    -0.59986 ( 99.70%)    -0.62626 (  0.30%)    -0.59994
      27    238.63    -0.54057 ( 99.81%)    -0.59355 (  0.19%)    -0.54067
      28    250.12    -0.51571 ( 99.84%)    -0.57961 (  0.16%)    -0.51581
      29    278.83    -0.45941 ( 99.90%)    -0.54743 (  0.10%)    -0.45950
      30    292.22    -0.43563 ( 99.91%)    -0.53354 (  0.09%)    -0.43571
      31    297.97    -0.42584 ( 99.92%)    -0.52776 (  0.08%)    -0.42592
   ------------------------------------------------------------------------

   temp. (K)  partition function   enthalpy   heat capacity  entropy
                                   cal/mol     cal/K/mol   cal/K/mol   J/K/mol
 298.15  VIB  0.161E+17            19480.732    105.776    127.100
         ROT  0.141E+08              888.752      2.981     35.693
         INT  0.227E+24            20369.484    108.757    162.793
         TR   0.618E+28             1481.254      4.968     43.384
         TOT                       21850.7383   113.7248   206.1774   862.6462

       T/K    H(0)-H(T)+PV         H(T)/Eh          T*S/Eh         G(T)/Eh
   ------------------------------------------------------------------------
    298.15    0.348214E-01    0.474001E+00    0.979615E-01    0.376039E+00
   ------------------------------------------------------------------------

         :::::::::::::::::::::::::::::::::::::::::::::::::::::
         ::                  THERMODYNAMIC                  ::
         :::::::::::::::::::::::::::::::::::::::::::::::::::::
         :: total free energy         -80.556285939882 Eh   ::
         ::.................................................::
         :: total energy              -80.932325249572 Eh   ::
         :: zero point energy           0.439179470158 Eh   ::
         :: G(RRHO) w/o ZPVE           -0.063140160468 Eh   ::
         :: G(RRHO) contrib.            0.376039309690 Eh   ::
         :::::::::::::::::::::::::::::::::::::::::::::::::::::

           -------------------------------------------------
          | TOTAL ENERGY              -80.932325249572 Eh   |
          | TOTAL ENTHALPY            -80.458324411501 Eh   |
          | TOTAL FREE ENERGY         -80.556285939882 Eh   |
          | GRADIENT NORM               0.000024353762 Eh/α |
          | HOMO-LUMO GAP               5.771910185615 eV   |
           -------------------------------------------------

------------------------------------------------------------------------
 * finished run on 2024/01/10 at 15:41:05.981     
------------------------------------------------------------------------
 total:
 * wall-time:     0 d,  0 h,  0 min, 14.500 sec
 *  cpu-time:     0 d,  0 h,  0 min, 14.424 sec
 * ratio c/w:     0.995 speedup
 SCF:
 * wall-time:     0 d,  0 h,  0 min,  0.098 sec
 *  cpu-time:     0 d,  0 h,  0 min,  0.058 sec
 * ratio c/w:     0.590 speedup
 analytical hessian:
 * wall-time:     0 d,  0 h,  0 min, 14.376 sec
 *  cpu-time:     0 d,  0 h,  0 min, 14.340 sec
 * ratio c/w:     0.997 speedup

