 Entering Gaussian System
 *********************************************
 Gaussian 98:
 frequency output generated by the xtb code
 *********************************************
                         Standard orientation:
 --------------------------------------------------------------------
  Center     Atomic     Atomic              Coordinates (Angstroms)
  Number     Number      Type              X           Y           Z
 --------------------------------------------------------------------
    1          8             0       -0.892505    0.917019   -2.624991
    2          6             0        0.447986    0.599743   -2.353953
    3          1             0        0.890134    0.272925   -3.297661
    4          1             0        0.991854    1.494522   -2.028441
    5          6             0        0.620678   -0.448995   -1.248575
    6          1             0       -0.065592   -0.202966   -0.438894
    7          1             0        1.647124   -0.413616   -0.870809
    8          7             0        0.350980   -1.864634   -1.618984
    9          6             0       -1.051212   -2.029863   -2.033861
   10          1             0       -1.699088   -1.856566   -1.174528
   11          1             0       -1.214584   -3.041395   -2.399943
   12          1             0       -1.299010   -1.313992   -2.814466
   13          6             0        0.597750   -2.684503   -0.418685
   14          1             0       -0.105012   -2.399809    0.362402
   15          1             0        1.617005   -2.514173   -0.074257
   16          1             0        0.457989   -3.737212   -0.653451
   17          6             0        1.271814   -2.307381   -2.675884
   18          1             0        2.293342   -2.098265   -2.360892
   19          1             0        1.062526   -1.795131   -3.611485
   20          1             0        1.161207   -3.377962   -2.837946
   21          1             0       -1.220122    1.500893   -1.905614
   22          6             0        3.921410   -0.823615    0.877298
   23          8             0        3.294162   -1.217767   -0.102170
   24          7             0        5.243053   -1.100876    1.022636
   25          1             0        5.724283   -1.530243    0.252645
   26          1             0        5.796025   -0.680808    1.747276
   27          7             0        3.360895   -0.087008    1.859255
   28          1             0        3.874325    0.085393    2.705415
   29          1             0        2.348027    0.006099    1.919311
   30          6             0       -2.231083    3.758720   -1.617077
   31          8             0       -1.661549    2.915011   -0.919738
   32          7             0       -2.739246    4.888456   -1.082489
   33          1             0       -2.699661    5.018989   -0.087391
   34          1             0       -3.240175    5.562491   -1.631593
   35          7             0       -2.361152    3.605937   -2.948135
   36          1             0       -2.825087    4.285004   -3.522680
   37          1             0       -1.984772    2.776872   -3.379564
   38          6             0       -1.871207   -2.275653    2.367030
   39          8             0       -1.972953   -1.853296    1.210419
   40          7             0       -2.701566   -3.237537    2.834357
   41          1             0       -3.460605   -3.540603    2.251172
   42          1             0       -2.679910   -3.544037    3.789357
   43          7             0       -0.904242   -1.846007    3.192265
   44          1             0       -0.865087   -2.141625    4.150205
   45          1             0       -0.303693   -1.072014    2.892050
   46          6             0       -0.108214    1.148571    1.572457
   47          8             0        0.564380    0.329920    2.211248
   48          7             0       -1.361597    0.890537    1.160889
   49          1             0       -1.724283   -0.058780    1.230068
   50          1             0       -1.829738    1.556608    0.568312
   51          7             0        0.377757    2.362056    1.232617
   52          1             0       -0.156974    2.961059    0.626272
   53          1             0        1.294403    2.635644    1.534530
 --------------------------------------------------------------------
     1 basis functions        1 primitive gaussians
     1 alpha electrons        1 beta electrons

 Harmonic frequencies (cm**-1), IR intensities (km*mol⁻¹),
 Raman scattering activities (A**4/amu), Raman depolarization ratios,
 reduced masses (AMU), force constants (mDyne/A) and normal coordinates:
                      1                      2                      3
                        a                      a                      a 
 Frequencies --     7.0424                16.4198                23.7607
 Red. masses --    12.0460                12.0252                12.3151
 Frc consts  --     0.0000                 0.0000                 0.0000
 IR Inten    --     0.6741                 2.0268                 0.1459
 Raman Activ --     0.0000                 0.0000                 0.0000
 Depolar     --     0.0000                 0.0000                 0.0000
 Atom AN      X      Y      Z        X      Y      Z        X      Y      Z
   1   8    -0.13  -0.09  -0.10    -0.11  -0.05   0.12    -0.14  -0.12   0.32
   2   6    -0.09  -0.08  -0.21    -0.09  -0.00   0.13    -0.10  -0.06   0.25
   3   1    -0.06  -0.06  -0.06    -0.01   0.02   0.04    -0.03   0.01   0.07
   4   1    -0.01  -0.02  -0.11    -0.04  -0.00   0.06    -0.04  -0.02   0.09
   5   6    -0.00   0.04  -0.11    -0.08  -0.07   0.06    -0.05  -0.13   0.17
   6   1     0.01   0.03  -0.03    -0.02  -0.04   0.02    -0.02  -0.07   0.06
   7   1     0.01   0.03  -0.05    -0.02  -0.02   0.02    -0.01  -0.03   0.05
   8   7    -0.00  -0.01   0.06    -0.05  -0.05  -0.03     0.03  -0.12   0.08
   9   6    -0.01  -0.07   0.11    -0.06  -0.06   0.01     0.03  -0.16   0.10
  10   1     0.00  -0.00   0.03    -0.01  -0.04   0.01     0.01  -0.06   0.04
  11   1     0.00  -0.03   0.06    -0.01  -0.01  -0.01     0.02  -0.04   0.02
  12   1    -0.01  -0.04   0.02    -0.03  -0.00   0.02    -0.01  -0.04   0.04
  13   6     0.04   0.13   0.14     0.01  -0.13  -0.10     0.11  -0.18   0.01
  14   1     0.01   0.05   0.04     0.01  -0.06  -0.01     0.04  -0.07   0.02
  15   1     0.01   0.05   0.03     0.01  -0.04  -0.04     0.03  -0.05  -0.01
  16   1     0.02   0.03   0.07     0.01  -0.03  -0.05     0.04  -0.05  -0.01
  17   6    -0.02  -0.11   0.09    -0.08   0.05  -0.10     0.03   0.01   0.02
  18   1    -0.00  -0.02   0.01    -0.02   0.02  -0.04     0.01   0.02   0.00
  19   1    -0.01  -0.06   0.01    -0.04   0.03  -0.02    -0.01   0.02   0.02
  20   1    -0.01  -0.04   0.06    -0.01   0.02  -0.04     0.03   0.00  -0.01
  21   1    -0.01  -0.02  -0.02    -0.04  -0.01   0.03    -0.03  -0.02   0.07
  22   6     0.02   0.20  -0.07    -0.06   0.02   0.00     0.06   0.05  -0.06
  23   8     0.03   0.20  -0.07    -0.06  -0.01   0.01     0.07  -0.04  -0.03
  24   7     0.06   0.35  -0.13    -0.07   0.00   0.04     0.08   0.14  -0.08
  25   1     0.02   0.11  -0.04    -0.02  -0.01   0.02     0.02   0.03  -0.02
  26   1     0.01   0.10  -0.03    -0.02   0.01   0.01     0.02   0.05  -0.03
  27   7    -0.02   0.14  -0.03    -0.07   0.06  -0.03     0.04   0.08  -0.10
  28   1    -0.00   0.04  -0.01    -0.02   0.02  -0.01     0.01   0.04  -0.03
  29   1    -0.01   0.00   0.00    -0.02   0.02  -0.01     0.01   0.01  -0.02
  30   6     0.18   0.02   0.03     0.14   0.11  -0.07    -0.01   0.02   0.02
  31   8     0.18  -0.04  -0.02    -0.08   0.05   0.02    -0.04   0.10   0.13
  32   7     0.37   0.08   0.09     0.30   0.24  -0.18     0.04   0.12  -0.12
  33   1     0.13   0.02   0.02     0.05   0.07  -0.05     0.01   0.07  -0.04
  34   1     0.11   0.04   0.04     0.12   0.07  -0.07     0.01   0.01  -0.05
  35   7     0.06   0.04   0.05     0.28   0.09  -0.08    -0.05  -0.15   0.04
  36   1     0.02   0.02   0.03     0.12   0.04  -0.04    -0.01  -0.05  -0.01
  37   1    -0.02   0.00   0.00     0.05   0.00  -0.00    -0.02  -0.06   0.04
  38   6    -0.12  -0.07   0.01     0.16  -0.11   0.04    -0.07   0.06  -0.20
  39   8    -0.14  -0.07   0.02     0.12  -0.14   0.04    -0.00   0.13  -0.22
  40   7    -0.17  -0.04   0.02     0.29  -0.20   0.06    -0.14   0.09  -0.29
  41   1    -0.05  -0.01   0.01     0.08  -0.07   0.02    -0.04   0.05  -0.09
  42   1    -0.04  -0.02   0.00     0.09  -0.05   0.02    -0.06   0.02  -0.08
  43   7    -0.10  -0.12   0.00     0.15  -0.02   0.01    -0.07  -0.03  -0.17
  44   1    -0.03  -0.03   0.00     0.06  -0.00   0.00    -0.04  -0.02  -0.05
  45   1    -0.02  -0.04   0.00     0.02   0.01  -0.00    -0.01  -0.01  -0.03
  46   6    -0.03  -0.12   0.01    -0.14   0.05   0.01     0.04   0.04   0.02
  47   8    -0.05  -0.17  -0.01    -0.07   0.11  -0.02     0.03  -0.04  -0.05
  48   7    -0.01  -0.12  -0.04    -0.12  -0.07  -0.02    -0.03   0.18   0.16
  49   1    -0.01  -0.03  -0.01    -0.01  -0.03   0.00    -0.01   0.05   0.01
  50   1    -0.00  -0.02  -0.00    -0.06  -0.02   0.01     0.01   0.06   0.04
  51   7    -0.05  -0.09   0.13    -0.30   0.13   0.09     0.14  -0.01  -0.01
  52   1     0.01  -0.04   0.00    -0.09   0.01   0.01     0.03   0.03   0.03
  53   1     0.00  -0.05   0.00    -0.08   0.05   0.01     0.04  -0.01   0.00
                      4                      5                      6
                        a                      a                      a 
 Frequencies --    29.8160                32.7732                36.7180
 Red. masses --    11.9376                 9.7066                13.0464
 Frc consts  --     0.0000                 0.0000                 0.0000
 IR Inten    --     0.7254                 1.6289                 0.0934
 Raman Activ --     0.0000                 0.0000                 0.0000
 Depolar     --     0.0000                 0.0000                 0.0000
 Atom AN      X      Y      Z        X      Y      Z        X      Y      Z
   1   8     0.10   0.03  -0.04     0.11   0.03  -0.02    -0.16  -0.08  -0.09
   2   6     0.06   0.03   0.11     0.09  -0.01  -0.06    -0.13  -0.00  -0.04
   3   1     0.05   0.02   0.04     0.02  -0.01  -0.02    -0.02   0.00  -0.01
   4   1     0.00   0.01   0.06     0.04  -0.01  -0.03    -0.05   0.01  -0.01
   5   6    -0.05  -0.01   0.08     0.11   0.01  -0.04    -0.12   0.01  -0.03
   6   1    -0.03  -0.01   0.01     0.07   0.04   0.01    -0.04  -0.00  -0.01
   7   1    -0.02  -0.01   0.04     0.05  -0.02  -0.05    -0.04   0.02   0.00
   8   7    -0.06   0.01   0.02    -0.12   0.03   0.06    -0.04   0.00  -0.03
   9   6    -0.06   0.04  -0.00    -0.23   0.14   0.41    -0.03  -0.07  -0.03
  10   1    -0.02   0.00  -0.00    -0.00   0.04   0.17    -0.01  -0.02  -0.01
  11   1    -0.02   0.02  -0.01    -0.11   0.05   0.12     0.01  -0.02  -0.01
  12   1    -0.01   0.02   0.01    -0.11   0.05   0.14    -0.02  -0.03  -0.01
  13   6    -0.08  -0.04  -0.01     0.12   0.03   0.01    -0.00   0.02  -0.03
  14   1    -0.02  -0.01   0.00     0.09   0.03   0.05    -0.00  -0.00  -0.01
  15   1    -0.02  -0.02   0.00     0.06  -0.01  -0.06    -0.00   0.02  -0.01
  16   1    -0.03  -0.01  -0.01    -0.00   0.01   0.02     0.01   0.00  -0.01
  17   6    -0.05   0.04   0.02    -0.44  -0.08  -0.18    -0.01   0.05  -0.03
  18   1    -0.02   0.01   0.01    -0.10  -0.04  -0.14    -0.01   0.03  -0.01
  19   1    -0.02   0.02   0.01    -0.20  -0.04  -0.04    -0.01   0.01  -0.01
  20   1    -0.01   0.01  -0.00    -0.16  -0.02  -0.03     0.01   0.01  -0.00
  21   1    -0.01  -0.02  -0.01     0.04   0.01  -0.00    -0.05  -0.02  -0.03
  22   6    -0.00   0.08  -0.09     0.05   0.02   0.08    -0.07   0.05   0.10
  23   8    -0.05  -0.03  -0.02     0.10   0.03   0.06    -0.12   0.18   0.09
  24   7     0.04   0.22  -0.19     0.05   0.03   0.14    -0.08  -0.02   0.06
  25   1     0.00   0.05  -0.05     0.02   0.02   0.04    -0.03   0.01   0.00
  26   1     0.01   0.08  -0.06     0.00   0.01   0.04    -0.01  -0.02   0.02
  27   7     0.01   0.10  -0.10     0.00   0.01   0.07    -0.02  -0.01   0.19
  28   1     0.02   0.05  -0.04    -0.01  -0.00   0.03     0.00  -0.03   0.05
  29   1     0.00   0.00  -0.01     0.00  -0.00   0.01    -0.01   0.01   0.06
  30   6     0.04  -0.05  -0.03     0.00  -0.03  -0.04     0.01   0.00  -0.01
  31   8    -0.14  -0.14   0.03     0.09   0.02  -0.04    -0.05  -0.08  -0.06
  32   7    -0.25  -0.20  -0.00    -0.11  -0.08  -0.05     0.16   0.05   0.04
  33   1    -0.16  -0.10   0.01    -0.02  -0.02  -0.01     0.04  -0.00   0.01
  34   1    -0.02  -0.03  -0.02    -0.04  -0.03  -0.02     0.04   0.02   0.02
  35   7     0.59   0.20  -0.11     0.01  -0.06  -0.04    -0.06   0.05  -0.01
  36   1     0.17   0.06  -0.04    -0.02  -0.03  -0.01     0.00   0.04   0.01
  37   1     0.19   0.07  -0.03     0.02  -0.01  -0.01    -0.04   0.01  -0.01
  38   6    -0.05  -0.01   0.04     0.03  -0.04  -0.09     0.04  -0.01  -0.01
  39   8    -0.04   0.01   0.05    -0.03   0.07  -0.06     0.09   0.07   0.02
  40   7    -0.07  -0.01   0.02     0.10  -0.14  -0.17     0.25  -0.29  -0.21
  41   1    -0.02   0.00   0.00     0.02  -0.02  -0.04     0.07  -0.07  -0.07
  42   1    -0.02  -0.01   0.01     0.03  -0.05  -0.05     0.02  -0.05  -0.04
  43   7    -0.06  -0.03   0.06     0.04  -0.08  -0.09    -0.18   0.16   0.15
  44   1    -0.02  -0.02   0.02     0.02  -0.04  -0.03    -0.03  -0.01   0.02
  45   1    -0.01  -0.01   0.02     0.00  -0.01  -0.01    -0.04   0.04   0.05
  46   6     0.02  -0.06   0.04     0.01   0.02   0.01     0.12  -0.01  -0.00
  47   8     0.01  -0.07   0.07    -0.02   0.00   0.02     0.02   0.04   0.18
  48   7    -0.03   0.02   0.15     0.03   0.04  -0.04     0.06   0.10   0.12
  49   1    -0.01   0.01   0.04     0.00   0.01  -0.01     0.00   0.03   0.04
  50   1     0.00  -0.00   0.03     0.01   0.01  -0.01     0.04   0.01  -0.01
  51   7     0.12  -0.14  -0.11     0.04   0.02   0.05     0.34  -0.20  -0.37
  52   1     0.02  -0.02   0.01     0.02   0.01   0.01     0.08  -0.03  -0.06
  53   1     0.02  -0.03  -0.01     0.01  -0.00   0.02     0.07  -0.04  -0.05
                      7                      8                      9
                        a                      a                      a 
 Frequencies --    41.0842                46.5835                48.9123
 Red. masses --    12.2064                12.5317                12.4882
 Frc consts  --     0.0000                 0.0000                 0.0000
 IR Inten    --     3.5005                 0.3011                 1.7493
 Raman Activ --     0.0000                 0.0000                 0.0000
 Depolar     --     0.0000                 0.0000                 0.0000
 Atom AN      X      Y      Z        X      Y      Z        X      Y      Z
   1   8    -0.30  -0.06   0.03     0.02  -0.07  -0.13    -0.14  -0.19  -0.09
   2   6    -0.21   0.05  -0.09    -0.01  -0.05   0.01    -0.11  -0.12  -0.08
   3   1    -0.08   0.01  -0.03     0.02  -0.01   0.01    -0.03  -0.03  -0.02
   4   1    -0.07   0.03  -0.06    -0.01  -0.01   0.02    -0.04  -0.03  -0.02
   5   6    -0.03   0.14  -0.04    -0.09  -0.04   0.02    -0.06  -0.11  -0.08
   6   1     0.00   0.04  -0.00    -0.05  -0.02  -0.01    -0.02  -0.04  -0.02
   7   1    -0.00   0.07  -0.03    -0.03  -0.01   0.03    -0.02  -0.02  -0.02
   8   7     0.06   0.10   0.07    -0.05  -0.05   0.00     0.01  -0.13  -0.08
   9   6     0.06  -0.04   0.13    -0.03  -0.06  -0.05    -0.01  -0.19  -0.01
  10   1     0.02  -0.01   0.04    -0.02  -0.02  -0.02     0.01  -0.07   0.01
  11   1     0.04  -0.02   0.06    -0.00  -0.02  -0.02     0.01  -0.06  -0.00
  12   1    -0.01  -0.03   0.03    -0.00  -0.02  -0.02    -0.02  -0.06   0.00
  13   6     0.15   0.19   0.11    -0.08  -0.05   0.01     0.11  -0.12  -0.10
  14   1     0.05   0.06   0.04    -0.03  -0.01  -0.00     0.04  -0.05  -0.02
  15   1     0.05   0.08   0.02    -0.03  -0.01   0.01     0.03  -0.02  -0.04
  16   1     0.06   0.05   0.05    -0.02  -0.01  -0.00     0.05  -0.04  -0.03
  17   6     0.06   0.09   0.07    -0.01  -0.03   0.03    -0.03  -0.06  -0.13
  18   1     0.02   0.05   0.01    -0.01   0.00   0.02    -0.01   0.00  -0.06
  19   1     0.00   0.01   0.01     0.00  -0.01   0.01    -0.04  -0.03  -0.04
  20   1     0.04   0.02   0.04     0.01  -0.01   0.01     0.01  -0.02  -0.03
  21   1    -0.07  -0.02   0.02    -0.01  -0.01  -0.04    -0.03  -0.04  -0.03
  22   6     0.04  -0.07   0.00    -0.07   0.07   0.12    -0.01   0.03   0.03
  23   8     0.10   0.28  -0.17    -0.14   0.02   0.20    -0.02   0.13   0.01
  24   7    -0.00  -0.27   0.06    -0.10  -0.03   0.15    -0.04  -0.08   0.06
  25   1     0.01  -0.02  -0.01    -0.04  -0.04   0.05    -0.01  -0.01   0.01
  26   1    -0.00  -0.13   0.05    -0.02   0.01   0.02    -0.01  -0.03   0.02
  27   7     0.03  -0.29   0.16    -0.00   0.27   0.04     0.02   0.03   0.06
  28   1    -0.01  -0.14   0.06     0.00   0.07   0.01     0.00  -0.01   0.02
  29   1     0.01  -0.04   0.01    -0.00   0.07   0.02     0.01   0.02   0.01
  30   6    -0.03  -0.01  -0.06     0.02  -0.01   0.04     0.04  -0.04   0.09
  31   8    -0.19  -0.03   0.03     0.03  -0.10  -0.08     0.10  -0.13  -0.03
  32   7    -0.09   0.00  -0.14     0.07  -0.05   0.18    -0.11  -0.20   0.28
  33   1    -0.07  -0.00  -0.04     0.03  -0.04   0.05    -0.02  -0.09   0.08
  34   1     0.01   0.01  -0.06     0.01   0.00   0.07    -0.01  -0.02   0.10
  35   7     0.23   0.03  -0.09    -0.04   0.13   0.03     0.16   0.20   0.06
  36   1     0.07   0.00  -0.04    -0.01   0.05   0.03     0.01   0.05   0.04
  37   1     0.05  -0.01  -0.01    -0.02   0.05  -0.02     0.04   0.07  -0.01
  38   6     0.02  -0.01  -0.02     0.09  -0.02  -0.08     0.02   0.12  -0.06
  39   8    -0.02   0.03  -0.01    -0.10   0.11  -0.03     0.20  -0.00  -0.14
  40   7    -0.09   0.12   0.03    -0.03   0.17   0.06    -0.05   0.18  -0.08
  41   1    -0.03   0.04   0.02    -0.04   0.07   0.04     0.01   0.03  -0.04
  42   1     0.01  -0.00  -0.00     0.07  -0.02  -0.01    -0.05   0.08  -0.01
  43   7     0.17  -0.17  -0.11     0.45  -0.35  -0.31    -0.11   0.23   0.02
  44   1     0.03  -0.03  -0.02     0.12  -0.08  -0.08    -0.06   0.08   0.01
  45   1     0.03  -0.04  -0.03     0.09  -0.06  -0.08    -0.01   0.05   0.00
  46   6     0.01  -0.01   0.01     0.02   0.03  -0.06     0.02   0.10   0.05
  47   8     0.03  -0.04  -0.05     0.03   0.03  -0.07     0.05   0.12   0.04
  48   7    -0.02   0.03   0.07    -0.05   0.10   0.09     0.08   0.02  -0.07
  49   1    -0.01   0.01   0.01    -0.02   0.03   0.02     0.04  -0.00  -0.03
  50   1    -0.01   0.01   0.03    -0.00   0.02   0.01     0.02   0.00  -0.02
  51   7     0.02  -0.02  -0.00     0.06  -0.02  -0.17    -0.11   0.23   0.28
  52   1    -0.01   0.01   0.03     0.02  -0.01  -0.05    -0.00   0.03   0.02
  53   1     0.00  -0.00   0.00     0.03  -0.02  -0.08    -0.01   0.04   0.04
                     10                     11                     12
                        a                      a                      a 
 Frequencies --    51.9574                55.7318                60.2876
 Red. masses --    12.0883                12.6795                12.6442
 Frc consts  --     0.0000                 0.0000                 0.0000
 IR Inten    --     2.3800                 2.7886                 3.2769
 Raman Activ --     0.0000                 0.0000                 0.0000
 Depolar     --     0.0000                 0.0000                 0.0000
 Atom AN      X      Y      Z        X      Y      Z        X      Y      Z
   1   8    -0.02  -0.03  -0.02     0.03   0.00  -0.16     0.21  -0.08  -0.22
   2   6    -0.02  -0.07  -0.07     0.01   0.05   0.01     0.14   0.07   0.14
   3   1    -0.03  -0.06  -0.02     0.04   0.03   0.02     0.12   0.05   0.07
   4   1     0.01  -0.02  -0.06    -0.02   0.02   0.03    -0.01   0.03   0.09
   5   6    -0.02   0.02   0.02    -0.10   0.04   0.02    -0.00   0.05   0.14
   6   1    -0.01   0.02  -0.00    -0.05   0.01  -0.01    -0.02   0.01   0.02
   7   1    -0.01   0.02   0.01    -0.04   0.01   0.03    -0.01   0.01   0.06
   8   7     0.01  -0.01   0.15    -0.08   0.06  -0.04     0.03   0.06   0.10
   9   6     0.05  -0.05   0.02    -0.05   0.06  -0.13     0.01   0.04   0.14
  10   1    -0.01   0.01  -0.02    -0.03   0.02  -0.05     0.01  -0.01   0.05
  11   1     0.02  -0.02   0.03    -0.01   0.02  -0.04     0.01   0.02   0.02
  12   1     0.04  -0.04  -0.02     0.00   0.02  -0.04    -0.01   0.03   0.06
  13   6    -0.10   0.10   0.23    -0.14   0.02  -0.05     0.10   0.01   0.04
  14   1    -0.04   0.05   0.04    -0.05   0.00  -0.02     0.05   0.00   0.03
  15   1    -0.04   0.03   0.08    -0.04   0.00   0.00     0.04  -0.01  -0.01
  16   1    -0.03   0.02   0.09    -0.04   0.01  -0.02     0.01   0.01   0.01
  17   6     0.13  -0.12   0.28    -0.01   0.09   0.00    -0.01   0.13   0.03
  18   1     0.03  -0.03   0.11    -0.01   0.03   0.02    -0.00   0.06  -0.01
  19   1     0.08  -0.05   0.06     0.01   0.03  -0.00    -0.04   0.03   0.01
  20   1     0.03  -0.04   0.10     0.01   0.03  -0.01     0.02   0.03   0.01
  21   1     0.01   0.01  -0.01    -0.02  -0.02  -0.04    -0.02  -0.04  -0.07
  22   6    -0.02  -0.07  -0.08    -0.06   0.01  -0.01     0.05  -0.04  -0.11
  23   8    -0.03  -0.13  -0.07    -0.17   0.05   0.04     0.13   0.03  -0.20
  24   7    -0.03  -0.10  -0.07    -0.03   0.08  -0.21     0.03  -0.10  -0.02
  25   1    -0.01  -0.04  -0.01    -0.03   0.04  -0.08     0.02  -0.02  -0.00
  26   1    -0.00  -0.02  -0.02     0.01   0.00  -0.06    -0.00  -0.04   0.01
  27   7    -0.00   0.00  -0.14     0.02  -0.11   0.12    -0.01  -0.09  -0.12
  28   1    -0.00   0.01  -0.04     0.03  -0.03   0.02    -0.02  -0.04  -0.02
  29   1    -0.00   0.01  -0.04     0.01  -0.02   0.05    -0.00  -0.02  -0.05
  30   6     0.03   0.03   0.01     0.03  -0.16  -0.10    -0.01  -0.12   0.01
  31   8     0.14   0.07  -0.04     0.01  -0.16  -0.08    -0.15  -0.34  -0.12
  32   7    -0.16  -0.08   0.08     0.15  -0.09  -0.18     0.31  -0.05   0.16
  33   1    -0.02  -0.02   0.02     0.03  -0.02  -0.05     0.07  -0.07   0.05
  34   1    -0.04  -0.02   0.03     0.02  -0.04  -0.05     0.07   0.00   0.08
  35   7     0.08   0.11  -0.00    -0.07  -0.27  -0.09    -0.15   0.03   0.01
  36   1    -0.03   0.01   0.01     0.01  -0.06  -0.03     0.03   0.07   0.02
  37   1     0.03   0.03  -0.01    -0.01  -0.07  -0.02    -0.05   0.02  -0.04
  38   6     0.01  -0.01  -0.08     0.03   0.01  -0.03    -0.02   0.04  -0.02
  39   8    -0.21   0.19  -0.00    -0.01   0.12   0.00     0.02   0.03  -0.03
  40   7     0.32  -0.35  -0.22     0.01   0.00  -0.09    -0.02   0.02  -0.04
  41   1     0.05  -0.06  -0.03    -0.01   0.02  -0.02     0.00   0.00  -0.02
  42   1     0.08  -0.08  -0.05     0.01  -0.03  -0.03    -0.02   0.01  -0.01
  43   7    -0.02   0.07  -0.10     0.10  -0.12  -0.05    -0.08   0.10   0.02
  44   1     0.06  -0.05  -0.05     0.03  -0.05  -0.02    -0.03   0.03   0.01
  45   1    -0.02   0.03  -0.02     0.02  -0.02   0.01    -0.02   0.02   0.00
  46   6    -0.03   0.10   0.00     0.07   0.07   0.24    -0.12   0.04  -0.00
  47   8    -0.01   0.06  -0.10     0.06   0.06   0.28    -0.05   0.03  -0.12
  48   7    -0.05   0.14   0.02     0.13   0.07   0.12    -0.23   0.10   0.25
  49   1    -0.02   0.04   0.01     0.03   0.02   0.02    -0.04   0.02   0.04
  50   1    -0.02   0.05   0.02     0.04   0.02   0.03    -0.06   0.01   0.04
  51   7    -0.08   0.17   0.15     0.05   0.14   0.44    -0.16   0.04  -0.07
  52   1    -0.00   0.03   0.01     0.04   0.03   0.09    -0.05  -0.01  -0.03
  53   1     0.01   0.01  -0.01     0.02   0.03   0.12    -0.02  -0.01  -0.08
                     13                     14                     15
                        a                      a                      a 
 Frequencies --    67.3723                85.8019                91.6982
 Red. masses --    12.4168                13.5924                13.0020
 Frc consts  --     0.0000                 0.0000                 0.0000
 IR Inten    --     0.5836                 8.9148                 2.3905
 Raman Activ --     0.0000                 0.0000                 0.0000
 Depolar     --     0.0000                 0.0000                 0.0000
 Atom AN      X      Y      Z        X      Y      Z        X      Y      Z
   1   8    -0.09   0.03   0.00     0.04   0.06   0.05    -0.07  -0.02   0.02
   2   6    -0.05   0.06  -0.07     0.03   0.00   0.05    -0.03  -0.02  -0.18
   3   1    -0.03   0.02  -0.03     0.01   0.00   0.01    -0.06  -0.03  -0.07
   4   1    -0.02   0.02  -0.03     0.01  -0.00   0.02     0.01  -0.00  -0.09
   5   6     0.02   0.08  -0.07    -0.04  -0.02   0.03     0.14   0.04  -0.14
   6   1     0.02   0.03  -0.01    -0.03  -0.01  -0.00     0.08   0.03  -0.01
   7   1     0.01   0.03  -0.03    -0.02  -0.01   0.03     0.05   0.01  -0.08
   8   7     0.00   0.09  -0.04    -0.01  -0.01  -0.04     0.08   0.03  -0.03
   9   6    -0.00   0.07  -0.02     0.00  -0.02  -0.05     0.06   0.03   0.02
  10   1     0.00   0.03  -0.01    -0.00  -0.03  -0.01     0.03   0.04   0.00
  11   1    -0.00   0.02   0.00     0.01   0.00  -0.03     0.01   0.00   0.04
  12   1    -0.00   0.01  -0.01    -0.00   0.01  -0.00     0.02  -0.01  -0.01
  13   6    -0.00   0.10  -0.02     0.01  -0.05  -0.07     0.07   0.09   0.02
  14   1    -0.00   0.03  -0.01     0.01  -0.02  -0.01     0.02   0.04   0.00
  15   1    -0.00   0.03  -0.00     0.01  -0.02  -0.03     0.02   0.02  -0.00
  16   1     0.00   0.03  -0.00    -0.00  -0.01  -0.03     0.01   0.02   0.02
  17   6    -0.01   0.05  -0.03     0.01   0.06  -0.05     0.04  -0.09  -0.01
  18   1    -0.00   0.01  -0.01     0.00   0.04  -0.02     0.02  -0.05  -0.00
  19   1     0.00   0.02  -0.01    -0.01   0.01  -0.01     0.03  -0.03  -0.01
  20   1    -0.01   0.02  -0.01     0.03   0.02  -0.01    -0.02  -0.02   0.01
  21   1    -0.02  -0.01   0.02     0.03   0.03   0.01     0.00  -0.01   0.02
  22   6     0.01   0.05  -0.02    -0.12   0.08  -0.08    -0.11  -0.10  -0.07
  23   8    -0.00  -0.01   0.02    -0.02   0.29  -0.25     0.05  -0.36  -0.10
  24   7    -0.10  -0.36   0.23    -0.17  -0.06   0.07    -0.09   0.12   0.10
  25   1    -0.04  -0.17   0.09    -0.03   0.02   0.01     0.01   0.01   0.06
  26   1    -0.01  -0.06   0.03    -0.06  -0.04   0.05    -0.06   0.07   0.03
  27   7     0.14   0.55  -0.30    -0.20  -0.01  -0.06    -0.31  -0.04  -0.23
  28   1     0.03   0.13  -0.07    -0.08  -0.05   0.01    -0.10   0.05  -0.06
  29   1     0.03   0.13  -0.07    -0.06   0.00  -0.03    -0.08  -0.03  -0.07
  30   6     0.01  -0.10   0.01     0.17  -0.04  -0.01    -0.00  -0.03   0.05
  31   8    -0.08  -0.11   0.11     0.54   0.19  -0.00    -0.08  -0.06   0.08
  32   7     0.07  -0.03  -0.09    -0.12  -0.18  -0.03     0.05   0.00   0.03
  33   1    -0.00   0.00  -0.03     0.05   0.01  -0.02    -0.01  -0.01   0.01
  34   1     0.03  -0.02  -0.04    -0.05  -0.07  -0.01     0.02   0.00   0.00
  35   7     0.07  -0.19   0.01     0.05  -0.20   0.02     0.05  -0.02   0.05
  36   1     0.04  -0.05  -0.01    -0.08  -0.11   0.01     0.03  -0.00   0.01
  37   1     0.02  -0.06   0.02     0.04  -0.04   0.01     0.00  -0.01   0.02
  38   6    -0.05  -0.01   0.01     0.05  -0.01   0.07     0.10   0.01  -0.01
  39   8    -0.00  -0.02   0.00     0.11  -0.00   0.08     0.24   0.06  -0.01
  40   7    -0.04  -0.05  -0.04    -0.00   0.02   0.05    -0.05   0.12  -0.10
  41   1    -0.01  -0.01  -0.02     0.01   0.00   0.00     0.02   0.02  -0.06
  42   1    -0.03   0.00  -0.00    -0.00  -0.00   0.01    -0.01  -0.02  -0.04
  43   7    -0.13   0.04   0.07     0.04  -0.05   0.11     0.11  -0.13   0.05
  44   1    -0.03  -0.00   0.01    -0.01  -0.00   0.03    -0.02  -0.01   0.02
  45   1    -0.01  -0.01   0.01     0.01  -0.01   0.03     0.01  -0.00   0.05
  46   6     0.06  -0.06   0.05    -0.07  -0.01   0.01    -0.07   0.08   0.13
  47   8     0.11  -0.12  -0.05    -0.11  -0.07  -0.05    -0.17   0.19   0.36
  48   7     0.04  -0.04   0.11    -0.18   0.13   0.20    -0.06   0.08   0.10
  49   1     0.01  -0.01   0.02    -0.05   0.03   0.04    -0.00   0.02   0.02
  50   1     0.00  -0.00   0.05    -0.03   0.03   0.04     0.01   0.00  -0.02
  51   7     0.03  -0.03   0.14     0.00  -0.06  -0.03     0.06  -0.03  -0.12
  52   1     0.00  -0.00   0.05     0.03  -0.03  -0.05    -0.00   0.01   0.01
  53   1     0.02  -0.02   0.02     0.04  -0.07  -0.09    -0.03   0.04   0.07
                     16                     17                     18
                        a                      a                      a 
 Frequencies --    93.1372               105.9532               112.5760
 Red. masses --    12.5042                13.4955                12.5423
 Frc consts  --     0.0000                 0.0000                 0.0000
 IR Inten    --     6.6916                 7.8940                 4.4721
 Raman Activ --     0.0000                 0.0000                 0.0000
 Depolar     --     0.0000                 0.0000                 0.0000
 Atom AN      X      Y      Z        X      Y      Z        X      Y      Z
   1   8    -0.07   0.07   0.09     0.24   0.14   0.05    -0.17  -0.10   0.06
   2   6    -0.03   0.00  -0.14     0.16  -0.09   0.01    -0.11   0.14   0.14
   3   1    -0.06  -0.01  -0.06     0.02  -0.05   0.00     0.01   0.08   0.05
   4   1     0.02  -0.00  -0.07     0.09  -0.05  -0.01    -0.09   0.06   0.07
   5   6     0.07   0.02  -0.14     0.03  -0.09   0.03    -0.03   0.12   0.11
   6   1     0.05   0.02  -0.02    -0.00  -0.01  -0.01    -0.01   0.02   0.03
   7   1     0.03  -0.00  -0.07     0.00  -0.04   0.02    -0.01   0.05   0.03
   8   7    -0.02   0.03  -0.10    -0.02  -0.09   0.05     0.03   0.14   0.06
   9   6    -0.02   0.10  -0.12    -0.01  -0.03   0.01     0.02   0.05   0.11
  10   1    -0.01   0.06  -0.04    -0.01  -0.01  -0.00     0.01  -0.01   0.04
  11   1    -0.02   0.02  -0.01    -0.01  -0.00  -0.01     0.02   0.02   0.02
  12   1     0.01   0.01  -0.06     0.01   0.00   0.00    -0.02   0.02   0.04
  13   6    -0.10   0.06  -0.06    -0.08  -0.06   0.07     0.11   0.07   0.00
  14   1    -0.04   0.02  -0.03    -0.02  -0.00   0.02     0.04  -0.00   0.01
  15   1    -0.03   0.02   0.00    -0.02  -0.03   0.02     0.03   0.03  -0.01
  16   1    -0.02   0.01  -0.01    -0.04  -0.02   0.03     0.05   0.02  -0.02
  17   6    -0.03  -0.07  -0.06    -0.00  -0.15   0.09     0.01   0.25  -0.01
  18   1    -0.00  -0.06  -0.01    -0.00  -0.04   0.03     0.00   0.08  -0.01
  19   1     0.02  -0.01  -0.02     0.01  -0.06   0.02    -0.02   0.09   0.01
  20   1    -0.04  -0.02  -0.02    -0.00  -0.05   0.04     0.02   0.07  -0.02
  21   1     0.01  -0.02   0.07     0.07   0.00   0.04    -0.06  -0.03   0.01
  22   6     0.02  -0.02   0.11    -0.09   0.12  -0.10    -0.02  -0.06  -0.02
  23   8    -0.02  -0.07   0.17    -0.05   0.41  -0.25    -0.09  -0.18   0.06
  24   7     0.08   0.16  -0.02    -0.15  -0.12  -0.02    -0.01  -0.02  -0.10
  25   1     0.02   0.05  -0.01    -0.04   0.01  -0.02    -0.02  -0.03  -0.02
  26   1     0.02   0.04  -0.00    -0.04  -0.07   0.02     0.01   0.00  -0.04
  27   7     0.02  -0.13   0.19    -0.08   0.02  -0.02     0.02   0.01  -0.05
  28   1     0.01  -0.01   0.04    -0.03  -0.05   0.01     0.02   0.03  -0.03
  29   1     0.01  -0.02   0.04    -0.02   0.04  -0.01     0.01   0.01   0.00
  30   6     0.07  -0.17   0.14    -0.02  -0.05   0.13     0.13  -0.11   0.03
  31   8    -0.02  -0.16   0.29    -0.19  -0.08   0.26     0.30  -0.06   0.00
  32   7     0.10  -0.11   0.03     0.08   0.05   0.01     0.03  -0.20   0.08
  33   1     0.00  -0.01   0.01    -0.04   0.01   0.01     0.05  -0.04   0.02
  34   1     0.04  -0.04  -0.02     0.01  -0.01  -0.01     0.01  -0.05   0.03
  35   7     0.18  -0.29   0.16     0.07  -0.14   0.14     0.07  -0.14   0.04
  36   1     0.07  -0.09   0.02     0.09  -0.02   0.01    -0.03  -0.06   0.02
  37   1     0.05  -0.09   0.07     0.04  -0.04   0.06     0.02  -0.04   0.01
  38   6     0.01   0.10  -0.04    -0.02   0.02  -0.07    -0.08  -0.01  -0.05
  39   8    -0.07   0.08  -0.06    -0.10  -0.02  -0.09    -0.22  -0.07  -0.07
  40   7     0.11   0.05   0.01     0.03   0.01  -0.01    -0.01  -0.01   0.08
  41   1     0.01   0.01   0.02     0.00  -0.01   0.01    -0.01  -0.03   0.04
  42   1     0.03   0.04   0.01     0.02   0.01  -0.00     0.04  -0.00   0.02
  43   7     0.01   0.21  -0.09     0.02   0.05  -0.14    -0.02   0.05  -0.15
  44   1     0.03   0.04  -0.03     0.01   0.02  -0.03     0.01   0.03  -0.04
  45   1     0.01   0.04  -0.05    -0.01   0.03  -0.03    -0.02   0.03  -0.04
  46   6    -0.06   0.03  -0.09     0.03   0.05  -0.02     0.00   0.03  -0.06
  47   8     0.05  -0.00  -0.28     0.00   0.20   0.19    -0.02   0.23   0.20
  48   7    -0.17   0.07   0.18     0.14  -0.11  -0.22     0.11  -0.18  -0.27
  49   1    -0.03   0.01   0.02     0.04  -0.03  -0.03     0.03  -0.04  -0.03
  50   1    -0.06   0.02   0.06     0.03  -0.04  -0.06     0.02  -0.06  -0.08
  51   7    -0.13   0.05  -0.12     0.02   0.02  -0.15    -0.06   0.01  -0.23
  52   1    -0.05   0.00  -0.03    -0.03   0.01  -0.00    -0.02  -0.03  -0.09
  53   1    -0.01  -0.01  -0.10    -0.05   0.08   0.06    -0.05   0.06  -0.01
                     19                     20                     21
                        a                      a                      a 
 Frequencies --   115.7708               128.1506               141.8076
 Red. masses --    12.8078                13.4371                11.6328
 Frc consts  --     0.0000                 0.0000                 0.0000
 IR Inten    --     2.6739                10.6027                26.6509
 Raman Activ --     0.0000                 0.0000                 0.0000
 Depolar     --     0.0000                 0.0000                 0.0000
 Atom AN      X      Y      Z        X      Y      Z        X      Y      Z
   1   8    -0.07  -0.13   0.05    -0.04  -0.06   0.05     0.13   0.06  -0.05
   2   6    -0.04   0.03   0.09    -0.02  -0.05  -0.06     0.11  -0.04  -0.12
   3   1     0.02   0.05   0.03    -0.02  -0.01  -0.03     0.01  -0.03  -0.04
   4   1    -0.05   0.02   0.06     0.00  -0.02  -0.02     0.05  -0.02  -0.05
   5   6     0.03  -0.04   0.01     0.06  -0.07  -0.09     0.10  -0.02  -0.09
   6   1     0.02  -0.03   0.02     0.04  -0.02  -0.00     0.02  -0.01  -0.03
   7   1     0.02  -0.02  -0.01     0.03  -0.03  -0.05     0.02   0.01  -0.01
   8   7     0.02  -0.01  -0.09     0.00  -0.06  -0.12     0.21  -0.05  -0.06
   9   6     0.02   0.01  -0.10     0.00  -0.00  -0.15     0.15  -0.17   0.13
  10   1     0.00   0.01  -0.03    -0.01   0.02  -0.05     0.07  -0.08   0.07
  11   1     0.00   0.00  -0.02    -0.01  -0.00  -0.03     0.06  -0.05   0.03
  12   1     0.01  -0.00  -0.03     0.02  -0.01  -0.05    -0.01  -0.04   0.06
  13   6     0.01  -0.08  -0.13    -0.05  -0.08  -0.12     0.40  -0.04  -0.09
  14   1     0.01  -0.03  -0.03    -0.03  -0.03  -0.04     0.14  -0.02   0.01
  15   1     0.01  -0.03  -0.04    -0.02  -0.02  -0.02     0.13   0.01  -0.06
  16   1     0.00  -0.02  -0.05    -0.01  -0.02  -0.04     0.12  -0.01  -0.02
  17   6     0.02   0.06  -0.12    -0.01  -0.09  -0.11     0.08   0.03  -0.19
  18   1     0.01   0.01  -0.03     0.00  -0.05  -0.03     0.03   0.06  -0.11
  19   1     0.01   0.04  -0.02     0.01  -0.01  -0.03    -0.05  -0.02  -0.05
  20   1     0.00   0.02  -0.06    -0.02  -0.02  -0.04     0.07   0.00  -0.03
  21   1    -0.04  -0.04   0.01     0.01   0.01   0.00     0.04   0.01  -0.00
  22   6    -0.01   0.02  -0.01     0.22   0.02  -0.01    -0.17  -0.02  -0.00
  23   8     0.24  -0.00  -0.17     0.27   0.11  -0.06    -0.33  -0.06   0.10
  24   7    -0.01   0.14   0.28     0.21  -0.09   0.06    -0.17  -0.04  -0.22
  25   1     0.06   0.06   0.10     0.06  -0.01   0.01    -0.09  -0.04  -0.07
  26   1    -0.06   0.05   0.11     0.05  -0.03   0.02    -0.01  -0.03  -0.07
  27   7    -0.26  -0.07  -0.09     0.24   0.03  -0.00    -0.04   0.03   0.03
  28   1    -0.11  -0.02  -0.00     0.06  -0.01   0.01     0.02   0.02  -0.01
  29   1    -0.07  -0.04  -0.06     0.07   0.02  -0.00    -0.01   0.02   0.03
  30   6    -0.02  -0.05   0.01     0.01   0.04  -0.04    -0.03   0.04   0.02
  31   8    -0.10  -0.13  -0.00     0.07   0.07  -0.08    -0.07   0.06   0.06
  32   7     0.06  -0.03   0.05    -0.04   0.01  -0.01    -0.02   0.08  -0.04
  33   1    -0.00  -0.03   0.02     0.01   0.01  -0.00    -0.03   0.02  -0.01
  34   1     0.02  -0.00   0.02    -0.01   0.01   0.00    -0.02   0.01  -0.02
  35   7     0.01   0.00   0.01    -0.02   0.07  -0.04    -0.00   0.02   0.02
  36   1     0.03   0.02   0.00    -0.04   0.00  -0.00     0.01   0.01  -0.00
  37   1    -0.00   0.00  -0.00    -0.02   0.01  -0.01     0.00   0.00   0.01
  38   6    -0.09   0.08   0.10    -0.14  -0.04   0.02    -0.10   0.04   0.06
  39   8    -0.35   0.27   0.21    -0.32  -0.00   0.05    -0.29   0.11   0.11
  40   7     0.10  -0.09   0.11    -0.05  -0.10   0.10     0.03  -0.06   0.12
  41   1    -0.03   0.03   0.08    -0.04  -0.02   0.05    -0.03   0.01   0.07
  42   1     0.05  -0.01   0.03     0.01  -0.02   0.03     0.02   0.01   0.04
  43   7     0.02   0.03   0.01    -0.06  -0.06  -0.07    -0.03   0.04  -0.03
  44   1     0.07  -0.05  -0.02     0.01  -0.02  -0.02     0.04  -0.02  -0.02
  45   1    -0.00   0.01  -0.01    -0.04   0.01  -0.01    -0.01   0.01  -0.01
  46   6     0.07   0.00  -0.05    -0.07   0.09   0.18    -0.01   0.00   0.05
  47   8    -0.02  -0.12  -0.10    -0.04   0.26   0.35     0.02  -0.02   0.00
  48   7     0.13   0.08  -0.22    -0.11   0.02   0.30    -0.05   0.05   0.15
  49   1    -0.00   0.04  -0.03    -0.02   0.00   0.07    -0.02   0.01   0.03
  50   1     0.04   0.05  -0.03    -0.02  -0.02   0.04    -0.01   0.02   0.04
  51   7     0.18   0.02   0.16    -0.10   0.01  -0.13     0.01  -0.01   0.04
  52   1     0.07   0.04   0.05    -0.05  -0.02  -0.03    -0.00   0.01   0.03
  53   1     0.05  -0.03   0.06    -0.05   0.06  -0.01     0.01  -0.01   0.01
                     22                     23                     24
                        a                      a                      a 
 Frequencies --   163.0750               170.5178               173.3538
 Red. masses --    12.1166                12.1158                12.4036
 Frc consts  --     0.0000                 0.0000                 0.0000
 IR Inten    --    10.7465                 4.3281                 9.9263
 Raman Activ --     0.0000                 0.0000                 0.0000
 Depolar     --     0.0000                 0.0000                 0.0000
 Atom AN      X      Y      Z        X      Y      Z        X      Y      Z
   1   8    -0.04  -0.17   0.20    -0.05  -0.19   0.19    -0.05  -0.17   0.18
   2   6     0.03   0.01   0.07     0.02   0.02   0.08     0.02   0.02   0.05
   3   1     0.00   0.03   0.01     0.01   0.03   0.01    -0.00   0.03   0.00
   4   1    -0.02   0.02   0.02    -0.03   0.02   0.03    -0.02   0.02   0.01
   5   6     0.21  -0.02  -0.01     0.21  -0.01   0.01     0.23   0.01  -0.00
   6   1     0.11  -0.01   0.04     0.11  -0.00   0.04     0.12   0.00   0.04
   7   1     0.08  -0.02  -0.05     0.08  -0.02  -0.05     0.09  -0.01  -0.06
   8   7     0.08   0.01  -0.03     0.06   0.02   0.01     0.07   0.04   0.01
   9   6     0.06   0.15  -0.01     0.04   0.19   0.01     0.04   0.20   0.03
  10   1     0.02   0.11  -0.01     0.02   0.12  -0.01     0.02   0.11   0.00
  11   1    -0.03   0.03   0.04    -0.03   0.05   0.05    -0.03   0.05   0.04
  12   1     0.05   0.02  -0.04     0.05   0.03  -0.03     0.04   0.04  -0.02
  13   6    -0.01  -0.04  -0.04    -0.05  -0.02   0.00    -0.04  -0.00   0.01
  14   1    -0.01  -0.01  -0.02    -0.03  -0.01  -0.01    -0.04  -0.02  -0.02
  15   1    -0.01  -0.02   0.00    -0.02  -0.02   0.02    -0.02   0.00   0.03
  16   1    -0.01  -0.01  -0.02    -0.02  -0.00  -0.01     0.00   0.00  -0.01
  17   6     0.02  -0.07  -0.05     0.00  -0.09   0.01    -0.00  -0.09   0.01
  18   1     0.01  -0.09  -0.00     0.01  -0.11   0.03     0.01  -0.12   0.03
  19   1     0.04   0.02   0.00     0.06   0.03   0.02     0.06   0.03   0.02
  20   1    -0.06  -0.01  -0.05    -0.08  -0.01  -0.04    -0.09  -0.01  -0.04
  21   1    -0.01  -0.03   0.04    -0.01  -0.01   0.02    -0.01  -0.01   0.02
  22   6     0.00   0.04  -0.00    -0.07   0.04  -0.02    -0.14   0.03  -0.01
  23   8    -0.14   0.14   0.05    -0.10   0.11  -0.03    -0.12   0.05  -0.05
  24   7    -0.01  -0.12  -0.19    -0.09  -0.04  -0.07    -0.14   0.05  -0.02
  25   1    -0.05  -0.04  -0.08    -0.04  -0.01  -0.03    -0.04   0.01  -0.00
  26   1     0.04  -0.06  -0.07    -0.01  -0.03  -0.02    -0.04  -0.01   0.01
  27   7     0.16   0.05   0.08    -0.02   0.03   0.01    -0.16  -0.03   0.01
  28   1     0.06  -0.00   0.01    -0.00  -0.01   0.00    -0.04  -0.01   0.00
  29   1     0.05   0.04   0.03    -0.01   0.00   0.02    -0.04   0.01  -0.00
  30   6     0.00  -0.04   0.01    -0.01   0.02  -0.07    -0.02   0.00  -0.06
  31   8    -0.03  -0.09  -0.02     0.02  -0.01  -0.15    -0.03  -0.05  -0.12
  32   7     0.04  -0.06   0.07    -0.02  -0.02   0.01     0.00  -0.03   0.02
  33   1     0.02  -0.02   0.02     0.04  -0.00  -0.00     0.04  -0.01   0.00
  34   1     0.03   0.01   0.03     0.03   0.03   0.01     0.04   0.03   0.02
  35   7     0.03   0.00   0.00    -0.04   0.12  -0.09    -0.02   0.10  -0.07
  36   1    -0.00  -0.00   0.01    -0.06   0.02  -0.00    -0.05   0.01  -0.00
  37   1    -0.01  -0.01   0.00    -0.05   0.02  -0.03    -0.05   0.01  -0.03
  38   6    -0.02  -0.02   0.12     0.09   0.20  -0.06    -0.06  -0.18  -0.05
  39   8     0.09   0.25   0.24    -0.02   0.21  -0.08    -0.03  -0.43  -0.13
  40   7    -0.14  -0.08  -0.18     0.19   0.15  -0.04    -0.07  -0.08   0.17
  41   1    -0.03   0.04  -0.09     0.03   0.06   0.01     0.00  -0.09   0.05
  42   1    -0.07  -0.09  -0.07     0.05   0.07  -0.00     0.00   0.01   0.06
  43   7    -0.01  -0.29   0.27     0.10   0.25  -0.13    -0.10  -0.01  -0.10
  44   1    -0.03  -0.10   0.06     0.06   0.04  -0.04    -0.03   0.05  -0.01
  45   1    -0.02  -0.06   0.10     0.04   0.06  -0.04    -0.02  -0.02  -0.05
  46   6    -0.07   0.09  -0.12    -0.08  -0.24   0.09     0.17   0.13  -0.00
  47   8    -0.14   0.08  -0.10    -0.03  -0.21   0.15     0.23   0.10  -0.12
  48   7    -0.04   0.10  -0.23    -0.07  -0.28   0.10     0.10   0.17   0.18
  49   1    -0.02   0.03  -0.03    -0.00  -0.09  -0.02     0.03   0.04   0.04
  50   1    -0.01   0.03  -0.06    -0.00  -0.07   0.01     0.02   0.03   0.04
  51   7    -0.07   0.12  -0.07    -0.08  -0.27   0.07     0.13   0.18   0.04
  52   1    -0.01   0.02  -0.04    -0.02  -0.07   0.02     0.04   0.03  -0.02
  53   1    -0.01   0.02  -0.03    -0.04  -0.06   0.04     0.08   0.01  -0.08
                     25                     26                     27
                        a                      a                      a 
 Frequencies --   196.9843               209.6624               224.5854
 Red. masses --    11.7366                 4.0110                 3.0886
 Frc consts  --     0.0000                 0.0000                 0.0000
 IR Inten    --    39.3646                32.5822               152.9262
 Raman Activ --     0.0000                 0.0000                 0.0000
 Depolar     --     0.0000                 0.0000                 0.0000
 Atom AN      X      Y      Z        X      Y      Z        X      Y      Z
   1   8    -0.02  -0.06  -0.01     0.05   0.15   0.09     0.01  -0.13  -0.16
   2   6    -0.01   0.01  -0.00     0.02  -0.02  -0.03     0.02   0.02   0.01
   3   1     0.00   0.01  -0.00    -0.03  -0.04  -0.01     0.05   0.03   0.02
   4   1    -0.01   0.01   0.00     0.05  -0.02  -0.04    -0.04   0.02   0.03
   5   6     0.04   0.00  -0.01    -0.04   0.00   0.01     0.02   0.01   0.00
   6   1     0.03   0.00   0.01    -0.03   0.00  -0.01     0.01   0.00   0.01
   7   1     0.02   0.00  -0.02    -0.02   0.00   0.02     0.01   0.00  -0.01
   8   7     0.02   0.01  -0.00    -0.01  -0.00   0.00    -0.00   0.02   0.01
   9   6     0.01   0.03  -0.00    -0.01  -0.02  -0.00    -0.00   0.01   0.02
  10   1     0.00   0.01   0.00    -0.00  -0.06   0.01    -0.00   0.05  -0.01
  11   1    -0.00   0.01  -0.00     0.01   0.01  -0.05    -0.01  -0.01   0.05
  12   1     0.00   0.01   0.00    -0.02   0.03   0.04     0.01  -0.03  -0.03
  13   6    -0.01   0.01   0.00     0.01  -0.01  -0.01    -0.01   0.01   0.01
  14   1    -0.01  -0.00  -0.01     0.02   0.01   0.01    -0.03  -0.02  -0.01
  15   1    -0.01   0.00   0.01     0.01  -0.02  -0.02    -0.01   0.02   0.02
  16   1     0.00   0.00  -0.00    -0.02  -0.00   0.00     0.03   0.00  -0.01
  17   6     0.00  -0.02  -0.00     0.01   0.03   0.00    -0.01   0.01   0.01
  18   1     0.00  -0.02   0.00    -0.00   0.06  -0.02    -0.00  -0.04   0.02
  19   1     0.01   0.01   0.00    -0.03  -0.03  -0.01     0.02   0.03   0.01
  20   1    -0.02  -0.00  -0.01     0.05   0.00   0.03    -0.04   0.01  -0.03
  21   1    -0.01  -0.02  -0.00     0.05   0.06   0.02    -0.03  -0.05  -0.04
  22   6     0.07  -0.00  -0.00     0.02  -0.01  -0.00     0.00  -0.00  -0.00
  23   8    -0.01   0.03   0.05     0.01  -0.01   0.01     0.00  -0.00  -0.00
  24   7     0.06  -0.09  -0.10     0.02  -0.01  -0.02    -0.00   0.01  -0.00
  25   1    -0.01  -0.04  -0.04     0.00  -0.01  -0.00    -0.00  -0.01   0.01
  26   1     0.04  -0.03  -0.04     0.01  -0.01  -0.00    -0.00  -0.01   0.01
  27   7     0.15   0.07   0.01     0.04   0.02  -0.00    -0.00  -0.01  -0.00
  28   1     0.04  -0.01   0.01     0.01  -0.01   0.00    -0.00   0.01  -0.00
  29   1     0.04  -0.01   0.01     0.01  -0.01   0.00    -0.00   0.01  -0.00
  30   6     0.01  -0.02   0.02    -0.02  -0.04  -0.02     0.01   0.03   0.04
  31   8     0.01  -0.02   0.02    -0.13  -0.12  -0.01     0.01   0.06   0.07
  32   7     0.07   0.02   0.02    -0.15  -0.17   0.05    -0.06   0.04  -0.02
  33   1    -0.09  -0.06   0.02     0.37   0.18  -0.04     0.01   0.05  -0.01
  34   1    -0.10  -0.07   0.03     0.48   0.28  -0.06     0.03   0.02  -0.03
  35   7    -0.02  -0.04   0.03     0.17   0.09  -0.06     0.02  -0.02   0.05
  36   1     0.09   0.04  -0.01    -0.35  -0.18   0.05    -0.01  -0.02   0.01
  37   1     0.06   0.02  -0.00    -0.26  -0.14   0.03     0.00  -0.01   0.02
  38   6     0.04  -0.03  -0.04     0.01   0.00  -0.01    -0.01   0.01   0.01
  39   8     0.01  -0.23  -0.11     0.00  -0.04  -0.02     0.08  -0.07  -0.02
  40   7     0.09   0.03   0.20     0.03  -0.00   0.03     0.12  -0.22  -0.06
  41   1     0.04  -0.07   0.07    -0.00   0.00   0.02    -0.27   0.38   0.15
  42   1     0.07   0.03   0.06    -0.00   0.03   0.02    -0.44   0.54   0.19
  43   7     0.04   0.11  -0.11     0.01   0.02  -0.02     0.01  -0.03  -0.02
  44   1    -0.01   0.09  -0.01     0.00   0.01  -0.00     0.13  -0.15  -0.05
  45   1    -0.02   0.05  -0.05    -0.00   0.01  -0.01     0.07  -0.07  -0.03
  46   6    -0.18   0.04   0.01    -0.04   0.01  -0.00    -0.01   0.02   0.01
  47   8    -0.47  -0.12   0.07    -0.13  -0.02   0.05    -0.03   0.02   0.02
  48   7    -0.19   0.36  -0.20    -0.03   0.09  -0.09    -0.02   0.03  -0.01
  49   1    -0.09   0.11  -0.07    -0.03   0.04  -0.01     0.01   0.00  -0.01
  50   1     0.03   0.11  -0.10     0.00   0.04  -0.02     0.01   0.00  -0.02
  51   7     0.26  -0.11   0.10     0.07  -0.01   0.05    -0.00   0.00  -0.03
  52   1     0.10   0.09   0.12     0.06  -0.01  -0.03    -0.02   0.01   0.02
  53   1     0.02  -0.06   0.20     0.04  -0.05  -0.01    -0.02   0.03   0.04
                     28                     29                     30
                        a                      a                      a 
 Frequencies --   225.4585               247.8359               270.7012
 Red. masses --     9.8285                 5.3607                 3.2113
 Frc consts  --     0.0000                 0.0000                 0.0000
 IR Inten    --    27.7019                 0.6722               191.3611
 Raman Activ --     0.0000                 0.0000                 0.0000
 Depolar     --     0.0000                 0.0000                 0.0000
 Atom AN      X      Y      Z        X      Y      Z        X      Y      Z
   1   8    -0.07   0.42   0.45    -0.03  -0.38  -0.02     0.02  -0.03  -0.01
   2   6    -0.08  -0.03  -0.04     0.05  -0.18  -0.10     0.01  -0.03  -0.01
   3   1    -0.15  -0.08  -0.05    -0.01  -0.11  -0.02    -0.00  -0.02  -0.00
   4   1     0.10  -0.05  -0.10     0.01  -0.02  -0.10     0.01  -0.00  -0.02
   5   6    -0.04  -0.00  -0.00     0.09   0.02   0.06     0.01   0.00   0.02
   6   1    -0.02  -0.00  -0.01     0.02   0.03   0.00    -0.00  -0.00   0.00
   7   1    -0.01   0.01   0.00     0.02   0.00   0.03     0.00  -0.00   0.01
   8   7     0.00  -0.01   0.01     0.02   0.07   0.03     0.01   0.01  -0.00
   9   6     0.00   0.01  -0.01     0.01   0.25  -0.06     0.01   0.03   0.00
  10   1     0.01  -0.13   0.03     0.01  -0.16   0.04     0.00   0.06  -0.01
  11   1     0.03   0.05  -0.14     0.04   0.16  -0.28    -0.01  -0.01   0.06
  12   1    -0.04   0.10   0.10    -0.04   0.26   0.17     0.02  -0.03  -0.04
  13   6     0.02  -0.02  -0.00    -0.12  -0.05  -0.04    -0.01  -0.01  -0.01
  14   1     0.04   0.02   0.02     0.08   0.10   0.05    -0.00  -0.00  -0.00
  15   1     0.02  -0.04  -0.03     0.02  -0.18  -0.09    -0.00  -0.01  -0.00
  16   1    -0.04  -0.00   0.01    -0.24   0.01   0.00    -0.01  -0.00  -0.01
  17   6     0.04   0.00   0.02     0.05   0.10   0.03     0.01   0.03  -0.01
  18   1     0.00   0.07  -0.02    -0.00   0.30  -0.11     0.00   0.04  -0.02
  19   1    -0.03  -0.06  -0.02    -0.18  -0.19  -0.07    -0.02  -0.02  -0.01
  20   1     0.07  -0.01   0.06     0.24  -0.02   0.21     0.03   0.00   0.02
  21   1     0.08   0.17   0.11    -0.00  -0.08  -0.02    -0.02  -0.03   0.01
  22   6    -0.00  -0.00   0.00    -0.01   0.00   0.01     0.02  -0.04   0.01
  23   8    -0.00  -0.01   0.00    -0.01   0.00   0.01     0.03  -0.02  -0.01
  24   7    -0.00   0.00  -0.00    -0.01   0.01  -0.01     0.02   0.10  -0.08
  25   1    -0.00  -0.00   0.00    -0.00  -0.00   0.00    -0.00  -0.14   0.07
  26   1    -0.00  -0.00   0.00    -0.00  -0.00   0.00    -0.02  -0.24   0.15
  27   7    -0.00   0.00  -0.00     0.00   0.00   0.01     0.02   0.02  -0.02
  28   1    -0.00  -0.00   0.00     0.00   0.00   0.00     0.01   0.03  -0.01
  29   1    -0.00  -0.00   0.00     0.00   0.00   0.00     0.00  -0.02   0.02
  30   6    -0.00  -0.09  -0.14    -0.01   0.04   0.05    -0.05   0.03   0.03
  31   8     0.01  -0.18  -0.24    -0.01   0.06   0.06    -0.09   0.02   0.06
  32   7     0.19  -0.12   0.07    -0.03   0.07  -0.03    -0.01   0.07  -0.04
  33   1    -0.06  -0.18   0.04    -0.03   0.03  -0.01    -0.05   0.00  -0.01
  34   1    -0.13  -0.10   0.10    -0.03  -0.00  -0.02    -0.06  -0.02  -0.01
  35   7    -0.08   0.05  -0.14     0.01  -0.00   0.05     0.01  -0.03   0.03
  36   1     0.09   0.09  -0.03     0.01  -0.00   0.00     0.07   0.02  -0.01
  37   1     0.03   0.05  -0.07     0.01  -0.00   0.02     0.03   0.00   0.02
  38   6    -0.00   0.01   0.00    -0.00  -0.00  -0.00     0.01   0.01  -0.02
  39   8     0.02  -0.01  -0.00     0.00  -0.00  -0.00     0.00  -0.01  -0.03
  40   7     0.04  -0.07  -0.02     0.00  -0.01  -0.00     0.02   0.01   0.00
  41   1    -0.09   0.13   0.05    -0.01   0.01   0.00    -0.00   0.01   0.01
  42   1    -0.14   0.18   0.06    -0.01   0.01   0.00    -0.01   0.03   0.01
  43   7     0.01  -0.01  -0.01    -0.00  -0.00   0.00     0.02   0.01  -0.03
  44   1     0.04  -0.05  -0.02     0.00  -0.00  -0.00    -0.02   0.02  -0.00
  45   1     0.02  -0.02  -0.01     0.00  -0.00   0.00    -0.01   0.02   0.00
  46   6     0.00  -0.00  -0.01     0.01   0.00   0.00     0.00  -0.03  -0.01
  47   8    -0.01   0.01   0.02     0.02   0.00  -0.02    -0.12   0.02   0.19
  48   7     0.00  -0.00  -0.01     0.00  -0.01   0.01     0.04  -0.00  -0.11
  49   1     0.01  -0.00  -0.01     0.01  -0.00  -0.00    -0.06   0.04   0.08
  50   1     0.01  -0.02  -0.03    -0.00  -0.00   0.01    -0.02   0.04   0.04
  51   7    -0.00   0.01   0.02    -0.00  -0.00  -0.02    -0.06   0.06   0.18
  52   1     0.02  -0.01  -0.03    -0.02   0.01   0.02     0.20  -0.22  -0.38
  53   1     0.02  -0.02  -0.03    -0.02   0.02   0.03     0.27  -0.30  -0.54
                     31                     32                     33
                        a                      a                      a 
 Frequencies --   281.7958               285.0927               291.4398
 Red. masses --     3.4705                 2.7841                 6.5044
 Frc consts  --     0.0000                 0.0000                 0.0000
 IR Inten    --    15.5413               176.5491                10.0146
 Raman Activ --     0.0000                 0.0000                 0.0000
 Depolar     --     0.0000                 0.0000                 0.0000
 Atom AN      X      Y      Z        X      Y      Z        X      Y      Z
   1   8     0.07  -0.07   0.21     0.02  -0.03   0.04    -0.00   0.03  -0.05
   2   6     0.09   0.01   0.08     0.02  -0.04  -0.02    -0.04  -0.27  -0.23
   3   1     0.02  -0.00   0.02    -0.01  -0.03  -0.01    -0.11  -0.20  -0.07
   4   1     0.03   0.00   0.02     0.02  -0.01  -0.03     0.09  -0.09  -0.21
   5   6     0.03  -0.00   0.03     0.01   0.01   0.03    -0.06   0.03   0.09
   6   1     0.01   0.00   0.00    -0.01   0.01  -0.00    -0.04   0.04  -0.00
   7   1     0.01  -0.02   0.02    -0.00   0.00   0.02    -0.03   0.03   0.05
   8   7    -0.04   0.03  -0.04     0.01   0.02   0.01    -0.00   0.03   0.11
   9   6     0.02  -0.14  -0.11     0.02   0.02   0.01    -0.04   0.22   0.19
  10   1    -0.04   0.26  -0.13    -0.00   0.15  -0.03     0.01   0.28   0.02
  11   1    -0.02  -0.15   0.29    -0.03  -0.04   0.15    -0.11   0.01   0.24
  12   1     0.08  -0.28  -0.28     0.04  -0.10  -0.10     0.05  -0.06  -0.08
  13   6    -0.08   0.18   0.06    -0.02  -0.01  -0.01    -0.02  -0.34  -0.14
  14   1    -0.04   0.08  -0.01    -0.01  -0.00  -0.01    -0.09  -0.25  -0.06
  15   1    -0.03   0.07   0.03    -0.00  -0.02  -0.00    -0.04  -0.04   0.04
  16   1    -0.01   0.04   0.06    -0.02  -0.00  -0.01     0.12  -0.08  -0.17
  17   6    -0.10   0.06  -0.11     0.00   0.06  -0.02     0.11   0.30   0.09
  18   1    -0.04   0.31  -0.20    -0.00   0.10  -0.05     0.02   0.09   0.08
  19   1    -0.27  -0.21  -0.11    -0.07  -0.05  -0.03     0.06   0.13   0.04
  20   1     0.20  -0.04   0.19     0.07   0.00   0.05     0.06   0.10  -0.05
  21   1     0.03   0.01   0.04     0.01  -0.01   0.01     0.06   0.04  -0.01
  22   6    -0.00  -0.01   0.01    -0.01   0.02  -0.04     0.01  -0.00   0.00
  23   8     0.00  -0.01   0.00    -0.02  -0.01  -0.00     0.02   0.01  -0.01
  24   7    -0.00   0.08  -0.05    -0.01  -0.28   0.17     0.01   0.05  -0.01
  25   1    -0.01  -0.10   0.05     0.02   0.34  -0.18     0.01  -0.05   0.03
  26   1    -0.02  -0.15   0.10     0.07   0.60  -0.39    -0.01  -0.08   0.06
  27   7    -0.01  -0.01  -0.00     0.00   0.02  -0.02     0.00  -0.01  -0.00
  28   1     0.00   0.04  -0.01    -0.03  -0.14   0.04     0.00   0.02  -0.01
  29   1    -0.00   0.02  -0.01    -0.01  -0.06   0.02     0.00   0.01  -0.01
  30   6     0.00  -0.01  -0.03    -0.02   0.00   0.01    -0.00  -0.01  -0.00
  31   8     0.01  -0.02  -0.05    -0.03  -0.00   0.01    -0.00  -0.01  -0.00
  32   7     0.02  -0.03   0.02     0.01   0.02  -0.01     0.01   0.00   0.00
  33   1     0.01  -0.02   0.01    -0.02  -0.01   0.00    -0.01  -0.01   0.00
  34   1    -0.00  -0.00   0.02    -0.03  -0.01   0.00    -0.01  -0.01   0.00
  35   7    -0.01   0.03  -0.03     0.01   0.00   0.00     0.01   0.01  -0.00
  36   1    -0.01   0.01  -0.00     0.01  -0.00  -0.00    -0.01  -0.00   0.00
  37   1    -0.01   0.00  -0.01    -0.00  -0.00   0.01    -0.01  -0.00  -0.00
  38   6     0.00  -0.01  -0.01     0.00  -0.00  -0.01    -0.00  -0.00   0.01
  39   8     0.01  -0.03  -0.01     0.01  -0.02  -0.02    -0.00   0.01   0.01
  40   7    -0.00  -0.00   0.01     0.01  -0.00   0.01    -0.01   0.00  -0.00
  41   1     0.00  -0.00  -0.00    -0.01   0.01   0.01     0.00  -0.01  -0.01
  42   1    -0.00   0.00   0.00    -0.01   0.03   0.01     0.01  -0.02  -0.01
  43   7    -0.01   0.00  -0.00    -0.00   0.01  -0.01    -0.00  -0.00   0.01
  44   1     0.00  -0.00  -0.00     0.01  -0.01  -0.01     0.00   0.00   0.00
  45   1     0.00  -0.01  -0.00    -0.00   0.00  -0.00     0.00  -0.00  -0.00
  46   6     0.00   0.00   0.00    -0.00  -0.00  -0.00    -0.00   0.00  -0.00
  47   8     0.02  -0.01  -0.04    -0.04   0.01   0.06     0.01  -0.01  -0.03
  48   7    -0.01  -0.00   0.02     0.01   0.00  -0.03    -0.01  -0.00   0.00
  49   1     0.01  -0.01  -0.01    -0.02   0.02   0.03     0.01  -0.00  -0.01
  50   1     0.01  -0.01  -0.01    -0.01   0.01   0.02     0.00  -0.01  -0.01
  51   7     0.02  -0.02  -0.03    -0.02   0.03   0.05     0.01  -0.01  -0.03
  52   1    -0.04   0.04   0.08     0.06  -0.07  -0.12    -0.03   0.03   0.06
  53   1    -0.05   0.06   0.11     0.09  -0.09  -0.17    -0.04   0.04   0.08
                     34                     35                     36
                        a                      a                      a 
 Frequencies --   330.5706               340.3366               356.5695
 Red. masses --     5.4083                 5.1224                 3.9662
 Frc consts  --     0.0000                 0.0000                 0.0000
 IR Inten    --     2.9126                17.0510               420.5596
 Raman Activ --     0.0000                 0.0000                 0.0000
 Depolar     --     0.0000                 0.0000                 0.0000
 Atom AN      X      Y      Z        X      Y      Z        X      Y      Z
   1   8     0.13  -0.25   0.20     0.10  -0.16   0.18     0.02  -0.03   0.08
   2   6     0.18  -0.13  -0.08     0.15  -0.04  -0.12     0.03  -0.03  -0.04
   3   1    -0.00  -0.08  -0.03    -0.01  -0.02  -0.05    -0.02  -0.02  -0.02
   4   1     0.08  -0.03  -0.09     0.06  -0.01  -0.08     0.03  -0.01  -0.04
   5   6     0.07   0.01   0.01     0.05   0.05  -0.05     0.05   0.00  -0.02
   6   1     0.02   0.04  -0.01     0.00   0.06  -0.04     0.03   0.02  -0.00
   7   1     0.02  -0.03   0.00     0.01  -0.03   0.01     0.02  -0.01  -0.02
   8   7    -0.10   0.06   0.01    -0.09   0.08  -0.03    -0.02   0.02  -0.00
   9   6    -0.06  -0.15  -0.08    -0.07  -0.30   0.06    -0.02  -0.07   0.02
  10   1    -0.04  -0.24  -0.00    -0.02  -0.07   0.02    -0.00  -0.04   0.01
  11   1     0.09   0.00  -0.19     0.05  -0.13   0.09     0.02  -0.03   0.01
  12   1    -0.08   0.06   0.09    -0.08  -0.16  -0.03    -0.03  -0.03   0.01
  13   6    -0.06   0.19   0.10    -0.15   0.07  -0.04    -0.05   0.02   0.00
  14   1    -0.26  -0.17  -0.11     0.16   0.26   0.09    -0.01   0.02  -0.00
  15   1    -0.13   0.35   0.23     0.06  -0.24  -0.18    -0.01  -0.01   0.00
  16   1     0.37   0.02  -0.02    -0.39   0.05   0.06    -0.03   0.01   0.00
  17   6    -0.13   0.22  -0.07     0.03   0.28  -0.00     0.01   0.09  -0.01
  18   1    -0.03   0.02  -0.01     0.00  -0.09   0.12     0.00   0.01   0.02
  19   1    -0.03   0.13   0.01     0.16   0.27   0.07     0.02   0.06   0.01
  20   1    -0.06   0.08  -0.10    -0.11   0.12  -0.20    -0.00   0.03  -0.04
  21   1     0.07  -0.03   0.04     0.06  -0.01   0.03    -0.01  -0.04   0.04
  22   6     0.00   0.00  -0.01    -0.00   0.01   0.00    -0.00  -0.00   0.00
  23   8     0.00  -0.00  -0.01    -0.00   0.01   0.00    -0.00  -0.00   0.00
  24   7    -0.00  -0.03   0.00    -0.00   0.01  -0.00    -0.00  -0.00  -0.00
  25   1    -0.00   0.01  -0.01     0.00  -0.00   0.00    -0.00   0.01  -0.00
  26   1     0.01   0.03  -0.03    -0.00  -0.02   0.01     0.00   0.02  -0.01
  27   7    -0.02  -0.01  -0.02     0.01   0.01   0.01     0.00   0.01   0.00
  28   1    -0.01   0.00  -0.00     0.00  -0.01   0.00    -0.00  -0.02   0.01
  29   1    -0.01  -0.00  -0.00     0.00   0.00   0.00    -0.00  -0.00   0.00
  30   6    -0.03   0.00   0.01    -0.03  -0.01  -0.00     0.12   0.07  -0.03
  31   8    -0.02  -0.00  -0.01    -0.02  -0.00  -0.01     0.03   0.01  -0.02
  32   7     0.03   0.04  -0.00     0.05   0.03   0.00    -0.24  -0.15   0.04
  33   1    -0.03  -0.01   0.00    -0.04  -0.03   0.01     0.19   0.11  -0.02
  34   1    -0.05  -0.03   0.01    -0.08  -0.04   0.02     0.37   0.22  -0.06
  35   7     0.03   0.03  -0.00     0.05   0.04  -0.01    -0.28  -0.13   0.03
  36   1    -0.05  -0.03   0.01    -0.09  -0.05   0.01     0.58   0.32  -0.10
  37   1    -0.03  -0.02   0.01    -0.05  -0.02   0.01     0.20   0.11  -0.04
  38   6     0.01   0.01   0.01     0.00  -0.01  -0.01    -0.00   0.00  -0.00
  39   8     0.01   0.02   0.01     0.01  -0.01  -0.01    -0.00   0.00  -0.00
  40   7    -0.00   0.01  -0.03     0.00  -0.00   0.01     0.00   0.00  -0.00
  41   1     0.00   0.01  -0.02    -0.00  -0.00   0.01     0.00  -0.00   0.00
  42   1    -0.00  -0.02  -0.01    -0.01   0.01   0.01     0.01  -0.01  -0.00
  43   7     0.01   0.00   0.01    -0.00  -0.00  -0.00     0.00  -0.00  -0.00
  44   1     0.01  -0.01  -0.00    -0.01   0.00   0.00    -0.01   0.01   0.00
  45   1     0.01  -0.00  -0.00    -0.00   0.00   0.00    -0.00   0.00  -0.00
  46   6    -0.00  -0.00  -0.00     0.00   0.00   0.00    -0.00  -0.00   0.01
  47   8    -0.01   0.00   0.01     0.00   0.00  -0.00     0.01   0.00   0.00
  48   7    -0.00   0.00  -0.00     0.00  -0.00   0.01     0.01   0.01  -0.00
  49   1     0.00  -0.00  -0.01     0.00  -0.00  -0.00    -0.01   0.00   0.00
  50   1     0.00   0.00  -0.00     0.00  -0.00  -0.00    -0.01   0.01   0.02
  51   7    -0.00   0.00   0.01     0.00   0.00  -0.00     0.00  -0.00   0.00
  52   1     0.01  -0.01  -0.02    -0.00   0.00   0.00    -0.00  -0.01  -0.00
  53   1     0.01  -0.02  -0.02    -0.00   0.00   0.00     0.00  -0.00  -0.01
                     37                     38                     39
                        a                      a                      a 
 Frequencies --   374.8101               413.7717               424.4777
 Red. masses --     7.2147                 3.3039                 8.6940
 Frc consts  --     0.0000                 0.0000                 0.0000
 IR Inten    --     6.7565               158.3059                 7.4480
 Raman Activ --     0.0000                 0.0000                 0.0000
 Depolar     --     0.0000                 0.0000                 0.0000
 Atom AN      X      Y      Z        X      Y      Z        X      Y      Z
   1   8     0.05  -0.13   0.09     0.01  -0.02   0.02    -0.08   0.18  -0.17
   2   6     0.02  -0.26   0.03     0.02   0.01   0.01    -0.13  -0.05  -0.03
   3   1    -0.04  -0.19   0.03     0.01   0.01   0.00    -0.05  -0.04  -0.01
   4   1     0.07  -0.07  -0.10     0.00   0.00   0.01    -0.01  -0.02  -0.05
   5   6    -0.28   0.00   0.24    -0.02  -0.01  -0.02     0.15   0.05   0.11
   6   1    -0.22  -0.03  -0.04    -0.02  -0.01  -0.01     0.11   0.02   0.08
   7   1    -0.13   0.04   0.21    -0.01  -0.00   0.01     0.08   0.03  -0.06
   8   7     0.01   0.05   0.01    -0.01  -0.00  -0.06     0.17  -0.03   0.30
   9   6     0.08   0.23  -0.27    -0.04   0.01   0.05     0.34  -0.08  -0.15
  10   1    -0.03   0.13  -0.13     0.01   0.01   0.03    -0.01  -0.06  -0.12
  11   1    -0.02   0.06  -0.06    -0.03   0.00   0.02     0.16  -0.02  -0.09
  12   1     0.13   0.05  -0.12    -0.03   0.00   0.02     0.17  -0.02  -0.06
  13   6     0.32   0.21   0.04    -0.00   0.03  -0.04    -0.12  -0.19   0.26
  14   1     0.19   0.13   0.07    -0.01   0.02  -0.02    -0.04  -0.01   0.05
  15   1     0.14   0.06  -0.12    -0.00   0.01  -0.01    -0.03  -0.14   0.10
  16   1     0.04   0.05   0.09     0.00   0.01  -0.00    -0.12  -0.04   0.04
  17   6    -0.16  -0.08  -0.07     0.06  -0.03   0.01    -0.30   0.14  -0.16
  18   1    -0.02  -0.18  -0.01     0.01   0.00   0.02    -0.03  -0.03  -0.19
  19   1     0.03   0.05   0.00     0.04  -0.02  -0.01    -0.21   0.13   0.03
  20   1    -0.20   0.00  -0.08     0.03  -0.01   0.01    -0.16   0.06  -0.13
  21   1     0.04   0.01   0.00    -0.00  -0.01   0.01    -0.02   0.03  -0.03
  22   6     0.00  -0.01   0.00     0.01   0.03  -0.00    -0.01   0.00  -0.01
  23   8    -0.00  -0.01   0.00     0.01   0.02   0.00    -0.00   0.01  -0.01
  24   7     0.00  -0.00  -0.00     0.01  -0.03   0.00    -0.00   0.00  -0.00
  25   1     0.00  -0.00   0.00    -0.00   0.01  -0.01     0.00   0.00  -0.00
  26   1     0.00  -0.00   0.00     0.01  -0.01  -0.00    -0.00  -0.01   0.01
  27   7    -0.01  -0.01  -0.01    -0.02  -0.06   0.01     0.00  -0.00   0.01
  28   1     0.00   0.02  -0.01     0.04   0.16  -0.06     0.00   0.00  -0.00
  29   1    -0.00  -0.00  -0.00    -0.00   0.03  -0.00     0.00   0.00   0.00
  30   6     0.01   0.01   0.00     0.00   0.00  -0.00     0.00  -0.01   0.00
  31   8    -0.00  -0.00  -0.00    -0.00   0.00  -0.00     0.00  -0.00   0.01
  32   7    -0.02  -0.00   0.00    -0.00  -0.00   0.01     0.00  -0.01  -0.01
  33   1     0.01   0.01  -0.00     0.01  -0.00   0.00    -0.00   0.00  -0.00
  34   1     0.02   0.01  -0.00     0.01   0.01   0.00     0.00  -0.00  -0.01
  35   7    -0.02  -0.00   0.01    -0.00  -0.00  -0.00    -0.00  -0.00   0.00
  36   1     0.05   0.03  -0.01     0.01   0.00  -0.00    -0.01  -0.00   0.01
  37   1     0.01   0.00  -0.00     0.00  -0.00   0.00     0.00   0.01  -0.01
  38   6    -0.00  -0.01  -0.02     0.10  -0.12  -0.04     0.02  -0.02  -0.00
  39   8     0.00  -0.00  -0.01     0.06  -0.03  -0.01     0.01  -0.01  -0.00
  40   7     0.00  -0.00   0.02    -0.13   0.14   0.07    -0.02   0.02   0.00
  41   1    -0.00  -0.01   0.01     0.04  -0.06  -0.02     0.01  -0.01  -0.01
  42   1     0.00   0.02   0.01     0.07  -0.10  -0.03     0.01  -0.02  -0.01
  43   7    -0.02  -0.00   0.00    -0.19   0.21   0.05    -0.02   0.04   0.01
  44   1     0.00  -0.02  -0.00     0.54  -0.63  -0.23     0.09  -0.10  -0.04
  45   1    -0.00  -0.00   0.01     0.06  -0.04   0.00     0.01  -0.00   0.00
  46   6    -0.00   0.00   0.01    -0.03   0.02   0.03    -0.00   0.00   0.00
  47   8    -0.00  -0.00  -0.00    -0.02   0.00   0.02     0.00  -0.00  -0.00
  48   7     0.01  -0.00  -0.02     0.01   0.02  -0.04     0.00  -0.00  -0.00
  49   1    -0.01   0.00   0.02    -0.04   0.03   0.07    -0.00   0.00  -0.00
  50   1    -0.01   0.01   0.01    -0.03   0.03   0.04     0.00  -0.00  -0.00
  51   7     0.00  -0.01  -0.01    -0.00  -0.00  -0.01     0.00  -0.00  -0.00
  52   1    -0.01   0.00   0.01     0.00  -0.01  -0.01     0.00  -0.00  -0.00
  53   1    -0.01   0.01   0.02     0.00  -0.00  -0.01     0.00  -0.00  -0.00
                     40                     41                     42
                        a                      a                      a 
 Frequencies --   447.6164               464.0223               466.8930
 Red. masses --     2.7966                 8.6290                 7.8444
 Frc consts  --     0.0000                 0.0000                 0.0000
 IR Inten    --   219.7265                22.7963                 1.6705
 Raman Activ --     0.0000                 0.0000                 0.0000
 Depolar     --     0.0000                 0.0000                 0.0000
 Atom AN      X      Y      Z        X      Y      Z        X      Y      Z
   1   8    -0.01   0.01  -0.01     0.01  -0.03  -0.03    -0.01   0.09  -0.09
   2   6    -0.01  -0.00   0.00     0.03   0.03  -0.03    -0.10  -0.20   0.09
   3   1    -0.00   0.00  -0.00     0.01   0.01  -0.00    -0.01   0.00   0.02
   4   1    -0.00  -0.00   0.00    -0.00   0.02  -0.01    -0.02  -0.09   0.09
   5   6     0.02  -0.01  -0.01     0.01   0.07   0.01    -0.02  -0.34  -0.08
   6   1     0.02  -0.00   0.01     0.00   0.03  -0.00     0.03  -0.12   0.01
   7   1     0.01  -0.01  -0.02     0.00   0.01   0.01     0.01  -0.07  -0.06
   8   7    -0.02  -0.01   0.01    -0.02   0.05   0.04     0.07  -0.28  -0.11
   9   6    -0.01   0.00  -0.02     0.01  -0.03  -0.03    -0.05   0.17   0.09
  10   1    -0.01   0.00  -0.01    -0.01  -0.02  -0.02     0.05   0.10   0.07
  11   1    -0.00   0.00  -0.00     0.03  -0.01  -0.01    -0.15   0.07   0.02
  12   1     0.00  -0.00  -0.01     0.00  -0.01  -0.01     0.02   0.09   0.06
  13   6     0.00  -0.01   0.01     0.02  -0.05  -0.04    -0.08   0.19   0.25
  14   1     0.01   0.00   0.01     0.01  -0.05  -0.00    -0.04   0.19   0.01
  15   1     0.00  -0.01  -0.00     0.01  -0.01  -0.01    -0.03   0.08   0.08
  16   1    -0.01  -0.00   0.01     0.02  -0.01  -0.04    -0.05   0.03   0.23
  17   6    -0.01   0.02   0.01    -0.05  -0.03   0.05     0.19   0.20  -0.23
  18   1    -0.00   0.01   0.00    -0.01  -0.02   0.01     0.04   0.10  -0.03
  19   1    -0.01   0.01   0.00    -0.01  -0.03   0.00     0.02   0.15  -0.01
  20   1     0.01   0.01  -0.00    -0.03  -0.01   0.04     0.13   0.07  -0.19
  21   1    -0.01  -0.00   0.00    -0.01  -0.04   0.02    -0.01   0.00  -0.01
  22   6     0.05   0.09   0.00    -0.01  -0.01  -0.02     0.00   0.01   0.01
  23   8     0.01   0.09   0.03    -0.02  -0.01  -0.01     0.03   0.00   0.00
  24   7     0.03  -0.16   0.05    -0.01   0.02   0.02    -0.00  -0.00  -0.02
  25   1     0.01   0.16  -0.10     0.02   0.01   0.01    -0.03  -0.07   0.01
  26   1     0.03  -0.02  -0.02    -0.02   0.00   0.02     0.03   0.02  -0.04
  27   7    -0.13  -0.24   0.03     0.04   0.01  -0.00    -0.03   0.00   0.01
  28   1     0.21   0.79  -0.32     0.01  -0.05   0.01    -0.02  -0.01   0.01
  29   1    -0.02  -0.01   0.06     0.01   0.00   0.01    -0.01   0.00  -0.01
  30   6    -0.00   0.00  -0.00    -0.12   0.19  -0.17    -0.02   0.04  -0.04
  31   8    -0.00   0.00  -0.00    -0.15   0.25  -0.12    -0.02   0.06  -0.03
  32   7    -0.00  -0.00   0.01     0.04   0.03   0.35     0.03   0.02   0.07
  33   1    -0.00  -0.01   0.00     0.13  -0.20   0.12    -0.14  -0.12   0.04
  34   1     0.01   0.01   0.00    -0.02   0.14   0.28     0.13   0.10   0.03
  35   7    -0.00  -0.01  -0.00     0.13  -0.31  -0.14    -0.00  -0.08  -0.03
  36   1     0.01   0.00  -0.00     0.05  -0.21  -0.20    -0.08  -0.10  -0.03
  37   1     0.00  -0.00   0.00     0.13  -0.14   0.14     0.13   0.02   0.01
  38   6    -0.02   0.02  -0.02    -0.02   0.02  -0.11    -0.00  -0.00   0.00
  39   8     0.00   0.02  -0.03     0.05   0.08  -0.10    -0.00  -0.00  -0.00
  40   7     0.05  -0.02   0.02     0.09   0.02   0.10     0.00  -0.00   0.00
  41   1    -0.02   0.01   0.04    -0.05  -0.01   0.14     0.02  -0.02  -0.01
  42   1     0.02   0.03   0.02     0.14   0.04   0.03    -0.02   0.02   0.01
  43   7     0.01  -0.06   0.00    -0.11  -0.10   0.05     0.01  -0.00  -0.01
  44   1    -0.12   0.11   0.05    -0.08  -0.07   0.00    -0.01   0.02   0.00
  45   1     0.00  -0.02   0.01     0.01  -0.04   0.06    -0.00   0.00  -0.00
  46   6     0.01  -0.03  -0.01     0.06  -0.04   0.05     0.02  -0.01   0.01
  47   8     0.00  -0.02   0.00     0.02  -0.10   0.03     0.01  -0.02   0.02
  48   7    -0.00   0.02  -0.00     0.05   0.09  -0.01     0.01   0.02   0.01
  49   1    -0.00   0.00  -0.02    -0.02   0.04  -0.02    -0.01   0.01   0.01
  50   1     0.01   0.01  -0.01     0.04   0.05  -0.00     0.02   0.00  -0.01
  51   7    -0.01  -0.01   0.02    -0.10  -0.00  -0.04    -0.03  -0.00  -0.00
  52   1     0.01  -0.02  -0.03    -0.07  -0.06  -0.04    -0.02  -0.01  -0.00
  53   1     0.00  -0.00  -0.01    -0.05   0.08  -0.01    -0.01   0.02  -0.01
                     43                     44                     45
                        a                      a                      a 
 Frequencies --   468.8209               469.9410               471.9316
 Red. masses --     7.7406                 2.2304                 6.2401
 Frc consts  --     0.0000                 0.0000                 0.0000
 IR Inten    --    14.5699                 3.0192                 5.9627
 Raman Activ --     0.0000                 0.0000                 0.0000
 Depolar     --     0.0000                 0.0000                 0.0000
 Atom AN      X      Y      Z        X      Y      Z        X      Y      Z
   1   8     0.00  -0.04   0.01    -0.00   0.03  -0.04    -0.00   0.01  -0.04
   2   6     0.02   0.01  -0.01    -0.02  -0.05   0.03    -0.01   0.00  -0.01
   3   1     0.01  -0.01   0.00     0.01   0.01   0.01     0.00   0.02  -0.00
   4   1     0.00   0.01  -0.02    -0.01  -0.02   0.03    -0.01  -0.00   0.01
   5   6    -0.08   0.05   0.03    -0.02  -0.09  -0.02     0.07  -0.02  -0.03
   6   1    -0.10  -0.01  -0.05    -0.01  -0.04  -0.01     0.09   0.02   0.04
   7   1    -0.05   0.04   0.09    -0.01  -0.01   0.00     0.05  -0.04  -0.08
   8   7     0.12   0.03  -0.05     0.05  -0.09  -0.04    -0.13  -0.01   0.06
   9   6     0.09   0.00   0.09     0.01   0.05   0.06    -0.09  -0.01  -0.13
  10   1     0.05  -0.01   0.05     0.03   0.03   0.03    -0.06   0.01  -0.07
  11   1     0.02  -0.00   0.03    -0.04   0.02   0.01    -0.01  -0.00  -0.04
  12   1    -0.01  -0.00   0.04     0.01   0.03   0.03     0.02  -0.01  -0.05
  13   6    -0.09   0.02  -0.02    -0.06   0.06   0.08     0.13  -0.05  -0.01
  14   1    -0.06   0.02  -0.04    -0.03   0.06  -0.01     0.09  -0.03   0.05
  15   1    -0.04  -0.02   0.04    -0.02   0.02   0.04     0.06  -0.01  -0.07
  16   1    -0.04   0.01  -0.01    -0.02   0.01   0.07     0.03  -0.01  -0.00
  17   6     0.02  -0.07  -0.10     0.06   0.04  -0.10    -0.05   0.05   0.13
  18   1     0.02  -0.05  -0.05     0.02   0.02  -0.03    -0.02   0.04   0.06
  19   1    -0.00  -0.02  -0.03     0.00   0.04  -0.01    -0.00   0.01   0.03
  20   1    -0.03  -0.02  -0.01     0.03   0.02  -0.06     0.02   0.01   0.03
  21   1     0.00  -0.01   0.00     0.01   0.02  -0.01    -0.01  -0.01  -0.00
  22   6    -0.01  -0.05  -0.07    -0.00  -0.00  -0.01     0.05   0.11   0.13
  23   8    -0.11  -0.01  -0.03    -0.01  -0.00  -0.01     0.21   0.05   0.07
  24   7    -0.01   0.02   0.09    -0.00   0.01   0.01     0.04  -0.07  -0.16
  25   1     0.12   0.21  -0.01     0.01   0.00   0.01    -0.23  -0.42   0.03
  26   1    -0.10  -0.04   0.13    -0.01   0.00   0.01     0.22   0.10  -0.28
  27   7     0.11  -0.02  -0.03     0.01  -0.00  -0.00    -0.25  -0.02   0.05
  28   1     0.08   0.04  -0.05     0.01  -0.01  -0.00    -0.13   0.07   0.03
  29   1     0.03  -0.01   0.05     0.00   0.00   0.00    -0.07   0.00  -0.09
  30   6    -0.05   0.08  -0.07    -0.03  -0.02  -0.00    -0.04   0.05  -0.05
  31   8    -0.07   0.11  -0.05    -0.05  -0.01   0.04    -0.05   0.07  -0.03
  32   7     0.01   0.01   0.15    -0.06  -0.04  -0.01     0.00   0.00   0.10
  33   1     0.09  -0.07   0.05     0.56   0.27  -0.06     0.13  -0.01   0.02
  34   1    -0.04   0.04   0.13    -0.45  -0.25   0.11    -0.08   0.00   0.10
  35   7     0.06  -0.13  -0.07     0.11   0.06  -0.03     0.05  -0.08  -0.05
  36   1     0.05  -0.07  -0.09     0.25   0.14  -0.03     0.05  -0.04  -0.06
  37   1     0.03  -0.07   0.06    -0.28  -0.15   0.03    -0.00  -0.06   0.04
  38   6     0.05  -0.04   0.22    -0.01   0.00  -0.03     0.02  -0.01   0.10
  39   8    -0.11  -0.17   0.20     0.02   0.02  -0.03    -0.06  -0.08   0.09
  40   7    -0.17  -0.05  -0.20     0.03   0.00   0.03    -0.08  -0.02  -0.09
  41   1     0.13  -0.00  -0.29    -0.02  -0.00   0.04     0.08  -0.02  -0.15
  42   1    -0.29  -0.06  -0.06     0.04   0.01   0.01    -0.15  -0.02  -0.03
  43   7     0.23   0.20  -0.11    -0.03  -0.03   0.01     0.11   0.10  -0.05
  44   1     0.14   0.15  -0.00    -0.03  -0.01   0.00     0.08   0.05  -0.01
  45   1    -0.01   0.08  -0.13     0.00  -0.01   0.02    -0.01   0.04  -0.05
  46   6    -0.05   0.02  -0.02     0.02  -0.01   0.01    -0.04   0.04  -0.02
  47   8     0.01   0.07  -0.02     0.00  -0.03   0.01    -0.01   0.06  -0.03
  48   7    -0.05  -0.06   0.01     0.02   0.03  -0.01    -0.03  -0.09   0.03
  49   1    -0.01  -0.02   0.03    -0.01   0.02   0.00     0.03  -0.04   0.01
  50   1    -0.04  -0.02   0.02     0.00   0.03   0.02    -0.04  -0.03   0.02
  51   7     0.08  -0.03   0.04    -0.03   0.00  -0.02     0.09  -0.00   0.04
  52   1     0.06   0.04   0.03    -0.02  -0.02  -0.02     0.06   0.03   0.01
  53   1     0.03  -0.07   0.04    -0.03   0.04   0.02     0.04  -0.06   0.02
                     46                     47                     48
                        a                      a                      a 
 Frequencies --   479.0386               482.7666               485.5579
 Red. masses --     5.0403                 2.7538                 7.3213
 Frc consts  --     0.0000                 0.0000                 0.0000
 IR Inten    --     8.1256                 2.0247                17.9317
 Raman Activ --     0.0000                 0.0000                 0.0000
 Depolar     --     0.0000                 0.0000                 0.0000
 Atom AN      X      Y      Z        X      Y      Z        X      Y      Z
   1   8     0.01   0.04  -0.04    -0.00  -0.01   0.02     0.01   0.01  -0.01
   2   6    -0.02  -0.03   0.00     0.01   0.02  -0.01    -0.00  -0.01  -0.00
   3   1     0.01   0.04  -0.01    -0.00  -0.01   0.00     0.01   0.03  -0.01
   4   1    -0.01  -0.02   0.05     0.01   0.01  -0.02    -0.01  -0.01   0.03
   5   6     0.13  -0.12  -0.09    -0.02   0.04   0.02     0.07  -0.06  -0.06
   6   1     0.18   0.02   0.07    -0.04   0.00  -0.02     0.09   0.01   0.04
   7   1     0.09  -0.08  -0.17    -0.02   0.02   0.04     0.05  -0.04  -0.09
   8   7    -0.23  -0.10   0.10     0.05   0.04  -0.02    -0.12  -0.05   0.06
   9   6    -0.18   0.03  -0.20     0.04  -0.02   0.04    -0.09   0.02  -0.11
  10   1    -0.10   0.04  -0.10     0.02  -0.02   0.02    -0.05   0.02  -0.05
  11   1    -0.06   0.01  -0.07     0.02  -0.01   0.01    -0.03   0.01  -0.04
  12   1     0.04   0.02  -0.08    -0.01  -0.01   0.02     0.03   0.01  -0.04
  13   6     0.23  -0.03   0.06    -0.05  -0.01  -0.03     0.13  -0.02   0.03
  14   1     0.14  -0.02   0.09    -0.03  -0.01  -0.02     0.08  -0.01   0.05
  15   1     0.10   0.04  -0.10    -0.02  -0.01   0.02     0.06   0.02  -0.05
  16   1     0.09  -0.02   0.05    -0.01   0.00  -0.03     0.05  -0.01   0.02
  17   6    -0.04   0.15   0.19     0.00  -0.04  -0.03    -0.03   0.07   0.10
  18   1    -0.04   0.10   0.10     0.01  -0.02  -0.02    -0.02   0.05   0.05
  19   1    -0.00   0.05   0.06    -0.00  -0.02  -0.01    -0.00   0.03   0.03
  20   1     0.07   0.04   0.02    -0.02  -0.01   0.01     0.03   0.02   0.01
  21   1    -0.01  -0.01   0.00     0.00  -0.00   0.00    -0.00  -0.01   0.00
  22   6    -0.02  -0.06   0.02    -0.01   0.01  -0.03    -0.10  -0.03  -0.22
  23   8    -0.05  -0.05   0.04    -0.01   0.01  -0.03    -0.20  -0.01  -0.21
  24   7    -0.01  -0.04  -0.01    -0.01   0.03   0.03    -0.12   0.19   0.24
  25   1     0.12   0.44  -0.18    -0.02  -0.14   0.08     0.07  -0.30   0.32
  26   1    -0.10  -0.21   0.19     0.01   0.08  -0.05    -0.13   0.31  -0.01
  27   7     0.05   0.11  -0.05     0.02  -0.04   0.02     0.33  -0.17   0.09
  28   1    -0.02  -0.08   0.03     0.04   0.02  -0.02     0.27   0.02  -0.10
  29   1     0.01  -0.03   0.02     0.01   0.01   0.02     0.11   0.10   0.14
  30   6    -0.01   0.00  -0.00     0.01  -0.01   0.01    -0.00  -0.00   0.01
  31   8    -0.01   0.01  -0.00     0.01  -0.02   0.01     0.00  -0.01  -0.00
  32   7    -0.00   0.00   0.01    -0.00  -0.00  -0.03    -0.00   0.00  -0.01
  33   1     0.05   0.02  -0.00    -0.02   0.01  -0.01     0.01   0.01  -0.00
  34   1    -0.03  -0.01   0.02     0.01  -0.01  -0.02    -0.01  -0.01  -0.01
  35   7     0.01  -0.01  -0.01    -0.01   0.02   0.01     0.00   0.01   0.01
  36   1     0.01   0.00  -0.01    -0.00   0.02   0.02     0.01   0.01   0.00
[...]
  44   1    -0.00   0.00  -0.01     0.00   0.01  -0.03     0.00  -0.00   0.00
  45   1    -0.05  -0.06   0.02    -0.13  -0.17   0.07     0.01   0.01  -0.00
  46   6     0.01  -0.01   0.01     0.00   0.02  -0.01     0.00   0.00  -0.00
  47   8    -0.01   0.01  -0.01     0.00  -0.00   0.00     0.00  -0.00   0.00
  48   7     0.08   0.15  -0.00     0.07   0.14  -0.00     0.02  -0.06   0.04
  49   1    -0.26  -0.64   0.06    -0.23  -0.57   0.05     0.02   0.05  -0.00
  50   1    -0.05   0.08  -0.06    -0.03   0.06  -0.05    -0.13   0.18  -0.15
  51   7    -0.00  -0.00  -0.00    -0.00  -0.00  -0.00    -0.03   0.15  -0.09
  52   1     0.00  -0.00   0.00     0.02  -0.02   0.02     0.42  -0.46   0.46
  53   1     0.00  -0.00   0.00    -0.02  -0.01  -0.01    -0.32  -0.09  -0.11
                    142                    143                    144
                        a                      a                      a 
 Frequencies --  3463.7594              3486.9136              3497.3809
 Red. masses --     1.5544                 1.8526                 1.4512
 Frc consts  --     0.0000                 0.0000                 0.0000
 IR Inten    --    85.7791               264.4773                17.5192
 Raman Activ --     0.0000                 0.0000                 0.0000
 Depolar     --     0.0000                 0.0000                 0.0000
 Atom AN      X      Y      Z        X      Y      Z        X      Y      Z
   1   8    -0.00   0.00   0.01    -0.00   0.00   0.00    -0.00   0.00   0.00
   2   6    -0.00   0.00  -0.00     0.00  -0.00   0.00     0.00  -0.00   0.00
   3   1    -0.00   0.00   0.00    -0.00  -0.00  -0.00     0.00  -0.00  -0.00
   4   1     0.00   0.00   0.00    -0.00  -0.00   0.00     0.00   0.00   0.00
   5   6     0.00  -0.00   0.00     0.00  -0.00  -0.00    -0.00   0.00  -0.00
   6   1     0.00  -0.00  -0.00    -0.00   0.00   0.00    -0.00  -0.00  -0.00
   7   1    -0.00  -0.00  -0.00    -0.00   0.00  -0.00     0.00  -0.00   0.00
   8   7    -0.00  -0.00   0.00     0.00  -0.00  -0.00     0.00   0.00   0.00
   9   6    -0.00  -0.00   0.00     0.00   0.00  -0.00    -0.00   0.00  -0.00
  10   1     0.00  -0.00  -0.00    -0.00   0.00   0.00     0.00  -0.00  -0.00
  11   1     0.00  -0.00  -0.00     0.00  -0.00  -0.00    -0.00  -0.00   0.00
  12   1    -0.00   0.00  -0.00     0.00  -0.00   0.00    -0.00  -0.00   0.00
  13   6    -0.00   0.00   0.00     0.00  -0.00  -0.00    -0.00  -0.00  -0.00
  14   1     0.00  -0.00  -0.00    -0.00   0.00   0.00     0.00  -0.00  -0.00
  15   1    -0.00   0.00  -0.00    -0.00  -0.00  -0.00     0.00   0.00   0.00
  16   1    -0.00  -0.00  -0.00    -0.00  -0.00  -0.00    -0.00  -0.00  -0.00
  17   6     0.00   0.00   0.00     0.00  -0.00   0.00    -0.00  -0.00  -0.00
  18   1    -0.00   0.00  -0.00    -0.00  -0.00  -0.00     0.00   0.00   0.00
  19   1    -0.00   0.00   0.00     0.00   0.00  -0.00    -0.00   0.00  -0.00
  20   1    -0.00  -0.00  -0.00     0.00  -0.00  -0.00    -0.00  -0.00  -0.00
  21   1     0.01  -0.02  -0.03     0.01  -0.02  -0.02     0.00  -0.00  -0.00
  22   6    -0.00  -0.00  -0.00    -0.00   0.00  -0.00     0.00   0.00   0.00
  23   8     0.00   0.00   0.00     0.00   0.00   0.00    -0.00  -0.00  -0.00
  24   7    -0.00   0.00   0.00    -0.00   0.00   0.00     0.18   0.00   0.01
  25   1     0.00  -0.00  -0.00     0.00  -0.00  -0.00    -0.30   0.29   0.51
  26   1     0.00   0.00   0.00     0.00   0.00   0.00    -0.39  -0.31  -0.54
  27   7     0.00   0.00   0.00     0.00  -0.00  -0.00    -0.01  -0.00  -0.01
  28   1     0.00  -0.00  -0.00     0.00   0.00   0.01     0.03   0.01   0.04
  29   1    -0.00   0.00  -0.00    -0.02   0.00   0.00     0.01  -0.00  -0.00
  30   6    -0.00   0.00   0.01    -0.00   0.01  -0.00     0.00  -0.00   0.00
  31   8    -0.00   0.00  -0.00     0.00  -0.00   0.00    -0.00   0.00  -0.00
  32   7    -0.00   0.01   0.00    -0.01   0.02   0.01    -0.00   0.00   0.00
  33   1    -0.00  -0.01  -0.05    -0.01  -0.01  -0.11    -0.00  -0.00  -0.00
  34   1     0.02  -0.03   0.03     0.05  -0.06   0.05     0.00  -0.00   0.00
  35   7    -0.03   0.10   0.15    -0.00   0.01   0.02    -0.00   0.00   0.00
  36   1    -0.18   0.27  -0.21    -0.02   0.04  -0.03    -0.00   0.00  -0.00
  37   1     0.30  -0.66  -0.34     0.03  -0.07  -0.04     0.00  -0.00  -0.00
  38   6     0.00  -0.00   0.00    -0.00   0.00  -0.00     0.00   0.00  -0.00
  39   8    -0.00   0.00  -0.00     0.00  -0.00   0.00    -0.00  -0.00   0.00
  40   7    -0.00  -0.00  -0.00     0.00   0.00  -0.00     0.00   0.00  -0.00
  41   1     0.00   0.00   0.00    -0.02  -0.01  -0.01    -0.00  -0.00  -0.00
  42   1     0.00   0.00  -0.00     0.00  -0.00   0.02     0.00  -0.00   0.00
  43   7    -0.00  -0.00   0.00    -0.00  -0.00  -0.00    -0.00  -0.00  -0.00
  44   1     0.00  -0.00   0.00     0.00  -0.00   0.01     0.00  -0.00   0.00
  45   1     0.00   0.00  -0.00     0.00   0.01  -0.00     0.00   0.00  -0.00
  46   6     0.00   0.00   0.00    -0.00   0.01  -0.01     0.00   0.00  -0.00
  47   8     0.00  -0.00   0.00     0.00  -0.00   0.00    -0.00   0.00   0.00
  48   7     0.02  -0.05   0.04    -0.10   0.18  -0.13    -0.00   0.00  -0.00
  49   1     0.01   0.03  -0.00    -0.04  -0.08  -0.00     0.00  -0.00  -0.00
  50   1    -0.11   0.15  -0.13     0.42  -0.58   0.51     0.00  -0.00   0.00
  51   7    -0.01   0.06  -0.04     0.00   0.06  -0.03     0.00   0.00   0.00
  52   1     0.16  -0.18   0.18     0.16  -0.17   0.17    -0.00   0.00  -0.00
  53   1    -0.13  -0.03  -0.04    -0.17  -0.05  -0.06    -0.00  -0.00  -0.00
                    145                    146                    147
                        a                      a                      a 
 Frequencies --  3501.3563              3502.1661              3522.2169
 Red. masses --     1.4624                 1.4477                 1.8986
 Frc consts  --     0.0000                 0.0000                 0.0000
 IR Inten    --    20.0767                18.8803                11.8259
 Raman Activ --     0.0000                 0.0000                 0.0000
 Depolar     --     0.0000                 0.0000                 0.0000
 Atom AN      X      Y      Z        X      Y      Z        X      Y      Z
   1   8    -0.00   0.00   0.00    -0.00   0.00   0.00    -0.00   0.00   0.00
   2   6     0.00  -0.00   0.00     0.00  -0.00   0.00     0.00  -0.00  -0.00
   3   1    -0.00  -0.00  -0.00    -0.00   0.00  -0.00    -0.00   0.00   0.00
   4   1     0.00  -0.00  -0.00    -0.00  -0.00  -0.00    -0.00  -0.00  -0.00
   5   6     0.00  -0.00  -0.00     0.00  -0.00  -0.00    -0.00   0.00   0.00
   6   1    -0.00   0.00   0.00    -0.00   0.00   0.00     0.00  -0.00  -0.00
   7   1     0.00  -0.00   0.00    -0.00  -0.00  -0.00     0.00  -0.00   0.00
   8   7     0.00  -0.00  -0.00    -0.00  -0.00  -0.00    -0.00   0.00   0.00
   9   6    -0.00   0.00  -0.00     0.00  -0.00  -0.00     0.00  -0.00   0.00
  10   1     0.00  -0.00   0.00    -0.00   0.00   0.00     0.00  -0.00  -0.00
  11   1    -0.00   0.00   0.00     0.00  -0.00  -0.00    -0.00  -0.00  -0.00
  12   1     0.00  -0.00   0.00     0.00   0.00  -0.00    -0.00   0.00  -0.00
  13   6    -0.00  -0.00  -0.00     0.00  -0.00  -0.00    -0.00   0.00   0.00
  14   1    -0.00   0.00   0.00    -0.00   0.00   0.00     0.00  -0.00  -0.00
  15   1     0.00   0.00   0.00    -0.00  -0.00  -0.00    -0.00   0.00   0.00
  16   1    -0.00  -0.00  -0.00     0.00   0.00   0.00    -0.00   0.00  -0.00
  17   6    -0.00   0.00  -0.00     0.00   0.00   0.00     0.00   0.00   0.00
  18   1     0.00  -0.00   0.00    -0.00  -0.00  -0.00    -0.00   0.00   0.00
  19   1    -0.00  -0.00  -0.00     0.00   0.00  -0.00    -0.00   0.00  -0.00
  20   1    -0.00  -0.00  -0.00     0.00   0.00   0.00    -0.00   0.00   0.00
  21   1     0.01  -0.01  -0.01     0.00  -0.00  -0.00     0.00  -0.00  -0.00
  22   6    -0.00   0.00   0.00    -0.00  -0.00  -0.00    -0.01   0.00  -0.01
  23   8    -0.00  -0.00  -0.00     0.00   0.00   0.00     0.00   0.00   0.00
  24   7     0.00   0.00   0.00     0.00   0.00   0.00    -0.01   0.01   0.02
  25   1    -0.00   0.00   0.00    -0.00   0.00   0.00     0.04  -0.04  -0.06
  26   1    -0.00  -0.00  -0.00    -0.00  -0.00  -0.00    -0.00  -0.00  -0.00
  27   7     0.00  -0.00  -0.00     0.00  -0.00  -0.00    -0.15  -0.04  -0.21
  28   1     0.00   0.00   0.00     0.00   0.00   0.00     0.49   0.17   0.80
  29   1    -0.00   0.00   0.00    -0.00   0.00   0.00     0.09  -0.01  -0.02
  30   6     0.00  -0.00  -0.00     0.00  -0.00  -0.00    -0.00   0.00  -0.00
  31   8    -0.00   0.00  -0.00    -0.00   0.00  -0.00     0.00  -0.00   0.00
  32   7     0.08  -0.14  -0.07     0.01  -0.01  -0.01    -0.00   0.00  -0.00
  33   1     0.04   0.08   0.67     0.00   0.01   0.06    -0.00   0.00   0.00
  34   1    -0.34   0.46  -0.39    -0.03   0.04  -0.03     0.00  -0.00   0.00
  35   7    -0.01   0.02   0.01    -0.00   0.00   0.00     0.00  -0.00   0.00
  36   1    -0.00   0.01  -0.00    -0.00   0.00  -0.00    -0.00   0.00  -0.00
  37   1     0.03  -0.07  -0.03     0.00  -0.01  -0.00     0.00  -0.00  -0.00
  38   6     0.00   0.00  -0.00    -0.00  -0.00   0.00    -0.00  -0.00   0.00
  39   8     0.00  -0.00   0.00    -0.00   0.00  -0.00     0.00   0.00  -0.00
  40   7     0.01   0.01  -0.01    -0.12  -0.11   0.08    -0.00  -0.00  -0.00
  41   1    -0.04  -0.02  -0.04     0.50   0.20   0.40     0.00   0.00   0.00
  42   1     0.00  -0.02   0.06    -0.03   0.21  -0.68     0.00  -0.00   0.00
  43   7    -0.00  -0.00   0.00     0.00   0.01  -0.01     0.00  -0.00   0.00
  44   1    -0.00   0.00  -0.00     0.00  -0.01   0.05    -0.00   0.00  -0.01
  45   1     0.00   0.00  -0.00    -0.01  -0.01   0.00    -0.00  -0.00   0.00
  46   6    -0.00   0.00  -0.00    -0.00   0.00  -0.00    -0.00   0.00  -0.00
  47   8     0.00  -0.00   0.00     0.00   0.00   0.00     0.00  -0.00   0.00
  48   7    -0.01   0.02  -0.02    -0.00   0.01  -0.01     0.00  -0.00   0.00
  49   1    -0.01  -0.01  -0.00    -0.01  -0.01   0.00    -0.00  -0.00   0.00
  50   1     0.06  -0.08   0.07     0.02  -0.02   0.02    -0.00   0.00  -0.00
  51   7     0.00   0.01  -0.00     0.00   0.00  -0.00    -0.00  -0.00   0.00
  52   1     0.03  -0.03   0.03     0.01  -0.01   0.01    -0.00   0.00  -0.00
  53   1    -0.04  -0.01  -0.01    -0.01  -0.00  -0.00     0.00   0.00   0.00
                    148                    149                    150
                        a                      a                      a 
 Frequencies --  3536.2773              3549.3276              3563.3585
 Red. masses --     1.8942                 2.1175                 2.1792
 Frc consts  --     0.0000                 0.0000                 0.0000
 IR Inten    --    12.7171                30.0977                10.1682
 Raman Activ --     0.0000                 0.0000                 0.0000
 Depolar     --     0.0000                 0.0000                 0.0000
 Atom AN      X      Y      Z        X      Y      Z        X      Y      Z
   1   8    -0.00   0.00   0.00    -0.00  -0.00  -0.00    -0.00   0.00  -0.00
   2   6    -0.00  -0.00  -0.00     0.00   0.00   0.00     0.00  -0.00   0.00
   3   1    -0.00   0.00  -0.00     0.00  -0.00  -0.00    -0.00   0.00   0.00
   4   1     0.00   0.00   0.00    -0.00  -0.00  -0.00    -0.00  -0.00  -0.00
   5   6    -0.00  -0.00   0.00    -0.00   0.00  -0.00    -0.00   0.00  -0.00
   6   1     0.00  -0.00  -0.00    -0.00   0.00   0.00     0.00  -0.00  -0.00
   7   1    -0.00  -0.00  -0.00     0.00   0.00   0.00     0.00  -0.00   0.00
   8   7     0.00   0.00  -0.00     0.00  -0.00  -0.00     0.00   0.00   0.00
   9   6    -0.00   0.00   0.00    -0.00   0.00  -0.00     0.00   0.00   0.00
  10   1     0.00  -0.00   0.00    -0.00   0.00   0.00     0.00  -0.00  -0.00
  11   1     0.00   0.00   0.00    -0.00   0.00  -0.00    -0.00  -0.00   0.00
  12   1     0.00  -0.00  -0.00     0.00  -0.00   0.00    -0.00   0.00  -0.00
  13   6     0.00  -0.00  -0.00    -0.00  -0.00  -0.00    -0.00  -0.00  -0.00
  14   1    -0.00   0.00   0.00    -0.00   0.00   0.00     0.00  -0.00  -0.00
  15   1    -0.00  -0.00  -0.00     0.00   0.00   0.00     0.00   0.00   0.00
  16   1     0.00   0.00  -0.00     0.00   0.00   0.00    -0.00   0.00  -0.00
  17   6    -0.00  -0.00   0.00    -0.00  -0.00  -0.00    -0.00  -0.00  -0.00
  18   1     0.00  -0.00   0.00     0.00  -0.00   0.00     0.00   0.00   0.00
  19   1    -0.00   0.00  -0.00     0.00  -0.00  -0.00    -0.00   0.00  -0.00
  20   1     0.00   0.00  -0.00     0.00   0.00  -0.00    -0.00   0.00   0.00
  21   1     0.00  -0.00  -0.00    -0.00   0.00   0.01     0.00  -0.00  -0.00
  22   6    -0.00  -0.00  -0.00     0.00   0.00   0.00     0.00  -0.01  -0.01
  23   8     0.00   0.00   0.00    -0.00  -0.00  -0.00    -0.00   0.00   0.00
  24   7    -0.00   0.00   0.00    -0.00  -0.00  -0.00    -0.00  -0.15  -0.26
  25   1     0.00  -0.00  -0.00    -0.00   0.00   0.00    -0.35   0.30   0.54
  26   1    -0.00  -0.00  -0.00     0.00   0.00   0.00     0.36   0.26   0.45
  27   7    -0.00  -0.00  -0.00     0.00  -0.00   0.00    -0.01  -0.00  -0.01
  28   1     0.01   0.00   0.01    -0.00  -0.00  -0.00     0.03   0.01   0.05
  29   1     0.01  -0.00  -0.00    -0.00   0.00   0.00     0.01  -0.00  -0.00
  30   6    -0.00   0.00  -0.00     0.00  -0.01  -0.00     0.00  -0.00   0.00
  31   8     0.00  -0.00   0.00    -0.00   0.00  -0.00    -0.00   0.00  -0.00
  32   7    -0.00   0.00  -0.00    -0.01   0.01  -0.05    -0.00   0.00  -0.00
  33   1    -0.00  -0.00  -0.00     0.00   0.02   0.14     0.00   0.00   0.00
  34   1     0.00  -0.00   0.00     0.05  -0.06   0.05     0.00  -0.00   0.00
  35   7     0.00  -0.00   0.00     0.14  -0.24   0.08    -0.00   0.00  -0.00
  36   1    -0.00   0.00  -0.00    -0.39   0.58  -0.49     0.00  -0.00   0.00
  37   1    -0.00   0.00   0.00    -0.14   0.32   0.18     0.00  -0.00  -0.00
  38   6     0.00   0.01  -0.01    -0.00  -0.00   0.00     0.00   0.00  -0.00
  39   8    -0.00  -0.00   0.00     0.00   0.00  -0.00    -0.00   0.00   0.00
  40   7     0.02   0.01   0.02     0.00   0.00  -0.00     0.00  -0.00   0.00
  41   1    -0.06  -0.03  -0.05    -0.00   0.00   0.00    -0.00  -0.00  -0.00
  42   1     0.00   0.00  -0.01    -0.00  -0.00   0.00    -0.00   0.00  -0.00
  43   7    -0.00   0.09  -0.24    -0.00  -0.00   0.00     0.00   0.00  -0.00
  44   1     0.04  -0.28   0.91    -0.00   0.00  -0.00     0.00  -0.00   0.00
  45   1    -0.05  -0.06   0.00     0.00   0.00  -0.00    -0.00  -0.00   0.00
  46   6    -0.00   0.00  -0.00    -0.00   0.00  -0.00     0.00   0.00  -0.00
  47   8     0.00  -0.00   0.00     0.00  -0.00  -0.00     0.00  -0.00   0.00
  48   7     0.00  -0.00   0.00     0.00  -0.00   0.00     0.00  -0.00   0.00
  49   1     0.00  -0.00   0.00     0.00   0.00   0.00    -0.00  -0.00  -0.00
  50   1    -0.00   0.01  -0.00    -0.00   0.00  -0.00    -0.00   0.00  -0.00
  51   7     0.00  -0.00   0.00    -0.00  -0.00  -0.00     0.01  -0.00   0.00
  52   1    -0.00   0.00  -0.00    -0.00  -0.00   0.00    -0.00   0.01  -0.01
  53   1    -0.00  -0.00  -0.00     0.00   0.00   0.00    -0.02  -0.01  -0.01
                    151                    152                    153
                        a                      a                      a 
 Frequencies --  3564.0350              3565.5260              3569.1662
 Red. masses --     2.1203                 2.1800                 2.1849
 Frc consts  --     0.0000                 0.0000                 0.0000
 IR Inten    --    27.6203                36.0977                14.4693
 Raman Activ --     0.0000                 0.0000                 0.0000
 Depolar     --     0.0000                 0.0000                 0.0000
 Atom AN      X      Y      Z        X      Y      Z        X      Y      Z
   1   8    -0.00   0.00   0.00    -0.00   0.00   0.00    -0.00   0.00   0.00
   2   6     0.00   0.00   0.00    -0.00  -0.00   0.00    -0.00  -0.00   0.00
   3   1     0.00  -0.00  -0.00    -0.00   0.00   0.00     0.00  -0.00  -0.00
   4   1    -0.00  -0.00  -0.00     0.00  -0.00  -0.00     0.00   0.00  -0.00
   5   6     0.00  -0.00  -0.00     0.00  -0.00  -0.00    -0.00  -0.00   0.00
   6   1    -0.00   0.00   0.00    -0.00   0.00   0.00    -0.00  -0.00  -0.00
   7   1     0.00  -0.00  -0.00     0.00  -0.00   0.00    -0.00  -0.00  -0.00
   8   7     0.00  -0.00  -0.00     0.00   0.00  -0.00    -0.00  -0.00   0.00
   9   6    -0.00   0.00  -0.00     0.00  -0.00   0.00     0.00  -0.00  -0.00
  10   1     0.00   0.00   0.00    -0.00  -0.00   0.00    -0.00  -0.00   0.00
  11   1     0.00  -0.00  -0.00     0.00   0.00   0.00     0.00   0.00   0.00
  12   1     0.00  -0.00   0.00    -0.00   0.00  -0.00     0.00   0.00  -0.00
  13   6    -0.00  -0.00  -0.00    -0.00  -0.00  -0.00     0.00  -0.00  -0.00
  14   1    -0.00   0.00   0.00    -0.00   0.00   0.00    -0.00   0.00   0.00
  15   1     0.00   0.00   0.00     0.00   0.00   0.00     0.00  -0.00  -0.00
  16   1     0.00   0.00   0.00     0.00   0.00   0.00    -0.00   0.00   0.00
  17   6    -0.00  -0.00  -0.00    -0.00  -0.00   0.00    -0.00  -0.00   0.00
  18   1     0.00   0.00   0.00     0.00   0.00   0.00     0.00  -0.00  -0.00
  19   1    -0.00  -0.00   0.00    -0.00   0.00  -0.00     0.00   0.00  -0.00
  20   1     0.00   0.00  -0.00     0.00   0.00   0.00     0.00   0.00   0.00
  21   1     0.00  -0.00  -0.00     0.00  -0.01  -0.01     0.00  -0.00  -0.00
  22   6     0.00   0.00   0.00     0.00   0.00   0.00    -0.00  -0.00  -0.00
  23   8    -0.00  -0.00  -0.00    -0.00  -0.00  -0.00     0.00   0.00   0.00
  24   7     0.00  -0.00  -0.01     0.00  -0.00  -0.00    -0.00  -0.00  -0.00
  25   1    -0.01   0.01   0.01    -0.00   0.00   0.00    -0.00   0.00   0.00
  26   1     0.01   0.01   0.01     0.00   0.00   0.00     0.00   0.00   0.00
  27   7    -0.00  -0.00   0.00    -0.00  -0.00   0.00    -0.00  -0.00  -0.00
  28   1    -0.00   0.00  -0.00    -0.00   0.00  -0.00     0.00   0.00   0.00
  29   1     0.01  -0.00  -0.00     0.00  -0.00  -0.00     0.00  -0.00  -0.00
  30   6    -0.00   0.00   0.00    -0.00   0.00  -0.01    -0.00   0.00  -0.00
  31   8     0.00  -0.00   0.00     0.00  -0.00   0.00     0.00   0.00   0.00
  32   7     0.02  -0.02   0.07    -0.09   0.09  -0.26    -0.00   0.00  -0.00
  33   1    -0.01  -0.02  -0.16     0.02   0.10   0.64     0.00   0.00   0.00
  34   1    -0.09   0.12  -0.09     0.32  -0.43   0.34     0.00  -0.00   0.00
  35   7     0.01  -0.01   0.00    -0.02   0.04  -0.01    -0.00   0.00   0.00
  36   1    -0.02   0.03  -0.02     0.07  -0.10   0.08     0.00  -0.00   0.00
  37   1    -0.00   0.01   0.00     0.03  -0.06  -0.03     0.00  -0.00  -0.00
  38   6     0.00   0.00  -0.00     0.00   0.00  -0.00    -0.01  -0.00  -0.01
  39   8     0.00  -0.00   0.00     0.00  -0.00   0.00     0.00   0.00   0.00
  40   7     0.00  -0.00   0.00     0.00  -0.00   0.00    -0.14  -0.00  -0.27
  41   1    -0.01  -0.00  -0.00    -0.00  -0.00  -0.00     0.53   0.22   0.39
  42   1    -0.00   0.00  -0.01    -0.00   0.00  -0.00     0.01  -0.20   0.62
  43   7     0.00   0.00  -0.00     0.00   0.00  -0.00     0.00   0.01  -0.02
  44   1     0.00  -0.00   0.00     0.00  -0.00   0.00     0.00  -0.02   0.07
  45   1    -0.00  -0.00   0.00    -0.00  -0.00   0.00    -0.00  -0.01   0.00
  46   6    -0.01   0.00  -0.00    -0.00   0.00  -0.00    -0.00   0.00  -0.00
  47   8     0.00  -0.00   0.00     0.00  -0.00   0.00     0.00  -0.00   0.00
  48   7    -0.00   0.01  -0.01    -0.00   0.00  -0.00     0.00   0.00  -0.00
  49   1    -0.00  -0.00   0.00    -0.00  -0.00   0.00    -0.00  -0.01   0.00
  50   1     0.02  -0.03   0.02     0.01  -0.01   0.01     0.00  -0.00   0.00
  51   7    -0.25  -0.00  -0.13    -0.07   0.00  -0.03    -0.00   0.00  -0.00
  52   1     0.19  -0.24   0.23     0.05  -0.07   0.06     0.00  -0.00   0.00
  53   1     0.77   0.24   0.25     0.19   0.06   0.06     0.01   0.00   0.00
