 Entering Gaussian System
 *********************************************
 Gaussian 98:
 frequency output generated by the xtb code
 *********************************************
                         Standard orientation:
 --------------------------------------------------------------------
  Center     Atomic     Atomic              Coordinates (Angstroms)
  Number     Number      Type              X           Y           Z
 --------------------------------------------------------------------
    1          8             0        2.945199   -0.614951   -0.621638
    2          6             0        2.636946    0.599028   -1.235136
    3          1             0        3.470366    1.277918   -1.035659
    4          1             0        2.561103    0.477947   -2.324065
    5          6             0        1.299647    1.207429   -0.777905
    6          1             0        0.492880    0.497857   -0.983681
    7          1             0        1.130094    2.116115   -1.358465
    8          7             0        1.209271    1.556547    0.665677
    9          6             0        1.128343    0.334761    1.485384
   10          1             0        0.248701   -0.230803    1.181743
   11          1             0        1.044597    0.624841    2.530823
   12          1             0        2.020902   -0.266207    1.328695
   13          6             0       -0.029086    2.324224    0.880360
   14          1             0       -0.872339    1.719804    0.548071
   15          1             0       -0.000630    3.255477    0.318722
   16          1             0       -0.120479    2.543895    1.942985
   17          6             0        2.353120    2.361460    1.119105
   18          1             0        2.471099    3.239751    0.487375
   19          1             0        3.263856    1.768828    1.092368
   20          1             0        2.164135    2.673409    2.146107
   21          1             0        2.293361   -1.272883   -0.958387
   22          6             0        0.193056   -2.795842   -0.953489
   23          8             0        0.916105   -2.049333   -1.622003
   24          7             0        0.588482   -3.217283    0.277973
   25          1             0        1.551656   -3.076348    0.531754
   26          1             0        0.098050   -3.960888    0.742179
   27          7             0       -0.995921   -3.217570   -1.394348
   28          1             0       -1.606900   -3.746088   -0.798693
   29          1             0       -1.395482   -2.773577   -2.227432
   30          6             0        0.972596    2.851498    5.061097
   31          8             0        0.921693    2.493522    3.892386
   32          7             0        0.018578    3.634706    5.619690
   33          1             0       -0.695720    4.017518    5.026766
   34          1             0        0.118475    4.016017    6.542563
   35          7             0        1.986502    2.488868    5.883044
   36          1             0        1.979281    2.702176    6.863506
   37          1             0        2.666390    1.829900    5.548456
   38          6             0       -1.243820   -1.416025   -4.423525
   39          8             0       -2.038054   -1.821796   -3.570853
   40          7             0        0.053383   -1.206141   -4.147696
   41          1             0        0.411932   -1.501422   -3.236458
   42          1             0        0.708484   -0.988242   -4.876038
   43          7             0       -1.665379   -1.113400   -5.674119
   44          1             0       -1.030673   -0.856500   -6.407318
   45          1             0       -2.623406   -1.297826   -5.911995
   46          6             0       -2.739328   -0.507819   -0.129178
   47          8             0       -1.561697   -0.170679   -0.085358
   48          7             0       -3.501979   -0.548962    1.004448
   49          1             0       -3.126429   -0.132152    1.838201
   50          1             0       -4.500821   -0.638307    0.949084
   51          7             0       -3.367223   -0.859533   -1.265018
   52          1             0       -4.299732   -1.231341   -1.238485
   53          1             0       -2.828110   -1.039112   -2.106541
 --------------------------------------------------------------------
     1 basis functions        1 primitive gaussians
     1 alpha electrons        1 beta electrons

 Harmonic frequencies (cm**-1), IR intensities (km*mol⁻¹),
 Raman scattering activities (A**4/amu), Raman depolarization ratios,
 reduced masses (AMU), force constants (mDyne/A) and normal coordinates:
                      1                      2                      3
                        a                      a                      a 
 Frequencies --     7.5045                10.5838                13.4545
 Red. masses --    11.2814                12.2270                11.9606
 Frc consts  --     0.0000                 0.0000                 0.0000
 IR Inten    --     0.0501                 0.2729                 0.2511
 Raman Activ --     0.0000                 0.0000                 0.0000
 Depolar     --     0.0000                 0.0000                 0.0000
 Atom AN      X      Y      Z        X      Y      Z        X      Y      Z
   1   8    -0.03  -0.01   0.02     0.02  -0.18   0.07    -0.06   0.10  -0.02
   2   6    -0.04  -0.02   0.00     0.08  -0.15   0.05    -0.18   0.04  -0.06
   3   1    -0.01  -0.00  -0.01     0.03  -0.05   0.02    -0.06   0.03  -0.04
   4   1    -0.02  -0.01   0.00     0.03  -0.04   0.01    -0.07  -0.01  -0.01
   5   6    -0.04  -0.02   0.01     0.08  -0.11   0.00    -0.19  -0.03  -0.00
   6   1    -0.01  -0.01   0.01     0.02  -0.03   0.00    -0.05  -0.02   0.02
   7   1    -0.01  -0.01   0.00     0.03  -0.03  -0.01    -0.08  -0.02  -0.00
   8   7    -0.03  -0.02   0.01     0.06  -0.07  -0.01    -0.14  -0.01  -0.00
   9   6    -0.03  -0.01   0.01     0.04  -0.05   0.02    -0.05  -0.00   0.02
  10   1    -0.01  -0.00   0.01     0.01  -0.01   0.01    -0.01  -0.01   0.02
  11   1    -0.01  -0.00   0.00     0.01  -0.01   0.00    -0.00   0.00   0.01
  12   1    -0.01  -0.01   0.00     0.01  -0.02   0.02    -0.01   0.01  -0.00
  13   6    -0.02  -0.01   0.02     0.05  -0.06  -0.05    -0.15  -0.05   0.05
  14   1    -0.01  -0.00   0.01     0.02  -0.02  -0.01    -0.04  -0.02   0.03
  15   1    -0.01  -0.00   0.00     0.02  -0.02  -0.02    -0.06  -0.02   0.01
  16   1    -0.00  -0.00   0.01     0.01  -0.01  -0.02    -0.03  -0.01   0.01
  17   6    -0.02  -0.02  -0.00     0.05  -0.06  -0.01    -0.13   0.03  -0.07
  18   1    -0.01  -0.01  -0.00     0.02  -0.02  -0.01    -0.06   0.01  -0.03
  19   1    -0.01  -0.01  -0.00     0.01  -0.02   0.01    -0.03   0.02  -0.03
  20   1    -0.00  -0.01  -0.00     0.01  -0.01  -0.01    -0.03   0.01  -0.02
  21   1    -0.00  -0.01   0.01    -0.00  -0.04   0.01    -0.00   0.01   0.01
  22   6    -0.05  -0.01   0.02    -0.04  -0.09  -0.07    -0.05  -0.05   0.04
  23   8    -0.02  -0.04   0.04    -0.03  -0.05  -0.02     0.01  -0.09   0.10
  24   7    -0.09  -0.01   0.04    -0.05  -0.19  -0.11    -0.14  -0.08   0.07
  25   1    -0.02  -0.01   0.02    -0.02  -0.05  -0.02    -0.04  -0.03   0.03
  26   1    -0.03   0.00   0.01    -0.02  -0.06  -0.04    -0.05  -0.02   0.01
  27   7    -0.05   0.01   0.00    -0.04  -0.05  -0.12    -0.05  -0.00  -0.02
  28   1    -0.02   0.01  -0.00    -0.01  -0.02  -0.04    -0.03   0.01  -0.02
  29   1    -0.00   0.01  -0.00    -0.01   0.00  -0.02     0.00   0.01  -0.01
  30   6     0.07   0.01   0.01    -0.08   0.16  -0.08     0.16   0.06  -0.01
  31   8     0.02   0.00   0.01    -0.03   0.08  -0.06     0.06   0.04  -0.00
  32   7    -0.19  -0.44   0.19    -0.16   0.15  -0.18     0.35   0.26   0.01
  33   1    -0.13  -0.21   0.09    -0.04   0.02  -0.06     0.10   0.09   0.01
  34   1    -0.05  -0.11   0.05    -0.06   0.06  -0.05     0.12   0.07  -0.00
  35   7     0.40   0.49  -0.19    -0.10   0.29  -0.02     0.15  -0.09  -0.05
  36   1     0.13   0.12  -0.05    -0.04   0.10  -0.01     0.07  -0.02  -0.02
  37   1     0.17   0.21  -0.09    -0.01   0.08   0.02     0.01  -0.06  -0.02
  38   6     0.07   0.01  -0.01    -0.03   0.22   0.04     0.19   0.09   0.00
  39   8     0.04   0.04  -0.03    -0.04   0.16  -0.00     0.15   0.13  -0.05
  40   7     0.07  -0.02   0.02    -0.03   0.20   0.06     0.20   0.04   0.07
  41   1     0.01  -0.01   0.01    -0.01   0.03   0.01     0.04  -0.01   0.02
  42   1     0.03  -0.01   0.01    -0.01   0.07   0.02     0.07  -0.00   0.03
  43   7     0.11   0.01  -0.03    -0.03   0.38   0.08     0.28   0.14  -0.02
  44   1     0.04  -0.00  -0.00    -0.01   0.12   0.03     0.09   0.04   0.01
  45   1     0.03   0.01  -0.01    -0.01   0.11   0.01     0.08   0.05  -0.02
  46   6    -0.04   0.01  -0.03     0.06  -0.13   0.09    -0.09  -0.11  -0.00
  47   8    -0.04  -0.00   0.01     0.06  -0.11   0.06    -0.10  -0.13   0.10
  48   7    -0.08  -0.00  -0.06     0.14  -0.26   0.15    -0.16  -0.23  -0.05
  49   1    -0.03  -0.01  -0.01     0.05  -0.08   0.04    -0.06  -0.08   0.00
  50   1    -0.02   0.00  -0.02     0.04  -0.08   0.05    -0.04  -0.06  -0.03
  51   7    -0.01   0.05  -0.06     0.01  -0.08   0.11    -0.02  -0.02  -0.08
  52   1    -0.00   0.02  -0.03     0.01  -0.03   0.04    -0.01  -0.01  -0.04
  53   1     0.00   0.01  -0.01    -0.01   0.00   0.02     0.01   0.01  -0.01
                      4                      5                      6
                        a                      a                      a 
 Frequencies --    20.6806                24.7343                27.8946
 Red. masses --    12.3513                12.1092                11.8471
 Frc consts  --     0.0000                 0.0000                 0.0000
 IR Inten    --     0.4402                 0.6249                 3.8253
 Raman Activ --     0.0000                 0.0000                 0.0000
 Depolar     --     0.0000                 0.0000                 0.0000
 Atom AN      X      Y      Z        X      Y      Z        X      Y      Z
   1   8     0.09   0.07  -0.07     0.02  -0.01  -0.08    -0.06  -0.10   0.25
   2   6    -0.00  -0.00  -0.15     0.02  -0.00  -0.06     0.11  -0.07   0.16
   3   1    -0.01   0.02  -0.07     0.01  -0.00  -0.02     0.04  -0.04   0.07
   4   1    -0.01  -0.03  -0.04     0.00   0.00  -0.02     0.07  -0.02   0.05
   5   6    -0.01  -0.03  -0.15     0.03   0.01  -0.04     0.11   0.04  -0.00
   6   1     0.00  -0.02  -0.03     0.01   0.00  -0.00     0.03   0.02  -0.01
   7   1    -0.01  -0.02  -0.05     0.01  -0.00  -0.02     0.06   0.00  -0.02
   8   7    -0.00   0.02  -0.17     0.07   0.05  -0.05    -0.02   0.12  -0.03
   9   6    -0.00   0.04  -0.12     0.13   0.06  -0.01    -0.12   0.16   0.03
  10   1    -0.00   0.01  -0.03     0.04   0.00   0.01    -0.03   0.05  -0.01
  11   1     0.00   0.02  -0.04     0.04   0.02  -0.01    -0.06   0.06   0.00
  12   1    -0.00   0.01  -0.03     0.04   0.03  -0.01    -0.03   0.04   0.04
  13   6     0.01   0.03  -0.17     0.04   0.00  -0.03    -0.03   0.15  -0.19
  14   1     0.00   0.01  -0.04     0.02  -0.01   0.00    -0.00   0.04  -0.07
  15   1     0.00   0.01  -0.06    -0.00  -0.00  -0.02     0.01   0.04  -0.07
  16   1     0.01   0.02  -0.05     0.02   0.01  -0.01    -0.04   0.06  -0.06
  17   6     0.01   0.02  -0.19     0.05   0.10  -0.10    -0.05   0.12   0.03
  18   1     0.00   0.00  -0.06    -0.00   0.03  -0.04     0.01   0.02  -0.00
  19   1     0.00   0.00  -0.05     0.02   0.04  -0.03    -0.02   0.03   0.04
  20   1     0.01   0.01  -0.06     0.02   0.03  -0.03    -0.04   0.05  -0.00
  21   1     0.03   0.00   0.01    -0.01   0.00  -0.01    -0.03  -0.01   0.05
  22   6     0.05  -0.05   0.14    -0.17   0.17   0.09    -0.07  -0.01   0.02
  23   8     0.09  -0.09   0.16    -0.12   0.07   0.06    -0.11   0.08   0.09
  24   7     0.05  -0.07   0.15    -0.29   0.31   0.17    -0.12  -0.01   0.03
  25   1     0.02  -0.03   0.04    -0.08   0.08   0.06    -0.04   0.02   0.03
  26   1     0.01  -0.01   0.04    -0.10   0.10   0.06    -0.02  -0.02  -0.01
  27   7     0.03   0.02   0.17    -0.17   0.17   0.06    -0.02  -0.10  -0.07
  28   1     0.00   0.01   0.05    -0.06   0.08   0.03    -0.00  -0.05  -0.03
  29   1     0.01   0.01   0.05    -0.03   0.03   0.00    -0.00  -0.03  -0.02
  30   6    -0.08  -0.15  -0.13    -0.04  -0.07  -0.02     0.02  -0.02  -0.02
  31   8    -0.02  -0.02  -0.19     0.08   0.02  -0.06    -0.21   0.17  -0.08
  32   7    -0.14  -0.27  -0.08    -0.13  -0.16  -0.05     0.16  -0.05   0.25
  33   1    -0.03  -0.05  -0.02    -0.02  -0.03  -0.02     0.02   0.02   0.11
  34   1    -0.05  -0.10  -0.01    -0.06  -0.06  -0.00     0.09  -0.05   0.08
  35   7    -0.12  -0.24  -0.13    -0.11  -0.11   0.05     0.13  -0.21  -0.25
  36   1    -0.04  -0.09  -0.03    -0.05  -0.04   0.02     0.08  -0.10  -0.06
  37   1    -0.02  -0.04  -0.05    -0.01  -0.01   0.01     0.01  -0.05  -0.12
  38   6     0.07   0.10   0.18     0.03  -0.03  -0.06    -0.03   0.00  -0.00
  39   8     0.08   0.04   0.17    -0.03   0.15  -0.04    -0.04  -0.13  -0.07
  40   7     0.08   0.08   0.22     0.04  -0.11  -0.06    -0.07   0.13   0.08
  41   1     0.02  -0.00   0.05    -0.00  -0.01  -0.01    -0.02   0.03   0.02
  42   1     0.02   0.03   0.06     0.02  -0.07  -0.02    -0.01   0.06   0.04
  43   7     0.08   0.24   0.23     0.09  -0.14  -0.12     0.01   0.01  -0.01
  44   1     0.02   0.07   0.07     0.03  -0.07  -0.03     0.01   0.03   0.01
  45   1     0.02   0.07   0.05     0.02  -0.02  -0.03     0.01  -0.02  -0.02
  46   6    -0.06   0.06   0.03     0.11  -0.11   0.08     0.08  -0.05  -0.06
  47   8    -0.06   0.04  -0.01     0.12  -0.10   0.11     0.05   0.10  -0.19
  48   7    -0.05   0.15   0.05     0.17  -0.37   0.12     0.19  -0.11   0.00
  49   1    -0.01   0.05   0.00     0.05  -0.13   0.05     0.05   0.00  -0.02
  50   1    -0.01   0.05   0.02     0.05  -0.10   0.04     0.05  -0.06   0.02
  51   7    -0.09   0.01   0.06     0.07   0.10   0.05     0.04  -0.20   0.01
  52   1    -0.03   0.01   0.03     0.02   0.01   0.01     0.02  -0.08   0.03
  53   1    -0.03  -0.01   0.02     0.01   0.06   0.00    -0.00  -0.04  -0.01
                      7                      8                      9
                        a                      a                      a 
 Frequencies --    36.1991                40.0040                45.0101
 Red. masses --    12.2625                12.6591                12.5716
 Frc consts  --     0.0000                 0.0000                 0.0000
 IR Inten    --     4.4931                 1.9073                 0.9796
 Raman Activ --     0.0000                 0.0000                 0.0000
 Depolar     --     0.0000                 0.0000                 0.0000
 Atom AN      X      Y      Z        X      Y      Z        X      Y      Z
   1   8    -0.13   0.06  -0.07     0.07   0.09  -0.14     0.10  -0.07   0.02
   2   6    -0.13   0.04  -0.09     0.01   0.09  -0.08     0.09  -0.05   0.05
   3   1    -0.03   0.01  -0.05    -0.00   0.03  -0.03     0.02  -0.01   0.03
   4   1    -0.06  -0.00  -0.02    -0.01   0.03  -0.02     0.04  -0.01   0.01
   5   6    -0.08   0.09  -0.01     0.01   0.04  -0.02     0.05  -0.11   0.01
   6   1    -0.04   0.03   0.02     0.00   0.02  -0.02     0.03  -0.05   0.01
   7   1    -0.03   0.02  -0.00    -0.00   0.02   0.01    -0.00  -0.04  -0.01
   8   7     0.03   0.13  -0.01     0.03  -0.07   0.00     0.02  -0.05  -0.01
   9   6     0.03   0.14   0.02     0.00  -0.12  -0.09     0.16  -0.01   0.05
  10   1    -0.00   0.05   0.02     0.00  -0.03  -0.04     0.06  -0.04   0.03
  11   1     0.03   0.05   0.01    -0.00  -0.06  -0.02     0.04   0.01   0.01
  12   1     0.00   0.03  -0.01     0.00  -0.03  -0.03     0.06   0.02   0.02
  13   6     0.08   0.18   0.06     0.04  -0.06   0.07    -0.08  -0.18  -0.04
  14   1     0.01   0.06   0.03     0.01  -0.00   0.01    -0.00  -0.09   0.00
  15   1     0.02   0.05   0.01     0.02  -0.00   0.04    -0.06  -0.06  -0.03
  16   1     0.04   0.06   0.02     0.01  -0.04   0.03    -0.03  -0.04  -0.02
  17   6     0.09   0.08  -0.09     0.05  -0.13   0.06    -0.08   0.12  -0.06
  18   1     0.03   0.02  -0.03     0.02  -0.02   0.04    -0.05   0.03  -0.03
  19   1     0.02   0.01  -0.04     0.01  -0.04  -0.00    -0.00   0.07  -0.01
  20   1     0.05   0.03  -0.02     0.02  -0.06   0.03    -0.03   0.05  -0.02
  21   1    -0.04   0.01   0.00     0.00   0.03  -0.01     0.02  -0.01   0.01
  22   6    -0.08  -0.19  -0.06    -0.09   0.07   0.11     0.01   0.03  -0.02
  23   8    -0.14  -0.04   0.08    -0.14   0.16   0.17    -0.05   0.15   0.03
  24   7    -0.06  -0.42  -0.15    -0.15   0.13   0.15     0.06  -0.06  -0.08
  25   1    -0.02  -0.10  -0.03    -0.05   0.06   0.05     0.01  -0.00  -0.02
  26   1    -0.00  -0.14  -0.07    -0.03   0.02   0.03     0.03  -0.03  -0.03
  27   7    -0.06  -0.19  -0.14    -0.02  -0.06   0.03     0.02   0.01  -0.04
  28   1    -0.00  -0.10  -0.07    -0.00  -0.03  -0.00     0.02  -0.02  -0.02
  29   1    -0.02  -0.03  -0.02    -0.00  -0.03  -0.00    -0.00   0.01   0.00
  30   6     0.02   0.01   0.06     0.04  -0.04   0.00    -0.03   0.01  -0.05
  31   8     0.25   0.16   0.02     0.07  -0.27   0.07    -0.08   0.10  -0.08
  32   7    -0.12  -0.11   0.00     0.02   0.06  -0.17     0.00  -0.01   0.04
  33   1    -0.00  -0.01  -0.02     0.00  -0.02  -0.07    -0.00   0.01   0.02
  34   1    -0.07  -0.05   0.01    -0.00   0.06  -0.06     0.01  -0.02   0.02
  35   7    -0.10  -0.04   0.19     0.03   0.13   0.09    -0.00  -0.06  -0.11
  36   1    -0.07  -0.03   0.06    -0.00   0.08   0.01     0.01  -0.03  -0.03
  37   1     0.00   0.02   0.06     0.01   0.02   0.06    -0.01  -0.01  -0.05
  38   6     0.04  -0.03  -0.01    -0.01   0.03   0.05    -0.03   0.04   0.01
  39   8    -0.00  -0.00  -0.05    -0.02  -0.22  -0.07    -0.05   0.05   0.00
  40   7     0.00   0.11   0.09    -0.11   0.41   0.25    -0.11   0.41   0.14
  41   1    -0.01   0.03   0.03    -0.04   0.10   0.07    -0.03   0.11   0.04
  42   1     0.01  -0.00   0.03    -0.02   0.14   0.09    -0.02   0.06   0.03
  43   7     0.14  -0.22  -0.09     0.09  -0.09  -0.01     0.06  -0.34  -0.10
  44   1     0.04  -0.03  -0.01     0.03   0.06   0.03     0.01  -0.03  -0.01
  45   1     0.04  -0.05  -0.04     0.04  -0.07  -0.03     0.02  -0.11  -0.04
  46   6     0.05   0.07   0.06     0.02  -0.04  -0.12    -0.01  -0.01   0.06
  47   8     0.02   0.22   0.09    -0.01   0.07  -0.21     0.08  -0.36   0.24
  48   7     0.03   0.01   0.05     0.07  -0.01  -0.09    -0.17   0.17  -0.03
  49   1    -0.01   0.02   0.01     0.02   0.03  -0.04    -0.04  -0.01   0.01
  50   1     0.01  -0.02   0.01     0.02  -0.02  -0.01    -0.05   0.11  -0.04
  51   7     0.12  -0.02   0.06     0.01  -0.21  -0.06     0.02   0.23  -0.03
  52   1     0.04  -0.03   0.01     0.01  -0.07   0.00    -0.02   0.12  -0.04
  53   1     0.04   0.01   0.02    -0.00  -0.06  -0.02     0.02   0.03   0.01
                     10                     11                     12
                        a                      a                      a 
 Frequencies --    48.2431                56.7626                61.8673
 Red. masses --    12.3385                12.9161                12.7790
 Frc consts  --     0.0000                 0.0000                 0.0000
 IR Inten    --     8.9839                 1.1286                 0.4174
 Raman Activ --     0.0000                 0.0000                 0.0000
 Depolar     --     0.0000                 0.0000                 0.0000
 Atom AN      X      Y      Z        X      Y      Z        X      Y      Z
   1   8    -0.08  -0.04  -0.06     0.03  -0.12   0.11    -0.03  -0.05   0.06
   2   6    -0.09  -0.02  -0.02     0.07  -0.11   0.05    -0.01  -0.05   0.02
   3   1    -0.02  -0.01  -0.01     0.02  -0.03   0.01     0.00  -0.02   0.00
   4   1    -0.04   0.00  -0.01     0.03  -0.04   0.02    -0.00  -0.02   0.01
   5   6    -0.07  -0.03   0.03     0.07  -0.07  -0.00     0.00  -0.02   0.01
   6   1    -0.02  -0.02   0.03     0.02  -0.02   0.00    -0.00  -0.00   0.01
   7   1    -0.04  -0.01   0.00     0.03  -0.03  -0.01     0.00  -0.01  -0.00
   8   7    -0.01   0.03   0.03     0.06  -0.01  -0.02     0.01   0.02  -0.00
   9   6     0.18   0.05   0.08    -0.02   0.03   0.03    -0.01   0.04   0.03
  10   1     0.07  -0.02   0.04    -0.02   0.02   0.02    -0.01   0.01   0.02
  11   1     0.06   0.02   0.02     0.00   0.02   0.01     0.00   0.02   0.01
  12   1     0.07   0.04   0.01    -0.02  -0.01   0.01    -0.01   0.01   0.01
  13   6    -0.07  -0.09   0.08     0.09   0.06  -0.07     0.02   0.04  -0.02
  14   1    -0.01  -0.06   0.04     0.02   0.02  -0.01     0.00   0.01   0.00
  15   1    -0.06  -0.03   0.01     0.04   0.01  -0.04     0.01   0.01  -0.01
  16   1    -0.01  -0.02   0.02     0.03   0.04  -0.02     0.01   0.02  -0.01
  17   6    -0.06   0.17  -0.09     0.09  -0.05  -0.04     0.02   0.02  -0.03
  18   1    -0.06   0.04  -0.04     0.04  -0.02  -0.02     0.01  -0.00  -0.02
  19   1     0.00   0.08  -0.04     0.02  -0.03   0.00     0.00   0.00  -0.00
  20   1    -0.01   0.06  -0.03     0.03   0.00  -0.02     0.01   0.01  -0.01
  21   1    -0.02  -0.01  -0.01     0.01  -0.03   0.01    -0.00  -0.01   0.01
  22   6    -0.06  -0.04   0.00     0.04   0.10  -0.03     0.06  -0.02   0.06
  23   8    -0.05  -0.10  -0.04     0.03   0.09  -0.09     0.03  -0.06  -0.02
  24   7    -0.17   0.18   0.11     0.01   0.26   0.02     0.16  -0.02   0.03
  25   1    -0.06   0.08   0.05    -0.00   0.09   0.02     0.05  -0.01  -0.02
  26   1    -0.05   0.06   0.05     0.01   0.08   0.02     0.05  -0.00   0.02
  27   7     0.02  -0.23  -0.08     0.09  -0.01  -0.05     0.00   0.03   0.18
  28   1    -0.00  -0.04  -0.01     0.02   0.01  -0.01     0.01   0.00   0.06
  29   1     0.01  -0.09  -0.04     0.03  -0.02  -0.03    -0.01  -0.01   0.04
  30   6     0.02   0.04   0.05     0.08   0.03  -0.00     0.07   0.05   0.05
  31   8     0.13   0.15   0.02     0.27   0.20  -0.06     0.23   0.20   0.01
  32   7    -0.05  -0.04   0.06    -0.03  -0.09  -0.03    -0.02  -0.05   0.04
  33   1     0.00   0.00   0.01     0.01  -0.00  -0.02     0.01   0.01  -0.00
  34   1    -0.03  -0.03   0.02    -0.04  -0.05   0.01    -0.03  -0.04   0.02
  35   7    -0.04  -0.02   0.11    -0.03  -0.05   0.09    -0.03  -0.02   0.14
  36   1    -0.03  -0.02   0.03    -0.04  -0.04   0.03    -0.03  -0.03   0.04
  37   1     0.01   0.02   0.02     0.02   0.02   0.02     0.02   0.02   0.03
  38   6    -0.03  -0.01  -0.02     0.02   0.02  -0.07    -0.08  -0.02   0.07
  39   8     0.01  -0.23  -0.09     0.07  -0.07  -0.07    -0.04  -0.22   0.05
  40   7    -0.02  -0.09  -0.02     0.01   0.13  -0.08    -0.12   0.11   0.09
  41   1    -0.00  -0.04  -0.01     0.01   0.03  -0.03    -0.02   0.01   0.01
  42   1    -0.01   0.05   0.01    -0.01   0.05  -0.03    -0.04   0.07   0.03
  43   7    -0.09   0.35   0.08    -0.03   0.02  -0.06    -0.15   0.08   0.12
  44   1    -0.02   0.08   0.02    -0.02   0.03  -0.01    -0.05   0.05   0.03
  45   1    -0.02   0.06   0.01    -0.01  -0.01  -0.01    -0.03  -0.01   0.03
  46   6     0.14  -0.03  -0.06    -0.21  -0.07   0.09    -0.02  -0.01  -0.20
  47   8     0.22  -0.25  -0.01    -0.30   0.11   0.24    -0.03   0.00  -0.12
  48   7     0.03   0.32  -0.13    -0.39  -0.04  -0.01    -0.02  -0.39  -0.23
  49   1     0.01   0.09  -0.04    -0.16   0.04  -0.00    -0.01  -0.16  -0.03
  50   1     0.01   0.12  -0.05    -0.10  -0.05  -0.04    -0.01  -0.09  -0.08
  51   7     0.19  -0.12  -0.05    -0.00  -0.35   0.06    -0.04   0.38  -0.34
  52   1     0.03   0.03  -0.02     0.01  -0.11  -0.01     0.01   0.06  -0.10
  53   1     0.05  -0.07  -0.00     0.02  -0.07   0.03     0.01   0.08  -0.08
                     13                     14                     15
                        a                      a                      a 
 Frequencies --    67.9608                77.5783                81.9454
 Red. masses --    13.2449                13.0084                12.4486
 Frc consts  --     0.0000                 0.0000                 0.0000
 IR Inten    --     7.2833                11.0727                 2.0417
 Raman Activ --     0.0000                 0.0000                 0.0000
 Depolar     --     0.0000                 0.0000                 0.0000
 Atom AN      X      Y      Z        X      Y      Z        X      Y      Z
   1   8    -0.17  -0.09   0.01     0.18   0.09  -0.26    -0.10   0.01  -0.15
   2   6    -0.18  -0.11  -0.04     0.04   0.09  -0.16    -0.09   0.03  -0.09
   3   1    -0.05  -0.03  -0.04     0.00   0.04  -0.05    -0.01  -0.00  -0.04
   4   1    -0.07  -0.05  -0.01    -0.00   0.04  -0.05    -0.05   0.01  -0.02
   5   6    -0.15  -0.08   0.01     0.03  -0.02  -0.05    -0.03   0.07   0.03
   6   1    -0.05  -0.01   0.02     0.02  -0.01  -0.02    -0.02   0.04   0.01
   7   1    -0.04  -0.02   0.00    -0.01   0.01   0.01    -0.00   0.03   0.02
   8   7    -0.08  -0.05   0.01     0.07  -0.16  -0.02     0.08   0.01   0.05
   9   6    -0.12  -0.03   0.03     0.04  -0.21  -0.12    -0.03  -0.02  -0.01
  10   1    -0.05   0.00   0.02     0.01  -0.05  -0.05    -0.02   0.02  -0.01
  11   1    -0.02  -0.00   0.01     0.01  -0.08  -0.03    -0.00  -0.02   0.00
  12   1    -0.05  -0.03   0.00     0.01  -0.06  -0.05    -0.02  -0.03  -0.01
  13   6    -0.01   0.04   0.04     0.09  -0.13   0.06     0.17   0.14   0.13
  14   1    -0.02   0.03   0.02     0.02  -0.03   0.02     0.03   0.07   0.04
  15   1     0.01   0.01   0.01     0.03  -0.03   0.03     0.07   0.05   0.05
  16   1     0.01   0.01   0.01     0.04  -0.05   0.02     0.07   0.03   0.04
  17   6    -0.00  -0.12  -0.04     0.10  -0.22   0.04     0.19  -0.16   0.05
  18   1     0.01  -0.04  -0.02     0.04  -0.06   0.02     0.08  -0.04   0.03
  19   1    -0.01  -0.06  -0.02     0.02  -0.08   0.01     0.03  -0.08   0.00
  20   1     0.02  -0.03  -0.01     0.02  -0.07   0.01     0.07  -0.05   0.02
  21   1    -0.01  -0.04  -0.02     0.03   0.02  -0.04    -0.03   0.00  -0.03
  22   6     0.07  -0.03  -0.05    -0.04   0.03   0.03    -0.01  -0.06  -0.01
  23   8     0.24  -0.40  -0.30    -0.06   0.11   0.10    -0.05  -0.09  -0.08
  24   7     0.04   0.19   0.04    -0.03  -0.06  -0.00    -0.03   0.13   0.06
  25   1     0.03  -0.00  -0.02    -0.01  -0.03  -0.00    -0.01   0.06   0.02
  26   1    -0.03   0.11   0.06    -0.00  -0.04  -0.02     0.00   0.04   0.04
  27   7    -0.05   0.16   0.11    -0.03   0.06   0.00     0.04  -0.21  -0.01
  28   1    -0.04   0.13   0.08    -0.01  -0.00  -0.01     0.01  -0.05   0.01
  29   1    -0.00   0.02   0.01    -0.01   0.02   0.00     0.01  -0.08  -0.01
  30   6    -0.01   0.05   0.04    -0.06   0.18   0.11    -0.13  -0.02  -0.08
  31   8     0.01   0.16   0.01    -0.11   0.53   0.03    -0.36  -0.06  -0.08
  32   7    -0.03  -0.00   0.09    -0.05   0.05   0.36     0.01   0.06   0.03
  33   1     0.00   0.02   0.03    -0.00   0.08   0.13    -0.03   0.01   0.04
  34   1    -0.01  -0.02   0.03     0.01  -0.04   0.12     0.04   0.02   0.00
  35   7    -0.03  -0.02   0.03    -0.07  -0.06   0.00    -0.01  -0.03  -0.25
  36   1    -0.01  -0.02   0.01    -0.01  -0.08   0.01     0.04  -0.01  -0.07
  37   1    -0.00   0.01  -0.00    -0.02   0.01  -0.05    -0.03  -0.03  -0.09
  38   6     0.02   0.07  -0.00    -0.00  -0.02  -0.00     0.01  -0.01   0.01
  39   8     0.04   0.09   0.01    -0.04   0.01  -0.02     0.09  -0.15   0.01
  40   7    -0.02   0.35   0.04     0.00  -0.09   0.01     0.00   0.10  -0.02
  41   1     0.01   0.04  -0.01    -0.01  -0.01   0.01     0.01   0.00  -0.02
  42   1    -0.00   0.02  -0.01     0.00  -0.01   0.01    -0.01   0.04  -0.01
  43   7     0.06  -0.22  -0.08     0.03   0.03  -0.00    -0.07   0.04   0.05
  44   1    -0.00   0.03  -0.00     0.02  -0.01  -0.00    -0.03   0.04   0.01
  45   1     0.01  -0.03  -0.01     0.01   0.01  -0.01    -0.02  -0.01   0.02
  46   6     0.08   0.01  -0.00    -0.03  -0.03  -0.03     0.07   0.05   0.09
  47   8     0.10   0.01  -0.13    -0.03  -0.03  -0.09     0.06   0.09   0.36
  48   7     0.19   0.09   0.07     0.01   0.00   0.00    -0.12  -0.12  -0.04
  49   1     0.07   0.04   0.00     0.01   0.01  -0.01    -0.07  -0.05   0.02
  50   1     0.05   0.02   0.04     0.00   0.00   0.01    -0.03  -0.04  -0.06
  51   7     0.01  -0.09   0.08    -0.07  -0.09   0.01     0.27   0.18  -0.05
  52   1    -0.00  -0.01   0.04    -0.02  -0.02   0.01     0.08   0.03  -0.06
  53   1    -0.02  -0.02   0.01    -0.03  -0.02  -0.00     0.11   0.04   0.01
                     16                     17                     18
                        a                      a                      a 
 Frequencies --    92.6316               100.7639               107.3327
 Red. masses --    12.0828                12.1762                12.6203
 Frc consts  --     0.0000                 0.0000                 0.0000
 IR Inten    --     5.8740                 6.9342                 5.0678
 Raman Activ --     0.0000                 0.0000                 0.0000
 Depolar     --     0.0000                 0.0000                 0.0000
 Atom AN      X      Y      Z        X      Y      Z        X      Y      Z
   1   8    -0.02  -0.12  -0.22     0.03  -0.01  -0.05     0.06   0.03  -0.00
   2   6     0.14   0.02  -0.02     0.10  -0.00  -0.07     0.00   0.06   0.07
   3   1     0.06  -0.03   0.04     0.03  -0.01  -0.00    -0.00   0.02   0.03
   4   1     0.06   0.06  -0.01     0.05  -0.00  -0.02    -0.00   0.03   0.02
   5   6     0.18   0.11  -0.03     0.09   0.04  -0.17     0.00   0.00   0.13
   6   1     0.04   0.05  -0.02     0.02   0.02  -0.07     0.00  -0.00   0.04
   7   1     0.07   0.04  -0.01     0.05   0.01  -0.05    -0.01   0.00   0.05
   8   7     0.15   0.10  -0.04    -0.03   0.03  -0.19     0.04  -0.04   0.15
   9   6     0.33   0.08  -0.05    -0.15   0.02  -0.19     0.20  -0.06   0.12
  10   1     0.11  -0.01  -0.01    -0.04   0.02  -0.08     0.07  -0.04   0.04
  11   1     0.09   0.01  -0.01    -0.06   0.00  -0.06     0.06  -0.03   0.04
  12   1     0.11   0.05  -0.02    -0.05  -0.00  -0.04     0.07   0.01   0.02
  13   6     0.02  -0.10  -0.02    -0.01   0.08  -0.26    -0.03  -0.17   0.21
  14   1     0.03  -0.06  -0.00    -0.00   0.03  -0.09     0.00  -0.07   0.06
  15   1    -0.04  -0.03  -0.01     0.02   0.02  -0.08    -0.04  -0.04   0.07
  16   1    -0.00  -0.03  -0.00    -0.02   0.03  -0.08    -0.00  -0.06   0.06
  17   6     0.00   0.29  -0.03    -0.03  -0.03  -0.05    -0.02   0.08   0.08
  18   1    -0.05   0.09  -0.01     0.01   0.00   0.00    -0.04   0.02   0.02
  19   1     0.03   0.13  -0.01    -0.01  -0.02  -0.00     0.01   0.05   0.02
  20   1    -0.01   0.07  -0.01    -0.03  -0.02  -0.01    -0.00   0.03   0.02
  21   1    -0.02  -0.01  -0.08     0.01   0.00  -0.02     0.02   0.00  -0.01
  22   6    -0.04  -0.11   0.00     0.02  -0.07  -0.06     0.04  -0.07  -0.07
  23   8     0.05  -0.33  -0.14     0.06  -0.09  -0.04     0.12  -0.11  -0.03
  24   7    -0.01  -0.08   0.00    -0.17   0.16   0.07    -0.19   0.13   0.07
  25   1     0.01  -0.06  -0.03    -0.06   0.08   0.06    -0.06   0.05   0.05
  26   1    -0.03   0.01   0.03    -0.05   0.05   0.02    -0.05   0.03   0.01
  27   7    -0.17   0.10   0.15     0.18  -0.34  -0.25     0.17  -0.26  -0.27
  28   1    -0.06   0.07   0.06     0.03  -0.06  -0.06     0.02  -0.04  -0.07
  29   1    -0.03   0.01   0.03     0.04  -0.07  -0.05     0.04  -0.04  -0.06
  30   6    -0.07  -0.01   0.11     0.01   0.01   0.19     0.01   0.01  -0.14
  31   8    -0.21  -0.13   0.17    -0.00  -0.07   0.25     0.05   0.13  -0.19
  32   7     0.02   0.09   0.15     0.02   0.06   0.17    -0.02  -0.05  -0.11
  33   1    -0.01   0.01   0.05     0.01   0.01   0.04    -0.00  -0.00  -0.03
  34   1     0.03   0.04   0.03     0.02   0.04   0.03    -0.02  -0.04  -0.02
  35   7     0.02   0.06   0.05     0.02   0.09   0.23    -0.02  -0.08  -0.16
  36   1     0.02   0.03   0.01    -0.01   0.03   0.06     0.00  -0.03  -0.04
  37   1    -0.02  -0.01   0.02    -0.00   0.00   0.08     0.01   0.00  -0.06
  38   6     0.00   0.00  -0.00     0.02   0.02   0.08    -0.00   0.02   0.07
  39   8    -0.00  -0.04  -0.03     0.05   0.12   0.16     0.01   0.12   0.15
  40   7    -0.01   0.07   0.03     0.03   0.04   0.02     0.01   0.02   0.02
  41   1    -0.00  -0.02  -0.00     0.02  -0.00  -0.00     0.01  -0.00  -0.00
  42   1     0.00  -0.00   0.01     0.00  -0.04  -0.02    -0.00  -0.04  -0.01
  43   7     0.03  -0.00  -0.01    -0.03  -0.12   0.07    -0.03  -0.14   0.06
  44   1     0.01   0.03   0.01    -0.02  -0.01   0.01    -0.03   0.00   0.02
  45   1     0.01   0.01  -0.01    -0.02  -0.00   0.04    -0.02   0.01   0.04
  46   6    -0.10   0.00  -0.02    -0.04  -0.00   0.03    -0.09   0.10  -0.06
  47   8    -0.17   0.17  -0.00    -0.01  -0.14   0.02    -0.15   0.27  -0.20
  48   7    -0.14  -0.07  -0.03    -0.01  -0.02   0.05     0.06  -0.09   0.05
  49   1    -0.06   0.01  -0.01     0.02  -0.04   0.02     0.03  -0.01   0.00
  50   1    -0.03  -0.04  -0.02    -0.01   0.02   0.02     0.01  -0.04   0.04
  51   7    -0.04  -0.14  -0.01    -0.12   0.19   0.01    -0.21   0.11  -0.01
  52   1     0.00  -0.07  -0.01    -0.04   0.06   0.00    -0.04  -0.02   0.03
  53   1    -0.01  -0.02  -0.00    -0.03   0.03   0.01    -0.06   0.03  -0.01
                     19                     20                     21
                        a                      a                      a 
 Frequencies --   113.7080               120.5128               135.9668
 Red. masses --    11.9299                12.3222                12.4789
 Frc consts  --     0.0000                 0.0000                 0.0000
 IR Inten    --    18.4276                 1.4877                10.0743
 Raman Activ --     0.0000                 0.0000                 0.0000
 Depolar     --     0.0000                 0.0000                 0.0000
 Atom AN      X      Y      Z        X      Y      Z        X      Y      Z
   1   8    -0.01   0.15  -0.02     0.24   0.17   0.19     0.17   0.03  -0.05
   2   6     0.15   0.23   0.10    -0.08  -0.05  -0.08     0.12   0.06   0.05
   3   1     0.05   0.04   0.08    -0.04   0.04  -0.11     0.01   0.03   0.06
   4   1     0.08   0.11   0.02    -0.07  -0.09  -0.01     0.07   0.05   0.01
   5   6     0.15   0.28   0.04    -0.09  -0.14   0.01     0.01  -0.08  -0.05
   6   1     0.03   0.10  -0.04    -0.01  -0.07   0.05     0.03  -0.04  -0.04
   7   1     0.08   0.11   0.04    -0.07  -0.06  -0.02    -0.01  -0.02  -0.01
   8   7     0.02   0.11   0.08     0.07   0.01  -0.02    -0.17  -0.12  -0.06
   9   6    -0.13  -0.00  -0.09     0.07   0.10   0.12    -0.12  -0.14  -0.09
  10   1    -0.04   0.02  -0.07     0.01   0.03   0.07    -0.03  -0.05  -0.03
  11   1    -0.06  -0.04  -0.02     0.04   0.06   0.03    -0.04  -0.05  -0.02
  12   1    -0.04  -0.01  -0.03     0.01   0.02   0.04    -0.03  -0.03  -0.03
  13   6     0.03   0.13   0.03     0.12   0.09   0.01    -0.22  -0.19  -0.14
  14   1     0.01   0.05  -0.01     0.02   0.04   0.02    -0.05  -0.07  -0.05
  15   1     0.03   0.05   0.03     0.04   0.02  -0.01    -0.07  -0.06  -0.04
  16   1    -0.01   0.02   0.01     0.05   0.04   0.00    -0.08  -0.05  -0.04
  17   6     0.03  -0.03   0.28     0.14  -0.01  -0.19    -0.27  -0.02   0.06
  18   1     0.04   0.01   0.12     0.04  -0.02  -0.08    -0.08  -0.00   0.02
  19   1    -0.00  -0.02   0.09     0.03  -0.02  -0.06    -0.06   0.02   0.04
  20   1    -0.02  -0.04   0.09     0.07   0.03  -0.06    -0.11  -0.02   0.01
  21   1     0.00   0.05  -0.03     0.10  -0.01   0.08     0.05   0.00  -0.02
  22   6    -0.00  -0.08  -0.03     0.10   0.03  -0.05     0.01  -0.03  -0.02
  23   8     0.18  -0.28  -0.07     0.34  -0.06   0.07     0.11  -0.11  -0.01
  24   7    -0.13  -0.06   0.01    -0.16  -0.03   0.01    -0.08  -0.01   0.02
  25   1    -0.03  -0.06   0.01    -0.05  -0.05   0.05    -0.02  -0.03   0.01
  26   1    -0.08   0.02   0.01    -0.09   0.01  -0.02    -0.04   0.01   0.00
  27   7    -0.06   0.08  -0.04     0.12   0.18  -0.22    -0.02   0.08  -0.03
  28   1    -0.04   0.07   0.00     0.01   0.06  -0.08    -0.01   0.01  -0.02
  29   1    -0.00   0.02  -0.02     0.04   0.05  -0.06     0.01  -0.00  -0.03
  30   6     0.06   0.01  -0.10    -0.05  -0.02   0.06     0.04   0.02  -0.00
  31   8     0.17   0.10  -0.15    -0.15  -0.12   0.10     0.10   0.06  -0.02
  32   7    -0.01  -0.06  -0.14     0.01   0.05   0.07    -0.00  -0.02  -0.01
  33   1     0.01  -0.01  -0.04    -0.01   0.00   0.03     0.01   0.01  -0.01
  34   1    -0.03  -0.04  -0.02     0.02   0.03   0.01    -0.01  -0.01  -0.00
  35   7    -0.01  -0.05  -0.06     0.01   0.03   0.01     0.00  -0.01   0.04
  36   1    -0.01  -0.02  -0.01     0.01   0.02   0.00    -0.01  -0.01   0.01
  37   1     0.02   0.01  -0.02    -0.02  -0.01   0.01     0.01   0.01   0.01
  38   6    -0.06  -0.03   0.01    -0.14  -0.06  -0.03    -0.04  -0.06  -0.05
  39   8    -0.17  -0.05  -0.08    -0.29  -0.14  -0.18    -0.07  -0.20  -0.14
  40   7    -0.09  -0.04   0.14    -0.18  -0.10   0.16    -0.07  -0.00   0.05
  41   1    -0.03  -0.04   0.03    -0.05  -0.03   0.05    -0.02  -0.02   0.01
  42   1    -0.01  -0.02   0.05    -0.03   0.01   0.07    -0.01   0.04   0.03
  43   7     0.06   0.02  -0.02     0.04   0.05  -0.06     0.02   0.06  -0.04
  44   1     0.04   0.00   0.01     0.04   0.00   0.01     0.02   0.03   0.00
  45   1     0.02   0.01  -0.03     0.02   0.00  -0.06     0.02  -0.00  -0.03
  46   6    -0.03  -0.12   0.02    -0.03   0.00   0.00     0.10   0.17   0.13
  47   8     0.03  -0.35   0.07    -0.03  -0.00   0.02     0.05   0.42   0.24
  48   7    -0.10   0.03  -0.02    -0.04  -0.03  -0.00     0.06  -0.02   0.08
  49   1    -0.01  -0.02   0.00    -0.01  -0.02   0.00    -0.02   0.00   0.03
  50   1    -0.03   0.05  -0.02    -0.01  -0.01  -0.00     0.02  -0.06   0.01
  51   7    -0.05  -0.03   0.00    -0.04   0.03  -0.01     0.27   0.14   0.06
  52   1    -0.03   0.04  -0.01    -0.01   0.01   0.00     0.09  -0.00  -0.01
  53   1    -0.02  -0.02   0.00    -0.02   0.00  -0.00     0.09   0.05   0.03
                     22                     23                     24
                        a                      a                      a 
 Frequencies --   155.1592               173.5331               180.1658
 Red. masses --    12.8575                12.8216                12.5459
 Frc consts  --     0.0000                 0.0000                 0.0000
 IR Inten    --    24.1132                 9.0526                33.3639
 Raman Activ --     0.0000                 0.0000                 0.0000
 Depolar     --     0.0000                 0.0000                 0.0000
 Atom AN      X      Y      Z        X      Y      Z        X      Y      Z
   1   8     0.18   0.13   0.06     0.09   0.11   0.07    -0.09  -0.07  -0.02
   2   6     0.04   0.06   0.00     0.02   0.05   0.00    -0.02  -0.04  -0.01
   3   1    -0.00   0.04  -0.01    -0.00   0.03  -0.02     0.00  -0.02   0.00
   4   1     0.01   0.00   0.00     0.00  -0.00   0.00    -0.00  -0.01  -0.00
   5   6     0.00  -0.04   0.00     0.01   0.01   0.00     0.01   0.03  -0.01
   6   1     0.02  -0.03   0.01     0.01  -0.01   0.00    -0.01   0.02  -0.01
   7   1    -0.02  -0.02  -0.00    -0.01  -0.00   0.00     0.02   0.02   0.00
   8   7    -0.01  -0.01  -0.00     0.02   0.01   0.01     0.00  -0.00  -0.00
   9   6    -0.03   0.01   0.02     0.01   0.01   0.01     0.02  -0.02  -0.03
  10   1    -0.01   0.00   0.01     0.01  -0.00  -0.00     0.01  -0.01  -0.01
  11   1    -0.01   0.01   0.00    -0.00   0.00   0.00     0.00  -0.01  -0.01
  12   1    -0.01  -0.00   0.01     0.00   0.01   0.01     0.01  -0.00  -0.01
  13   6    -0.01   0.00  -0.03     0.02   0.01   0.01    -0.01  -0.02   0.02
  14   1    -0.00   0.00  -0.01     0.00   0.01  -0.00    -0.00  -0.01   0.01
  15   1     0.00  -0.00  -0.01     0.01   0.01   0.00    -0.01  -0.01   0.01
  16   1    -0.01   0.00  -0.01     0.00   0.00   0.00     0.00  -0.01   0.01
  17   6    -0.01  -0.01  -0.00     0.02   0.00   0.00    -0.01   0.00   0.01
  18   1     0.00  -0.01  -0.00     0.01   0.00   0.00    -0.01   0.01   0.01
  19   1    -0.00  -0.01   0.01     0.00  -0.00  -0.00     0.00   0.01  -0.00
  20   1    -0.01   0.00  -0.00     0.01   0.00   0.00    -0.00  -0.01   0.01
  21   1     0.06   0.01   0.04     0.02   0.01   0.04    -0.03  -0.01  -0.01
  22   6     0.03  -0.07   0.13     0.02  -0.08   0.14     0.12  -0.09   0.16
  23   8     0.08  -0.12   0.19     0.05  -0.11   0.20    -0.04  -0.05   0.08
  24   7    -0.09  -0.14   0.17    -0.09  -0.15   0.19     0.27   0.09   0.19
  25   1    -0.03  -0.07   0.06    -0.02  -0.08   0.06     0.07   0.09   0.03
  26   1    -0.05  -0.04   0.02    -0.03  -0.06   0.01     0.12   0.02   0.09
  27   7     0.02  -0.05   0.08     0.01  -0.03   0.11     0.18  -0.34   0.20
  28   1    -0.02   0.02   0.03    -0.01  -0.01   0.01     0.06  -0.08   0.07
  29   1     0.01   0.01   0.04     0.03  -0.02   0.01     0.02  -0.09   0.07
  30   6     0.00  -0.00   0.00     0.00  -0.00  -0.00    -0.00   0.00  -0.00
  31   8     0.00  -0.01   0.00     0.00  -0.00  -0.00     0.00   0.01  -0.00
  32   7     0.00   0.00  -0.00    -0.00  -0.00  -0.00     0.00   0.00   0.00
  33   1     0.00  -0.00  -0.00     0.00   0.00  -0.00    -0.00  -0.00   0.00
  34   1     0.00   0.00  -0.00     0.00   0.00  -0.00    -0.00  -0.01   0.00
  35   7     0.00   0.00   0.00     0.00   0.00   0.00    -0.01  -0.01  -0.00
  36   1    -0.00  -0.00   0.00    -0.00  -0.00   0.00     0.01   0.01  -0.00
  37   1    -0.00  -0.00   0.00    -0.00  -0.00   0.00     0.01   0.01  -0.00
  38   6    -0.13   0.15  -0.03     0.04  -0.01  -0.25    -0.13   0.08  -0.16
  39   8    -0.07   0.44   0.15     0.27  -0.25  -0.21    -0.32   0.25  -0.29
  40   7    -0.08   0.08  -0.20     0.05   0.23  -0.41    -0.14  -0.06   0.03
  41   1    -0.01   0.02  -0.06     0.04   0.04  -0.13    -0.08  -0.01   0.02
  42   1    -0.02  -0.09  -0.09    -0.01   0.09  -0.12    -0.00  -0.04   0.03
  43   7    -0.27  -0.14  -0.05    -0.20   0.05  -0.19     0.21   0.13  -0.30
  44   1    -0.12   0.01  -0.03    -0.10   0.09  -0.06     0.13  -0.06  -0.05
  45   1    -0.11   0.06   0.06    -0.05  -0.02  -0.02     0.07   0.04  -0.16
  46   6     0.10  -0.05  -0.11    -0.07   0.02   0.08    -0.03   0.04   0.02
  47   8     0.08   0.03   0.02    -0.05  -0.09  -0.03    -0.03   0.04  -0.00
  48   7    -0.07  -0.01  -0.23     0.06   0.04   0.17     0.01  -0.02   0.05
  49   1    -0.07   0.03  -0.06     0.06  -0.02   0.04     0.01  -0.00   0.01
  50   1    -0.02  -0.02  -0.11     0.01   0.03   0.08     0.00   0.00   0.02
  51   7     0.29  -0.23  -0.15    -0.24   0.17   0.10    -0.05   0.05   0.03
  52   1     0.08  -0.06  -0.07    -0.06   0.04   0.05    -0.02   0.04   0.01
  53   1     0.09  -0.02  -0.04    -0.07   0.01   0.03    -0.03   0.03  -0.00
                     25                     26                     27
                        a                      a                      a 
 Frequencies --   194.7880               201.8174               209.3082
 Red. masses --    10.1788                 3.8800                 2.4619
 Frc consts  --     0.0000                 0.0000                 0.0000
 IR Inten    --    20.6141                 6.9556               132.3736
 Raman Activ --     0.0000                 0.0000                 0.0000
 Depolar     --     0.0000                 0.0000                 0.0000
 Atom AN      X      Y      Z        X      Y      Z        X      Y      Z
   1   8    -0.33   0.05   0.44     0.07  -0.01  -0.10     0.00  -0.01  -0.02
   2   6    -0.09  -0.12  -0.05     0.02   0.04   0.03     0.00   0.01   0.00
   3   1     0.01  -0.05  -0.09    -0.00   0.01   0.03     0.00   0.00   0.01
   4   1    -0.04  -0.14   0.00     0.01   0.04   0.00     0.00   0.01   0.00
   5   6     0.04   0.26  -0.16    -0.01  -0.05   0.05    -0.00  -0.01   0.01
   6   1    -0.05   0.16  -0.10     0.01  -0.04   0.03     0.00  -0.01   0.00
   7   1     0.12   0.12  -0.00    -0.03  -0.03   0.01    -0.01  -0.01   0.00
   8   7     0.05  -0.02  -0.12    -0.01   0.01   0.04    -0.00   0.00   0.01
   9   6     0.15  -0.16  -0.31    -0.03   0.04   0.08    -0.01   0.01   0.02
  10   1     0.09  -0.08  -0.16    -0.02   0.02   0.04    -0.01   0.00   0.01
  11   1    -0.03  -0.09  -0.08     0.01   0.02   0.02     0.00   0.01   0.01
  12   1     0.09   0.01  -0.06    -0.02  -0.00   0.01    -0.01   0.00   0.00
  13   6    -0.01  -0.18   0.12    -0.00   0.04  -0.02     0.00   0.01  -0.01
  14   1     0.00  -0.08   0.06    -0.00   0.02  -0.02    -0.00   0.00  -0.00
  15   1    -0.06  -0.04   0.04     0.01   0.01  -0.00     0.00   0.00  -0.00
  16   1     0.03  -0.07   0.04    -0.02   0.01  -0.01    -0.00   0.00  -0.00
  17   6     0.01  -0.01  -0.03     0.00   0.00   0.01    -0.00   0.00   0.00
  18   1    -0.05   0.05   0.06     0.02  -0.01  -0.02     0.00  -0.00  -0.00
  19   1     0.02   0.03  -0.10    -0.00  -0.01   0.02    -0.00  -0.00   0.01
  20   1     0.03  -0.09   0.02     0.00   0.03  -0.01    -0.00   0.01  -0.00
  21   1    -0.07  -0.00   0.11     0.02   0.00  -0.03    -0.00   0.00  -0.01
  22   6     0.05   0.04   0.02    -0.01  -0.01  -0.00    -0.00   0.02   0.00
  23   8     0.11   0.06   0.08    -0.03  -0.02  -0.02    -0.04   0.06   0.00
  24   7    -0.02  -0.04   0.02     0.01   0.02   0.00     0.05   0.02  -0.01
  25   1    -0.01  -0.02   0.03     0.01   0.00  -0.01     0.01   0.02  -0.01
  26   1    -0.03  -0.00  -0.01     0.01  -0.00   0.00     0.03  -0.00  -0.00
  27   7     0.07   0.10  -0.06    -0.01  -0.03   0.02    -0.00   0.01   0.02
  28   1     0.01   0.01  -0.03    -0.00  -0.00   0.01     0.01  -0.03  -0.01
  29   1     0.03   0.03  -0.02    -0.01  -0.01   0.01    -0.00  -0.02  -0.01
  30   6    -0.00   0.01  -0.01    -0.00  -0.02  -0.03     0.00  -0.00  -0.00
  31   8     0.00   0.04  -0.01     0.02  -0.00  -0.03     0.00  -0.00   0.00
  32   7    -0.05  -0.05   0.04    -0.17  -0.22   0.08     0.00  -0.00  -0.00
  33   1     0.05   0.07  -0.02     0.22   0.26  -0.10     0.00  -0.00  -0.00
  34   1     0.06   0.08  -0.03     0.27   0.33  -0.17    -0.00   0.00  -0.00
  35   7     0.04   0.06  -0.02     0.19   0.24  -0.07     0.00   0.00   0.00
  36   1    -0.07  -0.10   0.02    -0.31  -0.41   0.09    -0.00  -0.00   0.00
  37   1    -0.06  -0.07   0.02    -0.24  -0.30   0.09    -0.00  -0.00   0.00
  38   6    -0.02  -0.00   0.00     0.00   0.00  -0.00    -0.02   0.02   0.00
  39   8    -0.01  -0.01   0.01    -0.01   0.01  -0.01    -0.06  -0.07  -0.06
  40   7    -0.01  -0.00  -0.01    -0.00  -0.00   0.01     0.01  -0.05   0.02
  41   1     0.00   0.00  -0.00    -0.00  -0.00   0.00     0.00  -0.11  -0.02
  42   1    -0.00  -0.01  -0.01     0.00  -0.00   0.00     0.02  -0.22  -0.04
  43   7    -0.04  -0.03   0.01     0.02   0.01  -0.01     0.12  -0.25  -0.05
  44   1    -0.02   0.04   0.01     0.01  -0.01  -0.00    -0.09   0.74   0.17
  45   1    -0.02   0.02   0.02     0.01  -0.00  -0.01    -0.09   0.48   0.07
  46   6     0.02   0.01   0.01    -0.01  -0.00  -0.01     0.00  -0.01   0.01
  47   8     0.01   0.04   0.05    -0.00  -0.01  -0.01     0.00  -0.02   0.01
  48   7    -0.02  -0.00  -0.01     0.00  -0.00   0.00     0.01   0.02   0.01
  49   1    -0.01  -0.00   0.00     0.00   0.00  -0.00     0.01  -0.01   0.00
  50   1    -0.00  -0.01  -0.01     0.00   0.00   0.00     0.00  -0.00   0.01
  51   7     0.07  -0.00  -0.00    -0.02   0.00  -0.00    -0.02   0.04   0.00
  52   1     0.02  -0.01  -0.01    -0.01   0.00   0.00     0.01  -0.02   0.01
  53   1     0.02   0.00   0.00    -0.01  -0.00  -0.00    -0.00  -0.02   0.01
                     28                     29                     30
                        a                      a                      a 
 Frequencies --   251.7231               277.4914               309.9974
 Red. masses --    13.0993                 4.7402                 9.3339
 Frc consts  --     0.0000                 0.0000                 0.0000
 IR Inten    --    18.2465                 3.8899                 1.4355
 Raman Activ --     0.0000                 0.0000                 0.0000
 Depolar     --     0.0000                 0.0000                 0.0000
 Atom AN      X      Y      Z        X      Y      Z        X      Y      Z
   1   8    -0.16  -0.42  -0.43    -0.25  -0.04   0.02     0.42  -0.15   0.06
   2   6    -0.10  -0.21  -0.05     0.10   0.15   0.23     0.04  -0.15   0.12
   3   1     0.00  -0.10   0.01     0.01   0.01   0.22    -0.00  -0.02  -0.00
   4   1    -0.06   0.02  -0.02     0.17   0.14   0.05    -0.01  -0.06   0.04
   5   6     0.01   0.02   0.07    -0.06  -0.00  -0.06    -0.03  -0.06   0.03
   6   1    -0.03   0.05   0.02     0.02  -0.04  -0.03    -0.02  -0.01   0.01
   7   1     0.06   0.01   0.02    -0.05  -0.01  -0.02     0.03  -0.04  -0.04
   8   7    -0.04   0.08   0.06    -0.05  -0.03  -0.08    -0.11   0.13  -0.02
   9   6    -0.06   0.03  -0.02     0.05  -0.06  -0.12    -0.09  -0.09  -0.34
  10   1    -0.04   0.04   0.01    -0.09   0.07   0.09    -0.09   0.06  -0.08
  11   1     0.03  -0.02   0.01     0.21  -0.03  -0.01     0.08  -0.13  -0.06
  12   1    -0.04  -0.01  -0.06    -0.07  -0.10  -0.20    -0.08  -0.06  -0.24
  13   6    -0.03   0.10   0.01     0.00  -0.03   0.15     0.02   0.23   0.37
  14   1    -0.01   0.04  -0.01    -0.00   0.06  -0.07    -0.04   0.14   0.08
  15   1     0.01   0.03   0.01     0.05   0.07   0.18     0.03   0.12   0.21
  16   1    -0.02   0.02   0.00    -0.03  -0.16   0.07     0.07  -0.04   0.14
  17   6    -0.08   0.09   0.14     0.05  -0.04  -0.27    -0.12   0.18  -0.10
  18   1    -0.05   0.06   0.08     0.21  -0.20  -0.31    -0.14   0.11   0.03
  19   1    -0.01   0.05   0.00    -0.05  -0.12   0.22     0.00   0.11  -0.14
  20   1    -0.02  -0.03   0.06    -0.09   0.29  -0.19     0.03  -0.04   0.01
  21   1    -0.09  -0.07  -0.10    -0.07   0.03  -0.06     0.13  -0.07   0.02
  22   6     0.16   0.08   0.12     0.04   0.01   0.04    -0.04  -0.00  -0.03
  23   8     0.25   0.14   0.26     0.06   0.02   0.07    -0.06  -0.01  -0.05
  24   7    -0.06  -0.11   0.12    -0.02  -0.04   0.04     0.01   0.02  -0.04
  25   1    -0.03  -0.04   0.10    -0.01  -0.01   0.03     0.01   0.01  -0.02
  26   1    -0.06  -0.03  -0.01    -0.02   0.00   0.01     0.01   0.01   0.00
  27   7     0.24   0.23  -0.15     0.06   0.06  -0.04    -0.06  -0.07   0.04
  28   1     0.04   0.01  -0.11     0.01   0.00  -0.03    -0.01   0.00   0.04
  29   1     0.10   0.09  -0.04     0.03   0.02  -0.01    -0.03  -0.03   0.01
  30   6     0.00   0.00  -0.01    -0.01  -0.01   0.01    -0.01   0.00  -0.00
  31   8     0.01   0.01  -0.01    -0.01  -0.02   0.01    -0.01   0.01  -0.00
  32   7    -0.00  -0.01  -0.01     0.01   0.01   0.01    -0.00   0.01   0.00
  33   1     0.00   0.00  -0.01    -0.01  -0.00   0.01    -0.00   0.00   0.00
  34   1     0.00   0.00  -0.00     0.00  -0.00   0.00    -0.00  -0.01   0.01
  35   7     0.00  -0.00  -0.01    -0.00   0.00   0.01    -0.00   0.00  -0.02
  36   1    -0.00  -0.01  -0.00     0.00   0.01   0.00    -0.00  -0.01  -0.00
  37   1    -0.00  -0.00  -0.00     0.00   0.00   0.00    -0.01  -0.01  -0.01
  38   6    -0.02   0.00  -0.01    -0.01   0.00  -0.00     0.00  -0.00   0.00
  39   8    -0.01  -0.00  -0.01    -0.01   0.00  -0.00     0.01  -0.00   0.00
  40   7    -0.02  -0.01  -0.02    -0.00  -0.00  -0.00     0.00   0.00  -0.00
  41   1     0.00   0.02  -0.00     0.00   0.00  -0.00    -0.00  -0.00   0.00
  42   1    -0.01   0.03   0.00    -0.00   0.01   0.00     0.00  -0.01  -0.00
  43   7    -0.05  -0.02  -0.00    -0.01  -0.01  -0.00     0.01   0.00  -0.00
  44   1    -0.02   0.01  -0.01    -0.00   0.00  -0.00     0.00   0.00   0.00
  45   1    -0.02  -0.00   0.01    -0.00   0.00   0.00     0.00   0.00  -0.00
  46   6     0.01  -0.01  -0.00     0.01  -0.00   0.00     0.00  -0.01  -0.00
  47   8     0.01  -0.01   0.01     0.01  -0.01   0.00     0.00  -0.03  -0.00
  48   7    -0.00   0.00  -0.01    -0.00  -0.00  -0.00     0.00   0.00   0.00
  49   1    -0.00  -0.01   0.00    -0.00   0.00  -0.00     0.00  -0.00   0.00
  50   1    -0.00  -0.01  -0.01    -0.00   0.00  -0.00    -0.00   0.01  -0.00
  51   7     0.02  -0.00  -0.01     0.01   0.00  -0.00    -0.01  -0.00   0.00
  52   1     0.01  -0.00  -0.00     0.00  -0.00   0.00    -0.01   0.01   0.00
  53   1     0.00  -0.00  -0.00     0.00  -0.00   0.00    -0.00  -0.00  -0.00
                     31                     32                     33
                        a                      a                      a 
 Frequencies --   331.5281               337.7014               347.6984
 Red. masses --     4.0180                 3.6224                 2.9185
 Frc consts  --     0.0000                 0.0000                 0.0000
 IR Inten    --    25.1150               404.2879               208.8923
 Raman Activ --     0.0000                 0.0000                 0.0000
 Depolar     --     0.0000                 0.0000                 0.0000
 Atom AN      X      Y      Z        X      Y      Z        X      Y      Z
   1   8     0.06   0.08   0.10    -0.00  -0.02  -0.02    -0.04   0.00  -0.01
   2   6    -0.15  -0.12  -0.19     0.04   0.02   0.03     0.03   0.04   0.03
   3   1    -0.03  -0.01  -0.18     0.01  -0.00   0.03     0.00   0.01   0.04
   4   1    -0.14  -0.13  -0.04     0.03   0.02   0.01     0.03   0.03   0.01
   5   6     0.00   0.02   0.02     0.02   0.01  -0.00    -0.01  -0.03  -0.01
   6   1    -0.02   0.02   0.04     0.01   0.00  -0.01     0.01  -0.02  -0.00
   7   1     0.00   0.01   0.01     0.01   0.00   0.00    -0.02  -0.01  -0.01
   8   7     0.08   0.02   0.03    -0.01   0.00  -0.00    -0.02  -0.02  -0.02
   9   6     0.14  -0.00   0.00    -0.04   0.02   0.01    -0.00  -0.01   0.01
  10   1    -0.06   0.08   0.12     0.00  -0.01  -0.02     0.01  -0.02  -0.01
  11   1     0.22  -0.02   0.02    -0.05   0.01   0.00    -0.02   0.00  -0.00
  12   1    -0.03  -0.07  -0.15    -0.00   0.01   0.04     0.01   0.01   0.02
  13   6    -0.00  -0.04  -0.20    -0.00   0.00   0.06     0.02   0.02   0.01
  14   1     0.05   0.12  -0.42    -0.01  -0.02   0.06    -0.00   0.01   0.02
  15   1     0.18   0.16   0.23    -0.03  -0.02  -0.01     0.01   0.00  -0.01
  16   1    -0.24  -0.31  -0.02     0.03   0.03   0.01     0.02   0.02   0.00
  17   6    -0.06   0.08   0.27     0.02  -0.01  -0.08    -0.01  -0.01  -0.03
  18   1     0.05  -0.00   0.06    -0.02   0.01  -0.01    -0.05   0.03   0.02
  19   1    -0.02   0.01   0.18     0.01   0.00  -0.06     0.01   0.02  -0.06
  20   1    -0.12   0.06   0.05     0.03  -0.02  -0.01     0.02  -0.05   0.01
  21   1     0.04  -0.02   0.06    -0.01   0.00  -0.01    -0.01   0.01  -0.01
  22   6    -0.02   0.00  -0.02     0.00  -0.00   0.00     0.01  -0.00   0.01
  23   8    -0.03   0.00  -0.02     0.00  -0.00   0.00     0.01   0.01   0.01
  24   7     0.01   0.01  -0.03     0.00  -0.01  -0.00     0.01  -0.04  -0.04
  25   1     0.00   0.00  -0.01    -0.00   0.01   0.01    -0.01   0.02   0.04
  26   1    -0.01   0.03   0.01    -0.01   0.01   0.01    -0.07   0.08   0.07
  27   7    -0.03  -0.04   0.02     0.00   0.00  -0.00     0.00   0.02   0.00
  28   1    -0.00   0.00   0.02     0.00  -0.00  -0.00     0.01  -0.02  -0.02
  29   1    -0.02  -0.02   0.01     0.00   0.00   0.00     0.01  -0.01  -0.01
  30   6     0.02   0.02  -0.01     0.06   0.08  -0.03     0.01   0.01  -0.00
  31   8     0.02   0.02  -0.01     0.02  -0.00  -0.00     0.00  -0.00  -0.00
  32   7    -0.04  -0.05   0.02    -0.19  -0.21   0.13    -0.03  -0.04   0.02
  33   1     0.04   0.04  -0.02     0.18   0.20  -0.09     0.03   0.04  -0.01
  34   1     0.06   0.08  -0.04     0.32   0.44  -0.20     0.05   0.07  -0.03
  35   7    -0.03  -0.05   0.01    -0.17  -0.22   0.02    -0.03  -0.03   0.01
  36   1     0.06   0.08  -0.02     0.29   0.42  -0.10     0.05   0.07  -0.02
  37   1     0.04   0.04  -0.01     0.16   0.19  -0.05     0.03   0.03  -0.00
  38   6     0.00  -0.00  -0.00     0.00  -0.00   0.00    -0.00  -0.00  -0.01
  39   8     0.00  -0.00  -0.00     0.00   0.00   0.00     0.00  -0.00  -0.01
  40   7     0.00   0.01   0.00     0.00   0.00   0.00    -0.00   0.01  -0.00
  41   1    -0.00  -0.00  -0.00    -0.00  -0.00   0.00     0.00  -0.01  -0.00
  42   1     0.00  -0.02  -0.00     0.00  -0.00  -0.00     0.00  -0.01  -0.00
  43   7     0.00   0.01   0.00    -0.00  -0.00   0.00     0.00   0.00  -0.00
  44   1     0.00  -0.00  -0.00    -0.00  -0.00  -0.00     0.00  -0.00  -0.00
  45   1     0.00  -0.00  -0.00    -0.00  -0.00   0.00    -0.00   0.00  -0.00
  46   6    -0.00  -0.00   0.01    -0.01  -0.01   0.00     0.02   0.02  -0.00
  47   8    -0.00  -0.01   0.01    -0.00  -0.00   0.00     0.02   0.02  -0.02
  48   7    -0.01  -0.02   0.01    -0.01   0.06  -0.03     0.00  -0.32   0.12
  49   1    -0.01   0.03  -0.01     0.01  -0.07   0.03    -0.05   0.33  -0.14
  50   1    -0.01   0.05  -0.01     0.01  -0.14   0.03    -0.07   0.74  -0.19
  51   7     0.01   0.01   0.00     0.00  -0.01  -0.00    -0.02   0.07  -0.00
  52   1     0.01  -0.01   0.00    -0.01   0.03  -0.01     0.10  -0.23   0.07
  53   1     0.01  -0.00   0.00    -0.00   0.01  -0.00     0.02  -0.04   0.02
                     34                     35                     36
                        a                      a                      a 
 Frequencies --   362.8558               375.7443               381.6951
 Red. masses --     5.6646                 5.3533                 2.0045
 Frc consts  --     0.0000                 0.0000                 0.0000
 IR Inten    --     2.4706                 5.5037                 0.7519
 Raman Activ --     0.0000                 0.0000                 0.0000
 Depolar     --     0.0000                 0.0000                 0.0000
 Atom AN      X      Y      Z        X      Y      Z        X      Y      Z
   1   8    -0.26   0.07   0.06    -0.08   0.03  -0.01     0.04   0.03   0.07
   2   6     0.02   0.19   0.17     0.18   0.04  -0.08    -0.04  -0.02  -0.01
   3   1    -0.03   0.06   0.19     0.09  -0.03  -0.05    -0.01   0.00  -0.03
   4   1     0.15   0.13   0.03     0.03   0.00  -0.02    -0.03  -0.04   0.00
   5   6    -0.17  -0.25  -0.03     0.20   0.13  -0.04    -0.01   0.04   0.00
   6   1     0.03  -0.19   0.07     0.06   0.06  -0.08    -0.02   0.02   0.01
   7   1    -0.20  -0.13  -0.06     0.09   0.08   0.04     0.01   0.01  -0.01
   8   7     0.03  -0.08  -0.08     0.00  -0.08   0.01    -0.00   0.08  -0.01
   9   6     0.21  -0.08  -0.07    -0.25   0.10   0.28     0.09   0.03  -0.07
  10   1     0.03  -0.01   0.06    -0.22   0.17   0.24    -0.18   0.19   0.26
  11   1     0.16  -0.04  -0.01     0.13   0.11   0.07     0.44  -0.02   0.02
  12   1     0.04  -0.03  -0.11    -0.20  -0.14  -0.02    -0.15  -0.16  -0.36
  13   6     0.17   0.15  -0.16    -0.07  -0.21   0.09    -0.08  -0.03  -0.09
  14   1     0.02   0.12  -0.11     0.01  -0.03  -0.09    -0.02  -0.17   0.26
  15   1     0.15   0.06  -0.01    -0.01   0.02   0.16    -0.19  -0.17  -0.31
  16   1     0.01   0.01  -0.04    -0.07  -0.20   0.05     0.12   0.27  -0.07
  17   6    -0.05  -0.04   0.06     0.06  -0.04  -0.25     0.03  -0.06   0.16
  18   1    -0.21   0.17   0.23    -0.18   0.10   0.05     0.07  -0.01   0.07
  19   1     0.06   0.12  -0.23     0.05   0.06  -0.35    -0.02  -0.06   0.07
  20   1     0.07  -0.29   0.12     0.19  -0.18   0.01    -0.01  -0.03   0.05
  21   1    -0.06   0.04  -0.05    -0.04   0.03  -0.01     0.03  -0.01   0.01
  22   6     0.01  -0.01   0.02     0.00   0.00   0.01    -0.01   0.01  -0.00
  23   8     0.01  -0.00   0.01     0.00  -0.00   0.00    -0.01   0.01  -0.01
  24   7     0.00  -0.01   0.01     0.00  -0.02  -0.01     0.02  -0.03  -0.05
  25   1    -0.00   0.01   0.01    -0.01   0.00   0.01    -0.01   0.01   0.02
  26   1    -0.01   0.01   0.01    -0.03   0.03   0.03    -0.07   0.10   0.08
  27   7     0.02   0.03  -0.01     0.01   0.00  -0.00    -0.02  -0.02   0.02
  28   1     0.01  -0.01  -0.02     0.00  -0.01  -0.01     0.01  -0.04  -0.00
  29   1     0.01   0.01  -0.01     0.00   0.00  -0.00    -0.01  -0.02   0.00
  30   6    -0.01   0.01  -0.00    -0.01   0.00  -0.00    -0.01  -0.00  -0.00
  31   8    -0.00   0.01  -0.00    -0.01   0.00  -0.00    -0.01  -0.01   0.00
  32   7    -0.00   0.00   0.01     0.01   0.02   0.00    -0.01  -0.01   0.01
  33   1    -0.00   0.00   0.01    -0.01  -0.00   0.01     0.00   0.00   0.00
  34   1     0.00  -0.00   0.00    -0.02  -0.04   0.02     0.02   0.03  -0.01
  35   7    -0.00  -0.00  -0.01     0.01   0.01  -0.01    -0.01  -0.01  -0.01
  36   1     0.00  -0.00  -0.00    -0.02  -0.03   0.00     0.01   0.02  -0.01
  37   1    -0.00  -0.00  -0.00    -0.01  -0.01  -0.00     0.00   0.00  -0.00
  38   6    -0.00   0.00   0.00     0.00  -0.00  -0.00     0.00  -0.00  -0.00
  39   8    -0.00   0.01   0.00     0.00  -0.00  -0.00     0.01  -0.00  -0.00
  40   7    -0.00  -0.01   0.00     0.00   0.01   0.00     0.00   0.01  -0.00
  41   1     0.00   0.00   0.00    -0.00  -0.00  -0.00    -0.00  -0.00   0.00
  42   1    -0.00   0.02   0.00     0.00  -0.01  -0.00     0.00  -0.01  -0.00
  43   7     0.00  -0.01  -0.00    -0.00   0.00   0.00    -0.00   0.00  -0.00
  44   1    -0.00   0.00   0.00    -0.00  -0.00  -0.00    -0.00  -0.00  -0.00
  45   1    -0.00   0.00   0.00    -0.00  -0.00   0.00    -0.00  -0.00   0.00
  46   6    -0.00  -0.00  -0.00     0.00  -0.00   0.00    -0.00   0.00  -0.02
  47   8    -0.00  -0.00   0.00     0.00  -0.00  -0.00    -0.00   0.00  -0.01
  48   7    -0.01   0.04  -0.02     0.01   0.01   0.00     0.03  -0.00   0.01
  49   1     0.00  -0.04   0.02    -0.00   0.01   0.00     0.01   0.02  -0.01
  50   1     0.01  -0.10   0.02     0.00  -0.03   0.01     0.01   0.01   0.01
  51   7    -0.01  -0.01   0.00     0.01   0.00  -0.00    -0.01   0.00  -0.01
  52   1    -0.01   0.03  -0.01    -0.00   0.01  -0.01    -0.00  -0.00   0.00
  53   1    -0.01   0.00  -0.00     0.00  -0.00   0.00    -0.00  -0.00  -0.00
                     37                     38                     39
                        a                      a                      a 
 Frequencies --   391.5600               409.2900               430.6840
 Red. masses --     2.4123                 3.5206                 3.8186
 Frc consts  --     0.0000                 0.0000                 0.0000
 IR Inten    --    83.5321                50.2912               462.2013
 Raman Activ --     0.0000                 0.0000                 0.0000
 Depolar     --     0.0000                 0.0000                 0.0000
 Atom AN      X      Y      Z        X      Y      Z        X      Y      Z
   1   8     0.03   0.01  -0.01     0.02   0.01   0.01     0.07  -0.05  -0.00
   2   6     0.00   0.00  -0.01     0.00  -0.01  -0.01    -0.00  -0.01   0.06
   3   1    -0.00   0.01  -0.01     0.00   0.00  -0.01    -0.00  -0.00   0.02
   4   1    -0.01  -0.00  -0.00    -0.00  -0.01  -0.00     0.01   0.00   0.01
   5   6    -0.00  -0.02   0.01     0.01   0.01  -0.00    -0.03   0.03  -0.02
   6   1     0.00  -0.01   0.00    -0.00   0.00   0.01    -0.01   0.02  -0.01
   7   1    -0.01  -0.01   0.00     0.00   0.00   0.00     0.02   0.01  -0.02
   8   7     0.01  -0.00   0.01     0.01   0.01  -0.00    -0.08   0.08  -0.04
   9   6    -0.01  -0.00  -0.00    -0.01   0.01  -0.00     0.10   0.10  -0.01
  10   1     0.04  -0.03  -0.07    -0.01   0.01   0.01     0.04  -0.01   0.03
  11   1    -0.09  -0.00  -0.01     0.02   0.00  -0.00     0.04   0.03  -0.00
  12   1     0.04   0.04   0.07    -0.01  -0.01  -0.01     0.05   0.06  -0.01
  13   6     0.01   0.00   0.02    -0.01  -0.01  -0.00    -0.12   0.01   0.01
  14   1     0.00   0.02  -0.02     0.00  -0.01   0.00    -0.02   0.00  -0.03
  15   1     0.02   0.02   0.04    -0.01  -0.00   0.00    -0.04   0.02   0.03
  16   1    -0.01  -0.03   0.01    -0.00  -0.01   0.00    -0.05  -0.03   0.01
  17   6     0.00   0.01  -0.00     0.01   0.00   0.00     0.05  -0.14   0.00
  18   1     0.01  -0.01  -0.02     0.00   0.00   0.00     0.05  -0.01   0.04
  19   1    -0.00   0.00   0.02     0.00  -0.00  -0.00    -0.02  -0.09  -0.04
  20   1    -0.01   0.02  -0.01     0.00  -0.00   0.00     0.05  -0.08   0.02
  21   1     0.01  -0.01  -0.01     0.00  -0.00   0.01     0.01  -0.01  -0.00
  22   6    -0.01  -0.04   0.02     0.00  -0.07  -0.02     0.00  -0.06  -0.01
  23   8    -0.01  -0.00   0.03    -0.01  -0.07  -0.03    -0.01  -0.06  -0.02
  24   7     0.13  -0.16  -0.19    -0.02   0.08   0.07    -0.02   0.09   0.08
  25   1    -0.06   0.12   0.16     0.02  -0.03  -0.04     0.00   0.06  -0.03
  26   1    -0.35   0.53   0.44     0.07  -0.07  -0.05     0.14  -0.15  -0.09
  27   7    -0.05   0.09   0.06    -0.04   0.07   0.04    -0.05   0.14   0.01
  28   1     0.14  -0.37  -0.19     0.06  -0.17  -0.09     0.11  -0.28  -0.16
  29   1    -0.01  -0.04  -0.01     0.01  -0.03  -0.03    -0.00   0.01  -0.02
  30   6    -0.00  -0.00   0.00    -0.00   0.00  -0.00    -0.00   0.00  -0.00
  31   8     0.00   0.00  -0.00    -0.00  -0.00  -0.00     0.00   0.00   0.00
  32   7     0.01   0.01  -0.01    -0.00  -0.00   0.00    -0.00   0.00   0.00
  33   1    -0.00  -0.00   0.00     0.00   0.00   0.00    -0.00   0.00   0.00
  34   1    -0.02  -0.02   0.01     0.01   0.01  -0.00    -0.00  -0.01   0.00
  35   7     0.01   0.01  -0.00    -0.00  -0.00   0.00     0.00  -0.00  -0.00
  36   1    -0.02  -0.03   0.01     0.00   0.01  -0.00     0.00  -0.00  -0.00
  37   1    -0.01  -0.01  -0.00     0.00   0.00   0.00    -0.00  -0.00  -0.00
  38   6     0.01   0.02  -0.01    -0.02   0.15   0.02    -0.01  -0.03  -0.01
  39   8     0.01   0.02  -0.01     0.02   0.10   0.04    -0.01  -0.01  -0.00
  40   7     0.01   0.00  -0.00    -0.00  -0.28  -0.05    -0.01   0.11   0.02
  41   1    -0.00  -0.00   0.00     0.03   0.06   0.01    -0.02  -0.01   0.00
  42   1     0.01   0.01   0.00    -0.10   0.79   0.16     0.04  -0.32  -0.06
  43   7    -0.03  -0.01  -0.01     0.04  -0.17  -0.07    -0.00   0.07   0.02
  44   1    -0.02  -0.01  -0.01    -0.02   0.09   0.01     0.02  -0.11  -0.02
  45   1    -0.01  -0.00   0.01    -0.02   0.09   0.01     0.01  -0.01  -0.00
  46   6    -0.01  -0.02  -0.01     0.02  -0.05   0.01     0.06  -0.08   0.02
  47   8    -0.01  -0.01   0.00     0.01  -0.02   0.02     0.04  -0.03   0.04
  48   7     0.01   0.06  -0.01    -0.01   0.05  -0.02    -0.03   0.14  -0.09
  49   1    -0.01   0.01   0.01    -0.00  -0.03   0.01     0.02  -0.13   0.04
  50   1     0.02  -0.15   0.03    -0.00  -0.02  -0.01     0.00  -0.07  -0.01
  51   7    -0.03   0.02  -0.01    -0.05   0.08  -0.02    -0.12   0.15  -0.03
  52   1     0.00  -0.02   0.00     0.09  -0.23   0.06     0.22  -0.59   0.15
  53   1     0.00  -0.02   0.01     0.02  -0.03   0.02     0.02   0.02   0.02
                     40                     41                     42
                        a                      a                      a 
 Frequencies --   432.1703               444.4157               454.1908
 Red. masses --     7.6929                 1.6525                 3.3608
 Frc consts  --     0.0000                 0.0000                 0.0000
 IR Inten    --    80.2847                 3.5341                12.3594
 Raman Activ --     0.0000                 0.0000                 0.0000
 Depolar     --     0.0000                 0.0000                 0.0000
 Atom AN      X      Y      Z        X      Y      Z        X      Y      Z
   1   8    -0.14   0.12   0.04     0.01  -0.01  -0.00    -0.00  -0.00  -0.00
   2   6     0.01   0.03  -0.15     0.01  -0.01  -0.00     0.00  -0.00  -0.01
   3   1     0.01   0.00  -0.07     0.00  -0.00   0.00     0.00  -0.00  -0.00
   4   1    -0.03  -0.02  -0.04     0.01  -0.00  -0.00     0.00  -0.00  -0.00
   5   6     0.09  -0.07   0.05    -0.00   0.00  -0.03     0.01   0.02  -0.02
   6   1     0.03  -0.04   0.03    -0.00   0.00  -0.01    -0.00   0.02  -0.02
   7   1    -0.03  -0.01   0.04     0.00   0.00  -0.01     0.02   0.02   0.01
   8   7     0.20  -0.21   0.10    -0.02   0.01  -0.03    -0.03  -0.04  -0.00
   9   6    -0.24  -0.26   0.02     0.02   0.03   0.01     0.02  -0.02   0.03
  10   1    -0.13   0.04  -0.03     0.01  -0.00   0.01     0.01  -0.02   0.02
  11   1    -0.05  -0.09   0.01     0.01   0.02   0.00     0.01   0.00   0.01
  12   1    -0.14  -0.17  -0.00     0.01   0.02   0.01     0.01   0.00   0.01
  13   6     0.32  -0.02  -0.02    -0.02   0.01   0.02     0.02   0.04   0.00
  14   1     0.05   0.01   0.08    -0.01   0.01  -0.00    -0.01   0.02   0.01
  15   1     0.11  -0.06  -0.10    -0.00   0.01   0.02     0.02   0.00  -0.01
  16   1     0.13   0.11  -0.02    -0.00  -0.02   0.01     0.02   0.02  -0.00
  17   6    -0.15   0.35  -0.01    -0.01  -0.04   0.01    -0.05  -0.01  -0.01
  18   1    -0.14   0.04  -0.11     0.01  -0.00   0.02    -0.02  -0.01  -0.01
  19   1     0.04   0.22   0.10    -0.01  -0.02  -0.01    -0.01   0.00   0.01
  20   1    -0.12   0.20  -0.05    -0.00  -0.02   0.01    -0.02   0.01  -0.01
  21   1    -0.05   0.03   0.02     0.00  -0.00  -0.00     0.01  -0.00  -0.01
  22   6     0.00  -0.03  -0.00     0.00   0.00   0.00     0.02   0.06  -0.00
  23   8    -0.01  -0.03  -0.01     0.00   0.00   0.00     0.01   0.06  -0.02
  24   7    -0.01   0.05   0.05     0.00  -0.01  -0.01    -0.04  -0.07  -0.05
  25   1     0.02  -0.01  -0.03    -0.00   0.00   0.00    -0.03   0.00   0.06
  26   1     0.05  -0.05  -0.03    -0.01   0.00   0.00    -0.06   0.02  -0.01
  27   7    -0.01   0.07  -0.00     0.00  -0.01   0.00     0.04  -0.09   0.03
  28   1     0.05  -0.14  -0.08    -0.01   0.01   0.01    -0.06   0.21   0.14
  29   1     0.00   0.01  -0.01    -0.00  -0.00   0.00     0.00  -0.02   0.01
  30   6     0.00  -0.00   0.01     0.01   0.02   0.07     0.00  -0.00  -0.00
  31   8    -0.00   0.00   0.01    -0.00   0.03   0.07    -0.00  -0.00  -0.00
  32   7    -0.01   0.01  -0.01     0.02   0.11  -0.06     0.01   0.00   0.00
  33   1    -0.02  -0.04  -0.01    -0.28  -0.44   0.03    -0.01  -0.01   0.00
  34   1     0.01   0.05  -0.02     0.14   0.40  -0.19     0.01   0.01  -0.00
  35   7     0.01  -0.02   0.00    -0.01  -0.13   0.01    -0.00   0.00   0.00
  36   1    -0.00  -0.03   0.01    -0.15  -0.43   0.09    -0.01  -0.01   0.00
  37   1     0.02   0.02  -0.02     0.25   0.35  -0.23     0.01   0.01  -0.00
  38   6    -0.00  -0.01  -0.00    -0.00   0.00   0.00    -0.05  -0.02   0.03
  39   8    -0.01  -0.00  -0.00     0.00   0.00   0.00    -0.01  -0.03   0.07
  40   7    -0.00   0.04   0.01     0.00  -0.00  -0.00    -0.03   0.02  -0.09
  41   1    -0.01  -0.00   0.00     0.00  -0.00  -0.00     0.03   0.01  -0.04
  42   1     0.02  -0.13  -0.02    -0.00   0.01   0.00    -0.04   0.02  -0.05
  43   7    -0.00   0.03   0.01     0.00  -0.00  -0.00     0.09   0.02  -0.01
  44   1     0.01  -0.04  -0.01    -0.00   0.00   0.00     0.07  -0.00   0.04
  45   1     0.00  -0.00  -0.00     0.00   0.00  -0.00     0.04   0.02  -0.06
  46   6     0.02  -0.03   0.00    -0.00   0.00  -0.00     0.12  -0.04   0.06
  47   8     0.01  -0.02   0.01    -0.00   0.00   0.00     0.14  -0.08  -0.07
  48   7    -0.01   0.05  -0.03    -0.00  -0.00  -0.00    -0.04  -0.04  -0.03
  49   1     0.01  -0.04   0.01     0.01  -0.02   0.00    -0.37   0.54  -0.12
  50   1     0.00  -0.02  -0.00    -0.00   0.02   0.00     0.03  -0.45  -0.15
  51   7    -0.04   0.05  -0.01     0.00  -0.01   0.00    -0.13   0.19   0.10
  52   1     0.07  -0.19   0.05    -0.01   0.01  -0.00     0.06  -0.17   0.13
  53   1     0.01   0.01   0.01    -0.00   0.00  -0.00    -0.04  -0.05   0.04
                     43                     44                     45
                        a                      a                      a 
 Frequencies --   455.2510               457.8930               465.4554
 Red. masses --     8.3622                 3.8998                 4.7483
 Frc consts  --     0.0000                 0.0000                 0.0000
 IR Inten    --     3.7852                76.4320               122.4327
 Raman Activ --     0.0000                 0.0000                 0.0000
 Depolar     --     0.0000                 0.0000                 0.0000
 Atom AN      X      Y      Z        X      Y      Z        X      Y      Z
   1   8     0.03  -0.01  -0.01    -0.02  -0.01  -0.01    -0.05   0.02   0.02
   2   6    -0.06   0.02   0.08     0.00   0.00  -0.00     0.03  -0.01  -0.07
   3   1    -0.01   0.00   0.00     0.00  -0.00   0.01    -0.00   0.01  -0.00
   4   1    -0.05   0.02   0.02     0.00   0.01  -0.00     0.03  -0.01  -0.02
   5   6    -0.00   0.08   0.13     0.01   0.02  -0.01    -0.01  -0.09  -0.07
   6   1    -0.02   0.06   0.01    -0.01   0.02  -0.02     0.02  -0.07   0.03
   7   1     0.04   0.04   0.06     0.02   0.02   0.01    -0.07  -0.06  -0.05
   8   7    -0.02  -0.02   0.12    -0.02  -0.05   0.01     0.07   0.04  -0.07
   9   6     0.02  -0.11  -0.01     0.02  -0.03   0.04    -0.07   0.09  -0.03
  10   1     0.01  -0.03  -0.03     0.01  -0.02   0.01    -0.03   0.05  -0.02
  11   1     0.01  -0.07   0.01    -0.00  -0.00   0.01    -0.04   0.04  -0.01
  12   1     0.01  -0.02  -0.03     0.01  -0.00   0.02    -0.03   0.00   0.02
  13   6    -0.03   0.03  -0.11     0.02   0.03  -0.01     0.02  -0.08   0.09
  14   1     0.00   0.01  -0.06    -0.01   0.03  -0.00     0.01  -0.04   0.04
  15   1     0.03  -0.01  -0.05     0.03   0.00  -0.01    -0.04  -0.01   0.04
  16   1    -0.06   0.04  -0.04     0.01   0.02  -0.00     0.03  -0.05   0.03
  17   6     0.04   0.01  -0.10    -0.04  -0.01  -0.02     0.02   0.04   0.10
  18   1    -0.03  -0.01  -0.05    -0.02  -0.01  -0.01     0.03   0.02   0.04
  19   1     0.01   0.01  -0.07    -0.01   0.01  -0.00     0.01   0.01   0.06
  20   1     0.07   0.02  -0.02    -0.01   0.01  -0.01    -0.04  -0.00   0.02
  21   1     0.01  -0.00  -0.00     0.00  -0.00  -0.01     0.02  -0.01  -0.04
  22   6     0.00   0.01  -0.00     0.04   0.12  -0.00    -0.07  -0.04   0.03
  23   8     0.00   0.01  -0.01     0.02   0.13  -0.03     0.04  -0.06   0.13
  24   7    -0.01  -0.00  -0.01    -0.04  -0.14  -0.11     0.12  -0.10  -0.13
  25   1     0.00  -0.02  -0.00    -0.02  -0.14   0.06    -0.11   0.55   0.19
  26   1    -0.02   0.01   0.00    -0.24   0.18   0.07     0.18  -0.05   0.07
  27   7     0.00  -0.01   0.01     0.09  -0.21   0.04    -0.07  -0.01  -0.11
  28   1     0.00   0.01   0.01    -0.11   0.39   0.27    -0.17   0.31   0.09
  29   1    -0.00  -0.00   0.00    -0.01  -0.03   0.04     0.05   0.01  -0.05
  30   6    -0.01  -0.08  -0.28    -0.00   0.01   0.02    -0.00  -0.01  -0.04
  31   8    -0.01  -0.09  -0.31     0.00   0.01   0.02     0.00  -0.01  -0.05
  32   7     0.30  -0.07   0.23    -0.02   0.01  -0.02     0.04  -0.01   0.03
  33   1    -0.09  -0.01   0.27     0.01   0.02  -0.02    -0.00   0.01   0.04
  34   1     0.31  -0.06   0.05    -0.03  -0.01   0.01     0.04  -0.02   0.01
  35   7    -0.28   0.20   0.17     0.02  -0.01  -0.02    -0.04   0.03   0.02
  36   1    -0.31   0.08   0.04     0.02  -0.01  -0.00    -0.05   0.00   0.01
  37   1     0.11   0.16   0.21    -0.01  -0.02  -0.01     0.02   0.02   0.03
  38   6    -0.00  -0.00   0.00    -0.07  -0.03   0.04     0.09   0.03  -0.08
  39   8    -0.00  -0.00   0.00    -0.02  -0.03   0.10     0.03   0.04  -0.15
  40   7    -0.00   0.00  -0.00    -0.05   0.00  -0.10     0.05  -0.03   0.16
  41   1     0.00   0.00  -0.00     0.03   0.01  -0.05    -0.04  -0.04   0.05
  42   1    -0.00  -0.00  -0.00    -0.06   0.07  -0.05     0.06   0.04   0.10
  43   7     0.00   0.00  -0.00     0.11   0.02  -0.01    -0.14  -0.04  -0.01
  44   1     0.00   0.00   0.00     0.09   0.02   0.06    -0.13  -0.04  -0.09
  45   1     0.00   0.00  -0.00     0.05   0.03  -0.09    -0.08   0.04   0.14
  46   6    -0.01  -0.00  -0.00    -0.02  -0.01  -0.03    -0.06  -0.03  -0.01
  47   8    -0.01  -0.00   0.01    -0.03   0.02   0.08    -0.06  -0.03   0.03
  48   7     0.00   0.01   0.00     0.01   0.14  -0.06     0.06   0.06   0.06
  49   1     0.02  -0.02   0.01     0.19  -0.37   0.10     0.05   0.03  -0.01
  50   1    -0.00   0.01   0.01    -0.00   0.10   0.08     0.02  -0.04   0.08
  51   7     0.01   0.00  -0.01    -0.04   0.02  -0.07     0.01   0.05  -0.09
  52   1     0.01  -0.02  -0.01     0.14  -0.38   0.05     0.08  -0.18  -0.02
  53   1     0.01   0.01   0.00     0.02   0.06  -0.01     0.05   0.02   0.00
                     46                     47                     48
                        a                      a                      a 
 Frequencies --   468.6330               472.3261               474.7393
 Red. masses --     7.8164                 8.3560                 4.7940
 Frc consts  --     0.0000                 0.0000                 0.0000
 IR Inten    --    11.8253                16.7204                 9.4839
 Raman Activ --     0.0000                 0.0000                 0.0000
 Depolar     --     0.0000                 0.0000                 0.0000
 Atom AN      X      Y      Z        X      Y      Z        X      Y      Z
   1   8     0.10  -0.01  -0.02     0.02  -0.02  -0.02     0.01   0.01   0.01
   2   6    -0.05   0.01   0.10    -0.14   0.05   0.18    -0.01   0.00   0.00
   3   1     0.00  -0.01  -0.01    -0.04   0.02   0.04    -0.00   0.00  -0.01
   4   1    -0.07   0.01   0.03    -0.07   0.05   0.05    -0.01  -0.00   0.00
   5   6     0.03   0.22   0.13    -0.07   0.02   0.27     0.01   0.04   0.02
   6   1    -0.06   0.19  -0.10    -0.02  -0.00   0.11    -0.01   0.03  -0.02
   7   1     0.17   0.15   0.12    -0.04  -0.02   0.05     0.03   0.03   0.02
   8   7    -0.17  -0.18   0.16     0.12   0.13   0.18    -0.02  -0.04   0.03
   9   6     0.17  -0.24   0.12    -0.10  -0.09  -0.19     0.02  -0.05   0.03
  10   1     0.06  -0.11   0.08    -0.03   0.03  -0.15     0.00  -0.01   0.01
  11   1     0.11  -0.08   0.04    -0.07  -0.13  -0.03     0.02  -0.01   0.01
  12   1     0.08  -0.01  -0.04    -0.04  -0.04  -0.07     0.01  -0.00  -0.01
  13   6     0.01   0.22  -0.19    -0.09  -0.14  -0.21     0.01   0.03  -0.03
  14   1    -0.04   0.13  -0.07     0.06  -0.12  -0.14    -0.00   0.02  -0.01
  15   1     0.14   0.02  -0.11    -0.05  -0.05  -0.07     0.03   0.00  -0.02
  16   1    -0.04   0.14  -0.07    -0.15  -0.03  -0.07    -0.00   0.02  -0.01
  17   6    -0.13  -0.09  -0.21     0.29   0.09  -0.12    -0.03  -0.01  -0.03
  18   1    -0.10  -0.05  -0.12     0.03   0.03  -0.05    -0.02  -0.01  -0.02
  19   1    -0.03  -0.01  -0.11     0.07   0.01  -0.13    -0.00   0.01  -0.01
  20   1     0.04   0.03  -0.06     0.18   0.02  -0.02     0.00   0.01  -0.01
  21   1     0.03  -0.01  -0.00     0.03  -0.01  -0.03     0.04  -0.02  -0.04
  22   6    -0.06  -0.03   0.02     0.03   0.02  -0.02     0.07   0.00  -0.08
  23   8     0.00  -0.05   0.08     0.02   0.03  -0.04     0.10   0.01  -0.07
  24   7     0.09   0.00  -0.04    -0.06  -0.03  -0.01    -0.15  -0.14  -0.11
  25   1    -0.00   0.16   0.00    -0.03   0.02   0.05    -0.22   0.52   0.34
  26   1     0.08   0.01   0.06    -0.02  -0.04  -0.05     0.11  -0.18  -0.12
  27   7    -0.05  -0.01  -0.08     0.01  -0.01   0.06    -0.04   0.08   0.19
  28   1    -0.07   0.08  -0.00     0.02   0.00   0.04     0.10  -0.13   0.03
  29   1     0.02   0.02  -0.03    -0.01  -0.04   0.01    -0.04  -0.07   0.02
  30   6    -0.00   0.02   0.08     0.00   0.02   0.08    -0.00   0.00   0.01
  31   8     0.00   0.02   0.09     0.00   0.02   0.09     0.00   0.00   0.01
  32   7    -0.08   0.03  -0.05    -0.08   0.04  -0.05    -0.01   0.00  -0.00
  33   1     0.02  -0.01  -0.07     0.00  -0.03  -0.06     0.01   0.01  -0.01
  34   1    -0.08   0.02  -0.01    -0.08   0.03  -0.02    -0.01  -0.00   0.00
  35   7     0.08  -0.05  -0.04     0.07  -0.06  -0.03     0.01  -0.01  -0.01
  36   1     0.08  -0.03  -0.01     0.08  -0.04  -0.00     0.01  -0.00  -0.00
[...]
  44   1     0.00   0.00  -0.00    -0.01  -0.00   0.01     0.00   0.00  -0.00
  45   1    -0.01  -0.00  -0.00     0.02   0.00   0.00    -0.00  -0.00  -0.00
  46   6    -0.00  -0.00  -0.00    -0.00  -0.01  -0.01    -0.00   0.00   0.00
  47   8     0.00  -0.00   0.00     0.01   0.00   0.00     0.00  -0.00   0.00
  48   7     0.00  -0.00   0.00    -0.00  -0.00   0.00    -0.00   0.00   0.00
  49   1    -0.00   0.00   0.00     0.00   0.00   0.01    -0.00  -0.00  -0.01
  50   1    -0.00   0.00  -0.00    -0.01   0.00  -0.00     0.01   0.00   0.00
  51   7     0.02  -0.01  -0.03     0.10  -0.05  -0.20     0.00   0.00   0.00
  52   1     0.02   0.01  -0.00     0.15   0.05  -0.01    -0.00  -0.00   0.00
  53   1    -0.08   0.02   0.12    -0.51   0.15   0.78     0.00   0.00  -0.00
                    142                    143                    144
                        a                      a                      a 
 Frequencies --  3491.4320              3499.4221              3500.9391
 Red. masses --     1.4548                 1.4392                 1.4467
 Frc consts  --     0.0000                 0.0000                 0.0000
 IR Inten    --    10.2434                38.3996                19.0585
 Raman Activ --     0.0000                 0.0000                 0.0000
 Depolar     --     0.0000                 0.0000                 0.0000
 Atom AN      X      Y      Z        X      Y      Z        X      Y      Z
   1   8     0.00   0.00   0.00     0.00   0.00   0.00     0.00   0.00   0.00
   2   6    -0.00   0.00  -0.00    -0.00   0.00  -0.00    -0.00   0.00  -0.00
   3   1     0.00   0.00  -0.00     0.00   0.00  -0.00     0.00   0.00   0.00
   4   1     0.00   0.00   0.00     0.00   0.00   0.00    -0.00  -0.00   0.00
   5   6     0.00   0.00  -0.00     0.00   0.00  -0.00     0.00   0.00  -0.00
   6   1    -0.00  -0.00  -0.00    -0.00   0.00  -0.00    -0.00  -0.00  -0.00
   7   1    -0.00   0.00   0.00    -0.00  -0.00   0.00    -0.00  -0.00  -0.00
   8   7     0.00   0.00   0.00     0.00  -0.00  -0.00    -0.00   0.00  -0.00
   9   6     0.00   0.00   0.00     0.00   0.00  -0.00    -0.00   0.00   0.00
  10   1    -0.00  -0.00  -0.00    -0.00  -0.00  -0.00    -0.00  -0.00  -0.00
  11   1     0.00   0.00   0.00    -0.00   0.00   0.00     0.00  -0.00   0.00
  12   1    -0.00   0.00   0.00     0.00  -0.00  -0.00     0.00  -0.00  -0.00
  13   6     0.00   0.00   0.00    -0.00   0.00   0.00     0.00   0.00   0.00
  14   1    -0.00  -0.00  -0.00     0.00   0.00   0.00    -0.00  -0.00  -0.00
  15   1     0.00  -0.00   0.00    -0.00  -0.00   0.00    -0.00  -0.00  -0.00
  16   1     0.00   0.00   0.00    -0.00   0.00  -0.00     0.00   0.00   0.00
  17   6     0.00   0.00   0.00    -0.00   0.00  -0.00    -0.00   0.00   0.00
  18   1     0.00  -0.00   0.00    -0.00  -0.00   0.00    -0.00  -0.00  -0.00
  19   1    -0.00   0.00  -0.00     0.00  -0.00  -0.00    -0.00   0.00  -0.00
  20   1     0.00  -0.00  -0.00    -0.00   0.00   0.00     0.00  -0.00  -0.00
  21   1    -0.00  -0.00  -0.00    -0.00  -0.00  -0.00    -0.00  -0.00  -0.00
  22   6    -0.00  -0.00   0.00    -0.00  -0.00  -0.00    -0.00   0.00  -0.00
  23   8     0.00   0.00  -0.00     0.00  -0.00   0.00     0.00  -0.00   0.00
  24   7     0.00  -0.00   0.00     0.00  -0.00   0.00    -0.00   0.00  -0.00
  25   1    -0.01  -0.00  -0.00    -0.00  -0.00  -0.00     0.00   0.00   0.00
  26   1     0.00   0.01  -0.00     0.00   0.00  -0.00    -0.00  -0.00   0.00
  27   7    -0.00  -0.00  -0.00     0.00  -0.00   0.00     0.00  -0.00   0.00
  28   1     0.00   0.00  -0.00    -0.00  -0.00   0.00    -0.00  -0.00   0.00
  29   1     0.00  -0.00   0.00    -0.00   0.00  -0.00    -0.00   0.00  -0.01
  30   6     0.00   0.00   0.00     0.00  -0.00   0.00    -0.00   0.00  -0.00
  31   8    -0.00  -0.00  -0.00     0.00  -0.00   0.00    -0.00   0.00   0.00
  32   7    -0.00   0.00   0.00     0.07  -0.09  -0.06    -0.00   0.00   0.00
  33   1     0.00  -0.00   0.00    -0.33   0.17  -0.28     0.00  -0.00   0.00
  34   1    -0.00  -0.00  -0.00     0.06   0.19   0.49    -0.00  -0.00  -0.00
  35   7     0.00  -0.00   0.00     0.08  -0.05   0.09     0.00  -0.00  -0.00
  36   1     0.00  -0.00  -0.00     0.01  -0.12  -0.49     0.00  -0.00  -0.00
  37   1    -0.00   0.00   0.00    -0.31   0.30   0.16    -0.00   0.00   0.00
  38   6    -0.00   0.00   0.00    -0.00   0.00  -0.00     0.00  -0.00  -0.00
  39   8     0.00  -0.00  -0.00     0.00  -0.00   0.00    -0.00  -0.00   0.00
  40   7    -0.00   0.00  -0.00     0.00  -0.00   0.00    -0.00  -0.00   0.01
  41   1     0.00  -0.00   0.00    -0.00   0.00  -0.00    -0.01   0.00  -0.01
  42   1     0.00   0.00  -0.00    -0.00  -0.00   0.00     0.03   0.01  -0.03
  43   7    -0.00   0.00  -0.00    -0.00   0.00  -0.00    -0.05   0.02  -0.18
  44   1    -0.00  -0.00   0.00    -0.00  -0.00   0.00    -0.47  -0.19   0.51
  45   1     0.00   0.00   0.00     0.00   0.00   0.00     0.64   0.12   0.14
  46   6    -0.00   0.00   0.00    -0.00   0.00   0.00     0.00   0.00  -0.00
  47   8     0.00   0.00   0.00     0.00  -0.00  -0.00    -0.00  -0.00   0.00
  48   7    -0.12   0.05   0.13     0.00  -0.00  -0.00     0.00  -0.00  -0.00
  49   1    -0.26  -0.26  -0.54     0.00   0.00   0.00     0.00   0.00   0.00
  50   1     0.72   0.08   0.06    -0.00  -0.00  -0.00    -0.00  -0.00  -0.00
  51   7     0.01   0.00  -0.01     0.00  -0.00  -0.00     0.00   0.00   0.00
  52   1    -0.03  -0.01   0.00     0.00   0.00  -0.00    -0.02  -0.01   0.00
  53   1    -0.01   0.00   0.01    -0.00   0.00   0.00     0.01  -0.00  -0.01
                    145                    146                    147
                        a                      a                      a 
 Frequencies --  3503.5337              3527.2226              3530.9148
 Red. masses --     1.4631                 1.9268                 1.8981
 Frc consts  --     0.0000                 0.0000                 0.0000
 IR Inten    --     8.2586                15.6232                15.9367
 Raman Activ --     0.0000                 0.0000                 0.0000
 Depolar     --     0.0000                 0.0000                 0.0000
 Atom AN      X      Y      Z        X      Y      Z        X      Y      Z
   1   8    -0.00  -0.00  -0.00     0.00   0.00   0.00     0.00   0.00   0.00
   2   6    -0.00   0.00  -0.00     0.00  -0.00  -0.00     0.00  -0.00   0.00
   3   1     0.00   0.00   0.00    -0.00  -0.00  -0.00     0.00   0.00   0.00
   4   1     0.00   0.00   0.00    -0.00  -0.00   0.00    -0.00  -0.00  -0.00
   5   6    -0.00  -0.00   0.00    -0.00  -0.00  -0.00    -0.00   0.00  -0.00
   6   1     0.00   0.00  -0.00     0.00   0.00  -0.00     0.00  -0.00  -0.00
   7   1     0.00   0.00  -0.00    -0.00   0.00  -0.00    -0.00  -0.00   0.00
   8   7    -0.00   0.00   0.00    -0.00   0.00   0.00     0.00   0.00   0.00
   9   6     0.00  -0.00  -0.00    -0.00   0.00  -0.00    -0.00  -0.00  -0.00
  10   1     0.00  -0.00   0.00    -0.00  -0.00   0.00     0.00   0.00   0.00
  11   1    -0.00   0.00   0.00    -0.00  -0.00   0.00    -0.00  -0.00  -0.00
  12   1     0.00  -0.00  -0.00     0.00  -0.00  -0.00     0.00  -0.00  -0.00
  13   6    -0.00  -0.00  -0.00     0.00   0.00   0.00    -0.00  -0.00  -0.00
  14   1     0.00  -0.00  -0.00    -0.00   0.00   0.00     0.00   0.00   0.00
  15   1     0.00   0.00  -0.00    -0.00   0.00  -0.00    -0.00  -0.00  -0.00
  16   1     0.00   0.00   0.00    -0.00   0.00   0.00    -0.00   0.00   0.00
  17   6     0.00  -0.00  -0.00     0.00   0.00  -0.00     0.00  -0.00  -0.00
  18   1     0.00  -0.00  -0.00    -0.00  -0.00   0.00    -0.00  -0.00  -0.00
  19   1     0.00  -0.00  -0.00    -0.00   0.00  -0.00    -0.00  -0.00  -0.00
  20   1    -0.00   0.00   0.00     0.00  -0.00  -0.00    -0.00   0.00   0.00
  21   1     0.00   0.00   0.00    -0.00  -0.00  -0.00    -0.00  -0.00  -0.00
  22   6     0.00   0.00   0.00     0.00   0.00  -0.00    -0.00   0.00  -0.01
  23   8     0.00  -0.00  -0.00    -0.00  -0.00   0.00    -0.00  -0.00   0.00
  24   7     0.00  -0.00   0.00    -0.00  -0.00   0.00    -0.04  -0.02   0.00
  25   1    -0.00  -0.00  -0.00     0.01   0.00   0.00     0.11   0.02   0.03
  26   1     0.00   0.00  -0.00     0.00   0.00  -0.00     0.04   0.07  -0.04
  27   7    -0.00  -0.00   0.00     0.01   0.01  -0.01     0.14   0.14  -0.16
  28   1     0.00   0.00  -0.00    -0.04  -0.04   0.04    -0.57  -0.50   0.56
  29   1     0.00  -0.00   0.00    -0.00   0.00  -0.00     0.04  -0.02   0.05
  30   6     0.00   0.00   0.00     0.00   0.00   0.00     0.00  -0.00   0.00
  31   8    -0.00  -0.00  -0.01    -0.00  -0.00  -0.00    -0.00  -0.00  -0.00
  32   7    -0.08   0.09   0.05     0.00  -0.00  -0.00    -0.00   0.00   0.00
  33   1     0.33  -0.17   0.28    -0.00   0.00  -0.00     0.00  -0.00   0.00
  34   1    -0.06  -0.18  -0.46     0.00   0.00   0.00    -0.00  -0.00  -0.00
  35   7     0.09  -0.05   0.09    -0.00   0.00  -0.00     0.00  -0.00  -0.00
  36   1     0.01  -0.12  -0.50    -0.00   0.00   0.00    -0.00  -0.00   0.00
  37   1    -0.33   0.32   0.17     0.00  -0.00  -0.00    -0.00   0.00   0.00
  38   6     0.00   0.00   0.00    -0.00  -0.00   0.00     0.00   0.00  -0.00
  39   8     0.00   0.00  -0.00     0.00   0.00  -0.00    -0.00  -0.00   0.00
  40   7    -0.00   0.00  -0.00     0.00  -0.00   0.00     0.02   0.01  -0.02
  41   1     0.00  -0.00   0.00    -0.00   0.00  -0.00     0.01  -0.00   0.01
  42   1    -0.00  -0.00   0.00     0.00   0.00  -0.00    -0.07  -0.02   0.07
  43   7     0.00  -0.00   0.00     0.00   0.00  -0.00    -0.00  -0.00   0.00
  44   1     0.00   0.00  -0.00    -0.01  -0.00   0.01     0.01   0.00  -0.01
  45   1    -0.00  -0.00  -0.00     0.01   0.00   0.00     0.01   0.00   0.00
  46   6     0.00  -0.00   0.00    -0.01  -0.00   0.01     0.00   0.00  -0.00
  47   8    -0.00  -0.00  -0.00     0.00   0.00  -0.00    -0.00  -0.00   0.00
  48   7     0.00  -0.00  -0.00     0.02   0.01   0.02    -0.00  -0.00  -0.00
  49   1     0.00   0.00   0.00    -0.03  -0.04  -0.08     0.00   0.00   0.01
  50   1    -0.00  -0.00  -0.00    -0.04  -0.00  -0.00     0.00   0.00   0.00
  51   7    -0.00  -0.00  -0.00    -0.25  -0.08   0.03     0.02   0.01  -0.00
  52   1     0.00   0.00  -0.00     0.88   0.35  -0.02    -0.06  -0.02   0.00
  53   1    -0.00   0.00   0.00     0.05  -0.03  -0.11    -0.01   0.00   0.01
                    148                    149                    150
                        a                      a                      a 
 Frequencies --  3532.2527              3548.9654              3555.4699
 Red. masses --     1.9012                 2.1645                 2.1690
 Frc consts  --     0.0000                 0.0000                 0.0000
 IR Inten    --    12.4158                13.1931                 5.6929
 Raman Activ --     0.0000                 0.0000                 0.0000
 Depolar     --     0.0000                 0.0000                 0.0000
 Atom AN      X      Y      Z        X      Y      Z        X      Y      Z
   1   8    -0.00  -0.00  -0.00    -0.00  -0.00  -0.00     0.00  -0.00  -0.00
   2   6     0.00   0.00  -0.00     0.00  -0.00   0.00    -0.00   0.00   0.00
   3   1    -0.00  -0.00  -0.00    -0.00  -0.00  -0.00     0.00   0.00   0.00
   4   1     0.00   0.00   0.00     0.00   0.00  -0.00     0.00   0.00  -0.00
   5   6     0.00   0.00   0.00     0.00   0.00   0.00     0.00   0.00  -0.00
   6   1    -0.00  -0.00  -0.00    -0.00   0.00  -0.00    -0.00  -0.00   0.00
   7   1     0.00   0.00   0.00    -0.00  -0.00  -0.00     0.00   0.00   0.00
   8   7     0.00   0.00   0.00    -0.00   0.00   0.00     0.00   0.00   0.00
   9   6     0.00  -0.00  -0.00    -0.00   0.00   0.00     0.00   0.00   0.00
  10   1    -0.00   0.00   0.00    -0.00  -0.00   0.00    -0.00  -0.00  -0.00
  11   1     0.00   0.00   0.00     0.00  -0.00  -0.00     0.00   0.00  -0.00
  12   1     0.00   0.00   0.00     0.00  -0.00   0.00     0.00   0.00   0.00
  13   6     0.00   0.00  -0.00     0.00   0.00   0.00     0.00   0.00   0.00
  14   1    -0.00  -0.00  -0.00    -0.00  -0.00  -0.00    -0.00  -0.00  -0.00
  15   1     0.00  -0.00   0.00     0.00  -0.00   0.00     0.00   0.00   0.00
  16   1     0.00   0.00   0.00     0.00  -0.00  -0.00     0.00   0.00  -0.00
  17   6    -0.00   0.00  -0.00    -0.00   0.00   0.00    -0.00   0.00   0.00
  18   1     0.00   0.00  -0.00    -0.00   0.00  -0.00     0.00   0.00   0.00
  19   1     0.00  -0.00   0.00     0.00  -0.00   0.00    -0.00   0.00   0.00
  20   1    -0.00   0.00   0.00     0.00  -0.00  -0.00     0.00  -0.00  -0.00
  21   1     0.00   0.00   0.00     0.01   0.00   0.00    -0.00   0.00   0.00
  22   6    -0.00  -0.00  -0.00    -0.01  -0.01   0.00     0.00   0.00   0.00
  23   8     0.00   0.00  -0.00     0.00   0.00  -0.00    -0.00  -0.00  -0.00
  24   7    -0.00   0.00  -0.00    -0.25  -0.16   0.04    -0.00  -0.00   0.00
  25   1     0.01   0.00   0.00     0.60   0.08   0.17     0.00   0.00   0.00
  26   1    -0.00  -0.00   0.00     0.34   0.52  -0.33     0.00   0.00  -0.00
  27   7     0.02   0.01  -0.02    -0.02  -0.02   0.02    -0.00   0.00  -0.00
  28   1    -0.06  -0.05   0.06     0.09   0.08  -0.08     0.00   0.00  -0.00
  29   1     0.00  -0.00   0.00    -0.01   0.00  -0.01     0.00  -0.00   0.00
  30   6    -0.00   0.00   0.00     0.00  -0.00  -0.00     0.00   0.00   0.00
  31   8    -0.00  -0.00  -0.00    -0.00   0.00   0.00    -0.00  -0.00   0.00
  32   7     0.00  -0.00   0.00     0.00   0.00   0.00     0.00  -0.00   0.00
  33   1    -0.00   0.00  -0.00    -0.00   0.00  -0.00    -0.00   0.00  -0.00
  34   1     0.00   0.00   0.00    -0.00  -0.00  -0.00    -0.00  -0.00  -0.00
  35   7    -0.00   0.00   0.00     0.00  -0.00  -0.00    -0.00  -0.00  -0.00
  36   1     0.00  -0.00  -0.00    -0.00   0.00   0.00     0.00   0.00   0.00
  37   1     0.00  -0.00   0.00    -0.00   0.00   0.00    -0.00   0.00   0.00
  38   6    -0.00  -0.00   0.01    -0.00  -0.00   0.00     0.00   0.00  -0.00
  39   8     0.00   0.00  -0.00     0.00   0.00  -0.00    -0.00  -0.00   0.00
  40   7    -0.16  -0.06   0.20    -0.00  -0.00   0.00    -0.00   0.00  -0.00
  41   1    -0.05   0.02  -0.07    -0.00   0.00  -0.01     0.00  -0.00   0.00
  42   1     0.62   0.21  -0.69     0.01   0.00  -0.01    -0.00  -0.00   0.00
  43   7     0.02   0.00   0.00     0.00   0.00  -0.00    -0.00  -0.00   0.00
  44   1    -0.00  -0.00   0.01    -0.00  -0.00   0.00     0.00   0.00  -0.00
  45   1    -0.08  -0.01  -0.02    -0.00  -0.00  -0.00     0.00   0.00   0.00
  46   6    -0.00   0.00  -0.00    -0.00  -0.00  -0.00     0.01   0.00   0.01
  47   8     0.00  -0.00   0.00     0.00   0.00  -0.00    -0.00  -0.00  -0.00
  48   7     0.00   0.00   0.00    -0.00  -0.00  -0.00     0.23   0.09   0.16
  49   1    -0.00  -0.00  -0.00     0.00   0.00   0.00    -0.25  -0.29  -0.59
  50   1    -0.00  -0.00  -0.00     0.00   0.00   0.00    -0.63  -0.05  -0.03
  51   7     0.00   0.00  -0.00    -0.00  -0.00   0.00     0.02   0.01  -0.00
  52   1    -0.01  -0.00   0.00     0.00   0.00  -0.00    -0.09  -0.03   0.00
  53   1    -0.00   0.00   0.00     0.00  -0.00  -0.00    -0.01   0.00   0.01
                    151                    152                    153
                        a                      a                      a 
 Frequencies --  3563.4564              3567.9380              3568.9440
 Red. masses --     2.1897                 2.1856                 2.1763
 Frc consts  --     0.0000                 0.0000                 0.0000
 IR Inten    --    13.0114                15.3193                11.9132
 Raman Activ --     0.0000                 0.0000                 0.0000
 Depolar     --     0.0000                 0.0000                 0.0000
 Atom AN      X      Y      Z        X      Y      Z        X      Y      Z
   1   8    -0.00  -0.00  -0.00    -0.00  -0.00  -0.00     0.00  -0.00  -0.00
   2   6     0.00  -0.00   0.00     0.00   0.00   0.00    -0.00   0.00  -0.00
   3   1    -0.00  -0.00   0.00    -0.00  -0.00  -0.00    -0.00  -0.00   0.00
   4   1    -0.00   0.00  -0.00     0.00   0.00   0.00     0.00  -0.00  -0.00
   5   6    -0.00  -0.00   0.00     0.00   0.00   0.00    -0.00  -0.00   0.00
   6   1     0.00  -0.00   0.00    -0.00  -0.00   0.00     0.00   0.00  -0.00
   7   1     0.00   0.00  -0.00    -0.00   0.00  -0.00     0.00  -0.00  -0.00
   8   7    -0.00   0.00   0.00    -0.00   0.00  -0.00    -0.00   0.00   0.00
   9   6    -0.00   0.00   0.00     0.00   0.00   0.00     0.00  -0.00  -0.00
  10   1     0.00   0.00   0.00    -0.00  -0.00  -0.00     0.00   0.00  -0.00
  11   1     0.00  -0.00  -0.00     0.00  -0.00  -0.00    -0.00   0.00   0.00
  12   1     0.00   0.00   0.00     0.00   0.00   0.00    -0.00   0.00  -0.00
  13   6     0.00  -0.00  -0.00     0.00   0.00   0.00    -0.00  -0.00  -0.00
  14   1    -0.00  -0.00  -0.00    -0.00  -0.00  -0.00     0.00  -0.00  -0.00
  15   1     0.00   0.00  -0.00     0.00   0.00  -0.00     0.00  -0.00  -0.00
  16   1     0.00   0.00   0.00     0.00  -0.00  -0.00     0.00   0.00   0.00
  17   6    -0.00   0.00   0.00    -0.00  -0.00   0.00     0.00  -0.00  -0.00
  18   1    -0.00   0.00   0.00     0.00   0.00  -0.00     0.00  -0.00  -0.00
  19   1     0.00  -0.00   0.00     0.00  -0.00   0.00    -0.00   0.00  -0.00
  20   1    -0.00  -0.00  -0.00     0.00  -0.00  -0.00    -0.00   0.00   0.00
  21   1     0.00   0.00   0.00     0.00   0.00   0.00     0.00   0.00   0.00
  22   6     0.00  -0.00   0.00    -0.00  -0.00   0.00     0.00   0.00  -0.00
  23   8    -0.00   0.00  -0.00     0.00   0.00  -0.00    -0.00  -0.00   0.00
  24   7    -0.00  -0.00   0.00    -0.00  -0.00   0.00     0.00   0.00  -0.00
  25   1     0.00   0.00   0.00     0.00   0.00   0.00    -0.00  -0.00  -0.00
  26   1     0.00   0.00  -0.00     0.00   0.00  -0.00    -0.00  -0.00   0.00
  27   7    -0.00  -0.00  -0.00    -0.00  -0.00   0.00    -0.00  -0.00   0.00
  28   1     0.00   0.00  -0.00     0.00   0.00  -0.00     0.00   0.00  -0.00
  29   1     0.00  -0.00   0.00    -0.00   0.00  -0.01    -0.00   0.00  -0.00
  30   6    -0.01   0.00  -0.00    -0.00   0.00  -0.00    -0.00  -0.00  -0.01
  31   8     0.00  -0.00   0.00     0.00   0.00   0.00     0.00   0.00   0.00
  32   7    -0.11   0.01  -0.19    -0.00   0.00  -0.00    -0.10   0.00  -0.18
  33   1     0.38  -0.20   0.30     0.00  -0.00   0.00     0.35  -0.19   0.28
  34   1     0.04   0.18   0.42     0.00   0.00   0.00     0.04   0.17   0.41
  35   7    -0.09   0.11   0.15    -0.00   0.00   0.00     0.09  -0.11  -0.16
  36   1    -0.00  -0.09  -0.43     0.00  -0.00  -0.00     0.00   0.10   0.47
  37   1     0.33  -0.32  -0.16     0.00  -0.00  -0.00    -0.35   0.33   0.16
  38   6     0.00   0.00  -0.00    -0.01  -0.00   0.00     0.00   0.00   0.00
  39   8    -0.00   0.00   0.00     0.00   0.00  -0.00    -0.00  -0.00  -0.00
  40   7     0.00   0.00  -0.00    -0.01  -0.00   0.01    -0.00  -0.00   0.00
  41   1     0.00  -0.00   0.00    -0.00   0.00  -0.01    -0.00   0.00  -0.00
  42   1    -0.00  -0.00   0.00     0.05   0.01  -0.05     0.00   0.00  -0.00
  43   7     0.00   0.00  -0.00    -0.28  -0.08   0.08    -0.00  -0.00   0.00
  44   1    -0.00  -0.00   0.00     0.40   0.17  -0.48     0.00   0.00  -0.00
  45   1    -0.00  -0.00  -0.00     0.66   0.12   0.18     0.00   0.00   0.00
  46   6     0.00  -0.00  -0.00    -0.00  -0.00  -0.00     0.00   0.00   0.00
  47   8    -0.00   0.00  -0.00     0.00   0.00   0.00    -0.00  -0.00  -0.00
  48   7     0.00   0.00   0.00    -0.00  -0.00  -0.00     0.00   0.00  -0.00
  49   1    -0.00  -0.00  -0.00     0.00   0.00   0.00     0.00   0.00   0.00
  50   1    -0.00  -0.00  -0.00     0.00   0.00   0.00    -0.00  -0.00  -0.00
  51   7     0.00   0.00   0.00    -0.00  -0.00   0.00     0.00   0.00  -0.00
  52   1    -0.00  -0.00   0.00     0.01   0.00  -0.00    -0.00  -0.00   0.00
  53   1     0.00  -0.00  -0.00     0.00  -0.00  -0.01    -0.00   0.00   0.00
