      -----------------------------------------------------------      
     |                   =====================                   |     
     |                           x T B                           |     
     |                   =====================                   |     
     |                         S. Grimme                         |     
     |          Mulliken Center for Theoretical Chemistry        |     
     |                    University of Bonn                     |     
      -----------------------------------------------------------      

   * xtb version 6.6.1 (unknown-commit) compiled by '@Linux' on 12/27/2023

   xtb is free software: you can redistribute it and/or modify it under
   the terms of the GNU Lesser General Public License as published by
   the Free Software Foundation, either version 3 of the License, or
   (at your option) any later version.
   
   xtb is distributed in the hope that it will be useful,
   but WITHOUT ANY WARRANTY; without even the implied warranty of
   MERCHANTABILITY or FITNESS FOR A PARTICULAR PURPOSE.  See the
   GNU Lesser General Public License for more details.
   
   Cite this work as:
   * C. Bannwarth, E. Caldeweyher, S. Ehlert, A. Hansen, P. Pracht,
     J. Seibert, S. Spicher, S. Grimme, WIREs Comput. Mol. Sci., 2020, 11,
     e01493. DOI: 10.1002/wcms.1493
   
   for GFN2-xTB:
   * C. Bannwarth, S. Ehlert and S. Grimme., J. Chem. Theory Comput., 2019,
     15, 1652-1671. DOI: 10.1021/acs.jctc.8b01176
   for GFN1-xTB:
   * S. Grimme, C. Bannwarth, P. Shushkov, J. Chem. Theory Comput., 2017,
     13, 1989-2009. DOI: 10.1021/acs.jctc.7b00118
   for GFN0-xTB:
   * P. Pracht, E. Caldeweyher, S. Ehlert, S. Grimme, ChemRxiv, 2019, preprint.
     DOI: 10.26434/chemrxiv.8326202.v1
   for GFN-FF:
   * S. Spicher and S. Grimme, Angew. Chem. Int. Ed., 2020, 59, 15665-15673.
     DOI: 10.1002/anie.202004239
   
   for ALPB and GBSA implicit solvation:
   * S. Ehlert, M. Stahn, S. Spicher, S. Grimme, J. Chem. Theory Comput.,
     2021, 17, 4250-4261. DOI: 10.1021/acs.jctc.1c00471
   
   for DFT-D4:
   * E. Caldeweyher, C. Bannwarth and S. Grimme, J. Chem. Phys., 2017,
     147, 034112. DOI: 10.1063/1.4993215
   * E. Caldeweyher, S. Ehlert, A. Hansen, H. Neugebauer, S. Spicher,
     C. Bannwarth and S. Grimme, J. Chem. Phys., 2019, 150, 154122.
     DOI: 10.1063/1.5090222
   * E. Caldeweyher, J.-M. Mewes, S. Ehlert and S. Grimme, Phys. Chem. Chem. Phys.
     2020, 22, 8499-8512. DOI: 10.1039/D0CP00502A
   
   for sTDA-xTB:
   * S. Grimme and C. Bannwarth, J. Chem. Phys., 2016, 145, 054103.
     DOI: 10.1063/1.4959605
   
   in the mass-spec context:
   * V. Asgeirsson, C. Bauer and S. Grimme, Chem. Sci., 2017, 8, 4879.
     DOI: 10.1039/c7sc00601b
   * J. Koopman and S. Grimme, ACS Omega 2019, 4, 12, 15120-15133.
     DOI: 10.1021/acsomega.9b02011
   
   for metadynamics refer to:
   * S. Grimme, J. Chem. Theory Comput., 2019, 155, 2847-2862
     DOI: 10.1021/acs.jctc.9b00143
   
   for SPH calculations refer to:
   * S. Spicher and S. Grimme, J. Chem. Theory Comput., 2021, 17, 1701-1714
     DOI: 10.1021/acs.jctc.0c01306
   
   with help from (in alphabetical order)
   P. Atkinson, C. Bannwarth, F. Bohle, G. Brandenburg, E. Caldeweyher
   M. Checinski, S. Dohm, S. Ehlert, S. Ehrlich, I. Gerasimov, C. Hölzer
   A. Katbashev, J. Koopman, C. Lavigne, S. Lehtola, F. März, M. Müller,
   F. Musil, H. Neugebauer, J. Pisarek, C. Plett, P. Pracht, F. Pultar,
   J. Seibert, P. Shushkov, S. Spicher, M. Stahn, M. Steiner, T. Strunk,
   J. Stückrath, T. Rose, and J. Unsleber
   
 * started run on 2024/01/10 at 18:33:10.192     

           -------------------------------------------------
          |                Calculation Setup                |
           -------------------------------------------------

          program call               : xtb struc.xyz --gfn2 --hess
          hostname                   : swaroop
          coordinate file            : struc.xyz
          omp threads                :                     1

   ID    Z sym.   atoms
    1    8 O      1, 23, 31, 39, 47
    2    6 C      2, 5, 9, 13, 17, 22, 30, 38, 46
    3    1 H      3, 4, 6, 7, 10-12, 14-16, 18-21, 25, 26, 28, 29, 33, 34,
                  36, 37, 41, 42, 44, 45, 49, 50, 52, 53
    4    7 N      8, 24, 27, 32, 35, 40, 43, 48, 51

molecular fragmentation (1/2 indicates fragments):
11111111111111111111122222222222222222222222222222222
# atoms in fragment 1/2:    21    32
 fragment masses (1/2) :      104.17      240.22
CMA distance (Bohr)    :   5.401
constraining FC (au)   :  0.0500

           -------------------------------------------------
          |                 G F N 2 - x T B                 |
           -------------------------------------------------

        Reference                      10.1021/acs.jctc.8b01176
      * Hamiltonian:
        H0-scaling (s, p, d)           1.850000    2.230000    2.230000
        zeta-weighting                 0.500000
      * Dispersion:
        s8                             2.700000
        a1                             0.520000
        a2                             5.000000
        s9                             5.000000
      * Repulsion:
        kExp                           1.500000    1.000000
        rExp                           1.000000
      * Coulomb:
        alpha                          2.000000
        third order                    shell-resolved
        anisotropic                    true
        a3                             3.000000
        a5                             4.000000
        cn-shift                       1.200000
        cn-exp                         4.000000
        max-rad                        5.000000


          ...................................................
          :                      SETUP                      :
          :.................................................:
          :  # basis functions                 122          :
          :  # atomic orbitals                 122          :
          :  # shells                           76          :
          :  # electrons                       140          :
          :  max. iterations                   250          :
          :  Hamiltonian                  GFN2-xTB          :
          :  restarted?                      false          :
          :  GBSA solvation                  false          :
          :  PC potential                    false          :
          :  electronic temp.          300.0000000     K    :
          :  accuracy                    1.0000000          :
          :  -> integral cutoff          0.2500000E+02      :
          :  -> integral neglect         0.1000000E-07      :
          :  -> SCF convergence          0.1000000E-05 Eh   :
          :  -> wf. convergence          0.1000000E-03 e    :
          :  Broyden damping             0.4000000          :
          ...................................................

 iter      E             dE          RMSdq      gap      omega  full diag
   1    -81.5490180 -0.815490E+02  0.434E+00    5.14       0.0  T
   2    -81.8375365 -0.288519E+00  0.236E+00    5.95       1.0  T
   3    -81.8434880 -0.595155E-02  0.116E+00    5.73       1.0  T
   4    -81.8449093 -0.142131E-02  0.245E-01    5.85       1.0  T
   5    -81.8458419 -0.932586E-03  0.928E-02    5.77       1.0  T
   6    -81.8458666 -0.247372E-04  0.269E-02    5.78       1.0  T
   7    -81.8458712 -0.458460E-05  0.766E-03    5.78       1.8  T
   8    -81.8458715 -0.271763E-06  0.274E-03    5.78       5.0  T
   9    -81.8458715 -0.136523E-07  0.876E-04    5.78      15.7  T
  10    -81.8458715 -0.389566E-08  0.172E-04    5.78      79.6  T

   *** convergence criteria satisfied after 10 iterations ***

         #    Occupation            Energy/Eh            Energy/eV
      -------------------------------------------------------------
         1        2.0000           -0.7927640             -21.5722
       ...           ...                  ...                  ...
        64        2.0000           -0.4941517             -13.4466
        65        2.0000           -0.4924795             -13.4011
        66        2.0000           -0.4913603             -13.3706
        67        2.0000           -0.4876900             -13.2707
        68        2.0000           -0.4868035             -13.2466
        69        2.0000           -0.4848294             -13.1929
        70        2.0000           -0.4832845             -13.1508 (HOMO)
        71                         -0.2710014              -7.3743 (LUMO)
        72                         -0.2647723              -7.2048
        73                         -0.2596091              -7.0643
        74                         -0.2568502              -6.9893
        75                         -0.1489403              -4.0529
       ...                                ...                  ...
       122                          0.5660119              15.4020
      -------------------------------------------------------------
                  HL-Gap            0.2122830 Eh            5.7765 eV
             Fermi-level           -0.3771429 Eh          -10.2626 eV

 SCC (total)                   0 d,  0 h,  0 min,  0.102 sec
 SCC setup                      ...        0 min,  0.000 sec (  0.292%)
 Dispersion                     ...        0 min,  0.001 sec (  0.593%)
 classical contributions        ...        0 min,  0.000 sec (  0.182%)
 integral evaluation            ...        0 min,  0.008 sec (  7.744%)
 iterations                     ...        0 min,  0.065 sec ( 64.318%)
 molecular gradient             ...        0 min,  0.027 sec ( 26.617%)
 printout                       ...        0 min,  0.000 sec (  0.242%)

         :::::::::::::::::::::::::::::::::::::::::::::::::::::
         ::                     SUMMARY                     ::
         :::::::::::::::::::::::::::::::::::::::::::::::::::::
         :: total energy             -80.932094962233 Eh    ::
         :: gradient norm              0.000183340378 Eh/a0 ::
         :: HOMO-LUMO gap              5.776514588978 eV    ::
         ::.................................................::
         :: SCC energy               -81.845871523102 Eh    ::
         :: -> isotropic ES            0.291539724754 Eh    ::
         :: -> anisotropic ES         -0.027968296144 Eh    ::
         :: -> anisotropic XC          0.020592307537 Eh    ::
         :: -> dispersion             -0.042744270775 Eh    ::
         :: repulsion energy           0.912444228355 Eh    ::
         :: add. restraining           0.000000000000 Eh    ::
         :: total charge               1.000000000000 e     ::
         :::::::::::::::::::::::::::::::::::::::::::::::::::::

           ------------------------------------------------- 
          |                Numerical Hessian                |
           ------------------------------------------------- 
step length          :   0.00500
SCC accuracy         :   0.30000
Hessian scale factor :   1.00000
frozen atoms in %    :   0.00000    0
RMS gradient         :   0.00018
estimated CPU  time      0.24 min
estimated wall time      0.24 min

writing file <hessian>.

 projected vibrational frequencies (cm⁻¹)
eigval :       -0.00    -0.00    -0.00    -0.00     0.00     0.00
eigval :        7.50    10.58    13.45    20.68    24.73    27.89
eigval :       36.20    40.00    45.01    48.24    56.76    61.87
eigval :       67.96    77.58    81.95    92.63   100.76   107.33
eigval :      113.71   120.51   135.97   155.16   173.53   180.17
eigval :      194.79   201.82   209.31   251.72   277.49   310.00
eigval :      331.53   337.70   347.70   362.86   375.74   381.70
eigval :      391.56   409.29   430.68   432.17   444.42   454.19
eigval :      455.25   457.89   465.46   468.63   472.33   474.74
eigval :      480.92   484.64   499.45   502.74   531.19   534.99
eigval :      553.27   562.07   582.14   652.20   664.17   674.40
eigval :      677.10   696.61   735.35   763.95   772.50   794.32
eigval :      900.39   928.50   946.83   963.65   966.18   982.99
eigval :      995.31  1002.73  1004.76  1012.28  1020.30  1026.91
eigval :     1028.48  1040.45  1042.37  1081.38  1086.76  1090.06
eigval :     1095.05  1099.35  1107.01  1133.78  1170.30  1228.00
eigval :     1252.87  1284.01  1310.01  1332.15  1346.79  1352.40
eigval :     1353.36  1354.56  1380.79  1397.67  1402.35  1405.51
eigval :     1427.15  1436.53  1441.90  1448.76  1451.04  1454.74
eigval :     1456.59  1457.46  1464.02  1469.84  1473.67  1479.91
eigval :     1492.59  1496.43  1497.98  1512.38  1517.75  1657.57
eigval :     1695.18  1719.78  1729.37  2899.11  2968.14  2985.90
eigval :     2993.22  3031.13  3031.72  3040.02  3041.58  3042.49
eigval :     3048.78  3050.80  3056.56  3061.25  3123.63  3132.50
eigval :     3215.99  3336.06  3485.99  3491.43  3499.42  3500.94
eigval :     3503.53  3527.22  3530.91  3532.25  3548.97  3555.47
eigval :     3563.46  3567.94  3568.94
           -------------------------------------------------
          |                Property Printout                |
           -------------------------------------------------

    * Orbital Energies and Occupations

         #    Occupation            Energy/Eh            Energy/eV
      -------------------------------------------------------------
         1        2.0000           -0.7927639             -21.5722
       ...           ...                  ...                  ...
        58        2.0000           -0.5084472             -13.8356
        59        2.0000           -0.5052507             -13.7486
        60        2.0000           -0.5028605             -13.6835
        61        2.0000           -0.5007351             -13.6257
        62        2.0000           -0.4965558             -13.5120
        63        2.0000           -0.4954193             -13.4810
        64        2.0000           -0.4941528             -13.4466
        65        2.0000           -0.4924788             -13.4010
        66        2.0000           -0.4913592             -13.3706
        67        2.0000           -0.4876912             -13.2708
        68        2.0000           -0.4868044             -13.2466
        69        2.0000           -0.4848312             -13.1929
        70        2.0000           -0.4832853             -13.1509 (HOMO)
        71                         -0.2710037              -7.3744 (LUMO)
        72                         -0.2647713              -7.2048
        73                         -0.2596111              -7.0644
        74                         -0.2568510              -6.9893
        75                         -0.1489403              -4.0529
        76                         -0.1002646              -2.7283
        77                         -0.0965447              -2.6271
        78                         -0.0781190              -2.1257
        79                         -0.0748698              -2.0373
        80                         -0.0708581              -1.9281
        81                         -0.0660241              -1.7966
       ...                                ...                  ...
       122                          0.5660112              15.4019
      -------------------------------------------------------------
                  HL-Gap            0.2122816 Eh            5.7765 eV
             Fermi-level           -0.3771445 Eh          -10.2626 eV

     #   Z          covCN         q      C6AA      α(0)
     1   8 O        1.653    -0.472    22.300     6.375
     2   6 C        3.673     0.075    19.559     6.338
     3   1 H        0.924     0.052     2.293     2.368
     4   1 H        0.923     0.044     2.392     2.419
     5   6 C        3.762    -0.063    21.758     6.649
     6   1 H        0.924     0.125     1.577     1.964
     7   1 H        0.924     0.069     2.099     2.266
     8   7 N        3.623     0.159    18.558     6.398
     9   6 C        3.730    -0.120    22.907     6.832
    10   1 H        0.925     0.117     1.638     2.002
    11   1 H        0.925     0.106     1.734     2.059
    12   1 H        0.925     0.107     1.720     2.051
    13   6 C        3.736    -0.117    22.830     6.819
    14   1 H        0.925     0.119     1.625     1.993
    15   1 H        0.925     0.074     2.037     2.232
    16   1 H        0.925     0.117     1.635     2.000
    17   6 C        3.723    -0.106    22.636     6.794
    18   1 H        0.925     0.078     2.002     2.213
    19   1 H        0.925     0.095     1.828     2.114
    20   1 H        0.925     0.121     1.603     1.980
    21   1 H        0.802     0.336     0.622     1.239
    22   6 C        2.675     0.347    21.110     7.518
    23   8 O        0.861    -0.519    24.213     6.597
    24   7 N        2.644    -0.298    27.675     7.813
    25   1 H        0.860     0.200     1.105     1.647
    26   1 H        0.860     0.182     1.203     1.718
    27   7 N        2.643    -0.298    27.673     7.813
    28   1 H        0.861     0.178     1.224     1.733
    29   1 H        0.859     0.252     0.877     1.467
    30   6 C        2.675     0.345    21.132     7.522
    31   8 O        0.860    -0.521    24.253     6.603
    32   7 N        2.646    -0.289    27.465     7.783
    33   1 H        0.860     0.199     1.111     1.651
    34   1 H        0.861     0.186     1.178     1.700
    35   7 N        2.646    -0.289    27.466     7.784
    36   1 H        0.861     0.186     1.178     1.700
    37   1 H        0.860     0.200     1.107     1.648
    38   6 C        2.675     0.343    21.167     7.528
    39   8 O        0.861    -0.524    24.312     6.611
    40   7 N        2.644    -0.308    27.939     7.850
    41   1 H        0.859     0.246     0.898     1.485
    42   1 H        0.861     0.176     1.239     1.744
    43   7 N        2.645    -0.288    27.430     7.778
    44   1 H        0.861     0.183     1.198     1.715
    45   1 H        0.860     0.201     1.098     1.642
    46   6 C        2.675     0.342    21.198     7.534
    47   8 O        0.860    -0.530    24.462     6.631
    48   7 N        2.645    -0.305    27.866     7.840
    49   1 H        0.860     0.189     1.162     1.689
    50   1 H        0.860     0.179     1.222     1.731
    51   7 N        2.645    -0.301    27.752     7.824
    52   1 H        0.860     0.179     1.220     1.730
    53   1 H        0.860     0.241     0.920     1.503

 Mol. C6AA /au·bohr⁶  :      21806.402343
 Mol. C8AA /au·bohr⁸  :     454335.073103
 Mol. α(0) /au        :        220.637169


Wiberg/Mayer (AO) data.
largest (>0.10) Wiberg bond orders for each atom

 ---------------------------------------------------------------------------
     #   Z sym  total        # sym  WBO       # sym  WBO       # sym  WBO
 ---------------------------------------------------------------------------
     1   8 O    1.949 --     2 C    1.027    21 H    0.810
     2   6 C    3.968 --     1 O    1.027     5 C    0.989     3 H    0.967
                             4 H    0.962
     3   1 H    0.997 --     2 C    0.967
     4   1 H    0.998 --     2 C    0.962
     5   6 C    3.934 --     2 C    0.989     7 H    0.970     6 H    0.953
                             8 N    0.937
     6   1 H    0.984 --     5 C    0.953
     7   1 H    0.995 --     5 C    0.970
     8   7 N    3.823 --    17 C    0.962    13 C    0.956     9 C    0.951
                             5 C    0.937
     9   6 C    3.912 --    11 H    0.969    12 H    0.966    10 H    0.964
                             8 N    0.951
    10   1 H    0.986 --     9 C    0.964
    11   1 H    0.989 --     9 C    0.969
    12   1 H    0.988 --     9 C    0.966
    13   6 C    3.920 --    15 H    0.980    16 H    0.964    14 H    0.959
                             8 N    0.956
    14   1 H    0.986 --    13 C    0.959
    15   1 H    0.994 --    13 C    0.980
    16   1 H    0.986 --    13 C    0.964
    17   6 C    3.931 --    18 H    0.979    19 H    0.974     8 N    0.962
                            20 H    0.960
    18   1 H    0.994 --    17 C    0.979
    19   1 H    0.991 --    17 C    0.974
    20   1 H    0.985 --    17 C    0.960
    21   1 H    0.887 --     1 O    0.810
    22   6 C    3.959 --    23 O    1.475    27 N    1.280    24 N    1.195
    23   8 O    1.946 --    22 C    1.475    27 N    0.142    24 N    0.123
    24   7 N    3.300 --    22 C    1.195    26 H    0.948    25 H    0.941
                            23 O    0.123
    25   1 H    0.960 --    24 N    0.941
    26   1 H    0.966 --    24 N    0.948
    27   7 N    3.356 --    22 C    1.280    28 H    0.948    29 H    0.857
                            23 O    0.142
    28   1 H    0.968 --    27 N    0.948
    29   1 H    0.937 --    27 N    0.857
    30   6 C    3.959 --    31 O    1.539    35 N    1.207    32 N    1.206
    31   8 O    1.895 --    30 C    1.539    35 N    0.144    32 N    0.143
    32   7 N    3.321 --    30 C    1.206    34 H    0.946    33 H    0.943
                            31 O    0.143
    33   1 H    0.960 --    32 N    0.943
    34   1 H    0.965 --    32 N    0.946
    35   7 N    3.323 --    30 C    1.207    36 H    0.946    37 H    0.943
                            31 O    0.144
    36   1 H    0.965 --    35 N    0.946
    37   1 H    0.960 --    35 N    0.943
    38   6 C    3.959 --    39 O    1.479    40 N    1.257    43 N    1.211
    39   8 O    1.922 --    38 C    1.479    40 N    0.141    43 N    0.128
    40   7 N    3.340 --    38 C    1.257    42 H    0.949    41 H    0.866
                            39 O    0.141
    41   1 H    0.939 --    40 N    0.866
    42   1 H    0.969 --    40 N    0.949
    43   7 N    3.325 --    38 C    1.211    44 H    0.948    45 H    0.943
                            39 O    0.128
    44   1 H    0.966 --    43 N    0.948
    45   1 H    0.959 --    43 N    0.943
    46   6 C    3.959 --    47 O    1.530    51 N    1.247    48 N    1.174
    47   8 O    1.888 --    46 C    1.530    51 N    0.150    48 N    0.135
    48   7 N    3.287 --    46 C    1.174    50 H    0.949    49 H    0.947
                            47 O    0.135
    49   1 H    0.964 --    48 N    0.947
    50   1 H    0.968 --    48 N    0.949
    51   7 N    3.340 --    46 C    1.247    52 H    0.948    53 H    0.885
                            47 O    0.150
    52   1 H    0.968 --    51 N    0.948
    53   1 H    0.942 --    51 N    0.885
 ---------------------------------------------------------------------------

Topologies differ in total number of bonds
Writing topology from bond orders to xtbtopo.mol

molecular dipole:
                 x           y           z       tot (Debye)
 q only:       -0.093       1.671       1.930
   full:       -0.554       1.550       2.000       6.585
molecular quadrupole (traceless):
                xx          xy          yy          xz          yz          zz
 q only:      -27.707      14.925     -15.543      13.312      28.527      43.250
  q+dip:      -33.829      16.609     -19.566      14.098      34.144      53.395
   full:      -34.248      16.211     -18.271      13.810      33.871      52.519

           -------------------------------------------------
          |               Frequency Printout                |
           -------------------------------------------------
 projected vibrational frequencies (cm⁻¹)
eigval :       -0.00    -0.00    -0.00    -0.00     0.00     0.00
eigval :        7.50    10.58    13.45    20.68    24.73    27.89
eigval :       36.20    40.00    45.01    48.24    56.76    61.87
eigval :       67.96    77.58    81.95    92.63   100.76   107.33
eigval :      113.71   120.51   135.97   155.16   173.53   180.17
eigval :      194.79   201.82   209.31   251.72   277.49   310.00
eigval :      331.53   337.70   347.70   362.86   375.74   381.70
eigval :      391.56   409.29   430.68   432.17   444.42   454.19
eigval :      455.25   457.89   465.46   468.63   472.33   474.74
eigval :      480.92   484.64   499.45   502.74   531.19   534.99
eigval :      553.27   562.07   582.14   652.20   664.17   674.40
eigval :      677.10   696.61   735.35   763.95   772.50   794.32
eigval :      900.39   928.50   946.83   963.65   966.18   982.99
eigval :      995.31  1002.73  1004.76  1012.28  1020.30  1026.91
eigval :     1028.48  1040.45  1042.37  1081.38  1086.76  1090.06
eigval :     1095.05  1099.35  1107.01  1133.78  1170.30  1228.00
eigval :     1252.87  1284.01  1310.01  1332.15  1346.79  1352.40
eigval :     1353.36  1354.56  1380.79  1397.67  1402.35  1405.51
eigval :     1427.15  1436.53  1441.90  1448.76  1451.04  1454.74
eigval :     1456.59  1457.46  1464.02  1469.84  1473.67  1479.91
eigval :     1492.59  1496.43  1497.98  1512.38  1517.75  1657.57
eigval :     1695.18  1719.78  1729.37  2899.11  2968.14  2985.90
eigval :     2993.22  3031.13  3031.72  3040.02  3041.58  3042.49
eigval :     3048.78  3050.80  3056.56  3061.25  3123.63  3132.50
eigval :     3215.99  3336.06  3485.99  3491.43  3499.42  3500.94
eigval :     3503.53  3527.22  3530.91  3532.25  3548.97  3555.47
eigval :     3563.46  3567.94  3568.94
 reduced masses (amu)
   1: 12.71   2: 12.40   3: 12.60   4: 12.48   5: 12.46   6: 12.76   7: 11.28   8: 12.23
   9: 11.96  10: 12.35  11: 12.11  12: 11.85  13: 12.26  14: 12.66  15: 12.57  16: 12.34
  17: 12.92  18: 12.78  19: 13.24  20: 13.01  21: 12.45  22: 12.08  23: 12.18  24: 12.62
  25: 11.93  26: 12.32  27: 12.48  28: 12.86  29: 12.82  30: 12.55  31: 10.18  32:  3.88
  33:  2.46  34: 13.10  35:  4.74  36:  9.33  37:  4.02  38:  3.62  39:  2.92  40:  5.66
  41:  5.35  42:  2.00  43:  2.41  44:  3.52  45:  3.82  46:  7.69  47:  1.65  48:  3.36
  49:  8.36  50:  3.90  51:  4.75  52:  7.82  53:  8.36  54:  4.79  55:  7.64  56:  2.85
  57:  8.86  58:  3.37  59:  9.52  60: 11.06  61: 11.58  62:  8.24  63: 11.89  64:  6.79
  65: 11.20  66: 11.99  67: 12.06  68:  6.69  69:  2.21  70:  5.75  71:  5.80  72:  2.24
  73:  6.95  74:  8.43  75:  5.23  76:  4.89  77:  5.00  78:  4.58  79:  8.80  80:  9.15
  81:  7.60  82:  7.62  83:  9.52  84:  9.40  85:  7.92  86:  4.16  87:  4.26  88:  9.69
  89:  8.80  90:  8.43  91:  7.72  92:  7.73  93:  4.29  94:  7.80  95:  2.93  96:  4.92
  97:  6.74  98:  7.95  99:  6.59 100:  3.28 101:  4.65 102:  6.21 103:  6.14 104:  4.93
 105:  4.37 106:  2.68 107:  2.58 108:  3.30 109:  2.37 110:  1.75 111:  1.97 112:  3.05
 113:  1.79 114:  2.59 115:  2.94 116:  2.59 117:  3.03 118:  1.78 119:  1.66 120:  1.64
 121:  2.01 122:  7.36 123:  7.94 124:  9.28 125:  9.13 126: 12.39 127: 12.70 128: 12.81
 129: 12.80 130:  1.78 131:  1.66 132:  1.72 133:  1.79 134:  1.73 135:  1.56 136:  1.62
 137:  1.64 138:  1.80 139:  1.90 140:  1.64 141:  1.96 142:  1.75 143:  1.90 144:  1.83
 145:  1.79 146:  1.74 147:  1.46 148:  1.45 149:  1.44 150:  1.45 151:  1.46 152:  1.93
 153:  1.90 154:  1.90 155:  2.16 156:  2.17 157:  2.19 158:  2.19 159:  2.18
 IR intensities (km·mol⁻¹)
   1:  0.37   2:  3.03   3:  1.11   4:  1.32   5:  1.81   6:  1.88   7:  0.05   8:  0.27
   9:  0.25  10:  0.44  11:  0.62  12:  3.83  13:  4.49  14:  1.91  15:  0.98  16:  8.98
  17:  1.13  18:  0.42  19:  7.28  20: 11.07  21:  2.04  22:  5.87  23:  6.93  24:  5.07
  25: 18.43  26:  1.49  27: 10.07  28: 24.11  29:  9.05  30: 33.36  31: 20.61  32:  6.96
  33:132.37  34: 18.25  35:  3.89  36:  1.44  37: 25.11  38:404.29  39:208.89  40:  2.47
  41:  5.50  42:  0.75  43: 83.53  44: 50.29  45:462.20  46: 80.28  47:  3.53  48: 12.36
  49:  3.79  50: 76.43  51:122.43  52: 11.83  53: 16.72  54:  9.48  55: 12.79  56: 12.70
  57: 67.71  58: 39.91  59: 37.07  60: 27.06  61: 16.40  62:  4.83  63: 58.83  64: 56.22
  65:  9.29  66: 33.71  67: 35.83  68:133.80  69:212.78  70:111.75  71: 48.20  72:407.10
  73:  6.19  74:  7.70  75:  1.51  76:  2.00  77:  4.38  78:  1.22  79:  0.09  80: 16.28
  81: 20.11  82: 20.83  83:  7.12  84:  2.66  85: 11.04  86:  9.87  87: 18.69  88:  1.85
  89:  1.39  90:  0.59  91:  8.82  92: 17.88  93: 19.63  94: 42.24  95: 10.38  96:  7.77
  97:  5.03  98: 15.60  99:  6.67 100:  6.99 101:  2.42 102: 55.05 103:124.31 104:171.44
 105: 61.01 106:  8.07 107: 15.20 108:110.00 109:  3.45 110:  2.01 111:  0.87 112:  7.80
 113:  0.68 114:  2.48 115: 10.77 116:  5.62 117:  7.23 118:  8.73 119: 14.39 120: 19.07
 121:  1.79 122:228.56 123:597.15 124:705.59 125:441.01 126:127.90 127:733.61 128:******
 129:****** 130: 30.08 131: 60.19 132:  2.57 133: 16.46 134: 19.13 135: 17.90 136: 19.11
 137:  7.15 138: 17.42 139: 14.27 140:  4.39 141: 23.59 142:  3.09 143:****** 144:166.96
 145:****** 146:891.34 147: 14.79 148: 10.24 149: 38.40 150: 19.06 151:  8.26 152: 15.62
 153: 15.94 154: 12.42 155: 13.19 156:  5.69 157: 13.01 158: 15.32 159: 11.91
 Raman intensities (amu)
Molecule has no symmetry elements
It seems to be the C1 point group
   1:  0.00   2:  0.00   3:  0.00   4:  0.00   5:  0.00   6:  0.00   7:  0.00   8:  0.00
   9:  0.00  10:  0.00  11:  0.00  12:  0.00  13:  0.00  14:  0.00  15:  0.00  16:  0.00
  17:  0.00  18:  0.00  19:  0.00  20:  0.00  21:  0.00  22:  0.00  23:  0.00  24:  0.00
  25:  0.00  26:  0.00  27:  0.00  28:  0.00  29:  0.00  30:  0.00  31:  0.00  32:  0.00
  33:  0.00  34:  0.00  35:  0.00  36:  0.00  37:  0.00  38:  0.00  39:  0.00  40:  0.00
  41:  0.00  42:  0.00  43:  0.00  44:  0.00  45:  0.00  46:  0.00  47:  0.00  48:  0.00
  49:  0.00  50:  0.00  51:  0.00  52:  0.00  53:  0.00  54:  0.00  55:  0.00  56:  0.00
  57:  0.00  58:  0.00  59:  0.00  60:  0.00  61:  0.00  62:  0.00  63:  0.00  64:  0.00
  65:  0.00  66:  0.00  67:  0.00  68:  0.00  69:  0.00  70:  0.00  71:  0.00  72:  0.00
  73:  0.00  74:  0.00  75:  0.00  76:  0.00  77:  0.00  78:  0.00  79:  0.00  80:  0.00
  81:  0.00  82:  0.00  83:  0.00  84:  0.00  85:  0.00  86:  0.00  87:  0.00  88:  0.00
  89:  0.00  90:  0.00  91:  0.00  92:  0.00  93:  0.00  94:  0.00  95:  0.00  96:  0.00
  97:  0.00  98:  0.00  99:  0.00 100:  0.00 101:  0.00 102:  0.00 103:  0.00 104:  0.00
 105:  0.00 106:  0.00 107:  0.00 108:  0.00 109:  0.00 110:  0.00 111:  0.00 112:  0.00
 113:  0.00 114:  0.00 115:  0.00 116:  0.00 117:  0.00 118:  0.00 119:  0.00 120:  0.00
 121:  0.00 122:  0.00 123:  0.00 124:  0.00 125:  0.00 126:  0.00 127:  0.00 128:  0.00
 129:  0.00 130:  0.00 131:  0.00 132:  0.00 133:  0.00 134:  0.00 135:  0.00 136:  0.00
 137:  0.00 138:  0.00 139:  0.00 140:  0.00 141:  0.00 142:  0.00 143:  0.00 144:  0.00
 145:  0.00 146:  0.00 147:  0.00 148:  0.00 149:  0.00 150:  0.00 151:  0.00 152:  0.00
 153:  0.00 154:  0.00 155:  0.00 156:  0.00 157:  0.00 158:  0.00 159:  0.00
 output can be read by thermo (or use thermo option).
 writing <g98.out> molden fake output.
 recommended (thermochemical) frequency scaling factor: 1.0
           -------------------------------------------------
          |             Thermodynamic Functions             |
           -------------------------------------------------

c1  symmetry found (for desy threshold:  0.10E+00) used in thermo

          ...................................................
          :                      SETUP                      :
          :.................................................:
          :  # frequencies                         153      :
          :  # imaginary freq.                       0      :
          :  linear?                             false      :
          :  only rotor calc.                    false      :
          :  symmetry                               c1      :
          :  rotational number                       1      :
          :  scaling factor                  1.0000000      :
          :  rotor cutoff                   50.0000000 cm⁻¹ :
          :  imag. cutoff                  -20.0000000 cm⁻¹ :
          :.................................................:

    mode    ω/cm⁻¹     T·S(HO)/kcal·mol⁻¹    T·S(FR)/kcal·mol⁻¹   T·S(vib)
   ------------------------------------------------------------------------
       1      7.50    -2.55856 (  0.05%)    -1.61820 ( 99.95%)    -1.61868
       2     10.58    -2.35488 (  0.20%)    -1.51640 ( 99.80%)    -1.51808
       3     13.45    -2.21273 (  0.52%)    -1.44533 ( 99.48%)    -1.44933
       4     20.68    -1.95817 (  2.84%)    -1.31802 ( 97.16%)    -1.33622
       5     24.73    -1.85223 (  5.65%)    -1.26500 ( 94.35%)    -1.29818
       6     27.89    -1.78108 (  8.83%)    -1.22939 ( 91.17%)    -1.27811
       7     36.20    -1.62698 ( 21.55%)    -1.15220 ( 78.45%)    -1.25452
       8     40.00    -1.56794 ( 29.07%)    -1.12259 ( 70.93%)    -1.25204
       9     45.01    -1.49832 ( 39.64%)    -1.08767 ( 60.36%)    -1.25044
      10     48.24    -1.45740 ( 46.43%)    -1.06712 ( 53.57%)    -1.24832
      11     56.76    -1.36156 ( 62.42%)    -1.01895 ( 37.58%)    -1.23280
      12     61.87    -1.31088 ( 70.10%)    -0.99344 ( 29.90%)    -1.21595
      13     67.96    -1.25568 ( 77.34%)    -0.96561 ( 22.66%)    -1.18995
      14     77.58    -1.17806 ( 85.28%)    -0.92640 ( 14.72%)    -1.14102
      15     81.95    -1.14601 ( 87.83%)    -0.91018 ( 12.17%)    -1.11730
      16     92.63    -1.07444 ( 92.18%)    -0.87387 (  7.82%)    -1.05875
      17    100.76    -1.02548 ( 94.28%)    -0.84894 (  5.72%)    -1.01539
      18    107.33    -0.98884 ( 95.50%)    -0.83024 (  4.50%)    -0.98171
      19    113.71    -0.95545 ( 96.40%)    -0.81314 (  3.60%)    -0.95032
      20    120.51    -0.92192 ( 97.12%)    -0.79593 (  2.88%)    -0.91829
      21    135.97    -0.85267 ( 98.20%)    -0.76018 (  1.80%)    -0.85101
      22    155.16    -0.77757 ( 98.93%)    -0.72107 (  1.07%)    -0.77697
      23    173.53    -0.71463 ( 99.32%)    -0.68792 (  0.68%)    -0.71444
      24    180.17    -0.69370 ( 99.41%)    -0.67680 (  0.59%)    -0.69360
      25    194.79    -0.65050 ( 99.57%)    -0.65369 (  0.43%)    -0.65051
      26    201.82    -0.63102 ( 99.62%)    -0.64319 (  0.38%)    -0.63107
      27    209.31    -0.61112 ( 99.68%)    -0.63239 (  0.32%)    -0.61119
      28    251.72    -0.51236 ( 99.84%)    -0.57773 (  0.16%)    -0.51247
      29    277.49    -0.46186 ( 99.89%)    -0.54886 (  0.11%)    -0.46195
   ------------------------------------------------------------------------

   temp. (K)  partition function   enthalpy   heat capacity  entropy
                                   cal/mol     cal/K/mol   cal/K/mol   J/K/mol
 298.15  VIB  0.201E+19            19526.464    102.902    129.921
         ROT  0.147E+08              888.752      2.981     35.773
         INT  0.296E+26            20415.216    105.883    165.694
         TR   0.618E+28             1481.254      4.968     43.384
         TOT                       21896.4700   110.8507   209.0787   874.7852

       T/K    H(0)-H(T)+PV         H(T)/Eh          T*S/Eh         G(T)/Eh
   ------------------------------------------------------------------------
    298.15    0.348942E-01    0.473996E+00    0.993400E-01    0.374656E+00
   ------------------------------------------------------------------------

         :::::::::::::::::::::::::::::::::::::::::::::::::::::
         ::                  THERMODYNAMIC                  ::
         :::::::::::::::::::::::::::::::::::::::::::::::::::::
         :: total free energy         -80.557438873285 Eh   ::
         ::.................................................::
         :: total energy              -80.932094962539 Eh   ::
         :: zero point energy           0.439101869900 Eh   ::
         :: G(RRHO) w/o ZPVE           -0.064445780646 Eh   ::
         :: G(RRHO) contrib.            0.374656089254 Eh   ::
         :::::::::::::::::::::::::::::::::::::::::::::::::::::

           -------------------------------------------------
          | TOTAL ENERGY              -80.932094962539 Eh   |
          | TOTAL ENTHALPY            -80.458098846520 Eh   |
          | TOTAL FREE ENERGY         -80.557438873285 Eh   |
          | GRADIENT NORM               0.000183442543 Eh/α |
          | HOMO-LUMO GAP               5.776476048735 eV   |
           -------------------------------------------------

------------------------------------------------------------------------
 * finished run on 2024/01/10 at 18:33:24.520     
------------------------------------------------------------------------
 total:
 * wall-time:     0 d,  0 h,  0 min, 14.328 sec
 *  cpu-time:     0 d,  0 h,  0 min, 14.249 sec
 * ratio c/w:     0.995 speedup
 SCF:
 * wall-time:     0 d,  0 h,  0 min,  0.102 sec
 *  cpu-time:     0 d,  0 h,  0 min,  0.057 sec
 * ratio c/w:     0.556 speedup
 analytical hessian:
 * wall-time:     0 d,  0 h,  0 min, 14.199 sec
 *  cpu-time:     0 d,  0 h,  0 min, 14.166 sec
 * ratio c/w:     0.998 speedup

