 Entering Gaussian System
 *********************************************
 Gaussian 98:
 frequency output generated by the xtb code
 *********************************************
                         Standard orientation:
 --------------------------------------------------------------------
  Center     Atomic     Atomic              Coordinates (Angstroms)
  Number     Number      Type              X           Y           Z
 --------------------------------------------------------------------
    1          8             0       -0.461516   -2.137371    1.574385
    2          6             0       -1.260999   -3.054967    0.896673
    3          1             0       -1.807641   -3.623815    1.654880
    4          1             0       -2.003897   -2.542080    0.269960
    5          6             0       -0.486043   -3.988864   -0.048338
    6          1             0        0.015480   -3.395454   -0.819679
    7          1             0       -1.207277   -4.655031   -0.524736
    8          7             0        0.572264   -4.826765    0.586236
    9          6             0        1.717317   -3.978646    0.966142
   10          1             0        2.110072   -3.508581    0.064899
   11          1             0        2.491470   -4.586044    1.429504
   12          1             0        1.386025   -3.207740    1.659057
   13          6             0        1.032949   -5.803789   -0.416252
   14          1             0        1.854946   -6.391237   -0.012232
   15          1             0        1.378758   -5.260801   -1.296129
   16          1             0        0.222317   -6.473853   -0.695150
   17          6             0        0.066682   -5.533435    1.772220
   18          1             0       -0.152573   -4.821389    2.564715
   19          1             0        0.819580   -6.232301    2.132879
   20          1             0       -0.837225   -6.087616    1.524266
   21          1             0       -0.110036   -1.491699    0.900316
   22          6             0       -0.098587    0.746762   -0.034934
   23          8             0        0.262417   -0.417978   -0.296515
   24          7             0       -0.533384    1.084281    1.187698
   25          1             0       -0.654555    0.349376    1.864672
   26          1             0       -0.990013    1.971403    1.376399
   27          7             0       -0.072067    1.711059   -0.970097
   28          1             0       -0.171947    2.695822   -0.741597
   29          1             0        0.332063    1.489114   -1.862652
   30          6             0        0.661844    4.986546    0.377112
   31          8             0        0.018213    4.502292   -0.559160
   32          7             0        1.784537    5.709330    0.147727
   33          1             0        2.016245    5.933724   -0.803488
   34          1             0        2.257206    6.203414    0.882222
   35          7             0        0.307814    4.793514    1.655538
   36          1             0        0.824372    5.193517    2.416490
   37          1             0       -0.537970    4.256071    1.853077
   38          6             0        2.134200   -2.418852   -2.767887
   39          8             0        1.771842   -3.343460   -2.044547
   40          7             0        2.983376   -2.629283   -3.808130
   41          1             0        3.204176   -3.577376   -4.055415
   42          1             0        3.173751   -1.914288   -4.486314
   43          7             0        1.727363   -1.151359   -2.575661
   44          1             0        2.131671   -0.403993   -3.110231
   45          1             0        1.187914   -0.919427   -1.738442
   46          6             0       -2.990113    3.761804    1.112768
   47          8             0       -2.085127    3.356219    1.848032
   48          7             0       -2.738955    4.308837   -0.085655
   49          1             0       -1.767557    4.411232   -0.382459
   50          1             0       -3.472908    4.644494   -0.681074
   51          7             0       -4.289284    3.636005    1.475878
   52          1             0       -5.031185    4.062437    0.951676
   53          1             0       -4.489114    3.308282    2.404187
 --------------------------------------------------------------------
     1 basis functions        1 primitive gaussians
     1 alpha electrons        1 beta electrons

 Harmonic frequencies (cm**-1), IR intensities (km*mol⁻¹),
 Raman scattering activities (A**4/amu), Raman depolarization ratios,
 reduced masses (AMU), force constants (mDyne/A) and normal coordinates:
                      1                      2                      3
                        a                      a                      a 
 Frequencies --     8.8584                10.8473                19.7341
 Red. masses --    11.5864                12.2917                12.2025
 Frc consts  --     0.0000                 0.0000                 0.0000
 IR Inten    --     0.7235                 1.1952                 0.3082
 Raman Activ --     0.0000                 0.0000                 0.0000
 Depolar     --     0.0000                 0.0000                 0.0000
 Atom AN      X      Y      Z        X      Y      Z        X      Y      Z
   1   8     0.09  -0.00   0.06     0.28   0.09   0.15    -0.17   0.10  -0.22
   2   6     0.01   0.09   0.01     0.12   0.16   0.17    -0.09   0.04  -0.19
   3   1    -0.01   0.03  -0.00     0.04   0.05   0.06    -0.04   0.02  -0.06
   4   1     0.01   0.05   0.01     0.03   0.07   0.07    -0.01  -0.00  -0.08
   5   6    -0.07   0.08  -0.04    -0.03   0.11   0.09    -0.01  -0.02  -0.07
   6   1    -0.00   0.02  -0.00    -0.01   0.03   0.02     0.01  -0.02  -0.02
   7   1    -0.04   0.05  -0.03    -0.04   0.05   0.04     0.01  -0.02  -0.02
   8   7    -0.16  -0.05  -0.09    -0.05   0.02  -0.01    -0.04   0.06   0.08
   9   6    -0.08  -0.17  -0.02     0.05  -0.09  -0.09    -0.07   0.10   0.07
  10   1    -0.01  -0.04   0.00     0.00  -0.03  -0.03    -0.01   0.01   0.02
  11   1    -0.04  -0.08  -0.01     0.01  -0.05  -0.05    -0.02   0.05   0.04
  12   1    -0.01  -0.05   0.01     0.05  -0.02  -0.01    -0.04   0.04  -0.00
  13   6    -0.22  -0.02  -0.15    -0.21  -0.00  -0.07     0.04  -0.02   0.18
  14   1    -0.08  -0.03  -0.05    -0.07  -0.02  -0.04     0.01   0.01   0.08
  15   1    -0.05   0.00  -0.03    -0.07  -0.00  -0.03     0.02  -0.03   0.04
  16   1    -0.08   0.02  -0.06    -0.08   0.02  -0.00     0.02  -0.02   0.05
  17   6    -0.22  -0.08  -0.14    -0.01   0.03   0.02    -0.09   0.14   0.10
  18   1    -0.05  -0.03  -0.03     0.03   0.01   0.01    -0.05   0.06   0.01
  19   1    -0.08  -0.05  -0.05    -0.01  -0.01  -0.02    -0.03   0.06   0.06
  20   1    -0.08   0.00  -0.05    -0.02   0.03   0.02    -0.02   0.03   0.03
  21   1     0.03   0.00   0.02     0.07   0.02   0.04    -0.03   0.01  -0.06
  22   6     0.09   0.01   0.05     0.16   0.03   0.06     0.11   0.04  -0.10
  23   8     0.13   0.01   0.09     0.25   0.05   0.11     0.05   0.04  -0.18
  24   7     0.13   0.03   0.06     0.13   0.04   0.05     0.10  -0.01  -0.10
  25   1     0.05   0.01   0.02     0.04   0.01   0.02     0.01  -0.01  -0.04
  26   1     0.03   0.01   0.01     0.02   0.00   0.00     0.04   0.00  -0.01
  27   7     0.03  -0.02   0.02     0.14   0.02   0.05     0.21   0.10  -0.04
  28   1    -0.00  -0.01  -0.00     0.03   0.01   0.01     0.05   0.02  -0.00
  29   1    -0.00  -0.01   0.00     0.05   0.01   0.02     0.06   0.04  -0.01
  30   6    -0.09   0.08  -0.17    -0.04   0.05   0.10    -0.06   0.15   0.08
  31   8    -0.14   0.00  -0.13     0.05   0.02   0.07    -0.01   0.10   0.09
  32   7    -0.16   0.15  -0.29    -0.04   0.08   0.19    -0.15   0.30   0.08
  33   1    -0.06   0.03  -0.08     0.01   0.02   0.06    -0.04   0.08   0.02
  34   1    -0.04   0.06  -0.09    -0.03   0.03   0.06    -0.05   0.09   0.02
  35   7     0.00   0.12  -0.15    -0.14   0.06   0.09    -0.04   0.12   0.09
  36   1     0.01   0.05  -0.05    -0.05   0.02   0.03    -0.02   0.05   0.02
  37   1     0.01   0.02  -0.02    -0.04   0.01   0.01     0.00   0.01   0.02
  38   6     0.14   0.02   0.09    -0.10  -0.04  -0.07     0.02  -0.16  -0.05
  39   8     0.02   0.01   0.02    -0.17  -0.03  -0.10     0.06  -0.13   0.03
  40   7     0.21   0.02   0.16    -0.20  -0.10  -0.15    -0.01  -0.25  -0.07
  41   1     0.04   0.01   0.03    -0.09  -0.03  -0.05     0.00  -0.07   0.00
  42   1     0.08   0.01   0.06    -0.05  -0.03  -0.04    -0.01  -0.08  -0.03
  43   7     0.22   0.04   0.14     0.04  -0.01  -0.01     0.00  -0.16  -0.15
  44   1     0.09   0.01   0.06     0.02  -0.01  -0.00    -0.01  -0.05  -0.07
  45   1     0.05   0.01   0.03     0.03   0.00   0.01     0.01  -0.02  -0.04
  46   6     0.02  -0.07   0.11    -0.04  -0.11  -0.15     0.05  -0.12   0.09
  47   8     0.10   0.00   0.08    -0.09  -0.07  -0.09     0.09  -0.08   0.09
  48   7    -0.09  -0.13   0.07     0.02  -0.10  -0.14     0.00  -0.15   0.08
  49   1    -0.03  -0.03   0.00     0.01  -0.01  -0.02    -0.00  -0.02   0.02
  50   1    -0.04  -0.05   0.03     0.01  -0.04  -0.06    -0.01  -0.05   0.03
  51   7     0.05  -0.10   0.22    -0.07  -0.20  -0.28     0.06  -0.20   0.12
  52   1    -0.00  -0.04   0.07    -0.01  -0.06  -0.09     0.01  -0.07   0.03
  53   1     0.04  -0.02   0.07    -0.03  -0.05  -0.08     0.03  -0.05   0.03
                      4                      5                      6
                        a                      a                      a 
 Frequencies --    22.6780                31.4388                33.8237
 Red. masses --    12.4550                12.2421                12.2544
 Frc consts  --     0.0000                 0.0000                 0.0000
 IR Inten    --     1.0447                 3.0597                 3.0246
 Raman Activ --     0.0000                 0.0000                 0.0000
 Depolar     --     0.0000                 0.0000                 0.0000
 Atom AN      X      Y      Z        X      Y      Z        X      Y      Z
   1   8    -0.26  -0.18   0.05     0.04  -0.12   0.01     0.25  -0.02  -0.04
   2   6    -0.13  -0.18  -0.04     0.04  -0.08  -0.03     0.15  -0.05   0.09
   3   1    -0.04  -0.07  -0.03     0.00  -0.02  -0.02     0.07  -0.00   0.05
   4   1    -0.04  -0.06  -0.02     0.02  -0.02  -0.01     0.03  -0.02   0.04
   5   6    -0.02  -0.09  -0.04     0.05  -0.08  -0.03     0.05  -0.09   0.05
   6   1    -0.01  -0.01  -0.00     0.02  -0.02  -0.01     0.02  -0.03   0.01
   7   1     0.01  -0.04  -0.02     0.01  -0.02  -0.01    -0.00  -0.01   0.02
   8   7     0.03  -0.03  -0.03     0.05  -0.09  -0.03     0.01  -0.20  -0.00
   9   6    -0.04   0.06  -0.00     0.05  -0.09  -0.03     0.04  -0.25   0.07
  10   1    -0.02   0.03   0.00     0.01  -0.03  -0.01     0.02  -0.07   0.03
  11   1    -0.00   0.03   0.00     0.01  -0.03  -0.01     0.00  -0.09   0.02
  12   1    -0.03   0.01   0.00     0.02  -0.02  -0.01     0.02  -0.08   0.03
  13   6     0.11   0.02  -0.02     0.03  -0.09  -0.02    -0.02  -0.12  -0.08
  14   1     0.04   0.02  -0.00     0.01  -0.03  -0.01    -0.01  -0.05  -0.03
  15   1     0.03   0.01  -0.00     0.01  -0.03  -0.01     0.00  -0.02  -0.01
  16   1     0.05  -0.01  -0.01     0.01  -0.03  -0.00    -0.01  -0.02  -0.04
  17   6     0.05  -0.06  -0.04     0.04  -0.07  -0.02    -0.02  -0.26  -0.07
  18   1    -0.01  -0.02  -0.01     0.01  -0.02  -0.01     0.01  -0.09   0.00
  19   1     0.03  -0.00  -0.01     0.01  -0.02  -0.00    -0.02  -0.10  -0.04
  20   1     0.03  -0.04  -0.02     0.01  -0.02  -0.00    -0.02  -0.06  -0.03
  21   1    -0.06  -0.03   0.03     0.02  -0.02   0.01     0.03  -0.00  -0.03
  22   6     0.01  -0.06   0.19     0.06  -0.05   0.06    -0.13   0.06  -0.07
  23   8    -0.09  -0.09   0.19     0.16  -0.05   0.12    -0.25   0.06  -0.18
  24   7     0.04  -0.05   0.21    -0.25  -0.12  -0.04    -0.01   0.03  -0.02
  25   1    -0.01  -0.01   0.05    -0.09  -0.03  -0.02     0.00  -0.00  -0.01
  26   1     0.02  -0.00   0.05    -0.06  -0.02  -0.02     0.01   0.01   0.01
  27   7     0.10  -0.05   0.22     0.26  -0.03   0.10    -0.18   0.11  -0.03
  28   1     0.04  -0.01   0.06     0.04  -0.01   0.02    -0.02   0.03   0.01
  29   1     0.02  -0.02   0.06     0.12   0.00   0.05    -0.07   0.04  -0.02
  30   6     0.04   0.14  -0.06    -0.08   0.08   0.00     0.01   0.17   0.05
  31   8     0.14  -0.01  -0.05    -0.02   0.01  -0.01     0.07   0.15   0.04
  32   7    -0.04   0.27  -0.10    -0.22   0.30   0.02    -0.06   0.29   0.08
  33   1    -0.01   0.05  -0.03    -0.06   0.08   0.01    -0.01   0.08   0.02
  34   1    -0.03   0.10  -0.03    -0.06   0.07   0.01    -0.02   0.08   0.02
  35   7     0.04   0.20  -0.06    -0.02  -0.05   0.00     0.01   0.14   0.05
  36   1    -0.01   0.09  -0.02    -0.03   0.02   0.00    -0.02   0.05   0.01
  37   1     0.02   0.04  -0.01     0.00  -0.02  -0.00     0.01   0.03   0.01
  38   6    -0.10   0.11   0.01    -0.00  -0.08  -0.03    -0.02  -0.05   0.05
  39   8    -0.05   0.07  -0.01     0.00  -0.11  -0.05     0.08  -0.03   0.15
  40   7    -0.14   0.20  -0.03    -0.12  -0.09  -0.12     0.08  -0.04   0.13
  41   1    -0.03   0.06  -0.02    -0.05  -0.02  -0.05     0.07  -0.01   0.07
  42   1    -0.05   0.06  -0.00    -0.03  -0.02  -0.03     0.00  -0.02   0.02
  43   7    -0.15   0.09   0.09     0.12  -0.07   0.08    -0.25  -0.09  -0.13
  44   1    -0.05   0.04   0.03     0.02  -0.02   0.01    -0.09  -0.03  -0.05
  45   1    -0.03   0.01   0.03     0.04  -0.02   0.03    -0.08  -0.02  -0.04
  46   6     0.11  -0.08  -0.10    -0.04   0.19  -0.00     0.04   0.06  -0.03
  47   8     0.13   0.06  -0.03    -0.08   0.04  -0.06     0.04   0.07  -0.02
  48   7     0.13  -0.15  -0.14    -0.02   0.08  -0.06     0.07   0.17   0.02
  49   1     0.04  -0.03  -0.03    -0.00  -0.01  -0.02     0.02   0.05   0.01
  50   1     0.03  -0.08  -0.06     0.00   0.08   0.01     0.02   0.03  -0.01
  51   7     0.11  -0.19  -0.17    -0.04   0.53   0.12     0.04  -0.05  -0.11
  52   1     0.03  -0.07  -0.06    -0.00   0.15   0.03     0.01  -0.00  -0.02
  53   1     0.03  -0.03  -0.04    -0.01   0.14   0.03     0.01  -0.02  -0.03
                      7                      8                      9
                        a                      a                      a 
 Frequencies --    43.1595                45.2896                48.2847
 Red. masses --    12.0064                12.8904                12.7486
 Frc consts  --     0.0000                 0.0000                 0.0000
 IR Inten    --     5.6709                 0.3120                 2.5085
 Raman Activ --     0.0000                 0.0000                 0.0000
 Depolar     --     0.0000                 0.0000                 0.0000
 Atom AN      X      Y      Z        X      Y      Z        X      Y      Z
   1   8     0.01  -0.01   0.02    -0.02   0.01  -0.00     0.02   0.10   0.10
   2   6     0.05   0.06  -0.13    -0.00   0.04  -0.07    -0.01   0.10   0.10
   3   1    -0.02   0.01  -0.07    -0.02   0.01  -0.03     0.00   0.03   0.03
   4   1     0.04   0.04  -0.06     0.01   0.02  -0.03    -0.01   0.03   0.04
   5   6     0.12   0.07  -0.08     0.03   0.03  -0.03    -0.03   0.12   0.06
   6   1     0.07   0.03   0.01     0.02   0.01  -0.00    -0.01   0.04   0.02
   7   1     0.04   0.04  -0.06     0.01   0.01  -0.02    -0.01   0.04   0.01
   8   7    -0.01  -0.03   0.01    -0.01   0.02   0.02    -0.04   0.09   0.02
   9   6    -0.02  -0.11   0.22    -0.01   0.00   0.06    -0.03   0.05   0.05
  10   1     0.04  -0.02   0.09     0.01   0.00   0.02    -0.01   0.02   0.02
  11   1    -0.03  -0.05   0.08    -0.01  -0.00   0.02    -0.01   0.00   0.01
  12   1    -0.02  -0.04   0.06    -0.01   0.00   0.02    -0.00   0.01   0.02
  13   6     0.08   0.02   0.00     0.02   0.01   0.04    -0.06   0.12  -0.03
  14   1    -0.00  -0.02   0.02    -0.00  -0.00   0.02    -0.02   0.02  -0.01
  15   1     0.07   0.02   0.03     0.02   0.00   0.01    -0.01   0.04   0.00
  16   1     0.02   0.02  -0.04     0.01   0.01   0.00    -0.02   0.04  -0.02
  17   6    -0.22  -0.08  -0.11    -0.07   0.03  -0.01    -0.05   0.04  -0.01
  18   1    -0.08  -0.04  -0.03    -0.03   0.01  -0.01    -0.01   0.00   0.01
  19   1    -0.09  -0.04  -0.02    -0.03   0.01   0.01    -0.02   0.00  -0.01
  20   1    -0.06  -0.00  -0.08    -0.02   0.01  -0.01    -0.02   0.02  -0.01
  21   1     0.03   0.00   0.03     0.01   0.00   0.01     0.01   0.01   0.02
  22   6     0.12   0.03   0.07     0.02  -0.01   0.08    -0.01  -0.05  -0.04
  23   8     0.21   0.05   0.14     0.14   0.03   0.09    -0.03  -0.06  -0.05
  24   7     0.08   0.06   0.05    -0.07  -0.08   0.07     0.02  -0.05  -0.03
  25   1     0.02   0.02   0.02    -0.01  -0.03   0.01     0.01  -0.01  -0.01
  26   1     0.01   0.01   0.00    -0.03  -0.03   0.02     0.00  -0.02  -0.01
  27   7     0.09  -0.00   0.04    -0.02   0.01   0.11    -0.02  -0.06  -0.05
  28   1     0.01  -0.00  -0.00    -0.03   0.00   0.03     0.01  -0.01  -0.01
  29   1     0.04  -0.00   0.02     0.02   0.02   0.04    -0.01  -0.02  -0.01
  30   6    -0.02  -0.04  -0.03     0.02  -0.05  -0.07     0.03  -0.09   0.02
  31   8    -0.06  -0.02  -0.02    -0.07   0.05  -0.08     0.07  -0.08  -0.01
  32   7     0.09  -0.23  -0.03    -0.12   0.14  -0.10    -0.20   0.27   0.05
  33   1     0.03  -0.07  -0.01    -0.05   0.07  -0.02    -0.06   0.10   0.02
  34   1     0.02  -0.05  -0.01     0.01  -0.02  -0.02    -0.03   0.02   0.03
  35   7    -0.11   0.10  -0.03     0.26  -0.40  -0.06     0.25  -0.49   0.03
  36   1    -0.00  -0.00  -0.01     0.05  -0.08  -0.02     0.02  -0.08   0.01
  37   1    -0.03   0.03  -0.01     0.05  -0.08  -0.02     0.05  -0.11  -0.00
  38   6    -0.02   0.03  -0.01     0.01  -0.00   0.00    -0.01   0.08  -0.00
  39   8     0.39   0.07   0.25     0.09   0.01   0.06     0.08   0.12   0.07
  40   7    -0.21   0.05  -0.16    -0.11  -0.03  -0.09     0.10   0.11   0.08
  41   1     0.01   0.02  -0.00    -0.03  -0.01  -0.02     0.06   0.03   0.05
  42   1    -0.13  -0.00  -0.08    -0.04  -0.01  -0.03     0.00   0.02   0.00
  43   7    -0.31  -0.04  -0.17     0.03  -0.00   0.02    -0.23   0.05  -0.18
  44   1    -0.15  -0.01  -0.10    -0.01  -0.00  -0.01    -0.06   0.01  -0.05
  45   1    -0.03  -0.00  -0.01     0.03   0.00   0.01    -0.05   0.01  -0.04
  46   6    -0.05   0.01   0.00    -0.02   0.04  -0.01     0.03  -0.08  -0.04
  47   8    -0.05   0.01  -0.00    -0.01  -0.03  -0.07     0.01  -0.10  -0.01
  48   7    -0.06  -0.08  -0.04    -0.03   0.53   0.21     0.06  -0.35  -0.16
  49   1    -0.02  -0.02  -0.01    -0.01   0.11   0.03     0.02  -0.08  -0.03
  50   1    -0.02  -0.01  -0.00    -0.02   0.08   0.03     0.02  -0.06  -0.03
  51   7    -0.04   0.09   0.05    -0.03  -0.35  -0.17     0.04   0.16   0.03
  52   1    -0.01   0.01   0.01    -0.01  -0.03   0.00     0.01   0.02  -0.02
  53   1    -0.01   0.03   0.02    -0.00  -0.13  -0.06     0.00   0.06   0.01
                     10                     11                     12
                        a                      a                      a 
 Frequencies --    61.6017                62.7441                69.9247
 Red. masses --    12.0711                12.4414                11.7930
 Frc consts  --     0.0000                 0.0000                 0.0000
 IR Inten    --     0.0946                 3.9972                 2.2867
 Raman Activ --     0.0000                 0.0000                 0.0000
 Depolar     --     0.0000                 0.0000                 0.0000
 Atom AN      X      Y      Z        X      Y      Z        X      Y      Z
   1   8    -0.04  -0.07  -0.11     0.03   0.08  -0.07    -0.12   0.02  -0.04
   2   6    -0.00  -0.04  -0.16     0.04  -0.01   0.03    -0.07  -0.14   0.13
   3   1    -0.02  -0.01  -0.06     0.03   0.00   0.03     0.03  -0.04   0.07
   4   1     0.02  -0.01  -0.06    -0.00  -0.02   0.01    -0.06  -0.08   0.06
   5   6     0.05  -0.07  -0.09     0.03  -0.02   0.03    -0.07  -0.12   0.10
   6   1     0.02  -0.03  -0.03     0.02  -0.00   0.01    -0.04  -0.02   0.02
   7   1     0.02  -0.03  -0.03     0.01   0.00   0.00    -0.02  -0.04   0.04
   8   7     0.02  -0.05  -0.00     0.01  -0.05   0.03     0.01  -0.07   0.03
   9   6     0.01  -0.03  -0.01    -0.03  -0.05   0.17    -0.10   0.03   0.14
  10   1     0.01  -0.02  -0.01     0.00   0.01   0.07    -0.04   0.05   0.06
  11   1    -0.00  -0.00   0.01    -0.01  -0.02   0.05    -0.01   0.02   0.02
  12   1    -0.00   0.00  -0.02    -0.03  -0.03   0.06    -0.06  -0.02   0.06
  13   6     0.05  -0.10   0.07     0.10   0.05  -0.03     0.13   0.10  -0.08
  14   1     0.01  -0.02   0.04     0.02   0.01  -0.01     0.06   0.04  -0.04
  15   1     0.02  -0.04   0.01     0.04   0.04   0.01     0.02   0.07  -0.00
  16   1     0.02  -0.04   0.02     0.04   0.02  -0.04     0.06   0.01  -0.05
  17   6    -0.02   0.03   0.02    -0.05  -0.17  -0.07     0.07  -0.27  -0.07
  18   1    -0.02   0.02  -0.01    -0.03  -0.07  -0.00    -0.01  -0.12   0.01
  19   1    -0.01   0.02   0.03    -0.02  -0.06  -0.03     0.04  -0.07  -0.04
  20   1    -0.00   0.00   0.01    -0.01  -0.04  -0.05     0.04  -0.10  -0.04
  21   1    -0.01  -0.00  -0.01    -0.01   0.01  -0.03    -0.04  -0.01  -0.03
  22   6     0.03   0.09   0.06    -0.12   0.08  -0.08     0.21   0.04  -0.09
  23   8     0.01   0.10   0.07    -0.12   0.10  -0.12     0.09  -0.01  -0.08
  24   7     0.53   0.24   0.22    -0.20   0.03  -0.10     0.34   0.13  -0.08
  25   1     0.19   0.07   0.08    -0.05   0.00  -0.03     0.07   0.04  -0.02
  26   1     0.08   0.04   0.04    -0.03   0.01  -0.01     0.07   0.03  -0.04
  27   7    -0.42  -0.00  -0.05    -0.08   0.12  -0.05     0.33   0.01  -0.12
  28   1    -0.06   0.01  -0.02    -0.02   0.03  -0.01     0.07   0.00  -0.05
  29   1    -0.19  -0.02  -0.05    -0.01   0.04  -0.01     0.05  -0.01  -0.04
  30   6    -0.02  -0.02   0.02     0.06   0.01   0.00    -0.05  -0.04  -0.01
  31   8     0.01  -0.00  -0.01    -0.01   0.12  -0.00    -0.06  -0.01  -0.03
  32   7    -0.10   0.11   0.07     0.07  -0.00  -0.00    -0.06  -0.03   0.02
  33   1    -0.02   0.04   0.02     0.01   0.02   0.00    -0.01  -0.00   0.01
  34   1    -0.02   0.01   0.03     0.04  -0.03   0.00    -0.01  -0.02   0.01
  35   7     0.02  -0.16   0.02     0.15  -0.11   0.01    -0.06  -0.08  -0.02
  36   1    -0.01  -0.03   0.01     0.05  -0.04   0.00    -0.02  -0.03  -0.00
  37   1    -0.00  -0.04  -0.00     0.03  -0.01   0.00    -0.02  -0.02  -0.01
  38   6     0.00  -0.05   0.01     0.01   0.05   0.06    -0.10   0.09   0.04
  39   8    -0.01  -0.10  -0.04     0.01   0.13   0.16    -0.27   0.20   0.09
  40   7    -0.09  -0.03  -0.07    -0.36  -0.13  -0.20    -0.03  -0.07   0.14
  41   1    -0.04  -0.01  -0.04    -0.14  -0.04  -0.06    -0.04  -0.03   0.05
  42   1    -0.02   0.00  -0.00    -0.07  -0.04  -0.05     0.01  -0.04   0.02
  43   7     0.11  -0.04   0.15     0.40   0.14   0.24    -0.00   0.15  -0.08
  44   1     0.03  -0.01   0.04     0.06   0.02   0.01     0.04   0.02  -0.01
  45   1     0.03  -0.01   0.04     0.09   0.05   0.05    -0.00   0.05  -0.02
  46   6    -0.03   0.04  -0.04     0.01  -0.07   0.00    -0.04   0.02  -0.00
  47   8    -0.07  -0.03  -0.04     0.03   0.10   0.08    -0.05  -0.11  -0.08
  48   7     0.01  -0.03  -0.07    -0.00  -0.28  -0.10    -0.05   0.16   0.06
  49   1     0.00  -0.01  -0.01    -0.00  -0.04  -0.01    -0.02   0.02   0.00
  50   1     0.01   0.02  -0.01    -0.00  -0.08  -0.03    -0.02   0.06   0.03
  51   7    -0.03   0.21  -0.02     0.02  -0.08   0.01    -0.04   0.04   0.02
  52   1    -0.00   0.05  -0.02    -0.00  -0.07  -0.02    -0.01   0.04   0.03
  53   1    -0.02   0.05  -0.01     0.01   0.00   0.01    -0.01  -0.01  -0.00
                     13                     14                     15
                        a                      a                      a 
 Frequencies --    71.3409                89.6258                96.9154
 Red. masses --    12.8792                12.7080                13.2879
 Frc consts  --     0.0000                 0.0000                 0.0000
 IR Inten    --     6.5836                 7.5851                 2.3102
 Raman Activ --     0.0000                 0.0000                 0.0000
 Depolar     --     0.0000                 0.0000                 0.0000
 Atom AN      X      Y      Z        X      Y      Z        X      Y      Z
   1   8     0.07  -0.04  -0.15    -0.03  -0.09   0.11    -0.08   0.05   0.07
   2   6     0.05  -0.04  -0.12    -0.01  -0.04   0.03    -0.08  -0.04   0.19
   3   1     0.00   0.00  -0.03    -0.01  -0.02  -0.01     0.02  -0.03   0.08
   4   1     0.02  -0.01  -0.04     0.00  -0.00   0.01    -0.06  -0.03   0.08
   5   6     0.03  -0.12  -0.05     0.01  -0.00   0.00    -0.12   0.03   0.09
   6   1     0.01  -0.06  -0.03     0.01   0.01   0.01    -0.06   0.02   0.02
   7   1     0.00  -0.04   0.00     0.00   0.00  -0.01    -0.04   0.01   0.03
   8   7     0.03  -0.09  -0.01    -0.01  -0.03  -0.01    -0.04   0.04  -0.03
   9   6     0.04  -0.07  -0.09     0.04  -0.06  -0.07    -0.03   0.06  -0.11
  10   1     0.01  -0.04  -0.04     0.02  -0.04  -0.03    -0.02   0.01  -0.04
  11   1     0.01  -0.01  -0.02     0.00  -0.02  -0.01     0.00   0.02  -0.04
  12   1     0.02  -0.00  -0.04     0.02  -0.00  -0.03    -0.00   0.02  -0.03
  13   6     0.00  -0.16   0.06    -0.07  -0.08   0.01    -0.11   0.07  -0.10
  14   1     0.00  -0.04   0.02    -0.03  -0.03   0.00    -0.03   0.01  -0.05
  15   1    -0.01  -0.07   0.00    -0.02  -0.04  -0.00    -0.04   0.03  -0.03
  16   1    -0.00  -0.05   0.04    -0.03  -0.02   0.02    -0.04   0.03  -0.02
  17   6     0.04   0.01   0.06     0.01   0.03   0.03     0.10  -0.02  -0.00
  18   1     0.01   0.02  -0.00     0.02   0.02   0.01     0.05  -0.02   0.01
  19   1     0.01   0.01   0.03    -0.00   0.00   0.01     0.04  -0.01  -0.03
  20   1     0.01  -0.00   0.03    -0.01   0.02   0.03     0.02  -0.01   0.02
  21   1     0.00   0.00  -0.03    -0.03   0.00   0.05    -0.05   0.01  -0.01
  22   6     0.05   0.18   0.09     0.03   0.07  -0.14    -0.01   0.00   0.06
  23   8     0.06   0.21   0.07    -0.22  -0.04   0.05    -0.36  -0.06  -0.14
  24   7    -0.08   0.13   0.06     0.06   0.34  -0.21     0.22  -0.03   0.17
  25   1    -0.04   0.02   0.00    -0.02   0.12  -0.03     0.00  -0.03   0.01
  26   1    -0.02   0.04   0.02     0.05   0.11  -0.08     0.06  -0.01   0.05
  27   7     0.22   0.24   0.16     0.29  -0.06  -0.28     0.22   0.13   0.22
  28   1     0.02   0.06   0.03     0.10  -0.01  -0.11     0.04   0.03   0.07
  29   1     0.07   0.07   0.05     0.06  -0.07  -0.07    -0.01   0.04   0.03
  30   6     0.03   0.00  -0.03     0.01  -0.07   0.04    -0.03   0.04  -0.03
  31   8    -0.16   0.29  -0.05     0.03  -0.21   0.09    -0.13   0.25  -0.07
  32   7     0.12  -0.13  -0.04    -0.10   0.06  -0.04     0.07  -0.08   0.03
  33   1     0.01   0.01  -0.01    -0.02  -0.02  -0.02     0.01   0.02   0.01
  34   1     0.07  -0.09  -0.00    -0.01   0.01  -0.02     0.03  -0.05   0.02
  35   7     0.19  -0.22  -0.03     0.09  -0.07   0.06    -0.01  -0.07  -0.04
  36   1     0.08  -0.10  -0.01    -0.01   0.05   0.00     0.03  -0.08  -0.00
  37   1     0.02  -0.01  -0.01     0.01   0.01   0.03    -0.01  -0.01  -0.02
  38   6    -0.10  -0.01   0.04     0.03  -0.00   0.03     0.15  -0.09  -0.03
  39   8    -0.21  -0.06  -0.07     0.20  -0.13  -0.05     0.38  -0.14   0.02
  40   7     0.11   0.06   0.20    -0.07   0.20  -0.09    -0.00  -0.00  -0.18
  41   1     0.03   0.02   0.04     0.01   0.07  -0.05     0.04   0.01  -0.04
  42   1     0.04   0.02   0.06    -0.05   0.08  -0.00    -0.02   0.01  -0.04
  43   7    -0.20  -0.03  -0.01    -0.05  -0.06   0.21     0.09  -0.13   0.05
  44   1    -0.01  -0.01   0.03    -0.05   0.01   0.06    -0.05  -0.02  -0.03
  45   1    -0.05  -0.01  -0.00    -0.02  -0.04   0.06     0.00  -0.05   0.00
  46   6    -0.08  -0.01  -0.02    -0.05   0.05   0.06    -0.04  -0.01  -0.05
  47   8    -0.05   0.17   0.04    -0.08   0.25   0.20    -0.00  -0.09  -0.15
  48   7    -0.14  -0.21  -0.12     0.00   0.04   0.07    -0.11   0.02  -0.06
  49   1    -0.04  -0.01  -0.02     0.00  -0.01   0.02    -0.03   0.02  -0.02
  50   1    -0.04  -0.06  -0.03     0.00  -0.07  -0.03    -0.04   0.05   0.02
  51   7    -0.07  -0.05   0.01    -0.09  -0.12  -0.08    -0.01   0.05   0.06
  52   1    -0.03  -0.06  -0.02    -0.02  -0.04  -0.04    -0.01   0.02   0.03
  53   1    -0.01   0.01   0.01    -0.03   0.01  -0.01     0.01  -0.01   0.01
                     16                     17                     18
                        a                      a                      a 
 Frequencies --   106.2199               118.9146               124.8690
 Red. masses --    12.0762                11.9559                12.6416
 Frc consts  --     0.0000                 0.0000                 0.0000
 IR Inten    --    11.3286                11.9135                16.6815
 Raman Activ --     0.0000                 0.0000                 0.0000
 Depolar     --     0.0000                 0.0000                 0.0000
 Atom AN      X      Y      Z        X      Y      Z        X      Y      Z
   1   8    -0.15   0.07   0.09     0.09   0.05   0.11     0.04  -0.04   0.03
   2   6    -0.06  -0.03   0.12     0.11   0.13  -0.06     0.05   0.05  -0.11
   3   1     0.02  -0.03   0.05    -0.00   0.03  -0.05    -0.01  -0.00  -0.06
   4   1    -0.05  -0.03   0.06     0.07   0.06  -0.04     0.03   0.04  -0.03
   5   6    -0.04   0.07   0.03     0.19   0.16  -0.04     0.09   0.13  -0.14
   6   1    -0.03   0.04   0.01     0.09   0.05   0.02     0.03   0.05  -0.02
   7   1    -0.01   0.02   0.00     0.07   0.07  -0.05     0.04   0.04  -0.06
   8   7     0.04   0.09  -0.09     0.06   0.06   0.06     0.09   0.12  -0.17
   9   6    -0.06   0.14   0.05     0.02  -0.03   0.32     0.11   0.06  -0.15
  10   1    -0.01   0.07   0.03     0.07  -0.00   0.12     0.04   0.02  -0.04
  11   1    -0.01   0.05   0.01    -0.03  -0.03   0.13     0.03   0.01  -0.05
  12   1    -0.04   0.02   0.03    -0.02  -0.01   0.08     0.04   0.02  -0.04
  13   6     0.14   0.24  -0.20     0.19   0.12   0.05     0.03   0.07  -0.14
  14   1     0.05   0.08  -0.07     0.05   0.03   0.03     0.01   0.02  -0.04
  15   1     0.03   0.11  -0.04     0.07   0.05   0.03     0.01   0.02  -0.05
  16   1     0.06   0.06  -0.08     0.07   0.03  -0.02     0.00   0.03  -0.03
  17   6     0.09  -0.15  -0.20    -0.21  -0.04  -0.11     0.07   0.14  -0.14
  18   1     0.01  -0.09  -0.02    -0.08  -0.03  -0.02     0.03   0.05  -0.04
  19   1     0.04  -0.04  -0.09    -0.10  -0.04  -0.02     0.01   0.04  -0.04
  20   1     0.04  -0.06  -0.08    -0.06   0.02  -0.10     0.01   0.05  -0.04
  21   1    -0.03   0.01   0.02     0.02   0.03   0.04     0.01   0.01   0.02
  22   6     0.00   0.05   0.07    -0.06  -0.03   0.01    -0.03   0.01   0.02
  23   8     0.17   0.09   0.17    -0.30  -0.10  -0.07    -0.20  -0.02  -0.03
  24   7    -0.07   0.10   0.04     0.06  -0.02   0.05     0.03   0.02   0.05
  25   1     0.01   0.04   0.03    -0.03  -0.01  -0.00    -0.02  -0.00   0.00
  26   1    -0.02   0.03   0.00     0.03   0.00   0.01     0.01   0.01   0.02
  27   7    -0.16  -0.01  -0.00     0.15   0.01   0.08     0.12   0.04   0.06
  28   1    -0.04  -0.00  -0.00     0.04   0.00   0.02     0.04   0.01   0.01
  29   1    -0.02  -0.00   0.01    -0.00  -0.01   0.00     0.01  -0.00   0.01
  30   6     0.03   0.00   0.03    -0.01  -0.01  -0.01    -0.01  -0.03  -0.10
  31   8    -0.01  -0.03   0.09    -0.01   0.02  -0.02     0.12  -0.02  -0.22
  32   7    -0.00   0.02  -0.05    -0.00  -0.02   0.01    -0.00   0.00   0.05
  33   1    -0.01  -0.01  -0.02     0.00   0.00   0.00     0.03   0.01   0.02
  34   1     0.02   0.00  -0.02    -0.00  -0.01   0.01    -0.03  -0.01   0.03
  35   7     0.11   0.01   0.06    -0.03  -0.02  -0.02    -0.16  -0.07  -0.16
  36   1     0.02   0.04   0.00    -0.00  -0.02  -0.00    -0.06  -0.02  -0.03
  37   1     0.01   0.03   0.03    -0.01  -0.01  -0.01    -0.04  -0.03  -0.05
  38   6     0.04  -0.22  -0.07    -0.09  -0.07  -0.09    -0.08  -0.08   0.18
  39   8     0.01  -0.24  -0.10    -0.28  -0.22  -0.37    -0.11  -0.00   0.32
  40   7     0.14  -0.24   0.00     0.07   0.11  -0.01    -0.14  -0.26   0.21
  41   1     0.04  -0.07   0.01    -0.01   0.04  -0.06    -0.03  -0.08   0.10
  42   1     0.05  -0.07   0.00     0.04   0.06   0.04    -0.01  -0.09   0.04
  43   7    -0.02  -0.24  -0.12    -0.01  -0.08   0.12    -0.04  -0.06   0.10
  44   1     0.01  -0.06  -0.01     0.03  -0.00   0.08    -0.03  -0.03  -0.01
  45   1     0.01  -0.06  -0.03    -0.04  -0.05   0.02    -0.03   0.00   0.01
  46   6    -0.05   0.07   0.03     0.00  -0.02  -0.02     0.00  -0.03   0.10
  47   8    -0.06   0.30   0.15     0.02  -0.08  -0.07    -0.12  -0.08   0.23
  48   7    -0.03  -0.05  -0.03    -0.02   0.02   0.00     0.18  -0.02   0.14
  49   1    -0.01  -0.00   0.00    -0.01   0.00  -0.01     0.05  -0.03   0.04
  50   1    -0.01  -0.07  -0.04    -0.01   0.02   0.01     0.07  -0.01   0.01
  51   7    -0.07  -0.04  -0.07     0.02   0.01   0.03    -0.06   0.03  -0.08
  52   1    -0.02  -0.04  -0.04     0.00   0.01   0.02     0.01   0.03  -0.05
  53   1    -0.03   0.03  -0.01     0.01  -0.01   0.00    -0.05   0.02  -0.03
                     19                     20                     21
                        a                      a                      a 
 Frequencies --   125.4217               138.0094               159.7611
 Red. masses --    13.1353                13.0288                12.8796
 Frc consts  --     0.0000                 0.0000                 0.0000
 IR Inten    --     8.1646                14.3599                33.4330
 Raman Activ --     0.0000                 0.0000                 0.0000
 Depolar     --     0.0000                 0.0000                 0.0000
 Atom AN      X      Y      Z        X      Y      Z        X      Y      Z
   1   8     0.03  -0.06   0.04     0.09   0.01  -0.08    -0.14  -0.26   0.32
   2   6     0.03   0.03  -0.09     0.03   0.02  -0.02    -0.05  -0.10   0.00
   3   1    -0.01  -0.00  -0.05     0.00   0.02  -0.00    -0.05  -0.06  -0.05
   4   1     0.03   0.03  -0.03     0.02   0.01  -0.01     0.02   0.01  -0.01
   5   6     0.07   0.09  -0.10     0.01  -0.03   0.01     0.11   0.07  -0.03
   6   1     0.03   0.04  -0.02     0.01  -0.02  -0.00     0.06   0.06   0.04
   7   1     0.03   0.03  -0.05    -0.00  -0.01   0.01     0.06   0.04  -0.07
   8   7     0.06   0.07  -0.10    -0.02  -0.04   0.06     0.03  -0.00   0.01
   9   6     0.09   0.02  -0.10    -0.01  -0.05   0.04     0.10  -0.10   0.02
  10   1     0.03   0.01  -0.03    -0.00  -0.02   0.01     0.04  -0.04   0.01
  11   1     0.02  -0.00  -0.03    -0.00  -0.02   0.01     0.01  -0.05   0.01
  12   1     0.03   0.01  -0.02     0.00  -0.01   0.01     0.04  -0.02   0.00
  13   6     0.01   0.03  -0.07    -0.02  -0.06   0.08    -0.04  -0.06   0.04
  14   1     0.00   0.00  -0.02    -0.01  -0.02   0.03    -0.02  -0.02   0.01
  15   1     0.01   0.00  -0.02    -0.00  -0.02   0.02    -0.01  -0.03   0.00
  16   1    -0.00   0.01  -0.01    -0.01  -0.02   0.02    -0.02  -0.01   0.02
  17   6     0.03   0.11  -0.08    -0.06   0.02   0.07    -0.06   0.08   0.03
  18   1     0.01   0.04  -0.03    -0.01   0.01   0.01     0.01   0.04   0.00
  19   1     0.00   0.03  -0.02    -0.02   0.00   0.03    -0.04  -0.00   0.01
  20   1     0.00   0.04  -0.02    -0.02   0.01   0.02    -0.04   0.06   0.01
  21   1     0.01  -0.00   0.02     0.01  -0.00  -0.03    -0.02  -0.04   0.12
  22   6    -0.01  -0.06  -0.01    -0.00  -0.04   0.09    -0.02  -0.11  -0.02
  23   8    -0.12  -0.10  -0.04    -0.21  -0.05  -0.15    -0.08  -0.17   0.12
  24   7     0.08  -0.02   0.00     0.16  -0.13   0.19     0.04   0.08  -0.05
  25   1    -0.00  -0.00   0.00     0.01  -0.05   0.02     0.00   0.05   0.02
  26   1     0.03   0.00  -0.01     0.06  -0.03   0.07     0.02   0.03  -0.04
  27   7     0.05  -0.05   0.01     0.11   0.08   0.25    -0.02  -0.20  -0.13
  28   1     0.01  -0.02   0.01     0.04   0.02   0.08    -0.01  -0.05  -0.05
  29   1    -0.01  -0.01  -0.01    -0.02   0.03   0.04    -0.02  -0.07  -0.04
  30   6    -0.00  -0.03   0.15    -0.00  -0.09  -0.00     0.05   0.15  -0.02
  31   8    -0.15  -0.15   0.34     0.02  -0.29   0.08    -0.01   0.40  -0.08
  32   7    -0.06  -0.03  -0.12    -0.09  -0.04  -0.15     0.16   0.07   0.14
  33   1    -0.06  -0.04  -0.05    -0.02  -0.07  -0.05     0.04   0.09   0.05
  34   1     0.02   0.01  -0.07     0.00   0.00  -0.07     0.03  -0.00   0.06
  35   7     0.21   0.09   0.23     0.05   0.01   0.03     0.06  -0.01  -0.03
  36   1     0.07   0.06   0.04    -0.02   0.08  -0.01     0.04  -0.06   0.00
  37   1     0.05   0.04   0.08    -0.01   0.03   0.02     0.00   0.01  -0.02
  38   6    -0.06  -0.02   0.12     0.07   0.07  -0.14     0.04   0.04  -0.11
  39   8    -0.09   0.05   0.23    -0.03   0.21  -0.05    -0.07   0.17  -0.02
  40   7    -0.10  -0.17   0.14     0.09  -0.13  -0.10     0.08  -0.17  -0.05
  41   1    -0.03  -0.05   0.07     0.00  -0.05   0.01    -0.01  -0.06   0.02
  42   1    -0.01  -0.06   0.02     0.05  -0.06  -0.05     0.04  -0.08  -0.04
  43   7    -0.01  -0.00   0.05     0.17   0.13  -0.29     0.12   0.10  -0.27
  44   1    -0.01  -0.01  -0.01     0.06   0.02  -0.09     0.06   0.01  -0.06
  45   1    -0.01   0.01   0.01     0.03   0.05  -0.09     0.04   0.03  -0.07
  46   6    -0.01   0.05  -0.14    -0.07   0.10   0.04    -0.07   0.03   0.03
  47   8     0.15   0.11  -0.34    -0.15   0.30   0.23    -0.05   0.10   0.03
  48   7    -0.26   0.06  -0.20     0.02  -0.00   0.01    -0.11  -0.02  -0.00
  49   1    -0.08   0.03  -0.07     0.01  -0.03   0.01    -0.03   0.03   0.01
  50   1    -0.10   0.02  -0.02     0.01  -0.09  -0.05    -0.03   0.01   0.01
  51   7     0.06  -0.04   0.10    -0.14   0.04  -0.15    -0.07  -0.04   0.05
  52   1    -0.02  -0.03   0.06    -0.01   0.02  -0.07    -0.03  -0.03   0.01
  53   1     0.07  -0.02   0.03    -0.07   0.08  -0.02    -0.01  -0.01   0.02
                     22                     23                     24
                        a                      a                      a 
 Frequencies --   171.0536               185.4054               195.7465
 Red. masses --    13.3493                12.5213                10.4393
 Frc consts  --     0.0000                 0.0000                 0.0000
 IR Inten    --    12.8483                48.8154                 1.6878
 Raman Activ --     0.0000                 0.0000                 0.0000
 Depolar     --     0.0000                 0.0000                 0.0000
 Atom AN      X      Y      Z        X      Y      Z        X      Y      Z
   1   8    -0.04  -0.04   0.06     0.02   0.02  -0.03    -0.41   0.20   0.03
   2   6    -0.01  -0.02   0.01     0.01   0.01  -0.00    -0.05  -0.13   0.08
   3   1    -0.01  -0.02  -0.01     0.00   0.01   0.00     0.05  -0.09   0.04
   4   1    -0.00  -0.00   0.00     0.00   0.00  -0.00    -0.08  -0.12   0.03
   5   6     0.02   0.02  -0.00    -0.01  -0.01   0.00     0.21   0.15   0.04
   6   1     0.01   0.01   0.01    -0.00  -0.01  -0.00     0.10   0.10   0.08
   7   1     0.01   0.01  -0.01    -0.01  -0.00   0.01     0.10   0.07  -0.09
   8   7     0.01  -0.00   0.00    -0.00  -0.01   0.00     0.10  -0.05   0.01
   9   6     0.02  -0.02   0.00    -0.01   0.00  -0.00     0.21  -0.20   0.01
  10   1     0.01  -0.01   0.00    -0.00   0.00  -0.00     0.15  -0.16  -0.01
  11   1     0.00  -0.01   0.01    -0.00   0.00   0.00    -0.01  -0.07   0.12
  12   1     0.01  -0.00  -0.00    -0.00   0.00  -0.00     0.06   0.02  -0.09
  13   6    -0.01  -0.01   0.00    -0.00  -0.01   0.00    -0.12  -0.10  -0.04
  14   1    -0.00  -0.01  -0.00     0.00  -0.00   0.00    -0.01  -0.03  -0.05
  15   1    -0.00  -0.01  -0.00    -0.00  -0.00   0.00    -0.08  -0.04  -0.04
  16   1    -0.01  -0.00   0.01     0.00  -0.00   0.00    -0.06  -0.03   0.05
  17   6    -0.01   0.01   0.00     0.00  -0.01   0.00     0.03   0.00   0.01
  18   1     0.01   0.01   0.00    -0.00  -0.00   0.00     0.15  -0.01   0.05
  19   1    -0.01  -0.00  -0.00     0.00   0.00   0.00    -0.06  -0.12  -0.08
  20   1    -0.01   0.01   0.00     0.00  -0.01   0.00    -0.08   0.13   0.03
  21   1    -0.01  -0.00   0.02    -0.00   0.01  -0.01    -0.11   0.04  -0.01
  22   6    -0.01   0.01   0.00    -0.00   0.04   0.03    -0.03   0.16   0.04
  23   8    -0.02   0.01   0.04    -0.02   0.04   0.02    -0.01   0.19   0.04
  24   7    -0.03   0.04  -0.01    -0.04   0.02   0.03    -0.10   0.15   0.03
  25   1    -0.00   0.02   0.01    -0.01   0.01   0.01    -0.04   0.03  -0.00
  26   1     0.02   0.02   0.00     0.02   0.02   0.01    -0.04   0.03   0.00
  27   7     0.01  -0.00  -0.01    -0.01   0.04   0.04    -0.01   0.18   0.05
  28   1    -0.03  -0.00  -0.02     0.04   0.02   0.01     0.01   0.05   0.02
  29   1    -0.01  -0.01  -0.01     0.01   0.01   0.02     0.03   0.05   0.03
  30   6    -0.29  -0.06   0.06     0.01  -0.12  -0.05     0.02  -0.07  -0.00
  31   8    -0.42   0.12   0.01     0.31  -0.22  -0.23     0.07  -0.21   0.03
  32   7    -0.24  -0.19   0.06    -0.02   0.04   0.31    -0.05  -0.00  -0.07
  33   1    -0.08  -0.03   0.02     0.08   0.02   0.11    -0.01  -0.03  -0.02
  34   1    -0.03  -0.09   0.02    -0.09   0.02   0.13    -0.01   0.02  -0.03
  35   7    -0.25  -0.15   0.05    -0.26  -0.17  -0.14    -0.01   0.02   0.00
  36   1    -0.03  -0.08   0.01    -0.15   0.01  -0.02    -0.01   0.02  -0.00
  37   1    -0.08  -0.03   0.02    -0.09  -0.03  -0.08     0.02  -0.02   0.01
  38   6     0.01   0.00  -0.02     0.01   0.00  -0.01     0.01   0.01  -0.05
  39   8    -0.01   0.03  -0.01     0.01   0.01  -0.00    -0.04   0.03  -0.04
  40   7     0.02  -0.04  -0.01     0.01  -0.02  -0.01     0.04  -0.05  -0.01
  41   1     0.00  -0.01   0.00     0.00  -0.01   0.00    -0.01  -0.02  -0.00
  42   1     0.01  -0.02  -0.01     0.01  -0.01  -0.00     0.01  -0.03  -0.02
  43   7     0.02   0.01  -0.05     0.01   0.00  -0.03     0.04   0.03  -0.09
  44   1     0.01   0.00  -0.01     0.00   0.00  -0.01     0.02   0.00  -0.02
  45   1     0.01   0.01  -0.01     0.00   0.00  -0.01     0.01   0.02  -0.03
  46   6     0.28   0.10  -0.05    -0.00   0.10  -0.02     0.02  -0.08  -0.03
  47   8     0.29   0.22   0.07     0.19   0.36  -0.13     0.02  -0.22  -0.09
  48   7     0.32   0.02  -0.07    -0.27   0.07  -0.10     0.03   0.01   0.02
  49   1     0.09   0.03  -0.01    -0.09   0.01  -0.08     0.01  -0.02  -0.01
  50   1     0.08  -0.02  -0.02    -0.11  -0.07  -0.03     0.01   0.02   0.01
  51   7     0.31   0.02  -0.11     0.11  -0.15   0.27     0.04   0.02   0.03
  52   1     0.08  -0.04  -0.06    -0.04  -0.12   0.11     0.01   0.02   0.02
  53   1     0.08   0.01  -0.03     0.12  -0.03   0.09     0.01  -0.03  -0.00
                     25                     26                     27
                        a                      a                      a 
 Frequencies --   205.6000               250.8378               252.1666
 Red. masses --    12.3492                 4.9218                 2.2342
 Frc consts  --     0.0000                 0.0000                 0.0000
 IR Inten    --    10.4721                 1.9346               107.0432
 Raman Activ --     0.0000                 0.0000                 0.0000
 Depolar     --     0.0000                 0.0000                 0.0000
 Atom AN      X      Y      Z        X      Y      Z        X      Y      Z
   1   8    -0.21   0.24  -0.13    -0.25   0.18   0.09     0.01  -0.01  -0.01
   2   6    -0.02  -0.04   0.03    -0.04   0.17  -0.14     0.00  -0.01   0.01
   3   1     0.05  -0.03   0.04    -0.10   0.07  -0.09     0.01  -0.00   0.00
   4   1    -0.06  -0.07   0.02     0.06   0.06  -0.12    -0.00  -0.00   0.01
   5   6     0.11   0.10   0.02     0.09   0.05   0.08    -0.00  -0.00  -0.00
   6   1     0.05   0.06   0.04     0.05  -0.01   0.02    -0.00  -0.00  -0.00
   7   1     0.05   0.04  -0.04     0.02   0.03   0.02    -0.00  -0.00  -0.00
   8   7     0.06   0.00   0.00     0.06  -0.06   0.05    -0.00   0.00  -0.00
   9   6     0.12  -0.09   0.02     0.13  -0.16   0.03    -0.01   0.01  -0.00
  10   1     0.09  -0.08  -0.00    -0.04   0.06   0.03     0.00  -0.00  -0.00
  11   1    -0.01  -0.03   0.06     0.09  -0.09  -0.13    -0.00   0.00   0.01
  12   1     0.04   0.02  -0.04     0.09  -0.13   0.13    -0.00   0.01  -0.01
  13   6    -0.07  -0.02  -0.04    -0.15  -0.03  -0.08     0.01   0.00   0.00
  14   1    -0.01  -0.00  -0.04    -0.16  -0.16  -0.01     0.01   0.01   0.00
  15   1    -0.05  -0.01  -0.03     0.09   0.01   0.04    -0.00  -0.00  -0.00
  16   1    -0.03  -0.01   0.02    -0.12   0.13  -0.14     0.01  -0.01   0.01
  17   6     0.02   0.01  -0.01     0.19  -0.12   0.06    -0.01   0.01  -0.00
  18   1     0.10  -0.01   0.03    -0.28  -0.01  -0.10     0.01   0.00   0.01
  19   1    -0.04  -0.08  -0.06     0.22   0.25   0.21    -0.01  -0.01  -0.01
  20   1    -0.05   0.09   0.02     0.26  -0.34  -0.05    -0.01   0.02   0.00
  21   1    -0.02   0.00  -0.07    -0.00   0.03   0.04     0.00  -0.00  -0.00
  22   6     0.12  -0.18  -0.10    -0.00  -0.00  -0.01    -0.00   0.01   0.00
  23   8     0.22  -0.16  -0.24    -0.01  -0.00  -0.03    -0.01   0.02   0.00
  24   7     0.18  -0.37  -0.04     0.02  -0.02   0.00     0.01   0.01   0.01
  25   1     0.08  -0.12  -0.02    -0.01  -0.01  -0.01    -0.02  -0.00  -0.01
  26   1     0.06  -0.10   0.02     0.00  -0.01   0.00    -0.02  -0.01  -0.00
  27   7    -0.05  -0.11  -0.02    -0.01   0.02   0.01    -0.01   0.01  -0.01
  28   1    -0.03  -0.04   0.02    -0.00   0.00   0.01     0.03   0.00   0.00
  29   1    -0.04   0.00  -0.02     0.00   0.01   0.00     0.03   0.00   0.01
  30   6    -0.01   0.06  -0.00    -0.00  -0.00   0.00    -0.03  -0.00   0.01
  31   8    -0.05   0.15  -0.02     0.00  -0.01   0.00    -0.02  -0.02   0.02
  32   7     0.05  -0.00   0.05     0.01  -0.01  -0.00     0.16  -0.18   0.02
  33   1     0.01   0.02   0.02    -0.02   0.02  -0.00    -0.26   0.29   0.01
  34   1     0.01  -0.01   0.02    -0.03   0.04  -0.01    -0.39   0.45  -0.05
  35   7     0.01  -0.02  -0.01    -0.00   0.00  -0.00    -0.03   0.02  -0.00
  36   1    -0.01   0.00  -0.00     0.01  -0.02   0.00     0.16  -0.23   0.01
  37   1    -0.02   0.03  -0.01     0.00  -0.01   0.00     0.05  -0.09   0.01
  38   6    -0.07   0.01   0.09    -0.01  -0.00  -0.01     0.00   0.00   0.00
  39   8    -0.03  -0.08   0.02    -0.02  -0.01  -0.02     0.00  -0.00   0.00
  40   7    -0.07   0.15   0.07     0.01   0.01  -0.00    -0.01  -0.00  -0.01
  41   1    -0.02   0.05  -0.02    -0.00   0.00  -0.00     0.01   0.00   0.01
  42   1    -0.04   0.06   0.03     0.01   0.00   0.00     0.02   0.01   0.01
  43   7    -0.08  -0.02   0.19     0.01  -0.00   0.01    -0.00  -0.00  -0.00
  44   1    -0.03  -0.00   0.05    -0.01  -0.00  -0.00    -0.00   0.00   0.00
  45   1    -0.02  -0.01   0.05    -0.01  -0.00  -0.00    -0.00  -0.00  -0.00
  46   6    -0.04   0.11   0.04    -0.00   0.00   0.00     0.02   0.02  -0.00
  47   8    -0.04   0.32   0.14    -0.00   0.00   0.00     0.02   0.02  -0.01
  48   7    -0.05  -0.01  -0.02     0.00   0.00   0.00     0.01   0.03   0.01
  49   1    -0.01   0.02   0.00    -0.00  -0.00  -0.00    -0.00  -0.07  -0.04
  50   1    -0.02  -0.05  -0.03    -0.00  -0.00  -0.00    -0.01  -0.20  -0.10
  51   7    -0.07  -0.02  -0.05    -0.00   0.00  -0.00    -0.04  -0.14  -0.08
  52   1    -0.01  -0.02  -0.03    -0.00  -0.00  -0.00     0.07   0.37   0.19
  53   1    -0.03   0.05   0.00    -0.00  -0.00  -0.00     0.05   0.25   0.09
                     28                     29                     30
                        a                      a                      a 
 Frequencies --   257.7022               274.6390               279.6985
 Red. masses --     2.2697                10.7949                 2.7020
 Frc consts  --     0.0000                 0.0000                 0.0000
 IR Inten    --    88.7149                 9.6169               160.9557
 Raman Activ --     0.0000                 0.0000                 0.0000
 Depolar     --     0.0000                 0.0000                 0.0000
 Atom AN      X      Y      Z        X      Y      Z        X      Y      Z
   1   8     0.01   0.04  -0.04    -0.00   0.44  -0.24     0.01  -0.04   0.00
   2   6     0.02   0.02  -0.00     0.11   0.23  -0.10    -0.01  -0.03   0.02
   3   1     0.01   0.01   0.01     0.03   0.10  -0.00     0.00  -0.01   0.01
   4   1    -0.00  -0.00  -0.00     0.03   0.02  -0.07    -0.01  -0.01   0.02
   5   6    -0.00  -0.01   0.00     0.02  -0.02   0.03    -0.02   0.00  -0.01
   6   1    -0.00  -0.01  -0.00     0.01  -0.05  -0.02    -0.01   0.01   0.00
   7   1    -0.00  -0.00   0.01    -0.03  -0.00   0.05    -0.00  -0.00  -0.00
   8   7    -0.00  -0.01  -0.00     0.01  -0.09  -0.02     0.00   0.02  -0.02
   9   6    -0.01   0.01  -0.01    -0.07   0.03  -0.05     0.01   0.00  -0.01
  10   1     0.00  -0.01  -0.00     0.07  -0.12  -0.04     0.00   0.01   0.00
  11   1    -0.01   0.01   0.02    -0.07   0.07   0.16     0.00  -0.01  -0.01
  12   1    -0.01   0.01  -0.02    -0.09   0.11  -0.16     0.01  -0.01   0.01
  13   6     0.00  -0.01   0.00    -0.01  -0.10  -0.01     0.01   0.01  -0.00
  14   1     0.01   0.01  -0.00     0.08   0.06  -0.04    -0.03  -0.03   0.02
  15   1    -0.01  -0.00  -0.01    -0.11  -0.04  -0.05     0.05  -0.00   0.02
  16   1     0.01  -0.01   0.01     0.03  -0.10   0.09    -0.01   0.03  -0.03
  17   6     0.00  -0.01  -0.00     0.10  -0.15  -0.02    -0.01   0.03  -0.02
  18   1     0.02  -0.00   0.01     0.02  -0.05   0.00    -0.01   0.01  -0.01
  19   1    -0.01  -0.02  -0.01     0.05  -0.03  -0.02    -0.00   0.01   0.00
  20   1    -0.01   0.01   0.00     0.04  -0.06   0.00     0.00   0.00  -0.01
  21   1     0.00   0.01  -0.02    -0.01   0.11  -0.08    -0.00  -0.01   0.00
  22   6     0.00  -0.01   0.02    -0.08  -0.11   0.15    -0.01   0.01  -0.01
  23   8    -0.03  -0.03   0.02    -0.16  -0.17   0.27    -0.02   0.01  -0.03
  24   7     0.00   0.01   0.01    -0.05   0.13   0.09     0.00  -0.01  -0.00
  25   1     0.01   0.01   0.01    -0.03   0.07   0.06     0.01  -0.00  -0.00
  26   1     0.00   0.00   0.00    -0.00   0.05  -0.02     0.00  -0.00   0.00
  27   7     0.02  -0.03   0.00     0.09  -0.32  -0.04     0.00   0.03   0.01
  28   1    -0.00  -0.01  -0.01     0.03  -0.07  -0.08    -0.00   0.01   0.01
  29   1     0.00  -0.01   0.00    -0.01  -0.17  -0.00    -0.02   0.01  -0.01
  30   6    -0.00  -0.01  -0.00    -0.01   0.03  -0.00     0.00  -0.00  -0.00
  31   8     0.01  -0.06   0.02    -0.04   0.09  -0.00     0.00  -0.01  -0.00
  32   7     0.11  -0.11  -0.02     0.01   0.02   0.03     0.01  -0.01  -0.00
  33   1    -0.19   0.20  -0.01     0.02   0.01   0.01    -0.01   0.01  -0.00
  34   1    -0.28   0.34  -0.05     0.03  -0.04   0.02    -0.03   0.03  -0.00
  35   7    -0.00   0.00  -0.01     0.02   0.01   0.01    -0.00   0.00  -0.00
  36   1     0.10  -0.14   0.00     0.01  -0.01   0.00     0.01  -0.01   0.00
  37   1     0.03  -0.05   0.01     0.00   0.01   0.00     0.00  -0.01  -0.00
  38   6     0.01   0.00   0.00     0.02   0.01  -0.01    -0.03  -0.02   0.01
  39   8     0.01   0.01   0.00     0.01   0.06   0.03     0.02  -0.01   0.04
  40   7    -0.02  -0.01  -0.01     0.03  -0.05   0.00     0.30   0.06   0.14
  41   1     0.02   0.00   0.01    -0.03  -0.02  -0.00    -0.38  -0.04  -0.20
  42   1     0.03   0.00   0.01    -0.05  -0.04  -0.04    -0.66  -0.15  -0.36
  43   7    -0.00   0.00  -0.01    -0.01   0.03  -0.06    -0.05  -0.02  -0.04
  44   1     0.00   0.00   0.00     0.06   0.01   0.04     0.22   0.00   0.17
  45   1     0.00  -0.00  -0.00     0.02  -0.01   0.00     0.07   0.00   0.05
  46   6    -0.02   0.01   0.01    -0.00  -0.00  -0.00    -0.00   0.00   0.00
  47   8    -0.03   0.05   0.05     0.00  -0.02  -0.02    -0.00   0.01   0.00
  48   7    -0.01  -0.01  -0.01     0.01  -0.00   0.00    -0.00  -0.00  -0.00
  49   1     0.00   0.08   0.04     0.00   0.00   0.00    -0.00   0.00   0.00
  50   1     0.02   0.24   0.11     0.00   0.00   0.00    -0.00   0.01   0.00
  51   7     0.05   0.21   0.07    -0.00  -0.03  -0.00     0.00   0.00   0.00
  52   1    -0.10  -0.54  -0.29     0.01   0.06   0.04    -0.00  -0.01  -0.01
  53   1    -0.08  -0.33  -0.14     0.01   0.02   0.02    -0.00  -0.01  -0.00
                     31                     32                     33
                        a                      a                      a 
 Frequencies --   306.9961               312.2808               333.6855
 Red. masses --     4.9607                 7.8357                 5.2488
 Frc consts  --     0.0000                 0.0000                 0.0000
 IR Inten    --     5.0715                 0.7015                 5.3280
 Raman Activ --     0.0000                 0.0000                 0.0000
 Depolar     --     0.0000                 0.0000                 0.0000
 Atom AN      X      Y      Z        X      Y      Z        X      Y      Z
   1   8    -0.04  -0.08   0.35    -0.07   0.23   0.17     0.20  -0.16  -0.26
   2   6     0.00   0.09  -0.01     0.13  -0.06   0.26    -0.03  -0.24   0.16
   3   1    -0.08   0.03  -0.06     0.11  -0.05   0.10     0.11  -0.10   0.11
   4   1     0.07   0.09  -0.03    -0.04  -0.07   0.12    -0.12  -0.11   0.14
   5   6     0.02   0.05   0.00     0.05   0.06  -0.02    -0.02   0.07  -0.06
   6   1     0.03   0.02   0.02    -0.00   0.04   0.00     0.01   0.09   0.04
   7   1    -0.00   0.04  -0.02    -0.01   0.05  -0.01     0.04   0.02  -0.08
   8   7    -0.04  -0.05  -0.03     0.01  -0.07  -0.15    -0.03   0.10  -0.03
   9   6    -0.09   0.05  -0.07    -0.10   0.13  -0.27     0.04  -0.05   0.14
  10   1     0.07  -0.13  -0.06    -0.05   0.01  -0.11     0.23  -0.22   0.03
  11   1    -0.09   0.07   0.16     0.00   0.10  -0.05    -0.14  -0.01   0.31
  12   1    -0.08   0.12  -0.17    -0.06   0.06  -0.12    -0.05   0.15  -0.16
  13   6     0.03  -0.10   0.04     0.23  -0.31   0.19    -0.10   0.12  -0.06
  14   1     0.25   0.24  -0.09    -0.10  -0.19   0.24    -0.06  -0.01  -0.02
  15   1    -0.30  -0.07  -0.13     0.30  -0.15   0.11     0.00   0.04  -0.00
  16   1     0.12  -0.28   0.29     0.03   0.01  -0.10    -0.05   0.08  -0.05
  17   6     0.00  -0.12  -0.07    -0.21   0.02  -0.19    -0.03   0.18   0.01
  18   1    -0.18  -0.03  -0.07    -0.17   0.02  -0.10    -0.26   0.09  -0.11
  19   1     0.08   0.10   0.08    -0.06   0.06   0.05     0.11   0.27   0.18
  20   1     0.11  -0.19  -0.07    -0.00  -0.06  -0.13     0.15  -0.19  -0.05
  21   1     0.02  -0.01   0.12    -0.04   0.04   0.01    -0.03  -0.03  -0.11
  22   6     0.05   0.03  -0.10     0.01  -0.01  -0.00    -0.00   0.00   0.03
  23   8     0.07   0.06  -0.15     0.02  -0.00  -0.01     0.00  -0.00   0.04
  24   7     0.04  -0.10  -0.06     0.00  -0.02  -0.00    -0.02   0.02   0.01
  25   1     0.02  -0.04  -0.03     0.01  -0.00   0.00     0.02   0.01   0.01
  26   1     0.01  -0.03   0.01     0.00  -0.01   0.00    -0.00   0.01   0.00
  27   7    -0.05   0.17   0.02    -0.01   0.00   0.00     0.02  -0.04  -0.01
  28   1    -0.02   0.03   0.05    -0.00  -0.00   0.00     0.00  -0.01  -0.02
  29   1    -0.00   0.10  -0.00    -0.00   0.00   0.00    -0.01  -0.03  -0.00
  30   6     0.00  -0.01   0.00    -0.00   0.00  -0.00    -0.00   0.00  -0.00
  31   8     0.01  -0.03   0.00    -0.00   0.00   0.00    -0.00   0.01  -0.00
  32   7    -0.00  -0.01  -0.01     0.00  -0.00  -0.00     0.00   0.00   0.00
  33   1    -0.01  -0.01  -0.01    -0.00   0.00  -0.00     0.00   0.00   0.00
  34   1    -0.01   0.01  -0.01    -0.00   0.00  -0.00    -0.00   0.00   0.00
  35   7    -0.01  -0.01  -0.00     0.00  -0.00  -0.00     0.00   0.00   0.00
  36   1    -0.01   0.01  -0.00    -0.00   0.00  -0.00     0.00  -0.00  -0.00
  37   1    -0.00  -0.00  -0.00    -0.00   0.00  -0.00     0.00   0.00   0.00
  38   6    -0.00   0.01   0.02    -0.01   0.01   0.00    -0.00  -0.00   0.00
  39   8     0.02  -0.01   0.02    -0.01   0.01   0.00    -0.01   0.00  -0.00
  40   7     0.00   0.03   0.01    -0.02  -0.00   0.01    -0.02  -0.01  -0.01
  41   1    -0.01   0.01  -0.01     0.01   0.00   0.01     0.01   0.00   0.00
  42   1    -0.04  -0.00  -0.02     0.03   0.01   0.02     0.04   0.01   0.02
  43   7     0.00   0.00   0.01     0.01   0.02  -0.00    -0.01   0.00  -0.01
  44   1    -0.00  -0.00  -0.01    -0.01   0.00  -0.02     0.03   0.00   0.02
  45   1    -0.00   0.01  -0.00    -0.00   0.01  -0.01     0.01  -0.00   0.00
  46   6     0.00   0.00   0.00    -0.00   0.00   0.00    -0.00   0.00  -0.00
  47   8    -0.00   0.01   0.01    -0.00   0.00   0.00    -0.00  -0.00  -0.00
  48   7    -0.00   0.00   0.00    -0.00  -0.00   0.00     0.00  -0.00  -0.00
  49   1    -0.00  -0.00  -0.00    -0.00   0.00  -0.00     0.00   0.00   0.00
  50   1    -0.00  -0.01  -0.00    -0.00  -0.00  -0.00     0.00   0.01   0.00
  51   7    -0.00   0.01  -0.00    -0.00   0.00  -0.00     0.00  -0.00   0.00
  52   1    -0.00  -0.01  -0.01     0.00   0.00  -0.00    -0.00   0.00   0.00
  53   1    -0.01  -0.00  -0.00    -0.00   0.00  -0.00     0.00  -0.00   0.00
                     34                     35                     36
                        a                      a                      a 
 Frequencies --   348.9698               366.0359               368.7540
 Red. masses --     3.9584                 4.2311                 7.3799
 Frc consts  --     0.0000                 0.0000                 0.0000
 IR Inten    --     1.9147                57.1027                 0.4382
 Raman Activ --     0.0000                 0.0000                 0.0000
 Depolar     --     0.0000                 0.0000                 0.0000
 Atom AN      X      Y      Z        X      Y      Z        X      Y      Z
   1   8     0.00  -0.11   0.21     0.00   0.01  -0.02     0.08  -0.06  -0.07
   2   6     0.02   0.10  -0.14    -0.00   0.00   0.00     0.15  -0.14  -0.03
   3   1    -0.08   0.04  -0.09     0.00   0.00   0.00     0.13  -0.12  -0.00
   4   1     0.09   0.09  -0.08    -0.00  -0.00   0.00    -0.04  -0.06   0.07
   5   6    -0.00  -0.05  -0.02    -0.01  -0.01   0.01     0.24   0.21  -0.21
   6   1     0.02  -0.06  -0.03    -0.00  -0.00  -0.00     0.16   0.12   0.04
   7   1    -0.03  -0.00   0.02    -0.00  -0.00   0.01     0.10   0.13  -0.20
   8   7    -0.03  -0.06   0.01     0.00   0.00  -0.00    -0.05   0.04  -0.00
   9   6    -0.17   0.13   0.04     0.01  -0.01  -0.00    -0.28   0.28   0.15
  10   1     0.14  -0.19  -0.02     0.00   0.00  -0.00    -0.17   0.23   0.08
  11   1    -0.17   0.13   0.33     0.00  -0.01  -0.01     0.02   0.12  -0.07
  12   1    -0.17   0.22  -0.24     0.01  -0.01   0.00    -0.15  -0.04   0.15
  13   6    -0.06   0.00  -0.07     0.01   0.00  -0.00    -0.31  -0.18   0.11
  14   1    -0.21  -0.21   0.06     0.01   0.01  -0.00    -0.08  -0.06   0.01
  15   1     0.23   0.03   0.09    -0.00   0.00  -0.00    -0.12  -0.12  -0.02
  16   1    -0.11   0.20  -0.24     0.00  -0.00   0.00    -0.14  -0.04   0.13
  17   6     0.23  -0.12   0.09    -0.01   0.01  -0.00     0.18  -0.13   0.00
  18   1     0.21  -0.05   0.08    -0.01   0.00  -0.00     0.07  -0.09   0.05
  19   1     0.05  -0.11  -0.09    -0.00   0.00   0.00     0.11  -0.02  -0.07
  20   1    -0.00   0.04   0.11    -0.00   0.00  -0.00     0.07  -0.07   0.03
  21   1     0.02   0.00   0.09    -0.00   0.00  -0.01    -0.01  -0.00  -0.02
  22   6     0.03   0.01  -0.06     0.03   0.00   0.02    -0.00   0.00   0.01
  23   8     0.03   0.01  -0.06    -0.02  -0.01   0.01    -0.00  -0.00   0.01
  24   7     0.03  -0.05  -0.04    -0.03  -0.00  -0.01    -0.01   0.00   0.00
  25   1     0.00  -0.02  -0.02     0.03   0.01   0.02     0.01   0.00   0.00
  26   1     0.01  -0.01  -0.00     0.06   0.03   0.02     0.00   0.00   0.00
  27   7    -0.03   0.08   0.01    -0.05  -0.02  -0.03     0.01  -0.01  -0.00
  28   1    -0.01   0.02   0.03     0.08  -0.00   0.02     0.00  -0.00  -0.00
  29   1     0.01   0.06   0.00     0.08   0.00   0.03    -0.01  -0.01  -0.00
  30   6    -0.00   0.00   0.00    -0.08   0.13   0.01    -0.00   0.00  -0.00
  31   8     0.00  -0.01   0.00    -0.06   0.10   0.01    -0.00   0.00   0.00
  32   7     0.00  -0.01  -0.01     0.12  -0.14   0.00     0.00  -0.00   0.00
  33   1    -0.00  -0.00  -0.00    -0.05   0.04  -0.00    -0.00   0.00   0.00
  34   1    -0.00   0.01  -0.00    -0.08   0.10  -0.02    -0.00   0.00   0.00
  35   7    -0.00  -0.01  -0.00     0.12  -0.16   0.02     0.00  -0.00   0.00
  36   1    -0.01   0.02  -0.00    -0.31   0.45  -0.02    -0.01   0.01  -0.00
  37   1    -0.00   0.00  -0.00    -0.06   0.09  -0.01    -0.00   0.00  -0.00
  38   6    -0.01   0.01   0.00     0.00  -0.00  -0.00     0.00  -0.01   0.00
  39   8    -0.02   0.00  -0.01     0.00   0.00   0.00    -0.00  -0.01  -0.00
  40   7    -0.00  -0.00   0.01     0.00  -0.00  -0.00    -0.00   0.01  -0.00
  41   1    -0.01  -0.00  -0.00    -0.00  -0.00  -0.00     0.00   0.00   0.00
  42   1     0.01   0.00   0.01    -0.01  -0.00  -0.01    -0.01   0.00  -0.00
  43   7     0.01   0.01   0.01    -0.00   0.00  -0.00    -0.00   0.00  -0.01
  44   1    -0.02  -0.00  -0.02     0.01   0.00   0.01     0.02  -0.00   0.01
  45   1    -0.01   0.00  -0.00    -0.00  -0.00  -0.00     0.00   0.01  -0.00
  46   6     0.00  -0.00   0.00    -0.00  -0.15  -0.06    -0.00  -0.00  -0.00
  47   8     0.00   0.00   0.00     0.00  -0.11  -0.04     0.00  -0.00  -0.00
  48   7    -0.00   0.00   0.00     0.02   0.19   0.10     0.00   0.00   0.00
  49   1    -0.00  -0.00  -0.00    -0.00  -0.10  -0.05     0.00  -0.00  -0.00
  50   1    -0.00  -0.02  -0.01    -0.03  -0.53  -0.25    -0.00  -0.01  -0.01
  51   7    -0.00   0.01  -0.00     0.03   0.19   0.08     0.00   0.00   0.00
  52   1     0.00  -0.01  -0.01    -0.02  -0.15  -0.09    -0.00  -0.00  -0.00
  53   1    -0.00   0.00  -0.00    -0.02  -0.06  -0.03    -0.00  -0.00  -0.00
                     37                     38                     39
                        a                      a                      a 
 Frequencies --   386.6454               403.9069               424.9390
 Red. masses --     3.4277                 3.0446                 8.8330
 Frc consts  --     0.0000                 0.0000                 0.0000
 IR Inten    --   158.7174               524.6725                 0.1505
 Raman Activ --     0.0000                 0.0000                 0.0000
 Depolar     --     0.0000                 0.0000                 0.0000
 Atom AN      X      Y      Z        X      Y      Z        X      Y      Z
   1   8    -0.02  -0.01   0.04    -0.00  -0.00  -0.00     0.07  -0.18  -0.15
   2   6    -0.01   0.01  -0.01    -0.00  -0.00   0.00    -0.18   0.04  -0.06
   3   1    -0.02   0.01  -0.01    -0.00  -0.00  -0.00    -0.07   0.03  -0.02
   4   1     0.01   0.01  -0.01    -0.00  -0.00  -0.00    -0.03   0.03  -0.03
   5   6    -0.01  -0.00   0.00     0.00   0.00   0.00    -0.02   0.08   0.10
   6   1    -0.01  -0.00  -0.01     0.00   0.00   0.00     0.00   0.04   0.05
   7   1    -0.00  -0.00   0.01     0.00   0.00  -0.00     0.05  -0.01  -0.00
   8   7     0.01  -0.00  -0.01     0.00  -0.00   0.00     0.05   0.24   0.24
   9   6     0.01  -0.01  -0.00     0.00  -0.00  -0.00     0.29   0.15  -0.20
  10   1    -0.00   0.00   0.00    -0.00   0.00  -0.00     0.05  -0.08  -0.14
  11   1     0.01  -0.00  -0.01     0.00  -0.00  -0.00     0.07   0.04  -0.04
  12   1     0.00  -0.01   0.01     0.00  -0.00   0.00     0.17   0.13  -0.12
  13   6     0.02  -0.01  -0.00     0.00   0.00   0.00    -0.14   0.10   0.31
  14   1    -0.00  -0.01   0.01     0.00   0.00  -0.00    -0.09  -0.03   0.11
  15   1     0.02  -0.00   0.00    -0.00   0.00   0.00     0.00  -0.03   0.07
  16   1     0.00   0.00  -0.01     0.00  -0.00   0.00    -0.09   0.08   0.10
  17   6     0.01   0.00  -0.00    -0.00  -0.00   0.00    -0.08  -0.35  -0.17
  18   1     0.01   0.00   0.00    -0.00  -0.00   0.00    -0.10  -0.25   0.06
  19   1    -0.00  -0.01  -0.01    -0.00  -0.00   0.00    -0.03  -0.15  -0.12
  20   1    -0.00   0.01   0.00    -0.00  -0.00  -0.00     0.01  -0.08  -0.21
  21   1    -0.01   0.01   0.01    -0.00   0.00   0.00     0.01  -0.04  -0.04
  22   6    -0.03   0.02  -0.03     0.00   0.01   0.00    -0.00   0.01   0.01
  23   8     0.01   0.02  -0.03    -0.00   0.01   0.00    -0.00   0.01   0.01
  24   7    -0.04  -0.04  -0.03    -0.02   0.01  -0.01    -0.01   0.00   0.00
  25   1     0.07  -0.00   0.02     0.02   0.01   0.01     0.02   0.00   0.01
  26   1    -0.01  -0.01   0.01     0.02   0.01   0.00    -0.00   0.00   0.01
  27   7     0.09   0.06   0.05     0.00   0.01   0.01     0.01  -0.01  -0.00
  28   1    -0.02   0.02  -0.02    -0.02  -0.00   0.00     0.00   0.00  -0.01
  29   1    -0.25  -0.04  -0.09    -0.02   0.01  -0.01    -0.02  -0.02  -0.01
  30   6     0.00  -0.00   0.00    -0.06   0.08   0.00     0.00  -0.00  -0.00
  31   8     0.01  -0.01   0.00    -0.01   0.03   0.00    -0.00  -0.00   0.00
  32   7     0.00  -0.00  -0.00     0.11  -0.14  -0.01    -0.00   0.00   0.00
  33   1     0.00  -0.01  -0.00    -0.05   0.02  -0.01     0.00  -0.00   0.00
  34   1    -0.01   0.01  -0.00    -0.13   0.17  -0.04    -0.00   0.00   0.00
  35   7     0.00  -0.01   0.00     0.09  -0.19   0.01     0.00   0.00   0.00
  36   1    -0.02   0.03  -0.00    -0.37   0.51  -0.02     0.00  -0.00  -0.00
  37   1    -0.00   0.00  -0.00    -0.04   0.03  -0.02     0.00   0.00   0.00
  38   6     0.09  -0.01   0.09    -0.00   0.00  -0.00    -0.00   0.01  -0.00
  39   8     0.08  -0.04   0.05    -0.00   0.00  -0.01     0.01   0.00  -0.00
  40   7    -0.21  -0.02  -0.09     0.01  -0.01   0.00    -0.00  -0.01   0.01
  41   1     0.09   0.02   0.03    -0.01  -0.00   0.00    -0.00  -0.00   0.01
  42   1     0.15   0.06   0.11    -0.00  -0.01  -0.01     0.01  -0.00   0.00
  43   7    -0.21   0.02  -0.20     0.01   0.00   0.01    -0.00   0.01   0.00
  44   1     0.63   0.05   0.52    -0.03  -0.00  -0.02    -0.00   0.00  -0.00
  45   1     0.07  -0.02   0.04    -0.00   0.00  -0.00     0.00   0.00   0.00
  46   6     0.00  -0.00  -0.00     0.01   0.08   0.03    -0.00  -0.00  -0.00
  47   8     0.00  -0.01  -0.00    -0.00   0.03   0.01    -0.00  -0.00  -0.00
  48   7     0.00   0.00  -0.00     0.03  -0.17  -0.08     0.00   0.00   0.00
  49   1     0.00   0.00   0.00     0.02   0.03   0.03     0.00  -0.00   0.00
  50   1    -0.00  -0.01  -0.00     0.05   0.52   0.24     0.00  -0.00  -0.00
  51   7     0.00  -0.00   0.00    -0.02  -0.15  -0.05     0.00   0.00   0.00
  52   1     0.00   0.01   0.01     0.02   0.18   0.12    -0.00  -0.00   0.00
  53   1     0.00  -0.00   0.00     0.04   0.03   0.02     0.00  -0.00   0.00
                     40                     41                     42
                        a                      a                      a 
 Frequencies --   441.2863               455.3611               458.3665
 Red. masses --     2.9927                 8.1342                 8.4227
 Frc consts  --     0.0000                 0.0000                 0.0000
 IR Inten    --    56.8471                 0.4218                24.7631
 Raman Activ --     0.0000                 0.0000                 0.0000
 Depolar     --     0.0000                 0.0000                 0.0000
 Atom AN      X      Y      Z        X      Y      Z        X      Y      Z
   1   8    -0.01  -0.00   0.01     0.05  -0.03  -0.06     0.00  -0.00  -0.00
   2   6    -0.01   0.01  -0.00    -0.22   0.15   0.03    -0.00   0.00   0.00
   3   1    -0.01  -0.00  -0.01    -0.01   0.01   0.02     0.00  -0.00   0.00
   4   1     0.00   0.01  -0.00    -0.09   0.07   0.07    -0.00   0.00   0.00
   5   6     0.01   0.01  -0.00    -0.21   0.29  -0.16    -0.00   0.01  -0.00
   6   1     0.01   0.01   0.01     0.00   0.14   0.04     0.00   0.00   0.00
   7   1     0.00   0.01  -0.01    -0.03   0.12  -0.15     0.00   0.00  -0.01
   8   7    -0.02  -0.02   0.00    -0.27   0.07  -0.14    -0.01  -0.00   0.00
   9   6    -0.02  -0.02  -0.01    -0.05  -0.31  -0.01    -0.00  -0.01  -0.00
  10   1    -0.01  -0.00  -0.00     0.05  -0.08   0.03    -0.00  -0.00  -0.00
  11   1    -0.00  -0.01  -0.01    -0.08  -0.19  -0.03    -0.00  -0.00  -0.00
  12   1    -0.00  -0.01   0.00     0.07  -0.09   0.04     0.00  -0.00  -0.00
  13   6     0.02   0.01  -0.01     0.24  -0.05   0.22     0.01   0.00   0.00
  14   1     0.01   0.01  -0.00     0.05   0.07   0.21     0.00   0.00   0.00
  15   1     0.00   0.01   0.00     0.15  -0.06   0.07     0.00   0.00   0.00
  16   1     0.02  -0.01  -0.01     0.15  -0.09   0.01     0.00  -0.00  -0.00
  17   6     0.01   0.00   0.03     0.28  -0.06   0.02     0.00  -0.00   0.01
  18   1     0.01   0.01   0.00     0.16  -0.05   0.06     0.00  -0.00   0.00
  19   1     0.00   0.00   0.01     0.17   0.01  -0.12     0.00  -0.00  -0.00
  20   1    -0.00  -0.00   0.02     0.08  -0.07   0.13     0.00  -0.00   0.00
  21   1    -0.02   0.01   0.00     0.01  -0.01  -0.02    -0.00   0.00   0.00
  22   6     0.02   0.01   0.00    -0.01   0.01   0.01    -0.00   0.01  -0.00
  23   8     0.04   0.00   0.00    -0.01   0.01  -0.00    -0.00   0.01   0.00
  24   7    -0.22  -0.03  -0.11     0.00   0.00   0.02    -0.01   0.01  -0.01
  25   1     0.44   0.10   0.17    -0.01  -0.00  -0.00    -0.01   0.01   0.00
  26   1     0.01   0.01   0.03    -0.00  -0.00   0.01     0.03   0.02   0.00
  27   7     0.22   0.06   0.13    -0.00  -0.02  -0.02     0.01   0.02   0.02
  28   1    -0.01   0.02  -0.05     0.01  -0.00  -0.01    -0.04  -0.00   0.00
  29   1    -0.65  -0.14  -0.24     0.03  -0.01   0.01     0.00   0.02   0.00
  30   6     0.01  -0.01  -0.00     0.00   0.00   0.00    -0.09  -0.08  -0.19
  31   8    -0.00  -0.01   0.00     0.00   0.00   0.00    -0.18  -0.16  -0.10
  32   7     0.00   0.00   0.02     0.00  -0.00  -0.00    -0.02  -0.03   0.27
  33   1     0.03  -0.04   0.00    -0.00   0.00  -0.00     0.10   0.20   0.15
  34   1    -0.05   0.06  -0.00     0.00  -0.00  -0.00    -0.11  -0.13   0.22
  35   7     0.01   0.00   0.00    -0.00  -0.00   0.00     0.24   0.16  -0.06
  36   1     0.01  -0.01  -0.00    -0.00  -0.00   0.00     0.11   0.15  -0.10
  37   1    -0.00   0.01   0.00    -0.00  -0.00  -0.00     0.10   0.04   0.11
  38   6    -0.02   0.02  -0.03    -0.00  -0.02   0.01     0.00   0.01  -0.00
  39   8    -0.01   0.02  -0.03    -0.02  -0.01   0.03     0.00   0.00  -0.01
  40   7     0.06  -0.02   0.02     0.00   0.03   0.00    -0.00  -0.01  -0.00
  41   1    -0.06  -0.02  -0.02    -0.04   0.02  -0.07    -0.00  -0.00   0.01
  42   1    -0.00  -0.02  -0.02     0.03   0.04   0.05     0.00  -0.01  -0.00
  43   7     0.03  -0.00   0.07     0.02  -0.01  -0.04    -0.00   0.00   0.00
  44   1    -0.22  -0.01  -0.16     0.01  -0.01  -0.02     0.00   0.00   0.00
  45   1     0.02   0.01   0.02     0.01   0.01  -0.01    -0.00  -0.00   0.00
  46   6    -0.00  -0.02  -0.01    -0.00   0.00  -0.00     0.14  -0.09   0.15
  47   8     0.00  -0.01  -0.01    -0.01   0.00  -0.00     0.25  -0.07   0.05
  48   7    -0.00   0.02   0.01     0.01   0.00  -0.00    -0.28  -0.03   0.09
  49   1     0.00   0.01   0.01     0.00  -0.00   0.00    -0.12   0.03  -0.09
  50   1    -0.01  -0.07  -0.03     0.00   0.00  -0.00    -0.16   0.02   0.15
  51   7    -0.00   0.02   0.00     0.00  -0.00   0.01     0.00   0.10  -0.26
  52   1     0.00   0.03   0.02    -0.00  -0.01   0.00     0.13   0.05  -0.24
  53   1    -0.00  -0.05  -0.02     0.01   0.00   0.00    -0.20   0.16  -0.07
                     43                     44                     45
                        a                      a                      a 
 Frequencies --   466.2417               471.9765               478.1038
 Red. masses --     4.2199                 6.2685                 3.2695
 Frc consts  --     0.0000                 0.0000                 0.0000
 IR Inten    --    11.0822                 7.6854                 1.7679
 Raman Activ --     0.0000                 0.0000                 0.0000
 Depolar     --     0.0000                 0.0000                 0.0000
 Atom AN      X      Y      Z        X      Y      Z        X      Y      Z
   1   8     0.02  -0.01  -0.02    -0.02   0.01   0.03     0.00   0.00  -0.01
   2   6     0.01  -0.02  -0.01    -0.07   0.06   0.04    -0.00   0.00   0.00
   3   1     0.02  -0.02  -0.00    -0.03   0.03   0.02     0.00   0.00   0.00
   4   1    -0.01  -0.01   0.01    -0.01   0.03   0.01    -0.00  -0.00   0.00
   5   6     0.07   0.08  -0.02    -0.18  -0.08  -0.00    -0.00  -0.00  -0.00
   6   1     0.08   0.05   0.06    -0.16  -0.07  -0.10    -0.00  -0.00  -0.00
   7   1     0.04   0.07  -0.10    -0.08  -0.10   0.14    -0.00  -0.00   0.00
   8   7    -0.12  -0.08   0.09     0.15   0.17  -0.19     0.00   0.00  -0.00
   9   6    -0.07  -0.06  -0.14     0.12   0.02   0.28     0.00  -0.00   0.01
  10   1    -0.06  -0.05  -0.07     0.12   0.06   0.15     0.00   0.00   0.00
  11   1     0.00  -0.00  -0.06    -0.03  -0.05   0.11     0.00  -0.00   0.00
  12   1     0.02   0.01  -0.05    -0.01  -0.04   0.10     0.00  -0.00   0.00
  13   6     0.08   0.12  -0.01    -0.09  -0.22   0.07    -0.00  -0.00   0.00
  14   1     0.04   0.05  -0.00    -0.06  -0.08   0.07    -0.00  -0.00   0.00
  15   1     0.03   0.09   0.04    -0.01  -0.18  -0.04    -0.00  -0.00  -0.00
  16   1     0.06   0.01  -0.07    -0.08  -0.04   0.12    -0.00  -0.00   0.00
  17   6    -0.04  -0.06   0.16     0.14   0.11  -0.28     0.00   0.00  -0.01
  18   1    -0.00  -0.01   0.04     0.04   0.00  -0.06     0.00  -0.00  -0.00
  19   1     0.01  -0.00   0.04     0.03   0.01  -0.10     0.00   0.00  -0.00
  20   1    -0.01  -0.03   0.07     0.03   0.05  -0.10     0.00   0.00  -0.00
  21   1    -0.00   0.00  -0.01     0.01  -0.00   0.01    -0.00   0.00  -0.00
  22   6     0.01   0.02  -0.00     0.01  -0.02   0.00    -0.00   0.01   0.00
  23   8     0.00   0.02   0.02     0.01  -0.02  -0.00    -0.01  -0.00   0.03
  24   7     0.00  -0.04   0.00    -0.02   0.02  -0.02    -0.01  -0.01  -0.00
  25   1     0.02  -0.02  -0.01     0.04   0.03   0.02     0.00  -0.00  -0.00
  26   1     0.00  -0.01   0.02     0.01   0.01  -0.01     0.03   0.01   0.01
  27   7     0.00   0.00  -0.03     0.01   0.01   0.03    -0.01  -0.01  -0.03
  28   1     0.00   0.00  -0.01    -0.01  -0.00   0.01     0.02   0.00  -0.01
  29   1     0.01  -0.01  -0.00    -0.04   0.01  -0.01     0.02  -0.01   0.00
  30   6     0.00   0.00   0.01    -0.00  -0.00  -0.00    -0.00   0.07   0.10
  31   8     0.01   0.01   0.00    -0.00  -0.00  -0.01     0.09   0.14   0.01
  32   7     0.00   0.00  -0.01    -0.00   0.00   0.01    -0.03   0.04  -0.07
  33   1    -0.00  -0.01  -0.01     0.02  -0.03   0.00     0.24  -0.55  -0.09
  34   1     0.00   0.01  -0.01    -0.02   0.02  -0.00    -0.12   0.34  -0.17
  35   7    -0.01  -0.01   0.00     0.01  -0.00  -0.00    -0.07  -0.15   0.05
  36   1    -0.00  -0.01   0.00     0.01  -0.00  -0.00    -0.01  -0.12   0.05
  37   1    -0.00  -0.00  -0.01    -0.00   0.01   0.00    -0.07   0.01  -0.04
  38   6    -0.04   0.12  -0.07    -0.05  -0.04   0.01     0.01   0.01  -0.01
  39   8     0.05  -0.00  -0.20    -0.06  -0.05   0.00     0.01   0.01  -0.01
  40   7    -0.05  -0.12  -0.01    -0.06   0.10  -0.02     0.01  -0.02  -0.00
  41   1     0.42  -0.07   0.51     0.38   0.06   0.25    -0.04  -0.01  -0.02
  42   1    -0.20  -0.27  -0.30    -0.22  -0.05  -0.14     0.03  -0.00   0.01
  43   7    -0.04   0.08   0.20     0.13   0.02  -0.03    -0.02   0.00   0.01
  44   1     0.01   0.06   0.12     0.04  -0.03  -0.05    -0.00   0.01   0.01
  45   1    -0.08  -0.04   0.03    -0.02   0.03  -0.05    -0.00  -0.01   0.01
  46   6    -0.00   0.00   0.00     0.00  -0.00   0.00     0.06  -0.08   0.07
  47   8     0.00   0.00   0.00     0.00  -0.00   0.00     0.16  -0.05  -0.01
  48   7    -0.00   0.00  -0.00    -0.01  -0.00   0.00    -0.16   0.03   0.08
  49   1    -0.00   0.00  -0.00    -0.00   0.00  -0.00    -0.07  -0.00  -0.05
  50   1    -0.00   0.00   0.00    -0.00  -0.00   0.00    -0.08   0.04   0.09
  51   7    -0.00  -0.00  -0.00     0.00   0.01  -0.01    -0.00   0.01  -0.11
  52   1     0.00  -0.00  -0.00     0.00   0.01   0.00     0.07  -0.13  -0.24
  53   1    -0.00   0.01   0.00    -0.00  -0.02  -0.01    -0.10   0.40   0.09
                     46                     47                     48
                        a                      a                      a 
 Frequencies --   480.5951               486.4623               489.3261
 Red. masses --     2.5926                 7.9830                 7.5642
 Frc consts  --     0.0000                 0.0000                 0.0000
 IR Inten    --    15.0211                30.3011                16.5171
 Raman Activ --     0.0000                 0.0000                 0.0000
 Depolar     --     0.0000                 0.0000                 0.0000
 Atom AN      X      Y      Z        X      Y      Z        X      Y      Z
   1   8     0.01   0.01  -0.02     0.02  -0.00  -0.04     0.01   0.00  -0.02
   2   6     0.01  -0.01  -0.00     0.03  -0.02  -0.02     0.01  -0.00  -0.01
   3   1     0.01  -0.00   0.00     0.01  -0.01  -0.01     0.00  -0.00  -0.00
   4   1    -0.00  -0.01   0.00     0.00  -0.01  -0.01     0.00  -0.00  -0.00
   5   6     0.02   0.01  -0.00     0.08   0.03   0.01     0.03   0.01   0.00
   6   1     0.02   0.01   0.01     0.06   0.04   0.05     0.02   0.01   0.02
   7   1     0.01   0.01  -0.02     0.04   0.04  -0.06     0.01   0.01  -0.02
   8   7    -0.02  -0.02   0.02    -0.05  -0.07   0.08    -0.02  -0.02   0.03
   9   6    -0.01  -0.01  -0.04    -0.04  -0.00  -0.13    -0.01  -0.00  -0.04
  10   1    -0.01  -0.01  -0.02    -0.05  -0.03  -0.07    -0.02  -0.01  -0.02
  11   1     0.00   0.00  -0.01     0.02   0.03  -0.05     0.01   0.01  -0.02
  12   1     0.01   0.00  -0.01     0.01   0.02  -0.05     0.00   0.01  -0.02
  13   6     0.01   0.03  -0.00     0.04   0.10  -0.04     0.01   0.03  -0.01
  14   1     0.01   0.01  -0.01     0.02   0.03  -0.03     0.01   0.01  -0.01
  15   1     0.00   0.02   0.01     0.01   0.08   0.02     0.00   0.03   0.01
  16   1     0.01   0.01  -0.01     0.03   0.02  -0.06     0.01   0.01  -0.02
  17   6    -0.02  -0.01   0.03    -0.06  -0.04   0.11    -0.02  -0.01   0.04
  18   1    -0.00  -0.00   0.01    -0.02  -0.00   0.02    -0.01  -0.00   0.01
  19   1    -0.00  -0.00   0.01    -0.02  -0.01   0.04    -0.01  -0.00   0.01
  20   1    -0.00  -0.01   0.01    -0.02  -0.02   0.03    -0.01  -0.00   0.01
  21   1     0.00  -0.00  -0.01    -0.00   0.00  -0.01    -0.01   0.01  -0.01
  22   6     0.02  -0.08  -0.01     0.02  -0.13   0.01     0.02  -0.03   0.01
  23   8     0.02  -0.08  -0.02     0.04  -0.12  -0.05    -0.01  -0.05   0.03
  24   7     0.02   0.09  -0.06    -0.02   0.18  -0.09    -0.04   0.04  -0.05
  25   1    -0.06   0.06   0.01    -0.03   0.13   0.06     0.05   0.05   0.04
  26   1     0.04   0.05  -0.06    -0.00   0.07  -0.12     0.04   0.03  -0.02
  27   7    -0.05   0.01   0.09    -0.03   0.01   0.17    -0.03   0.00   0.03
  28   1    -0.07  -0.01   0.07    -0.04  -0.02   0.11     0.03   0.00   0.03
  29   1     0.06   0.09   0.04    -0.06   0.08   0.01     0.01   0.02   0.01
  30   6    -0.06  -0.00  -0.06    -0.02  -0.00  -0.03     0.11   0.03   0.15
  31   8    -0.06   0.01  -0.07    -0.04  -0.02  -0.02     0.18   0.07   0.11
  32   7    -0.06   0.02   0.11    -0.01  -0.01   0.04     0.06   0.02  -0.22
  33   1     0.29  -0.37   0.02     0.04  -0.00   0.02    -0.26   0.14  -0.09
  34   1    -0.19   0.22  -0.00    -0.03   0.00   0.03     0.21  -0.08  -0.12
  35   7     0.12  -0.00  -0.00     0.05   0.02  -0.01    -0.27  -0.11   0.02
  36   1     0.11  -0.03  -0.04     0.03   0.02  -0.02    -0.17  -0.08   0.09
[...]
  44   1     0.05   0.08  -0.07    -0.00  -0.00   0.00     0.00   0.00  -0.00
  45   1    -0.49   0.20   0.76     0.01  -0.00  -0.01    -0.01   0.01   0.02
  46   6     0.01  -0.00   0.01    -0.01  -0.00   0.01     0.01  -0.00   0.01
  47   8    -0.01   0.00  -0.00    -0.00   0.00   0.00    -0.00   0.00  -0.00
  48   7    -0.03  -0.00   0.01    -0.15  -0.02   0.06     0.07   0.01  -0.03
  49   1     0.14   0.01  -0.05     0.63   0.07  -0.20    -0.30  -0.03   0.09
  50   1    -0.02   0.01  -0.01    -0.07   0.03  -0.05     0.04  -0.01   0.02
  51   7    -0.00   0.00  -0.00     0.00   0.00  -0.00    -0.00   0.00  -0.00
  52   1    -0.00   0.00   0.00     0.00  -0.00   0.00    -0.01   0.00  -0.00
  53   1     0.00  -0.00   0.00     0.00   0.00  -0.01    -0.00  -0.00   0.01
                    142                    143                    144
                        a                      a                      a 
 Frequencies --  3327.7578              3497.3381              3498.3640
 Red. masses --     1.7745                 1.4475                 1.4473
 Frc consts  --     0.0000                 0.0000                 0.0000
 IR Inten    --   915.5250                16.9919                17.0333
 Raman Activ --     0.0000                 0.0000                 0.0000
 Depolar     --     0.0000                 0.0000                 0.0000
 Atom AN      X      Y      Z        X      Y      Z        X      Y      Z
   1   8    -0.00  -0.01   0.01    -0.00   0.00   0.00    -0.00  -0.00   0.00
   2   6     0.00   0.00  -0.00    -0.00  -0.00  -0.00     0.00   0.00   0.00
   3   1    -0.00  -0.00   0.00     0.00   0.00  -0.00     0.00  -0.00  -0.00
   4   1     0.00   0.00  -0.00     0.00  -0.00   0.00    -0.00   0.00  -0.00
   5   6     0.00   0.00  -0.00    -0.00   0.00   0.00     0.00   0.00  -0.00
   6   1    -0.00   0.00   0.00     0.00   0.00  -0.00    -0.00  -0.00   0.00
   7   1    -0.00  -0.00  -0.00    -0.00   0.00  -0.00     0.00  -0.00   0.00
   8   7     0.00  -0.00   0.00     0.00  -0.00   0.00    -0.00   0.00   0.00
   9   6    -0.00  -0.00  -0.00    -0.00   0.00   0.00     0.00   0.00  -0.00
  10   1    -0.00   0.00   0.00    -0.00  -0.00   0.00    -0.00  -0.00   0.00
  11   1     0.00  -0.00   0.00    -0.00   0.00   0.00     0.00   0.00  -0.00
  12   1    -0.00   0.00   0.00     0.00  -0.00  -0.00    -0.00   0.00   0.00
  13   6    -0.00   0.00  -0.00     0.00   0.00  -0.00     0.00   0.00  -0.00
  14   1     0.00  -0.00   0.00    -0.00   0.00   0.00    -0.00   0.00  -0.00
  15   1    -0.00   0.00   0.00     0.00  -0.00  -0.00    -0.00  -0.00   0.00
  16   1    -0.00  -0.00  -0.00    -0.00  -0.00  -0.00     0.00   0.00  -0.00
  17   6     0.00   0.00  -0.00     0.00  -0.00   0.00    -0.00  -0.00  -0.00
  18   1    -0.00   0.00  -0.00    -0.00  -0.00   0.00    -0.00   0.00   0.00
  19   1     0.00  -0.00   0.00    -0.00   0.00  -0.00    -0.00  -0.00  -0.00
  20   1    -0.00  -0.00  -0.00    -0.00  -0.00  -0.00     0.00   0.00   0.00
  21   1     0.02   0.04  -0.03     0.00  -0.00  -0.00     0.00   0.00  -0.00
  22   6    -0.00   0.01   0.00     0.00  -0.00   0.00    -0.00   0.00   0.00
  23   8     0.00  -0.01  -0.00    -0.00   0.00  -0.00     0.00  -0.00  -0.00
  24   7    -0.09   0.16   0.06    -0.00  -0.01   0.01    -0.00   0.00  -0.00
  25   1     0.01   0.09  -0.07     0.01   0.03  -0.03    -0.00  -0.00   0.00
  26   1     0.34  -0.69  -0.14     0.00  -0.01  -0.00     0.00   0.00  -0.00
  27   7    -0.01   0.14   0.01    -0.00   0.00   0.00    -0.00  -0.00   0.00
  28   1     0.06  -0.53  -0.13     0.00  -0.00  -0.00    -0.00   0.01   0.00
  29   1    -0.03   0.02   0.07     0.00  -0.00  -0.00     0.00  -0.00  -0.01
  30   6     0.01   0.00   0.01     0.00  -0.00  -0.00     0.00   0.00   0.00
  31   8    -0.00  -0.00  -0.00    -0.00  -0.00   0.00    -0.00  -0.00  -0.00
  32   7    -0.00   0.00  -0.00    -0.00  -0.00   0.00     0.13   0.13  -0.03
  33   1    -0.00  -0.00   0.01     0.00   0.00  -0.02    -0.15  -0.13   0.63
  34   1    -0.00  -0.00  -0.00     0.01   0.01   0.01    -0.33  -0.34  -0.53
  35   7    -0.01  -0.01   0.00    -0.00  -0.00   0.00    -0.01  -0.01  -0.00
  36   1    -0.01  -0.01  -0.01    -0.00  -0.00  -0.00     0.02   0.02   0.03
  37   1     0.06   0.03  -0.01     0.01   0.00  -0.00     0.01   0.01  -0.00
  38   6    -0.00   0.00   0.00     0.00  -0.00  -0.00     0.00  -0.00   0.00
  39   8     0.00   0.00  -0.00    -0.00   0.00  -0.00     0.00   0.00  -0.00
  40   7    -0.00   0.00   0.00    -0.00   0.00   0.00    -0.01   0.00   0.02
  41   1     0.00  -0.00   0.00     0.00  -0.00  -0.00     0.02  -0.08  -0.02
  42   1     0.00   0.00  -0.00     0.00   0.00  -0.00     0.02   0.07  -0.06
  43   7     0.01  -0.01  -0.02     0.00   0.00  -0.00     0.00   0.00  -0.00
  44   1     0.01   0.01  -0.01    -0.00  -0.00   0.00    -0.00  -0.00   0.00
  45   1    -0.05   0.02   0.08     0.00  -0.00  -0.00    -0.00   0.00   0.00
  46   6    -0.01   0.00  -0.01     0.00  -0.00  -0.00     0.00   0.00  -0.00
  47   8     0.01  -0.00   0.01    -0.00   0.00  -0.00    -0.00  -0.00  -0.00
  48   7    -0.00  -0.00   0.00    -0.01   0.00  -0.00    -0.00  -0.00   0.00
  49   1     0.01   0.00  -0.01     0.01   0.00  -0.00     0.01   0.00  -0.00
  50   1     0.00  -0.00  -0.00     0.03  -0.01   0.02    -0.00   0.00  -0.00
  51   7     0.00   0.00   0.00     0.17  -0.02  -0.06     0.00  -0.00  -0.00
  52   1     0.01  -0.00   0.00    -0.52   0.30  -0.39    -0.01   0.01  -0.01
  53   1     0.00   0.00  -0.01    -0.12  -0.23   0.62    -0.00  -0.01   0.02
                    145                    146                    147
                        a                      a                      a 
 Frequencies --  3498.4511              3509.1224              3527.2145
 Red. masses --     1.4532                 1.9187                 1.9026
 Frc consts  --     0.0000                 0.0000                 0.0000
 IR Inten    --    17.3876                57.4348                 8.2401
 Raman Activ --     0.0000                 0.0000                 0.0000
 Depolar     --     0.0000                 0.0000                 0.0000
 Atom AN      X      Y      Z        X      Y      Z        X      Y      Z
   1   8    -0.00  -0.00   0.00    -0.00  -0.00   0.00     0.00   0.00  -0.00
   2   6     0.00   0.00  -0.00    -0.00  -0.00  -0.00     0.00  -0.00  -0.00
   3   1    -0.00  -0.00   0.00    -0.00  -0.00   0.00    -0.00   0.00   0.00
   4   1    -0.00   0.00  -0.00     0.00   0.00   0.00     0.00  -0.00   0.00
   5   6    -0.00  -0.00   0.00    -0.00   0.00   0.00    -0.00  -0.00   0.00
   6   1     0.00   0.00  -0.00     0.00   0.00  -0.00     0.00   0.00  -0.00
   7   1    -0.00  -0.00  -0.00     0.00   0.00   0.00     0.00   0.00   0.00
   8   7     0.00  -0.00  -0.00    -0.00   0.00   0.00    -0.00   0.00   0.00
   9   6    -0.00  -0.00   0.00    -0.00   0.00   0.00    -0.00   0.00   0.00
  10   1     0.00   0.00  -0.00     0.00   0.00  -0.00    -0.00   0.00  -0.00
  11   1     0.00  -0.00   0.00    -0.00   0.00   0.00    -0.00  -0.00   0.00
  12   1     0.00  -0.00   0.00     0.00  -0.00  -0.00     0.00  -0.00  -0.00
  13   6    -0.00  -0.00   0.00    -0.00  -0.00   0.00    -0.00  -0.00   0.00
  14   1     0.00  -0.00   0.00    -0.00   0.00  -0.00    -0.00   0.00   0.00
  15   1     0.00   0.00  -0.00     0.00   0.00  -0.00     0.00   0.00  -0.00
  16   1    -0.00  -0.00   0.00     0.00  -0.00  -0.00     0.00   0.00   0.00
  17   6     0.00   0.00   0.00     0.00   0.00   0.00     0.00   0.00  -0.00
  18   1     0.00  -0.00  -0.00     0.00  -0.00  -0.00     0.00   0.00   0.00
  19   1    -0.00   0.00   0.00    -0.00   0.00   0.00     0.00  -0.00   0.00
  20   1    -0.00  -0.00   0.00    -0.00  -0.00   0.00    -0.00  -0.00  -0.00
  21   1     0.00   0.00  -0.00     0.01   0.01  -0.01    -0.00  -0.00   0.00
  22   6     0.00  -0.00  -0.00    -0.00  -0.01   0.00    -0.00   0.00   0.00
  23   8    -0.00   0.00   0.00     0.00  -0.00  -0.00     0.00  -0.00  -0.00
  24   7    -0.00  -0.00   0.00    -0.01  -0.21   0.16     0.00   0.00  -0.00
  25   1     0.00   0.00  -0.00     0.11   0.69  -0.65    -0.00  -0.01   0.01
  26   1     0.00  -0.00  -0.00    -0.06   0.10   0.04    -0.00   0.00   0.00
  27   7     0.00  -0.00  -0.00    -0.01   0.01   0.01    -0.00  -0.00   0.00
  28   1    -0.00   0.00   0.00     0.00  -0.01  -0.00    -0.00   0.00   0.00
  29   1    -0.00   0.00   0.00     0.02  -0.01  -0.05     0.00  -0.00  -0.01
  30   6     0.00   0.00   0.00    -0.00  -0.00   0.00     0.00   0.00  -0.00
  31   8    -0.00  -0.00  -0.00     0.00   0.00  -0.00    -0.00  -0.00   0.00
  32   7     0.02   0.02  -0.00     0.00   0.00  -0.00    -0.00  -0.00  -0.00
  33   1    -0.02  -0.02   0.08    -0.00  -0.00   0.00     0.00   0.00  -0.00
  34   1    -0.04  -0.04  -0.07    -0.00  -0.00  -0.00     0.00   0.00   0.00
  35   7    -0.00  -0.00  -0.00     0.00  -0.00  -0.00     0.00   0.00   0.00
  36   1     0.00   0.00   0.00     0.01   0.00   0.01    -0.00  -0.00  -0.00
  37   1     0.00   0.00  -0.00    -0.01  -0.00   0.00     0.00   0.00   0.00
  38   6    -0.00   0.00  -0.00    -0.00   0.00  -0.00    -0.01  -0.00   0.01
  39   8    -0.00  -0.00   0.00    -0.00  -0.00   0.00     0.00   0.00  -0.00
  40   7     0.08  -0.02  -0.16    -0.00   0.00   0.00    -0.00   0.02   0.00
  41   1    -0.14   0.62   0.14     0.00  -0.00  -0.00     0.02  -0.08  -0.02
  42   1    -0.14  -0.53   0.48     0.00   0.00  -0.00    -0.00  -0.01   0.01
  43   7    -0.01  -0.01   0.01    -0.00  -0.00   0.00    -0.11  -0.18   0.15
  44   1     0.02   0.03  -0.02     0.01   0.01  -0.01     0.38   0.71  -0.51
  45   1     0.01  -0.00  -0.01    -0.00   0.00   0.01     0.04  -0.04  -0.07
  46   6     0.00  -0.00  -0.00     0.00  -0.00   0.00    -0.00   0.00  -0.00
  47   8    -0.00   0.00  -0.00    -0.00   0.00  -0.00     0.00  -0.00   0.00
  48   7    -0.00  -0.00   0.00     0.00   0.00  -0.00    -0.00   0.00  -0.00
  49   1     0.00   0.00  -0.00    -0.01  -0.00   0.00     0.00   0.00  -0.00
  50   1    -0.00   0.00  -0.00    -0.00   0.00  -0.00     0.00  -0.00   0.00
  51   7     0.00  -0.00  -0.00    -0.01   0.00   0.00     0.00  -0.00  -0.00
  52   1    -0.00   0.00  -0.00     0.03  -0.02   0.02    -0.00   0.00  -0.00
  53   1    -0.00  -0.00   0.00     0.00   0.01  -0.02    -0.00  -0.00   0.00
                    148                    149                    150
                        a                      a                      a 
 Frequencies --  3536.5509              3539.4056              3539.8949
 Red. masses --     1.9025                 1.9132                 1.9127
 Frc consts  --     0.0000                 0.0000                 0.0000
 IR Inten    --    24.8232                29.8452                 5.6947
 Raman Activ --     0.0000                 0.0000                 0.0000
 Depolar     --     0.0000                 0.0000                 0.0000
 Atom AN      X      Y      Z        X      Y      Z        X      Y      Z
   1   8     0.00   0.00  -0.00     0.00  -0.00  -0.00    -0.00  -0.00   0.00
   2   6     0.00  -0.00   0.00    -0.00   0.00  -0.00     0.00   0.00   0.00
   3   1     0.00   0.00  -0.00     0.00   0.00  -0.00    -0.00  -0.00   0.00
   4   1    -0.00  -0.00   0.00     0.00  -0.00   0.00    -0.00   0.00  -0.00
   5   6    -0.00  -0.00   0.00    -0.00   0.00  -0.00     0.00   0.00   0.00
   6   1     0.00  -0.00  -0.00    -0.00  -0.00   0.00    -0.00   0.00   0.00
   7   1     0.00   0.00  -0.00     0.00   0.00  -0.00    -0.00  -0.00   0.00
   8   7     0.00  -0.00  -0.00     0.00  -0.00   0.00    -0.00   0.00  -0.00
   9   6    -0.00  -0.00   0.00    -0.00  -0.00  -0.00     0.00  -0.00  -0.00
  10   1     0.00   0.00  -0.00    -0.00  -0.00  -0.00    -0.00   0.00   0.00
  11   1    -0.00   0.00  -0.00     0.00  -0.00   0.00     0.00  -0.00  -0.00
  12   1    -0.00   0.00   0.00    -0.00   0.00   0.00     0.00   0.00  -0.00
  13   6    -0.00  -0.00   0.00     0.00   0.00  -0.00     0.00  -0.00  -0.00
  14   1     0.00   0.00   0.00     0.00  -0.00  -0.00    -0.00   0.00  -0.00
  15   1     0.00   0.00  -0.00    -0.00  -0.00  -0.00    -0.00  -0.00   0.00
  16   1    -0.00  -0.00   0.00    -0.00  -0.00  -0.00     0.00  -0.00  -0.00
  17   6    -0.00   0.00  -0.00    -0.00   0.00   0.00     0.00  -0.00   0.00
  18   1    -0.00   0.00   0.00    -0.00  -0.00  -0.00     0.00  -0.00  -0.00
  19   1     0.00  -0.00  -0.00    -0.00  -0.00  -0.00    -0.00  -0.00  -0.00
  20   1    -0.00  -0.00  -0.00    -0.00  -0.00  -0.00     0.00  -0.00   0.00
  21   1    -0.00  -0.00   0.00    -0.00   0.00  -0.00     0.00   0.00  -0.00
  22   6    -0.00   0.01   0.01    -0.00   0.00   0.00     0.00  -0.00  -0.00
  23   8     0.00   0.00  -0.00     0.00   0.00  -0.00    -0.00  -0.00   0.00
  24   7     0.00   0.01  -0.01     0.00  -0.00   0.00     0.00  -0.00   0.00
  25   1    -0.01  -0.04   0.03     0.00   0.00  -0.00     0.00   0.01  -0.01
  26   1     0.00  -0.01  -0.00    -0.00   0.00   0.00    -0.00   0.00   0.00
  27   7    -0.10   0.08   0.23    -0.00   0.00   0.01     0.01  -0.01  -0.02
  28   1     0.00  -0.10  -0.01     0.00  -0.01  -0.00    -0.00   0.01   0.00
  29   1     0.38  -0.21  -0.85     0.01  -0.01  -0.02    -0.03   0.02   0.07
  30   6     0.00   0.00   0.00     0.01   0.01   0.00     0.00   0.00  -0.00
  31   8    -0.00  -0.00  -0.00    -0.00  -0.00  -0.00    -0.00  -0.00   0.00
  32   7    -0.00  -0.00  -0.00     0.00   0.00  -0.03     0.00   0.00  -0.01
  33   1    -0.00  -0.00   0.00    -0.02  -0.02   0.08    -0.01  -0.01   0.03
  34   1     0.01   0.01   0.01     0.02   0.02   0.02     0.00   0.00   0.00
  35   7     0.00   0.00   0.00     0.13   0.10   0.17     0.06   0.05   0.08
  36   1    -0.01  -0.00  -0.01    -0.45  -0.34  -0.66    -0.21  -0.16  -0.30
  37   1    -0.00  -0.00   0.00    -0.07  -0.04   0.03    -0.03  -0.02   0.01
  38   6    -0.00   0.00  -0.00    -0.00   0.00   0.00     0.00  -0.00   0.00
  39   8    -0.00  -0.00   0.00     0.00  -0.00   0.00     0.00   0.00  -0.00
  40   7     0.00  -0.00  -0.00     0.00  -0.00   0.00    -0.00   0.00   0.00
  41   1    -0.00   0.00   0.00    -0.00   0.00   0.00     0.00  -0.00  -0.00
  42   1    -0.00  -0.00   0.00     0.00   0.00  -0.00    -0.00  -0.00   0.00
  43   7     0.00   0.00   0.00     0.00   0.00  -0.00     0.00   0.00  -0.00
  44   1    -0.01  -0.01   0.01    -0.00  -0.00   0.00    -0.00  -0.00   0.00
  45   1     0.01  -0.00  -0.01    -0.00  -0.00   0.00    -0.00   0.00   0.00
  46   6    -0.00  -0.00   0.00     0.00  -0.00   0.00    -0.01   0.00   0.00
  47   8     0.00   0.00   0.00    -0.00   0.00  -0.00     0.00  -0.00   0.00
  48   7    -0.02   0.01  -0.01     0.09  -0.03   0.06    -0.18   0.07  -0.13
  49   1     0.00   0.00  -0.00    -0.04  -0.01   0.02     0.07   0.02  -0.04
  50   1     0.06  -0.03   0.05    -0.29   0.13  -0.24     0.63  -0.29   0.51
  51   7     0.00  -0.00   0.00    -0.00   0.01  -0.01     0.00  -0.01   0.03
  52   1    -0.00   0.00  -0.00     0.02  -0.01   0.01    -0.02   0.01  -0.02
  53   1     0.00   0.00  -0.01    -0.01  -0.01   0.04     0.02   0.03  -0.08
                    151                    152                    153
                        a                      a                      a 
 Frequencies --  3563.2645              3564.1368              3564.9899
 Red. masses --     2.1757                 2.1822                 2.1820
 Frc consts  --     0.0000                 0.0000                 0.0000
 IR Inten    --     8.4706                12.5284                18.7611
 Raman Activ --     0.0000                 0.0000                 0.0000
 Depolar     --     0.0000                 0.0000                 0.0000
 Atom AN      X      Y      Z        X      Y      Z        X      Y      Z
   1   8     0.00   0.00  -0.00    -0.00  -0.00   0.00     0.00   0.00  -0.00
   2   6     0.00  -0.00  -0.00    -0.00   0.00  -0.00    -0.00  -0.00  -0.00
   3   1    -0.00   0.00   0.00    -0.00  -0.00   0.00     0.00   0.00  -0.00
   4   1    -0.00  -0.00   0.00     0.00  -0.00   0.00    -0.00   0.00  -0.00
   5   6    -0.00  -0.00   0.00    -0.00   0.00   0.00    -0.00  -0.00   0.00
   6   1     0.00   0.00  -0.00    -0.00   0.00   0.00     0.00   0.00  -0.00
   7   1     0.00   0.00   0.00     0.00  -0.00   0.00     0.00   0.00  -0.00
   8   7     0.00   0.00  -0.00    -0.00   0.00   0.00     0.00   0.00  -0.00
   9   6    -0.00  -0.00   0.00    -0.00   0.00   0.00    -0.00  -0.00   0.00
  10   1     0.00   0.00  -0.00    -0.00   0.00  -0.00     0.00   0.00  -0.00
  11   1    -0.00   0.00   0.00     0.00  -0.00   0.00    -0.00   0.00  -0.00
  12   1    -0.00  -0.00   0.00     0.00   0.00  -0.00    -0.00  -0.00   0.00
  13   6    -0.00  -0.00   0.00    -0.00  -0.00   0.00    -0.00  -0.00   0.00
  14   1    -0.00   0.00   0.00    -0.00   0.00  -0.00    -0.00   0.00  -0.00
  15   1     0.00   0.00  -0.00     0.00   0.00  -0.00     0.00   0.00  -0.00
  16   1    -0.00  -0.00   0.00    -0.00  -0.00  -0.00     0.00   0.00  -0.00
  17   6     0.00   0.00  -0.00    -0.00   0.00  -0.00     0.00   0.00   0.00
  18   1    -0.00  -0.00   0.00     0.00   0.00  -0.00    -0.00  -0.00  -0.00
  19   1    -0.00   0.00   0.00     0.00  -0.00   0.00    -0.00   0.00  -0.00
  20   1    -0.00  -0.00   0.00     0.00   0.00   0.00    -0.00  -0.00  -0.00
  21   1    -0.00  -0.00   0.00     0.00   0.00  -0.00    -0.00  -0.00   0.00
  22   6    -0.00   0.00   0.00    -0.00  -0.00   0.00    -0.00  -0.00   0.00
  23   8     0.00  -0.00  -0.00     0.00  -0.00  -0.00    -0.00   0.00  -0.00
  24   7     0.00   0.00  -0.00     0.00  -0.00   0.00     0.00  -0.00   0.00
  25   1    -0.00  -0.00   0.00     0.00   0.00  -0.00     0.00   0.00  -0.00
  26   1    -0.00   0.00   0.00    -0.00   0.01   0.00    -0.00   0.00   0.00
  27   7     0.00  -0.00  -0.00    -0.00   0.00   0.00    -0.00   0.00   0.00
  28   1    -0.00   0.00   0.00     0.00  -0.00   0.00     0.00  -0.01  -0.00
  29   1    -0.00   0.00   0.00     0.00  -0.00  -0.00     0.00  -0.00  -0.01
  30   6    -0.00  -0.00  -0.00     0.00  -0.00  -0.00     0.00   0.00   0.01
  31   8    -0.00  -0.00   0.00    -0.00   0.00   0.00    -0.00  -0.00  -0.00
  32   7    -0.00  -0.00  -0.00    -0.00  -0.00  -0.03     0.04   0.04   0.29
  33   1    -0.00  -0.00   0.01    -0.02  -0.02   0.07     0.17   0.16  -0.65
  34   1     0.01   0.01   0.01     0.04   0.04   0.05    -0.31  -0.32  -0.46
  35   7    -0.00  -0.00  -0.00     0.00   0.00  -0.00     0.01   0.01   0.02
  36   1     0.00   0.00   0.00     0.00   0.00   0.00    -0.05  -0.04  -0.07
  37   1     0.00   0.00  -0.00    -0.01  -0.00   0.00    -0.01  -0.01   0.00
  38   6     0.00  -0.01   0.00    -0.00  -0.00   0.00     0.00  -0.00   0.00
  39   8    -0.00   0.00  -0.00    -0.00  -0.00   0.00    -0.00   0.00   0.00
  40   7     0.01  -0.29   0.07     0.00  -0.00   0.00     0.00  -0.00   0.00
  41   1    -0.16   0.67   0.18    -0.00   0.00   0.00    -0.00   0.01   0.00
  42   1     0.13   0.44  -0.43     0.00   0.00  -0.00     0.00   0.01  -0.01
  43   7    -0.01  -0.01   0.01     0.00  -0.00  -0.00    -0.00  -0.00   0.00
  44   1     0.03   0.05  -0.04    -0.00  -0.00   0.00     0.00   0.00  -0.00
  45   1     0.00  -0.00  -0.01    -0.00   0.00   0.00     0.00  -0.00  -0.00
  46   6    -0.00   0.00  -0.00     0.00  -0.00   0.01     0.00  -0.00   0.00
  47   8     0.00  -0.00   0.00    -0.00   0.00  -0.00    -0.00   0.00  -0.00
  48   7    -0.00   0.00  -0.00     0.02  -0.01   0.01     0.01  -0.00   0.00
  49   1     0.00   0.00  -0.00    -0.01  -0.00   0.00    -0.01  -0.00   0.00
  50   1     0.00  -0.00   0.00    -0.07   0.03  -0.06    -0.01   0.01  -0.01
  51   7    -0.00   0.00  -0.00     0.09  -0.13   0.25     0.01  -0.01   0.03
  52   1     0.00  -0.00   0.00    -0.48   0.27  -0.33    -0.05   0.03  -0.04
  53   1    -0.00  -0.00   0.00     0.15   0.22  -0.63     0.02   0.03  -0.07
