      -----------------------------------------------------------      
     |                   =====================                   |     
     |                           x T B                           |     
     |                   =====================                   |     
     |                         S. Grimme                         |     
     |          Mulliken Center for Theoretical Chemistry        |     
     |                    University of Bonn                     |     
      -----------------------------------------------------------      

   * xtb version 6.6.1 (unknown-commit) compiled by '@Linux' on 12/27/2023

   xtb is free software: you can redistribute it and/or modify it under
   the terms of the GNU Lesser General Public License as published by
   the Free Software Foundation, either version 3 of the License, or
   (at your option) any later version.
   
   xtb is distributed in the hope that it will be useful,
   but WITHOUT ANY WARRANTY; without even the implied warranty of
   MERCHANTABILITY or FITNESS FOR A PARTICULAR PURPOSE.  See the
   GNU Lesser General Public License for more details.
   
   Cite this work as:
   * C. Bannwarth, E. Caldeweyher, S. Ehlert, A. Hansen, P. Pracht,
     J. Seibert, S. Spicher, S. Grimme, WIREs Comput. Mol. Sci., 2020, 11,
     e01493. DOI: 10.1002/wcms.1493
   
   for GFN2-xTB:
   * C. Bannwarth, S. Ehlert and S. Grimme., J. Chem. Theory Comput., 2019,
     15, 1652-1671. DOI: 10.1021/acs.jctc.8b01176
   for GFN1-xTB:
   * S. Grimme, C. Bannwarth, P. Shushkov, J. Chem. Theory Comput., 2017,
     13, 1989-2009. DOI: 10.1021/acs.jctc.7b00118
   for GFN0-xTB:
   * P. Pracht, E. Caldeweyher, S. Ehlert, S. Grimme, ChemRxiv, 2019, preprint.
     DOI: 10.26434/chemrxiv.8326202.v1
   for GFN-FF:
   * S. Spicher and S. Grimme, Angew. Chem. Int. Ed., 2020, 59, 15665-15673.
     DOI: 10.1002/anie.202004239
   
   for ALPB and GBSA implicit solvation:
   * S. Ehlert, M. Stahn, S. Spicher, S. Grimme, J. Chem. Theory Comput.,
     2021, 17, 4250-4261. DOI: 10.1021/acs.jctc.1c00471
   
   for DFT-D4:
   * E. Caldeweyher, C. Bannwarth and S. Grimme, J. Chem. Phys., 2017,
     147, 034112. DOI: 10.1063/1.4993215
   * E. Caldeweyher, S. Ehlert, A. Hansen, H. Neugebauer, S. Spicher,
     C. Bannwarth and S. Grimme, J. Chem. Phys., 2019, 150, 154122.
     DOI: 10.1063/1.5090222
   * E. Caldeweyher, J.-M. Mewes, S. Ehlert and S. Grimme, Phys. Chem. Chem. Phys.
     2020, 22, 8499-8512. DOI: 10.1039/D0CP00502A
   
   for sTDA-xTB:
   * S. Grimme and C. Bannwarth, J. Chem. Phys., 2016, 145, 054103.
     DOI: 10.1063/1.4959605
   
   in the mass-spec context:
   * V. Asgeirsson, C. Bauer and S. Grimme, Chem. Sci., 2017, 8, 4879.
     DOI: 10.1039/c7sc00601b
   * J. Koopman and S. Grimme, ACS Omega 2019, 4, 12, 15120-15133.
     DOI: 10.1021/acsomega.9b02011
   
   for metadynamics refer to:
   * S. Grimme, J. Chem. Theory Comput., 2019, 155, 2847-2862
     DOI: 10.1021/acs.jctc.9b00143
   
   for SPH calculations refer to:
   * S. Spicher and S. Grimme, J. Chem. Theory Comput., 2021, 17, 1701-1714
     DOI: 10.1021/acs.jctc.0c01306
   
   with help from (in alphabetical order)
   P. Atkinson, C. Bannwarth, F. Bohle, G. Brandenburg, E. Caldeweyher
   M. Checinski, S. Dohm, S. Ehlert, S. Ehrlich, I. Gerasimov, C. Hölzer
   A. Katbashev, J. Koopman, C. Lavigne, S. Lehtola, F. März, M. Müller,
   F. Musil, H. Neugebauer, J. Pisarek, C. Plett, P. Pracht, F. Pultar,
   J. Seibert, P. Shushkov, S. Spicher, M. Stahn, M. Steiner, T. Strunk,
   J. Stückrath, T. Rose, and J. Unsleber
   
 * started run on 2024/01/10 at 18:26:24.365     

           -------------------------------------------------
          |                Calculation Setup                |
           -------------------------------------------------

          program call               : xtb struc.xyz --gfn2 --hess
          hostname                   : swaroop
          coordinate file            : struc.xyz
          omp threads                :                     1

   ID    Z sym.   atoms
    1    8 O      1, 23, 31, 39, 47
    2    6 C      2, 5, 9, 13, 17, 22, 30, 38, 46
    3    1 H      3, 4, 6, 7, 10-12, 14-16, 18-21, 25, 26, 28, 29, 33, 34,
                  36, 37, 41, 42, 44, 45, 49, 50, 52, 53
    4    7 N      8, 24, 27, 32, 35, 40, 43, 48, 51

molecular fragmentation (1/2 indicates fragments):
11111111111111111111122222222222222222222222222222222
# atoms in fragment 1/2:    21    32
 fragment masses (1/2) :      104.17      240.22
CMA distance (Bohr)    :  11.466
constraining FC (au)   :  0.0500

           -------------------------------------------------
          |                 G F N 2 - x T B                 |
           -------------------------------------------------

        Reference                      10.1021/acs.jctc.8b01176
      * Hamiltonian:
        H0-scaling (s, p, d)           1.850000    2.230000    2.230000
        zeta-weighting                 0.500000
      * Dispersion:
        s8                             2.700000
        a1                             0.520000
        a2                             5.000000
        s9                             5.000000
      * Repulsion:
        kExp                           1.500000    1.000000
        rExp                           1.000000
      * Coulomb:
        alpha                          2.000000
        third order                    shell-resolved
        anisotropic                    true
        a3                             3.000000
        a5                             4.000000
        cn-shift                       1.200000
        cn-exp                         4.000000
        max-rad                        5.000000


          ...................................................
          :                      SETUP                      :
          :.................................................:
          :  # basis functions                 122          :
          :  # atomic orbitals                 122          :
          :  # shells                           76          :
          :  # electrons                       140          :
          :  max. iterations                   250          :
          :  Hamiltonian                  GFN2-xTB          :
          :  restarted?                      false          :
          :  GBSA solvation                  false          :
          :  PC potential                    false          :
          :  electronic temp.          300.0000000     K    :
          :  accuracy                    1.0000000          :
          :  -> integral cutoff          0.2500000E+02      :
          :  -> integral neglect         0.1000000E-07      :
          :  -> SCF convergence          0.1000000E-05 Eh   :
          :  -> wf. convergence          0.1000000E-03 e    :
          :  Broyden damping             0.4000000          :
          ...................................................

 iter      E             dE          RMSdq      gap      omega  full diag
   1    -81.5504312 -0.815504E+02  0.427E+00    5.14       0.0  T
   2    -81.8332613 -0.282830E+00  0.232E+00    6.15       1.0  T
   3    -81.8390916 -0.583021E-02  0.112E+00    5.93       1.0  T
   4    -81.8405685 -0.147690E-02  0.249E-01    6.09       1.0  T
   5    -81.8415134 -0.944992E-03  0.913E-02    6.00       1.0  T
   6    -81.8415382 -0.247611E-04  0.256E-02    6.00       1.0  T
   7    -81.8415422 -0.402979E-05  0.750E-03    6.00       1.8  T
   8    -81.8415426 -0.320306E-06  0.258E-03    6.00       5.3  T
   9    -81.8415426 -0.111259E-07  0.806E-04    6.00      17.0  T
  10    -81.8415426 -0.342231E-08  0.159E-04    6.00      86.3  T

   *** convergence criteria satisfied after 10 iterations ***

         #    Occupation            Energy/Eh            Energy/eV
      -------------------------------------------------------------
         1        2.0000           -0.8086273             -22.0039
       ...           ...                  ...                  ...
        64        2.0000           -0.4876210             -13.2688
        65        2.0000           -0.4857429             -13.2177
        66        2.0000           -0.4849649             -13.1966
        67        2.0000           -0.4841148             -13.1734
        68        2.0000           -0.4820090             -13.1161
        69        2.0000           -0.4795994             -13.0506
        70        2.0000           -0.4782668             -13.0143 (HOMO)
        71                         -0.2578525              -7.0165 (LUMO)
        72                         -0.2574579              -7.0058
        73                         -0.2550106              -6.9392
        74                         -0.2523702              -6.8673
        75                         -0.1651844              -4.4949
       ...                                ...                  ...
       122                          0.5614642              15.2782
      -------------------------------------------------------------
                  HL-Gap            0.2204144 Eh            5.9978 eV
             Fermi-level           -0.3680596 Eh          -10.0154 eV

 SCC (total)                   0 d,  0 h,  0 min,  0.094 sec
 SCC setup                      ...        0 min,  0.000 sec (  0.302%)
 Dispersion                     ...        0 min,  0.001 sec (  0.627%)
 classical contributions        ...        0 min,  0.000 sec (  0.192%)
 integral evaluation            ...        0 min,  0.007 sec (  7.656%)
 iterations                     ...        0 min,  0.060 sec ( 63.807%)
 molecular gradient             ...        0 min,  0.026 sec ( 27.160%)
 printout                       ...        0 min,  0.000 sec (  0.244%)

         :::::::::::::::::::::::::::::::::::::::::::::::::::::
         ::                     SUMMARY                     ::
         :::::::::::::::::::::::::::::::::::::::::::::::::::::
         :: total energy             -80.934988742615 Eh    ::
         :: gradient norm              0.000132607339 Eh/a0 ::
         :: HOMO-LUMO gap              5.997780388573 eV    ::
         ::.................................................::
         :: SCC energy               -81.841542575111 Eh    ::
         :: -> isotropic ES            0.296053248049 Eh    ::
         :: -> anisotropic ES         -0.029280181703 Eh    ::
         :: -> anisotropic XC          0.019725830266 Eh    ::
         :: -> dispersion             -0.041211827135 Eh    ::
         :: repulsion energy           0.906020011188 Eh    ::
         :: add. restraining           0.000000000000 Eh    ::
         :: total charge               1.000000000000 e     ::
         :::::::::::::::::::::::::::::::::::::::::::::::::::::

           ------------------------------------------------- 
          |                Numerical Hessian                |
           ------------------------------------------------- 
step length          :   0.00500
SCC accuracy         :   0.30000
Hessian scale factor :   1.00000
frozen atoms in %    :   0.00000    0
RMS gradient         :   0.00013
estimated CPU  time      0.23 min
estimated wall time      0.23 min

writing file <hessian>.

 projected vibrational frequencies (cm⁻¹)
eigval :       -0.00    -0.00     0.00     0.00     0.00     0.00
eigval :        8.86    10.85    19.73    22.68    31.44    33.82
eigval :       43.16    45.29    48.28    61.60    62.74    69.92
eigval :       71.34    89.63    96.92   106.22   118.91   124.87
eigval :      125.42   138.01   159.76   171.05   185.41   195.75
eigval :      205.60   250.84   252.17   257.70   274.64   279.70
eigval :      307.00   312.28   333.69   348.97   366.04   368.75
eigval :      386.65   403.91   424.94   441.29   455.36   458.37
eigval :      466.24   471.98   478.10   480.60   486.46   489.33
eigval :      491.00   545.55   548.72   550.23   552.26   568.68
eigval :      588.93   619.62   636.95   669.49   675.93   682.41
eigval :      695.75   728.35   755.11   763.86   773.14   888.59
eigval :      896.82   923.79   963.68   966.08   971.15   989.25
eigval :      996.40  1007.14  1015.55  1015.62  1019.85  1021.57
eigval :     1029.46  1033.45  1039.68  1083.22  1085.11  1087.48
eigval :     1092.13  1096.30  1101.01  1131.78  1171.09  1226.83
eigval :     1248.27  1268.20  1306.25  1335.33  1344.53  1352.22
eigval :     1367.67  1374.80  1379.45  1399.71  1408.85  1410.10
eigval :     1424.40  1433.09  1438.61  1441.63  1442.44  1453.92
eigval :     1456.42  1458.96  1465.87  1468.62  1471.55  1478.35
eigval :     1493.62  1505.57  1511.26  1513.89  1531.22  1636.79
eigval :     1667.75  1693.53  1708.18  2890.62  2904.21  2955.16
eigval :     2970.91  2997.24  3028.67  3035.83  3037.21  3040.28
eigval :     3043.22  3044.74  3047.72  3051.29  3056.13  3190.36
eigval :     3197.15  3230.61  3304.57  3327.76  3497.34  3498.36
eigval :     3498.45  3509.12  3527.21  3536.55  3539.41  3539.89
eigval :     3563.26  3564.14  3564.99
           -------------------------------------------------
          |                Property Printout                |
           -------------------------------------------------

    * Orbital Energies and Occupations

         #    Occupation            Energy/Eh            Energy/eV
      -------------------------------------------------------------
         1        2.0000           -0.8086269             -22.0039
       ...           ...                  ...                  ...
        58        2.0000           -0.4987662             -13.5721
        59        2.0000           -0.4962967             -13.5049
        60        2.0000           -0.4932433             -13.4218
        61        2.0000           -0.4931428             -13.4191
        62        2.0000           -0.4906953             -13.3525
        63        2.0000           -0.4881940             -13.2844
        64        2.0000           -0.4876224             -13.2689
        65        2.0000           -0.4857443             -13.2178
        66        2.0000           -0.4849664             -13.1966
        67        2.0000           -0.4841159             -13.1735
        68        2.0000           -0.4820104             -13.1162
        69        2.0000           -0.4796004             -13.0506
        70        2.0000           -0.4782674             -13.0143 (HOMO)
        71                         -0.2578537              -7.0166 (LUMO)
        72                         -0.2574592              -7.0058
        73                         -0.2550127              -6.9392
        74                         -0.2523709              -6.8674
        75                         -0.1651835              -4.4949
        76                         -0.0996309              -2.7111
        77                         -0.0943993              -2.5687
        78                         -0.0871008              -2.3701
        79                         -0.0839954              -2.2856
        80                         -0.0764035              -2.0790
        81                         -0.0648662              -1.7651
       ...                                ...                  ...
       122                          0.5614629              15.2782
      -------------------------------------------------------------
                  HL-Gap            0.2204137 Eh            5.9978 eV
             Fermi-level           -0.3680605 Eh          -10.0154 eV

     #   Z          covCN         q      C6AA      α(0)
     1   8 O        1.651    -0.486    22.592     6.416
     2   6 C        3.673     0.077    19.518     6.332
     3   1 H        0.924     0.048     2.345     2.395
     4   1 H        0.923     0.045     2.383     2.414
     5   6 C        3.765    -0.066    21.810     6.657
     6   1 H        0.924     0.132     1.518     1.927
     7   1 H        0.924     0.071     2.070     2.250
     8   7 N        3.623     0.155    18.620     6.409
     9   6 C        3.726    -0.114    22.795     6.817
    10   1 H        0.925     0.127     1.558     1.952
    11   1 H        0.925     0.078     1.995     2.209
    12   1 H        0.925     0.120     1.617     1.989
    13   6 C        3.732    -0.110    22.696     6.800
    14   1 H        0.925     0.087     1.912     2.162
    15   1 H        0.924     0.137     1.482     1.904
    16   1 H        0.925     0.082     1.957     2.188
    17   6 C        3.719    -0.095    22.428     6.765
    18   1 H        0.925     0.105     1.740     2.063
    19   1 H        0.925     0.088     1.895     2.153
    20   1 H        0.925     0.086     1.921     2.167
    21   1 H        0.800     0.342     0.607     1.224
    22   6 C        2.675     0.338    21.262     7.546
    23   8 O        0.861    -0.548    24.876     6.687
    24   7 N        2.645    -0.302    27.776     7.827
    25   1 H        0.860     0.204     1.084     1.631
    26   1 H        0.860     0.231     0.962     1.536
    27   7 N        2.645    -0.301    27.743     7.823
    28   1 H        0.860     0.231     0.960     1.535
    29   1 H        0.860     0.189     1.166     1.692
    30   6 C        2.675     0.342    21.194     7.533
    31   8 O        0.861    -0.527    24.380     6.620
    32   7 N        2.645    -0.289    27.452     7.782
    33   1 H        0.860     0.201     1.102     1.644
    34   1 H        0.861     0.183     1.196     1.713
    35   7 N        2.644    -0.303    27.813     7.833
    36   1 H        0.861     0.179     1.217     1.728
    37   1 H        0.860     0.244     0.905     1.491
    38   6 C        2.675     0.344    21.149     7.525
    39   8 O        0.860    -0.540    24.687     6.662
    40   7 N        2.645    -0.296    27.635     7.807
    41   1 H        0.860     0.194     1.135     1.669
    42   1 H        0.861     0.179     1.218     1.729
    43   7 N        2.644    -0.311    28.003     7.859
    44   1 H        0.861     0.170     1.270     1.765
    45   1 H        0.859     0.243     0.913     1.497
    46   6 C        2.675     0.342    21.192     7.533
    47   8 O        0.861    -0.525    24.341     6.615
    48   7 N        2.644    -0.303    27.813     7.833
    49   1 H        0.860     0.243     0.910     1.494
    50   1 H        0.861     0.179     1.218     1.729
    51   7 N        2.645    -0.289    27.452     7.782
    52   1 H        0.861     0.183     1.197     1.714
    53   1 H        0.860     0.202     1.098     1.642

 Mol. C6AA /au·bohr⁶  :      21815.495824
 Mol. C8AA /au·bohr⁸  :     454677.010137
 Mol. α(0) /au        :        220.663328


Wiberg/Mayer (AO) data.
largest (>0.10) Wiberg bond orders for each atom

 ---------------------------------------------------------------------------
     #   Z sym  total        # sym  WBO       # sym  WBO       # sym  WBO
 ---------------------------------------------------------------------------
     1   8 O    1.942 --     2 C    1.029    21 H    0.782
     2   6 C    3.969 --     1 O    1.029     5 C    0.989     3 H    0.967
                             4 H    0.961
     3   1 H    0.998 --     2 C    0.967
     4   1 H    0.998 --     2 C    0.961
     5   6 C    3.923 --     2 C    0.989     7 H    0.970     6 H    0.945
                             8 N    0.930
     6   1 H    0.982 --     5 C    0.945
     7   1 H    0.995 --     5 C    0.970
     8   7 N    3.821 --    17 C    0.965    13 C    0.957     9 C    0.951
                             5 C    0.930
     9   6 C    3.911 --    11 H    0.979    12 H    0.962    10 H    0.958
                             8 N    0.951
    10   1 H    0.984 --     9 C    0.958
    11   1 H    0.994 --     9 C    0.979
    12   1 H    0.986 --     9 C    0.962
    13   6 C    3.923 --    16 H    0.978    14 H    0.977     8 N    0.957
                            15 H    0.956
    14   1 H    0.992 --    13 C    0.977
    15   1 H    0.981 --    13 C    0.956
    16   1 H    0.993 --    13 C    0.978
    17   6 C    3.939 --    20 H    0.978    19 H    0.976    18 H    0.972
                             8 N    0.965
    18   1 H    0.989 --    17 C    0.972
    19   1 H    0.992 --    17 C    0.976
    20   1 H    0.993 --    17 C    0.978
    21   1 H    0.883 --     1 O    0.782
    22   6 C    3.960 --    23 O    1.431    24 N    1.267    27 N    1.254
    23   8 O    1.917 --    22 C    1.431    24 N    0.130    27 N    0.126
    24   7 N    3.351 --    22 C    1.267    25 H    0.935    26 H    0.886
                            23 O    0.130
    25   1 H    0.958 --    24 N    0.935
    26   1 H    0.946 --    24 N    0.886
    27   7 N    3.341 --    22 C    1.254    29 H    0.945    28 H    0.884
                            23 O    0.126
    28   1 H    0.946 --    27 N    0.884
    29   1 H    0.964 --    27 N    0.945
    30   6 C    3.960 --    31 O    1.474    35 N    1.265    32 N    1.208
    31   8 O    1.913 --    30 C    1.474    35 N    0.143    32 N    0.126
    32   7 N    3.321 --    30 C    1.208    34 H    0.948    33 H    0.943
                            31 O    0.126
    33   1 H    0.959 --    32 N    0.943
    34   1 H    0.966 --    32 N    0.948
    35   7 N    3.352 --    30 C    1.265    36 H    0.948    37 H    0.869
                            31 O    0.143
    36   1 H    0.968 --    35 N    0.948
    37   1 H    0.940 --    35 N    0.869
    38   6 C    3.959 --    39 O    1.510    43 N    1.247    40 N    1.193
    39   8 O    1.879 --    38 C    1.510    43 N    0.147    40 N    0.134
    40   7 N    3.307 --    38 C    1.193    42 H    0.949    41 H    0.945
                            39 O    0.134
    41   1 H    0.962 --    40 N    0.945
    42   1 H    0.968 --    40 N    0.949
    43   7 N    3.332 --    38 C    1.247    44 H    0.951    45 H    0.869
                            39 O    0.147
    44   1 H    0.971 --    43 N    0.951
    45   1 H    0.941 --    43 N    0.869
    46   6 C    3.960 --    47 O    1.476    48 N    1.263    51 N    1.208
    47   8 O    1.916 --    46 C    1.476    48 N    0.143    51 N    0.126
    48   7 N    3.351 --    46 C    1.263    50 H    0.948    49 H    0.871
                            47 O    0.143
    49   1 H    0.941 --    48 N    0.871
    50   1 H    0.968 --    48 N    0.948
    51   7 N    3.321 --    46 C    1.208    52 H    0.948    53 H    0.942
                            47 O    0.126
    52   1 H    0.966 --    51 N    0.948
    53   1 H    0.959 --    51 N    0.942
 ---------------------------------------------------------------------------

Topologies differ in total number of bonds
Writing topology from bond orders to xtbtopo.mol

molecular dipole:
                 x           y           z       tot (Debye)
 q only:        0.357      -2.573       0.199
   full:        0.232      -1.741      -0.147       4.480
molecular quadrupole (traceless):
                xx          xy          yy          xz          yz          zz
 q only:      -28.370     -16.523      74.445     -10.517      -1.031     -46.075
  q+dip:      -28.722     -16.890      77.582     -15.007       1.041     -48.860
   full:      -28.582     -16.671      77.911     -14.334       1.718     -49.329

           -------------------------------------------------
          |               Frequency Printout                |
           -------------------------------------------------
 projected vibrational frequencies (cm⁻¹)
eigval :       -0.00    -0.00     0.00     0.00     0.00     0.00
eigval :        8.86    10.85    19.73    22.68    31.44    33.82
eigval :       43.16    45.29    48.28    61.60    62.74    69.92
eigval :       71.34    89.63    96.92   106.22   118.91   124.87
eigval :      125.42   138.01   159.76   171.05   185.41   195.75
eigval :      205.60   250.84   252.17   257.70   274.64   279.70
eigval :      307.00   312.28   333.69   348.97   366.04   368.75
eigval :      386.65   403.91   424.94   441.29   455.36   458.37
eigval :      466.24   471.98   478.10   480.60   486.46   489.33
eigval :      491.00   545.55   548.72   550.23   552.26   568.68
eigval :      588.93   619.62   636.95   669.49   675.93   682.41
eigval :      695.75   728.35   755.11   763.86   773.14   888.59
eigval :      896.82   923.79   963.68   966.08   971.15   989.25
eigval :      996.40  1007.14  1015.55  1015.62  1019.85  1021.57
eigval :     1029.46  1033.45  1039.68  1083.22  1085.11  1087.48
eigval :     1092.13  1096.30  1101.01  1131.78  1171.09  1226.83
eigval :     1248.27  1268.20  1306.25  1335.33  1344.53  1352.22
eigval :     1367.67  1374.80  1379.45  1399.71  1408.85  1410.10
eigval :     1424.40  1433.09  1438.61  1441.63  1442.44  1453.92
eigval :     1456.42  1458.96  1465.87  1468.62  1471.55  1478.35
eigval :     1493.62  1505.57  1511.26  1513.89  1531.22  1636.79
eigval :     1667.75  1693.53  1708.18  2890.62  2904.21  2955.16
eigval :     2970.91  2997.24  3028.67  3035.83  3037.21  3040.28
eigval :     3043.22  3044.74  3047.72  3051.29  3056.13  3190.36
eigval :     3197.15  3230.61  3304.57  3327.76  3497.34  3498.36
eigval :     3498.45  3509.12  3527.21  3536.55  3539.41  3539.89
eigval :     3563.26  3564.14  3564.99
 reduced masses (amu)
   1: 12.59   2: 12.00   3: 12.24   4: 12.34   5: 12.68   6: 12.71   7: 11.59   8: 12.29
   9: 12.20  10: 12.45  11: 12.24  12: 12.25  13: 12.01  14: 12.89  15: 12.75  16: 12.07
  17: 12.44  18: 11.79  19: 12.88  20: 12.71  21: 13.29  22: 12.08  23: 11.96  24: 12.64
  25: 13.14  26: 13.03  27: 12.88  28: 13.35  29: 12.52  30: 10.44  31: 12.35  32:  4.92
  33:  2.23  34:  2.27  35: 10.79  36:  2.70  37:  4.96  38:  7.84  39:  5.25  40:  3.96
  41:  4.23  42:  7.38  43:  3.43  44:  3.04  45:  8.83  46:  2.99  47:  8.13  48:  8.42
  49:  4.22  50:  6.27  51:  3.27  52:  2.59  53:  7.98  54:  7.56  55:  8.82  56:  3.48
  57: 11.47  58: 10.00  59: 11.83  60:  8.50  61: 11.76  62:  5.93  63:  3.10  64: 10.98
  65: 11.93  66: 10.23  67:  8.14  68:  2.30  69:  1.68  70:  9.27  71:  1.80  72:  2.12
  73:  6.69  74:  8.41  75:  4.80  76:  4.94  77:  4.88  78:  4.48  79:  7.37  80:  7.22
  81:  9.21  82:  9.35  83:  9.26  84:  7.97  85:  8.45  86:  3.08  87:  5.26  88:  9.10
  89:  9.49  90:  8.66  91:  6.40  92:  7.64  93:  5.03  94:  9.36  95:  3.33  96:  5.44
  97:  6.11  98:  7.99  99:  6.56 100:  3.25 101:  4.38 102:  4.66 103:  5.23 104:  4.40
 105:  4.34 106:  2.59 107:  2.66 108:  2.87 109:  2.26 110:  1.88 111:  3.53 112:  2.01
 113:  3.29 114:  1.67 115:  2.98 116:  1.87 117:  2.51 118:  2.19 119:  1.65 120:  1.59
 121:  1.66 122:  8.28 123:  9.51 124:  9.75 125: 10.49 126: 12.27 127: 12.32 128: 12.65
 129: 12.72 130:  1.77 131:  1.95 132:  1.68 133:  1.73 134:  1.77 135:  1.74 136:  1.57
 137:  1.96 138:  1.55 139:  1.81 140:  1.72 141:  1.60 142:  1.94 143:  1.67 144:  1.79
 145:  1.79 146:  1.78 147:  1.75 148:  1.77 149:  1.45 150:  1.45 151:  1.45 152:  1.92
 153:  1.90 154:  1.90 155:  1.91 156:  1.91 157:  2.18 158:  2.18 159:  2.18
 IR intensities (km·mol⁻¹)
   1:  0.56   2:  1.67   3:  0.28   4:  2.16   5:  2.58   6:  1.69   7:  0.72   8:  1.20
   9:  0.31  10:  1.04  11:  3.06  12:  3.02  13:  5.67  14:  0.31  15:  2.51  16:  0.09
  17:  4.00  18:  2.29  19:  6.58  20:  7.59  21:  2.31  22: 11.33  23: 11.91  24: 16.68
  25:  8.16  26: 14.36  27: 33.43  28: 12.85  29: 48.82  30:  1.69  31: 10.47  32:  1.93
  33:107.04  34: 88.71  35:  9.62  36:160.96  37:  5.07  38:  0.70  39:  5.33  40:  1.91
  41: 57.10  42:  0.44  43:158.72  44:524.67  45:  0.15  46: 56.85  47:  0.42  48: 24.76
  49: 11.08  50:  7.69  51:  1.77  52: 15.02  53: 30.30  54: 16.52  55: 39.54  56:232.14
  57:  1.20  58: 48.59  59: 35.85  60: 13.46  61: 54.88  62:135.26  63: 13.81  64: 20.82
  65: 42.97  66: 75.95  67: 46.83  68:170.68  69:269.01  70:  2.51  71:335.84  72:272.37
  73:  1.30  74:  0.91  75: 11.83  76:  0.03  77:  0.19  78:  6.75  79: 16.20  80: 26.04
  81:  6.53  82: 14.11  83:  0.86  84: 15.68  85:  6.25  86:  1.80  87: 19.88  88:  1.11
  89: 48.85  90:  3.51  91: 20.75  92:  5.52  93: 13.75  94: 48.63  95: 17.83  96:  3.31
  97:  1.50  98:  3.18  99:  6.10 100:  8.34 101:  8.08 102:196.24 103: 92.16 104:  3.96
 105: 40.17 106:  6.41 107: 13.94 108:112.90 109: 22.25 110: 11.62 111:  1.31 112:  4.86
 113: 11.50 114:  4.48 115:  2.06 116: 12.27 117:  4.85 118:  6.81 119: 18.49 120: 51.07
 121: 19.31 122:600.41 123:692.56 124: 84.30 125:657.14 126:****** 127: 23.32 128:******
 129:817.99 130:158.51 131:****** 132: 34.57 133: 64.29 134: 12.04 135:  2.94 136: 92.56
 137: 11.94 138:  6.49 139: 11.89 140: 17.38 141: 14.27 142:  6.06 143:  1.64 144:184.10
 145:****** 146:970.95 147:896.91 148:915.53 149: 16.99 150: 17.03 151: 17.39 152: 57.43
 153:  8.24 154: 24.82 155: 29.85 156:  5.69 157:  8.47 158: 12.53 159: 18.76
 Raman intensities (amu)
Molecule has no symmetry elements
It seems to be the C1 point group
   1:  0.00   2:  0.00   3:  0.00   4:  0.00   5:  0.00   6:  0.00   7:  0.00   8:  0.00
   9:  0.00  10:  0.00  11:  0.00  12:  0.00  13:  0.00  14:  0.00  15:  0.00  16:  0.00
  17:  0.00  18:  0.00  19:  0.00  20:  0.00  21:  0.00  22:  0.00  23:  0.00  24:  0.00
  25:  0.00  26:  0.00  27:  0.00  28:  0.00  29:  0.00  30:  0.00  31:  0.00  32:  0.00
  33:  0.00  34:  0.00  35:  0.00  36:  0.00  37:  0.00  38:  0.00  39:  0.00  40:  0.00
  41:  0.00  42:  0.00  43:  0.00  44:  0.00  45:  0.00  46:  0.00  47:  0.00  48:  0.00
  49:  0.00  50:  0.00  51:  0.00  52:  0.00  53:  0.00  54:  0.00  55:  0.00  56:  0.00
  57:  0.00  58:  0.00  59:  0.00  60:  0.00  61:  0.00  62:  0.00  63:  0.00  64:  0.00
  65:  0.00  66:  0.00  67:  0.00  68:  0.00  69:  0.00  70:  0.00  71:  0.00  72:  0.00
  73:  0.00  74:  0.00  75:  0.00  76:  0.00  77:  0.00  78:  0.00  79:  0.00  80:  0.00
  81:  0.00  82:  0.00  83:  0.00  84:  0.00  85:  0.00  86:  0.00  87:  0.00  88:  0.00
  89:  0.00  90:  0.00  91:  0.00  92:  0.00  93:  0.00  94:  0.00  95:  0.00  96:  0.00
  97:  0.00  98:  0.00  99:  0.00 100:  0.00 101:  0.00 102:  0.00 103:  0.00 104:  0.00
 105:  0.00 106:  0.00 107:  0.00 108:  0.00 109:  0.00 110:  0.00 111:  0.00 112:  0.00
 113:  0.00 114:  0.00 115:  0.00 116:  0.00 117:  0.00 118:  0.00 119:  0.00 120:  0.00
 121:  0.00 122:  0.00 123:  0.00 124:  0.00 125:  0.00 126:  0.00 127:  0.00 128:  0.00
 129:  0.00 130:  0.00 131:  0.00 132:  0.00 133:  0.00 134:  0.00 135:  0.00 136:  0.00
 137:  0.00 138:  0.00 139:  0.00 140:  0.00 141:  0.00 142:  0.00 143:  0.00 144:  0.00
 145:  0.00 146:  0.00 147:  0.00 148:  0.00 149:  0.00 150:  0.00 151:  0.00 152:  0.00
 153:  0.00 154:  0.00 155:  0.00 156:  0.00 157:  0.00 158:  0.00 159:  0.00
 output can be read by thermo (or use thermo option).
 writing <g98.out> molden fake output.
 recommended (thermochemical) frequency scaling factor: 1.0
           -------------------------------------------------
          |             Thermodynamic Functions             |
           -------------------------------------------------

c1  symmetry found (for desy threshold:  0.10E+00) used in thermo

          ...................................................
          :                      SETUP                      :
          :.................................................:
          :  # frequencies                         153      :
          :  # imaginary freq.                       0      :
          :  linear?                             false      :
          :  only rotor calc.                    false      :
          :  symmetry                               c1      :
          :  rotational number                       1      :
          :  scaling factor                  1.0000000      :
          :  rotor cutoff                   50.0000000 cm⁻¹ :
          :  imag. cutoff                  -20.0000000 cm⁻¹ :
          :.................................................:

    mode    ω/cm⁻¹     T·S(HO)/kcal·mol⁻¹    T·S(FR)/kcal·mol⁻¹   T·S(vib)
   ------------------------------------------------------------------------
       1      8.86    -2.46030 (  0.10%)    -1.56912 ( 99.90%)    -1.57000
       2     10.85    -2.34031 (  0.22%)    -1.50914 ( 99.78%)    -1.51098
       3     19.73    -1.98591 (  2.37%)    -1.33190 ( 97.63%)    -1.34740
       4     22.68    -1.90360 (  4.06%)    -1.29072 ( 95.94%)    -1.31560
       5     31.44    -1.71034 ( 13.52%)    -1.19397 ( 86.48%)    -1.26377
       6     33.82    -1.66710 ( 17.32%)    -1.17231 ( 82.68%)    -1.25798
       7     43.16    -1.52310 ( 35.70%)    -1.10011 ( 64.30%)    -1.25111
       8     45.29    -1.49467 ( 40.23%)    -1.08584 ( 59.77%)    -1.25032
       9     48.28    -1.45689 ( 46.51%)    -1.06687 ( 53.49%)    -1.24829
      10     61.60    -1.31341 ( 69.73%)    -0.99472 ( 30.27%)    -1.21696
      11     62.74    -1.30261 ( 71.26%)    -0.98927 ( 28.74%)    -1.21256
      12     69.92    -1.23895 ( 79.28%)    -0.95718 ( 20.72%)    -1.18055
      13     71.34    -1.22719 ( 80.56%)    -0.95124 ( 19.44%)    -1.17355
      14     89.63    -1.09368 ( 91.17%)    -0.88365 (  8.83%)    -1.07513
      15     96.92    -1.04812 ( 93.38%)    -0.86048 (  6.62%)    -1.03571
      16    106.22    -0.99488 ( 95.32%)    -0.83332 (  4.68%)    -0.98732
      17    118.91    -0.92961 ( 96.97%)    -0.79988 (  3.03%)    -0.92568
      18    124.87    -0.90148 ( 97.49%)    -0.78541 (  2.51%)    -0.89857
      19    125.42    -0.89894 ( 97.54%)    -0.78410 (  2.46%)    -0.89612
      20    138.01    -0.84415 ( 98.31%)    -0.75577 (  1.69%)    -0.84265
      21    159.76    -0.76106 ( 99.05%)    -0.71241 (  0.95%)    -0.76060
      22    171.05    -0.72268 ( 99.28%)    -0.69218 (  0.72%)    -0.72246
      23    185.41    -0.67778 ( 99.47%)    -0.66831 (  0.53%)    -0.67773
      24    195.75    -0.64779 ( 99.58%)    -0.65223 (  0.42%)    -0.64781
      25    205.60    -0.62087 ( 99.65%)    -0.63769 (  0.35%)    -0.62092
      26    250.84    -0.51421 ( 99.84%)    -0.57877 (  0.16%)    -0.51432
      27    252.17    -0.51144 ( 99.85%)    -0.57721 (  0.15%)    -0.51154
      28    257.70    -0.50008 ( 99.86%)    -0.57077 (  0.14%)    -0.50018
      29    274.64    -0.46715 ( 99.89%)    -0.55192 (  0.11%)    -0.46724
      30    279.70    -0.45781 ( 99.90%)    -0.54651 (  0.10%)    -0.45790
   ------------------------------------------------------------------------

   temp. (K)  partition function   enthalpy   heat capacity  entropy
                                   cal/mol     cal/K/mol   cal/K/mol   J/K/mol
 298.15  VIB  0.850E+17            19001.735    102.635    124.850
         ROT  0.182E+08              888.752      2.981     36.201
         INT  0.155E+25            19890.487    105.616    161.051
         TR   0.618E+28             1481.254      4.968     43.384
         TOT                       21371.7411   110.5843   204.4354   855.3577

       T/K    H(0)-H(T)+PV         H(T)/Eh          T*S/Eh         G(T)/Eh
   ------------------------------------------------------------------------
    298.15    0.340580E-01    0.473345E+00    0.971339E-01    0.376211E+00
   ------------------------------------------------------------------------

         :::::::::::::::::::::::::::::::::::::::::::::::::::::
         ::                  THERMODYNAMIC                  ::
         :::::::::::::::::::::::::::::::::::::::::::::::::::::
         :: total free energy         -80.558777550702 Eh   ::
         ::.................................................::
         :: total energy              -80.934988742823 Eh   ::
         :: zero point energy           0.439287006888 Eh   ::
         :: G(RRHO) w/o ZPVE           -0.063075814767 Eh   ::
         :: G(RRHO) contrib.            0.376211192120 Eh   ::
         :::::::::::::::::::::::::::::::::::::::::::::::::::::

           -------------------------------------------------
          | TOTAL ENERGY              -80.934988742823 Eh   |
          | TOTAL ENTHALPY            -80.461643698639 Eh   |
          | TOTAL FREE ENERGY         -80.558777550702 Eh   |
          | GRADIENT NORM               0.000132319872 Eh/α |
          | HOMO-LUMO GAP               5.997761277554 eV   |
           -------------------------------------------------

------------------------------------------------------------------------
 * finished run on 2024/01/10 at 18:26:38.180     
------------------------------------------------------------------------
 total:
 * wall-time:     0 d,  0 h,  0 min, 13.815 sec
 *  cpu-time:     0 d,  0 h,  0 min, 13.740 sec
 * ratio c/w:     0.995 speedup
 SCF:
 * wall-time:     0 d,  0 h,  0 min,  0.094 sec
 *  cpu-time:     0 d,  0 h,  0 min,  0.055 sec
 * ratio c/w:     0.582 speedup
 analytical hessian:
 * wall-time:     0 d,  0 h,  0 min, 13.694 sec
 *  cpu-time:     0 d,  0 h,  0 min, 13.659 sec
 * ratio c/w:     0.997 speedup

