 Entering Gaussian System
 *********************************************
 Gaussian 98:
 frequency output generated by the xtb code
 *********************************************
                         Standard orientation:
 --------------------------------------------------------------------
  Center     Atomic     Atomic              Coordinates (Angstroms)
  Number     Number      Type              X           Y           Z
 --------------------------------------------------------------------
    1          8             0       -0.268025   -1.270470   -0.385683
    2          6             0       -0.365415   -0.423112   -1.496726
    3          1             0        0.382695   -0.687902   -2.250842
    4          1             0       -1.351703   -0.614265   -1.930590
    5          6             0       -0.300781    1.069581   -1.118391
    6          1             0       -0.505739    1.140204   -0.046335
    7          1             0       -1.060748    1.624153   -1.670541
    8          7             0        0.984926    1.781307   -1.357815
    9          6             0        0.817153    3.145359   -0.823312
   10          1             0       -0.002872    3.632613   -1.347978
   11          1             0        1.730829    3.717026   -0.970861
   12          1             0        0.599750    3.084653    0.241766
   13          6             0        1.264420    1.872229   -2.798030
   14          1             0        1.412478    0.883870   -3.225393
   15          1             0        2.165081    2.460618   -2.962456
   16          1             0        0.420953    2.359062   -3.287377
   17          6             0        2.097592    1.139132   -0.644451
   18          1             0        2.234248    0.108044   -0.958884
   19          1             0        1.868610    1.157607    0.422725
   20          1             0        3.018477    1.689900   -0.823486
   21          1             0        0.676207   -1.447489   -0.161724
   22          6             0        2.674241   -2.971124    0.408111
   23          8             0        2.310340   -1.831615    0.092465
   24          7             0        1.939895   -3.780313    1.182035
   25          1             0        1.104717   -3.445028    1.660319
   26          1             0        2.299371   -4.672493    1.469827
   27          7             0        3.840757   -3.471951   -0.061767
   28          1             0        4.190598   -4.368530    0.221334
   29          1             0        4.428561   -2.885354   -0.625711
   30          6             0       -2.384908    4.017496   -3.469511
   31          8             0       -1.471793    3.352168   -2.998419
   32          7             0       -2.518402    4.220426   -4.800947
   33          1             0       -1.891080    3.749416   -5.427472
   34          1             0       -3.307526    4.700665   -5.192401
   35          7             0       -3.329932    4.596337   -2.690675
   36          1             0       -4.021164    5.219341   -3.065935
   37          1             0       -3.227172    4.549347   -1.692892
   38          6             0       -1.480643   -3.185844    2.559023
   39          8             0       -0.276900   -3.144055    2.810353
   40          7             0       -1.998928   -2.682776    1.424889
   41          1             0       -1.399633   -2.184278    0.776733
   42          1             0       -2.989589   -2.670931    1.266362
   43          7             0       -2.359767   -3.726594    3.440406
   44          1             0       -3.316024   -3.902272    3.190483
   45          1             0       -1.984236   -4.220294    4.231170
   46          6             0        0.254212    0.460459    2.597645
   47          8             0        0.404359    1.437549    1.868827
   48          7             0       -0.736290    0.417014    3.532918
   49          1             0       -1.181522    1.286109    3.772823
   50          1             0       -0.717828   -0.299170    4.237598
   51          7             0        1.034549   -0.638595    2.532683
   52          1             0        0.694725   -1.504448    2.932552
   53          1             0        1.634187   -0.751607    1.727004
 --------------------------------------------------------------------
     1 basis functions        1 primitive gaussians
     1 alpha electrons        1 beta electrons

 Harmonic frequencies (cm**-1), IR intensities (km*mol⁻¹),
 Raman scattering activities (A**4/amu), Raman depolarization ratios,
 reduced masses (AMU), force constants (mDyne/A) and normal coordinates:
                      1                      2                      3
                        a                      a                      a 
 Frequencies --     7.0424                15.6022                17.9828
 Red. masses --    11.2576                12.0529                11.7969
 Frc consts  --     0.0000                 0.0000                 0.0000
 IR Inten    --     0.0859                 1.0643                 0.3253
 Raman Activ --     0.0000                 0.0000                 0.0000
 Depolar     --     0.0000                 0.0000                 0.0000
 Atom AN      X      Y      Z        X      Y      Z        X      Y      Z
   1   8     0.01  -0.01  -0.00     0.08  -0.05  -0.13     0.04   0.07  -0.03
   2   6     0.00  -0.01   0.00     0.11  -0.03  -0.11     0.07   0.10   0.01
   3   1     0.00   0.00   0.00     0.04  -0.01  -0.02     0.03   0.04   0.01
   4   1     0.00  -0.00   0.00     0.04  -0.01  -0.04     0.03   0.04  -0.01
   5   6    -0.01  -0.01   0.01     0.10  -0.04  -0.08     0.07   0.09   0.07
   6   1    -0.01  -0.00   0.00     0.03  -0.01  -0.02     0.02   0.01   0.02
   7   1    -0.01  -0.00   0.00     0.03  -0.01  -0.02     0.02   0.03   0.02
   8   7    -0.02   0.01   0.02     0.11  -0.03  -0.08     0.07   0.11   0.13
   9   6    -0.04   0.00   0.02     0.09  -0.03  -0.05     0.05   0.09   0.15
  10   1    -0.01  -0.00   0.00     0.03  -0.01  -0.01     0.02   0.03   0.04
  11   1    -0.01   0.00   0.01     0.03  -0.01  -0.01     0.01   0.03   0.05
  12   1    -0.01  -0.00   0.01     0.03  -0.01  -0.02     0.01   0.02   0.04
  13   6    -0.01   0.01   0.02     0.10  -0.01  -0.07     0.10   0.14   0.13
  14   1    -0.00   0.01   0.00     0.03   0.00  -0.02     0.04   0.05   0.03
  15   1    -0.01   0.01   0.01     0.03   0.00  -0.02     0.03   0.05   0.05
  16   1    -0.01   0.00   0.00     0.03  -0.00  -0.02     0.03   0.04   0.03
  17   6    -0.02   0.02   0.02     0.10  -0.03  -0.08     0.06   0.09   0.12
  18   1    -0.00   0.01   0.00     0.03  -0.01  -0.02     0.02   0.03   0.03
  19   1    -0.01   0.00   0.01     0.03  -0.01  -0.02     0.01   0.02   0.03
  20   1    -0.01   0.01   0.01     0.03  -0.01  -0.02     0.02   0.03   0.04
  21   1     0.00  -0.00   0.00     0.02  -0.01  -0.02     0.01   0.01  -0.00
  22   6     0.02   0.02   0.01     0.03   0.00   0.12    -0.05  -0.03  -0.12
  23   8     0.02   0.02   0.01     0.06  -0.00   0.07     0.02   0.02  -0.05
  24   7     0.03   0.01  -0.00    -0.03   0.02   0.08    -0.12  -0.04  -0.20
  25   1     0.00  -0.00  -0.00    -0.02   0.01   0.00    -0.02  -0.01  -0.05
  26   1     0.01   0.00  -0.00    -0.01   0.01   0.04    -0.05  -0.02  -0.07
  27   7     0.04   0.04   0.02     0.07  -0.00   0.24    -0.10  -0.08  -0.18
  28   1     0.01   0.01   0.00     0.01  -0.00   0.07    -0.04  -0.03  -0.06
  29   1     0.01   0.01   0.01     0.03  -0.01   0.07    -0.01  -0.02  -0.03
  30   6     0.01   0.03  -0.01    -0.09  -0.09   0.20    -0.04  -0.19  -0.03
  31   8    -0.03   0.00   0.02     0.03  -0.05   0.04     0.05   0.00   0.07
  32   7    -0.29  -0.47  -0.06    -0.34  -0.08   0.24    -0.07  -0.42  -0.07
  33   1    -0.15  -0.23  -0.01    -0.11  -0.00   0.03     0.01  -0.10   0.00
  34   1    -0.07  -0.11  -0.01    -0.12  -0.03   0.10    -0.03  -0.15  -0.04
  35   7     0.36   0.57   0.00     0.00  -0.17   0.39    -0.15  -0.25  -0.13
  36   1     0.10   0.15  -0.02    -0.03  -0.05   0.14    -0.06  -0.10  -0.06
  37   1     0.15   0.24  -0.00     0.05  -0.05   0.10    -0.04  -0.02  -0.03
  38   6     0.01  -0.03  -0.02    -0.11   0.08  -0.12    -0.05   0.13  -0.04
  39   8     0.01  -0.03  -0.02    -0.14   0.08  -0.07    -0.04  -0.01  -0.11
  40   7     0.01  -0.03  -0.02    -0.04   0.05  -0.17    -0.05   0.20  -0.02
  41   1     0.00  -0.01  -0.00     0.00   0.00  -0.04    -0.01   0.04  -0.01
  42   1     0.00  -0.01  -0.01    -0.01   0.02  -0.06    -0.02   0.09   0.01
  43   7     0.01  -0.05  -0.03    -0.17   0.14  -0.15    -0.08   0.26   0.00
  44   1     0.00  -0.01  -0.01    -0.04   0.04  -0.05    -0.03   0.09   0.01
  45   1     0.00  -0.01  -0.01    -0.06   0.04  -0.03    -0.03   0.05  -0.01
  46   6    -0.02  -0.02   0.01     0.01   0.05  -0.07     0.05  -0.07   0.07
  47   8    -0.03  -0.01   0.02     0.07   0.04  -0.10     0.03  -0.04   0.12
  48   7    -0.04  -0.04  -0.01    -0.01   0.12  -0.09     0.06  -0.13   0.08
  49   1    -0.01  -0.01  -0.00     0.01   0.04  -0.03     0.01  -0.04   0.03
  50   1    -0.01  -0.01  -0.00    -0.02   0.04  -0.02     0.02  -0.04   0.01
  51   7    -0.01  -0.01   0.01    -0.04   0.03  -0.03     0.08  -0.06   0.03
  52   1    -0.00  -0.00  -0.00    -0.02   0.01  -0.01     0.02  -0.02  -0.00
  53   1    -0.00   0.00   0.00    -0.01  -0.00  -0.00     0.02  -0.01   0.00
                      4                      5                      6
                        a                      a                      a 
 Frequencies --    23.2042                30.4033                36.5672
 Red. masses --    12.2902                12.2106                12.4331
 Frc consts  --     0.0000                 0.0000                 0.0000
 IR Inten    --     4.8035                 1.0257                 0.1103
 Raman Activ --     0.0000                 0.0000                 0.0000
 Depolar     --     0.0000                 0.0000                 0.0000
 Atom AN      X      Y      Z        X      Y      Z        X      Y      Z
   1   8    -0.12   0.16   0.13    -0.00   0.14   0.15    -0.04  -0.00  -0.02
   2   6    -0.08   0.13   0.10     0.02   0.04   0.07    -0.05   0.01  -0.01
   3   1    -0.04   0.02   0.02     0.01  -0.01   0.03    -0.02   0.00  -0.01
   4   1    -0.03   0.05   0.04     0.01   0.01   0.02    -0.02   0.01   0.01
   5   6     0.03   0.13   0.07     0.03   0.07  -0.04    -0.01   0.01   0.01
   6   1     0.02   0.05   0.02    -0.01   0.04  -0.02     0.00   0.00   0.00
   7   1     0.01   0.05   0.03     0.03   0.01  -0.04    -0.00   0.01   0.01
   8   7     0.08   0.04   0.01     0.07   0.02  -0.00    -0.00  -0.02  -0.02
   9   6     0.17   0.07  -0.03     0.07   0.05  -0.09     0.04  -0.01  -0.01
  10   1     0.05   0.03  -0.01     0.03   0.01  -0.05     0.01   0.00   0.01
  11   1     0.06   0.00  -0.02     0.03   0.01  -0.02     0.01  -0.01  -0.01
  12   1     0.06   0.03  -0.01     0.00   0.03  -0.03     0.02  -0.01  -0.00
  13   6     0.03  -0.02  -0.00     0.16  -0.08   0.01    -0.03  -0.01  -0.02
  14   1    -0.01  -0.01   0.01     0.04  -0.03   0.02    -0.02  -0.00  -0.01
  15   1     0.02  -0.02  -0.01     0.05  -0.03   0.01    -0.01  -0.01  -0.01
  16   1     0.01  -0.00   0.00     0.06  -0.02  -0.02    -0.01   0.00  -0.00
  17   6     0.05  -0.00  -0.01     0.01   0.03   0.10     0.00  -0.04  -0.05
  18   1    -0.01  -0.01   0.01     0.01   0.00   0.04    -0.01  -0.01  -0.02
  19   1     0.03   0.01   0.00    -0.02   0.02   0.02     0.01  -0.01  -0.01
  20   1     0.02  -0.02  -0.02     0.01   0.00   0.04     0.00  -0.02  -0.02
  21   1    -0.03   0.02   0.02    -0.00   0.02   0.03    -0.01  -0.01  -0.02
  22   6    -0.09  -0.01  -0.01    -0.03  -0.02  -0.09     0.07   0.01   0.03
  23   8    -0.12  -0.02  -0.03    -0.00   0.01  -0.01    -0.02  -0.05  -0.09
  24   7    -0.03   0.03   0.08     0.01  -0.01  -0.05     0.08  -0.02   0.00
  25   1    -0.00   0.01   0.03     0.02   0.00   0.01     0.01  -0.02  -0.02
  26   1    -0.01   0.01   0.02    -0.01  -0.01  -0.03     0.04   0.01   0.03
  27   7    -0.13  -0.03  -0.08    -0.11  -0.07  -0.24     0.19   0.12   0.21
  28   1    -0.03  -0.00  -0.01    -0.03  -0.02  -0.07     0.06   0.04   0.06
  29   1    -0.04  -0.01  -0.04    -0.03  -0.02  -0.07     0.04   0.03   0.04
  30   6     0.00  -0.08  -0.01     0.07  -0.04   0.02    -0.01   0.00   0.00
  31   8     0.09   0.05   0.01     0.20  -0.01  -0.17    -0.01   0.03   0.04
  32   7    -0.06  -0.19  -0.02    -0.16   0.02   0.05     0.01  -0.03  -0.01
  33   1    -0.00  -0.04  -0.00    -0.06   0.03  -0.02     0.01  -0.01   0.00
  34   1    -0.03  -0.07  -0.01    -0.06   0.00   0.05     0.00  -0.01  -0.01
  35   7    -0.05  -0.14  -0.03     0.16  -0.14   0.20    -0.05  -0.00  -0.03
  36   1    -0.03  -0.06  -0.01     0.02  -0.04   0.09    -0.01  -0.00  -0.02
  37   1    -0.00  -0.01  -0.01     0.09  -0.05   0.05    -0.02   0.01  -0.01
  38   6    -0.02  -0.17  -0.06     0.08   0.01   0.11    -0.05   0.05   0.03
  39   8    -0.06   0.04   0.03     0.11   0.01   0.09    -0.03  -0.11  -0.08
  40   7    -0.04  -0.17  -0.06     0.04   0.10   0.18    -0.16   0.65   0.35
  41   1    -0.02  -0.00   0.01     0.00   0.04   0.05    -0.04   0.16   0.08
  42   1    -0.01  -0.10  -0.04     0.01   0.02   0.05    -0.04   0.14   0.08
  43   7     0.02  -0.48  -0.21     0.13  -0.09   0.10     0.02  -0.32  -0.13
  44   1     0.02  -0.16  -0.07     0.03  -0.02   0.03    -0.01  -0.02  -0.01
  45   1     0.01  -0.12  -0.05     0.05  -0.04   0.01     0.02  -0.16  -0.09
  46   6     0.08   0.16   0.03    -0.20  -0.00  -0.09     0.02  -0.06  -0.04
  47   8     0.22   0.18   0.06    -0.22   0.04  -0.04     0.07  -0.05  -0.01
  48   7     0.10   0.29   0.06    -0.37  -0.15  -0.27     0.01  -0.05  -0.05
  49   1     0.06   0.09   0.02    -0.13  -0.06  -0.08     0.01  -0.01  -0.00
  50   1     0.00   0.07   0.01    -0.10  -0.05  -0.08    -0.00  -0.02  -0.02
  51   7    -0.07   0.07  -0.01    -0.08   0.09  -0.00    -0.03  -0.10  -0.09
  52   1    -0.04   0.03  -0.01    -0.01   0.01  -0.01    -0.02  -0.03  -0.04
  53   1    -0.02   0.01  -0.00     0.01   0.04   0.02    -0.01  -0.02  -0.02
                      7                      8                      9
                        a                      a                      a 
 Frequencies --    43.9772                49.1008                52.5944
 Red. masses --    12.3702                12.7210                12.9413
 Frc consts  --     0.0000                 0.0000                 0.0000
 IR Inten    --     3.5868                 5.9200                 0.2375
 Raman Activ --     0.0000                 0.0000                 0.0000
 Depolar     --     0.0000                 0.0000                 0.0000
 Atom AN      X      Y      Z        X      Y      Z        X      Y      Z
   1   8     0.01   0.16   0.31    -0.21   0.09   0.05     0.11  -0.06   0.19
   2   6    -0.09   0.06   0.22    -0.16   0.07   0.04     0.10  -0.11   0.12
   3   1    -0.05  -0.00   0.04    -0.06   0.00   0.01     0.05  -0.03   0.05
   4   1    -0.04   0.02   0.10    -0.05   0.04   0.02     0.04  -0.05   0.02
   5   6    -0.01   0.09   0.11    -0.05   0.07   0.01     0.01  -0.09   0.07
   6   1     0.02   0.05   0.03    -0.02   0.03   0.00     0.00  -0.02   0.02
   7   1    -0.01   0.02   0.03    -0.00   0.03  -0.01    -0.01  -0.05   0.02
   8   7     0.01   0.01  -0.02    -0.00  -0.02   0.01    -0.04  -0.02   0.04
   9   6     0.12   0.04  -0.05     0.06   0.02  -0.08    -0.14   0.01  -0.07
  10   1     0.03   0.02   0.00     0.03   0.01  -0.04    -0.05  -0.03  -0.03
  11   1     0.04  -0.00  -0.05     0.03  -0.01  -0.02    -0.05   0.02  -0.03
  12   1     0.06   0.03  -0.01    -0.00   0.03  -0.02    -0.04   0.02  -0.02
  13   6    -0.11  -0.05  -0.05     0.06  -0.12   0.01    -0.03  -0.11   0.03
  14   1    -0.06  -0.02  -0.01     0.01  -0.04   0.02     0.03  -0.04   0.03
  15   1    -0.02  -0.04  -0.04     0.03  -0.05   0.01    -0.03  -0.01  -0.00
  16   1    -0.03  -0.00   0.00     0.03  -0.03  -0.02    -0.02  -0.07  -0.01
  17   6     0.03  -0.02  -0.09    -0.06  -0.04   0.08     0.01   0.12   0.09
  18   1    -0.01  -0.01  -0.03    -0.03  -0.02   0.04     0.02   0.03   0.05
  19   1     0.03  -0.00  -0.02    -0.03   0.01   0.02     0.00   0.06   0.03
  20   1     0.01  -0.02  -0.05    -0.01  -0.03   0.03    -0.01   0.05   0.01
  21   1     0.01   0.02   0.04    -0.05  -0.01  -0.01     0.03  -0.01   0.05
  22   6     0.04  -0.01   0.02     0.00   0.07  -0.06    -0.02   0.02  -0.08
  23   8     0.06  -0.03  -0.06    -0.17  -0.01  -0.20     0.14   0.11   0.05
  24   7    -0.07  -0.04  -0.11    -0.00  -0.04  -0.19    -0.23  -0.06  -0.36
  25   1    -0.03  -0.00  -0.04    -0.02  -0.03  -0.07    -0.05   0.00  -0.08
  26   1    -0.01   0.00   0.00     0.04   0.02  -0.00    -0.09  -0.03  -0.11
  27   7     0.15   0.04   0.25     0.22   0.31   0.24     0.01  -0.00   0.02
  28   1     0.02  -0.00   0.06     0.07   0.08   0.04    -0.04  -0.03  -0.03
  29   1     0.05   0.00   0.07     0.03   0.09   0.04     0.04   0.01   0.05
  30   6    -0.05   0.03   0.02     0.09  -0.02  -0.06    -0.00  -0.11  -0.01
  31   8    -0.07   0.08   0.14     0.22   0.02  -0.23    -0.19  -0.44  -0.11
  32   7     0.04  -0.05   0.00    -0.10   0.02  -0.03     0.07   0.13   0.02
  33   1     0.03  -0.02   0.02    -0.03   0.03  -0.04    -0.02   0.00  -0.01
  34   1     0.02  -0.02  -0.02    -0.05   0.00   0.03     0.04   0.09   0.02
  35   7    -0.13   0.04  -0.08     0.16  -0.14   0.10     0.16   0.04   0.07
  36   1    -0.03   0.01  -0.04     0.02  -0.04   0.06     0.07   0.06   0.04
  37   1    -0.05   0.03  -0.02     0.08  -0.05   0.02     0.03  -0.05   0.02
  38   6    -0.04  -0.01  -0.02    -0.02  -0.03  -0.02    -0.04   0.02  -0.08
  39   8    -0.04   0.02  -0.06     0.01  -0.08  -0.17    -0.03   0.07  -0.17
  40   7    -0.06  -0.18  -0.10    -0.11  -0.16  -0.04    -0.12   0.10  -0.02
  41   1    -0.02  -0.03  -0.02    -0.04  -0.04  -0.02    -0.04   0.03  -0.01
  42   1    -0.02  -0.02  -0.00    -0.04  -0.01   0.03    -0.03   0.01  -0.00
  43   7    -0.03   0.12   0.07     0.04   0.14   0.15     0.04  -0.09  -0.08
  44   1    -0.00   0.01   0.02     0.01   0.03   0.06     0.01  -0.03  -0.01
  45   1    -0.00   0.04   0.02     0.03   0.04   0.03     0.03  -0.03  -0.03
  46   6     0.07  -0.06  -0.11    -0.00  -0.03   0.07     0.05   0.11   0.07
  47   8     0.26   0.01   0.02    -0.12  -0.03   0.08     0.10   0.16   0.13
  48   7    -0.20  -0.20  -0.41     0.17  -0.04   0.25     0.02   0.10   0.03
  49   1    -0.07  -0.06  -0.11     0.05  -0.01   0.09     0.01   0.03   0.01
  50   1    -0.10  -0.07  -0.13     0.07  -0.02   0.06    -0.01   0.02   0.00
  51   7     0.13  -0.04  -0.00    -0.02  -0.05  -0.07     0.03   0.10   0.05
  52   1     0.01  -0.02  -0.04     0.01  -0.02  -0.02    -0.00   0.02  -0.01
  53   1     0.08   0.01   0.03    -0.04  -0.01  -0.04     0.02   0.04   0.02
                     10                     11                     12
                        a                      a                      a 
 Frequencies --    59.9953                61.8729                66.1851
 Red. masses --    12.9792                12.7778                13.0868
 Frc consts  --     0.0000                 0.0000                 0.0000
 IR Inten    --     1.2844                 0.4715                 4.0014
 Raman Activ --     0.0000                 0.0000                 0.0000
 Depolar     --     0.0000                 0.0000                 0.0000
 Atom AN      X      Y      Z        X      Y      Z        X      Y      Z
   1   8    -0.12  -0.12  -0.06    -0.07  -0.10  -0.17     0.02  -0.03  -0.10
   2   6    -0.05  -0.03  -0.00     0.04  -0.03  -0.12     0.05   0.01  -0.06
   3   1    -0.01  -0.01   0.00     0.03  -0.01  -0.02     0.02   0.02  -0.01
   4   1    -0.01   0.01  -0.01     0.02   0.00  -0.06     0.02   0.00  -0.03
   5   6     0.01  -0.05   0.09     0.06  -0.05  -0.05    -0.01   0.00  -0.01
   6   1     0.02  -0.03   0.03     0.02  -0.03  -0.01    -0.02  -0.01  -0.00
   7   1     0.00  -0.00   0.04     0.01  -0.00   0.00    -0.00  -0.00  -0.01
   8   7     0.01  -0.06   0.07     0.06  -0.04  -0.04    -0.02   0.05   0.09
   9   6     0.03  -0.06   0.06     0.08  -0.07   0.04    -0.10   0.03   0.10
  10   1     0.01  -0.02   0.02     0.02  -0.01   0.03    -0.02   0.01   0.02
  11   1     0.01  -0.02   0.02     0.02  -0.02   0.01    -0.03   0.02   0.05
  12   1     0.01  -0.01   0.02     0.03  -0.04   0.01    -0.05   0.00   0.03
  13   6    -0.01  -0.07   0.06     0.02   0.04  -0.04     0.05   0.10   0.10
  14   1     0.01  -0.02   0.02    -0.01   0.02  -0.03     0.04   0.03   0.02
  15   1    -0.01  -0.01   0.01     0.01   0.01  -0.01     0.01   0.04   0.05
  16   1    -0.01  -0.03   0.02     0.01   0.03   0.01     0.01   0.02   0.02
  17   6     0.03  -0.05   0.05     0.07  -0.08  -0.09    -0.03   0.07   0.12
  18   1    -0.01  -0.02   0.03     0.01  -0.02  -0.04    -0.01   0.02   0.05
  19   1     0.02   0.01   0.02     0.03  -0.04  -0.03    -0.01   0.04   0.03
  20   1     0.01  -0.03  -0.01     0.02  -0.02  -0.03    -0.01   0.02   0.03
  21   1    -0.03  -0.04  -0.02    -0.02  -0.00  -0.00     0.00  -0.05  -0.05
  22   6     0.08   0.03  -0.10    -0.09   0.05  -0.01    -0.03  -0.20  -0.03
  23   8    -0.10  -0.05  -0.23    -0.07   0.13   0.22    -0.01  -0.31  -0.33
  24   7     0.31   0.08   0.14    -0.27  -0.17  -0.40    -0.17  -0.13  -0.06
  25   1     0.06  -0.00   0.01    -0.05  -0.05  -0.06    -0.03   0.00  -0.02
  26   1     0.11   0.03   0.04    -0.06  -0.05  -0.12    -0.03   0.00   0.07
  27   7     0.07   0.10  -0.23     0.01   0.21   0.11     0.10  -0.24   0.35
  28   1     0.07   0.06  -0.03    -0.02   0.03  -0.04    -0.02  -0.08   0.09
  29   1    -0.02   0.03  -0.09     0.02   0.09   0.07     0.02  -0.12   0.03
  30   6     0.06  -0.11   0.13     0.03   0.01   0.09    -0.02   0.02   0.01
  31   8    -0.06  -0.22   0.27     0.06   0.14   0.24    -0.02   0.05   0.04
  32   7     0.25  -0.11   0.12     0.11  -0.13   0.07    -0.00  -0.01   0.00
  33   1     0.07  -0.06   0.05     0.06  -0.03   0.04     0.00  -0.00   0.01
  34   1     0.09  -0.02   0.01     0.03  -0.06  -0.01    -0.00  -0.01  -0.01
  35   7     0.05   0.01   0.03    -0.08   0.01  -0.03    -0.04   0.02  -0.02
  36   1     0.04   0.01  -0.02    -0.02  -0.02  -0.04    -0.01   0.00  -0.01
  37   1    -0.02  -0.00   0.01    -0.03   0.03  -0.01    -0.01   0.01  -0.00
  38   6    -0.04   0.04  -0.04     0.09  -0.07   0.09     0.09   0.04   0.04
  39   8    -0.02   0.01  -0.18     0.13  -0.10   0.02     0.09   0.21   0.12
  40   7    -0.13  -0.01  -0.03     0.04  -0.07   0.12     0.10  -0.04   0.01
  41   1    -0.05  -0.02  -0.03     0.00  -0.03   0.02     0.02  -0.00   0.00
  42   1    -0.04   0.01   0.02     0.01  -0.02   0.04     0.03  -0.06  -0.02
  43   7     0.02   0.17   0.10     0.15  -0.04   0.16     0.13  -0.06   0.00
  44   1    -0.00   0.04   0.05     0.03  -0.00   0.06     0.04  -0.04  -0.01
  45   1     0.02   0.05   0.02     0.05  -0.01   0.04     0.04   0.01   0.01
  46   6    -0.09   0.12  -0.06    -0.09   0.08  -0.04    -0.04   0.11  -0.09
  47   8     0.03   0.22   0.07    -0.03   0.03  -0.12    -0.13   0.23   0.02
  48   7    -0.14   0.12  -0.10    -0.12   0.22  -0.05     0.03  -0.03  -0.03
  49   1    -0.01   0.04  -0.00    -0.01   0.07  -0.03     0.00  -0.02   0.03
  50   1    -0.06   0.01  -0.05    -0.04   0.08   0.01     0.02  -0.04  -0.04
  51   7    -0.21   0.06  -0.18    -0.16   0.04   0.03    -0.03   0.14  -0.29
  52   1    -0.07   0.01  -0.07    -0.04   0.02   0.02     0.01   0.03  -0.09
  53   1    -0.04   0.03  -0.04    -0.04  -0.01   0.01    -0.01   0.06  -0.08
                     13                     14                     15
                        a                      a                      a 
 Frequencies --    78.6770                81.2754                85.9441
 Red. masses --    13.2397                13.0660                12.7458
 Frc consts  --     0.0000                 0.0000                 0.0000
 IR Inten    --     0.7777                 2.8638                16.5022
 Raman Activ --     0.0000                 0.0000                 0.0000
 Depolar     --     0.0000                 0.0000                 0.0000
 Atom AN      X      Y      Z        X      Y      Z        X      Y      Z
   1   8     0.20  -0.00   0.22    -0.08  -0.01  -0.15    -0.12  -0.23  -0.06
   2   6     0.04  -0.09   0.14     0.12   0.07  -0.09     0.12  -0.19  -0.06
   3   1    -0.00  -0.03   0.03     0.07   0.03   0.01     0.09  -0.04   0.03
   4   1     0.01  -0.05   0.06     0.06   0.03  -0.08     0.07  -0.06  -0.08
   5   6    -0.02  -0.05   0.03     0.07   0.05   0.02    -0.00  -0.19  -0.00
   6   1    -0.02   0.00   0.00     0.02  -0.01   0.01    -0.02  -0.07  -0.00
   7   1    -0.00  -0.03  -0.01     0.01   0.01   0.02    -0.01  -0.06  -0.00
   8   7    -0.03  -0.05   0.02     0.05   0.13   0.06    -0.06  -0.09   0.08
   9   6    -0.03  -0.04  -0.01    -0.03   0.08   0.12    -0.17  -0.11   0.12
  10   1    -0.01  -0.01  -0.01    -0.01   0.02   0.04    -0.05  -0.04   0.03
  11   1    -0.01  -0.01  -0.01    -0.02   0.04   0.04    -0.06  -0.02   0.05
  12   1    -0.01  -0.00  -0.00    -0.01   0.01   0.03    -0.06  -0.05   0.03
  13   6    -0.03  -0.07   0.02     0.04   0.20   0.06    -0.02  -0.00   0.08
  14   1    -0.03  -0.02   0.01     0.04   0.07   0.01    -0.00   0.01   0.01
  15   1     0.00  -0.04   0.00    -0.00   0.09   0.03    -0.01   0.00   0.04
  16   1     0.00  -0.00   0.01     0.00   0.04   0.02    -0.00   0.01   0.02
  17   6    -0.03  -0.03   0.04     0.07   0.13   0.03    -0.02  -0.02   0.07
  18   1     0.00  -0.01   0.01     0.02   0.04   0.01     0.00  -0.01   0.03
  19   1    -0.01  -0.01   0.01     0.03   0.04   0.01     0.00   0.01   0.02
  20   1    -0.01  -0.00   0.02     0.02   0.04  -0.00    -0.01   0.00   0.01
  21   1     0.05  -0.01   0.03    -0.03  -0.01  -0.01    -0.04  -0.04   0.03
  22   6     0.15  -0.15  -0.02    -0.03  -0.02   0.03    -0.03   0.04   0.00
  23   8     0.19  -0.14   0.06    -0.12  -0.04   0.07    -0.08   0.04   0.03
  24   7     0.15  -0.19  -0.06     0.04  -0.09   0.04     0.03   0.04   0.05
  25   1     0.04  -0.06  -0.02     0.01  -0.04   0.02     0.00   0.01   0.00
  26   1     0.03  -0.06  -0.04     0.03  -0.02   0.00     0.01   0.01   0.01
  27   7     0.13  -0.17  -0.09    -0.00   0.07   0.01    -0.05   0.08  -0.06
  28   1     0.04  -0.04  -0.02     0.01   0.02  -0.01     0.00   0.03  -0.01
  29   1     0.05  -0.03   0.00    -0.02   0.03  -0.00    -0.02   0.03  -0.02
  30   6    -0.06   0.14  -0.07    -0.06  -0.02  -0.12     0.05   0.10  -0.05
  31   8     0.07   0.34  -0.10    -0.12  -0.18  -0.27     0.23   0.34  -0.11
  32   7    -0.18   0.06  -0.08    -0.13   0.16  -0.10    -0.12   0.00  -0.06
  33   1    -0.03   0.04  -0.03    -0.07   0.03  -0.05    -0.01   0.04  -0.02
  34   1    -0.07  -0.02  -0.02    -0.04   0.06   0.00    -0.06  -0.03  -0.00
  35   7    -0.14   0.02  -0.06     0.05   0.01  -0.00    -0.03  -0.07  -0.01
  36   1    -0.05  -0.01  -0.02     0.02   0.03   0.03    -0.03  -0.04   0.01
  37   1    -0.01   0.04  -0.02     0.03  -0.03  -0.00     0.03   0.02  -0.00
  38   6    -0.00  -0.02  -0.06    -0.03  -0.11   0.13    -0.06   0.04  -0.03
  39   8     0.03  -0.22  -0.17    -0.02  -0.27   0.12    -0.05   0.24  -0.16
  40   7    -0.00   0.05  -0.03     0.00  -0.11   0.13    -0.26  -0.03   0.03
  41   1     0.01  -0.00  -0.01     0.00  -0.04   0.03    -0.09  -0.01  -0.02
  42   1    -0.00   0.07   0.02    -0.00   0.00   0.04    -0.07  -0.07   0.02
  43   7    -0.03   0.14   0.02    -0.08   0.03   0.19     0.11  -0.10   0.07
  44   1    -0.02   0.07   0.02    -0.03   0.03   0.05     0.03  -0.06   0.05
  45   1    -0.01   0.01  -0.01    -0.03   0.00   0.05     0.07  -0.00   0.01
  46   6    -0.09   0.11   0.05     0.08  -0.03  -0.05     0.13   0.04   0.01
  47   8     0.04   0.11   0.06     0.40   0.04   0.10     0.21   0.10   0.10
  48   7    -0.06   0.28   0.10    -0.04   0.05  -0.18    -0.02  -0.08  -0.17
  49   1     0.03   0.10   0.03     0.04   0.04  -0.02    -0.03  -0.03  -0.05
  50   1    -0.03   0.08   0.03    -0.06  -0.00  -0.06    -0.03  -0.03  -0.06
  51   7    -0.29  -0.02  -0.02    -0.16  -0.19  -0.14     0.23   0.10   0.09
  52   1    -0.09  -0.00  -0.01    -0.07  -0.04  -0.05     0.04   0.02  -0.01
  53   1    -0.06  -0.01   0.01    -0.02  -0.05  -0.02     0.08   0.04   0.04
                     16                     17                     18
                        a                      a                      a 
 Frequencies --    96.0391                99.5056               113.2435
 Red. masses --    11.1658                13.3049                12.1438
 Frc consts  --     0.0000                 0.0000                 0.0000
 IR Inten    --     6.2500                 7.2378                 6.8270
 Raman Activ --     0.0000                 0.0000                 0.0000
 Depolar     --     0.0000                 0.0000                 0.0000
 Atom AN      X      Y      Z        X      Y      Z        X      Y      Z
   1   8    -0.01   0.03   0.16    -0.17   0.11   0.01    -0.01   0.19   0.20
   2   6     0.31  -0.09   0.02     0.06   0.07  -0.03     0.07   0.00   0.04
   3   1     0.16  -0.04   0.08     0.05   0.00   0.03     0.06  -0.01   0.05
   4   1     0.13  -0.04  -0.08     0.03   0.03  -0.05     0.04  -0.04  -0.02
   5   6     0.20  -0.06  -0.07     0.07   0.07  -0.05    -0.12   0.04  -0.11
   6   1     0.05  -0.01  -0.02     0.01   0.02  -0.02    -0.06   0.03  -0.04
   7   1     0.04  -0.04  -0.03     0.03   0.03  -0.02    -0.04  -0.02  -0.06
   8   7     0.15   0.04  -0.09     0.11   0.02   0.00    -0.18   0.15  -0.07
   9   6    -0.01   0.08  -0.22     0.14   0.03  -0.01    -0.24   0.09   0.04
  10   1    -0.01  -0.01  -0.09     0.05   0.01  -0.01    -0.08   0.02   0.03
  11   1    -0.02   0.04  -0.07     0.05   0.00   0.00    -0.08   0.05   0.01
  12   1    -0.01   0.05  -0.07     0.03   0.01  -0.00    -0.06  -0.00   0.01
  13   6     0.18  -0.06  -0.08     0.14   0.02   0.01    -0.16   0.25  -0.06
  14   1     0.07  -0.03  -0.00     0.04   0.01   0.00    -0.06   0.08  -0.04
  15   1     0.04  -0.01  -0.03     0.04   0.00   0.01    -0.04   0.07  -0.00
  16   1     0.05  -0.04  -0.04     0.04   0.01  -0.00    -0.04   0.09  -0.00
  17   6     0.16   0.21   0.04     0.05  -0.04   0.04    -0.13   0.15  -0.12
  18   1     0.07   0.05   0.05    -0.00  -0.02   0.02    -0.02   0.05  -0.06
  19   1     0.03   0.09   0.01     0.00  -0.00   0.01    -0.04   0.01  -0.03
  20   1     0.04   0.08   0.00     0.03  -0.03   0.02    -0.05   0.06  -0.02
  21   1    -0.01  -0.02   0.06    -0.06  -0.01   0.03    -0.01   0.02   0.05
  22   6     0.00   0.05  -0.04    -0.05  -0.17   0.11     0.02  -0.09   0.09
  23   8     0.02   0.04  -0.14    -0.25  -0.23   0.22    -0.01  -0.08   0.20
  24   7     0.00   0.13   0.03     0.11  -0.32   0.12     0.07  -0.16   0.07
  25   1    -0.01   0.03  -0.01     0.02  -0.11   0.04     0.01  -0.05   0.02
  26   1    -0.01   0.03   0.02     0.06  -0.08   0.02     0.02  -0.05  -0.01
  27   7    -0.01  -0.01  -0.01    -0.01   0.01   0.01    -0.00  -0.06  -0.01
  28   1    -0.01   0.00   0.02     0.04   0.01  -0.01     0.02  -0.01  -0.00
  29   1     0.00  -0.02  -0.01    -0.03   0.04   0.01     0.00   0.01   0.02
  30   6    -0.08   0.06   0.04    -0.14   0.01  -0.03     0.16  -0.08   0.07
  31   8    -0.12   0.11   0.15    -0.27  -0.13  -0.02     0.21  -0.05   0.09
  32   7     0.01   0.00   0.02    -0.05   0.10  -0.03     0.15  -0.15   0.08
  33   1     0.01  -0.02   0.03    -0.04  -0.01  -0.01     0.07  -0.00   0.02
  34   1     0.00  -0.02  -0.02    -0.01   0.03  -0.01     0.06  -0.01   0.02
  35   7    -0.15   0.11  -0.06    -0.11   0.12  -0.06     0.18  -0.11   0.10
  36   1    -0.03   0.03  -0.04    -0.00   0.06  -0.02     0.01  -0.07   0.03
  37   1    -0.06   0.05  -0.01    -0.05   0.02  -0.02     0.03  -0.06   0.03
  38   6    -0.14  -0.09   0.09     0.07   0.05  -0.13    -0.04  -0.03  -0.02
  39   8    -0.14  -0.05  -0.01     0.11   0.09  -0.31    -0.02  -0.06  -0.15
  40   7    -0.24  -0.14   0.11    -0.08   0.04  -0.07    -0.13  -0.04   0.01
  41   1    -0.08  -0.03   0.03    -0.05   0.02  -0.03    -0.05   0.00   0.00
  42   1    -0.07  -0.03   0.06    -0.03   0.01   0.02    -0.04   0.02   0.04
  43   7    -0.06  -0.10   0.18     0.22   0.04  -0.02     0.04  -0.01   0.07
  44   1    -0.02  -0.04   0.07     0.05   0.00   0.03     0.00  -0.00   0.04
  45   1     0.00  -0.02   0.04     0.09   0.01  -0.02     0.03  -0.01   0.00
  46   6    -0.04  -0.06  -0.04    -0.01   0.01   0.04     0.04  -0.00  -0.14
  47   8    -0.17  -0.08  -0.08    -0.12  -0.04  -0.06    -0.05  -0.06  -0.25
  48   7     0.11  -0.06   0.12    -0.03   0.00   0.02     0.13   0.07  -0.05
  49   1     0.03  -0.02   0.04    -0.04  -0.01  -0.03     0.04   0.02  -0.02
  50   1     0.06  -0.02   0.03     0.00   0.02   0.02     0.05   0.03   0.00
  51   7    -0.02  -0.05  -0.12     0.15   0.11   0.20     0.05   0.00  -0.12
  52   1     0.01  -0.01  -0.02     0.04   0.03   0.05     0.02   0.01  -0.02
  53   1    -0.02  -0.01  -0.05     0.02   0.02   0.04    -0.00  -0.02  -0.04
                     19                     20                     21
                        a                      a                      a 
 Frequencies --   117.3402               124.0350               137.6144
 Red. masses --    11.2028                12.4343                10.1070
 Frc consts  --     0.0000                 0.0000                 0.0000
 IR Inten    --    14.9522                 6.5587                 4.8328
 Raman Activ --     0.0000                 0.0000                 0.0000
 Depolar     --     0.0000                 0.0000                 0.0000
 Atom AN      X      Y      Z        X      Y      Z        X      Y      Z
   1   8     0.06   0.03   0.11     0.03  -0.12  -0.05     0.00  -0.20  -0.21
   2   6     0.03   0.00   0.07    -0.10   0.06   0.09     0.04   0.08   0.01
   3   1     0.00  -0.00   0.02    -0.07   0.03  -0.02     0.01   0.06  -0.01
   4   1     0.00   0.00   0.03    -0.05   0.05   0.07     0.01   0.06  -0.01
   5   6     0.05   0.00   0.05     0.04   0.02   0.21     0.12   0.02   0.30
   6   1     0.01   0.00   0.01     0.05  -0.01   0.07     0.14  -0.04   0.11
   7   1     0.02   0.00   0.01     0.00   0.03   0.10    -0.03   0.02   0.19
   8   7     0.08  -0.02   0.08     0.05  -0.03   0.09     0.00   0.12  -0.06
   9   6     0.19  -0.12   0.37     0.14  -0.01   0.05     0.03   0.14  -0.13
  10   1     0.05   0.01   0.16     0.05   0.01   0.01    -0.00   0.03  -0.03
  11   1     0.06  -0.04   0.11     0.05  -0.02   0.01     0.01   0.04  -0.07
  12   1     0.08  -0.09   0.11     0.04   0.01   0.02     0.03   0.06  -0.03
  13   6    -0.06   0.25   0.07    -0.07  -0.08   0.05    -0.34   0.03  -0.13
  14   1    -0.06   0.09  -0.04    -0.02  -0.03   0.02    -0.07   0.01  -0.03
  15   1    -0.01   0.05   0.03    -0.03  -0.01  -0.01    -0.14   0.06  -0.11
  16   1    -0.02   0.12   0.07    -0.04  -0.04   0.03    -0.16  -0.05   0.01
  17   6     0.11  -0.21  -0.16     0.09  -0.04   0.01     0.19   0.22  -0.23
  18   1     0.02  -0.04  -0.11     0.00  -0.02   0.02     0.03   0.05  -0.03
  19   1     0.06  -0.12  -0.04     0.06   0.01   0.01     0.13   0.10  -0.05
  20   1     0.03  -0.06  -0.04     0.03  -0.03  -0.04     0.04   0.06  -0.16
  21   1     0.02   0.00   0.01     0.01   0.00  -0.00     0.00  -0.04  -0.04
  22   6     0.07   0.04  -0.09     0.02   0.03   0.15    -0.00  -0.07   0.00
  23   8     0.16   0.04  -0.20     0.12   0.14   0.43    -0.00  -0.10  -0.06
  24   7    -0.00   0.15  -0.06    -0.01  -0.04   0.04     0.01  -0.03   0.05
  25   1    -0.00   0.06  -0.03     0.00  -0.02   0.02    -0.00  -0.01   0.00
  26   1    -0.02   0.04   0.01    -0.03  -0.04  -0.06     0.00  -0.00   0.03
  27   7     0.07  -0.07   0.00    -0.09  -0.01  -0.07     0.00  -0.11   0.05
  28   1    -0.01  -0.02   0.02    -0.01  -0.00  -0.02    -0.01  -0.03   0.03
  29   1     0.03  -0.04  -0.01     0.01   0.04   0.05     0.00  -0.05  -0.00
  30   6    -0.04  -0.03  -0.08    -0.03   0.02  -0.04     0.06  -0.01  -0.02
  31   8    -0.07  -0.12  -0.16    -0.02   0.02  -0.07     0.12   0.04  -0.06
  32   7    -0.07   0.09  -0.07    -0.06   0.05  -0.04    -0.01  -0.03  -0.01
  33   1    -0.05   0.00  -0.03    -0.03   0.01  -0.02     0.02   0.03  -0.01
  34   1    -0.03   0.02   0.00    -0.03   0.00  -0.00     0.01   0.01   0.00
  35   7     0.03  -0.01  -0.01    -0.02   0.01  -0.02     0.09  -0.05   0.03
  36   1     0.02   0.03   0.01     0.00   0.02  -0.00    -0.01  -0.05   0.02
  37   1     0.02  -0.01  -0.01     0.01   0.01  -0.01     0.02  -0.03   0.01
  38   6    -0.08  -0.01   0.04    -0.02   0.01  -0.02     0.01  -0.01  -0.02
  39   8    -0.07   0.12  -0.05    -0.02   0.06  -0.07     0.03   0.01  -0.09
  40   7    -0.19  -0.08   0.06    -0.08  -0.02  -0.01    -0.05  -0.00   0.01
  41   1    -0.07  -0.01   0.01    -0.03  -0.01  -0.01    -0.02  -0.02  -0.02
  42   1    -0.05  -0.04   0.03    -0.02  -0.01   0.00    -0.02  -0.02   0.01
  43   7     0.03  -0.07   0.12     0.04  -0.02   0.01     0.08  -0.01   0.04
  44   1     0.01  -0.05   0.05     0.00  -0.01   0.02     0.02  -0.00   0.03
  45   1     0.04  -0.00   0.03     0.02   0.01   0.01     0.04   0.00   0.01
  46   6    -0.08  -0.00  -0.04    -0.00   0.00  -0.17    -0.09  -0.01   0.14
  47   8    -0.18  -0.13  -0.23    -0.19   0.15  -0.05    -0.10  -0.03   0.13
  48   7    -0.01   0.12   0.03     0.18  -0.20  -0.00    -0.15  -0.04   0.10
  49   1    -0.02   0.04  -0.03     0.05  -0.07   0.07    -0.05  -0.01   0.02
  50   1     0.01   0.06   0.04     0.09  -0.09  -0.04    -0.04  -0.01   0.03
  51   7    -0.02   0.03   0.10    -0.01   0.03  -0.51    -0.05   0.02   0.19
  52   1     0.00   0.01   0.05     0.03   0.00  -0.12    -0.01  -0.00   0.04
  53   1    -0.02  -0.01   0.02    -0.02   0.02  -0.15    -0.01   0.01   0.05
                     22                     23                     24
                        a                      a                      a 
 Frequencies --   145.0736               153.5952               159.2152
 Red. masses --    11.8409                11.6717                12.0066
 Frc consts  --     0.0000                 0.0000                 0.0000
 IR Inten    --    10.5999                13.2424                34.7531
 Raman Activ --     0.0000                 0.0000                 0.0000
 Depolar     --     0.0000                 0.0000                 0.0000
 Atom AN      X      Y      Z        X      Y      Z        X      Y      Z
   1   8    -0.09  -0.04   0.33    -0.03  -0.15  -0.11     0.03   0.02   0.03
   2   6     0.20  -0.15   0.18    -0.13   0.07   0.07    -0.01  -0.01   0.01
   3   1     0.12  -0.06   0.12    -0.08   0.04  -0.02    -0.01  -0.01  -0.00
   4   1     0.10  -0.06  -0.03    -0.06   0.05   0.05    -0.01  -0.01   0.01
   5   6     0.10  -0.14   0.14    -0.01   0.02   0.23    -0.02  -0.01  -0.02
   6   1     0.05  -0.04   0.05     0.03  -0.02   0.07    -0.01   0.00  -0.01
   7   1     0.01  -0.06   0.06    -0.01   0.03   0.10    -0.00  -0.01  -0.01
   8   7     0.03  -0.05   0.06    -0.02   0.02   0.18    -0.01  -0.01   0.01
   9   6    -0.02  -0.08   0.11    -0.10   0.09  -0.04    -0.03  -0.01   0.01
  10   1    -0.02  -0.03   0.05    -0.01   0.00  -0.06    -0.01  -0.01   0.00
  11   1    -0.02  -0.00   0.02    -0.03   0.03  -0.00    -0.01  -0.00   0.00
  12   1     0.01  -0.04   0.04    -0.06   0.07  -0.02    -0.01  -0.01   0.00
  13   6    -0.14   0.00   0.03     0.04  -0.17   0.17     0.02  -0.01   0.02
  14   1    -0.06   0.00  -0.01     0.08  -0.06   0.10     0.00  -0.00   0.01
  15   1    -0.05   0.00  -0.02    -0.02  -0.01   0.04     0.01  -0.01   0.01
  16   1    -0.06   0.00   0.04    -0.01  -0.12   0.01     0.01   0.00  -0.00
  17   6     0.15   0.02  -0.07     0.02   0.17   0.26    -0.02  -0.00   0.02
  18   1     0.04   0.00  -0.01     0.02   0.04   0.11     0.01   0.00  -0.00
  19   1     0.09   0.02  -0.01     0.00   0.08   0.07    -0.01  -0.01   0.00
  20   1     0.03   0.01  -0.07    -0.00   0.06   0.05    -0.01   0.01   0.02
  21   1    -0.03  -0.05   0.09    -0.00  -0.02  -0.04     0.01   0.01  -0.00
  22   6    -0.16   0.03  -0.03     0.02  -0.02  -0.03    -0.15   0.09   0.10
  23   8    -0.35  -0.03  -0.11     0.02  -0.03  -0.04    -0.00   0.12  -0.08
  24   7    -0.04  -0.03   0.02     0.02  -0.01  -0.03    -0.22   0.32   0.23
  25   1    -0.01  -0.02   0.03     0.01   0.00  -0.01    -0.09   0.09   0.02
  26   1     0.04   0.02   0.03     0.01   0.00   0.00    -0.10   0.07   0.06
  27   7    -0.08   0.24   0.02     0.05  -0.00   0.01    -0.25  -0.17   0.15
  28   1    -0.00   0.06  -0.04    -0.00  -0.02  -0.03    -0.07  -0.01   0.15
  29   1    -0.08   0.06  -0.05    -0.00  -0.01  -0.02    -0.01  -0.07   0.07
  30   6     0.01   0.01  -0.03     0.00   0.01   0.00     0.01  -0.01   0.01
  31   8     0.03   0.03  -0.05     0.02   0.04   0.00     0.01  -0.00   0.00
  32   7    -0.03   0.02  -0.02     0.01   0.04  -0.00     0.06   0.08   0.00
  33   1    -0.01   0.01  -0.01    -0.03  -0.04   0.00    -0.07  -0.10   0.00
  34   1    -0.02  -0.00   0.00    -0.04  -0.06   0.00    -0.08  -0.13   0.01
  35   7     0.01  -0.01  -0.00    -0.04  -0.03  -0.00    -0.05  -0.07   0.00
  36   1     0.00  -0.00   0.00     0.04   0.05   0.00     0.10   0.11   0.01
  37   1     0.01  -0.00  -0.00     0.03   0.05  -0.00     0.07   0.09  -0.00
  38   6     0.10   0.06  -0.06    -0.01   0.01   0.00     0.14  -0.06  -0.14
  39   8     0.09  -0.05   0.12    -0.01   0.03   0.02     0.22  -0.26  -0.37
  40   7     0.29   0.12  -0.11    -0.01   0.01   0.00     0.03   0.04  -0.03
  41   1     0.09   0.04  -0.01    -0.00  -0.01  -0.01    -0.00  -0.00  -0.03
  42   1     0.08   0.05  -0.05     0.00  -0.02  -0.01    -0.00   0.06   0.04
  43   7    -0.06   0.10  -0.22    -0.02  -0.00  -0.01     0.28   0.07   0.05
  44   1    -0.01   0.05  -0.10    -0.00  -0.01  -0.01     0.05   0.06   0.08
  45   1    -0.06   0.01  -0.05    -0.01   0.00   0.00     0.11   0.00  -0.01
  46   6    -0.02  -0.01  -0.07     0.04  -0.06  -0.17    -0.00  -0.04  -0.01
  47   8    -0.08  -0.03  -0.12     0.01  -0.27  -0.49     0.08  -0.04   0.01
  48   7     0.05   0.00  -0.01     0.07   0.26  -0.16    -0.02   0.03  -0.02
  49   1     0.01  -0.00  -0.00     0.01   0.09  -0.13     0.02   0.02  -0.00
  50   1     0.02   0.00  -0.00    -0.00   0.12   0.01    -0.01   0.02   0.00
  51   7    -0.02  -0.01  -0.11     0.07  -0.06   0.10    -0.09  -0.09  -0.05
  52   1     0.01  -0.00  -0.02     0.02   0.01   0.07    -0.02  -0.02   0.00
  53   1    -0.02   0.00  -0.04    -0.00  -0.07   0.02    -0.02  -0.03  -0.01
                     25                     26                     27
                        a                      a                      a 
 Frequencies --   161.0266               180.3759               213.3929
 Red. masses --     4.5916                13.3146                 2.5792
 Frc consts  --     0.0000                 0.0000                 0.0000
 IR Inten    --    12.1294                12.6455               170.4612
 Raman Activ --     0.0000                 0.0000                 0.0000
 Depolar     --     0.0000                 0.0000                 0.0000
 Atom AN      X      Y      Z        X      Y      Z        X      Y      Z
   1   8     0.00   0.02  -0.00    -0.02   0.04   0.06     0.05  -0.00  -0.01
   2   6     0.02  -0.00  -0.01     0.03  -0.01   0.02    -0.00   0.00   0.00
   3   1     0.01   0.00   0.00     0.02  -0.01   0.02    -0.01   0.00  -0.01
   4   1     0.01  -0.01  -0.01     0.02  -0.01  -0.01    -0.00  -0.00   0.01
   5   6    -0.01   0.00  -0.02    -0.00   0.00  -0.02    -0.01   0.01  -0.01
   6   1     0.00   0.00  -0.01    -0.00   0.00  -0.01    -0.01   0.00  -0.00
   7   1    -0.01  -0.00  -0.00    -0.00  -0.01  -0.01    -0.00  -0.00  -0.01
   8   7    -0.02   0.02  -0.05    -0.01   0.01  -0.03    -0.01  -0.00  -0.01
   9   6    -0.01   0.01  -0.02    -0.02   0.01  -0.04     0.01  -0.00  -0.01
  10   1    -0.00   0.01   0.00    -0.01  -0.00  -0.01     0.00   0.00   0.00
  11   1    -0.00   0.00  -0.01    -0.01   0.01  -0.02     0.00  -0.00  -0.01
  12   1     0.00  -0.00  -0.00     0.01   0.01  -0.01     0.01  -0.00  -0.00
  13   6    -0.04   0.05  -0.05     0.00  -0.01  -0.03    -0.00  -0.00  -0.01
  14   1    -0.03   0.01  -0.02    -0.01  -0.00  -0.01    -0.01  -0.00  -0.01
  15   1    -0.01   0.01  -0.02     0.01  -0.01  -0.01     0.01  -0.01  -0.00
  16   1    -0.01   0.03  -0.01     0.01   0.01  -0.01     0.00   0.01  -0.00
  17   6    -0.01   0.01  -0.07    -0.02   0.02  -0.00    -0.02  -0.01  -0.00
  18   1    -0.01   0.00  -0.02     0.01   0.01  -0.02    -0.00  -0.00  -0.00
  19   1     0.00   0.00  -0.02    -0.03  -0.02  -0.00    -0.01  -0.01  -0.00
  20   1    -0.00   0.00  -0.02    -0.01   0.02   0.03    -0.00  -0.00   0.01
  21   1    -0.00   0.00   0.00    -0.01   0.01   0.03     0.01   0.02   0.01
  22   6     0.04  -0.04  -0.02     0.02   0.01   0.02    -0.02  -0.00  -0.02
  23   8    -0.01  -0.04   0.03     0.01   0.02   0.07     0.04   0.05   0.07
  24   7     0.07  -0.11  -0.07     0.00  -0.03  -0.03     0.00   0.01   0.03
  25   1     0.03  -0.03  -0.01     0.02   0.01   0.01     0.05   0.04   0.08
  26   1     0.03  -0.02  -0.02     0.01  -0.00   0.00     0.08   0.07   0.12
  27   7     0.07   0.05  -0.05     0.01   0.02  -0.02     0.10   0.12   0.26
  28   1     0.03   0.01  -0.04     0.00   0.00  -0.02    -0.33  -0.31  -0.59
  29   1     0.00   0.02  -0.02     0.00   0.01   0.00    -0.22  -0.21  -0.44
  30   6     0.03  -0.03   0.01     0.00  -0.00   0.00     0.00   0.00   0.00
  31   8     0.04  -0.01   0.01     0.00   0.00   0.01     0.00   0.00   0.00
  32   7     0.19   0.23   0.01     0.01  -0.00   0.00     0.00  -0.00   0.00
  33   1    -0.22  -0.32   0.01    -0.00  -0.01   0.00     0.00  -0.00   0.00
  34   1    -0.26  -0.42   0.02    -0.00  -0.01   0.00     0.00  -0.00  -0.00
  35   7    -0.15  -0.23   0.01    -0.00  -0.01   0.00    -0.00  -0.00  -0.00
  36   1     0.30   0.33   0.02     0.01   0.01   0.00     0.00   0.00  -0.00
  37   1     0.22   0.27  -0.00     0.00   0.01   0.00     0.00   0.00  -0.00
  38   6    -0.04   0.01   0.04     0.05   0.21  -0.02    -0.00  -0.01  -0.03
  39   8    -0.07   0.06   0.11     0.04   0.57   0.05     0.00  -0.04  -0.07
  40   7    -0.01  -0.02   0.01    -0.01   0.01  -0.07    -0.04  -0.00  -0.01
  41   1     0.00   0.00   0.01    -0.03   0.03  -0.02    -0.01  -0.00  -0.00
  42   1    -0.00  -0.01  -0.01    -0.00  -0.09  -0.04    -0.01   0.02   0.01
  43   7    -0.09  -0.02  -0.01     0.22  -0.02  -0.03     0.02   0.01   0.01
  44   1    -0.02  -0.02  -0.02     0.06  -0.06   0.01     0.00   0.00   0.01
  45   1    -0.04  -0.00   0.00     0.09   0.07   0.02     0.02  -0.00  -0.00
  46   6    -0.01   0.02   0.04    -0.06  -0.20   0.02     0.00  -0.00   0.00
  47   8    -0.03   0.05   0.07     0.17  -0.23   0.06     0.00   0.01   0.02
  48   7    -0.00  -0.05   0.03    -0.05   0.00   0.07    -0.00  -0.01   0.01
  49   1    -0.01  -0.02   0.02     0.08   0.04   0.05     0.01  -0.00   0.01
  50   1     0.00  -0.02  -0.00    -0.03   0.00   0.02     0.01  -0.00   0.00
  51   7     0.03   0.05   0.01    -0.37  -0.39  -0.10    -0.02  -0.01  -0.02
  52   1     0.01   0.01  -0.01    -0.14  -0.10  -0.04     0.00   0.00   0.00
  53   1     0.01   0.02   0.00    -0.09  -0.10  -0.01     0.01  -0.00   0.01
                     28                     29                     30
                        a                      a                      a 
 Frequencies --   260.8864               265.4664               276.7844
 Red. masses --     5.5779                 8.1969                 9.1230
 Frc consts  --     0.0000                 0.0000                 0.0000
 IR Inten    --     4.7384                 3.3734                 9.2801
 Raman Activ --     0.0000                 0.0000                 0.0000
 Depolar     --     0.0000                 0.0000                 0.0000
 Atom AN      X      Y      Z        X      Y      Z        X      Y      Z
   1   8     0.12   0.05   0.11    -0.51   0.16   0.05     0.51   0.05  -0.05
   2   6    -0.29  -0.06   0.06     0.11   0.05  -0.10     0.27   0.05  -0.01
   3   1    -0.21  -0.06  -0.10     0.16   0.01   0.11     0.10   0.08  -0.00
   4   1    -0.16   0.03   0.18     0.11  -0.01  -0.19     0.10  -0.05  -0.02
   5   6     0.07  -0.06  -0.08    -0.05   0.01   0.01    -0.09   0.06   0.04
   6   1     0.03  -0.01  -0.02    -0.00  -0.03   0.01    -0.03   0.00   0.01
   7   1     0.03   0.00  -0.02    -0.02   0.02   0.03    -0.04  -0.00   0.01
   8   7     0.09  -0.05  -0.08    -0.05  -0.03   0.02    -0.10   0.02   0.03
   9   6    -0.22  -0.13   0.07     0.05  -0.03   0.03     0.18   0.07  -0.03
  10   1    -0.03  -0.04  -0.04     0.10   0.05  -0.07     0.15   0.10  -0.09
  11   1    -0.07  -0.00   0.14     0.07  -0.07   0.13     0.12  -0.07   0.08
  12   1    -0.17  -0.09  -0.00    -0.11  -0.01  -0.02    -0.05   0.04  -0.03
  13   6     0.23   0.12  -0.04    -0.08  -0.06   0.01    -0.13  -0.05   0.01
  14   1     0.42   0.07   0.04     0.24   0.00   0.05     0.20  -0.00   0.06
  15   1    -0.12   0.33   0.02    -0.17   0.21  -0.02    -0.18   0.19  -0.02
  16   1    -0.05  -0.24  -0.08    -0.13  -0.24  -0.03    -0.14  -0.23  -0.03
  17   6     0.22   0.08  -0.18    -0.07  -0.10  -0.01    -0.24  -0.19   0.05
  18   1     0.04   0.01  -0.02    -0.12  -0.07   0.10    -0.15  -0.07   0.05
  19   1     0.13   0.06  -0.04     0.05   0.09   0.01    -0.06  -0.00   0.02
  20   1     0.05   0.02  -0.13     0.01  -0.13  -0.12    -0.03  -0.14  -0.01
  21   1     0.05   0.02  -0.04    -0.16   0.02   0.09     0.13  -0.00  -0.04
  22   6    -0.04  -0.01   0.01     0.14   0.03  -0.00    -0.11  -0.01  -0.00
  23   8    -0.07  -0.02   0.01     0.24   0.08   0.07    -0.17  -0.04  -0.06
  24   7    -0.00  -0.04   0.02     0.02   0.08  -0.06    -0.04  -0.02   0.04
  25   1    -0.00  -0.01   0.01     0.02   0.04  -0.01    -0.02  -0.02   0.00
  26   1     0.01  -0.00   0.01    -0.02   0.01  -0.02     0.01   0.00   0.02
  27   7    -0.02   0.05  -0.00     0.08  -0.18   0.02    -0.06   0.16  -0.02
  28   1     0.01   0.01  -0.02    -0.05  -0.08  -0.00     0.04   0.06  -0.00
  29   1    -0.02   0.02  -0.01     0.07  -0.09   0.01    -0.05   0.07  -0.01
  30   6     0.00   0.02   0.01     0.01   0.01   0.00     0.00   0.00   0.00
  31   8     0.01   0.03   0.01     0.01   0.02   0.00     0.00   0.01   0.01
  32   7    -0.01  -0.01   0.00    -0.00  -0.01   0.00     0.00  -0.01   0.00
  33   1     0.01   0.01   0.00     0.01   0.01   0.00     0.01   0.01   0.00
  34   1     0.00   0.01  -0.00     0.00   0.00  -0.00     0.00   0.00  -0.00
  35   7    -0.02  -0.00  -0.00    -0.01  -0.01  -0.00    -0.01  -0.00   0.00
  36   1     0.01   0.01  -0.00     0.01   0.02  -0.00     0.01   0.01   0.00
  37   1     0.00   0.02  -0.00     0.01   0.02  -0.00     0.00   0.01  -0.00
  38   6    -0.01   0.01   0.00     0.05   0.01  -0.01    -0.04  -0.01   0.02
  39   8    -0.01   0.03  -0.01     0.04  -0.03   0.04    -0.04   0.03  -0.02
  40   7    -0.02  -0.01  -0.01     0.07   0.01  -0.02    -0.06  -0.02   0.02
  41   1     0.00   0.01   0.01    -0.00   0.03  -0.00    -0.00  -0.02   0.01
  42   1    -0.01   0.02   0.01     0.01   0.03   0.02    -0.01  -0.02  -0.01
  43   7     0.01  -0.01   0.02    -0.03   0.05  -0.06     0.03  -0.05   0.06
  44   1     0.00  -0.01   0.01     0.01  -0.00  -0.06    -0.01   0.01   0.06
  45   1     0.01  -0.00   0.00    -0.02  -0.02  -0.03     0.02   0.02   0.03
  46   6    -0.01  -0.00   0.02     0.00  -0.00   0.01     0.01  -0.01  -0.02
  47   8     0.01   0.00   0.04     0.01  -0.01  -0.00     0.01  -0.02  -0.03
  48   7    -0.02  -0.03   0.02    -0.00   0.01   0.00     0.01   0.01  -0.02
  49   1     0.00  -0.01   0.02    -0.00   0.00  -0.00     0.01   0.01  -0.01
  50   1     0.00  -0.01   0.00    -0.00   0.01   0.00     0.01   0.01   0.00
  51   7    -0.01  -0.01   0.01    -0.02  -0.01  -0.00     0.01  -0.02  -0.01
  52   1    -0.01  -0.00  -0.01     0.01  -0.00   0.01    -0.01  -0.00  -0.01
  53   1    -0.01   0.00  -0.00     0.02   0.00   0.02    -0.01  -0.01  -0.01
                     31                     32                     33
                        a                      a                      a 
 Frequencies --   302.8775               322.3699               329.1604
 Red. masses --     2.3382                 4.1018                 8.1545
 Frc consts  --     0.0000                 0.0000                 0.0000
 IR Inten    --    54.5861               390.9407               115.3925
 Raman Activ --     0.0000                 0.0000                 0.0000
 Depolar     --     0.0000                 0.0000                 0.0000
 Atom AN      X      Y      Z        X      Y      Z        X      Y      Z
   1   8    -0.06  -0.01   0.04     0.02   0.16  -0.04     0.09   0.40  -0.08
   2   6    -0.01  -0.01   0.03     0.03   0.06  -0.08     0.05   0.13  -0.21
   3   1    -0.00  -0.01   0.01     0.02   0.02  -0.01     0.04   0.03  -0.04
   4   1    -0.00   0.00   0.00     0.02   0.01  -0.04     0.03   0.01  -0.08
   5   6    -0.00   0.01  -0.01    -0.01   0.02  -0.02    -0.03   0.03  -0.06
   6   1    -0.00   0.01  -0.00    -0.02  -0.01  -0.01    -0.04  -0.03  -0.02
   7   1     0.00  -0.00  -0.01     0.00   0.01  -0.01     0.02   0.04  -0.02
   8   7     0.00   0.01  -0.01     0.01  -0.03   0.03     0.02  -0.10   0.08
   9   6     0.00   0.01  -0.01    -0.02  -0.06   0.08    -0.08  -0.16   0.19
  10   1     0.01   0.01  -0.01    -0.09  -0.06   0.11    -0.10  -0.08   0.14
  11   1     0.00  -0.00   0.01    -0.05   0.03  -0.08    -0.08   0.02  -0.02
  12   1    -0.01   0.00  -0.00     0.11  -0.03   0.05     0.08  -0.09   0.07
  13   6     0.03   0.03  -0.01    -0.08  -0.15   0.01    -0.18  -0.36   0.03
  14   1     0.02   0.01  -0.01     0.01  -0.05   0.04    -0.01  -0.13   0.08
  15   1     0.01   0.02   0.01    -0.05  -0.01  -0.04    -0.09  -0.07  -0.07
  16   1     0.01   0.01  -0.01    -0.05  -0.10  -0.00    -0.09  -0.18   0.01
  17   6    -0.01  -0.00  -0.01     0.08   0.04   0.01     0.19   0.10   0.00
  18   1    -0.01  -0.00   0.00     0.12   0.05  -0.08     0.18   0.07  -0.08
  19   1     0.00   0.01  -0.00    -0.02  -0.09  -0.01     0.03  -0.08  -0.00
  20   1     0.00  -0.01  -0.01    -0.02   0.11   0.09    -0.01   0.16   0.07
  21   1    -0.02   0.01   0.03     0.01   0.03  -0.02     0.02   0.08  -0.04
  22   6     0.02   0.00  -0.00    -0.01  -0.00  -0.00    -0.01  -0.01   0.00
  23   8     0.03   0.00  -0.00    -0.01  -0.01  -0.00    -0.01  -0.01   0.00
  24   7     0.01  -0.00  -0.01     0.01  -0.01   0.00     0.01  -0.02   0.01
  25   1     0.01  -0.00   0.01     0.00  -0.01   0.00     0.00  -0.01   0.00
  26   1     0.01   0.00  -0.00     0.00  -0.00  -0.00     0.01  -0.00   0.00
  27   7     0.02  -0.01  -0.00    -0.00   0.00   0.00    -0.00   0.00   0.01
  28   1    -0.00  -0.01  -0.01     0.00   0.00   0.00    -0.00  -0.00  -0.00
  29   1     0.00  -0.01  -0.01    -0.00   0.00   0.00    -0.00   0.00  -0.00
  30   6    -0.00  -0.00   0.00     0.07   0.09   0.00    -0.03  -0.04  -0.00
  31   8    -0.00  -0.00   0.00     0.01   0.00  -0.02     0.01   0.01   0.01
  32   7     0.00   0.00   0.00    -0.13  -0.22   0.02     0.06   0.11  -0.01
  33   1    -0.00  -0.00   0.00     0.14   0.20  -0.01    -0.07  -0.09   0.00
  34   1    -0.00  -0.01  -0.00     0.25   0.40   0.01    -0.13  -0.21  -0.00
  35   7     0.00   0.00   0.00    -0.19  -0.20  -0.01     0.10   0.09   0.00
  36   1    -0.00  -0.00  -0.00     0.33   0.40   0.03    -0.17  -0.20  -0.02
  37   1    -0.00  -0.00   0.00     0.17   0.21  -0.01    -0.08  -0.10   0.00
  38   6    -0.02  -0.02  -0.00    -0.01  -0.00   0.00    -0.02  -0.00   0.01
  39   8    -0.01  -0.04   0.01    -0.01  -0.00  -0.00    -0.02   0.00  -0.00
  40   7    -0.01   0.11   0.07    -0.01  -0.00   0.00    -0.02  -0.02  -0.00
  41   1     0.02  -0.13  -0.08    -0.00  -0.00   0.00    -0.00   0.01   0.01
  42   1     0.04  -0.41  -0.24    -0.00  -0.01  -0.01    -0.01   0.01   0.00
  43   7     0.08  -0.20  -0.15     0.01  -0.02   0.01     0.02  -0.04   0.01
  44   1    -0.19   0.60   0.34    -0.01   0.03   0.02    -0.02   0.05   0.05
  45   1    -0.09   0.28   0.21    -0.00   0.01   0.01     0.00   0.02   0.02
  46   6    -0.00   0.00  -0.01    -0.01   0.01  -0.00    -0.00   0.01  -0.00
  47   8    -0.01   0.01   0.00    -0.01   0.01   0.00    -0.00   0.02   0.01
  48   7    -0.00  -0.01  -0.00     0.01  -0.00   0.01    -0.01  -0.01  -0.00
  49   1    -0.00  -0.00  -0.01    -0.01  -0.01  -0.00     0.01   0.00   0.01
  50   1     0.02   0.01   0.01    -0.01  -0.01  -0.01     0.02   0.01   0.01
  51   7     0.02   0.01   0.02     0.00   0.01   0.00     0.01   0.02  -0.00
  52   1    -0.02  -0.01  -0.03     0.00   0.00   0.00     0.00   0.00   0.00
  53   1     0.01   0.01   0.01    -0.01  -0.00  -0.00    -0.01  -0.00  -0.01
                     34                     35                     36
                        a                      a                      a 
 Frequencies --   332.7717               362.8321               374.6210
 Red. masses --     3.1039                 2.0198                 3.8391
 Frc consts  --     0.0000                 0.0000                 0.0000
 IR Inten    --    12.8452                 1.9542               307.1792
 Raman Activ --     0.0000                 0.0000                 0.0000
 Depolar     --     0.0000                 0.0000                 0.0000
 Atom AN      X      Y      Z        X      Y      Z        X      Y      Z
   1   8    -0.13  -0.19   0.03     0.05   0.04  -0.03     0.03   0.06   0.01
   2   6     0.02  -0.01   0.12     0.05   0.06  -0.00     0.02   0.04  -0.00
   3   1     0.03   0.02   0.05     0.03   0.04   0.00     0.01   0.01   0.00
   4   1     0.02   0.01  -0.00     0.02   0.01  -0.02     0.01   0.00  -0.00
   5   6     0.02   0.01   0.11    -0.03   0.04   0.03    -0.01   0.03  -0.01
   6   1     0.04   0.03   0.04    -0.00   0.02   0.01    -0.01   0.01  -0.00
   7   1    -0.02  -0.01   0.04    -0.01   0.00   0.00    -0.00   0.01  -0.01
   8   7    -0.01   0.03  -0.05    -0.02   0.00   0.04    -0.00  -0.00  -0.00
   9   6     0.07   0.06  -0.11    -0.12   0.01  -0.03    -0.04  -0.02   0.03
  10   1    -0.13  -0.06   0.12    -0.31  -0.17   0.25    -0.04  -0.02   0.03
  11   1    -0.06   0.08  -0.27    -0.19   0.16  -0.40    -0.03   0.01  -0.02
  12   1     0.26   0.05   0.02     0.36   0.04   0.07     0.02  -0.02   0.01
  13   6     0.08   0.12  -0.03     0.13   0.01   0.07     0.02  -0.04  -0.00
  14   1     0.28   0.06   0.02     0.09   0.01   0.03    -0.00  -0.02   0.01
  15   1    -0.11   0.24   0.02     0.02   0.03   0.05     0.01  -0.02  -0.00
  16   1    -0.07  -0.16  -0.04     0.04  -0.02  -0.01     0.01  -0.01  -0.01
  17   6    -0.14  -0.12   0.00    -0.05  -0.15  -0.05     0.01  -0.01  -0.03
  18   1     0.16   0.07  -0.27    -0.25  -0.13   0.18    -0.04  -0.02   0.03
  19   1    -0.23  -0.35  -0.03     0.16   0.20   0.02     0.04   0.05  -0.00
  20   1    -0.08   0.15   0.34     0.06  -0.26  -0.29     0.01  -0.04  -0.07
  21   1    -0.03  -0.04   0.03     0.01  -0.00  -0.00     0.01   0.04   0.02
  22   6     0.01   0.01  -0.01     0.00  -0.00   0.00     0.01   0.01   0.02
  23   8     0.01   0.01  -0.00     0.00  -0.00   0.00     0.00   0.00   0.01
  24   7     0.01   0.00  -0.01    -0.01   0.02   0.00    -0.03  -0.02  -0.03
  25   1     0.00   0.00   0.00    -0.01   0.01  -0.01     0.02   0.02   0.03
  26   1     0.00   0.00   0.00    -0.02  -0.00  -0.01     0.05   0.05   0.09
  27   7     0.01  -0.03   0.01     0.00   0.01  -0.01    -0.02  -0.00  -0.02
  28   1    -0.01  -0.01   0.00     0.00   0.00  -0.01     0.00   0.01   0.01
  29   1     0.01  -0.02   0.00    -0.00   0.01  -0.00    -0.00   0.00   0.00
  30   6    -0.00  -0.01  -0.00     0.01   0.00  -0.00    -0.00   0.00   0.00
  31   8     0.01   0.02   0.00     0.01   0.01  -0.00     0.00   0.00   0.00
  32   7     0.01   0.04  -0.00    -0.01   0.01  -0.00     0.00   0.00   0.00
  33   1    -0.02  -0.03  -0.00    -0.01   0.00  -0.00    -0.00  -0.00   0.00
  34   1    -0.05  -0.07   0.00    -0.01  -0.01   0.00    -0.01  -0.01  -0.00
  35   7     0.03   0.03  -0.00     0.01   0.00  -0.00     0.00   0.00  -0.00
  36   1    -0.06  -0.07  -0.01    -0.01  -0.01  -0.00    -0.00  -0.00  -0.00
  37   1    -0.03  -0.03   0.00    -0.00  -0.00  -0.00    -0.00  -0.00   0.00
  38   6     0.02  -0.01  -0.01    -0.01   0.02   0.01     0.00  -0.13  -0.08
  39   8     0.02  -0.02  -0.00    -0.00   0.01   0.01    -0.01  -0.06  -0.06
  40   7     0.01   0.02   0.01    -0.00  -0.03  -0.02     0.01   0.24   0.13
  41   1    -0.00  -0.01  -0.01    -0.00   0.02   0.01     0.02  -0.10  -0.07
  42   1     0.01  -0.04  -0.02    -0.01   0.07   0.04     0.06  -0.59  -0.34
  43   7    -0.02   0.03  -0.01     0.01  -0.03  -0.01    -0.06   0.21   0.16
  44   1     0.01  -0.03  -0.03    -0.01   0.04   0.02     0.10  -0.33  -0.14
  45   1    -0.01  -0.01  -0.02    -0.00   0.01   0.01     0.06  -0.07  -0.06
  46   6     0.00   0.02  -0.00    -0.01  -0.01  -0.01    -0.03  -0.00  -0.00
  47   8    -0.01   0.03   0.00    -0.01  -0.02  -0.01    -0.01  -0.01  -0.02
  48   7     0.02   0.00  -0.01    -0.02  -0.01   0.00     0.13   0.05   0.07
  49   1    -0.02  -0.01  -0.01     0.01   0.01   0.00    -0.10  -0.05  -0.02
  50   1    -0.02  -0.02  -0.02     0.04   0.03   0.03    -0.22  -0.17  -0.17
  51   7     0.01   0.02  -0.02    -0.00  -0.01   0.01    -0.01  -0.01   0.01
  52   1     0.01   0.01   0.01    -0.00  -0.00  -0.00    -0.00   0.00   0.01
  53   1     0.01  -0.00  -0.00    -0.00   0.01   0.00    -0.01  -0.00  -0.00
                     37                     38                     39
                        a                      a                      a 
 Frequencies --   381.0348               422.0122               437.7998
 Red. masses --     7.3653                 8.5813                 2.4153
 Frc consts  --     0.0000                 0.0000                 0.0000
 IR Inten    --     1.5144                10.8338                82.9186
 Raman Activ --     0.0000                 0.0000                 0.0000
 Depolar     --     0.0000                 0.0000                 0.0000
 Atom AN      X      Y      Z        X      Y      Z        X      Y      Z
   1   8    -0.03  -0.16   0.05     0.03   0.29   0.03    -0.00   0.04   0.01
   2   6    -0.13  -0.22  -0.02    -0.06   0.00  -0.16    -0.01   0.00  -0.01
   3   1    -0.08  -0.10  -0.04    -0.06  -0.04  -0.07    -0.00  -0.00  -0.01
   4   1    -0.07  -0.05   0.06    -0.05   0.03   0.02    -0.00   0.00   0.00
   5   6    -0.06  -0.07  -0.33     0.24  -0.13   0.08     0.02  -0.01   0.01
   6   1    -0.15   0.06  -0.13     0.17  -0.13   0.05     0.00  -0.01   0.00
   7   1     0.05  -0.05  -0.22     0.02   0.02   0.15     0.01   0.00   0.01
   8   7     0.02   0.01   0.00     0.19  -0.19  -0.04     0.03  -0.03   0.02
   9   6     0.38   0.03   0.09    -0.08  -0.17  -0.20    -0.01  -0.01  -0.04
  10   1     0.05   0.05   0.16    -0.05  -0.12  -0.08    -0.00  -0.02  -0.02
  11   1     0.11  -0.03  -0.12    -0.06   0.00  -0.08    -0.01   0.00  -0.02
  12   1     0.27   0.02   0.06    -0.02  -0.01  -0.06    -0.01   0.01  -0.01
  13   6    -0.22   0.08  -0.04    -0.21   0.28  -0.10    -0.03   0.03   0.01
  14   1     0.02   0.03  -0.01    -0.09   0.13  -0.16    -0.01   0.02  -0.01
  15   1    -0.14   0.12  -0.08    -0.09   0.12  -0.05    -0.01   0.02   0.00
  16   1    -0.14  -0.07   0.03    -0.12   0.12   0.12    -0.02   0.01   0.02
  17   6     0.04   0.29   0.24    -0.02  -0.14   0.36     0.02  -0.03   0.03
  18   1     0.02   0.04   0.21    -0.01  -0.06   0.18     0.01  -0.01   0.00
  19   1     0.00   0.22   0.07    -0.11   0.04   0.08    -0.00  -0.01   0.01
  20   1     0.01   0.07  -0.01     0.02  -0.07   0.16     0.00  -0.00   0.02
  21   1    -0.00  -0.02   0.01     0.01   0.04  -0.04    -0.00   0.01   0.01
  22   6     0.00  -0.00   0.00     0.01  -0.01   0.00     0.00   0.01   0.01
  23   8     0.00   0.00   0.01     0.01  -0.01   0.01     0.01   0.01  -0.00
  24   7    -0.00  -0.00  -0.00    -0.01   0.02   0.00    -0.01  -0.02  -0.02
  25   1     0.00   0.00   0.00    -0.00   0.01  -0.00     0.00  -0.00   0.00
  26   1     0.00   0.00   0.00    -0.01   0.00   0.00     0.06   0.05   0.08
  27   7    -0.00  -0.00  -0.00     0.01   0.01  -0.01    -0.02  -0.01  -0.02
  28   1     0.00   0.00   0.00     0.01   0.00  -0.01     0.00   0.01   0.01
  29   1    -0.00  -0.00  -0.00    -0.00   0.01  -0.00     0.00   0.00   0.01
  30   6     0.00   0.00  -0.00    -0.01   0.01  -0.02    -0.01   0.01  -0.00
  31   8     0.00   0.00   0.00    -0.02   0.02  -0.01    -0.01   0.01  -0.00
  32   7     0.01   0.00  -0.01     0.02  -0.01  -0.02     0.00  -0.01  -0.01
  33   1     0.00  -0.00   0.00     0.01  -0.01   0.01     0.02   0.01   0.00
  34   1    -0.01  -0.02  -0.00     0.01  -0.00  -0.02    -0.00  -0.02  -0.01
  35   7     0.01  -0.00   0.00     0.02  -0.02   0.03     0.00  -0.00   0.01
  36   1    -0.00  -0.01   0.00    -0.01  -0.00   0.03     0.02   0.03   0.01
  37   1     0.00  -0.01   0.00     0.03  -0.01   0.01    -0.01  -0.03   0.00
  38   6     0.01   0.00  -0.01    -0.01  -0.00   0.00    -0.01  -0.03  -0.01
  39   8     0.01   0.00  -0.00    -0.02   0.00  -0.00     0.00  -0.04  -0.03
  40   7     0.00   0.01   0.00     0.00  -0.00  -0.01     0.00   0.08   0.06
  41   1     0.00  -0.00  -0.00     0.01   0.01   0.01    -0.00  -0.01  -0.01
  42   1     0.00  -0.02  -0.01     0.00   0.01  -0.01     0.02  -0.21  -0.11
  43   7    -0.00   0.01  -0.00     0.01  -0.02   0.02    -0.05   0.07   0.04
  44   1     0.00  -0.01  -0.01    -0.01   0.02   0.03     0.05  -0.18  -0.09
  45   1    -0.00  -0.00  -0.00     0.01  -0.00   0.00     0.01   0.03   0.01
  46   6    -0.01  -0.01  -0.00     0.01  -0.03   0.00     0.04   0.00  -0.00
  47   8     0.00  -0.02  -0.00    -0.03  -0.01   0.01     0.02   0.04   0.06
  48   7     0.01   0.00   0.01     0.04   0.06  -0.01    -0.18  -0.15  -0.10
  49   1     0.00   0.00  -0.00    -0.03   0.00  -0.05     0.01   0.04  -0.16
  50   1    -0.00   0.00   0.00    -0.09  -0.03  -0.04     0.54   0.44   0.46
  51   7     0.00  -0.01   0.02     0.02  -0.01  -0.03     0.01  -0.02  -0.03
  52   1    -0.01  -0.01  -0.00     0.03   0.00   0.02    -0.10  -0.03  -0.14
  53   1    -0.00   0.00   0.00    -0.00  -0.01  -0.01     0.05   0.04   0.02
                     40                     41                     42
                        a                      a                      a 
 Frequencies --   444.7591               446.4995               456.1973
 Red. masses --     1.5339                 2.6299                 8.1358
 Frc consts  --     0.0000                 0.0000                 0.0000
 IR Inten    --     4.6971               191.2475                 9.5967
 Raman Activ --     0.0000                 0.0000                 0.0000
 Depolar     --     0.0000                 0.0000                 0.0000
 Atom AN      X      Y      Z        X      Y      Z        X      Y      Z
   1   8     0.00   0.01   0.00    -0.00  -0.00  -0.00     0.00   0.01   0.01
   2   6    -0.00  -0.00  -0.00     0.00   0.01   0.01    -0.00   0.01  -0.00
   3   1     0.00  -0.00  -0.00     0.00   0.01   0.00    -0.01  -0.00  -0.01
   4   1    -0.00  -0.00  -0.00     0.00   0.00   0.00    -0.01   0.01   0.01
   5   6    -0.00  -0.01   0.00     0.00   0.01  -0.00     0.06  -0.01   0.05
   6   1     0.01  -0.01   0.00     0.00   0.01   0.00     0.08  -0.03   0.03
   7   1    -0.01   0.00   0.01    -0.00   0.00   0.00    -0.02   0.00   0.08
   8   7    -0.01  -0.00  -0.01     0.00  -0.01  -0.02    -0.01   0.03  -0.13
   9   6     0.01  -0.01   0.01    -0.00  -0.02   0.01     0.01  -0.06   0.10
  10   1     0.00   0.00   0.01    -0.00  -0.00   0.01    -0.01   0.02   0.07
  11   1     0.00  -0.00   0.00    -0.00  -0.00   0.01     0.00  -0.01   0.05
  12   1     0.01  -0.01   0.00     0.00  -0.02   0.00     0.02  -0.08   0.03
  13   6     0.00   0.00  -0.01     0.00  -0.00  -0.02     0.03  -0.02  -0.14
  14   1     0.00   0.00  -0.00     0.00  -0.00  -0.01     0.00  -0.01  -0.02
  15   1    -0.00   0.00  -0.00    -0.00   0.00  -0.01     0.02  -0.02  -0.04
  16   1     0.00  -0.00  -0.01    -0.00  -0.00  -0.01     0.02  -0.00  -0.05
  17   6    -0.01   0.01   0.01    -0.01   0.01   0.01    -0.11   0.06   0.04
  18   1     0.00   0.00   0.01     0.00  -0.00   0.01    -0.03   0.01   0.05
  19   1    -0.01   0.01   0.00    -0.01   0.01   0.00    -0.07   0.06   0.00
  20   1    -0.00   0.00   0.00    -0.00   0.00   0.00    -0.02  -0.00   0.03
  21   1     0.00   0.00  -0.00     0.00   0.03   0.03     0.00  -0.00  -0.00
  22   6     0.00   0.00   0.01    -0.06  -0.05  -0.10    -0.00  -0.00   0.00
  23   8     0.00   0.00   0.00    -0.04  -0.02  -0.03     0.00  -0.00   0.00
  24   7    -0.01  -0.01  -0.01     0.13   0.12   0.18    -0.00  -0.00   0.00
  25   1     0.00   0.00  -0.00     0.00  -0.04   0.03    -0.00  -0.00  -0.00
  26   1     0.03   0.03   0.06    -0.39  -0.37  -0.70     0.00   0.01   0.01
  27   7    -0.01  -0.00  -0.01     0.08   0.05   0.15    -0.00   0.00  -0.00
  28   1    -0.00   0.00  -0.00     0.02   0.01   0.03     0.00   0.00  -0.00
  29   1     0.01   0.01   0.01    -0.09  -0.08  -0.17    -0.00   0.01   0.00
  30   6     0.05  -0.03   0.03     0.00  -0.00   0.00     0.21  -0.16   0.11
  31   8     0.05  -0.04   0.02     0.00  -0.00   0.00     0.23  -0.17   0.13
  32   7     0.03   0.11   0.05     0.00   0.01   0.00    -0.28   0.14   0.21
  33   1    -0.35  -0.35  -0.05    -0.02  -0.02  -0.00    -0.11   0.24  -0.12
  34   1     0.20   0.42   0.09     0.01   0.03   0.01    -0.20  -0.01   0.25
  35   7    -0.06  -0.09  -0.06    -0.00  -0.00  -0.01    -0.02   0.08  -0.36
  36   1    -0.26  -0.37  -0.14    -0.02  -0.03  -0.01     0.12   0.05  -0.28
  37   1     0.21   0.46  -0.02     0.01   0.03  -0.00    -0.26   0.05  -0.07
  38   6    -0.00  -0.00  -0.00    -0.02  -0.00  -0.01    -0.00   0.00   0.00
  39   8    -0.00  -0.00  -0.00    -0.02  -0.01  -0.00    -0.00   0.00   0.00
  40   7    -0.00   0.00   0.00     0.03   0.05   0.00     0.00  -0.00  -0.01
  41   1     0.00  -0.00  -0.00     0.01   0.02   0.01     0.00  -0.00  -0.00
  42   1     0.00  -0.00  -0.00     0.02  -0.10  -0.08    -0.00   0.02   0.01
  43   7    -0.00   0.00   0.00     0.00   0.02   0.04     0.00  -0.01  -0.00
  44   1     0.00  -0.00  -0.00     0.02  -0.10  -0.01    -0.00   0.00   0.01
  45   1     0.00   0.00   0.00     0.03   0.03   0.01     0.00   0.01   0.01
  46   6     0.00  -0.00   0.00     0.00  -0.00   0.00     0.02  -0.05   0.03
  47   8    -0.00   0.00   0.01     0.00   0.01   0.01    -0.04  -0.01   0.06
  48   7     0.00  -0.00  -0.00    -0.02  -0.01  -0.01     0.02   0.07   0.00
  49   1    -0.02  -0.00  -0.03     0.01   0.01  -0.01    -0.09   0.01  -0.15
  50   1     0.02   0.03   0.03     0.04   0.04   0.04    -0.05   0.06   0.04
  51   7     0.00  -0.01  -0.01    -0.02  -0.00  -0.02     0.04  -0.03  -0.06
  52   1    -0.01  -0.00  -0.02     0.03   0.00   0.02     0.02  -0.02  -0.03
  53   1     0.00   0.01  -0.00     0.03   0.00   0.02     0.02   0.02  -0.01
                     43                     44                     45
                        a                      a                      a 
 Frequencies --   462.7897               469.1585               475.8052
 Red. masses --     6.5103                 5.8962                 4.2943
 Frc consts  --     0.0000                 0.0000                 0.0000
 IR Inten    --    13.5416                19.1967                47.3829
 Raman Activ --     0.0000                 0.0000                 0.0000
 Depolar     --     0.0000                 0.0000                 0.0000
 Atom AN      X      Y      Z        X      Y      Z        X      Y      Z
   1   8    -0.00  -0.07  -0.00     0.04  -0.02  -0.00     0.03   0.05  -0.01
   2   6     0.02   0.05   0.07     0.02   0.04   0.04    -0.02  -0.05  -0.07
   3   1     0.00   0.01   0.01    -0.01   0.01  -0.01     0.00  -0.00  -0.01
   4   1     0.01   0.02   0.02    -0.00   0.02   0.03    -0.00  -0.03  -0.02
   5   6     0.07   0.06   0.04     0.07   0.04   0.01    -0.11  -0.05  -0.03
   6   1     0.09   0.01   0.02     0.04   0.01   0.01    -0.08  -0.01  -0.02
   7   1    -0.02   0.01   0.05     0.00   0.01   0.02     0.00  -0.01  -0.05
   8   7     0.00   0.08  -0.19     0.04   0.04  -0.10    -0.05  -0.07   0.16
   9   6    -0.00  -0.07   0.21    -0.03  -0.04   0.10     0.03   0.06  -0.16
  10   1    -0.02   0.02   0.13    -0.02  -0.00   0.06     0.03  -0.01  -0.10
  11   1    -0.01   0.01   0.10    -0.02   0.01   0.05     0.02  -0.02  -0.08
  12   1     0.03  -0.13   0.06    -0.00  -0.07   0.03    -0.01   0.11  -0.05
  13   6     0.08  -0.10  -0.21     0.01  -0.05  -0.12    -0.03   0.06   0.20
  14   1     0.02  -0.05  -0.00    -0.01  -0.03  -0.01     0.00   0.04   0.02
  15   1     0.03  -0.05  -0.07     0.00  -0.02  -0.06    -0.01   0.03   0.08
  16   1     0.03  -0.04  -0.09    -0.00  -0.02  -0.03    -0.00   0.03   0.06
  17   6    -0.15   0.08   0.01    -0.08   0.02   0.05     0.14  -0.04  -0.08
  18   1    -0.05   0.01   0.05    -0.04  -0.01   0.04     0.05   0.01  -0.07
  19   1    -0.09   0.07  -0.01    -0.06   0.03   0.01     0.10  -0.06  -0.01
  20   1    -0.02  -0.01   0.02    -0.00  -0.02   0.03     0.01   0.03  -0.06
  21   1    -0.00  -0.02   0.01     0.01  -0.03  -0.02     0.01   0.03   0.01
  22   6    -0.01   0.00   0.01     0.00  -0.03   0.01     0.01   0.05   0.06
  23   8     0.00   0.01  -0.00    -0.00  -0.03   0.01     0.04   0.06   0.03
  24   7     0.00  -0.01   0.00    -0.04   0.03   0.02    -0.03  -0.07  -0.09
  25   1    -0.00  -0.01  -0.00    -0.01   0.03  -0.01     0.05  -0.01   0.07
  26   1     0.01   0.00   0.01    -0.04  -0.01  -0.01     0.04   0.00  -0.01
  27   7    -0.01   0.00   0.00     0.01   0.02  -0.01    -0.04  -0.02   0.04
  28   1    -0.01  -0.00  -0.01     0.02   0.01  -0.01     0.16   0.15   0.28
  29   1     0.00   0.01   0.01    -0.02   0.02  -0.01    -0.22  -0.17  -0.37
  30   6    -0.09   0.07  -0.05    -0.01   0.01  -0.01     0.01  -0.01   0.01
  31   8    -0.11   0.08  -0.06    -0.01   0.01  -0.01     0.02  -0.02   0.01
  32   7     0.12  -0.06  -0.10     0.01  -0.01  -0.01    -0.02   0.01   0.02
  33   1     0.07  -0.08   0.06     0.00  -0.02   0.01    -0.00   0.02  -0.01
  34   1     0.07  -0.03  -0.12     0.01   0.01  -0.01    -0.02  -0.01   0.02
  35   7     0.02  -0.02   0.16    -0.00  -0.01   0.02    -0.00   0.01  -0.03
  36   1    -0.05  -0.01   0.13    -0.01  -0.00   0.02     0.01  -0.00  -0.03
  37   1     0.10  -0.05   0.03     0.01  -0.00   0.00    -0.02   0.01  -0.01
  38   6    -0.00   0.02   0.00     0.19   0.00   0.09     0.07   0.01   0.04
  39   8    -0.00   0.01   0.02     0.24   0.10  -0.07     0.08   0.06  -0.02
  40   7    -0.00  -0.01  -0.02    -0.17  -0.16   0.20    -0.07  -0.09   0.05
  41   1     0.00  -0.01  -0.01    -0.16   0.04   0.02    -0.06   0.01   0.00
  42   1    -0.01   0.08   0.04    -0.05  -0.25   0.08    -0.03  -0.02   0.07
  43   7     0.01  -0.03  -0.02    -0.15   0.14  -0.13    -0.04   0.04  -0.05
  44   1    -0.00   0.01   0.01    -0.04   0.28  -0.19    -0.03   0.17  -0.04
  45   1     0.00   0.05   0.03    -0.21  -0.39  -0.22    -0.07  -0.20  -0.11
  46   6     0.04  -0.12   0.07    -0.02  -0.05   0.02     0.02  -0.02   0.03
  47   8    -0.10  -0.03   0.17     0.02  -0.06   0.03    -0.03   0.01   0.07
  48   7     0.10   0.17   0.03    -0.15   0.02  -0.05     0.12   0.05   0.06
  49   1    -0.32  -0.01  -0.44     0.22   0.10   0.14    -0.29  -0.07  -0.29
  50   1    -0.17   0.14   0.10     0.02   0.04   0.03    -0.09   0.04   0.04
  51   7     0.07  -0.08  -0.17     0.07   0.03  -0.06    -0.03  -0.06  -0.06
  52   1     0.05  -0.05  -0.08     0.11   0.03   0.10    -0.02  -0.02  -0.04
  53   1     0.06   0.06  -0.02    -0.08  -0.03  -0.08     0.03   0.01   0.01
                     46                     47                     48
                        a                      a                      a 
 Frequencies --   476.7702               481.3082               482.5678
 Red. masses --     3.6955                 6.8736                 6.9776
 Frc consts  --     0.0000                 0.0000                 0.0000
 IR Inten    --    44.4685                 6.5793                14.9395
 Raman Activ --     0.0000                 0.0000                 0.0000
 Depolar     --     0.0000                 0.0000                 0.0000
 Atom AN      X      Y      Z        X      Y      Z        X      Y      Z
   1   8     0.03   0.05  -0.00    -0.09  -0.03   0.01    -0.04   0.02   0.01
   2   6    -0.02  -0.05  -0.05    -0.01   0.00   0.00    -0.01  -0.00  -0.02
   3   1     0.00  -0.00  -0.01     0.01  -0.00   0.02     0.01   0.00   0.01
   4   1    -0.00  -0.03  -0.02     0.01   0.00  -0.02     0.01  -0.01  -0.02
   5   6    -0.10  -0.05  -0.03    -0.00   0.01   0.00    -0.06   0.00  -0.03
   6   1    -0.07  -0.01  -0.02     0.01   0.00   0.00    -0.05   0.01  -0.02
   7   1     0.00  -0.01  -0.04    -0.00   0.00   0.01     0.01  -0.00  -0.04
   8   7    -0.04  -0.06   0.14    -0.01   0.02  -0.02    -0.01  -0.03   0.08
   9   6     0.03   0.06  -0.14     0.00   0.00   0.03     0.00   0.03  -0.07
  10   1     0.03  -0.00  -0.09     0.00   0.01   0.01     0.01  -0.01  -0.05
  11   1     0.02  -0.02  -0.07     0.00   0.00   0.01     0.01  -0.00  -0.03
  12   1    -0.00   0.10  -0.04     0.00  -0.01   0.01    -0.01   0.05  -0.02
  13   6    -0.02   0.06   0.17     0.01  -0.01  -0.02    -0.02   0.02   0.09
  14   1     0.00   0.03   0.02     0.01  -0.01   0.00    -0.00   0.01   0.01
  15   1    -0.01   0.02   0.07     0.01  -0.01  -0.01    -0.01   0.01   0.03
  16   1     0.00   0.03   0.05     0.01  -0.01  -0.01    -0.01   0.01   0.03
  17   6     0.12  -0.03  -0.07    -0.01   0.02  -0.01     0.08  -0.02  -0.05
  18   1     0.05   0.01  -0.06     0.01   0.01  -0.00     0.04   0.00  -0.04
  19   1     0.08  -0.05  -0.01    -0.01  -0.00  -0.00     0.05  -0.04  -0.01
  20   1     0.01   0.03  -0.05    -0.01   0.01   0.01     0.01   0.02  -0.02
  21   1     0.01   0.02  -0.00    -0.02  -0.04  -0.01    -0.01  -0.03  -0.02
  22   6    -0.05  -0.03  -0.08     0.07  -0.18   0.07     0.06  -0.19   0.08
  23   8    -0.08  -0.03  -0.05     0.15  -0.19   0.03     0.16  -0.20   0.02
  24   7     0.10   0.06   0.13    -0.25   0.11   0.08    -0.26   0.11   0.10
  25   1    -0.05  -0.03  -0.07    -0.05   0.15  -0.03    -0.06   0.15  -0.03
  26   1    -0.06  -0.05  -0.09    -0.18   0.01   0.10    -0.19   0.00   0.10
  27   7     0.01   0.01   0.00     0.14   0.15  -0.15     0.13   0.16  -0.14
  28   1    -0.24  -0.20  -0.33     0.19   0.07  -0.12     0.19   0.07  -0.14
  29   1     0.28   0.17   0.47    -0.11   0.16  -0.07    -0.11   0.18  -0.06
  30   6     0.01  -0.01   0.01    -0.00   0.00  -0.00     0.01  -0.00   0.01
  31   8     0.02  -0.01   0.01    -0.01   0.00  -0.00     0.01  -0.01   0.00
  32   7    -0.01   0.01   0.02     0.00  -0.00  -0.00    -0.01   0.00   0.01
  33   1    -0.00   0.02  -0.01     0.01  -0.00   0.00    -0.01   0.00  -0.00
  34   1    -0.01  -0.00   0.02     0.00  -0.00  -0.01    -0.00   0.00   0.01
  35   7    -0.00   0.01  -0.02     0.00  -0.00   0.01    -0.00   0.00  -0.01
  36   1     0.00  -0.00  -0.02    -0.00  -0.00   0.01     0.00   0.00  -0.01
[...]
  44   1     0.01   0.00   0.00    -0.01  -0.00  -0.00     0.01   0.00   0.00
  45   1    -0.00   0.01  -0.01     0.01  -0.01   0.02    -0.01   0.01  -0.01
  46   6     0.00   0.00  -0.00    -0.00   0.01   0.00    -0.00   0.00   0.01
  47   8    -0.00  -0.00   0.00    -0.00  -0.01   0.00     0.00  -0.00   0.00
  48   7     0.00  -0.00   0.00     0.00  -0.00   0.00     0.00   0.00  -0.01
  49   1     0.00  -0.00  -0.00     0.00  -0.01  -0.00     0.00  -0.00  -0.00
  50   1    -0.00   0.01  -0.01    -0.00   0.02  -0.02     0.00  -0.02   0.02
  51   7     0.01   0.07  -0.02     0.02   0.20  -0.02    -0.17  -0.05   0.22
  52   1    -0.10  -0.25   0.13    -0.28  -0.73   0.36     0.10   0.28  -0.12
  53   1     0.05  -0.00  -0.06     0.21  -0.02  -0.27     0.54  -0.10  -0.71
                    142                    143                    144
                        a                      a                      a 
 Frequencies --  3485.7454              3493.9947              3500.3796
 Red. masses --     1.4511                 1.4514                 1.4387
 Frc consts  --     0.0000                 0.0000                 0.0000
 IR Inten    --    16.2905                17.3529                38.9075
 Raman Activ --     0.0000                 0.0000                 0.0000
 Depolar     --     0.0000                 0.0000                 0.0000
 Atom AN      X      Y      Z        X      Y      Z        X      Y      Z
   1   8    -0.00  -0.00  -0.00    -0.00  -0.00   0.00    -0.00   0.00   0.00
   2   6    -0.00   0.00   0.00     0.00   0.00  -0.00     0.00  -0.00  -0.00
   3   1     0.00  -0.00  -0.00    -0.00   0.00   0.00    -0.00   0.00   0.00
   4   1    -0.00   0.00  -0.00    -0.00  -0.00   0.00     0.00   0.00  -0.00
   5   6     0.00  -0.00  -0.00     0.00   0.00   0.00     0.00  -0.00   0.00
   6   1    -0.00   0.00   0.00     0.00   0.00  -0.00     0.00  -0.00   0.00
   7   1     0.00  -0.00  -0.00    -0.00   0.00  -0.00    -0.00   0.00  -0.00
   8   7    -0.00   0.00   0.00     0.00   0.00  -0.00     0.00   0.00   0.00
   9   6    -0.00   0.00  -0.00     0.00  -0.00   0.00     0.00  -0.00   0.00
  10   1     0.00  -0.00  -0.00    -0.00   0.00  -0.00    -0.00   0.00  -0.00
  11   1     0.00   0.00  -0.00    -0.00  -0.00   0.00    -0.00  -0.00   0.00
  12   1    -0.00  -0.00   0.00     0.00   0.00  -0.00     0.00  -0.00   0.00
  13   6    -0.00   0.00  -0.00     0.00  -0.00  -0.00     0.00  -0.00  -0.00
  14   1    -0.00   0.00   0.00    -0.00   0.00   0.00    -0.00   0.00   0.00
  15   1     0.00   0.00  -0.00    -0.00   0.00   0.00    -0.00  -0.00  -0.00
  16   1     0.00  -0.00   0.00    -0.00   0.00  -0.00    -0.00   0.00  -0.00
  17   6     0.00  -0.00  -0.00    -0.00  -0.00   0.00    -0.00  -0.00   0.00
  18   1     0.00  -0.00  -0.00     0.00   0.00   0.00     0.00   0.00   0.00
  19   1    -0.00   0.00   0.00     0.00  -0.00  -0.00     0.00  -0.00  -0.00
  20   1     0.00   0.00  -0.00    -0.00  -0.00   0.00    -0.00  -0.00  -0.00
  21   1     0.00   0.00   0.00     0.00   0.00  -0.00     0.00  -0.00  -0.00
  22   6    -0.00   0.00  -0.00     0.00   0.00  -0.00     0.00  -0.00  -0.00
  23   8     0.00  -0.00  -0.00    -0.00  -0.00   0.00    -0.00   0.00   0.00
  24   7    -0.00  -0.00   0.00    -0.00  -0.00   0.00    -0.00   0.00   0.00
  25   1     0.00  -0.00  -0.00     0.01  -0.00  -0.00     0.00  -0.00  -0.00
  26   1    -0.00   0.00  -0.00    -0.00   0.01  -0.00    -0.00   0.00  -0.00
  27   7    -0.00  -0.00   0.00    -0.00   0.00   0.00     0.00  -0.00  -0.00
  28   1     0.00  -0.00   0.00     0.00  -0.00   0.00    -0.00   0.00  -0.00
  29   1     0.00   0.00  -0.00     0.00   0.00  -0.00    -0.00  -0.00   0.00
  30   6     0.00  -0.00  -0.00    -0.00   0.00  -0.00    -0.00   0.00   0.00
  31   8    -0.00   0.00  -0.00     0.00  -0.00   0.00     0.00  -0.00   0.00
  32   7    -0.00   0.00  -0.00     0.00  -0.00   0.00     0.03  -0.01   0.10
  33   1    -0.00   0.00   0.00     0.00  -0.00  -0.00     0.24  -0.17  -0.22
  34   1     0.00  -0.00   0.00    -0.00   0.00  -0.00    -0.34   0.21  -0.16
  35   7     0.00  -0.00  -0.00     0.00  -0.00  -0.00    -0.09   0.09   0.08
  36   1    -0.00   0.00  -0.00    -0.00   0.00  -0.00     0.41  -0.37   0.24
  37   1     0.00  -0.00   0.00     0.00  -0.00   0.00    -0.06   0.04  -0.53
  38   6    -0.00   0.00  -0.00     0.00   0.00   0.00     0.00  -0.00  -0.00
  39   8     0.00  -0.00   0.00    -0.00  -0.00  -0.00    -0.00   0.00   0.00
  40   7     0.00  -0.00   0.00    -0.01  -0.00   0.01     0.00  -0.00   0.00
  41   1     0.00   0.00  -0.00     0.01   0.01  -0.02     0.00   0.00  -0.00
  42   1    -0.00   0.00  -0.00     0.02  -0.00   0.00    -0.00  -0.00  -0.00
  43   7     0.00  -0.00   0.00     0.11   0.11  -0.10     0.00   0.00  -0.00
  44   1    -0.00  -0.00  -0.00    -0.67  -0.11  -0.19    -0.00  -0.00  -0.00
  45   1    -0.00   0.00  -0.00     0.27  -0.32   0.54     0.00  -0.00   0.00
  46   6     0.00   0.00   0.01     0.00   0.00   0.00     0.00  -0.00   0.00
  47   8    -0.00   0.00  -0.00    -0.00  -0.00   0.00    -0.00   0.00  -0.00
  48   7    -0.08   0.02   0.17    -0.00   0.00   0.00    -0.00  -0.00   0.00
  49   1     0.30  -0.59  -0.14     0.00  -0.00  -0.00     0.00  -0.00  -0.00
  50   1    -0.01   0.52  -0.48     0.00   0.00   0.00    -0.00   0.00  -0.00
  51   7    -0.00  -0.01   0.00    -0.00  -0.00   0.00    -0.00   0.00   0.00
  52   1     0.01   0.02  -0.01     0.01   0.02  -0.01    -0.00  -0.00   0.00
  53   1     0.00  -0.00  -0.01     0.01  -0.00  -0.01     0.00  -0.00  -0.00
                    145                    146                    147
                        a                      a                      a 
 Frequencies --  3503.9450              3505.0149              3530.8416
 Red. masses --     1.4507                 1.4619                 1.8938
 Frc consts  --     0.0000                 0.0000                 0.0000
 IR Inten    --    17.6165                 9.9144                14.2754
 Raman Activ --     0.0000                 0.0000                 0.0000
 Depolar     --     0.0000                 0.0000                 0.0000
 Atom AN      X      Y      Z        X      Y      Z        X      Y      Z
   1   8    -0.00   0.00  -0.00     0.00  -0.00   0.00    -0.00   0.00  -0.00
   2   6    -0.00  -0.00   0.00     0.00   0.00   0.00    -0.00   0.00   0.00
   3   1     0.00  -0.00  -0.00     0.00  -0.00  -0.00     0.00  -0.00  -0.00
   4   1    -0.00   0.00  -0.00    -0.00   0.00  -0.00     0.00  -0.00   0.00
   5   6    -0.00  -0.00   0.00     0.00  -0.00   0.00    -0.00  -0.00  -0.00
   6   1     0.00   0.00  -0.00     0.00  -0.00  -0.00    -0.00   0.00   0.00
   7   1     0.00  -0.00   0.00    -0.00   0.00  -0.00     0.00  -0.00   0.00
   8   7     0.00   0.00   0.00    -0.00   0.00  -0.00     0.00  -0.00  -0.00
   9   6    -0.00   0.00  -0.00     0.00  -0.00   0.00    -0.00   0.00  -0.00
  10   1     0.00  -0.00   0.00    -0.00   0.00  -0.00     0.00  -0.00   0.00
  11   1     0.00   0.00  -0.00     0.00   0.00   0.00     0.00   0.00  -0.00
  12   1     0.00  -0.00  -0.00     0.00  -0.00   0.00    -0.00   0.00   0.00
  13   6    -0.00   0.00   0.00     0.00  -0.00   0.00    -0.00   0.00   0.00
  14   1    -0.00  -0.00  -0.00     0.00  -0.00   0.00     0.00  -0.00  -0.00
  15   1     0.00   0.00  -0.00     0.00   0.00   0.00     0.00   0.00  -0.00
  16   1     0.00  -0.00   0.00    -0.00   0.00  -0.00     0.00  -0.00   0.00
  17   6    -0.00   0.00   0.00    -0.00  -0.00   0.00    -0.00   0.00  -0.00
  18   1    -0.00  -0.00   0.00    -0.00   0.00   0.00     0.00  -0.00  -0.00
  19   1     0.00  -0.00  -0.00     0.00  -0.00  -0.00    -0.00   0.00   0.00
  20   1     0.00   0.00  -0.00     0.00  -0.00   0.00     0.00   0.00   0.00
  21   1     0.01  -0.00   0.00    -0.00   0.00  -0.00     0.00   0.00  -0.00
  22   6     0.00  -0.00   0.00    -0.00   0.00  -0.00     0.01  -0.01   0.00
  23   8    -0.00   0.00  -0.00     0.00  -0.00   0.00    -0.00   0.00  -0.00
  24   7    -0.01   0.01  -0.00     0.00  -0.00   0.00     0.10  -0.23   0.06
  25   1     0.02  -0.01  -0.01    -0.00   0.00   0.00    -0.07   0.01   0.05
  26   1     0.02  -0.06   0.02    -0.00   0.00  -0.00    -0.34   0.85  -0.27
  27   7     0.16  -0.07  -0.04    -0.00   0.00   0.00     0.01   0.01  -0.01
  28   1    -0.24   0.66  -0.21     0.00  -0.01   0.00    -0.00   0.01  -0.00
  29   1    -0.37  -0.39   0.37     0.00   0.00  -0.00    -0.05  -0.05   0.05
  30   6    -0.00  -0.00  -0.00    -0.00   0.00  -0.00    -0.00   0.00   0.00
  31   8     0.00  -0.00  -0.00     0.00  -0.00   0.00     0.00   0.00  -0.00
  32   7    -0.00   0.00  -0.00    -0.03   0.01  -0.15     0.00  -0.00   0.00
  33   1    -0.00   0.00   0.00    -0.35   0.26   0.33     0.00  -0.00  -0.00
  34   1     0.01  -0.00   0.00     0.47  -0.29   0.22    -0.00   0.00  -0.00
  35   7    -0.00   0.00   0.00    -0.07   0.06   0.06     0.00  -0.00   0.00
  36   1     0.00  -0.00   0.00     0.28  -0.25   0.16    -0.00   0.00  -0.00
  37   1    -0.00   0.00  -0.00    -0.04   0.03  -0.38     0.00  -0.00   0.00
  38   6     0.00   0.00  -0.00     0.00   0.00  -0.00     0.00  -0.00   0.00
  39   8    -0.00   0.00   0.00    -0.00  -0.00   0.00    -0.00   0.00  -0.00
  40   7    -0.00  -0.00   0.00     0.00  -0.00   0.00    -0.00   0.00  -0.00
  41   1     0.00   0.00  -0.00     0.00   0.00  -0.00    -0.00  -0.00   0.00
  42   1    -0.00  -0.00  -0.00    -0.00   0.00  -0.00     0.01   0.00   0.00
  43   7     0.00   0.00  -0.00     0.00   0.00  -0.00    -0.00  -0.00  -0.00
  44   1    -0.00  -0.00  -0.00    -0.00  -0.00  -0.00     0.01   0.00   0.00
  45   1     0.00  -0.00   0.00     0.00  -0.00   0.00     0.00  -0.00   0.00
  46   6     0.00  -0.00   0.00     0.00   0.00  -0.00    -0.00  -0.00   0.00
  47   8     0.00   0.00  -0.00    -0.00  -0.00   0.00     0.00   0.00  -0.00
  48   7    -0.00   0.00   0.00    -0.00  -0.00   0.00     0.00  -0.00   0.00
  49   1     0.00  -0.00  -0.00    -0.00   0.00   0.00    -0.00   0.00   0.00
  50   1     0.00   0.00  -0.00    -0.00   0.00  -0.00    -0.00   0.00  -0.00
  51   7    -0.00  -0.00   0.00    -0.00  -0.00   0.00     0.00   0.00  -0.00
  52   1     0.00   0.00  -0.00     0.00   0.00  -0.00    -0.00  -0.01   0.00
  53   1     0.01  -0.00  -0.02     0.00   0.00  -0.00     0.00   0.00  -0.00
                    148                    149                    150
                        a                      a                      a 
 Frequencies --  3539.2248              3550.1771              3558.7971
 Red. masses --     1.9658                 2.1752                 2.1756
 Frc consts  --     0.0000                 0.0000                 0.0000
 IR Inten    --    21.6384                 7.9062                13.9708
 Raman Activ --     0.0000                 0.0000                 0.0000
 Depolar     --     0.0000                 0.0000                 0.0000
 Atom AN      X      Y      Z        X      Y      Z        X      Y      Z
   1   8     0.00   0.00  -0.00    -0.00   0.00  -0.00     0.00   0.00   0.00
   2   6     0.00  -0.00   0.00     0.00  -0.00   0.00     0.00  -0.00   0.00
   3   1     0.00   0.00  -0.00    -0.00   0.00   0.00     0.00   0.00  -0.00
   4   1     0.00  -0.00   0.00    -0.00   0.00  -0.00     0.00  -0.00   0.00
   5   6    -0.00   0.00   0.00    -0.00   0.00   0.00    -0.00   0.00   0.00
   6   1     0.00  -0.00  -0.00     0.00  -0.00  -0.00    -0.00  -0.00  -0.00
   7   1     0.00  -0.00   0.00    -0.00   0.00  -0.00     0.00  -0.00   0.00
   8   7    -0.00   0.00   0.00    -0.00  -0.00  -0.00     0.00   0.00   0.00
   9   6    -0.00  -0.00   0.00     0.00  -0.00   0.00    -0.00  -0.00   0.00
  10   1     0.00  -0.00   0.00    -0.00   0.00  -0.00     0.00  -0.00   0.00
  11   1     0.00   0.00  -0.00    -0.00  -0.00   0.00     0.00   0.00  -0.00
  12   1    -0.00  -0.00  -0.00     0.00   0.00  -0.00    -0.00   0.00  -0.00
  13   6    -0.00   0.00  -0.00     0.00  -0.00   0.00    -0.00   0.00  -0.00
  14   1    -0.00  -0.00   0.00    -0.00   0.00   0.00    -0.00   0.00   0.00
  15   1     0.00   0.00  -0.00    -0.00  -0.00   0.00     0.00   0.00  -0.00
  16   1     0.00  -0.00   0.00    -0.00   0.00  -0.00     0.00  -0.00   0.00
  17   6    -0.00  -0.00   0.00    -0.00   0.00   0.00    -0.00  -0.00   0.00
  18   1    -0.00   0.00   0.00    -0.00  -0.00   0.00    -0.00   0.00  -0.00
  19   1     0.00  -0.00  -0.00     0.00  -0.00  -0.00     0.00   0.00  -0.00
  20   1     0.00   0.00  -0.00    -0.00  -0.00   0.00     0.00   0.00  -0.00
  21   1    -0.00   0.00  -0.00     0.00  -0.00   0.00    -0.00   0.00  -0.00
  22   6    -0.00   0.00  -0.00    -0.00   0.00   0.00    -0.00   0.00  -0.00
  23   8     0.00  -0.00   0.00     0.00  -0.00  -0.00     0.00  -0.00   0.00
  24   7    -0.00   0.00   0.00    -0.00   0.00  -0.00    -0.00   0.00   0.00
  25   1     0.00  -0.00  -0.00     0.00  -0.00  -0.00     0.01  -0.00  -0.00
  26   1     0.00  -0.00   0.00     0.00  -0.00   0.00     0.00  -0.01   0.00
  27   7    -0.00  -0.00   0.00     0.00  -0.00   0.00    -0.00  -0.00   0.00
  28   1    -0.00   0.00  -0.00    -0.00   0.00  -0.00    -0.00   0.00  -0.00
  29   1     0.00   0.00  -0.00     0.00   0.00  -0.00     0.00   0.00  -0.00
  30   6     0.00  -0.00   0.00    -0.00   0.00   0.00     0.00  -0.00  -0.00
  31   8    -0.00   0.00  -0.00     0.00  -0.00   0.00    -0.00   0.00  -0.00
  32   7    -0.00   0.00  -0.00    -0.00   0.00   0.00     0.00  -0.00  -0.00
  33   1    -0.00  -0.00   0.00     0.00  -0.00  -0.00    -0.00   0.00   0.00
  34   1     0.00  -0.00   0.00     0.00  -0.00   0.00    -0.00   0.00  -0.00
  35   7    -0.00   0.00  -0.00     0.00  -0.00   0.00    -0.00   0.00  -0.00
  36   1     0.00  -0.00   0.00    -0.00   0.00  -0.00     0.00  -0.00   0.00
  37   1     0.00  -0.00   0.00    -0.00   0.00  -0.00     0.00  -0.00   0.00
  38   6    -0.01  -0.00   0.00     0.00   0.00  -0.00    -0.01   0.00  -0.01
  39   8     0.00   0.00  -0.00    -0.00  -0.00   0.00     0.00  -0.00   0.00
  40   7    -0.27  -0.02  -0.01     0.00   0.00   0.00    -0.04  -0.00  -0.00
  41   1     0.08   0.09  -0.12    -0.00  -0.00   0.00     0.01   0.01  -0.02
  42   1     0.93  -0.01   0.15    -0.01   0.00  -0.00     0.13  -0.00   0.02
  43   7     0.03  -0.01   0.03     0.00   0.00   0.00    -0.23   0.06  -0.18
  44   1    -0.07  -0.01  -0.02    -0.00  -0.00  -0.00     0.63   0.12   0.16
  45   1    -0.04   0.06  -0.09    -0.00  -0.00  -0.00     0.24  -0.34   0.54
  46   6     0.00   0.00  -0.00     0.00  -0.01   0.00    -0.00   0.00  -0.00
  47   8     0.00  -0.00   0.00    -0.00   0.00  -0.00     0.00  -0.00   0.00
  48   7     0.00  -0.00   0.00     0.08  -0.28   0.08     0.00  -0.00   0.00
  49   1    -0.00   0.01   0.00    -0.31   0.59   0.17    -0.00   0.00   0.00
  50   1    -0.00   0.01  -0.01    -0.00   0.46  -0.46    -0.00   0.00  -0.00
  51   7    -0.00  -0.00   0.00    -0.00  -0.00   0.00    -0.00  -0.00   0.00
  52   1     0.00   0.00  -0.00     0.00   0.02  -0.01     0.00   0.01  -0.00
  53   1     0.00  -0.00  -0.00     0.01  -0.00  -0.01     0.00  -0.00  -0.00
                    151                    152                    153
                        a                      a                      a 
 Frequencies --  3565.0040              3570.4440              3570.6643
 Red. masses --     2.1910                 2.1841                 2.1781
 Frc consts  --     0.0000                 0.0000                 0.0000
 IR Inten    --    13.7613                13.2681                11.8512
 Raman Activ --     0.0000                 0.0000                 0.0000
 Depolar     --     0.0000                 0.0000                 0.0000
 Atom AN      X      Y      Z        X      Y      Z        X      Y      Z
   1   8    -0.00   0.00   0.00     0.00  -0.00   0.00     0.00   0.00  -0.00
   2   6     0.00  -0.00  -0.00    -0.00   0.00  -0.00    -0.00  -0.00   0.00
   3   1    -0.00   0.00   0.00    -0.00   0.00  -0.00     0.00  -0.00  -0.00
   4   1     0.00   0.00   0.00     0.00  -0.00   0.00    -0.00  -0.00  -0.00
   5   6     0.00  -0.00   0.00     0.00  -0.00  -0.00    -0.00   0.00  -0.00
   6   1     0.00  -0.00  -0.00    -0.00   0.00   0.00    -0.00   0.00   0.00
   7   1    -0.00   0.00  -0.00    -0.00   0.00  -0.00     0.00  -0.00   0.00
   8   7     0.00   0.00   0.00    -0.00  -0.00  -0.00     0.00  -0.00   0.00
   9   6     0.00  -0.00   0.00     0.00  -0.00   0.00    -0.00   0.00  -0.00
  10   1    -0.00   0.00  -0.00    -0.00  -0.00  -0.00     0.00  -0.00   0.00
  11   1     0.00  -0.00   0.00     0.00  -0.00  -0.00    -0.00   0.00  -0.00
  12   1     0.00  -0.00  -0.00     0.00   0.00   0.00    -0.00   0.00   0.00
  13   6    -0.00   0.00  -0.00     0.00   0.00  -0.00    -0.00   0.00  -0.00
  14   1    -0.00   0.00  -0.00     0.00  -0.00  -0.00    -0.00   0.00  -0.00
  15   1    -0.00  -0.00  -0.00     0.00  -0.00  -0.00    -0.00   0.00  -0.00
  16   1     0.00  -0.00   0.00    -0.00   0.00  -0.00     0.00  -0.00   0.00
  17   6    -0.00  -0.00   0.00     0.00  -0.00  -0.00     0.00  -0.00  -0.00
  18   1     0.00   0.00   0.00    -0.00   0.00  -0.00    -0.00   0.00  -0.00
  19   1     0.00  -0.00  -0.00    -0.00   0.00   0.00    -0.00   0.00   0.00
  20   1    -0.00  -0.00  -0.00     0.00  -0.00  -0.00    -0.00  -0.00  -0.00
  21   1     0.00  -0.00  -0.00    -0.01   0.00  -0.00    -0.00   0.00  -0.00
  22   6     0.00   0.00  -0.00    -0.00  -0.01   0.01    -0.00  -0.00   0.00
  23   8    -0.00   0.00   0.00     0.00   0.00  -0.00     0.00   0.00  -0.00
  24   7    -0.00   0.00   0.00     0.01  -0.01   0.00     0.00  -0.00   0.00
  25   1     0.00  -0.00  -0.00    -0.01   0.00   0.00    -0.00   0.00   0.00
  26   1     0.00  -0.00   0.00    -0.02   0.06  -0.02    -0.00   0.00  -0.00
  27   7     0.00   0.00  -0.00    -0.05  -0.25   0.15    -0.00  -0.02   0.01
  28   1     0.00  -0.00   0.00    -0.23   0.57  -0.17    -0.01   0.04  -0.01
  29   1    -0.00  -0.00   0.00     0.42   0.40  -0.40     0.03   0.03  -0.02
  30   6    -0.00   0.00   0.01     0.00  -0.00   0.00    -0.01   0.01  -0.00
  31   8     0.00   0.00  -0.00    -0.00   0.00  -0.00     0.00  -0.00   0.00
  32   7    -0.15   0.10   0.03     0.01  -0.01  -0.00    -0.20   0.13   0.04
  33   1     0.27  -0.20  -0.28    -0.02   0.02   0.02     0.35  -0.26  -0.36
  34   1     0.29  -0.18   0.15    -0.02   0.02  -0.01     0.40  -0.24   0.21
  35   7     0.11  -0.09   0.20     0.01  -0.00   0.01    -0.08   0.07  -0.15
  36   1    -0.35   0.32  -0.18    -0.02   0.02  -0.01     0.27  -0.25   0.14
  37   1    -0.05   0.02  -0.57    -0.00   0.00  -0.03     0.04  -0.02   0.42
  38   6    -0.00  -0.00  -0.00     0.00  -0.00   0.00     0.00   0.00   0.00
  39   8    -0.00   0.00   0.00    -0.00   0.00   0.00    -0.00   0.00  -0.00
  40   7    -0.00  -0.00   0.00     0.00   0.00  -0.00     0.00   0.00  -0.00
  41   1     0.00   0.00  -0.00    -0.00  -0.00   0.00    -0.00  -0.00   0.00
  42   1     0.00  -0.00   0.00    -0.00   0.00  -0.00    -0.00   0.00  -0.00
  43   7    -0.00   0.00  -0.00     0.00  -0.00   0.00     0.00  -0.00   0.00
  44   1     0.00   0.00   0.00    -0.00  -0.00  -0.00    -0.00  -0.00  -0.00
  45   1     0.00  -0.00   0.00    -0.00   0.00  -0.00    -0.00   0.00  -0.00
  46   6     0.00  -0.00  -0.00    -0.00   0.00  -0.00    -0.00   0.00   0.00
  47   8    -0.00   0.00   0.00     0.00  -0.00  -0.00     0.00  -0.00  -0.00
  48   7    -0.00   0.00  -0.00    -0.00   0.00  -0.00     0.00  -0.00   0.00
  49   1     0.00  -0.00  -0.00     0.00  -0.00  -0.00    -0.00   0.00   0.00
  50   1     0.00  -0.00   0.00    -0.00  -0.00   0.00    -0.00   0.00  -0.00
  51   7    -0.00   0.00   0.00     0.00   0.00  -0.00     0.00  -0.00  -0.00
  52   1    -0.00  -0.00   0.00    -0.00  -0.00   0.00    -0.00  -0.00   0.00
  53   1     0.00  -0.00  -0.00    -0.00   0.00   0.01    -0.00   0.00   0.00
