 Entering Gaussian System
 *********************************************
 Gaussian 98:
 frequency output generated by the xtb code
 *********************************************
                         Standard orientation:
 --------------------------------------------------------------------
  Center     Atomic     Atomic              Coordinates (Angstroms)
  Number     Number      Type              X           Y           Z
 --------------------------------------------------------------------
    1          8             0        0.951825   -0.704415   -1.664417
    2          6             0        0.135413   -1.706509   -2.186581
    3          1             0        0.215292   -1.639911   -3.275728
    4          1             0        0.497167   -2.701717   -1.889307
    5          6             0       -1.332233   -1.634928   -1.735473
    6          1             0       -1.391391   -1.764744   -0.650847
    7          1             0       -1.864496   -2.456821   -2.218528
    8          7             0       -2.052267   -0.370290   -2.043041
    9          6             0       -1.590829    0.713857   -1.157525
   10          1             0       -1.765334    0.418246   -0.124250
   11          1             0       -2.155824    1.613952   -1.390729
   12          1             0       -0.529152    0.888384   -1.312526
   13          6             0       -3.486337   -0.581881   -1.780297
   14          1             0       -3.611361   -0.884232   -0.741852
   15          1             0       -3.882035   -1.353302   -2.437584
   16          1             0       -4.013586    0.352675   -1.963712
   17          6             0       -1.876421    0.047317   -3.441095
   18          1             0       -2.163916   -0.758225   -4.114298
   19          1             0       -0.839709    0.320813   -3.620800
   20          1             0       -2.509628    0.916234   -3.618875
   21          1             0        0.977456   -0.811316   -0.676865
   22          6             0        6.600487    0.131594    2.702226
   23          8             0        5.437902   -0.046586    2.365185
   24          7             0        7.473034    0.832752    1.938324
   25          1             0        7.115541    1.322625    1.137415
   26          1             0        8.384659    1.085356    2.273864
   27          7             0        7.099471   -0.359849    3.862393
   28          1             0        8.079386   -0.318538    4.075590
   29          1             0        6.529320   -0.991278    4.396520
   30          6             0       -4.511617    3.408570   -2.879627
   31          8             0       -3.838770    2.395151   -2.758106
   32          7             0       -4.715181    4.002924   -4.079888
   33          1             0       -4.219910    3.651718   -4.879632
   34          1             0       -5.181032    4.887592   -4.164111
   35          7             0       -5.103482    4.012345   -1.820024
   36          1             0       -5.741544    4.778530   -1.932322
   37          1             0       -5.065419    3.555985   -0.926294
   38          6             0       -2.259512   -1.765247    2.180346
   39          8             0       -2.558745   -1.288291    1.091924
   40          7             0       -3.194856   -2.349400    2.979699
   41          1             0       -4.160569   -2.241671    2.724530
   42          1             0       -2.992190   -2.587534    3.933701
   43          7             0       -0.997920   -1.751312    2.656424
   44          1             0       -0.760987   -2.295113    3.466792
   45          1             0       -0.242900   -1.467335    2.029636
   46          6             0        2.304088   -0.787333    1.347538
   47          8             0        1.139450   -1.006474    0.977655
   48          7             0        2.662184   -0.797925    2.645089
   49          1             0        1.955285   -0.837848    3.356110
   50          1             0        3.607585   -0.533574    2.883657
   51          7             0        3.300261   -0.557901    0.478853
   52          1             0        4.222282   -0.352833    0.834627
   53          1             0        3.109747   -0.538817   -0.507878
 --------------------------------------------------------------------
     1 basis functions        1 primitive gaussians
     1 alpha electrons        1 beta electrons

 Harmonic frequencies (cm**-1), IR intensities (km*mol⁻¹),
 Raman scattering activities (A**4/amu), Raman depolarization ratios,
 reduced masses (AMU), force constants (mDyne/A) and normal coordinates:
                      1                      2                      3
                        a                      a                      a 
 Frequencies --     3.3219                 4.1802                 6.7535
 Red. masses --    11.2658                11.4106                12.1183
 Frc consts  --     0.0000                 0.0000                 0.0000
 IR Inten    --     0.1926                 0.1839                 0.8099
 Raman Activ --     0.0000                 0.0000                 0.0000
 Depolar     --     0.0000                 0.0000                 0.0000
 Atom AN      X      Y      Z        X      Y      Z        X      Y      Z
   1   8     0.00  -0.09  -0.03    -0.00  -0.09  -0.04     0.05   0.26   0.08
   2   6    -0.02  -0.06  -0.01    -0.02  -0.06  -0.03     0.11   0.19   0.03
   3   1    -0.01  -0.02  -0.00    -0.01  -0.02  -0.01     0.04   0.06   0.01
   4   1    -0.01  -0.02  -0.00    -0.01  -0.02  -0.01     0.05   0.06   0.01
   5   6    -0.02  -0.03  -0.00    -0.02  -0.04  -0.02     0.09   0.10  -0.01
   6   1    -0.01  -0.01  -0.00    -0.00  -0.01  -0.01     0.02   0.02  -0.00
   7   1    -0.01  -0.00  -0.00    -0.01  -0.01  -0.01     0.05   0.02  -0.01
   8   7     0.01  -0.01   0.01     0.00  -0.03  -0.01     0.03   0.06  -0.02
   9   6     0.03  -0.03   0.03     0.02  -0.04  -0.01    -0.05   0.08  -0.00
  10   1     0.01  -0.01   0.01     0.01  -0.01  -0.00    -0.02   0.02  -0.00
  11   1     0.01  -0.00   0.01     0.01  -0.01  -0.00    -0.03   0.01  -0.00
  12   1     0.01  -0.01   0.01     0.01  -0.02  -0.00    -0.02   0.04   0.01
  13   6     0.00   0.02   0.00    -0.00  -0.00  -0.01     0.04  -0.03  -0.06
  14   1    -0.00   0.00   0.00    -0.00  -0.00  -0.00     0.01  -0.01  -0.02
  15   1    -0.00   0.01  -0.00    -0.01   0.00  -0.00     0.03  -0.01  -0.02
  16   1     0.01   0.01   0.00     0.00   0.00   0.00    -0.00  -0.02  -0.02
  17   6     0.02   0.00   0.02     0.00  -0.02  -0.01     0.04   0.08  -0.01
  18   1     0.00   0.01   0.00    -0.00  -0.00  -0.00     0.03   0.02  -0.01
  19   1     0.01  -0.01   0.01     0.00  -0.01  -0.00     0.01   0.04   0.00
  20   1     0.01   0.01   0.01     0.00  -0.00  -0.00    -0.00   0.01  -0.01
  21   1    -0.00  -0.02  -0.01    -0.00  -0.02  -0.01     0.01   0.06   0.02
  22   6    -0.04   0.07  -0.04    -0.06   0.09   0.00     0.09  -0.17   0.02
  23   8    -0.05   0.04  -0.00    -0.06   0.06   0.01     0.08  -0.14   0.07
  24   7     0.04  -0.31  -0.31    -0.03  -0.07  -0.11     0.18  -0.48  -0.15
  25   1     0.03  -0.16  -0.14     0.00  -0.06  -0.06     0.06  -0.17  -0.07
  26   1     0.01  -0.07  -0.10    -0.01  -0.01  -0.04     0.06  -0.13  -0.06
  27   7    -0.11   0.49   0.16    -0.10   0.30   0.11     0.04   0.04   0.14
  28   1    -0.03   0.13   0.04    -0.03   0.09   0.03     0.01  -0.00   0.04
  29   1    -0.05   0.20   0.11    -0.03   0.11   0.06    -0.01   0.07   0.08
  30   6     0.07   0.04   0.05     0.10   0.05   0.07    -0.18  -0.09  -0.06
  31   8     0.08   0.04   0.05     0.06   0.02   0.03    -0.14  -0.05  -0.05
  32   7     0.35   0.24   0.11    -0.29  -0.18   0.02    -0.34  -0.19  -0.08
  33   1     0.14   0.10   0.04    -0.17  -0.10  -0.02    -0.11  -0.06  -0.03
  34   1     0.09   0.06   0.04    -0.06  -0.04   0.00    -0.10  -0.06  -0.03
  35   7    -0.18  -0.15   0.02     0.57   0.34   0.17    -0.13  -0.05  -0.05
  36   1    -0.05  -0.04  -0.00     0.16   0.10   0.07    -0.05  -0.02  -0.01
  37   1    -0.10  -0.08  -0.01     0.23   0.14   0.07    -0.01   0.00  -0.00
  38   6    -0.01  -0.05  -0.01    -0.01  -0.06  -0.03    -0.00   0.03  -0.03
  39   8    -0.02  -0.05  -0.00    -0.01  -0.04  -0.02     0.01   0.01  -0.05
  40   7    -0.01  -0.08  -0.01    -0.01  -0.08  -0.04    -0.01   0.00  -0.06
  41   1    -0.00  -0.02  -0.00    -0.00  -0.02  -0.01    -0.00  -0.01  -0.02
  42   1    -0.00  -0.02  -0.00    -0.00  -0.03  -0.01    -0.01   0.00  -0.01
  43   7    -0.01  -0.05  -0.01    -0.01  -0.08  -0.03    -0.02   0.08   0.01
  44   1    -0.00  -0.02  -0.01    -0.00  -0.03  -0.01    -0.01   0.03   0.01
  45   1    -0.00  -0.01  -0.00    -0.00  -0.02  -0.01    -0.00   0.03   0.01
  46   6    -0.03  -0.01  -0.00    -0.03  -0.02  -0.01     0.02   0.06   0.07
  47   8    -0.03  -0.03  -0.02    -0.02  -0.06  -0.03     0.01   0.15   0.07
  48   7    -0.06   0.05   0.00    -0.05   0.01  -0.01     0.03   0.00   0.07
  49   1    -0.02   0.02  -0.00    -0.02   0.00  -0.01     0.01   0.00   0.02
  50   1    -0.02   0.02   0.00    -0.02   0.01   0.00     0.01  -0.01   0.02
  51   7    -0.02  -0.05   0.01    -0.02  -0.02  -0.00     0.03   0.05   0.08
  52   1    -0.01  -0.01   0.00    -0.01   0.00   0.00     0.01  -0.00   0.02
  53   1     0.00  -0.02   0.00    -0.00  -0.01  -0.00     0.01   0.03   0.02
                      4                      5                      6
                        a                      a                      a 
 Frequencies --    13.2039                17.8257                18.4612
 Red. masses --    11.9671                11.7807                12.4444
 Frc consts  --     0.0000                 0.0000                 0.0000
 IR Inten    --     3.3851                 0.9947                 2.9693
 Raman Activ --     0.0000                 0.0000                 0.0000
 Depolar     --     0.0000                 0.0000                 0.0000
 Atom AN      X      Y      Z        X      Y      Z        X      Y      Z
   1   8    -0.02  -0.08  -0.19    -0.07   0.05  -0.00    -0.05   0.04   0.01
   2   6    -0.07  -0.07  -0.09    -0.09   0.06  -0.00    -0.01  -0.01   0.04
   3   1    -0.04  -0.03  -0.03    -0.04   0.03  -0.00    -0.00  -0.01   0.01
   4   1    -0.02  -0.02  -0.02    -0.03   0.01  -0.01     0.01   0.00   0.02
   5   6    -0.04  -0.03  -0.02    -0.07   0.07   0.05    -0.01  -0.04   0.04
   6   1     0.00   0.00  -0.00    -0.01   0.01   0.02    -0.01  -0.02   0.01
   7   1    -0.02  -0.01   0.01    -0.03   0.02   0.02     0.00  -0.01   0.01
   8   7    -0.04  -0.03  -0.02    -0.08   0.09   0.12    -0.03  -0.05   0.05
   9   6     0.02  -0.01  -0.07    -0.02   0.06   0.11    -0.08  -0.06   0.08
  10   1     0.02   0.00  -0.02     0.00   0.01   0.03    -0.02  -0.02   0.02
  11   1     0.01  -0.00  -0.02    -0.01   0.02   0.04    -0.03  -0.02   0.03
  12   1     0.01  -0.01  -0.04    -0.01   0.01   0.02    -0.02  -0.01   0.03
  13   6    -0.03   0.00   0.05    -0.06   0.10   0.16    -0.03  -0.08   0.01
  14   1     0.00   0.01   0.02    -0.01   0.02   0.05    -0.01  -0.03  -0.00
  15   1    -0.02  -0.00   0.03    -0.03   0.03   0.05    -0.00  -0.02  -0.01
  16   1    -0.01   0.00   0.02    -0.02   0.03   0.06    -0.01  -0.03   0.01
  17   6    -0.09  -0.06  -0.04    -0.12   0.10   0.11    -0.01  -0.02   0.06
  18   1    -0.04  -0.02  -0.00    -0.04   0.03   0.03     0.01  -0.00   0.01
  19   1    -0.03  -0.02  -0.03    -0.04   0.03   0.02    -0.00  -0.00   0.03
  20   1    -0.03  -0.02  -0.01    -0.03   0.03   0.04    -0.00  -0.01   0.02
  21   1     0.01  -0.01  -0.05    -0.00  -0.00  -0.00    -0.02   0.02   0.01
  22   6    -0.04  -0.03   0.15     0.01   0.03   0.04     0.01  -0.05  -0.06
  23   8     0.01   0.11  -0.09     0.05  -0.03  -0.04    -0.04   0.24  -0.05
  24   7     0.21  -0.17   0.34     0.04   0.03   0.07     0.14  -0.18  -0.03
  25   1     0.12  -0.04   0.06     0.02  -0.01   0.00     0.06  -0.01   0.01
  26   1     0.05  -0.07   0.14     0.00   0.02   0.03     0.05  -0.11  -0.01
  27   7    -0.36  -0.07   0.29    -0.05   0.12   0.11    -0.07  -0.27  -0.12
  28   1    -0.11  -0.05   0.13    -0.02   0.04   0.05    -0.02  -0.13  -0.04
  29   1    -0.15   0.00   0.05    -0.02   0.03   0.03    -0.05  -0.05  -0.04
  30   6    -0.06  -0.03   0.06    -0.05   0.08  -0.16     0.09   0.02  -0.02
  31   8    -0.04  -0.02   0.02    -0.08   0.11   0.09    -0.01  -0.04   0.04
  32   7    -0.09   0.01   0.09     0.07  -0.13  -0.30     0.22  -0.00  -0.06
  33   1    -0.02   0.01   0.02     0.04  -0.08  -0.05     0.05  -0.02  -0.01
  34   1    -0.03   0.00   0.03     0.02  -0.04  -0.14     0.08   0.01  -0.03
  35   7    -0.06  -0.08   0.09    -0.15   0.29  -0.34     0.13   0.13  -0.07
  36   1    -0.02  -0.02   0.04    -0.03   0.08  -0.15     0.05   0.05  -0.04
  37   1    -0.01  -0.03   0.02    -0.06   0.12  -0.07     0.01   0.04  -0.02
  38   6     0.11   0.09   0.03     0.09  -0.13   0.05     0.00  -0.16   0.00
  39   8     0.08   0.09   0.04     0.07  -0.03   0.12    -0.05  -0.21   0.01
  40   7     0.16   0.12   0.09     0.12  -0.19   0.04     0.08  -0.32  -0.02
  41   1     0.04   0.04   0.04     0.03  -0.03   0.03     0.02  -0.12  -0.01
  42   1     0.05   0.04   0.02     0.04  -0.07   0.00     0.03  -0.08  -0.01
  43   7     0.15   0.09  -0.04     0.12  -0.23  -0.01    -0.00  -0.01   0.02
  44   1     0.05   0.02  -0.01     0.04  -0.09  -0.02     0.02   0.00   0.00
  45   1     0.03   0.02  -0.02     0.03  -0.05  -0.00    -0.01   0.03   0.01
  46   6     0.05   0.04  -0.16     0.06  -0.10  -0.04    -0.07   0.26   0.02
  47   8     0.06   0.03  -0.18     0.07  -0.13  -0.03    -0.08   0.27   0.04
  48   7     0.04   0.12  -0.17     0.09  -0.17  -0.05    -0.06   0.35   0.02
  49   1     0.01   0.05  -0.05     0.03  -0.06  -0.01    -0.02   0.11   0.01
  50   1     0.01   0.04  -0.05     0.02  -0.04  -0.02    -0.02   0.10  -0.00
  51   7     0.06  -0.02  -0.18     0.04  -0.04  -0.05    -0.08   0.23  -0.00
  52   1     0.02   0.00  -0.05     0.01  -0.01  -0.02    -0.02   0.07  -0.01
  53   1     0.02  -0.02  -0.05     0.01   0.00  -0.01    -0.02   0.05  -0.00
                      7                      8                      9
                        a                      a                      a 
 Frequencies --    29.0217                32.0563                35.1884
 Red. masses --    12.2628                12.7273                12.6689
 Frc consts  --     0.0000                 0.0000                 0.0000
 IR Inten    --     2.9211                 1.6033                 1.9121
 Raman Activ --     0.0000                 0.0000                 0.0000
 Depolar     --     0.0000                 0.0000                 0.0000
 Atom AN      X      Y      Z        X      Y      Z        X      Y      Z
   1   8     0.11  -0.26  -0.08     0.03  -0.01  -0.14     0.00   0.05  -0.21
   2   6    -0.03  -0.14  -0.04     0.01  -0.03  -0.04    -0.03   0.01  -0.06
   3   1    -0.02  -0.04  -0.01    -0.01  -0.02  -0.01    -0.03  -0.02  -0.02
   4   1    -0.04  -0.05  -0.01     0.00  -0.00  -0.00     0.00   0.01  -0.01
   5   6    -0.01   0.01   0.01     0.02  -0.00  -0.00     0.01   0.01   0.04
   6   1     0.00   0.00   0.00     0.01  -0.01  -0.00     0.03   0.03   0.02
   7   1    -0.03   0.02   0.01    -0.00   0.01  -0.00    -0.00  -0.01   0.04
   8   7     0.13   0.10   0.04     0.04   0.02   0.04    -0.05  -0.03  -0.00
   9   6     0.24   0.04   0.04     0.03  -0.02   0.09     0.00   0.05  -0.12
  10   1     0.07   0.01   0.01     0.01  -0.02   0.02     0.02   0.04  -0.02
  11   1     0.09   0.03   0.02     0.01  -0.00   0.04    -0.01   0.01  -0.04
  12   1     0.07  -0.02   0.01     0.01  -0.00   0.03    -0.00   0.01  -0.06
  13   6     0.10   0.23   0.07     0.03   0.03  -0.01    -0.02  -0.03   0.12
  14   1     0.03   0.07   0.02     0.00  -0.01  -0.01     0.02   0.01   0.05
  15   1     0.00   0.08   0.02     0.01   0.02  -0.02    -0.02  -0.03   0.06
  16   1     0.06   0.08   0.02     0.01   0.01   0.01    -0.01  -0.02   0.03
  17   6     0.13   0.09   0.04     0.08   0.08   0.06    -0.16  -0.14  -0.05
  18   1     0.01   0.04   0.01     0.02   0.03   0.00    -0.06  -0.06   0.01
  19   1     0.04  -0.00   0.01     0.03   0.02   0.03    -0.05  -0.04  -0.04
  20   1     0.06   0.04   0.02     0.03   0.03   0.02    -0.06  -0.05  -0.02
  21   1     0.02  -0.06  -0.02     0.00   0.03  -0.03     0.02   0.03  -0.05
  22   6    -0.06   0.00  -0.02    -0.03  -0.07   0.01    -0.05  -0.09   0.10
  23   8    -0.15   0.23   0.12     0.03  -0.41  -0.03    -0.11  -0.21   0.34
  24   7    -0.05  -0.10  -0.10    -0.18   0.13   0.04    -0.24  -0.06  -0.08
  25   1    -0.02   0.01  -0.00    -0.07   0.00   0.00    -0.11  -0.03  -0.01
  26   1     0.01  -0.07  -0.05    -0.07   0.10   0.02    -0.05   0.01  -0.07
  27   7     0.00  -0.16  -0.13     0.04   0.08   0.05     0.20  -0.02   0.03
  28   1     0.01  -0.08  -0.06     0.01   0.09   0.02     0.06   0.02  -0.04
  29   1    -0.01  -0.02  -0.02     0.05  -0.02   0.01     0.09  -0.01   0.04
  30   6    -0.05  -0.00   0.00    -0.00   0.00   0.02     0.00  -0.02  -0.02
  31   8     0.25   0.21   0.08     0.07   0.06   0.11    -0.11  -0.11  -0.09
  32   7    -0.26  -0.17  -0.05    -0.03  -0.10  -0.02     0.07   0.08   0.01
  33   1    -0.04  -0.02  -0.00     0.01  -0.03   0.00     0.00   0.02  -0.00
  34   1    -0.13  -0.08  -0.03    -0.02  -0.03  -0.02     0.04   0.03   0.02
  35   7    -0.22  -0.10  -0.04    -0.06   0.03  -0.03     0.08  -0.01   0.01
  36   1    -0.11  -0.07  -0.02    -0.03  -0.00  -0.02     0.04   0.01   0.02
  37   1    -0.01   0.01   0.00    -0.01   0.03   0.00     0.00  -0.02  -0.00
  38   6     0.02  -0.01  -0.01     0.03  -0.02   0.02     0.14   0.03   0.02
  39   8     0.04   0.12   0.05    -0.05  -0.15  -0.02     0.10   0.21   0.12
  40   7    -0.00  -0.02  -0.04     0.13  -0.16   0.04     0.18  -0.03   0.02
  41   1     0.00   0.02  -0.00     0.03  -0.10   0.01     0.05   0.03   0.03
  42   1     0.00  -0.03  -0.02     0.05  -0.02   0.01     0.07  -0.04  -0.01
  43   7     0.03  -0.13  -0.03     0.02   0.27   0.04     0.20  -0.13  -0.09
  44   1     0.01  -0.06  -0.03     0.03   0.09   0.01     0.06  -0.07  -0.05
  45   1     0.01  -0.04  -0.01    -0.01   0.09   0.00     0.04  -0.02  -0.03
  46   6    -0.05   0.02   0.02    -0.05   0.06  -0.06    -0.05   0.10  -0.02
  47   8    -0.01  -0.11  -0.05    -0.10   0.33  -0.09    -0.00   0.10  -0.19
  48   7    -0.16   0.18   0.05    -0.13   0.23  -0.04    -0.21   0.02   0.02
  49   1    -0.06   0.06  -0.00    -0.05   0.16  -0.02    -0.08  -0.02  -0.02
  50   1    -0.05   0.07   0.03    -0.02   0.01  -0.01    -0.06  -0.01   0.04
  51   7    -0.00   0.00   0.08     0.06  -0.39  -0.05     0.03   0.25   0.11
  52   1    -0.01   0.02   0.03     0.02  -0.15  -0.01     0.00   0.04   0.07
  53   1     0.02  -0.03   0.02     0.03  -0.13  -0.02     0.05   0.06   0.02
                     10                     11                     12
                        a                      a                      a 
 Frequencies --    38.8539                44.0471                53.5772
 Red. masses --    12.2318                12.7865                12.8382
 Frc consts  --     0.0000                 0.0000                 0.0000
 IR Inten    --     2.3020                 1.0851                 2.3518
 Raman Activ --     0.0000                 0.0000                 0.0000
 Depolar     --     0.0000                 0.0000                 0.0000
 Atom AN      X      Y      Z        X      Y      Z        X      Y      Z
   1   8    -0.07  -0.09   0.11     0.03   0.16   0.04     0.13   0.23  -0.00
   2   6    -0.11  -0.08   0.17     0.06   0.14  -0.03     0.16   0.12   0.07
   3   1    -0.02  -0.05   0.05     0.02   0.06  -0.01     0.03   0.02   0.02
   4   1    -0.05  -0.02   0.08     0.03   0.04  -0.03     0.07   0.05   0.04
   5   6    -0.11   0.03   0.14     0.06   0.06  -0.02     0.18   0.08   0.14
   6   1    -0.04   0.04   0.04     0.02   0.02  -0.01     0.07   0.04   0.04
   7   1    -0.04   0.00   0.06     0.03   0.01  -0.00     0.06   0.01   0.06
   8   7    -0.05   0.04   0.01    -0.02   0.01  -0.03     0.13   0.04   0.11
   9   6     0.01   0.10  -0.10    -0.04   0.05  -0.07     0.06   0.08   0.08
  10   1    -0.00   0.06  -0.02     0.00   0.02  -0.02     0.02   0.03   0.02
  11   1     0.02   0.03  -0.06    -0.03   0.01  -0.02     0.00   0.01   0.01
  12   1     0.00   0.01  -0.04    -0.02   0.03  -0.03     0.01   0.04   0.02
  13   6    -0.06   0.13   0.04    -0.00  -0.07   0.04     0.13  -0.03   0.09
  14   1    -0.02   0.07   0.02     0.02  -0.01   0.02     0.04   0.00   0.03
  15   1    -0.03   0.02   0.04     0.01  -0.03   0.02     0.05  -0.02   0.03
  16   1    -0.00   0.04  -0.02    -0.02  -0.03   0.01     0.02  -0.02   0.01
  17   6    -0.03  -0.12  -0.03    -0.11  -0.02  -0.04     0.12   0.00   0.09
  18   1    -0.02  -0.05   0.02    -0.02  -0.02  -0.00     0.05  -0.01   0.03
  19   1    -0.01  -0.05  -0.02    -0.04   0.01  -0.03     0.03   0.02   0.03
  20   1     0.00  -0.03  -0.04    -0.05  -0.02  -0.01     0.02  -0.01   0.02
  21   1    -0.02   0.00   0.03     0.01   0.02   0.01     0.01   0.08   0.00
  22   6     0.11   0.00  -0.00    -0.06   0.08  -0.01    -0.17  -0.02  -0.12
  23   8     0.18  -0.11  -0.12    -0.14   0.35   0.11    -0.16  -0.05  -0.28
  24   7     0.13   0.08   0.08    -0.01  -0.04  -0.07    -0.13   0.01  -0.03
  25   1     0.05   0.01   0.01    -0.00   0.03   0.00    -0.01  -0.00  -0.02
  26   1     0.02   0.04   0.04     0.02  -0.06  -0.04    -0.04   0.00   0.01
  27   7     0.05   0.05   0.05    -0.03  -0.09  -0.10    -0.31  -0.02  -0.08
  28   1     0.01   0.03   0.03    -0.00  -0.07  -0.05    -0.09   0.00   0.01
  29   1     0.02  -0.00  -0.00    -0.03   0.00  -0.02    -0.09  -0.01  -0.04
  30   6    -0.01   0.02  -0.08    -0.04   0.00  -0.01     0.07  -0.10  -0.01
  31   8     0.04   0.03  -0.29    -0.21  -0.11  -0.05     0.08  -0.13  -0.04
  32   7    -0.14   0.17   0.01     0.06   0.08   0.01     0.07  -0.09   0.01
  33   1    -0.05   0.08  -0.02    -0.00   0.01  -0.00     0.01  -0.02  -0.00
  34   1    -0.05   0.04   0.04     0.05   0.04   0.01     0.02  -0.02   0.01
  35   7     0.05  -0.15   0.04     0.05   0.06   0.00     0.10  -0.13   0.01
  36   1     0.00  -0.04   0.05     0.04   0.04   0.01     0.03  -0.03   0.01
  37   1     0.04  -0.07  -0.00    -0.01   0.00  -0.01     0.03  -0.04   0.00
  38   6    -0.04  -0.05  -0.05     0.06   0.01   0.00    -0.02   0.02   0.07
  39   8    -0.06   0.28   0.09     0.11   0.07   0.02    -0.02   0.25   0.18
  40   7    -0.03  -0.30  -0.22     0.04  -0.01  -0.05    -0.04  -0.01   0.03
  41   1    -0.01  -0.05  -0.05     0.01   0.01  -0.02    -0.01   0.04   0.03
  42   1    -0.01  -0.15  -0.08     0.00  -0.01  -0.01    -0.01  -0.05  -0.00
  43   7    -0.04  -0.21  -0.07     0.06  -0.03   0.03     0.01  -0.20   0.01
  44   1    -0.01  -0.11  -0.06     0.01  -0.03  -0.00     0.00  -0.09  -0.02
  45   1    -0.01  -0.01   0.01     0.02  -0.01   0.01    -0.00  -0.03   0.01
  46   6     0.04   0.06   0.05     0.03  -0.15   0.06    -0.09  -0.00  -0.08
  47   8     0.01   0.15   0.13     0.04  -0.10   0.01    -0.15   0.14  -0.04
  48   7     0.10   0.15   0.04    -0.09   0.14   0.10    -0.03  -0.18  -0.11
  49   1     0.03   0.08   0.02    -0.05   0.14   0.01    -0.00  -0.03  -0.02
  50   1     0.04   0.02  -0.01    -0.03   0.06   0.03    -0.00  -0.05  -0.04
  51   7     0.04  -0.14  -0.01     0.16  -0.62   0.08    -0.13  -0.03  -0.13
  52   1     0.02  -0.05  -0.02     0.03  -0.11   0.03    -0.03  -0.02  -0.04
  53   1    -0.00  -0.05  -0.00     0.05  -0.17   0.02    -0.05   0.03  -0.03
                     13                     14                     15
                        a                      a                      a 
 Frequencies --    61.3105                64.3458                72.3280
 Red. masses --    12.5888                11.9859                13.4826
 Frc consts  --     0.0000                 0.0000                 0.0000
 IR Inten    --     0.0253                 6.1266                 6.4973
 Raman Activ --     0.0000                 0.0000                 0.0000
 Depolar     --     0.0000                 0.0000                 0.0000
 Atom AN      X      Y      Z        X      Y      Z        X      Y      Z
   1   8    -0.01  -0.04   0.04    -0.10   0.11  -0.11     0.07  -0.06   0.09
   2   6    -0.03  -0.01   0.02    -0.06  -0.02   0.07     0.05   0.03  -0.06
   3   1    -0.00  -0.00   0.01    -0.03  -0.05   0.02     0.02   0.05  -0.01
   4   1    -0.02  -0.01   0.01    -0.01   0.01   0.06     0.01  -0.00  -0.05
   5   6    -0.03   0.03   0.01    -0.06   0.00   0.09     0.05   0.01  -0.07
   6   1    -0.01   0.01   0.00    -0.02   0.00   0.03     0.01  -0.02  -0.02
   7   1    -0.01   0.01   0.01    -0.02   0.00   0.03     0.01   0.01  -0.04
   8   7     0.00   0.04  -0.01    -0.03   0.02   0.08     0.06   0.04  -0.01
   9   6     0.06   0.05  -0.05    -0.17  -0.04   0.22     0.09  -0.00   0.02
  10   1     0.02   0.03  -0.01    -0.10  -0.03   0.05     0.04  -0.01   0.00
  11   1     0.02   0.02  -0.02    -0.04  -0.01   0.05     0.03   0.00   0.02
  12   1     0.02   0.00  -0.03    -0.04  -0.01   0.12     0.03  -0.00  -0.00
  13   6     0.00   0.09   0.05    -0.06  -0.01  -0.16     0.06   0.04   0.04
  14   1     0.01   0.03   0.02    -0.06  -0.02  -0.06     0.03   0.00   0.01
  15   1    -0.01   0.02   0.02     0.01   0.01  -0.08     0.01   0.02   0.01
  16   1     0.01   0.03   0.01    -0.01  -0.00  -0.06     0.02   0.01   0.02
  17   6    -0.03  -0.02  -0.03     0.21   0.12   0.13     0.01   0.08  -0.00
  18   1    -0.02  -0.01   0.00     0.09   0.05   0.01     0.00   0.03  -0.00
  19   1    -0.01  -0.01  -0.02     0.07   0.04   0.10    -0.00   0.03  -0.01
  20   1    -0.00  -0.00  -0.01     0.07   0.04   0.02    -0.00   0.02   0.01
  21   1    -0.01  -0.01   0.01     0.01   0.04  -0.03    -0.00  -0.03   0.02
  22   6    -0.10   0.02  -0.02     0.01   0.04   0.05    -0.02  -0.06  -0.05
  23   8    -0.15   0.12   0.02    -0.04   0.15   0.16     0.03  -0.22  -0.17
  24   7    -0.09  -0.04  -0.05    -0.00  -0.03  -0.02    -0.04   0.03   0.02
  25   1    -0.02  -0.00  -0.01    -0.01   0.01   0.01    -0.00  -0.01  -0.01
  26   1    -0.02  -0.03  -0.02     0.01  -0.03  -0.02    -0.02   0.03   0.02
  27   7    -0.11  -0.03  -0.05     0.07  -0.02  -0.00    -0.08   0.02   0.01
  28   1    -0.03  -0.02  -0.02     0.02  -0.02  -0.02    -0.03   0.03   0.02
  29   1    -0.04   0.01  -0.01     0.02   0.01   0.02    -0.01  -0.02  -0.02
  30   6     0.00   0.04  -0.10     0.02   0.01  -0.11    -0.08   0.07  -0.12
  31   8     0.07   0.08  -0.26     0.08   0.03  -0.31    -0.17   0.01  -0.32
  32   7    -0.12   0.15  -0.03    -0.11   0.14  -0.03    -0.12   0.25  -0.04
  33   1    -0.04   0.07  -0.03    -0.05   0.07  -0.03    -0.06   0.08  -0.03
  34   1    -0.05   0.04   0.02    -0.04   0.04   0.03    -0.02   0.08   0.03
  35   7     0.04  -0.09  -0.00     0.09  -0.13   0.00     0.05  -0.00  -0.01
  36   1    -0.00  -0.03   0.03     0.01  -0.04   0.04     0.02   0.01   0.03
  37   1     0.04  -0.05  -0.01     0.05  -0.07  -0.02     0.01  -0.04  -0.02
  38   6     0.13  -0.00   0.08    -0.05  -0.05   0.05     0.09  -0.13   0.10
  39   8     0.14  -0.13   0.04    -0.27  -0.14   0.08     0.23  -0.33   0.00
  40   7     0.22  -0.31  -0.04     0.09   0.06   0.30    -0.02   0.18   0.20
  41   1     0.06  -0.16  -0.04     0.01   0.01   0.13     0.00   0.06   0.03
  42   1     0.04  -0.05   0.00     0.08   0.02   0.07    -0.02   0.08   0.07
  43   7     0.06   0.46   0.28     0.05  -0.10  -0.20     0.08  -0.24   0.15
  44   1     0.03   0.12   0.07     0.05  -0.00  -0.05    -0.00  -0.02   0.07
  45   1     0.02   0.11   0.07    -0.01  -0.02  -0.08     0.03  -0.09   0.04
  46   6    -0.01  -0.08   0.02     0.07  -0.03  -0.07    -0.07   0.04   0.04
  47   8    -0.03  -0.02   0.04     0.09   0.03  -0.16    -0.06  -0.16   0.08
  48   7     0.05  -0.35   0.01     0.01  -0.09  -0.06    -0.08   0.30   0.04
  49   1     0.02  -0.10   0.01    -0.01  -0.01  -0.03    -0.01   0.05   0.02
  50   1     0.01  -0.07   0.00    -0.00  -0.01   0.00    -0.02   0.07   0.00
  51   7    -0.05   0.05   0.02     0.14  -0.08  -0.02    -0.12   0.07   0.01
  52   1    -0.01   0.02   0.00     0.03  -0.01   0.01    -0.03   0.01  -0.01
  53   1    -0.03   0.06   0.01     0.05  -0.00  -0.01    -0.03  -0.04   0.00
                     16                     17                     18
                        a                      a                      a 
 Frequencies --    81.7708                90.2829                96.8369
 Red. masses --    13.3748                13.8029                11.8056
 Frc consts  --     0.0000                 0.0000                 0.0000
 IR Inten    --     4.5658                 2.2104                 1.8846
 Raman Activ --     0.0000                 0.0000                 0.0000
 Depolar     --     0.0000                 0.0000                 0.0000
 Atom AN      X      Y      Z        X      Y      Z        X      Y      Z
   1   8     0.10  -0.21  -0.07     0.07  -0.18  -0.02     0.16  -0.01  -0.14
   2   6     0.01  -0.13  -0.03     0.03  -0.17   0.08     0.04   0.08  -0.15
   3   1    -0.01  -0.04  -0.01     0.02  -0.08   0.02    -0.02   0.05  -0.04
   4   1    -0.01  -0.05  -0.01    -0.01  -0.05   0.05     0.01   0.01  -0.08
   5   6     0.03  -0.03   0.03     0.02  -0.08   0.03     0.09   0.08   0.00
   6   1     0.02  -0.02   0.01    -0.01  -0.01   0.01     0.06   0.02   0.00
   7   1    -0.01   0.01   0.01    -0.00  -0.02   0.01     0.01   0.02   0.02
   8   7     0.12   0.03   0.09     0.09  -0.06  -0.03     0.05   0.08   0.07
   9   6     0.09  -0.06   0.20     0.13  -0.03  -0.08     0.23   0.11  -0.08
  10   1     0.00  -0.04   0.05     0.05  -0.00  -0.02     0.10   0.06  -0.01
  11   1     0.04  -0.01   0.07     0.03  -0.01  -0.02     0.07   0.04  -0.02
  12   1     0.03  -0.02   0.08     0.03  -0.01  -0.04     0.06   0.01  -0.07
  13   6     0.08   0.06  -0.03     0.07   0.02  -0.01     0.09   0.12   0.33
  14   1    -0.00   0.01  -0.01     0.02   0.02  -0.00     0.07   0.05   0.11
  15   1     0.03   0.03  -0.03     0.01   0.01   0.00    -0.01   0.03   0.13
  16   1     0.03   0.02  -0.01     0.03   0.01  -0.01     0.02   0.03   0.11
  17   6     0.22   0.14   0.13     0.08  -0.12  -0.05    -0.22  -0.03   0.00
  18   1     0.09   0.06   0.01     0.01  -0.04  -0.00    -0.09  -0.03   0.04
  19   1     0.07   0.05   0.07     0.03  -0.05  -0.02    -0.07  -0.01  -0.06
  20   1     0.06   0.04   0.04     0.04  -0.03  -0.02    -0.08  -0.02   0.01
  21   1     0.03  -0.05  -0.02    -0.00   0.01   0.00     0.03  -0.01  -0.03
  22   6     0.02  -0.00   0.00    -0.03   0.04   0.00     0.11   0.04   0.05
  23   8     0.02  -0.02  -0.00    -0.06   0.13   0.04     0.11   0.10   0.08
  24   7     0.02   0.00   0.01    -0.01  -0.01  -0.02     0.13   0.01   0.03
  25   1     0.00  -0.00   0.00    -0.00   0.01   0.00     0.04   0.01   0.01
  26   1     0.00   0.00   0.00     0.00  -0.02  -0.01     0.04  -0.00   0.01
  27   7     0.02   0.00   0.01    -0.03  -0.01  -0.03     0.14   0.02   0.03
  28   1     0.00   0.00   0.00    -0.01  -0.02  -0.01     0.04  -0.01  -0.00
  29   1     0.01  -0.00   0.00    -0.02   0.01  -0.00     0.04   0.01   0.01
  30   6    -0.17  -0.04  -0.02    -0.13   0.11   0.01     0.01  -0.06  -0.03
  31   8    -0.54  -0.28  -0.07    -0.25   0.06   0.04    -0.03  -0.10  -0.09
  32   7     0.06   0.10   0.01    -0.06   0.12   0.00     0.03  -0.00  -0.00
  33   1    -0.03  -0.02  -0.01    -0.02   0.02   0.00    -0.01  -0.00  -0.01
  34   1     0.08   0.06   0.01     0.01   0.05  -0.00     0.01   0.00   0.01
  35   7     0.04   0.13   0.01    -0.10   0.21  -0.01     0.07  -0.07   0.01
  36   1     0.05   0.07   0.00    -0.02   0.06  -0.02     0.03  -0.01   0.01
  37   1    -0.06   0.00  -0.01    -0.06   0.05  -0.00     0.01  -0.03  -0.01
  38   6    -0.05   0.09  -0.03     0.03  -0.05  -0.03    -0.23  -0.09   0.03
  39   8    -0.09   0.24   0.04     0.06  -0.14  -0.08    -0.34  -0.24  -0.01
  40   7    -0.01  -0.13  -0.14    -0.02   0.16   0.06    -0.16  -0.06   0.15
  41   1    -0.00  -0.04  -0.04    -0.00   0.05   0.01    -0.05  -0.05   0.05
  42   1    -0.00  -0.06  -0.04    -0.01   0.05   0.02    -0.03   0.00   0.04
  43   7    -0.07   0.18   0.01     0.04  -0.19  -0.10    -0.22   0.05  -0.03
  44   1    -0.01   0.01  -0.03     0.01  -0.00   0.01    -0.04   0.04   0.01
  45   1    -0.02   0.05   0.00     0.01  -0.02  -0.01    -0.07   0.01  -0.02
  46   6     0.01  -0.03  -0.04     0.01   0.09   0.05    -0.02  -0.01  -0.07
  47   8     0.04  -0.16  -0.06    -0.09   0.56   0.09    -0.03   0.04  -0.09
  48   7    -0.01   0.04  -0.03     0.10  -0.34   0.03    -0.02  -0.07  -0.07
  49   1    -0.00  -0.02  -0.01     0.02   0.00   0.01    -0.01  -0.01  -0.02
  50   1    -0.01   0.02  -0.00     0.03  -0.10   0.00    -0.01  -0.02  -0.02
  51   7     0.00   0.08  -0.02     0.03  -0.11   0.03     0.00  -0.02  -0.05
  52   1    -0.00   0.02  -0.00     0.02  -0.05   0.00    -0.00  -0.01  -0.01
  53   1     0.01  -0.01  -0.01    -0.01   0.05   0.01     0.01   0.01  -0.01
                     19                     20                     21
                        a                      a                      a 
 Frequencies --   103.4160               115.2455               118.4869
 Red. masses --    12.3985                11.5696                12.2680
 Frc consts  --     0.0000                 0.0000                 0.0000
 IR Inten    --    12.2336                17.1022                11.0201
 Raman Activ --     0.0000                 0.0000                 0.0000
 Depolar     --     0.0000                 0.0000                 0.0000
 Atom AN      X      Y      Z        X      Y      Z        X      Y      Z
   1   8    -0.14  -0.08   0.00     0.02  -0.05  -0.13     0.00  -0.07  -0.05
   2   6    -0.19   0.02  -0.05     0.03   0.02  -0.25    -0.01   0.02  -0.16
   3   1    -0.05   0.02  -0.01    -0.01   0.07  -0.07     0.01   0.03  -0.04
   4   1    -0.08  -0.01  -0.03     0.03  -0.01  -0.13    -0.02  -0.01  -0.06
   5   6    -0.19   0.10  -0.08     0.05  -0.12  -0.15    -0.04   0.03  -0.23
   6   1    -0.07   0.00  -0.03     0.04  -0.08  -0.05    -0.03  -0.00  -0.07
   7   1    -0.07   0.05  -0.05     0.02  -0.02  -0.07    -0.01   0.02  -0.08
   8   7    -0.09   0.20   0.02    -0.04  -0.13   0.08     0.00   0.06  -0.23
   9   6     0.01   0.08   0.10    -0.07  -0.23   0.23     0.00   0.01  -0.15
  10   1     0.01  -0.00   0.02    -0.01  -0.11   0.06    -0.01  -0.01  -0.05
  11   1     0.01   0.04   0.06    -0.03  -0.06   0.11     0.01   0.01  -0.03
  12   1     0.00   0.01   0.02    -0.02  -0.04   0.07     0.00  -0.00  -0.03
  13   6    -0.09   0.26   0.01    -0.02  -0.23   0.09    -0.00   0.07  -0.24
  14   1    -0.03   0.06  -0.00     0.01  -0.09   0.02    -0.01   0.01  -0.07
  15   1    -0.04   0.09  -0.01     0.00  -0.06   0.01    -0.00   0.03  -0.08
  16   1    -0.01   0.09   0.02    -0.02  -0.07   0.05     0.00   0.02  -0.06
  17   6    -0.03   0.26   0.05    -0.11   0.12   0.14     0.05   0.11  -0.19
  18   1    -0.02   0.09  -0.00    -0.03   0.06   0.00     0.02   0.04  -0.07
  19   1    -0.00   0.06   0.03    -0.04   0.06   0.04     0.02   0.03  -0.04
  20   1     0.00   0.08   0.03    -0.04   0.04   0.09     0.02   0.04  -0.05
  21   1    -0.04  -0.02   0.00    -0.02  -0.02  -0.03    -0.01  -0.02  -0.01
  22   6    -0.00   0.01   0.02     0.12   0.04   0.04     0.09   0.03  -0.06
  23   8    -0.01   0.04   0.05     0.12   0.10   0.07     0.14   0.02  -0.18
  24   7    -0.00  -0.01  -0.01     0.15   0.01   0.04     0.18   0.05   0.04
  25   1    -0.00   0.00   0.00     0.04   0.02   0.02     0.07   0.02   0.00
  26   1     0.00  -0.01  -0.01     0.04   0.00   0.02     0.04   0.01   0.04
  27   7     0.02   0.00   0.00     0.14   0.03   0.03    -0.01   0.03  -0.01
  28   1     0.01  -0.01  -0.01     0.04  -0.01  -0.00    -0.01   0.00   0.02
  29   1     0.01   0.00   0.01     0.04   0.01   0.01    -0.01  -0.00  -0.03
  30   6     0.08  -0.23   0.01     0.03   0.06  -0.07     0.00  -0.04   0.03
  31   8    -0.02  -0.34  -0.02     0.13   0.13  -0.14    -0.04  -0.07   0.07
  32   7     0.18  -0.19   0.03    -0.09   0.10  -0.04     0.06  -0.06   0.01
  33   1     0.01  -0.08  -0.00    -0.01   0.06  -0.02     0.01  -0.03   0.01
  34   1     0.04  -0.06   0.00    -0.04   0.02   0.01     0.01  -0.02  -0.01
  35   7     0.17  -0.24   0.04     0.00  -0.04  -0.03     0.00  -0.00   0.00
  36   1     0.08  -0.03   0.03    -0.02  -0.02   0.01     0.02   0.01  -0.00
  37   1     0.05  -0.07   0.01     0.03  -0.02  -0.01    -0.00   0.01   0.01
  38   6     0.10  -0.01  -0.07     0.01   0.06   0.04    -0.01  -0.00   0.18
  39   8     0.24  -0.10  -0.15     0.18   0.22   0.07    -0.17   0.14   0.32
  40   7    -0.01   0.15  -0.10    -0.12   0.02  -0.15     0.13  -0.14   0.27
  41   1     0.01   0.04  -0.06    -0.02   0.04  -0.06     0.02  -0.02   0.13
  42   1    -0.03   0.05  -0.02    -0.07  -0.03  -0.04     0.08  -0.04   0.06
  43   7     0.07  -0.07   0.01    -0.03  -0.06   0.17     0.05  -0.05   0.05
  44   1    -0.00   0.01   0.03    -0.03  -0.05   0.03     0.04  -0.06  -0.02
  45   1     0.03  -0.02   0.02     0.00  -0.00   0.06    -0.01   0.00  -0.00
  46   6    -0.02   0.04   0.03    -0.12   0.02  -0.02    -0.10  -0.02   0.12
  47   8    -0.06   0.21   0.07    -0.17   0.19  -0.00    -0.10   0.05   0.03
  48   7     0.04  -0.09   0.02    -0.08  -0.13  -0.03    -0.19  -0.15   0.17
  49   1     0.01   0.01   0.01    -0.02   0.01  -0.00    -0.07  -0.00   0.03
  50   1     0.01  -0.03  -0.00    -0.02  -0.03  -0.01    -0.06  -0.03   0.06
  51   7    -0.02  -0.05   0.01    -0.11  -0.08  -0.02    -0.04  -0.01   0.23
  52   1    -0.00  -0.02  -0.01    -0.03  -0.03  -0.01    -0.01  -0.01   0.08
  53   1    -0.02   0.01   0.00    -0.03   0.02  -0.00     0.01   0.01   0.06
                     22                     23                     24
                        a                      a                      a 
 Frequencies --   124.2947               132.2476               172.1566
 Red. masses --    12.3150                11.9580                12.5453
 Frc consts  --     0.0000                 0.0000                 0.0000
 IR Inten    --    16.7564                11.3586                12.0642
 Raman Activ --     0.0000                 0.0000                 0.0000
 Depolar     --     0.0000                 0.0000                 0.0000
 Atom AN      X      Y      Z        X      Y      Z        X      Y      Z
   1   8    -0.05   0.04   0.05    -0.06   0.15  -0.23    -0.02  -0.00   0.32
   2   6     0.00  -0.01   0.06    -0.05  -0.06   0.15     0.06   0.02   0.11
   3   1     0.02  -0.03   0.02    -0.04  -0.12   0.04     0.05   0.03   0.04
   4   1    -0.00   0.00   0.05     0.00   0.01   0.13     0.01   0.00   0.02
   5   6    -0.01   0.03  -0.02    -0.00   0.05   0.26     0.01  -0.04  -0.04
   6   1    -0.02   0.03  -0.00     0.02   0.07   0.08    -0.03  -0.04  -0.02
   7   1    -0.00   0.01  -0.00    -0.02  -0.01   0.13     0.02   0.00  -0.05
   8   7     0.04   0.04  -0.13     0.02   0.02   0.07     0.03  -0.02   0.02
   9   6    -0.01   0.06  -0.13    -0.06   0.12  -0.02     0.08  -0.04   0.02
  10   1    -0.01   0.02  -0.04    -0.03   0.06  -0.00     0.04  -0.02   0.01
  11   1    -0.01   0.01  -0.05    -0.03   0.02  -0.04     0.02  -0.01   0.02
  12   1    -0.00   0.03  -0.03    -0.02   0.04  -0.00     0.02  -0.00  -0.01
  13   6     0.02   0.06  -0.19     0.00   0.04  -0.03     0.04   0.01   0.07
  14   1    -0.01   0.03  -0.06    -0.02   0.02  -0.01     0.02   0.01   0.02
  15   1     0.01   0.02  -0.06     0.01   0.00  -0.01     0.00   0.00   0.03
  16   1     0.01   0.02  -0.07     0.01   0.01  -0.03     0.01   0.00   0.02
  17   6     0.14  -0.01  -0.12     0.15  -0.14   0.04    -0.02  -0.01   0.02
  18   1     0.05  -0.01  -0.03     0.06  -0.06   0.03    -0.02   0.00   0.01
  19   1     0.05  -0.01  -0.02     0.05  -0.05   0.03    -0.01  -0.01  -0.01
  20   1     0.05  -0.00  -0.06     0.05  -0.04  -0.03    -0.00   0.00   0.02
  21   1    -0.03   0.02   0.01     0.01   0.08  -0.06    -0.06  -0.01   0.08
  22   6     0.04   0.01   0.14     0.15   0.05  -0.02     0.07   0.02   0.04
  23   8    -0.01   0.08   0.32     0.19   0.07  -0.10     0.06   0.06   0.08
  24   7    -0.03  -0.05  -0.01     0.24   0.04   0.06     0.09  -0.01   0.03
  25   1    -0.04   0.00   0.02     0.09   0.02   0.01     0.02   0.01   0.02
  26   1     0.00  -0.01  -0.03     0.05   0.01   0.05     0.02   0.00   0.01
  27   7     0.21   0.00   0.07     0.08   0.04   0.01     0.12   0.02   0.03
  28   1     0.07  -0.01  -0.03     0.02  -0.01   0.01     0.04  -0.01  -0.01
  29   1     0.07   0.01   0.05     0.02   0.00  -0.02     0.04   0.00   0.01
  30   6    -0.01  -0.01   0.03    -0.01   0.01   0.02    -0.00  -0.00  -0.00
  31   8    -0.04  -0.02   0.07    -0.02   0.01   0.04    -0.01  -0.01  -0.01
  32   7     0.03  -0.03   0.02    -0.00  -0.01   0.01    -0.01  -0.00  -0.00
  33   1     0.00  -0.02   0.01     0.00  -0.00   0.01     0.01   0.01   0.00
  34   1     0.01  -0.01  -0.01     0.01   0.00   0.00     0.02   0.01   0.01
  35   7    -0.02   0.03   0.00    -0.02   0.03   0.01     0.02   0.02   0.00
  36   1     0.01   0.02  -0.01    -0.01   0.00  -0.00    -0.02  -0.02  -0.01
  37   1    -0.01   0.02   0.01    -0.01   0.01   0.00    -0.02  -0.01  -0.01
  38   6    -0.02  -0.05   0.18     0.05  -0.04  -0.04     0.11   0.06  -0.15
  39   8     0.10   0.01   0.20     0.21  -0.15  -0.13    -0.12   0.05  -0.12
  40   7    -0.11  -0.08   0.08    -0.06   0.06  -0.11     0.30   0.04   0.04
  41   1    -0.02  -0.00   0.00    -0.01   0.01  -0.07     0.06  -0.00   0.07
  42   1    -0.05  -0.02   0.03    -0.05   0.03  -0.02     0.14   0.02  -0.00
  43   7    -0.06  -0.10   0.31     0.00   0.03   0.11     0.18   0.08  -0.37
  44   1    -0.03  -0.05   0.07    -0.02   0.01   0.03     0.07   0.04  -0.09
  45   1    -0.01  -0.03   0.09     0.01  -0.03   0.02     0.04   0.04  -0.11
  46   6    -0.06  -0.00  -0.19    -0.19  -0.08  -0.04    -0.22  -0.07  -0.00
  47   8    -0.13  -0.02  -0.02    -0.16  -0.12  -0.22    -0.30  -0.11   0.11
  48   7     0.13   0.08  -0.27    -0.37  -0.12   0.02    -0.11  -0.00  -0.06
  49   1     0.06   0.00  -0.05    -0.12  -0.02  -0.02    -0.00  -0.04   0.01
  50   1     0.05   0.01  -0.10    -0.11  -0.02   0.03    -0.02  -0.01  -0.04
  51   7    -0.17  -0.07  -0.37    -0.09  -0.01   0.12    -0.36  -0.09  -0.14
  52   1    -0.04  -0.01  -0.13    -0.03  -0.01   0.07    -0.09  -0.01  -0.07
  53   1    -0.08  -0.01  -0.09     0.02  -0.02   0.02    -0.14  -0.01  -0.03
                     25                     26                     27
                        a                      a                      a 
 Frequencies --   183.7350               193.6901               250.4486
 Red. masses --     3.6472                10.4532                 3.5897
 Frc consts  --     0.0000                 0.0000                 0.0000
 IR Inten    --    10.9297                 8.4491                21.5265
 Raman Activ --     0.0000                 0.0000                 0.0000
 Depolar     --     0.0000                 0.0000                 0.0000
 Atom AN      X      Y      Z        X      Y      Z        X      Y      Z
   1   8    -0.05   0.04  -0.01     0.41  -0.40  -0.04    -0.02   0.01  -0.03
   2   6    -0.02   0.01  -0.00    -0.03   0.03  -0.14    -0.01  -0.00  -0.02
   3   1    -0.00  -0.00  -0.00    -0.07   0.09  -0.04    -0.01   0.00  -0.01
   4   1    -0.00   0.01   0.00    -0.06  -0.04  -0.14     0.00   0.00  -0.01
   5   6    -0.02  -0.01  -0.03     0.10   0.23   0.22     0.00  -0.00   0.00
   6   1    -0.01  -0.01  -0.01     0.11   0.15   0.08     0.01   0.00   0.00
   7   1    -0.01   0.00  -0.02    -0.00   0.02   0.18    -0.00  -0.00   0.01
   8   7    -0.00   0.01  -0.01    -0.08   0.10   0.03     0.00  -0.00   0.00
   9   6     0.03  -0.01   0.00    -0.31   0.23  -0.03     0.00   0.00  -0.00
  10   1     0.02  -0.01   0.00    -0.18   0.12  -0.01     0.00   0.00  -0.00
  11   1     0.01   0.00   0.01    -0.05   0.07  -0.11     0.00   0.00  -0.00
  12   1     0.01  -0.00  -0.01    -0.07   0.03   0.08     0.00   0.00  -0.00
  13   6    -0.00   0.03   0.00    -0.06  -0.16  -0.10     0.00   0.00   0.00
  14   1     0.00   0.01   0.00    -0.03  -0.09  -0.04     0.00   0.00  -0.00
  15   1    -0.01   0.01   0.00     0.03  -0.04  -0.07     0.00   0.00  -0.00
  16   1     0.00   0.01  -0.00    -0.06  -0.07  -0.01     0.00   0.00   0.00
  17   6     0.00   0.01  -0.01    -0.04   0.03   0.01     0.01  -0.01   0.00
  18   1     0.00   0.00  -0.00     0.09  -0.03   0.01     0.01  -0.01   0.00
  19   1     0.00   0.00  -0.00    -0.03   0.10   0.03     0.00   0.00   0.00
  20   1     0.00   0.00  -0.01    -0.08  -0.05  -0.04    -0.00  -0.01  -0.00
  21   1    -0.00   0.01  -0.00     0.05  -0.10  -0.01    -0.00   0.00  -0.01
  22   6    -0.00  -0.00  -0.00     0.00   0.00   0.01     0.03   0.01   0.01
  23   8    -0.00  -0.00  -0.00    -0.00   0.01   0.02     0.02   0.01   0.01
  24   7    -0.00  -0.00  -0.00    -0.00  -0.01  -0.00    -0.10   0.23   0.17
  25   1    -0.00  -0.00  -0.00    -0.00   0.00   0.00     0.11  -0.25  -0.20
  26   1    -0.00   0.00  -0.00    -0.00   0.00  -0.00     0.20  -0.38  -0.27
  27   7    -0.00  -0.00  -0.00     0.01   0.00   0.01     0.07  -0.25  -0.19
  28   1    -0.00   0.00   0.00     0.01  -0.00  -0.00    -0.09   0.43   0.32
  29   1    -0.00   0.00  -0.00     0.01  -0.00   0.00    -0.09   0.27   0.22
  30   6     0.02  -0.03   0.00     0.02   0.00   0.01     0.00   0.00   0.00
  31   8     0.01  -0.03   0.00     0.04   0.02   0.02    -0.00   0.00   0.00
  32   7    -0.25  -0.17  -0.07    -0.02  -0.03  -0.00     0.00  -0.00   0.00
  33   1     0.31   0.20   0.10     0.03   0.02   0.01     0.00   0.00   0.00
  34   1     0.43   0.24   0.12     0.04   0.02   0.01     0.00   0.00   0.00
  35   7     0.24   0.17   0.07     0.02   0.01   0.01    -0.00   0.00  -0.00
  36   1    -0.37  -0.32  -0.11    -0.04  -0.03  -0.01     0.00   0.00   0.00
  37   1    -0.29  -0.22  -0.10    -0.02  -0.02  -0.01     0.00   0.00   0.00
  38   6    -0.01  -0.00   0.02     0.03  -0.01  -0.03     0.00   0.00  -0.00
  39   8     0.01   0.00   0.02     0.00  -0.04  -0.04    -0.00   0.00  -0.00
  40   7    -0.02  -0.01  -0.00     0.06   0.02   0.01     0.00  -0.00   0.00
  41   1    -0.00   0.00  -0.00     0.01  -0.00   0.01     0.00   0.00   0.00
  42   1    -0.01  -0.00   0.00     0.02   0.01   0.00     0.00   0.00   0.00
  43   7    -0.01  -0.01   0.03     0.03  -0.00  -0.05     0.00  -0.00  -0.00
  44   1    -0.00  -0.00   0.01     0.01   0.02  -0.00    -0.00   0.00   0.00
  45   1    -0.00  -0.00   0.01     0.01   0.01  -0.01     0.00   0.00   0.00
  46   6     0.01   0.00  -0.00    -0.04  -0.00   0.03    -0.02  -0.01   0.01
  47   8     0.02   0.01  -0.01    -0.07   0.00   0.11    -0.03  -0.01   0.02
  48   7     0.00  -0.00   0.00     0.06  -0.00   0.01     0.01   0.02  -0.00
  49   1    -0.00   0.00  -0.00     0.03   0.01   0.02     0.02  -0.04   0.01
  50   1     0.00   0.00   0.00     0.02   0.00  -0.02     0.01  -0.02  -0.01
  51   7     0.02   0.00   0.01    -0.11  -0.01  -0.04    -0.02  -0.03   0.01
  52   1     0.01   0.00   0.01    -0.02  -0.01  -0.03    -0.01   0.01   0.01
  53   1     0.01   0.00   0.00    -0.04  -0.02  -0.01    -0.01   0.03   0.00
                     28                     29                     30
                        a                      a                      a 
 Frequencies --   256.4046               278.7929               292.6199
 Red. masses --    12.1622                 5.5882                 3.4904
 Frc consts  --     0.0000                 0.0000                 0.0000
 IR Inten    --    12.5911                 5.2013                11.3531
 Raman Activ --     0.0000                 0.0000                 0.0000
 Depolar     --     0.0000                 0.0000                 0.0000
 Atom AN      X      Y      Z        X      Y      Z        X      Y      Z
   1   8     0.27  -0.20   0.44    -0.13  -0.00   0.30    -0.02   0.04   0.04
   2   6     0.12  -0.00   0.30    -0.08   0.19  -0.16    -0.01   0.05  -0.02
   3   1     0.09  -0.01   0.09    -0.05   0.21  -0.04    -0.00   0.03  -0.00
   4   1    -0.03  -0.02   0.11     0.01   0.02  -0.20     0.00   0.01  -0.02
   5   6    -0.02   0.07  -0.06    -0.02  -0.06   0.03    -0.01  -0.02  -0.01
   6   1    -0.08  -0.02  -0.03     0.03  -0.02   0.01    -0.00  -0.01  -0.00
   7   1     0.04   0.03  -0.08    -0.01  -0.02   0.02     0.00  -0.00  -0.01
   8   7    -0.08   0.04  -0.05     0.00  -0.07   0.05    -0.00  -0.02   0.00
   9   6    -0.05  -0.03   0.02     0.10  -0.09   0.02     0.03  -0.03   0.01
  10   1    -0.03  -0.02  -0.00    -0.15   0.05  -0.00    -0.02   0.00   0.00
  11   1     0.01   0.01   0.01     0.18   0.04  -0.12     0.03   0.00  -0.02
  12   1    -0.01  -0.03   0.02     0.08  -0.18   0.14     0.01  -0.03   0.02
  13   6    -0.07  -0.05  -0.03    -0.03   0.14  -0.00    -0.01   0.03   0.01
  14   1    -0.02  -0.01  -0.01    -0.02  -0.08  -0.04    -0.00  -0.02  -0.01
  15   1    -0.01  -0.02  -0.01    -0.07   0.16  -0.10    -0.02   0.03  -0.02
  16   1    -0.03  -0.02  -0.01     0.05   0.10   0.12     0.01   0.02   0.03
  17   6    -0.18   0.14  -0.03     0.12  -0.23   0.01     0.02  -0.04  -0.00
  18   1    -0.14   0.08  -0.02     0.32  -0.19   0.03     0.07  -0.04   0.00
  19   1    -0.04  -0.03  -0.05    -0.02   0.20   0.09    -0.01   0.05   0.02
  20   1    -0.00   0.09   0.05    -0.17  -0.24  -0.12    -0.04  -0.05  -0.03
  21   1     0.04  -0.05   0.12    -0.02  -0.09   0.07    -0.02   0.02   0.01
  22   6     0.01   0.01  -0.01     0.00   0.00  -0.01     0.01   0.00   0.02
  23   8     0.02   0.00  -0.02     0.00  -0.00  -0.01     0.00   0.00   0.02
  24   7     0.02   0.02   0.02     0.01   0.00   0.00    -0.02   0.00  -0.00
  25   1     0.02  -0.01  -0.01     0.01   0.00   0.00    -0.01  -0.01  -0.00
  26   1     0.02  -0.03  -0.01     0.00   0.00   0.01     0.01  -0.01  -0.02
  27   7     0.00  -0.01  -0.02    -0.00   0.01  -0.00     0.02  -0.02  -0.01
  28   1    -0.01   0.03   0.02     0.00  -0.01  -0.00    -0.00   0.04   0.03
  29   1    -0.01   0.02   0.01     0.00  -0.00  -0.01    -0.00   0.02   0.02
  30   6     0.01  -0.01  -0.00     0.00   0.01   0.01     0.00   0.00   0.00
  31   8     0.01  -0.01  -0.01    -0.00   0.01   0.01     0.00   0.00   0.00
  32   7     0.00  -0.01  -0.00    -0.01  -0.00   0.00    -0.00  -0.00  -0.00
  33   1     0.00   0.00   0.00     0.01   0.00   0.00     0.00   0.00   0.00
  34   1     0.01   0.00   0.00     0.01   0.01   0.00     0.00   0.00   0.00
  35   7     0.01  -0.01   0.00    -0.02   0.01  -0.00    -0.01  -0.00  -0.00
  36   1    -0.00  -0.01   0.00     0.02   0.02   0.00     0.01   0.01   0.00
  37   1     0.00  -0.01  -0.00     0.01   0.02   0.01     0.00   0.01   0.00
  38   6    -0.01  -0.01   0.02    -0.00   0.00   0.01     0.00  -0.01  -0.01
  39   8     0.04  -0.01   0.02     0.02   0.00   0.01    -0.01   0.00  -0.01
  40   7    -0.06   0.01  -0.02    -0.02  -0.00  -0.01     0.01   0.03   0.01
  41   1    -0.01  -0.00  -0.02    -0.00   0.01  -0.01    -0.00  -0.02   0.00
  42   1    -0.03  -0.01  -0.00    -0.01   0.01   0.00     0.01  -0.05  -0.02
  43   7    -0.02   0.01   0.07     0.00  -0.00   0.02     0.00   0.01   0.00
  44   1     0.00  -0.04  -0.01     0.00  -0.02  -0.00     0.01  -0.02  -0.02
  45   1    -0.02  -0.01  -0.00    -0.01   0.00   0.00     0.00  -0.02  -0.01
  46   6     0.03   0.04  -0.21     0.02   0.04  -0.08     0.01  -0.02  -0.01
  47   8     0.05   0.09  -0.33     0.02   0.08  -0.13     0.01  -0.04   0.00
  48   7    -0.27  -0.09  -0.14    -0.13   0.00  -0.06     0.07  -0.28   0.03
  49   1    -0.13   0.03  -0.10    -0.05  -0.09  -0.04    -0.07   0.66  -0.03
  50   1    -0.09  -0.01   0.03    -0.03  -0.04   0.02    -0.04   0.19  -0.04
  51   7     0.20   0.05  -0.02     0.11  -0.04  -0.00    -0.10   0.28  -0.03
  52   1     0.04  -0.01   0.05     0.01   0.04   0.03     0.04  -0.20  -0.03
  53   1     0.11   0.01  -0.01     0.02   0.11   0.00     0.09  -0.50  -0.04
                     31                     32                     33
                        a                      a                      a 
 Frequencies --   309.5954               315.7685               327.0747
 Red. masses --     2.8345                 9.5329                 3.4919
 Frc consts  --     0.0000                 0.0000                 0.0000
 IR Inten    --   142.3576                 1.5245               489.8160
 Raman Activ --     0.0000                 0.0000                 0.0000
 Depolar     --     0.0000                 0.0000                 0.0000
 Atom AN      X      Y      Z        X      Y      Z        X      Y      Z
   1   8    -0.00   0.00  -0.01     0.40   0.12  -0.19     0.01   0.03  -0.04
   2   6     0.00  -0.01   0.02     0.10   0.16   0.05     0.01  -0.01   0.03
   3   1     0.00  -0.01   0.00     0.01   0.00   0.01     0.01  -0.03   0.01
   4   1    -0.00  -0.00   0.01     0.02   0.05   0.04     0.00   0.00   0.03
   5   6    -0.00  -0.00   0.01     0.02   0.05   0.06    -0.00   0.00   0.00
   6   1    -0.00  -0.00   0.00    -0.00   0.01   0.02    -0.00   0.01   0.00
   7   1    -0.00   0.00   0.00     0.05  -0.02   0.02     0.00  -0.00   0.00
   8   7    -0.00   0.00   0.01    -0.15  -0.07   0.00    -0.01  -0.01  -0.02
   9   6     0.01   0.01  -0.01     0.06  -0.30   0.17     0.02  -0.02  -0.01
  10   1     0.00   0.01   0.00    -0.08  -0.10   0.03    -0.07   0.02  -0.01
  11   1     0.01   0.01  -0.01     0.13  -0.01   0.05     0.07   0.02  -0.05
  12   1     0.00  -0.00  -0.00     0.04  -0.20   0.12     0.02  -0.07   0.05
  13   6     0.00  -0.02   0.00    -0.25   0.32  -0.20    -0.00  -0.01  -0.01
  14   1    -0.00  -0.04  -0.01    -0.15   0.08  -0.07     0.01  -0.10  -0.03
  15   1    -0.00   0.02  -0.03    -0.11   0.15  -0.09    -0.03   0.07  -0.08
  16   1     0.00   0.00   0.03     0.03   0.15  -0.06     0.02   0.03   0.10
  17   6    -0.02   0.02   0.02    -0.14  -0.20  -0.03    -0.05   0.02  -0.01
  18   1    -0.00   0.01   0.00    -0.17  -0.04   0.02    -0.02   0.01  -0.01
  19   1    -0.01   0.01   0.00    -0.02  -0.19  -0.07    -0.01  -0.00  -0.01
  20   1    -0.01   0.00   0.01     0.06   0.01  -0.00    -0.01   0.01   0.01
  21   1     0.00   0.01  -0.00     0.10   0.05  -0.04     0.01   0.01  -0.01
  22   6     0.00  -0.00   0.00    -0.00   0.00   0.00    -0.00   0.00   0.00
  23   8    -0.00   0.00   0.00    -0.00   0.00   0.00     0.00  -0.00   0.00
  24   7    -0.00   0.00  -0.00    -0.00  -0.00  -0.00     0.00  -0.01  -0.00
  25   1    -0.00  -0.00  -0.00    -0.00   0.00   0.00    -0.00   0.00   0.00
  26   1     0.00  -0.00  -0.00    -0.00   0.00   0.00    -0.00   0.01   0.00
  27   7     0.00   0.00   0.00     0.00  -0.00   0.00     0.00  -0.01  -0.00
  28   1     0.00  -0.00  -0.00     0.00  -0.00  -0.00    -0.00   0.01   0.01
  29   1     0.00  -0.00  -0.00     0.00   0.00   0.00    -0.00   0.00   0.00
  30   6    -0.00  -0.00  -0.01    -0.00   0.00   0.01    -0.09  -0.06  -0.02
  31   8     0.00  -0.00  -0.00    -0.02  -0.01   0.00    -0.01  -0.01  -0.03
  32   7     0.01   0.01   0.01    -0.02  -0.02  -0.01     0.25   0.12   0.08
  33   1    -0.02  -0.01  -0.01     0.02   0.01   0.01    -0.22  -0.13  -0.08
  34   1    -0.03  -0.01  -0.00     0.05   0.02   0.01    -0.46  -0.26  -0.10
  35   7     0.02   0.01   0.00    -0.02  -0.02  -0.00     0.20   0.20   0.07
  36   1    -0.02  -0.02  -0.01     0.04   0.03   0.01    -0.42  -0.35  -0.10
  37   1    -0.01  -0.01  -0.01     0.01   0.01   0.01    -0.20  -0.16  -0.08
  38   6    -0.00   0.04  -0.02     0.01   0.00  -0.00     0.01   0.00   0.01
  39   8     0.00   0.01  -0.02     0.01   0.01  -0.00     0.00   0.01   0.01
  40   7     0.02  -0.35  -0.08     0.02  -0.00  -0.00    -0.00   0.02  -0.00
  41   1     0.01   0.36   0.11     0.00   0.01   0.00    -0.00  -0.02  -0.01
  42   1    -0.09   0.76   0.22     0.00   0.01   0.00     0.00  -0.06  -0.02
  43   7    -0.01   0.05   0.02     0.01  -0.01   0.01     0.00  -0.01   0.00
  44   1     0.00  -0.20  -0.13    -0.00  -0.00   0.00    -0.00   0.03   0.02
  45   1    -0.00  -0.04  -0.03     0.01  -0.00   0.01     0.00   0.01   0.01
  46   6     0.00   0.00   0.01    -0.03  -0.02   0.05    -0.01  -0.00   0.01
  47   8    -0.00   0.01   0.01    -0.04  -0.03   0.07    -0.00  -0.01   0.01
  48   7     0.02  -0.01   0.00     0.07   0.03   0.02     0.01   0.00   0.01
  49   1     0.00   0.03   0.00     0.04  -0.02   0.03     0.01   0.01   0.00
  50   1     0.00   0.01  -0.00     0.03  -0.00  -0.02     0.00   0.00  -0.00
  51   7    -0.01   0.01  -0.00    -0.08  -0.01  -0.00    -0.01  -0.00   0.00
  52   1     0.00  -0.02  -0.00    -0.02  -0.00  -0.01    -0.00   0.00  -0.00
  53   1     0.01  -0.03  -0.00    -0.03  -0.01  -0.00    -0.01   0.01   0.00
                     34                     35                     36
                        a                      a                      a 
 Frequencies --   327.7955               353.2257               359.1875
 Red. masses --     4.1043                 3.7516                 5.3196
 Frc consts  --     0.0000                 0.0000                 0.0000
 IR Inten    --    30.9525               417.6694                 7.8027
 Raman Activ --     0.0000                 0.0000                 0.0000
 Depolar     --     0.0000                 0.0000                 0.0000
 Atom AN      X      Y      Z        X      Y      Z        X      Y      Z
   1   8    -0.00  -0.08   0.18    -0.01   0.00  -0.00    -0.24   0.02   0.14
   2   6    -0.05   0.18  -0.22    -0.00  -0.00  -0.00    -0.14   0.09  -0.12
   3   1    -0.05   0.19  -0.06    -0.00  -0.00  -0.00    -0.11   0.14  -0.03
   4   1    -0.00   0.01  -0.22     0.00   0.00  -0.00     0.01   0.01  -0.17
   5   6     0.02  -0.02   0.03     0.00   0.00   0.01     0.05   0.01   0.29
   6   1     0.05  -0.02   0.01     0.00   0.00   0.00     0.11   0.13   0.10
   7   1     0.00  -0.01   0.02    -0.00  -0.00   0.01    -0.03  -0.05   0.23
   8   7    -0.02  -0.04   0.08     0.00  -0.00  -0.00     0.08  -0.05   0.03
   9   6    -0.08   0.00   0.06     0.01  -0.00  -0.00     0.23  -0.02  -0.08
  10   1     0.13  -0.07   0.02    -0.00   0.00  -0.00     0.01   0.06  -0.02
  11   1    -0.16  -0.05   0.12     0.01   0.00  -0.00     0.14   0.03  -0.07
  12   1    -0.06   0.13  -0.10     0.00  -0.00   0.00     0.08  -0.10  -0.00
  13   6    -0.06   0.13  -0.05     0.00  -0.00  -0.01     0.07  -0.16  -0.21
  14   1    -0.08   0.39   0.08     0.00  -0.01  -0.01    -0.02  -0.18  -0.10
  15   1     0.05  -0.21   0.24    -0.00   0.01  -0.01     0.05   0.04  -0.18
  16   1    -0.03  -0.04  -0.38     0.00   0.00   0.01     0.02  -0.03   0.04
  17   6     0.17  -0.21   0.05    -0.00   0.00  -0.00    -0.06   0.08   0.04
  18   1    -0.06  -0.04   0.03    -0.01   0.01  -0.00    -0.35   0.16  -0.01
  19   1     0.08  -0.19   0.01     0.00  -0.01  -0.01     0.03  -0.25  -0.12
  20   1     0.16   0.02  -0.01     0.01   0.01   0.01     0.20   0.21   0.16
  21   1    -0.03  -0.07   0.04    -0.00  -0.00  -0.00    -0.04  -0.06   0.03
  22   6     0.00  -0.00  -0.00     0.03  -0.09  -0.06    -0.00   0.00   0.00
  23   8     0.00  -0.00  -0.00     0.02  -0.04  -0.04    -0.00  -0.00   0.00
  24   7     0.00   0.00   0.00    -0.15   0.23   0.17     0.01  -0.01  -0.01
  25   1     0.00  -0.00  -0.00     0.09  -0.18  -0.16    -0.00   0.01   0.01
  26   1     0.00  -0.00  -0.00     0.22  -0.46  -0.29    -0.01   0.02   0.01
  27   7    -0.00   0.00   0.00    -0.02   0.23   0.19     0.00  -0.01  -0.01
  28   1    -0.00   0.00   0.00     0.10  -0.44  -0.30    -0.00   0.02   0.01
  29   1    -0.00  -0.00  -0.00     0.06  -0.18  -0.16    -0.00   0.01   0.01
  30   6    -0.02  -0.01   0.00    -0.00  -0.00  -0.00    -0.00   0.00  -0.00
  31   8    -0.00   0.00   0.00    -0.00  -0.00  -0.00    -0.02  -0.01  -0.00
  32   7     0.06   0.02   0.02     0.00   0.00   0.00    -0.02  -0.00  -0.01
  33   1    -0.05  -0.04  -0.02    -0.00  -0.00  -0.00     0.01   0.00   0.00
  34   1    -0.11  -0.07  -0.03    -0.00  -0.00  -0.00     0.05   0.03   0.01
  35   7     0.04   0.06   0.02     0.00   0.00   0.00    -0.01  -0.02  -0.01
  36   1    -0.10  -0.08  -0.03    -0.01  -0.00  -0.00     0.03   0.02   0.01
  37   1    -0.05  -0.03  -0.02    -0.00  -0.00  -0.00     0.01   0.01   0.00
  38   6    -0.00  -0.01  -0.01    -0.00   0.00  -0.00    -0.00   0.00  -0.00
  39   8     0.00  -0.02  -0.01    -0.00   0.00  -0.00    -0.00  -0.00  -0.00
  40   7    -0.00  -0.01   0.00     0.00  -0.00  -0.00     0.00   0.01   0.00
  41   1    -0.00   0.01   0.00     0.00   0.00   0.00     0.00  -0.01   0.00
  42   1    -0.01   0.05   0.02     0.00  -0.01  -0.00     0.01  -0.01  -0.00
  43   7    -0.00   0.01   0.01    -0.00  -0.00  -0.00     0.00  -0.00   0.00
  44   1     0.00  -0.02  -0.02    -0.00   0.01   0.01    -0.00  -0.00  -0.00
  45   1    -0.00  -0.01  -0.00     0.00  -0.00   0.00     0.00   0.00   0.00
  46   6     0.02   0.02  -0.04    -0.00   0.02   0.00     0.01   0.02  -0.02
  47   8     0.02   0.03  -0.04     0.00  -0.01  -0.00     0.01   0.02  -0.01
  48   7    -0.05  -0.03  -0.02     0.01  -0.04   0.00    -0.02  -0.02  -0.01
  49   1    -0.04   0.04  -0.02    -0.01   0.08  -0.01    -0.02   0.04  -0.01
  50   1    -0.02   0.01   0.01    -0.01   0.05  -0.00    -0.01   0.01   0.01
  51   7     0.05   0.01  -0.01    -0.00  -0.03  -0.01     0.02   0.00  -0.00
  52   1     0.01  -0.00   0.01    -0.02   0.06   0.00     0.01  -0.00   0.00
  53   1     0.02   0.01  -0.00    -0.02   0.05   0.00     0.01   0.01  -0.00
                     37                     38                     39
                        a                      a                      a 
 Frequencies --   373.6276               381.3903               406.5067
 Red. masses --     4.7682                 2.6676                 3.2629
 Frc consts  --     0.0000                 0.0000                 0.0000
 IR Inten    --     2.8457                 2.1265               149.4115
 Raman Activ --     0.0000                 0.0000                 0.0000
 Depolar     --     0.0000                 0.0000                 0.0000
 Atom AN      X      Y      Z        X      Y      Z        X      Y      Z
   1   8    -0.07  -0.00   0.03     0.02  -0.07   0.07    -0.01   0.00  -0.02
   2   6     0.11  -0.06  -0.12     0.04   0.01  -0.07     0.01  -0.02   0.00
   3   1     0.09  -0.03  -0.03     0.02   0.03  -0.02     0.00  -0.01  -0.00
   4   1     0.02  -0.01  -0.01    -0.00  -0.01  -0.05     0.01  -0.00   0.01
   5   6     0.05  -0.05  -0.24     0.04   0.01  -0.04     0.01  -0.01   0.00
   6   1     0.00  -0.09  -0.08     0.03  -0.03  -0.02     0.00   0.00  -0.00
   7   1     0.01   0.03  -0.14    -0.01   0.02  -0.03    -0.00  -0.00   0.00
   8   7     0.04   0.02   0.03     0.04   0.04   0.06     0.01  -0.00   0.01
   9   6    -0.30   0.17   0.03    -0.17   0.11   0.08     0.01   0.01   0.01
  10   1    -0.40   0.18  -0.01     0.24  -0.12   0.03     0.01   0.01   0.00
  11   1     0.07   0.08  -0.24    -0.32  -0.08   0.24    -0.00  -0.00   0.00
  12   1    -0.03  -0.08   0.28    -0.13   0.31  -0.19     0.00   0.01  -0.00
  13   6     0.06   0.08   0.24     0.01   0.11  -0.01     0.00  -0.00  -0.01
  14   1     0.07   0.00   0.07     0.01  -0.30  -0.10    -0.01  -0.00  -0.01
  15   1    -0.05   0.05   0.08    -0.09   0.30  -0.27     0.00   0.00  -0.01
  16   1     0.04   0.04   0.12     0.07   0.14   0.33     0.00   0.00  -0.00
  17   6     0.16  -0.15   0.01     0.05  -0.23  -0.01    -0.02   0.00   0.01
  18   1    -0.19   0.02   0.03    -0.07  -0.08   0.05     0.00  -0.00   0.00
  19   1     0.11  -0.31  -0.04     0.03  -0.16  -0.05    -0.01   0.01  -0.00
  20   1     0.25   0.11   0.01     0.08  -0.03  -0.03    -0.02  -0.01   0.00
  21   1    -0.02  -0.02   0.01    -0.03  -0.01   0.02     0.01  -0.00  -0.00
  22   6    -0.00  -0.00   0.00    -0.00   0.00  -0.00    -0.00  -0.01   0.00
  23   8     0.00  -0.00   0.00     0.00  -0.00   0.00     0.00  -0.01  -0.00
  24   7     0.00  -0.00  -0.00     0.00  -0.00  -0.00    -0.01  -0.00   0.00
  25   1    -0.00   0.00   0.00     0.00   0.00   0.00    -0.00  -0.01  -0.00
  26   1    -0.00   0.00   0.00    -0.00   0.00   0.00    -0.01   0.02   0.01
  27   7     0.00  -0.00  -0.00    -0.00  -0.00  -0.00     0.01  -0.00   0.00
  28   1    -0.00   0.01   0.00    -0.00   0.01   0.00     0.00   0.01   0.00
  29   1     0.00   0.00   0.00    -0.00   0.00   0.00     0.00   0.00   0.01
  30   6    -0.01  -0.00   0.01     0.00  -0.01  -0.01    -0.00   0.00   0.00
  31   8    -0.02  -0.01   0.00     0.00  -0.01  -0.01     0.00   0.00  -0.00
  32   7    -0.01  -0.01   0.00    -0.01   0.01   0.00     0.00   0.00   0.00
  33   1     0.00  -0.00   0.00    -0.01   0.01  -0.00    -0.00  -0.00  -0.00
  34   1     0.04   0.02   0.01    -0.00   0.00   0.01    -0.01  -0.00  -0.00
  35   7    -0.01  -0.00  -0.00     0.01  -0.01  -0.01     0.00   0.00   0.00
  36   1     0.02   0.02   0.00     0.01   0.00  -0.00    -0.01  -0.01  -0.00
  37   1     0.00   0.01   0.00    -0.01  -0.00  -0.00    -0.00  -0.00  -0.00
  38   6     0.01  -0.00   0.00    -0.01   0.01   0.00    -0.00  -0.07  -0.09
  39   8     0.01  -0.00   0.00    -0.01   0.02   0.01    -0.05  -0.08  -0.08
  40   7    -0.00   0.00  -0.00    -0.00  -0.00   0.00     0.03   0.19   0.05
  41   1    -0.00   0.00  -0.00    -0.00   0.01   0.01    -0.00  -0.09  -0.00
  42   1    -0.00   0.01   0.00     0.01  -0.02  -0.01     0.07  -0.13  -0.05
  43   7     0.00   0.00   0.01    -0.00  -0.00  -0.00    -0.01   0.21   0.22
  44   1     0.01  -0.02  -0.01    -0.00   0.00   0.00     0.07  -0.72  -0.48
  45   1    -0.00   0.00  -0.00     0.00  -0.00   0.00    -0.04  -0.02  -0.03
  46   6     0.00   0.01   0.00     0.02   0.01  -0.02     0.00   0.04   0.03
  47   8     0.00   0.01   0.00     0.01   0.00  -0.01     0.01  -0.00   0.03
  48   7     0.00  -0.01   0.00    -0.03  -0.01  -0.01     0.03  -0.02   0.03
  49   1    -0.00   0.02  -0.00    -0.02   0.00  -0.01    -0.00   0.06   0.00
  50   1    -0.00   0.01   0.00    -0.01   0.00   0.01     0.00   0.02  -0.00
  51   7    -0.00  -0.00  -0.00     0.03   0.01  -0.00    -0.02  -0.06  -0.02
  52   1    -0.00   0.00  -0.00     0.01   0.00   0.00    -0.02   0.07  -0.02
  53   1    -0.00   0.01   0.00     0.01   0.01  -0.00    -0.05   0.13   0.01
                     40                     41                     42
                        a                      a                      a 
 Frequencies --   428.9292               444.0279               445.0160
 Red. masses --     8.5957                 1.6739                 1.7289
 Frc consts  --     0.0000                 0.0000                 0.0000
 IR Inten    --     1.3588                 5.8190                 5.1239
 Raman Activ --     0.0000                 0.0000                 0.0000
 Depolar     --     0.0000                 0.0000                 0.0000
 Atom AN      X      Y      Z        X      Y      Z        X      Y      Z
   1   8     0.23   0.03  -0.03     0.01   0.00  -0.00     0.00   0.00  -0.01
   2   6    -0.04   0.17   0.03    -0.02   0.02   0.00     0.00  -0.00  -0.00
   3   1    -0.03   0.06   0.01    -0.00   0.00   0.00    -0.00  -0.00  -0.00
   4   1    -0.02   0.04  -0.02    -0.01   0.00   0.00     0.00   0.00   0.00
   5   6    -0.11  -0.06   0.01    -0.02   0.01  -0.01     0.00  -0.00   0.00
   6   1    -0.05  -0.04  -0.00    -0.01  -0.00  -0.00     0.00   0.00   0.00
   7   1     0.03  -0.04  -0.03    -0.00   0.00  -0.01     0.00  -0.00   0.00
   8   7    -0.28  -0.18  -0.01    -0.02   0.01  -0.00    -0.00  -0.00  -0.00
   9   6     0.05  -0.05  -0.37     0.02  -0.00  -0.01    -0.00  -0.00  -0.00
  10   1     0.12   0.07  -0.06     0.00   0.00  -0.00     0.00  -0.00  -0.00
  11   1     0.02  -0.02  -0.11     0.02   0.01  -0.00    -0.00  -0.00  -0.00
  12   1     0.00  -0.05  -0.23     0.01  -0.01  -0.00    -0.00  -0.00  -0.00
  13   6    -0.28  -0.08   0.21    -0.01  -0.02   0.01    -0.00   0.00   0.00
  14   1    -0.01  -0.09   0.05     0.00  -0.01   0.00     0.00   0.00   0.00
  15   1    -0.15   0.04   0.02    -0.00  -0.01   0.00    -0.00   0.00   0.00
  16   1    -0.05   0.01   0.16    -0.01  -0.01   0.01    -0.00   0.00   0.00
  17   6     0.35   0.13   0.17     0.03  -0.00   0.00     0.00   0.00   0.00
  18   1     0.11   0.14  -0.08    -0.00   0.00  -0.00     0.00   0.00  -0.00
  19   1     0.15  -0.04   0.22     0.01  -0.02   0.01     0.00   0.00   0.00
  20   1     0.21   0.12   0.06     0.02   0.01  -0.00     0.00   0.00   0.00
  21   1     0.05   0.02  -0.01     0.00   0.00  -0.00     0.00  -0.00  -0.00
  22   6     0.00   0.00   0.00     0.00  -0.00   0.00    -0.07  -0.01  -0.02
  23   8     0.00   0.00   0.00     0.00   0.00   0.00    -0.07  -0.01  -0.02
  24   7    -0.00   0.00  -0.00    -0.00   0.00   0.00     0.05  -0.14  -0.02
  25   1    -0.00  -0.00  -0.00    -0.00  -0.01  -0.01    -0.02   0.43   0.30
  26   1     0.00  -0.00  -0.00    -0.00   0.01   0.00     0.14  -0.40  -0.08
  27   7    -0.00  -0.00   0.00     0.00  -0.00  -0.00    -0.00   0.14   0.02
  28   1     0.00  -0.01  -0.00     0.00  -0.01  -0.00    -0.04   0.43   0.13
  29   1    -0.00   0.00   0.00    -0.00   0.01   0.00     0.26  -0.40  -0.23
  30   6    -0.00  -0.01  -0.00     0.04  -0.06   0.01     0.00  -0.00   0.00
  31   8    -0.00  -0.01  -0.00     0.04  -0.07   0.01     0.00  -0.00   0.00
  32   7    -0.00   0.01   0.01    -0.12  -0.04   0.04    -0.00  -0.00  -0.00
  33   1    -0.03  -0.01  -0.01     0.34   0.37   0.08     0.01   0.01   0.00
  34   1     0.03   0.02   0.01    -0.41  -0.21   0.04    -0.01  -0.00  -0.00
  35   7    -0.01   0.00  -0.01     0.09   0.09  -0.04     0.00   0.00   0.00
  36   1    -0.02  -0.01  -0.01     0.35   0.29  -0.05     0.01   0.01   0.00
  37   1     0.02   0.02   0.01    -0.46  -0.18  -0.10    -0.01  -0.00  -0.00
  38   6    -0.00   0.00  -0.00     0.00   0.00   0.00     0.00  -0.00   0.00
  39   8     0.00   0.00  -0.01    -0.00  -0.00   0.00    -0.00  -0.00   0.00
  40   7     0.00   0.01   0.01    -0.00   0.00  -0.00    -0.00   0.00  -0.00
  41   1    -0.00   0.00   0.01    -0.00   0.00   0.00    -0.00  -0.00  -0.00
  42   1     0.01  -0.02  -0.01     0.00  -0.00  -0.00    -0.00  -0.00  -0.00
  43   7    -0.01   0.01   0.01     0.00   0.00   0.00     0.00   0.00   0.00
  44   1     0.00  -0.02  -0.02     0.00  -0.00  -0.00     0.00  -0.00  -0.00
  45   1    -0.00   0.00  -0.00    -0.00   0.00  -0.00     0.00  -0.00  -0.00
  46   6    -0.01  -0.01   0.00    -0.00   0.00   0.00     0.02   0.01   0.01
  47   8    -0.01   0.00   0.00    -0.00  -0.00  -0.00     0.02   0.00   0.01
  48   7     0.01   0.01  -0.00     0.00  -0.00   0.00    -0.01  -0.00   0.02
  49   1     0.01  -0.02   0.01     0.00   0.00   0.00    -0.01  -0.00  -0.01
  50   1     0.01  -0.01  -0.01     0.00   0.00  -0.00    -0.01   0.01   0.02
  51   7    -0.01   0.00   0.00    -0.00  -0.00  -0.00    -0.00  -0.00  -0.02
  52   1    -0.00  -0.01   0.00    -0.00   0.00   0.00     0.00   0.00  -0.02
  53   1     0.00  -0.02  -0.00    -0.00   0.01   0.00    -0.02   0.01  -0.00
                     43                     44                     45
                        a                      a                      a 
 Frequencies --   454.3217               456.6890               460.7024
 Red. masses --     8.2164                 7.7674                 3.5630
 Frc consts  --     0.0000                 0.0000                 0.0000
 IR Inten    --     5.4753                72.9751               416.7469
 Raman Activ --     0.0000                 0.0000                 0.0000
 Depolar     --     0.0000                 0.0000                 0.0000
 Atom AN      X      Y      Z        X      Y      Z        X      Y      Z
   1   8     0.02  -0.01  -0.02    -0.01  -0.01   0.02    -0.00   0.01  -0.00
   2   6    -0.09   0.07   0.02    -0.00   0.01  -0.00     0.04  -0.04   0.00
   3   1    -0.01   0.00   0.01     0.00   0.01  -0.00     0.01  -0.02   0.00
   4   1    -0.05   0.01   0.02    -0.00  -0.00  -0.01     0.02  -0.00   0.01
   5   6    -0.10   0.12  -0.05    -0.00  -0.01  -0.01     0.04  -0.02   0.04
   6   1    -0.05  -0.00  -0.02    -0.01  -0.01  -0.00     0.03   0.02   0.01
   7   1    -0.02   0.05  -0.05    -0.00   0.00  -0.02     0.01  -0.02   0.04
   8   7    -0.02   0.13  -0.00     0.01   0.00   0.02    -0.01  -0.04  -0.03
   9   6     0.09   0.01   0.09     0.01   0.02   0.00    -0.04  -0.03  -0.03
  10   1     0.01  -0.02   0.02     0.00   0.01   0.00    -0.01  -0.01  -0.01
  11   1     0.06   0.03   0.05     0.00   0.00  -0.01    -0.02  -0.01  -0.01
  12   1     0.03  -0.04   0.03     0.00   0.00   0.00    -0.01   0.00  -0.01
  13   6     0.02  -0.13   0.01     0.00  -0.01  -0.02    -0.01   0.06   0.02
  14   1     0.03  -0.05   0.00    -0.01  -0.01  -0.01    -0.00   0.03   0.01
  15   1     0.06  -0.06  -0.00     0.01  -0.00  -0.01    -0.03   0.02   0.02
  16   1    -0.05  -0.07   0.01     0.00  -0.00  -0.01     0.01   0.03   0.00
  17   6     0.04  -0.09  -0.05    -0.01  -0.02   0.02    -0.01   0.06  -0.01
  18   1    -0.01  -0.06   0.03    -0.01  -0.01   0.01     0.01   0.03  -0.02
  19   1     0.02  -0.07  -0.02    -0.00  -0.01  -0.00    -0.01   0.04   0.01
  20   1     0.04  -0.02  -0.07    -0.00  -0.00   0.00    -0.02   0.01   0.01
  21   1     0.01   0.01  -0.00    -0.01   0.01   0.01     0.02  -0.04  -0.01
  22   6     0.02   0.01   0.00     0.27   0.06   0.07     0.12  -0.02   0.06
  23   8     0.02   0.00   0.01     0.30   0.05   0.10     0.14   0.03   0.01
  24   7    -0.01   0.01  -0.03    -0.12   0.12  -0.34    -0.07   0.02  -0.14
  25   1    -0.02   0.02   0.01    -0.27   0.09   0.05    -0.13  -0.06  -0.03
  26   1     0.01  -0.01  -0.03     0.05   0.02  -0.31    -0.04   0.14  -0.09
  27   7    -0.03  -0.01   0.02    -0.27  -0.16   0.22    -0.07  -0.09   0.11
  28   1    -0.01  -0.02   0.02    -0.11  -0.13   0.26    -0.05   0.07   0.16
  29   1    -0.02  -0.01  -0.01    -0.21  -0.11  -0.16    -0.03  -0.11  -0.08
  30   6     0.15  -0.23   0.03    -0.03   0.04  -0.00     0.03  -0.05   0.00
  31   8     0.17  -0.26   0.03    -0.03   0.04  -0.01     0.04  -0.05   0.01
  32   7    -0.14   0.19   0.29     0.02  -0.03  -0.05    -0.03   0.04   0.06
  33   1    -0.24   0.13  -0.08     0.04  -0.02   0.01    -0.05   0.02  -0.02
  34   1     0.01   0.09   0.29    -0.01  -0.02  -0.05     0.01   0.03   0.06
  35   7    -0.09   0.15  -0.33     0.01  -0.02   0.06    -0.02   0.02  -0.07
  36   1    -0.06  -0.02  -0.30     0.00  -0.00   0.05     0.00   0.01  -0.06
  37   1    -0.03   0.28   0.03     0.01  -0.04  -0.00    -0.02   0.05   0.00
  38   6     0.01  -0.00   0.01    -0.00   0.00  -0.01    -0.02  -0.00  -0.03
  39   8    -0.00  -0.01   0.01     0.00   0.00  -0.01     0.03   0.01  -0.04
  40   7    -0.01   0.01  -0.01     0.01   0.02   0.01     0.02  -0.06  -0.00
  41   1     0.00  -0.01  -0.02     0.00  -0.04  -0.01    -0.02   0.20   0.17
  42   1    -0.01  -0.00  -0.00     0.00   0.01   0.00     0.09  -0.08  -0.03
  43   7     0.01   0.01  -0.00    -0.01  -0.00   0.01    -0.05   0.00   0.01
  44   1     0.01  -0.03  -0.02     0.00  -0.06  -0.03    -0.04   0.13   0.10
  45   1    -0.00   0.01  -0.01    -0.01   0.02   0.01     0.01  -0.07   0.00
  46   6    -0.01  -0.02   0.00    -0.05  -0.05  -0.02    -0.02   0.09  -0.00
  47   8    -0.01   0.02  -0.00    -0.07   0.03  -0.02     0.03  -0.10  -0.01
  48   7     0.01   0.02  -0.01     0.03   0.06  -0.06     0.00  -0.12   0.03
  49   1     0.02  -0.08   0.01     0.06  -0.20   0.02    -0.06   0.44  -0.02
  50   1     0.01  -0.02  -0.00     0.02  -0.03  -0.03    -0.03   0.11  -0.02
  51   7    -0.01   0.02   0.02     0.01   0.06   0.07     0.01  -0.15  -0.04
  52   1     0.01  -0.05   0.01     0.02  -0.12   0.05    -0.07   0.26   0.00
  53   1     0.02  -0.08  -0.00     0.09  -0.18  -0.00    -0.12   0.50   0.02
                     46                     47                     48
                        a                      a                      a 
 Frequencies --   463.9650               468.3424               473.9615
 Red. masses --     5.1983                 6.2197                 7.4091
 Frc consts  --     0.0000                 0.0000                 0.0000
 IR Inten    --     8.5609                22.2562                14.6532
 Raman Activ --     0.0000                 0.0000                 0.0000
 Depolar     --     0.0000                 0.0000                 0.0000
 Atom AN      X      Y      Z        X      Y      Z        X      Y      Z
   1   8     0.04  -0.00  -0.04     0.08  -0.00  -0.05     0.01  -0.01   0.01
   2   6    -0.04   0.05   0.01    -0.13   0.11   0.04    -0.16   0.10   0.04
   3   1     0.01  -0.01   0.00    -0.01  -0.00   0.01    -0.05   0.02   0.01
   4   1    -0.04   0.01   0.02    -0.08   0.02   0.04    -0.07   0.02   0.01
   5   6    -0.10   0.03  -0.13    -0.17   0.14  -0.13    -0.08   0.22   0.07
   6   1    -0.09  -0.12  -0.06    -0.12  -0.08  -0.06    -0.00   0.15   0.03
   7   1    -0.01   0.07  -0.17    -0.02   0.10  -0.17    -0.03   0.01   0.11
   8   7    -0.02   0.11   0.19    -0.06   0.19   0.10    -0.02   0.10  -0.27
   9   6     0.16   0.17   0.04     0.20   0.10   0.10    -0.03  -0.24   0.14
  10   1     0.05   0.10   0.03     0.07   0.02   0.03    -0.03  -0.20   0.00
  11   1     0.08   0.06  -0.03     0.10   0.06   0.05     0.01  -0.03   0.15
  12   1     0.05  -0.02  -0.02     0.06  -0.04  -0.00    -0.00  -0.06   0.09
  13   6    -0.04  -0.15  -0.13    -0.02  -0.25  -0.05     0.11  -0.10   0.23
  14   1    -0.07  -0.07  -0.05    -0.01  -0.12  -0.03     0.18  -0.04   0.08
  15   1     0.09  -0.06  -0.08     0.10  -0.09  -0.06    -0.02  -0.05   0.12
  16   1    -0.06  -0.08  -0.07    -0.09  -0.12  -0.00    -0.04  -0.05   0.14
  17   6    -0.02  -0.14   0.14     0.08  -0.19   0.03     0.17  -0.03  -0.32
  18   1    -0.01  -0.08   0.09     0.00  -0.11   0.08     0.03  -0.02  -0.07
  19   1    -0.00  -0.07   0.02     0.04  -0.12   0.00     0.07  -0.07  -0.06
  20   1     0.01  -0.05  -0.02     0.06  -0.04  -0.08     0.09   0.02  -0.12
  21   1     0.01   0.01  -0.01     0.04  -0.02  -0.01     0.02  -0.01   0.00
  22   6    -0.03   0.00  -0.01     0.02  -0.02   0.02     0.00   0.00  -0.00
  23   8    -0.03  -0.01  -0.00     0.03   0.01  -0.01     0.00  -0.00   0.00
  24   7     0.01  -0.01   0.03    -0.02  -0.01  -0.02     0.00   0.00  -0.00
  25   1     0.03   0.01   0.01    -0.03  -0.04  -0.02    -0.00   0.01   0.00
  26   1     0.00  -0.02   0.02    -0.02   0.06  -0.01     0.00  -0.01  -0.00
  27   7     0.02   0.02  -0.02     0.00  -0.02   0.03    -0.00  -0.00   0.00
  28   1     0.01  -0.00  -0.03    -0.01   0.05   0.04    -0.00  -0.01  -0.00
  29   1     0.01   0.01   0.01     0.02  -0.05  -0.02    -0.01   0.01   0.00
  30   6    -0.03   0.04  -0.00    -0.05   0.07  -0.00    -0.04   0.05  -0.01
  31   8    -0.03   0.05  -0.01    -0.05   0.09  -0.01    -0.04   0.06  -0.01
  32   7     0.03  -0.03  -0.05     0.04  -0.05  -0.09     0.03  -0.03  -0.07
  33   1     0.03  -0.03   0.01     0.05  -0.06   0.02     0.04  -0.04   0.01
  34   1     0.00  -0.01  -0.05     0.02  -0.02  -0.09     0.01  -0.01  -0.07
  35   7     0.01  -0.02   0.06     0.01  -0.04   0.10     0.01  -0.03   0.08
  36   1     0.00  -0.00   0.05     0.01   0.00   0.09     0.01   0.00   0.07
[...]
  44   1    -0.00  -0.00   0.00    -0.00   0.01  -0.01     0.01  -0.02   0.03
  45   1     0.01   0.00  -0.01    -0.03  -0.01   0.03    -0.01  -0.00   0.01
  46   6    -0.00   0.00   0.01    -0.01  -0.00  -0.00    -0.00  -0.00   0.00
  47   8    -0.00  -0.00  -0.00     0.01   0.00   0.00     0.00   0.00  -0.00
  48   7     0.15   0.05   0.08    -0.10  -0.03  -0.07    -0.00   0.00   0.00
  49   1     0.15   0.01  -0.14    -0.12  -0.01   0.12     0.00   0.00  -0.00
  50   1    -0.71  -0.20  -0.18     0.51   0.14   0.13    -0.00  -0.00  -0.00
  51   7    -0.12  -0.03  -0.01    -0.16  -0.04   0.01     0.00   0.00  -0.00
  52   1     0.50   0.11   0.19     0.67   0.15   0.26    -0.00  -0.00  -0.00
  53   1    -0.04   0.00  -0.18    -0.06   0.00  -0.29     0.00  -0.00   0.00
                    142                    143                    144
                        a                      a                      a 
 Frequencies --  3496.2361              3499.7051              3500.1016
 Red. masses --     1.4391                 1.4378                 1.4633
 Frc consts  --     0.0000                 0.0000                 0.0000
 IR Inten    --    39.1907                37.8634                 4.6466
 Raman Activ --     0.0000                 0.0000                 0.0000
 Depolar     --     0.0000                 0.0000                 0.0000
 Atom AN      X      Y      Z        X      Y      Z        X      Y      Z
   1   8     0.00   0.00  -0.00    -0.00  -0.00   0.00     0.00   0.00  -0.00
   2   6    -0.00  -0.00   0.00     0.00  -0.00  -0.00    -0.00  -0.00  -0.00
   3   1     0.00   0.00   0.00    -0.00  -0.00   0.00    -0.00   0.00  -0.00
   4   1    -0.00   0.00  -0.00     0.00  -0.00   0.00    -0.00   0.00   0.00
   5   6     0.00  -0.00  -0.00    -0.00  -0.00   0.00     0.00   0.00  -0.00
   6   1    -0.00  -0.00   0.00     0.00  -0.00  -0.00     0.00   0.00   0.00
   7   1     0.00   0.00   0.00     0.00   0.00   0.00     0.00  -0.00  -0.00
   8   7     0.00   0.00  -0.00     0.00  -0.00   0.00    -0.00  -0.00  -0.00
   9   6     0.00   0.00  -0.00     0.00  -0.00   0.00     0.00   0.00   0.00
  10   1    -0.00  -0.00   0.00     0.00  -0.00   0.00     0.00   0.00  -0.00
  11   1    -0.00   0.00  -0.00    -0.00   0.00  -0.00     0.00  -0.00  -0.00
  12   1    -0.00  -0.00  -0.00    -0.00  -0.00   0.00    -0.00   0.00   0.00
  13   6    -0.00   0.00  -0.00     0.00  -0.00   0.00     0.00  -0.00   0.00
  14   1    -0.00  -0.00   0.00     0.00  -0.00   0.00     0.00  -0.00   0.00
  15   1     0.00   0.00   0.00     0.00   0.00   0.00    -0.00  -0.00  -0.00
  16   1     0.00  -0.00   0.00    -0.00   0.00  -0.00    -0.00   0.00  -0.00
  17   6    -0.00  -0.00  -0.00     0.00  -0.00  -0.00     0.00  -0.00   0.00
  18   1     0.00   0.00   0.00     0.00   0.00   0.00     0.00  -0.00  -0.00
  19   1    -0.00  -0.00  -0.00    -0.00  -0.00  -0.00    -0.00   0.00   0.00
  20   1    -0.00  -0.00  -0.00     0.00   0.00  -0.00    -0.00   0.00  -0.00
  21   1    -0.00  -0.00   0.00     0.00   0.00  -0.00    -0.00   0.00   0.00
  22   6     0.00   0.00  -0.00     0.00  -0.00  -0.00    -0.00  -0.00  -0.00
  23   8    -0.00  -0.00  -0.00    -0.00  -0.00  -0.00     0.00   0.00   0.00
  24   7     0.09   0.10  -0.06     0.00   0.00  -0.00    -0.07  -0.08   0.05
  25   1     0.19  -0.24   0.42     0.00  -0.00   0.00    -0.16   0.20  -0.34
  26   1    -0.52  -0.13  -0.20    -0.00  -0.00  -0.00     0.40   0.10   0.15
  27   7    -0.05   0.06  -0.08     0.00  -0.00   0.00    -0.06   0.08  -0.11
  28   1     0.45   0.03   0.09    -0.00  -0.00  -0.00     0.54   0.04   0.11
  29   1    -0.24  -0.25   0.22     0.00   0.00  -0.00    -0.31  -0.32   0.28
  30   6    -0.00  -0.00   0.00    -0.00  -0.00   0.00    -0.00  -0.00   0.00
  31   8     0.00   0.00  -0.00     0.00  -0.00   0.00    -0.00   0.00   0.00
  32   7     0.00  -0.00   0.00     0.01  -0.07   0.09     0.00  -0.00   0.00
  33   1     0.00  -0.00  -0.00     0.20  -0.15  -0.31     0.00  -0.00  -0.00
  34   1    -0.00   0.00  -0.00    -0.21   0.40  -0.03    -0.00   0.00  -0.00
  35   7    -0.00   0.00   0.00    -0.09   0.05   0.10    -0.00   0.00   0.00
  36   1     0.00  -0.00   0.00     0.36  -0.44   0.08     0.00  -0.00   0.00
  37   1    -0.00   0.00  -0.00    -0.03   0.24  -0.46    -0.00   0.00  -0.00
  38   6     0.00  -0.00   0.00     0.00  -0.00   0.00     0.00  -0.00   0.00
  39   8    -0.00   0.00  -0.00    -0.00   0.00   0.00    -0.00   0.00  -0.00
  40   7     0.00   0.00  -0.00    -0.00  -0.00   0.00    -0.00   0.00   0.00
  41   1    -0.00   0.00  -0.00     0.00  -0.00   0.00     0.00  -0.00   0.00
  42   1     0.00  -0.00   0.01    -0.00   0.00  -0.00    -0.00   0.00  -0.00
  43   7     0.00  -0.00   0.00    -0.00   0.00  -0.00    -0.00  -0.00   0.00
  44   1    -0.00   0.00  -0.00     0.00  -0.00   0.00    -0.00   0.00  -0.00
  45   1    -0.00  -0.00   0.00     0.00   0.00  -0.00     0.00   0.00  -0.00
  46   6    -0.00  -0.00   0.00     0.00   0.00  -0.00    -0.00   0.00  -0.00
  47   8     0.00   0.00  -0.00    -0.00   0.00   0.00    -0.00  -0.00  -0.00
  48   7    -0.00   0.00  -0.00     0.00  -0.00  -0.00     0.00   0.00   0.00
  49   1    -0.00  -0.00   0.00    -0.00  -0.00   0.00     0.01   0.00  -0.01
  50   1     0.00  -0.00   0.00     0.00   0.00   0.00    -0.02  -0.01  -0.00
  51   7    -0.00  -0.00   0.00    -0.00  -0.00  -0.00     0.00   0.00  -0.01
  52   1     0.00   0.00   0.00     0.00   0.00   0.00    -0.02  -0.00  -0.01
  53   1    -0.00  -0.00  -0.01     0.00  -0.00   0.00     0.01  -0.00   0.03
                    145                    146                    147
                        a                      a                      a 
 Frequencies --  3503.8372              3523.6395              3530.1811
 Red. masses --     1.4614                 1.9060                 2.0817
 Frc consts  --     0.0000                 0.0000                 0.0000
 IR Inten    --     7.8331                 8.9808               101.7103
 Raman Activ --     0.0000                 0.0000                 0.0000
 Depolar     --     0.0000                 0.0000                 0.0000
 Atom AN      X      Y      Z        X      Y      Z        X      Y      Z
   1   8    -0.00   0.00  -0.00     0.00  -0.00   0.00     0.00   0.00  -0.00
   2   6     0.00  -0.00  -0.00    -0.00  -0.00   0.00    -0.00  -0.00  -0.00
   3   1     0.00   0.00   0.00     0.00   0.00  -0.00    -0.00  -0.00  -0.00
   4   1    -0.00  -0.00   0.00     0.00   0.00  -0.00    -0.00   0.00   0.00
   5   6    -0.00  -0.00  -0.00    -0.00   0.00  -0.00     0.00   0.00  -0.00
   6   1    -0.00  -0.00   0.00    -0.00   0.00   0.00     0.00  -0.00   0.00
   7   1     0.00   0.00   0.00     0.00   0.00  -0.00     0.00   0.00   0.00
   8   7     0.00  -0.00   0.00     0.00   0.00  -0.00     0.00  -0.00  -0.00
   9   6    -0.00   0.00  -0.00     0.00   0.00  -0.00     0.00   0.00  -0.00
  10   1    -0.00   0.00   0.00     0.00  -0.00   0.00     0.00  -0.00   0.00
  11   1     0.00  -0.00   0.00     0.00  -0.00  -0.00    -0.00   0.00  -0.00
  12   1     0.00   0.00  -0.00    -0.00  -0.00   0.00    -0.00   0.00   0.00
  13   6    -0.00   0.00  -0.00    -0.00   0.00  -0.00     0.00  -0.00  -0.00
  14   1    -0.00   0.00   0.00     0.00   0.00   0.00     0.00  -0.00   0.00
  15   1     0.00   0.00  -0.00     0.00   0.00  -0.00    -0.00   0.00   0.00
  16   1     0.00  -0.00   0.00     0.00  -0.00   0.00     0.00   0.00  -0.00
  17   6    -0.00   0.00  -0.00    -0.00   0.00   0.00     0.00  -0.00   0.00
  18   1     0.00   0.00   0.00    -0.00  -0.00  -0.00    -0.00   0.00  -0.00
  19   1    -0.00   0.00  -0.00     0.00   0.00  -0.00    -0.00   0.00  -0.00
  20   1     0.00  -0.00  -0.00     0.00  -0.00   0.00    -0.00   0.00  -0.00
  21   1     0.00  -0.00   0.00    -0.00   0.00  -0.01    -0.00  -0.00   0.02
  22   6     0.00   0.00   0.00     0.00   0.00   0.00    -0.00  -0.00  -0.00
  23   8    -0.00  -0.00  -0.00    -0.00  -0.00  -0.00     0.00   0.00   0.00
  24   7     0.00   0.00  -0.00     0.00   0.00   0.00     0.01   0.00   0.00
  25   1     0.00  -0.00   0.00     0.00  -0.00   0.00     0.00  -0.00   0.00
  26   1    -0.00  -0.00  -0.00    -0.00  -0.00  -0.00    -0.02  -0.01  -0.01
  27   7     0.00  -0.00   0.00    -0.00   0.00  -0.00     0.00  -0.00   0.00
  28   1    -0.00  -0.00  -0.00     0.00   0.00   0.00    -0.01  -0.00  -0.00
  29   1     0.00   0.00  -0.00    -0.00  -0.00   0.00     0.00   0.00  -0.00
  30   6     0.00  -0.00   0.00     0.00  -0.00   0.00    -0.00   0.00   0.00
  31   8    -0.00   0.00  -0.00    -0.00   0.00  -0.00     0.00  -0.00  -0.00
  32   7     0.00  -0.08   0.12    -0.00   0.00  -0.00    -0.00   0.00   0.00
  33   1     0.26  -0.20  -0.42    -0.00   0.00   0.00     0.00  -0.00  -0.00
  34   1    -0.27   0.50  -0.04     0.00  -0.00   0.00    -0.00   0.00   0.00
  35   7     0.07  -0.04  -0.09    -0.00   0.00   0.00     0.00  -0.00  -0.00
  36   1    -0.27   0.33  -0.06     0.00  -0.00   0.00    -0.00   0.00  -0.00
  37   1     0.03  -0.19   0.37    -0.00   0.00  -0.00     0.00  -0.00   0.00
  38   6    -0.00   0.00   0.00     0.00   0.01  -0.01     0.00  -0.00   0.00
  39   8     0.00   0.00  -0.00    -0.00  -0.00   0.00    -0.00   0.00  -0.00
  40   7    -0.00  -0.00   0.00     0.02  -0.00   0.01    -0.00   0.00  -0.00
  41   1     0.00  -0.00   0.00    -0.08   0.01  -0.02     0.00  -0.00   0.00
  42   1    -0.00   0.00  -0.00    -0.00   0.00  -0.01     0.00  -0.00   0.00
  43   7     0.00   0.00  -0.00    -0.04   0.14  -0.22    -0.00  -0.00   0.01
  44   1     0.00  -0.00   0.00     0.22  -0.51   0.78    -0.01   0.01  -0.02
  45   1    -0.00  -0.00   0.00    -0.08  -0.02   0.05     0.01   0.00  -0.00
  46   6     0.00  -0.00   0.00     0.00   0.00   0.00    -0.00  -0.00  -0.01
  47   8    -0.00   0.00  -0.00    -0.00  -0.00  -0.00     0.00   0.00   0.00
  48   7    -0.00  -0.00  -0.00    -0.00  -0.00  -0.00     0.02   0.00  -0.02
  49   1    -0.00  -0.00   0.00    -0.00  -0.00   0.00    -0.08  -0.00   0.08
  50   1     0.00   0.00   0.00     0.00   0.00   0.00    -0.00  -0.00  -0.00
  51   7     0.00   0.00   0.00    -0.00  -0.00  -0.01    -0.12  -0.01  -0.26
  52   1    -0.00  -0.00  -0.00     0.01   0.00   0.00     0.30   0.07   0.10
  53   1    -0.00   0.00  -0.00     0.00  -0.00   0.02     0.16  -0.02   0.88
                    148                    149                    150
                        a                      a                      a 
 Frequencies --  3553.2821              3559.5388              3560.4178
 Red. masses --     2.0230                 2.1894                 2.1734
 Frc consts  --     0.0000                 0.0000                 0.0000
 IR Inten    --    46.0893                13.6737                 7.1986
 Raman Activ --     0.0000                 0.0000                 0.0000
 Depolar     --     0.0000                 0.0000                 0.0000
 Atom AN      X      Y      Z        X      Y      Z        X      Y      Z
   1   8     0.00   0.00  -0.00    -0.00  -0.00   0.00    -0.00   0.00  -0.00
   2   6    -0.00  -0.00  -0.00     0.00   0.00  -0.00     0.00  -0.00   0.00
   3   1    -0.00   0.00  -0.00    -0.00   0.00   0.00    -0.00  -0.00   0.00
   4   1    -0.00   0.00   0.00     0.00  -0.00   0.00    -0.00  -0.00   0.00
   5   6     0.00   0.00   0.00    -0.00   0.00   0.00    -0.00   0.00   0.00
   6   1     0.00   0.00  -0.00    -0.00   0.00  -0.00     0.00  -0.00  -0.00
   7   1     0.00   0.00  -0.00    -0.00  -0.00  -0.00    -0.00  -0.00  -0.00
   8   7     0.00   0.00   0.00    -0.00  -0.00   0.00     0.00   0.00  -0.00
   9   6     0.00  -0.00   0.00    -0.00  -0.00   0.00    -0.00  -0.00   0.00
  10   1     0.00   0.00  -0.00     0.00   0.00  -0.00     0.00   0.00  -0.00
  11   1    -0.00   0.00  -0.00     0.00  -0.00   0.00    -0.00   0.00   0.00
  12   1    -0.00  -0.00   0.00     0.00   0.00  -0.00     0.00  -0.00   0.00
  13   6     0.00  -0.00   0.00     0.00  -0.00   0.00     0.00  -0.00   0.00
  14   1     0.00   0.00  -0.00     0.00   0.00  -0.00    -0.00   0.00  -0.00
  15   1    -0.00   0.00   0.00    -0.00  -0.00  -0.00    -0.00  -0.00   0.00
  16   1    -0.00   0.00  -0.00     0.00   0.00  -0.00    -0.00   0.00   0.00
  17   6     0.00  -0.00  -0.00    -0.00   0.00  -0.00     0.00  -0.00  -0.00
  18   1    -0.00   0.00  -0.00    -0.00  -0.00  -0.00    -0.00   0.00   0.00
  19   1    -0.00   0.00  -0.00     0.00   0.00   0.00    -0.00  -0.00   0.00
  20   1    -0.00   0.00  -0.00     0.00  -0.00   0.00    -0.00   0.00  -0.00
  21   1     0.00  -0.00   0.01     0.00   0.00  -0.00     0.00  -0.00   0.00
  22   6    -0.00  -0.00  -0.00    -0.00  -0.00   0.01     0.00  -0.00   0.00
  23   8     0.00  -0.00   0.00     0.00   0.00  -0.00     0.00   0.00  -0.00
  24   7     0.01   0.00   0.00     0.16  -0.04   0.15     0.00  -0.00   0.00
  25   1    -0.00   0.00  -0.01    -0.18   0.26  -0.42    -0.00   0.00  -0.01
  26   1    -0.02  -0.00  -0.01    -0.44  -0.12  -0.15    -0.01  -0.00  -0.00
  27   7     0.01   0.00  -0.00    -0.18  -0.08   0.04    -0.00  -0.00   0.00
  28   1    -0.02  -0.00  -0.01     0.41   0.01   0.09     0.00   0.00   0.00
  29   1    -0.01  -0.01   0.01     0.26   0.30  -0.25     0.00   0.00  -0.00
  30   6    -0.00   0.00  -0.00     0.00   0.00  -0.00    -0.00   0.00   0.00
  31   8     0.00  -0.00   0.00    -0.00   0.00   0.00     0.00  -0.00   0.00
  32   7     0.00  -0.00   0.00    -0.00  -0.00   0.00    -0.00   0.00   0.00
  33   1     0.00  -0.00  -0.00     0.00  -0.00  -0.00     0.00  -0.00  -0.00
  34   1    -0.00   0.00  -0.00    -0.00   0.00  -0.00     0.00  -0.00   0.00
  35   7    -0.00   0.00  -0.00    -0.00   0.00  -0.00     0.00  -0.00   0.00
  36   1     0.00  -0.00   0.00     0.00  -0.00   0.00    -0.00   0.00  -0.00
  37   1     0.00  -0.00   0.00     0.00   0.00  -0.00    -0.00   0.00  -0.00
  38   6    -0.00  -0.00  -0.00    -0.00   0.00  -0.00     0.01  -0.00   0.01
  39   8     0.00  -0.00   0.00     0.00  -0.00   0.00    -0.00   0.00  -0.00
  40   7     0.00   0.00  -0.00    -0.00   0.00  -0.00     0.21  -0.06   0.20
  41   1    -0.00   0.00  -0.00     0.01  -0.00   0.00    -0.69   0.07  -0.17
  42   1     0.00  -0.00   0.00     0.00  -0.00   0.01    -0.12   0.15  -0.60
  43   7    -0.00  -0.00   0.00    -0.00   0.00  -0.00     0.00  -0.01   0.01
  44   1    -0.00  -0.00   0.00     0.00  -0.00   0.00    -0.02   0.04  -0.06
  45   1     0.01   0.00  -0.01     0.00   0.00  -0.00     0.01   0.00  -0.00
  46   6    -0.01  -0.00   0.00     0.00   0.00  -0.00    -0.00  -0.00  -0.00
  47   8     0.00   0.00  -0.00     0.00  -0.00   0.00     0.00   0.00  -0.00
  48   7    -0.23  -0.03   0.16    -0.00  -0.00   0.00     0.00   0.00   0.00
  49   1     0.64   0.04  -0.66     0.00   0.00  -0.00    -0.00  -0.00   0.00
  50   1     0.22   0.07   0.07     0.00   0.00   0.00    -0.00  -0.00  -0.00
  51   7    -0.01  -0.00  -0.03     0.00   0.00   0.00     0.00   0.00  -0.00
  52   1     0.05   0.01   0.02    -0.00  -0.00  -0.00    -0.00  -0.00  -0.00
  53   1     0.02  -0.00   0.09    -0.00   0.00  -0.00     0.00  -0.00   0.00
                    151                    152                    153
                        a                      a                      a 
 Frequencies --  3564.2205              3565.0449              3569.7331
 Red. masses --     2.1911                 2.1753                 2.1771
 Frc consts  --     0.0000                 0.0000                 0.0000
 IR Inten    --    13.3439                17.1698                10.9610
 Raman Activ --     0.0000                 0.0000                 0.0000
 Depolar     --     0.0000                 0.0000                 0.0000
 Atom AN      X      Y      Z        X      Y      Z        X      Y      Z
   1   8     0.00   0.00  -0.00    -0.00  -0.00   0.00    -0.00   0.00  -0.00
   2   6    -0.00   0.00   0.00     0.00   0.00  -0.00     0.00  -0.00  -0.00
   3   1     0.00  -0.00  -0.00     0.00   0.00   0.00     0.00  -0.00  -0.00
   4   1    -0.00  -0.00   0.00     0.00  -0.00  -0.00    -0.00   0.00  -0.00
   5   6     0.00   0.00  -0.00    -0.00  -0.00  -0.00     0.00  -0.00  -0.00
   6   1    -0.00   0.00   0.00    -0.00  -0.00   0.00    -0.00   0.00   0.00
   7   1    -0.00  -0.00  -0.00     0.00   0.00   0.00    -0.00   0.00  -0.00
   8   7    -0.00   0.00  -0.00     0.00  -0.00  -0.00     0.00  -0.00   0.00
   9   6    -0.00   0.00  -0.00    -0.00   0.00  -0.00    -0.00   0.00  -0.00
  10   1    -0.00   0.00   0.00    -0.00  -0.00   0.00    -0.00   0.00   0.00
  11   1     0.00  -0.00   0.00     0.00  -0.00   0.00     0.00  -0.00   0.00
  12   1    -0.00   0.00  -0.00     0.00   0.00  -0.00     0.00   0.00  -0.00
  13   6    -0.00   0.00  -0.00    -0.00   0.00  -0.00    -0.00   0.00  -0.00
  14   1    -0.00   0.00   0.00     0.00  -0.00   0.00    -0.00   0.00   0.00
  15   1    -0.00   0.00  -0.00     0.00   0.00   0.00    -0.00   0.00  -0.00
  16   1     0.00  -0.00   0.00     0.00  -0.00   0.00     0.00  -0.00   0.00
  17   6     0.00  -0.00   0.00    -0.00  -0.00  -0.00    -0.00   0.00  -0.00
  18   1    -0.00  -0.00  -0.00     0.00   0.00   0.00    -0.00   0.00  -0.00
  19   1     0.00  -0.00   0.00     0.00   0.00  -0.00    -0.00   0.00  -0.00
  20   1    -0.00   0.00  -0.00     0.00  -0.00   0.00     0.00  -0.00  -0.00
  21   1    -0.00  -0.00   0.00    -0.00   0.00  -0.00     0.00  -0.00   0.00
  22   6    -0.00  -0.00  -0.00     0.01   0.00   0.00     0.00   0.00   0.00
  23   8     0.00   0.00  -0.00    -0.00  -0.00  -0.00    -0.00   0.00  -0.00
  24   7    -0.00   0.00  -0.00     0.14  -0.03   0.13     0.00  -0.00   0.00
  25   1     0.00  -0.00   0.00    -0.15   0.22  -0.36    -0.00   0.00  -0.00
  26   1     0.00   0.00   0.00    -0.40  -0.11  -0.14    -0.00  -0.00  -0.00
  27   7    -0.00  -0.00   0.00     0.20   0.09  -0.05     0.00   0.00  -0.00
  28   1     0.00   0.00   0.00    -0.48  -0.02  -0.11    -0.00  -0.00  -0.00
  29   1     0.00   0.00  -0.00    -0.29  -0.33   0.28    -0.00  -0.00   0.00
  30   6     0.00   0.00  -0.01     0.00  -0.00  -0.00    -0.01   0.01  -0.00
  31   8     0.00   0.00   0.00    -0.00   0.00   0.00     0.00  -0.00   0.00
  32   7     0.11  -0.14  -0.09     0.00  -0.00  -0.00    -0.13   0.16   0.10
  33   1    -0.23   0.16   0.38    -0.00   0.00   0.00     0.26  -0.18  -0.42
  34   1    -0.19   0.36  -0.04    -0.00   0.00  -0.00     0.23  -0.43   0.05
  35   7    -0.09   0.16  -0.14    -0.00   0.00  -0.00    -0.08   0.14  -0.12
  36   1     0.31  -0.37   0.05     0.00  -0.00   0.00     0.28  -0.33   0.04
  37   1     0.02  -0.24   0.48     0.00  -0.00   0.00     0.01  -0.20   0.41
  38   6    -0.00   0.00   0.00    -0.00   0.00  -0.00    -0.00   0.00   0.00
  39   8     0.00  -0.00  -0.00     0.00   0.00  -0.00     0.00  -0.00  -0.00
  40   7     0.00  -0.00   0.00    -0.00   0.00  -0.00     0.00  -0.00   0.00
  41   1    -0.00   0.00  -0.00     0.00  -0.00   0.00    -0.00   0.00  -0.00
  42   1    -0.00   0.00  -0.00     0.00  -0.00   0.00    -0.00   0.00  -0.00
  43   7     0.00  -0.00   0.00     0.00   0.00  -0.00     0.00  -0.00   0.00
  44   1    -0.00   0.00  -0.00     0.00  -0.00   0.00    -0.00   0.00  -0.00
  45   1    -0.00  -0.00   0.00    -0.00  -0.00   0.00    -0.00  -0.00   0.00
  46   6    -0.00  -0.00   0.00     0.00   0.00   0.00     0.00   0.00   0.00
  47   8     0.00  -0.00  -0.00     0.00  -0.00   0.00    -0.00   0.00  -0.00
  48   7     0.00   0.00  -0.00     0.01   0.00  -0.00     0.00   0.00  -0.00
  49   1    -0.00  -0.00   0.00    -0.02  -0.00   0.02    -0.00  -0.00   0.00
  50   1    -0.00  -0.00  -0.00    -0.02  -0.00  -0.00    -0.00  -0.00  -0.00
  51   7    -0.00   0.00  -0.00     0.00   0.00   0.00     0.00   0.00  -0.00
  52   1    -0.00   0.00  -0.00    -0.01  -0.00  -0.01    -0.00  -0.00  -0.00
  53   1     0.00  -0.00   0.00    -0.00   0.00  -0.01     0.00   0.00   0.00
