      -----------------------------------------------------------      
     |                   =====================                   |     
     |                           x T B                           |     
     |                   =====================                   |     
     |                         S. Grimme                         |     
     |          Mulliken Center for Theoretical Chemistry        |     
     |                    University of Bonn                     |     
      -----------------------------------------------------------      

   * xtb version 6.6.1 (unknown-commit) compiled by '@Linux' on 12/27/2023

   xtb is free software: you can redistribute it and/or modify it under
   the terms of the GNU Lesser General Public License as published by
   the Free Software Foundation, either version 3 of the License, or
   (at your option) any later version.
   
   xtb is distributed in the hope that it will be useful,
   but WITHOUT ANY WARRANTY; without even the implied warranty of
   MERCHANTABILITY or FITNESS FOR A PARTICULAR PURPOSE.  See the
   GNU Lesser General Public License for more details.
   
   Cite this work as:
   * C. Bannwarth, E. Caldeweyher, S. Ehlert, A. Hansen, P. Pracht,
     J. Seibert, S. Spicher, S. Grimme, WIREs Comput. Mol. Sci., 2020, 11,
     e01493. DOI: 10.1002/wcms.1493
   
   for GFN2-xTB:
   * C. Bannwarth, S. Ehlert and S. Grimme., J. Chem. Theory Comput., 2019,
     15, 1652-1671. DOI: 10.1021/acs.jctc.8b01176
   for GFN1-xTB:
   * S. Grimme, C. Bannwarth, P. Shushkov, J. Chem. Theory Comput., 2017,
     13, 1989-2009. DOI: 10.1021/acs.jctc.7b00118
   for GFN0-xTB:
   * P. Pracht, E. Caldeweyher, S. Ehlert, S. Grimme, ChemRxiv, 2019, preprint.
     DOI: 10.26434/chemrxiv.8326202.v1
   for GFN-FF:
   * S. Spicher and S. Grimme, Angew. Chem. Int. Ed., 2020, 59, 15665-15673.
     DOI: 10.1002/anie.202004239
   
   for ALPB and GBSA implicit solvation:
   * S. Ehlert, M. Stahn, S. Spicher, S. Grimme, J. Chem. Theory Comput.,
     2021, 17, 4250-4261. DOI: 10.1021/acs.jctc.1c00471
   
   for DFT-D4:
   * E. Caldeweyher, C. Bannwarth and S. Grimme, J. Chem. Phys., 2017,
     147, 034112. DOI: 10.1063/1.4993215
   * E. Caldeweyher, S. Ehlert, A. Hansen, H. Neugebauer, S. Spicher,
     C. Bannwarth and S. Grimme, J. Chem. Phys., 2019, 150, 154122.
     DOI: 10.1063/1.5090222
   * E. Caldeweyher, J.-M. Mewes, S. Ehlert and S. Grimme, Phys. Chem. Chem. Phys.
     2020, 22, 8499-8512. DOI: 10.1039/D0CP00502A
   
   for sTDA-xTB:
   * S. Grimme and C. Bannwarth, J. Chem. Phys., 2016, 145, 054103.
     DOI: 10.1063/1.4959605
   
   in the mass-spec context:
   * V. Asgeirsson, C. Bauer and S. Grimme, Chem. Sci., 2017, 8, 4879.
     DOI: 10.1039/c7sc00601b
   * J. Koopman and S. Grimme, ACS Omega 2019, 4, 12, 15120-15133.
     DOI: 10.1021/acsomega.9b02011
   
   for metadynamics refer to:
   * S. Grimme, J. Chem. Theory Comput., 2019, 155, 2847-2862
     DOI: 10.1021/acs.jctc.9b00143
   
   for SPH calculations refer to:
   * S. Spicher and S. Grimme, J. Chem. Theory Comput., 2021, 17, 1701-1714
     DOI: 10.1021/acs.jctc.0c01306
   
   with help from (in alphabetical order)
   P. Atkinson, C. Bannwarth, F. Bohle, G. Brandenburg, E. Caldeweyher
   M. Checinski, S. Dohm, S. Ehlert, S. Ehrlich, I. Gerasimov, C. Hölzer
   A. Katbashev, J. Koopman, C. Lavigne, S. Lehtola, F. März, M. Müller,
   F. Musil, H. Neugebauer, J. Pisarek, C. Plett, P. Pracht, F. Pultar,
   J. Seibert, P. Shushkov, S. Spicher, M. Stahn, M. Steiner, T. Strunk,
   J. Stückrath, T. Rose, and J. Unsleber
   
 * started run on 2024/01/10 at 18:24:42.939     

           -------------------------------------------------
          |                Calculation Setup                |
           -------------------------------------------------

          program call               : xtb struc.xyz --gfn2 --hess
          hostname                   : swaroop
          coordinate file            : struc.xyz
          omp threads                :                     1

   ID    Z sym.   atoms
    1    8 O      1, 23, 31, 39, 47
    2    6 C      2, 5, 9, 13, 17, 22, 30, 38, 46
    3    1 H      3, 4, 6, 7, 10-12, 14-16, 18-21, 25, 26, 28, 29, 33, 34,
                  36, 37, 41, 42, 44, 45, 49, 50, 52, 53
    4    7 N      8, 24, 27, 32, 35, 40, 43, 48, 51

molecular fragmentation (1/2 indicates fragments):
11111111111111111111122222222222222222222222222222222
# atoms in fragment 1/2:    21    32
 fragment masses (1/2) :      104.17      240.22
CMA distance (Bohr)    :   9.451
constraining FC (au)   :  0.0500

           -------------------------------------------------
          |                 G F N 2 - x T B                 |
           -------------------------------------------------

        Reference                      10.1021/acs.jctc.8b01176
      * Hamiltonian:
        H0-scaling (s, p, d)           1.850000    2.230000    2.230000
        zeta-weighting                 0.500000
      * Dispersion:
        s8                             2.700000
        a1                             0.520000
        a2                             5.000000
        s9                             5.000000
      * Repulsion:
        kExp                           1.500000    1.000000
        rExp                           1.000000
      * Coulomb:
        alpha                          2.000000
        third order                    shell-resolved
        anisotropic                    true
        a3                             3.000000
        a5                             4.000000
        cn-shift                       1.200000
        cn-exp                         4.000000
        max-rad                        5.000000


          ...................................................
          :                      SETUP                      :
          :.................................................:
          :  # basis functions                 122          :
          :  # atomic orbitals                 122          :
          :  # shells                           76          :
          :  # electrons                       140          :
          :  max. iterations                   250          :
          :  Hamiltonian                  GFN2-xTB          :
          :  restarted?                      false          :
          :  GBSA solvation                  false          :
          :  PC potential                    false          :
          :  electronic temp.          300.0000000     K    :
          :  accuracy                    1.0000000          :
          :  -> integral cutoff          0.2500000E+02      :
          :  -> integral neglect         0.1000000E-07      :
          :  -> SCF convergence          0.1000000E-05 Eh   :
          :  -> wf. convergence          0.1000000E-03 e    :
          :  Broyden damping             0.4000000          :
          ...................................................

 iter      E             dE          RMSdq      gap      omega  full diag
   1    -81.5552024 -0.815552E+02  0.432E+00    5.05       0.0  T
   2    -81.8359788 -0.280776E+00  0.238E+00    6.12       1.0  T
   3    -81.8419252 -0.594644E-02  0.115E+00    5.87       1.0  T
   4    -81.8433659 -0.144069E-02  0.254E-01    6.00       1.0  T
   5    -81.8443659 -0.999917E-03  0.940E-02    5.93       1.0  T
   6    -81.8443915 -0.256156E-04  0.273E-02    5.94       1.0  T
   7    -81.8443955 -0.399089E-05  0.784E-03    5.94       1.8  T
   8    -81.8443958 -0.315305E-06  0.280E-03    5.94       4.9  T
   9    -81.8443958 -0.251507E-07  0.108E-03    5.94      12.7  T
  10    -81.8443958 -0.744036E-08  0.223E-04    5.94      61.6  T
  11    -81.8443958 -0.608424E-09  0.933E-05    5.94     147.2  T

   *** convergence criteria satisfied after 11 iterations ***

         #    Occupation            Energy/Eh            Energy/eV
      -------------------------------------------------------------
         1        2.0000           -0.8151012             -22.1800
       ...           ...                  ...                  ...
        64        2.0000           -0.4995329             -13.5930
        65        2.0000           -0.4989923             -13.5783
        66        2.0000           -0.4952994             -13.4778
        67        2.0000           -0.4946980             -13.4614
        68        2.0000           -0.4930748             -13.4172
        69        2.0000           -0.4912230             -13.3669
        70        2.0000           -0.4901984             -13.3390 (HOMO)
        71                         -0.2719652              -7.4006 (LUMO)
        72                         -0.2698442              -7.3428
        73                         -0.2667308              -7.2581
        74                         -0.2633149              -7.1652
        75                         -0.1714388              -4.6651
       ...                                ...                  ...
       122                          0.5479505              14.9105
      -------------------------------------------------------------
                  HL-Gap            0.2182332 Eh            5.9384 eV
             Fermi-level           -0.3810818 Eh          -10.3698 eV

 SCC (total)                   0 d,  0 h,  0 min,  0.099 sec
 SCC setup                      ...        0 min,  0.000 sec (  0.289%)
 Dispersion                     ...        0 min,  0.001 sec (  0.594%)
 classical contributions        ...        0 min,  0.000 sec (  0.182%)
 integral evaluation            ...        0 min,  0.008 sec (  7.949%)
 iterations                     ...        0 min,  0.062 sec ( 62.742%)
 molecular gradient             ...        0 min,  0.028 sec ( 27.985%)
 printout                       ...        0 min,  0.000 sec (  0.248%)

         :::::::::::::::::::::::::::::::::::::::::::::::::::::
         ::                     SUMMARY                     ::
         :::::::::::::::::::::::::::::::::::::::::::::::::::::
         :: total energy             -80.936025890498 Eh    ::
         :: gradient norm              0.000178562627 Eh/a0 ::
         :: HOMO-LUMO gap              5.938427486517 eV    ::
         ::.................................................::
         :: SCC energy               -81.844395806649 Eh    ::
         :: -> isotropic ES            0.300178771769 Eh    ::
         :: -> anisotropic ES         -0.030380306103 Eh    ::
         :: -> anisotropic XC          0.019804150670 Eh    ::
         :: -> dispersion             -0.046113891444 Eh    ::
         :: repulsion energy           0.907028574770 Eh    ::
         :: add. restraining           0.000000000000 Eh    ::
         :: total charge               1.000000000000 e     ::
         :::::::::::::::::::::::::::::::::::::::::::::::::::::

           ------------------------------------------------- 
          |                Numerical Hessian                |
           ------------------------------------------------- 
step length          :   0.00500
SCC accuracy         :   0.30000
Hessian scale factor :   1.00000
frozen atoms in %    :   0.00000    0
RMS gradient         :   0.00018
estimated CPU  time      0.24 min
estimated wall time      0.24 min

writing file <hessian>.

 projected vibrational frequencies (cm⁻¹)
eigval :       -0.00    -0.00    -0.00    -0.00     0.00     0.00
eigval :       10.25    29.17    30.77    38.80    39.62    40.34
eigval :       46.11    51.07    52.30    54.01    57.69    58.63
eigval :       87.21    95.49    98.75   119.49   121.83   131.42
eigval :      133.51   141.89   151.44   171.49   175.13   203.59
eigval :      205.95   214.16   219.35   235.37   268.96   290.40
eigval :      297.11   323.39   360.26   379.66   386.08   391.96
eigval :      401.84   422.29   428.63   449.04   460.28   469.77
eigval :      470.76   476.50   480.74   482.06   484.44   492.39
eigval :      513.06   516.35   552.56   555.31   558.11   559.15
eigval :      577.44   627.19   645.44   664.17   673.27   680.47
eigval :      688.51   709.38   732.49   746.85   762.02   790.79
eigval :      905.10   923.97   962.97   968.28   992.25   993.70
eigval :      994.76  1008.60  1018.56  1021.18  1023.84  1024.38
eigval :     1027.01  1033.90  1037.84  1086.39  1086.93  1093.27
eigval :     1096.16  1102.42  1113.34  1130.03  1164.17  1219.14
eigval :     1249.03  1270.40  1309.72  1317.18  1352.57  1353.72
eigval :     1362.33  1373.57  1382.13  1395.18  1408.36  1409.07
eigval :     1424.26  1430.51  1442.22  1446.17  1449.69  1452.20
eigval :     1455.52  1459.60  1466.12  1467.55  1469.21  1481.43
eigval :     1485.52  1508.42  1511.84  1520.50  1525.33  1643.17
eigval :     1666.80  1696.25  1697.73  2867.57  2956.43  2991.18
eigval :     2999.72  3026.57  3037.89  3043.95  3045.63  3048.38
eigval :     3050.35  3055.72  3062.14  3073.16  3144.77  3185.83
eigval :     3228.11  3263.72  3273.83  3309.73  3483.56  3497.60
eigval :     3500.89  3519.05  3530.50  3535.83  3536.57  3536.71
eigval :     3551.73  3561.89  3568.08
           -------------------------------------------------
          |                Property Printout                |
           -------------------------------------------------

    * Orbital Energies and Occupations

         #    Occupation            Energy/Eh            Energy/eV
      -------------------------------------------------------------
         1        2.0000           -0.8151013             -22.1800
       ...           ...                  ...                  ...
        58        2.0000           -0.5089455             -13.8491
        59        2.0000           -0.5067274             -13.7888
        60        2.0000           -0.5051978             -13.7471
        61        2.0000           -0.5040699             -13.7164
        62        2.0000           -0.5015498             -13.6479
        63        2.0000           -0.5001215             -13.6090
        64        2.0000           -0.4995324             -13.5930
        65        2.0000           -0.4989926             -13.5783
        66        2.0000           -0.4953000             -13.4778
        67        2.0000           -0.4946986             -13.4614
        68        2.0000           -0.4930752             -13.4173
        69        2.0000           -0.4912236             -13.3669
        70        2.0000           -0.4901990             -13.3390 (HOMO)
        71                         -0.2719655              -7.4006 (LUMO)
        72                         -0.2698444              -7.3428
        73                         -0.2667313              -7.2581
        74                         -0.2633152              -7.1652
        75                         -0.1714388              -4.6651
        76                         -0.1063719              -2.8945
        77                         -0.1027046              -2.7947
        78                         -0.0937266              -2.5504
        79                         -0.0892944              -2.4298
        80                         -0.0865308              -2.3546
        81                         -0.0729979              -1.9864
       ...                                ...                  ...
       122                          0.5479503              14.9105
      -------------------------------------------------------------
                  HL-Gap            0.2182335 Eh            5.9384 eV
             Fermi-level           -0.3810822 Eh          -10.3698 eV

     #   Z          covCN         q      C6AA      α(0)
     1   8 O        1.655    -0.455    21.943     6.324
     2   6 C        3.673     0.075    19.553     6.337
     3   1 H        0.924     0.053     2.283     2.363
     4   1 H        0.923     0.050     2.318     2.381
     5   6 C        3.762    -0.065    21.797     6.655
     6   1 H        0.924     0.126     1.563     1.955
     7   1 H        0.924     0.072     2.065     2.247
     8   7 N        3.623     0.155    18.620     6.409
     9   6 C        3.728    -0.121    22.926     6.836
    10   1 H        0.925     0.126     1.562     1.955
    11   1 H        0.925     0.111     1.689     2.032
    12   1 H        0.925     0.105     1.738     2.062
    13   6 C        3.736    -0.111    22.704     6.800
    14   1 H        0.925     0.106     1.731     2.058
    15   1 H        0.925     0.080     1.980     2.200
    16   1 H        0.925     0.122     1.596     1.976
    17   6 C        3.723    -0.097    22.466     6.768
    18   1 H        0.925     0.086     1.917     2.165
    19   1 H        0.925     0.094     1.841     2.122
    20   1 H        0.925     0.101     1.774     2.083
    21   1 H        0.803     0.330     0.638     1.254
    22   6 C        2.675     0.342    21.194     7.533
    23   8 O        0.861    -0.530    24.464     6.632
    24   7 N        2.643    -0.307    27.906     7.846
    25   1 H        0.859     0.242     0.914     1.497
    26   1 H        0.861     0.177     1.228     1.736
    27   7 N        2.645    -0.283    27.316     7.762
    28   1 H        0.861     0.186     1.181     1.703
    29   1 H        0.860     0.205     1.080     1.628
    30   6 C        2.675     0.340    21.219     7.538
    31   8 O        0.860    -0.541    24.712     6.665
    32   7 N        2.644    -0.307    27.898     7.844
    33   1 H        0.859     0.245     0.903     1.489
    34   1 H        0.861     0.178     1.228     1.736
    35   7 N        2.645    -0.292    27.527     7.792
    36   1 H        0.861     0.184     1.193     1.711
    37   1 H        0.860     0.199     1.112     1.652
    38   6 C        2.675     0.340    21.231     7.540
    39   8 O        0.860    -0.536    24.604     6.651
    40   7 N        2.644    -0.309    27.961     7.853
    41   1 H        0.860     0.239     0.926     1.508
    42   1 H        0.861     0.179     1.221     1.731
    43   7 N        2.644    -0.315    28.102     7.873
    44   1 H        0.861     0.177     1.234     1.740
    45   1 H        0.860     0.237     0.935     1.515
    46   6 C        2.675     0.342    21.191     7.533
    47   8 O        0.860    -0.554    25.009     6.705
    48   7 N        2.647    -0.296    27.630     7.807
    49   1 H        0.860     0.197     1.122     1.659
    50   1 H        0.860     0.201     1.101     1.643
    51   7 N        2.646    -0.306    27.877     7.842
    52   1 H        0.860     0.228     0.972     1.545
    53   1 H        0.860     0.194     1.137     1.670

 Mol. C6AA /au·bohr⁶  :      21797.068202
 Mol. C8AA /au·bohr⁸  :     454506.586205
 Mol. α(0) /au        :        220.558543


Wiberg/Mayer (AO) data.
largest (>0.10) Wiberg bond orders for each atom

 ---------------------------------------------------------------------------
     #   Z sym  total        # sym  WBO       # sym  WBO       # sym  WBO
 ---------------------------------------------------------------------------
     1   8 O    1.952 --     2 C    1.026    21 H    0.838
     2   6 C    3.968 --     1 O    1.026     5 C    0.996     3 H    0.965
                             4 H    0.958
     3   1 H    0.997 --     2 C    0.965
     4   1 H    0.997 --     2 C    0.958
     5   6 C    3.930 --     2 C    0.996     7 H    0.970     6 H    0.946
                             8 N    0.931
     6   1 H    0.984 --     5 C    0.946
     7   1 H    0.995 --     5 C    0.970
     8   7 N    3.821 --    17 C    0.966    13 C    0.956     9 C    0.949
                             5 C    0.931
     9   6 C    3.908 --    12 H    0.972    11 H    0.967    10 H    0.958
                             8 N    0.949
    10   1 H    0.984 --     9 C    0.958
    11   1 H    0.988 --     9 C    0.967
    12   1 H    0.989 --     9 C    0.972
    13   6 C    3.922 --    15 H    0.979    14 H    0.972    16 H    0.957
                             8 N    0.956
    14   1 H    0.989 --    13 C    0.972
    15   1 H    0.994 --    13 C    0.979
    16   1 H    0.985 --    13 C    0.957
    17   6 C    3.938 --    18 H    0.977    20 H    0.974    19 H    0.974
                             8 N    0.966
    18   1 H    0.993 --    17 C    0.977
    19   1 H    0.991 --    17 C    0.974
    20   1 H    0.990 --    17 C    0.974
    21   1 H    0.891 --     1 O    0.838
    22   6 C    3.960 --    23 O    1.469    24 N    1.255    27 N    1.222
    23   8 O    1.909 --    22 C    1.469    24 N    0.140    27 N    0.128
    24   7 N    3.341 --    22 C    1.255    26 H    0.949    25 H    0.872
                            23 O    0.140
    25   1 H    0.941 --    24 N    0.872
    26   1 H    0.968 --    24 N    0.949
    27   7 N    3.337 --    22 C    1.222    28 H    0.947    29 H    0.941
                            23 O    0.128
    28   1 H    0.965 --    27 N    0.947
    29   1 H    0.958 --    27 N    0.941
    30   6 C    3.960 --    31 O    1.480    32 N    1.264    35 N    1.205
    31   8 O    1.884 --    30 C    1.480    32 N    0.146    35 N    0.128
    32   7 N    3.349 --    30 C    1.264    34 H    0.949    33 H    0.865
                            31 O    0.146
    33   1 H    0.940 --    32 N    0.865
    34   1 H    0.968 --    32 N    0.949
    35   7 N    3.318 --    30 C    1.205    36 H    0.947    37 H    0.943
                            31 O    0.128
    36   1 H    0.966 --    35 N    0.947
    37   1 H    0.960 --    35 N    0.943
    38   6 C    3.960 --    39 O    1.458    40 N    1.252    43 N    1.241
    39   8 O    1.920 --    38 C    1.458    40 N    0.133    43 N    0.131
    40   7 N    3.336 --    38 C    1.252    42 H    0.948    41 H    0.874
                            39 O    0.133
    41   1 H    0.943 --    40 N    0.874
    42   1 H    0.968 --    40 N    0.948
    43   7 N    3.328 --    38 C    1.241    44 H    0.949    45 H    0.876
                            39 O    0.131
    44   1 H    0.968 --    43 N    0.949
    45   1 H    0.944 --    43 N    0.876
    46   6 C    3.959 --    47 O    1.484    51 N    1.249    48 N    1.214
    47   8 O    1.869 --    46 C    1.484    51 N    0.137    48 N    0.133
    48   7 N    3.322 --    46 C    1.214    49 H    0.943    50 H    0.940
                            47 O    0.133
    49   1 H    0.961 --    48 N    0.943
    50   1 H    0.959 --    48 N    0.940
    51   7 N    3.331 --    46 C    1.249    53 H    0.941    52 H    0.884
                            47 O    0.137
    52   1 H    0.948 --    51 N    0.884
    53   1 H    0.962 --    51 N    0.941
 ---------------------------------------------------------------------------

Topologies differ in total number of bonds
Writing topology from bond orders to xtbtopo.mol

molecular dipole:
                 x           y           z       tot (Debye)
 q only:        0.831       0.681       1.967
   full:        1.507       0.902       1.460       5.805
molecular quadrupole (traceless):
                xx          xy          yy          xz          yz          zz
 q only:       -6.749       5.827     -24.642     -24.442      16.203      31.391
  q+dip:       -8.254       9.111     -23.926     -26.263      19.574      32.180
   full:       -8.408       9.117     -23.830     -26.005      18.547      32.238

           -------------------------------------------------
          |               Frequency Printout                |
           -------------------------------------------------
 projected vibrational frequencies (cm⁻¹)
eigval :       -0.00    -0.00    -0.00    -0.00     0.00     0.00
eigval :       10.25    29.17    30.77    38.80    39.62    40.34
eigval :       46.11    51.07    52.30    54.01    57.69    58.63
eigval :       87.21    95.49    98.75   119.49   121.83   131.42
eigval :      133.51   141.89   151.44   171.49   175.13   203.59
eigval :      205.95   214.16   219.35   235.37   268.96   290.40
eigval :      297.11   323.39   360.26   379.66   386.08   391.96
eigval :      401.84   422.29   428.63   449.04   460.28   469.77
eigval :      470.76   476.50   480.74   482.06   484.44   492.39
eigval :      513.06   516.35   552.56   555.31   558.11   559.15
eigval :      577.44   627.19   645.44   664.17   673.27   680.47
eigval :      688.51   709.38   732.49   746.85   762.02   790.79
eigval :      905.10   923.97   962.97   968.28   992.25   993.70
eigval :      994.76  1008.60  1018.56  1021.18  1023.84  1024.38
eigval :     1027.01  1033.90  1037.84  1086.39  1086.93  1093.27
eigval :     1096.16  1102.42  1113.34  1130.03  1164.17  1219.14
eigval :     1249.03  1270.40  1309.72  1317.18  1352.57  1353.72
eigval :     1362.33  1373.57  1382.13  1395.18  1408.36  1409.07
eigval :     1424.26  1430.51  1442.22  1446.17  1449.69  1452.20
eigval :     1455.52  1459.60  1466.12  1467.55  1469.21  1481.43
eigval :     1485.52  1508.42  1511.84  1520.50  1525.33  1643.17
eigval :     1666.80  1696.25  1697.73  2867.57  2956.43  2991.18
eigval :     2999.72  3026.57  3037.89  3043.95  3045.63  3048.38
eigval :     3050.35  3055.72  3062.14  3073.16  3144.77  3185.83
eigval :     3228.11  3263.72  3273.83  3309.73  3483.56  3497.60
eigval :     3500.89  3519.05  3530.50  3535.83  3536.57  3536.71
eigval :     3551.73  3561.89  3568.08
 reduced masses (amu)
   1: 12.75   2: 12.32   3: 12.17   4: 12.44   5: 12.84   6: 12.57   7: 11.49   8: 11.05
   9: 12.13  10: 11.95  11: 12.11  12: 11.93  13: 12.34  14: 12.14  15: 12.51  16: 12.74
  17: 12.48  18: 12.43  19: 13.41  20: 13.14  21: 12.55  22: 12.43  23: 13.41  24: 12.90
  25: 12.93  26: 13.67  27: 12.17  28: 13.07  29: 13.14  30: 12.58  31: 10.61  32:  5.65
  33:  9.06  34:  2.32  35:  6.31  36:  6.40  37:  2.58  38:  6.61  39:  1.66  40:  3.54
  41:  6.84  42:  3.25  43:  3.21  44:  3.22  45:  9.01  46:  3.56  47:  8.18  48:  5.76
  49:  5.96  50:  6.13  51:  5.65  52:  6.33  53:  7.29  54:  1.67  55:  5.69  56:  8.08
  57:  9.67  58: 11.46  59: 11.09  60:  9.29  61: 12.12  62:  2.81  63:  4.62  64: 10.46
  65: 11.03  66: 10.68  67:  9.73  68:  2.74  69:  2.44  70:  1.96  71:  9.42  72:  2.31
  73:  7.48  74:  7.90  75:  5.10  76:  4.82  77:  4.60  78:  5.27  79:  6.68  80:  7.65
  81:  9.29  82:  9.34  83:  8.21  84:  7.62  85:  5.56  86:  4.16  87:  9.89  88:  8.59
  89:  8.68  90:  6.93  91:  7.60  92:  4.33  93:  8.28  94:  8.37  95:  2.76  96:  6.00
  97:  7.18  98:  8.07  99:  6.41 100:  2.89 101:  4.68 102:  4.51 103:  4.34 104:  4.81
 105:  3.68 106:  4.52 107:  2.60 108:  2.62 109:  2.12 110:  1.77 111:  2.28 112:  3.21
 113:  3.07 114:  1.87 115:  1.63 116:  3.16 117:  2.90 118:  1.82 119:  1.82 120:  1.68
 121:  1.77 122:  8.87 123:  9.23 124:  9.54 125:  9.12 126: 12.18 127: 12.56 128: 12.64
 129: 12.62 130:  1.78 131:  1.65 132:  1.68 133:  1.83 134:  1.75 135:  1.82 136:  1.83
 137:  1.57 138:  1.75 139:  1.69 140:  1.73 141:  1.64 142:  1.80 143:  1.82 144:  1.82
 145:  1.76 146:  1.80 147:  1.89 148:  1.76 149:  1.45 150:  1.45 151:  1.45 152:  1.90
 153:  1.91 154:  1.89 155:  1.90 156:  1.90 157:  2.18 158:  2.18 159:  2.19
 IR intensities (km·mol⁻¹)
   1:  1.74   2:  2.65   3:  0.46   4:  0.84   5:  1.78   6:  2.18   7:  3.08   8:  1.27
   9:  3.57  10:  0.33  11:  0.86  12:  1.34  13:  1.96  14:  2.10  15:  1.01  16:  0.80
  17:  1.74  18:  0.45  19:  5.44  20:  6.66  21:  2.02  22: 11.69  23:  2.90  24: 25.34
  25: 32.30  26:  3.18  27:  5.89  28:  5.58  29:  8.14  30:  4.22  31:  5.02  32:130.42
  33:119.49  34:  2.64  35:  0.75  36:  7.73  37:107.21  38:  4.42  39:  0.96  40: 61.39
  41:  7.72  42:108.83  43:120.12  44:314.44  45:  2.62  46:431.42  47:  4.40  48: 51.55
  49:  2.29  50:  3.14  51: 13.94  52: 78.74  53: 21.44  54:  9.13  55:  2.42  56: 70.66
  57: 62.92  58: 28.91  59:  5.11  60: 13.81  61: 63.81  62:148.04  63:138.82  64: 31.48
  65: 30.15  66:  5.40  67:272.70  68:157.14  69: 20.21  70: 65.30  71:  4.80  72:597.34
  73:  2.36  74:  8.17  75:  8.01  76:  3.04  77:  4.65  78:  1.57  79: 16.56  80: 26.85
  81:  4.38  82:  4.67  83:  8.31  84:  4.28  85:  8.46  86:  7.13  87:  0.50  88:  0.45
  89:  0.03  90: 13.39  91:  4.42  92: 16.91  93:  4.56  94: 41.66  95: 12.12  96:  7.59
  97:  3.72  98:  4.07  99:  1.84 100:  5.04 101:142.11 102:130.41 103: 13.62 104: 13.85
 105:106.99 106:  1.49 107: 31.21 108: 23.09 109:  7.16 110:  1.36 111:  6.95 112: 12.11
 113:  5.82 114:  3.10 115:  0.22 116:  7.84 117: 19.76 118: 17.20 119: 30.41 120: 47.86
 121: 16.10 122:566.04 123:618.44 124:  6.01 125:699.11 126:319.79 127:306.53 128:******
 129:****** 130: 35.33 131: 45.35 132: 13.67 133: 13.44 134: 36.90 135:  6.95 136:  0.37
 137: 10.21 138:  6.82 139:  7.07 140:  3.01 141:  2.76 142:  1.38 143:894.42 144:150.58
 145:****** 146:588.83 147:796.07 148:870.32 149: 30.76 150: 19.24 151: 24.37 152: 17.71
 153:  4.93 154:  8.60 155: 16.08 156: 29.98 157: 22.38 158: 13.79 159: 17.60
 Raman intensities (amu)
Molecule has no symmetry elements
It seems to be the C1 point group
   1:  0.00   2:  0.00   3:  0.00   4:  0.00   5:  0.00   6:  0.00   7:  0.00   8:  0.00
   9:  0.00  10:  0.00  11:  0.00  12:  0.00  13:  0.00  14:  0.00  15:  0.00  16:  0.00
  17:  0.00  18:  0.00  19:  0.00  20:  0.00  21:  0.00  22:  0.00  23:  0.00  24:  0.00
  25:  0.00  26:  0.00  27:  0.00  28:  0.00  29:  0.00  30:  0.00  31:  0.00  32:  0.00
  33:  0.00  34:  0.00  35:  0.00  36:  0.00  37:  0.00  38:  0.00  39:  0.00  40:  0.00
  41:  0.00  42:  0.00  43:  0.00  44:  0.00  45:  0.00  46:  0.00  47:  0.00  48:  0.00
  49:  0.00  50:  0.00  51:  0.00  52:  0.00  53:  0.00  54:  0.00  55:  0.00  56:  0.00
  57:  0.00  58:  0.00  59:  0.00  60:  0.00  61:  0.00  62:  0.00  63:  0.00  64:  0.00
  65:  0.00  66:  0.00  67:  0.00  68:  0.00  69:  0.00  70:  0.00  71:  0.00  72:  0.00
  73:  0.00  74:  0.00  75:  0.00  76:  0.00  77:  0.00  78:  0.00  79:  0.00  80:  0.00
  81:  0.00  82:  0.00  83:  0.00  84:  0.00  85:  0.00  86:  0.00  87:  0.00  88:  0.00
  89:  0.00  90:  0.00  91:  0.00  92:  0.00  93:  0.00  94:  0.00  95:  0.00  96:  0.00
  97:  0.00  98:  0.00  99:  0.00 100:  0.00 101:  0.00 102:  0.00 103:  0.00 104:  0.00
 105:  0.00 106:  0.00 107:  0.00 108:  0.00 109:  0.00 110:  0.00 111:  0.00 112:  0.00
 113:  0.00 114:  0.00 115:  0.00 116:  0.00 117:  0.00 118:  0.00 119:  0.00 120:  0.00
 121:  0.00 122:  0.00 123:  0.00 124:  0.00 125:  0.00 126:  0.00 127:  0.00 128:  0.00
 129:  0.00 130:  0.00 131:  0.00 132:  0.00 133:  0.00 134:  0.00 135:  0.00 136:  0.00
 137:  0.00 138:  0.00 139:  0.00 140:  0.00 141:  0.00 142:  0.00 143:  0.00 144:  0.00
 145:  0.00 146:  0.00 147:  0.00 148:  0.00 149:  0.00 150:  0.00 151:  0.00 152:  0.00
 153:  0.00 154:  0.00 155:  0.00 156:  0.00 157:  0.00 158:  0.00 159:  0.00
 output can be read by thermo (or use thermo option).
 writing <g98.out> molden fake output.
 recommended (thermochemical) frequency scaling factor: 1.0
           -------------------------------------------------
          |             Thermodynamic Functions             |
           -------------------------------------------------

c1  symmetry found (for desy threshold:  0.10E+00) used in thermo

          ...................................................
          :                      SETUP                      :
          :.................................................:
          :  # frequencies                         153      :
          :  # imaginary freq.                       0      :
          :  linear?                             false      :
          :  only rotor calc.                    false      :
          :  symmetry                               c1      :
          :  rotational number                       1      :
          :  scaling factor                  1.0000000      :
          :  rotor cutoff                   50.0000000 cm⁻¹ :
          :  imag. cutoff                  -20.0000000 cm⁻¹ :
          :.................................................:

    mode    ω/cm⁻¹     T·S(HO)/kcal·mol⁻¹    T·S(FR)/kcal·mol⁻¹   T·S(vib)
   ------------------------------------------------------------------------
       1     10.25    -2.37361 (  0.18%)    -1.52574 ( 99.82%)    -1.52724
       2     29.17    -1.75468 ( 10.38%)    -1.21616 ( 89.62%)    -1.27205
       3     30.77    -1.72296 ( 12.55%)    -1.20027 ( 87.45%)    -1.26587
       4     38.80    -1.58605 ( 26.60%)    -1.13167 ( 73.40%)    -1.25255
       5     39.62    -1.57370 ( 28.27%)    -1.12548 ( 71.73%)    -1.25218
       6     40.34    -1.56296 ( 29.77%)    -1.12009 ( 70.23%)    -1.25191
       7     46.11    -1.48402 ( 41.98%)    -1.08048 ( 58.02%)    -1.24989
       8     51.07    -1.42387 ( 52.11%)    -1.05028 ( 47.89%)    -1.24495
       9     52.30    -1.40980 ( 54.48%)    -1.04320 ( 45.52%)    -1.24294
      10     54.01    -1.39080 ( 57.66%)    -1.03365 ( 42.34%)    -1.23958
      11     57.69    -1.35203 ( 63.92%)    -1.01415 ( 36.08%)    -1.23014
      12     58.63    -1.34247 ( 65.41%)    -1.00934 ( 34.59%)    -1.22724
      13     87.21    -1.10959 ( 90.25%)    -0.89172 (  9.75%)    -1.08835
      14     95.49    -1.05676 ( 93.01%)    -0.86488 (  6.99%)    -1.04335
      15     98.75    -1.03719 ( 93.83%)    -0.85491 (  6.17%)    -1.02595
      16    119.49    -0.92682 ( 97.03%)    -0.79844 (  2.97%)    -0.92300
      17    121.83    -0.91566 ( 97.24%)    -0.79271 (  2.76%)    -0.91227
      18    131.42    -0.87213 ( 97.95%)    -0.77025 (  2.05%)    -0.87004
      19    133.51    -0.86310 ( 98.07%)    -0.76559 (  1.93%)    -0.86122
      20    141.89    -0.82831 ( 98.48%)    -0.74754 (  1.52%)    -0.82708
      21    151.44    -0.79132 ( 98.83%)    -0.72826 (  1.17%)    -0.79057
      22    171.49    -0.72124 ( 99.28%)    -0.69142 (  0.72%)    -0.72103
      23    175.13    -0.70951 ( 99.34%)    -0.68520 (  0.66%)    -0.70935
      24    203.59    -0.62623 ( 99.64%)    -0.64059 (  0.36%)    -0.62628
      25    205.95    -0.61994 ( 99.65%)    -0.63718 (  0.35%)    -0.62000
      26    214.16    -0.59867 ( 99.70%)    -0.62560 (  0.30%)    -0.59875
      27    219.35    -0.58569 ( 99.73%)    -0.61850 (  0.27%)    -0.58578
      28    235.37    -0.54789 ( 99.80%)    -0.59763 (  0.20%)    -0.54799
      29    268.96    -0.47790 ( 99.88%)    -0.55810 (  0.12%)    -0.47799
      30    290.40    -0.43877 ( 99.91%)    -0.53539 (  0.09%)    -0.43886
      31    297.11    -0.42729 ( 99.92%)    -0.52862 (  0.08%)    -0.42738
   ------------------------------------------------------------------------

   temp. (K)  partition function   enthalpy   heat capacity  entropy
                                   cal/mol     cal/K/mol   cal/K/mol   J/K/mol
 298.15  VIB  0.628E+16            18871.956    103.367    122.914
         ROT  0.130E+08              888.752      2.981     35.526
         INT  0.814E+23            19760.709    106.348    158.439
         TR   0.618E+28             1481.254      4.968     43.384
         TOT                       21241.9627   111.3165   201.8238   844.4306

       T/K    H(0)-H(T)+PV         H(T)/Eh          T*S/Eh         G(T)/Eh
   ------------------------------------------------------------------------
    298.15    0.338512E-01    0.473953E+00    0.958930E-01    0.378061E+00
   ------------------------------------------------------------------------

         :::::::::::::::::::::::::::::::::::::::::::::::::::::
         ::                  THERMODYNAMIC                  ::
         :::::::::::::::::::::::::::::::::::::::::::::::::::::
         :: total free energy         -80.557965375751 Eh   ::
         ::.................................................::
         :: total energy              -80.936025890532 Eh   ::
         :: zero point energy           0.440102268745 Eh   ::
         :: G(RRHO) w/o ZPVE           -0.062041753964 Eh   ::
         :: G(RRHO) contrib.            0.378060514781 Eh   ::
         :::::::::::::::::::::::::::::::::::::::::::::::::::::

           -------------------------------------------------
          | TOTAL ENERGY              -80.936025890532 Eh   |
          | TOTAL ENTHALPY            -80.462072399531 Eh   |
          | TOTAL FREE ENERGY         -80.557965375751 Eh   |
          | GRADIENT NORM               0.000178847341 Eh/α |
          | HOMO-LUMO GAP               5.938436582438 eV   |
           -------------------------------------------------

------------------------------------------------------------------------
 * finished run on 2024/01/10 at 18:24:57.470     
------------------------------------------------------------------------
 total:
 * wall-time:     0 d,  0 h,  0 min, 14.531 sec
 *  cpu-time:     0 d,  0 h,  0 min, 14.441 sec
 * ratio c/w:     0.994 speedup
 SCF:
 * wall-time:     0 d,  0 h,  0 min,  0.099 sec
 *  cpu-time:     0 d,  0 h,  0 min,  0.059 sec
 * ratio c/w:     0.591 speedup
 analytical hessian:
 * wall-time:     0 d,  0 h,  0 min, 14.404 sec
 *  cpu-time:     0 d,  0 h,  0 min, 14.355 sec
 * ratio c/w:     0.997 speedup

