 Entering Gaussian System
 *********************************************
 Gaussian 98:
 frequency output generated by the xtb code
 *********************************************
                         Standard orientation:
 --------------------------------------------------------------------
  Center     Atomic     Atomic              Coordinates (Angstroms)
  Number     Number      Type              X           Y           Z
 --------------------------------------------------------------------
    1          8             0       -2.547974   -0.614807   -1.132592
    2          6             0       -1.675058   -0.701852   -0.046699
    3          1             0       -1.502260    0.288615    0.394131
    4          1             0       -2.163282   -1.320393    0.709210
    5          6             0       -0.286078   -1.245727   -0.413447
    6          1             0        0.347205   -1.196072    0.473406
    7          1             0        0.124589   -0.598155   -1.190750
    8          7             0       -0.245056   -2.645595   -0.923484
    9          6             0        1.169859   -3.023240   -1.080048
   10          1             0        1.650603   -3.025159   -0.103820
   11          1             0        1.680436   -2.312942   -1.727202
   12          1             0        1.246147   -4.017743   -1.516122
   13          6             0       -0.925259   -2.738675   -2.225993
   14          1             0       -0.900527   -3.764560   -2.588476
   15          1             0       -0.430783   -2.090832   -2.947569
   16          1             0       -1.958551   -2.409597   -2.119686
   17          6             0       -0.869123   -3.573602    0.034476
   18          1             0       -0.722361   -4.598881   -0.299665
   19          1             0       -1.936203   -3.381936    0.104025
   20          1             0       -0.402753   -3.444781    1.011539
   21          1             0       -2.163826    0.040179   -1.758342
   22          6             0        2.360387   -2.547451    2.508694
   23          8             0        1.164089   -2.687625    2.232038
   24          7             0        3.102882   -3.587290    2.957229
   25          1             0        2.631309   -4.441029    3.198804
   26          1             0        4.042442   -3.460457    3.287260
   27          7             0        2.996193   -1.384278    2.296304
   28          1             0        3.941283   -1.239429    2.601356
   29          1             0        2.431429   -0.571821    2.036612
   30          6             0        0.375754    3.451904   -0.252870
   31          8             0       -0.303932    4.227767   -0.909588
   32          7             0        0.607010    2.176624   -0.606555
   33          1             0        0.054300    1.793979   -1.372424
   34          1             0        1.000019    1.546300    0.081741
   35          7             0        0.939196    3.833125    0.954571
   36          1             0        1.776691    3.341576    1.230005
   37          1             0        0.973653    4.832803    1.093109
   38          6             0       -1.619639    1.950586   -3.383695
   39          8             0       -1.117775    1.105512   -2.623143
   40          7             0       -1.462534    3.261128   -3.209403
   41          1             0       -1.004009    3.635381   -2.365996
   42          1             0       -1.903973    3.917239   -3.827870
   43          7             0       -2.352112    1.551301   -4.452247
   44          1             0       -2.771049    2.207857   -5.084385
   45          1             0       -2.485297    0.571503   -4.623150
   46          6             0        0.227716    0.726553    2.541326
   47          8             0        1.167896    0.650726    1.737987
   48          7             0       -0.277225   -0.377820    3.123437
   49          1             0        0.163906   -1.272792    2.926749
   50          1             0       -0.970500   -0.323890    3.846486
   51          7             0       -0.342592    1.907588    2.839738
   52          1             0       -1.136121    1.972536    3.450476
   53          1             0       -0.036623    2.734057    2.336914
 --------------------------------------------------------------------
     1 basis functions        1 primitive gaussians
     1 alpha electrons        1 beta electrons

 Harmonic frequencies (cm**-1), IR intensities (km*mol⁻¹),
 Raman scattering activities (A**4/amu), Raman depolarization ratios,
 reduced masses (AMU), force constants (mDyne/A) and normal coordinates:
                      1                      2                      3
                        a                      a                      a 
 Frequencies --     6.4467                22.3538                31.9290
 Red. masses --    11.9278                11.5668                12.7057
 Frc consts  --     0.0000                 0.0000                 0.0000
 IR Inten    --     0.5599                 1.7929                 4.2716
 Raman Activ --     0.0000                 0.0000                 0.0000
 Depolar     --     0.0000                 0.0000                 0.0000
 Atom AN      X      Y      Z        X      Y      Z        X      Y      Z
   1   8     0.01  -0.20  -0.10    -0.11  -0.01   0.20    -0.05  -0.02   0.03
   2   6    -0.03  -0.15  -0.05    -0.09  -0.07   0.16    -0.07  -0.06   0.04
   3   1    -0.04  -0.04  -0.00    -0.04  -0.03   0.08    -0.02  -0.02   0.02
   4   1    -0.00  -0.06  -0.03    -0.01  -0.05   0.03    -0.02  -0.03   0.00
   5   6     0.02  -0.03  -0.02    -0.05   0.06   0.10    -0.06  -0.03   0.05
   6   1    -0.00  -0.00   0.00    -0.02  -0.00   0.03    -0.02  -0.02   0.02
   7   1     0.00   0.01   0.01    -0.03   0.05   0.05    -0.02  -0.00   0.02
   8   7     0.16  -0.01  -0.07     0.04   0.13  -0.08    -0.03  -0.02   0.01
   9   6     0.18   0.10  -0.01     0.07   0.26  -0.15    -0.03   0.03  -0.05
  10   1     0.04   0.03   0.00     0.03   0.06  -0.05     0.00   0.01  -0.02
  11   1     0.05   0.05   0.01    -0.00   0.11  -0.03    -0.02   0.01  -0.02
  12   1     0.08   0.03  -0.01     0.04   0.09  -0.07    -0.00   0.01  -0.02
  13   6     0.22  -0.01  -0.10     0.03   0.23  -0.08    -0.07  -0.01   0.03
  14   1     0.09  -0.00  -0.04     0.04   0.08  -0.07    -0.01  -0.00   0.00
  15   1     0.06   0.01  -0.02    -0.02   0.12   0.00    -0.03   0.01   0.01
  16   1     0.05  -0.03  -0.04    -0.00   0.03  -0.00    -0.02  -0.02   0.02
  17   6     0.17  -0.09  -0.12     0.12  -0.04  -0.18     0.03  -0.06   0.01
  18   1     0.08  -0.02  -0.04     0.06   0.00  -0.08     0.01  -0.01  -0.00
  19   1     0.04  -0.05  -0.05     0.03  -0.04  -0.04     0.01  -0.03   0.02
  20   1     0.03  -0.02  -0.03     0.03  -0.03  -0.05     0.02  -0.02   0.00
  21   1    -0.01  -0.03  -0.01    -0.02  -0.00   0.05    -0.01  -0.00   0.01
  22   6    -0.13  -0.03   0.10    -0.12  -0.05  -0.09     0.06   0.11  -0.11
  23   8    -0.14   0.01   0.09    -0.17   0.03   0.01     0.06   0.10  -0.08
  24   7    -0.19  -0.03   0.19    -0.15  -0.11  -0.17     0.16   0.07  -0.37
  25   1    -0.06   0.00   0.06    -0.05  -0.02  -0.03     0.06   0.01  -0.11
  26   1    -0.05  -0.01   0.05    -0.03  -0.04  -0.06     0.04   0.02  -0.09
  27   7    -0.08  -0.07   0.04    -0.07  -0.09  -0.15    -0.02   0.19   0.06
  28   1    -0.02  -0.02   0.02    -0.01  -0.04  -0.05     0.00   0.05  -0.01
  29   1    -0.01  -0.02   0.00    -0.01  -0.01  -0.02    -0.02   0.05   0.04
  30   6     0.14   0.01  -0.06    -0.02   0.02  -0.00     0.14  -0.04  -0.02
  31   8     0.21   0.06  -0.08    -0.05  -0.04  -0.05     0.34   0.01  -0.15
  32   7     0.04  -0.01  -0.04    -0.00   0.00   0.06     0.09  -0.07   0.03
  33   1    -0.01   0.00  -0.00    -0.00  -0.01   0.02     0.03  -0.01   0.00
  34   1    -0.00  -0.01  -0.01     0.00   0.01   0.03    -0.01  -0.02   0.03
  35   7     0.20   0.00  -0.09    -0.02   0.10  -0.03     0.00  -0.07   0.05
  36   1     0.04  -0.02  -0.02     0.00   0.04  -0.01    -0.03  -0.05   0.06
  37   1     0.07   0.00  -0.03    -0.01   0.03  -0.02     0.03  -0.02   0.01
  38   6    -0.18   0.06   0.12     0.08  -0.19   0.02     0.05  -0.03   0.06
  39   8    -0.14   0.06   0.09     0.03  -0.17   0.11     0.02  -0.04   0.09
  40   7    -0.07   0.06   0.06     0.04  -0.19  -0.02     0.31  -0.04  -0.11
  41   1     0.01   0.02  -0.00    -0.00  -0.04  -0.01     0.10  -0.01  -0.04
  42   1    -0.03   0.02   0.03     0.03  -0.06  -0.03     0.08  -0.01  -0.03
  43   7    -0.37   0.07   0.25     0.20  -0.26  -0.04    -0.15  -0.03   0.21
  44   1    -0.12   0.02   0.08     0.04  -0.08  -0.01    -0.03  -0.01   0.05
  45   1    -0.13   0.02   0.09     0.04  -0.07   0.01    -0.09  -0.01   0.09
  46   6    -0.01   0.05  -0.04     0.05   0.08   0.09    -0.18   0.01   0.05
  47   8    -0.00  -0.02  -0.04     0.02   0.05   0.07    -0.11   0.10   0.15
  48   7    -0.06   0.09  -0.02     0.07   0.12   0.17    -0.13  -0.03   0.03
  49   1    -0.03   0.02   0.00    -0.00   0.02   0.03    -0.01   0.00   0.01
  50   1    -0.02   0.04  -0.01     0.01   0.04   0.04    -0.06  -0.03  -0.01
  51   7     0.05   0.08  -0.08     0.09   0.11   0.09    -0.35  -0.04  -0.05
  52   1     0.01   0.04  -0.02     0.03   0.04   0.03    -0.10  -0.02  -0.02
  53   1     0.03   0.02  -0.02     0.02   0.02   0.01    -0.09  -0.00   0.00
                      4                      5                      6
                        a                      a                      a 
 Frequencies --    38.6623                40.0715                48.1073
 Red. masses --    12.2020                11.6321                12.5233
 Frc consts  --     0.0000                 0.0000                 0.0000
 IR Inten    --     1.3924                 2.1875                 0.5688
 Raman Activ --     0.0000                 0.0000                 0.0000
 Depolar     --     0.0000                 0.0000                 0.0000
 Atom AN      X      Y      Z        X      Y      Z        X      Y      Z
   1   8     0.01  -0.09  -0.19     0.28   0.01   0.07    -0.14  -0.20  -0.12
   2   6    -0.08  -0.07  -0.09     0.29   0.00   0.02    -0.19  -0.21  -0.05
   3   1    -0.04  -0.02  -0.02     0.11   0.00  -0.01    -0.07  -0.07   0.01
   4   1    -0.04  -0.02  -0.04     0.08   0.03   0.02    -0.07  -0.08  -0.03
   5   6    -0.04  -0.05   0.01     0.23  -0.14  -0.00    -0.15  -0.14   0.01
   6   1    -0.02   0.01   0.01     0.07  -0.06   0.00    -0.05  -0.03   0.01
   7   1    -0.01  -0.02  -0.00     0.09  -0.05  -0.00    -0.04  -0.03   0.01
   8   7     0.04  -0.09   0.11     0.06  -0.16  -0.00    -0.06  -0.14   0.00
   9   6     0.05  -0.01   0.09     0.01  -0.35   0.05    -0.03  -0.03  -0.02
  10   1     0.02   0.02   0.02    -0.01  -0.13   0.02    -0.00   0.01  -0.01
  11   1    -0.00  -0.01   0.01     0.04  -0.12   0.02    -0.03   0.00  -0.01
  12   1     0.03  -0.01   0.05    -0.04  -0.10   0.01     0.01  -0.01  -0.00
  13   6     0.02  -0.20   0.11     0.09  -0.06  -0.03    -0.07  -0.18   0.01
  14   1     0.01  -0.07   0.06    -0.01  -0.02  -0.01    -0.00  -0.05   0.01
  15   1     0.00  -0.07   0.02     0.06  -0.04  -0.00    -0.03  -0.05   0.00
  16   1     0.00  -0.06   0.03     0.04   0.03  -0.02    -0.02  -0.07   0.01
  17   6     0.10  -0.06   0.17    -0.12  -0.05  -0.03     0.03  -0.18   0.01
  18   1     0.05  -0.02   0.07    -0.06  -0.02   0.00     0.03  -0.05   0.00
  19   1     0.03  -0.03   0.05    -0.03   0.02  -0.03     0.01  -0.08   0.01
  20   1     0.03   0.01   0.05    -0.05  -0.02   0.00     0.01  -0.04   0.00
  21   1     0.01  -0.01  -0.03     0.06  -0.00   0.01    -0.03  -0.03  -0.01
  22   6    -0.03  -0.01  -0.10    -0.13  -0.01  -0.10     0.01   0.08  -0.03
  23   8    -0.13  -0.01   0.31    -0.18   0.06  -0.04     0.03   0.12  -0.13
  24   7     0.06   0.05  -0.12    -0.12  -0.11  -0.36     0.01   0.02  -0.17
  25   1     0.02   0.03   0.05    -0.04  -0.03  -0.10    -0.00   0.00  -0.07
  26   1     0.04   0.02  -0.12    -0.04  -0.04  -0.08    -0.01   0.00  -0.01
  27   7    -0.03  -0.09  -0.59    -0.14   0.01   0.05     0.00   0.13   0.21
  28   1     0.01  -0.01  -0.21    -0.02  -0.02  -0.02     0.00   0.02   0.05
  29   1    -0.03  -0.02  -0.11    -0.03   0.01   0.03     0.01   0.04   0.04
  30   6    -0.02   0.05   0.03    -0.04   0.08   0.01     0.06   0.03   0.05
  31   8     0.03   0.09   0.01    -0.09   0.05   0.01     0.00   0.05   0.14
  32   7    -0.05   0.05   0.04     0.02   0.09   0.03    -0.00   0.03   0.03
  33   1    -0.01   0.02   0.01     0.01   0.01   0.00    -0.03   0.01   0.03
  34   1    -0.03   0.01   0.02     0.01   0.03   0.01     0.01   0.01  -0.00
  35   7    -0.03   0.05   0.04    -0.05   0.13   0.00     0.21   0.03  -0.02
  36   1    -0.01   0.01   0.01    -0.01   0.05   0.00     0.06  -0.00  -0.02
  37   1    -0.01   0.01   0.01    -0.03   0.04  -0.00     0.07   0.01  -0.01
  38   6     0.05   0.08  -0.02    -0.02  -0.01   0.04     0.02   0.03   0.08
  39   8    -0.00   0.09   0.01     0.12   0.02  -0.01    -0.10   0.02   0.15
  40   7     0.10   0.09  -0.03    -0.13  -0.00   0.06    -0.16   0.04   0.23
  41   1     0.02   0.02  -0.01    -0.03   0.01   0.01    -0.05   0.01   0.07
  42   1     0.04   0.03  -0.02    -0.07  -0.01   0.03     0.01   0.01   0.03
  43   7     0.09   0.10  -0.05    -0.07  -0.06   0.09     0.37   0.05  -0.17
  44   1     0.03   0.03  -0.01    -0.03  -0.02   0.02     0.07   0.02  -0.02
  45   1     0.00   0.03  -0.00     0.02  -0.02   0.01     0.07   0.02  -0.03
  46   6    -0.04   0.01   0.06    -0.01   0.12   0.03     0.03   0.11  -0.05
  47   8    -0.15  -0.06  -0.04     0.01   0.13   0.06     0.08   0.10  -0.01
  48   7    -0.01   0.05   0.17    -0.01   0.15   0.06    -0.06   0.11  -0.15
  49   1    -0.01   0.01   0.05    -0.02   0.04   0.01    -0.01   0.03  -0.03
  50   1     0.02   0.03   0.07    -0.02   0.04   0.00    -0.02   0.03  -0.04
  51   7     0.03   0.04   0.08    -0.02   0.14  -0.00     0.09   0.13  -0.03
  52   1     0.03   0.02   0.04    -0.01   0.04  -0.00     0.01   0.04  -0.03
  53   1     0.00   0.00   0.00    -0.00   0.04  -0.00     0.04   0.03  -0.00
                      7                      8                      9
                        a                      a                      a 
 Frequencies --    50.8376                54.7913                56.0204
 Red. masses --    12.4703                12.4522                12.2692
 Frc consts  --     0.0000                 0.0000                 0.0000
 IR Inten    --     0.6266                 0.6382                 3.4430
 Raman Activ --     0.0000                 0.0000                 0.0000
 Depolar     --     0.0000                 0.0000                 0.0000
 Atom AN      X      Y      Z        X      Y      Z        X      Y      Z
   1   8     0.02   0.00  -0.04    -0.08  -0.07  -0.18     0.00  -0.08  -0.02
   2   6     0.02   0.08  -0.03    -0.15  -0.01  -0.08    -0.00  -0.12  -0.02
   3   1    -0.00   0.03  -0.02    -0.06  -0.00  -0.02     0.00  -0.04   0.01
   4   1     0.01   0.03  -0.00    -0.05  -0.01  -0.03    -0.01  -0.04  -0.01
   5   6     0.04   0.09   0.01    -0.10   0.04   0.01    -0.01  -0.14  -0.02
   6   1     0.01   0.04   0.01    -0.04   0.03   0.01    -0.01  -0.06   0.00
   7   1     0.01   0.02  -0.00    -0.03   0.01   0.00     0.01  -0.03   0.01
   8   7     0.08   0.09   0.04    -0.00   0.02   0.08    -0.04  -0.12  -0.10
   9   6     0.08   0.09   0.10     0.02   0.09   0.15    -0.05  -0.15  -0.08
  10   1     0.01   0.03   0.03    -0.01   0.04   0.05    -0.02  -0.06  -0.02
  11   1     0.03   0.03   0.03     0.01   0.03   0.05    -0.00  -0.04  -0.01
  12   1     0.03   0.03   0.03     0.03   0.02   0.05    -0.02  -0.04  -0.03
  13   6     0.12   0.05   0.02     0.06  -0.06   0.04    -0.02  -0.03  -0.11
  14   1     0.04   0.01   0.01     0.03  -0.02   0.03    -0.01  -0.01  -0.04
  15   1     0.04   0.01   0.01     0.02  -0.02   0.01     0.00  -0.00  -0.02
  16   1     0.03   0.01  -0.01     0.01  -0.03  -0.01    -0.00  -0.00  -0.03
  17   6     0.05   0.09   0.04    -0.00   0.02   0.07    -0.09  -0.14  -0.14
  18   1     0.02   0.03   0.02     0.01   0.01   0.03    -0.03  -0.04  -0.05
  19   1     0.01   0.03   0.00    -0.00  -0.01   0.01    -0.02  -0.03  -0.05
  20   1     0.00   0.03   0.01    -0.01   0.02   0.02    -0.03  -0.05  -0.04
  21   1    -0.01  -0.00  -0.02    -0.02  -0.01  -0.03    -0.00  -0.01   0.00
  22   6    -0.01  -0.01   0.02     0.03  -0.15   0.06    -0.00   0.10  -0.03
  23   8    -0.04   0.04   0.12     0.02  -0.10   0.08     0.05   0.08  -0.26
  24   7     0.06  -0.11  -0.30     0.06  -0.28  -0.26    -0.08   0.16   0.20
  25   1     0.02  -0.03  -0.09     0.01  -0.08  -0.09    -0.02   0.04   0.03
  26   1     0.01  -0.04  -0.07     0.01  -0.09  -0.04    -0.03   0.05   0.08
  27   7    -0.04   0.04   0.22     0.01  -0.10   0.37     0.02   0.11   0.01
  28   1     0.00  -0.01   0.02     0.02  -0.05   0.06    -0.01   0.04   0.05
  29   1    -0.01   0.01   0.07     0.02  -0.02   0.08     0.01   0.02  -0.02
  30   6     0.01  -0.19  -0.06    -0.12   0.14  -0.01    -0.08  -0.02   0.01
  31   8     0.10  -0.13  -0.06    -0.16   0.10  -0.06    -0.00   0.01  -0.05
  32   7    -0.18  -0.24  -0.06    -0.09   0.14   0.06    -0.19  -0.05   0.07
  33   1    -0.06  -0.04  -0.02    -0.01   0.02   0.02    -0.05  -0.01   0.01
  34   1    -0.05  -0.07  -0.02    -0.01   0.05   0.02    -0.05  -0.01   0.02
  35   7     0.10  -0.27  -0.09    -0.15   0.23  -0.02    -0.08  -0.03   0.01
  36   1     0.00  -0.11  -0.02    -0.02   0.10  -0.01    -0.03  -0.02   0.00
  37   1     0.07  -0.07  -0.03    -0.07   0.07  -0.02    -0.00  -0.01  -0.01
  38   6    -0.10   0.06  -0.14     0.03   0.02  -0.03     0.02   0.05  -0.06
  39   8    -0.16   0.01  -0.21    -0.02   0.07   0.04    -0.11   0.03  -0.01
  40   7    -0.18   0.05   0.01     0.25   0.03  -0.25     0.31   0.04  -0.22
  41   1    -0.03  -0.00   0.00     0.04   0.02  -0.06     0.06   0.01  -0.05
  42   1    -0.02   0.03   0.00     0.05  -0.00  -0.07     0.09   0.02  -0.06
  43   7     0.00   0.16  -0.27    -0.12  -0.02   0.09    -0.09   0.09  -0.01
  44   1    -0.01   0.06  -0.05    -0.00  -0.01  -0.01     0.01   0.03  -0.02
  45   1    -0.01   0.05  -0.09    -0.05  -0.01   0.05    -0.07   0.03   0.02
  46   6    -0.00   0.02   0.16     0.12  -0.02  -0.04     0.10   0.05   0.17
  47   8    -0.05  -0.00   0.12     0.11  -0.06  -0.07    -0.02   0.06   0.05
  48   7     0.02   0.03   0.21     0.12  -0.01  -0.02     0.14   0.04   0.20
  49   1     0.00   0.01   0.05     0.03  -0.00   0.00     0.01   0.01   0.01
  50   1     0.02   0.01   0.07     0.04   0.01   0.01     0.06   0.00   0.08
  51   7     0.04   0.04   0.20     0.15  -0.01  -0.04     0.23   0.07   0.38
  52   1     0.02   0.02   0.06     0.04  -0.00  -0.01     0.07   0.01   0.11
  53   1     0.00   0.00   0.04     0.03  -0.00  -0.02     0.03   0.02   0.08
                     10                     11                     12
                        a                      a                      a 
 Frequencies --    61.7901                68.3189                72.7211
 Red. masses --    12.9604                10.0948                12.5971
 Frc consts  --     0.0000                 0.0000                 0.0000
 IR Inten    --     0.8900                 4.2802                 7.2630
 Raman Activ --     0.0000                 0.0000                 0.0000
 Depolar     --     0.0000                 0.0000                 0.0000
 Atom AN      X      Y      Z        X      Y      Z        X      Y      Z
   1   8     0.04  -0.02   0.33     0.03   0.08   0.06     0.05   0.17  -0.23
   2   6     0.15  -0.06   0.18     0.13   0.03  -0.03    -0.09  -0.04  -0.10
   3   1     0.06  -0.02   0.06     0.05   0.01  -0.01    -0.03  -0.03   0.01
   4   1     0.07  -0.03   0.06     0.06   0.01   0.00    -0.07  -0.03  -0.07
   5   6     0.11  -0.07   0.03     0.09   0.02  -0.18    -0.08  -0.06  -0.01
   6   1     0.06  -0.03  -0.01     0.06   0.03  -0.08    -0.04  -0.03   0.01
   7   1     0.01  -0.01   0.00    -0.01  -0.01  -0.08    -0.00  -0.01   0.01
   8   7     0.05  -0.06  -0.01     0.05  -0.02  -0.07    -0.06  -0.05  -0.05
   9   6     0.03  -0.07  -0.15     0.03   0.06  -0.39    -0.05   0.04  -0.18
  10   1     0.03  -0.03  -0.06     0.08   0.06  -0.15     0.02   0.03  -0.07
  11   1    -0.01  -0.02  -0.05    -0.05   0.00  -0.18    -0.05   0.02  -0.07
  12   1    -0.01  -0.02  -0.05    -0.01   0.00  -0.09    -0.01   0.01  -0.05
  13   6    -0.08  -0.00   0.05    -0.28  -0.18   0.12    -0.17  -0.06   0.02
  14   1    -0.04   0.00   0.01    -0.10  -0.06   0.06    -0.04  -0.02  -0.00
  15   1    -0.04  -0.00   0.00    -0.14  -0.07  -0.02    -0.08  -0.00  -0.00
  16   1    -0.02   0.01   0.04    -0.08  -0.06   0.10    -0.05  -0.04   0.03
  17   6     0.12  -0.07   0.02     0.33   0.02   0.16     0.09  -0.10   0.00
  18   1     0.03  -0.02  -0.00     0.09  -0.00   0.06     0.03  -0.02  -0.01
  19   1     0.04  -0.02   0.03     0.10  -0.02   0.12     0.03  -0.05   0.04
  20   1     0.05  -0.02  -0.00     0.16   0.04   0.01     0.05  -0.03  -0.01
  21   1    -0.02   0.01   0.08     0.00   0.01   0.00     0.06   0.03  -0.04
  22   6    -0.00  -0.07   0.06    -0.06   0.00   0.07     0.00  -0.01   0.05
  23   8     0.00  -0.09   0.05    -0.08   0.05   0.13     0.02  -0.02  -0.03
  24   7     0.00  -0.07   0.07    -0.07  -0.05  -0.03    -0.00  -0.01   0.07
  25   1     0.00  -0.02   0.02    -0.02  -0.01  -0.00     0.00  -0.01   0.00
  26   1    -0.00  -0.02   0.02    -0.02  -0.02  -0.00    -0.01   0.00   0.04
  27   7    -0.01  -0.07   0.08    -0.05   0.01   0.14    -0.02   0.02   0.17
  28   1    -0.00  -0.02   0.02    -0.01  -0.01   0.02    -0.01   0.01   0.05
  29   1    -0.00  -0.02   0.01    -0.01   0.00   0.04    -0.00  -0.00   0.03
  30   6    -0.03   0.09  -0.06    -0.04  -0.03   0.03     0.05   0.07  -0.04
  31   8     0.11   0.17  -0.15    -0.13  -0.07   0.09     0.16   0.09  -0.14
  32   7    -0.22   0.04   0.03     0.02  -0.02  -0.00     0.07   0.07   0.00
  33   1    -0.07   0.02   0.02     0.01  -0.01  -0.00     0.05   0.02  -0.02
  34   1    -0.06   0.01   0.01     0.02  -0.00  -0.01    -0.01   0.02   0.01
  35   7    -0.02   0.09  -0.07    -0.00  -0.02   0.01    -0.09   0.07   0.03
  36   1    -0.02   0.00  -0.01     0.01   0.00  -0.01    -0.02   0.03   0.02
  37   1     0.02   0.03  -0.03    -0.01  -0.01   0.01    -0.03   0.02   0.01
  38   6    -0.05   0.11  -0.03     0.02  -0.00  -0.03     0.01  -0.01  -0.01
  39   8    -0.31   0.13   0.13     0.05  -0.02  -0.07     0.30   0.02  -0.16
  40   7     0.04   0.12  -0.09     0.12  -0.01  -0.07    -0.29   0.01   0.13
  41   1     0.01   0.04  -0.02     0.02  -0.01  -0.01    -0.03   0.01   0.01
  42   1     0.09   0.03  -0.07     0.01   0.00   0.00    -0.12  -0.01   0.06
  43   7     0.21   0.13  -0.22    -0.10   0.03   0.05    -0.03  -0.06   0.04
  44   1     0.03   0.04  -0.04    -0.00   0.01  -0.00    -0.06  -0.02   0.04
  45   1    -0.04   0.04   0.01    -0.01   0.01  -0.01     0.05  -0.02  -0.02
  46   6    -0.03  -0.05  -0.06    -0.02   0.03   0.01     0.03  -0.03   0.09
  47   8    -0.02  -0.07  -0.05    -0.01   0.01   0.02    -0.10  -0.08  -0.04
  48   7     0.13  -0.02   0.14    -0.20   0.02  -0.17     0.30   0.03   0.43
  49   1     0.03  -0.01   0.03    -0.05   0.01  -0.03     0.05   0.00   0.08
  50   1     0.00  -0.01   0.00    -0.03   0.01  -0.02     0.07   0.01   0.10
  51   7    -0.22  -0.09  -0.28     0.15   0.08   0.17    -0.08  -0.05  -0.06
  52   1    -0.03  -0.02  -0.04     0.02   0.02   0.01     0.03   0.00   0.05
  53   1    -0.05  -0.02  -0.07     0.04   0.02   0.04    -0.04  -0.02  -0.03
                     13                     14                     15
                        a                      a                      a 
 Frequencies --    80.4874                88.5243                94.1398
 Red. masses --    13.7422                13.5848                10.7200
 Frc consts  --     0.0000                 0.0000                 0.0000
 IR Inten    --     4.0497                10.4270                 2.5003
 Raman Activ --     0.0000                 0.0000                 0.0000
 Depolar     --     0.0000                 0.0000                 0.0000
 Atom AN      X      Y      Z        X      Y      Z        X      Y      Z
   1   8    -0.00  -0.01   0.03    -0.03  -0.04   0.12     0.17   0.25   0.05
   2   6     0.04   0.04  -0.01     0.03  -0.02   0.06    -0.09  -0.15   0.20
   3   1     0.02   0.02  -0.02     0.01  -0.00   0.01    -0.03  -0.08   0.15
   4   1     0.02   0.02   0.01     0.02  -0.01   0.03    -0.09  -0.09  -0.02
   5   6     0.03   0.03  -0.05     0.02  -0.00  -0.01    -0.05  -0.17   0.38
   6   1     0.02   0.02  -0.02     0.02   0.00  -0.01    -0.06  -0.11   0.15
   7   1    -0.00   0.00  -0.02    -0.01   0.00  -0.01     0.04  -0.01   0.17
   8   7    -0.00   0.02  -0.02     0.01   0.00  -0.03    -0.00  -0.07   0.13
   9   6    -0.01  -0.03   0.01     0.00  -0.03   0.01     0.02   0.03   0.03
  10   1    -0.01  -0.01   0.01    -0.01  -0.02   0.01     0.01  -0.02   0.00
  11   1     0.01  -0.01   0.01     0.01  -0.00   0.02    -0.01   0.04   0.03
  12   1    -0.01  -0.01   0.00    -0.00  -0.00  -0.01     0.02   0.03  -0.03
  13   6     0.01   0.01  -0.02     0.04   0.04  -0.05    -0.01   0.15   0.11
  14   1    -0.01  -0.00   0.00    -0.00   0.01  -0.02     0.03   0.07  -0.04
  15   1     0.01  -0.01  -0.01     0.03   0.01  -0.01    -0.02   0.11   0.07
  16   1     0.01   0.01  -0.01     0.01   0.03  -0.02    -0.01   0.01   0.05
  17   6    -0.04   0.05  -0.00    -0.04   0.00  -0.06     0.07  -0.28  -0.04
  18   1    -0.02   0.01   0.00    -0.01   0.00  -0.02     0.03  -0.06  -0.07
  19   1    -0.01   0.02  -0.01    -0.01   0.00  -0.03     0.02  -0.10   0.01
  20   1    -0.01   0.02  -0.00    -0.02  -0.00  -0.01     0.03  -0.13  -0.01
  21   1    -0.01  -0.00   0.00    -0.02  -0.00   0.03     0.10   0.07   0.05
  22   6     0.04  -0.03   0.01    -0.03   0.06   0.04     0.02  -0.04   0.01
  23   8     0.05  -0.09   0.02    -0.03  -0.06   0.09     0.02  -0.09   0.03
  24   7     0.10  -0.00  -0.01     0.13   0.11  -0.10     0.07  -0.01  -0.01
  25   1     0.04  -0.01  -0.00     0.06   0.02  -0.02     0.03  -0.01   0.01
  26   1     0.03   0.01  -0.00     0.03   0.06  -0.01     0.02   0.01  -0.00
  27   7    -0.01  -0.00   0.03    -0.19   0.16   0.16    -0.02  -0.02  -0.00
  28   1    -0.00   0.01  -0.00    -0.04   0.06   0.00    -0.00   0.00  -0.01
  29   1    -0.01  -0.01  -0.00    -0.07   0.02   0.00    -0.01  -0.01  -0.01
  30   6     0.07   0.16  -0.09     0.06  -0.00  -0.05    -0.03  -0.03  -0.06
  31   8     0.35   0.23  -0.33    -0.13  -0.04   0.11    -0.06  -0.03  -0.04
  32   7    -0.11   0.09   0.09     0.38   0.11  -0.29     0.02  -0.00  -0.11
  33   1    -0.01   0.02   0.02     0.07   0.03  -0.06     0.02   0.00  -0.04
  34   1    -0.06   0.03   0.04     0.07   0.01  -0.07     0.01  -0.00  -0.04
  35   7    -0.06   0.20  -0.04     0.02  -0.06  -0.00    -0.06  -0.05  -0.04
  36   1    -0.03   0.04   0.02     0.04   0.02  -0.03    -0.01  -0.01  -0.02
  37   1     0.01   0.06  -0.03    -0.05  -0.02   0.04    -0.03  -0.01  -0.00
  38   6    -0.04  -0.05   0.03    -0.00   0.02   0.04     0.01   0.11  -0.10
  39   8    -0.01  -0.00   0.07    -0.10   0.05   0.13     0.15   0.14  -0.18
  40   7    -0.23  -0.04   0.06     0.06   0.03  -0.04    -0.05   0.12  -0.10
  41   1    -0.02   0.01  -0.02    -0.00   0.01  -0.00    -0.01   0.03  -0.03
  42   1    -0.03  -0.02  -0.01     0.03   0.00  -0.03    -0.04   0.03  -0.01
  43   7     0.12  -0.15  -0.05     0.07  -0.01   0.00    -0.07   0.09  -0.04
  44   1    -0.04  -0.05   0.02     0.02  -0.01  -0.00    -0.05   0.02   0.01
  45   1     0.00  -0.04   0.03    -0.01  -0.00   0.03    -0.01   0.02  -0.01
  46   6    -0.06  -0.10   0.05    -0.09  -0.08  -0.05    -0.01   0.01  -0.05
  47   8    -0.13  -0.10  -0.01    -0.37  -0.24  -0.37     0.02   0.02  -0.02
  48   7    -0.28  -0.16  -0.22    -0.01  -0.01   0.16    -0.19  -0.02  -0.24
  49   1    -0.05  -0.04  -0.05    -0.03  -0.01   0.03    -0.03  -0.00  -0.03
  50   1    -0.01  -0.05   0.00     0.06   0.02   0.10    -0.02   0.00  -0.04
  51   7     0.21  -0.05   0.40     0.15  -0.01   0.09     0.09   0.03   0.07
  52   1     0.03  -0.02   0.07     0.09   0.03   0.08    -0.00   0.00  -0.02
  53   1     0.03  -0.01   0.10     0.03  -0.02  -0.02     0.02   0.01   0.01
                     16                     17                     18
                        a                      a                      a 
 Frequencies --   106.9509               116.1748               128.3030
 Red. masses --    12.9172                13.2814                12.7766
 Frc consts  --     0.0000                 0.0000                 0.0000
 IR Inten    --    10.0737                20.1234                 4.3754
 Raman Activ --     0.0000                 0.0000                 0.0000
 Depolar     --     0.0000                 0.0000                 0.0000
 Atom AN      X      Y      Z        X      Y      Z        X      Y      Z
   1   8     0.01   0.04   0.04    -0.04  -0.02  -0.05     0.06   0.10  -0.12
   2   6     0.01  -0.00   0.03    -0.02  -0.03  -0.06     0.01   0.02  -0.07
   3   1     0.01  -0.00   0.01     0.00  -0.01  -0.02     0.01   0.00  -0.01
   4   1     0.00  -0.00   0.01    -0.00  -0.01  -0.02    -0.01   0.01  -0.03
   5   6     0.00  -0.02   0.02    -0.03  -0.05  -0.09     0.01  -0.02  -0.02
   6   1    -0.00  -0.02   0.01    -0.01  -0.03  -0.02    -0.01  -0.02   0.01
   7   1     0.01   0.00   0.01    -0.00  -0.01  -0.02     0.02  -0.00   0.01
   8   7    -0.02   0.01  -0.04    -0.08  -0.03  -0.16    -0.03  -0.01  -0.07
   9   6    -0.02  -0.02  -0.02    -0.09  -0.09  -0.14    -0.05  -0.05  -0.07
  10   1    -0.01  -0.02  -0.00    -0.03  -0.05  -0.04    -0.01  -0.02  -0.02
  11   1     0.00  -0.00   0.00    -0.01  -0.02  -0.03    -0.01  -0.02  -0.02
  12   1    -0.01  -0.00  -0.02    -0.04  -0.02  -0.06    -0.02  -0.02  -0.02
  13   6     0.00   0.08  -0.05    -0.06   0.07  -0.17    -0.03   0.05  -0.07
  14   1     0.01   0.03  -0.03    -0.02   0.02  -0.06    -0.02   0.02  -0.03
  15   1     0.00   0.04   0.00    -0.01   0.03  -0.04     0.00   0.01  -0.02
  16   1    -0.00   0.02  -0.01    -0.01   0.03  -0.05    -0.00   0.03  -0.02
  17   6    -0.05  -0.01  -0.07    -0.12  -0.03  -0.19    -0.06  -0.00  -0.08
  18   1    -0.02  -0.00  -0.03    -0.04  -0.01  -0.06    -0.03  -0.00  -0.03
  19   1    -0.01   0.00  -0.02    -0.03   0.00  -0.06    -0.01   0.01  -0.02
  20   1    -0.02  -0.02  -0.02    -0.04  -0.02  -0.05    -0.01  -0.01  -0.02
  21   1     0.01  -0.01  -0.00    -0.01   0.00  -0.01     0.02   0.04  -0.01
  22   6     0.03   0.05   0.04     0.03  -0.08   0.19     0.14  -0.01   0.03
  23   8     0.03   0.01   0.12    -0.01  -0.29   0.52     0.15   0.11   0.06
  24   7     0.13   0.07  -0.04     0.34   0.05   0.03     0.08  -0.07   0.03
  25   1     0.05   0.02   0.01     0.14   0.00   0.07     0.01  -0.01   0.01
  26   1     0.03   0.04  -0.01     0.10   0.07  -0.03     0.03  -0.04   0.00
  27   7    -0.02   0.08   0.05    -0.17  -0.00   0.03     0.27  -0.07  -0.02
  28   1     0.00   0.03  -0.02    -0.03   0.02  -0.06     0.07  -0.03   0.01
  29   1    -0.01   0.01  -0.01    -0.07  -0.01   0.02     0.07  -0.01   0.02
  30   6    -0.06   0.04   0.07     0.01  -0.00  -0.00     0.02  -0.06   0.02
  31   8    -0.02   0.14   0.13    -0.02  -0.02   0.01    -0.17  -0.25   0.02
  32   7    -0.47  -0.05   0.20     0.04   0.00  -0.01     0.08  -0.10   0.17
  33   1    -0.12  -0.00   0.05     0.01  -0.00   0.00     0.00  -0.04   0.06
  34   1    -0.10  -0.02   0.03     0.02   0.01  -0.00     0.03  -0.01   0.06
  35   7     0.27   0.05  -0.08     0.01   0.01  -0.01     0.19   0.18  -0.14
  36   1     0.07  -0.02  -0.06    -0.01  -0.01   0.01     0.08   0.09  -0.05
  37   1     0.13   0.01  -0.05     0.01   0.00  -0.00     0.03   0.06  -0.08
  38   6     0.11  -0.08   0.01    -0.01  -0.01   0.01    -0.06   0.06  -0.00
  39   8     0.21  -0.21  -0.16    -0.04  -0.02   0.01    -0.05   0.22   0.15
  40   7     0.16  -0.10   0.14     0.01  -0.01   0.01    -0.08   0.09  -0.19
  41   1     0.03  -0.03   0.05     0.00  -0.01   0.01    -0.03   0.03  -0.05
  42   1    -0.01  -0.02   0.08     0.01  -0.00   0.00    -0.01   0.01  -0.07
  43   7    -0.12   0.06   0.12     0.00   0.01  -0.01     0.06  -0.14  -0.01
  44   1     0.07   0.04  -0.01     0.00   0.00  -0.00    -0.07  -0.07   0.02
  45   1     0.08   0.02  -0.08    -0.01   0.00  -0.00    -0.05  -0.05   0.10
  46   6    -0.06  -0.04  -0.10     0.06   0.12   0.05    -0.12  -0.02   0.10
  47   8    -0.17  -0.22  -0.22     0.16   0.28   0.15    -0.09  -0.23   0.20
  48   7    -0.10   0.05   0.03     0.09   0.06  -0.07    -0.30   0.09   0.18
  49   1    -0.04   0.01   0.02     0.05   0.02   0.00    -0.07   0.02   0.09
  50   1     0.00   0.04   0.03     0.01  -0.00  -0.03    -0.07   0.06   0.05
  51   7     0.08   0.04  -0.17    -0.07   0.07   0.05    -0.02   0.09  -0.08
  52   1     0.05   0.05  -0.01    -0.04  -0.01  -0.01    -0.01   0.07  -0.04
  53   1     0.05  -0.00  -0.05    -0.02   0.03   0.03     0.04   0.00  -0.03
                     19                     20                     21
                        a                      a                      a 
 Frequencies --   139.9255               148.3179               156.3283
 Red. masses --    12.3111                12.3502                13.1092
 Frc consts  --     0.0000                 0.0000                 0.0000
 IR Inten    --    15.3526                 8.0054                10.2320
 Raman Activ --     0.0000                 0.0000                 0.0000
 Depolar     --     0.0000                 0.0000                 0.0000
 Atom AN      X      Y      Z        X      Y      Z        X      Y      Z
   1   8    -0.05  -0.11   0.07    -0.09  -0.15   0.13     0.01   0.03   0.01
   2   6    -0.01  -0.02   0.03    -0.01  -0.07   0.06    -0.02  -0.04   0.02
   3   1    -0.01   0.00  -0.00    -0.00  -0.02   0.01    -0.00  -0.02   0.02
   4   1     0.01   0.00   0.02     0.02  -0.02   0.03    -0.01  -0.02  -0.01
   5   6    -0.01  -0.00   0.02    -0.02  -0.04  -0.01    -0.01  -0.04   0.03
   6   1     0.00   0.01   0.00     0.00  -0.01  -0.01    -0.01  -0.02   0.01
   7   1    -0.01  -0.00   0.00    -0.02  -0.00  -0.00     0.00  -0.00   0.02
   8   7     0.01  -0.01   0.04    -0.03  -0.03  -0.06    -0.01  -0.02  -0.01
   9   6     0.02   0.02   0.02    -0.03  -0.05  -0.03    -0.01  -0.03  -0.01
  10   1     0.01   0.01   0.01    -0.01  -0.02  -0.01    -0.00  -0.01  -0.00
  11   1    -0.00   0.01   0.00    -0.00  -0.02  -0.00    -0.00  -0.00   0.00
  12   1     0.01   0.01   0.01    -0.01  -0.01  -0.01    -0.00  -0.00  -0.01
  13   6     0.00  -0.04   0.04     0.00   0.03  -0.08    -0.00   0.03  -0.02
  14   1     0.02  -0.01   0.01     0.01   0.01  -0.04    -0.01   0.01  -0.02
  15   1    -0.01  -0.00   0.01     0.00   0.02  -0.01     0.01   0.01   0.00
  16   1    -0.00  -0.03   0.01    -0.00   0.00  -0.02     0.00   0.02  -0.01
  17   6     0.03  -0.02   0.04    -0.06  -0.04  -0.08    -0.02  -0.04  -0.04
  18   1     0.00  -0.00   0.00    -0.01  -0.01  -0.02     0.01  -0.01  -0.01
  19   1     0.01  -0.00   0.02    -0.02  -0.01  -0.04    -0.01  -0.02  -0.02
  20   1     0.02  -0.01   0.01    -0.03  -0.01  -0.02    -0.02  -0.01  -0.01
  21   1    -0.03  -0.04  -0.00    -0.04  -0.04   0.01     0.01   0.01   0.01
  22   6     0.03  -0.11  -0.05     0.11   0.02   0.07    -0.10   0.23   0.06
  23   8     0.08  -0.20  -0.20     0.08   0.25   0.19    -0.18   0.36   0.28
  24   7     0.04  -0.06   0.08    -0.03  -0.13  -0.01    -0.15   0.14  -0.11
  25   1     0.03  -0.03  -0.01    -0.05  -0.01   0.02    -0.07   0.06   0.01
  26   1     0.01  -0.01   0.03     0.00  -0.08  -0.01    -0.03   0.01  -0.05
  27   7    -0.01  -0.09  -0.03     0.31  -0.09   0.02    -0.03   0.18   0.01
  28   1    -0.02  -0.00   0.04     0.09  -0.06  -0.01     0.01   0.01  -0.05
  29   1    -0.01  -0.03   0.01     0.10  -0.01   0.02     0.00   0.06   0.01
  30   6     0.09   0.18  -0.06     0.04   0.05   0.07     0.07   0.05   0.04
  31   8    -0.17   0.10   0.09     0.16   0.06  -0.02    -0.05  -0.07   0.02
  32   7     0.17   0.20  -0.13     0.22   0.09   0.03     0.10   0.02   0.13
  33   1     0.01   0.04  -0.00     0.09   0.02  -0.01     0.02  -0.00   0.05
  34   1     0.06   0.06  -0.04     0.02   0.02   0.03     0.04   0.02   0.04
  35   7     0.32   0.25  -0.22    -0.27   0.01   0.25     0.17   0.21  -0.07
  36   1     0.07   0.04  -0.05    -0.05   0.05   0.08     0.05   0.06  -0.01
  37   1     0.10   0.07  -0.06    -0.13   0.00   0.09     0.04   0.06  -0.04
  38   6    -0.01  -0.04  -0.10    -0.04  -0.05  -0.11    -0.04  -0.01  -0.08
  39   8    -0.05  -0.14  -0.20    -0.10  -0.18  -0.24    -0.05  -0.00  -0.09
  40   7     0.05  -0.06   0.00     0.00  -0.07   0.06    -0.03  -0.01  -0.08
  41   1    -0.02  -0.03   0.03     0.01  -0.04   0.02    -0.02  -0.01  -0.01
  42   1    -0.02  -0.00   0.04    -0.01   0.00   0.04    -0.02   0.00  -0.01
  43   7    -0.18   0.13  -0.05    -0.15   0.19  -0.14    -0.07   0.01  -0.08
  44   1     0.16   0.06  -0.12     0.08   0.09  -0.08     0.01   0.01  -0.04
  45   1     0.12   0.04  -0.17     0.04   0.06  -0.15     0.00   0.00  -0.04
  46   6    -0.10  -0.00   0.15    -0.02   0.05  -0.02     0.10  -0.24   0.02
  47   8    -0.08   0.10   0.21    -0.03  -0.10  -0.02     0.17  -0.10   0.06
  48   7    -0.06  -0.05   0.11    -0.15   0.13   0.02     0.17  -0.31  -0.07
  49   1    -0.01  -0.01   0.02    -0.03   0.03   0.04     0.05  -0.08  -0.05
  50   1    -0.04  -0.04   0.01    -0.01   0.06   0.03     0.01  -0.11  -0.05
  51   7    -0.19  -0.04   0.17     0.07   0.11  -0.07    -0.01  -0.32   0.04
  52   1    -0.05  -0.02   0.04     0.01   0.04  -0.03    -0.00  -0.10   0.01
  53   1    -0.04  -0.00   0.07     0.01   0.02  -0.04     0.00  -0.07   0.05
                     22                     23                     24
                        a                      a                      a 
 Frequencies --   162.9467               168.7748               186.1221
 Red. masses --     6.1160                12.0029                 7.9180
 Frc consts  --     0.0000                 0.0000                 0.0000
 IR Inten    --   129.1260                22.8561                 8.9148
 Raman Activ --     0.0000                 0.0000                 0.0000
 Depolar     --     0.0000                 0.0000                 0.0000
 Atom AN      X      Y      Z        X      Y      Z        X      Y      Z
   1   8    -0.08  -0.03   0.09     0.03  -0.01  -0.04     0.19  -0.39  -0.26
   2   6    -0.02  -0.06   0.03    -0.00  -0.01  -0.02     0.07   0.15  -0.11
   3   1    -0.01  -0.02   0.02    -0.00  -0.00  -0.01     0.00   0.09  -0.14
   4   1     0.01  -0.03   0.01    -0.01  -0.00  -0.01     0.01   0.13   0.03
   5   6    -0.03  -0.00  -0.05     0.00  -0.02   0.00     0.11  -0.01   0.24
   6   1     0.01   0.01  -0.03    -0.01  -0.01   0.01    -0.04  -0.07   0.12
   7   1    -0.03   0.00  -0.03     0.01  -0.00   0.01     0.13   0.00   0.13
   8   7     0.00  -0.01  -0.03    -0.02  -0.01  -0.03    -0.04   0.07   0.07
   9   6     0.01   0.00  -0.00    -0.03  -0.04  -0.03    -0.08  -0.02  -0.14
  10   1    -0.01  -0.02   0.00    -0.00  -0.00  -0.01     0.04   0.07  -0.07
  11   1     0.01   0.01   0.02    -0.01  -0.02  -0.02    -0.06  -0.06  -0.13
  12   1     0.01   0.01  -0.02    -0.02  -0.02  -0.00    -0.06  -0.04   0.04
  13   6     0.01  -0.03  -0.04    -0.01   0.03  -0.04    -0.11   0.22   0.09
  14   1    -0.05  -0.02   0.02     0.01   0.01  -0.02     0.17   0.12  -0.11
  15   1     0.04  -0.06  -0.03    -0.01   0.02  -0.00    -0.18   0.27   0.11
  16   1     0.02   0.05  -0.03    -0.01  -0.00  -0.01    -0.09  -0.16   0.09
  17   6     0.00  -0.01  -0.03    -0.04   0.00  -0.04    -0.02   0.03   0.04
  18   1     0.03  -0.00   0.01    -0.01  -0.00  -0.01    -0.13   0.02  -0.07
  19   1    -0.01  -0.02  -0.03    -0.01   0.00  -0.02     0.02   0.10   0.12
  20   1    -0.02   0.02  -0.00    -0.02   0.00  -0.01     0.09  -0.09  -0.02
  21   1    -0.06   0.02   0.04     0.02  -0.01  -0.01     0.01  -0.10  -0.08
  22   6     0.01   0.02   0.02     0.08   0.02   0.07    -0.01   0.01   0.00
  23   8    -0.00   0.07   0.07     0.04   0.27   0.19    -0.01   0.01   0.01
  24   7    -0.02  -0.02  -0.01    -0.11  -0.15  -0.01    -0.01   0.01  -0.00
  25   1    -0.02   0.00   0.01    -0.08  -0.01   0.01    -0.00   0.00  -0.00
  26   1    -0.00  -0.01  -0.00    -0.01  -0.10  -0.02    -0.00   0.00  -0.00
  27   7     0.05  -0.00   0.00     0.28  -0.09   0.01    -0.01   0.01   0.01
  28   1     0.02  -0.01  -0.01     0.08  -0.06  -0.01    -0.00   0.00  -0.00
  29   1     0.02   0.00   0.01     0.10  -0.01   0.02    -0.00   0.00  -0.00
  30   6    -0.04  -0.07  -0.11    -0.10   0.05  -0.19     0.00   0.01   0.00
  31   8     0.02  -0.05  -0.15    -0.18   0.19  -0.03     0.03   0.03   0.01
  32   7    -0.06  -0.08  -0.09    -0.12   0.10  -0.40    -0.00   0.01  -0.02
  33   1    -0.03  -0.02  -0.02    -0.06   0.03  -0.09    -0.01   0.00   0.00
  34   1    -0.02  -0.02  -0.02    -0.02   0.02  -0.12    -0.01  -0.00  -0.00
  35   7    -0.09  -0.09  -0.09    -0.00  -0.14  -0.23    -0.01  -0.04   0.03
  36   1    -0.03  -0.03  -0.01    -0.04  -0.10  -0.06    -0.01  -0.02   0.01
  37   1    -0.02  -0.02  -0.03     0.04  -0.05  -0.02    -0.00  -0.01   0.02
  38   6     0.10   0.11   0.05     0.08   0.01   0.14    -0.02  -0.01   0.02
  39   8     0.10   0.23   0.19     0.11  -0.06   0.09    -0.12   0.01   0.11
  40   7    -0.06   0.15  -0.03     0.12  -0.01   0.19     0.00  -0.00  -0.02
  41   1    -0.06   0.06   0.01     0.03   0.01   0.05    -0.02   0.00   0.00
  42   1    -0.10   0.01   0.02     0.05  -0.00   0.04     0.00  -0.00  -0.01
  43   7    -0.11  -0.06   0.28     0.15   0.05   0.10    -0.02  -0.04   0.03
  44   1     0.47  -0.06  -0.29    -0.12   0.02   0.14     0.14  -0.02  -0.09
  45   1     0.46  -0.03  -0.21    -0.10   0.02   0.11     0.09  -0.01  -0.05
  46   6     0.01  -0.01   0.01    -0.03  -0.03   0.04     0.01  -0.02  -0.02
  47   8     0.02  -0.01   0.02    -0.05   0.06   0.04     0.00  -0.02  -0.03
  48   7    -0.00  -0.01  -0.00    -0.00  -0.08   0.01     0.01  -0.01  -0.01
  49   1     0.00  -0.00   0.00     0.02  -0.01   0.00     0.00  -0.00   0.00
  50   1     0.00  -0.00  -0.00     0.02  -0.03   0.02     0.01   0.00   0.00
  51   7     0.01  -0.01   0.02    -0.11  -0.08   0.15     0.03  -0.02  -0.01
  52   1    -0.01  -0.01  -0.01    -0.04  -0.05   0.03     0.00  -0.01  -0.00
  53   1    -0.01  -0.01  -0.01    -0.06  -0.01   0.04     0.00  -0.01  -0.01
                     25                     26                     27
                        a                      a                      a 
 Frequencies --   193.5548               222.0857               237.7235
 Red. masses --    12.2352                12.8780                 9.7977
 Frc consts  --     0.0000                 0.0000                 0.0000
 IR Inten    --    52.4695                78.2643                42.1882
 Raman Activ --     0.0000                 0.0000                 0.0000
 Depolar     --     0.0000                 0.0000                 0.0000
 Atom AN      X      Y      Z        X      Y      Z        X      Y      Z
   1   8     0.02   0.09  -0.03    -0.09  -0.13   0.10    -0.16  -0.27   0.28
   2   6    -0.01  -0.01  -0.01     0.00  -0.02   0.04     0.01  -0.06   0.14
   3   1    -0.00  -0.01   0.02    -0.00   0.00  -0.01     0.00  -0.00   0.01
   4   1    -0.01  -0.02  -0.02     0.02   0.00   0.03     0.05  -0.01   0.08
   5   6    -0.01  -0.01  -0.01    -0.01   0.02  -0.05    -0.04   0.02  -0.10
   6   1    -0.00  -0.00  -0.00     0.01   0.01  -0.02     0.03   0.03  -0.06
   7   1    -0.00  -0.00   0.00    -0.02   0.00  -0.03    -0.06   0.01  -0.06
   8   7     0.00  -0.01  -0.01    -0.02   0.01  -0.03    -0.04  -0.01  -0.04
   9   6     0.00  -0.01  -0.01    -0.01   0.02   0.01    -0.02   0.03   0.06
  10   1    -0.00  -0.02   0.00    -0.00   0.05   0.00     0.01   0.15   0.01
  11   1     0.01   0.00   0.01    -0.01  -0.02  -0.03    -0.04  -0.07  -0.09
  12   1     0.00   0.00  -0.02     0.00  -0.01   0.04     0.01  -0.05   0.16
  13   6     0.00  -0.01  -0.01     0.01  -0.05  -0.03     0.04  -0.12  -0.07
  14   1    -0.04  -0.01   0.01     0.07  -0.01  -0.03     0.24   0.00  -0.11
  15   1     0.03  -0.03  -0.01    -0.04   0.03   0.00    -0.13   0.14   0.04
  16   1     0.01   0.04  -0.01    -0.02  -0.08  -0.01    -0.06  -0.28   0.00
  17   6     0.00  -0.02  -0.02    -0.03   0.03  -0.01    -0.08   0.04  -0.02
  18   1     0.02  -0.01   0.00    -0.02   0.01  -0.00    -0.07   0.01  -0.02
  19   1    -0.00  -0.02  -0.02    -0.01   0.02   0.01    -0.01   0.04   0.02
  20   1    -0.01   0.01  -0.00     0.00   0.00  -0.01     0.00  -0.01  -0.01
  21   1     0.01   0.03   0.01    -0.04  -0.04   0.01    -0.08  -0.08   0.05
  22   6     0.02  -0.00   0.02    -0.06   0.06  -0.03     0.02  -0.02   0.02
  23   8     0.01   0.06   0.05    -0.05  -0.06  -0.06     0.01   0.02   0.04
  24   7    -0.02  -0.05  -0.00     0.07   0.15  -0.03    -0.02  -0.04   0.01
  25   1    -0.02  -0.00   0.01     0.05   0.02  -0.00    -0.01  -0.01  -0.01
  26   1    -0.00  -0.03   0.00     0.01   0.08   0.00     0.00  -0.03  -0.01
  27   7     0.07  -0.03   0.00    -0.14   0.10  -0.03     0.04  -0.03   0.00
  28   1     0.02  -0.02  -0.00    -0.05   0.04   0.02     0.01  -0.01  -0.00
  29   1     0.02  -0.00   0.00    -0.06   0.03   0.02     0.02  -0.01   0.00
  30   6     0.04   0.14   0.14    -0.05   0.07  -0.08     0.02  -0.03   0.04
  31   8     0.11   0.33   0.33    -0.02   0.18   0.00    -0.01  -0.08   0.02
  32   7    -0.09   0.18  -0.10    -0.04   0.10  -0.21    -0.02  -0.05   0.10
  33   1    -0.05   0.08  -0.03    -0.00   0.03  -0.07     0.01  -0.00   0.01
  34   1    -0.04   0.01  -0.06     0.02   0.02  -0.08     0.00  -0.01   0.02
  35   7     0.20  -0.26   0.23    -0.08  -0.12   0.01     0.07   0.03   0.00
  36   1     0.02  -0.16   0.01     0.01  -0.01  -0.04     0.01  -0.00   0.00
  37   1     0.14  -0.08   0.13    -0.05  -0.04   0.05     0.04   0.01  -0.02
  38   6    -0.08  -0.07  -0.15     0.04   0.02  -0.01     0.10   0.11  -0.08
  39   8    -0.05   0.10  -0.01     0.13   0.03  -0.06     0.35   0.21  -0.17
  40   7    -0.12  -0.03  -0.35    -0.02   0.04  -0.02    -0.11   0.17  -0.15
  41   1    -0.05   0.02  -0.10     0.00   0.02  -0.02    -0.01   0.06  -0.06
  42   1    -0.04  -0.03  -0.10    -0.02   0.00  -0.00    -0.08   0.02  -0.03
  43   7    -0.08  -0.35  -0.06     0.03   0.01   0.01     0.03  -0.03   0.01
  44   1     0.01  -0.15  -0.09    -0.07   0.00   0.05    -0.16  -0.03   0.09
  45   1     0.04  -0.11   0.02    -0.03   0.00   0.03    -0.03  -0.01   0.07
  46   6    -0.01   0.02   0.00     0.11  -0.13   0.14    -0.03   0.05  -0.03
  47   8    -0.02   0.05  -0.01     0.33  -0.32   0.41    -0.10   0.12  -0.11
  48   7     0.01   0.00  -0.01    -0.22   0.00   0.15     0.08  -0.01  -0.05
  49   1     0.01   0.00   0.00    -0.08  -0.02   0.09     0.03   0.01  -0.03
  50   1     0.01  -0.00   0.01    -0.11   0.05  -0.01     0.04  -0.02   0.01
  51   7    -0.05  -0.00   0.02     0.19  -0.02  -0.21    -0.08   0.00   0.07
  52   1    -0.01  -0.01   0.01     0.00   0.05  -0.12    -0.00  -0.02   0.05
  53   1    -0.01   0.00   0.01     0.12  -0.04  -0.08    -0.04   0.01   0.03
                     28                     29                     30
                        a                      a                      a 
 Frequencies --   252.4290               288.7237               303.2836
 Red. masses --     7.6955                 4.0498                 4.3777
 Frc consts  --     0.0000                 0.0000                 0.0000
 IR Inten    --    18.2283                 0.7649                 1.3173
 Raman Activ --     0.0000                 0.0000                 0.0000
 Depolar     --     0.0000                 0.0000                 0.0000
 Atom AN      X      Y      Z        X      Y      Z        X      Y      Z
   1   8    -0.12   0.49   0.04    -0.00  -0.08  -0.05     0.03   0.18  -0.07
   2   6    -0.00   0.14  -0.09    -0.13  -0.26   0.05    -0.06  -0.24  -0.03
   3   1     0.07   0.02  -0.00    -0.11  -0.11   0.11    -0.07  -0.12   0.13
   4   1    -0.02   0.05  -0.03    -0.04  -0.16  -0.06    -0.02  -0.18  -0.11
   5   6    -0.06  -0.07  -0.10     0.01   0.05   0.06     0.04   0.06  -0.14
   6   1    -0.04  -0.01  -0.02    -0.01   0.02   0.02     0.04   0.06  -0.07
   7   1     0.01  -0.04  -0.03    -0.01   0.04   0.03    -0.05   0.03  -0.07
   8   7     0.04  -0.11  -0.03     0.07   0.09   0.01     0.05   0.03  -0.01
   9   6     0.08  -0.02   0.13    -0.02  -0.19  -0.10    -0.02  -0.24   0.01
  10   1     0.07   0.29   0.02     0.12   0.28  -0.09    -0.04  -0.19   0.02
  11   1    -0.04  -0.17  -0.19    -0.07  -0.30  -0.35     0.06  -0.05   0.08
  12   1     0.05  -0.13   0.32    -0.09  -0.21   0.32    -0.06  -0.04  -0.08
  13   6     0.13  -0.12  -0.07     0.06   0.23   0.00     0.00   0.13   0.02
  14   1     0.20   0.00  -0.11    -0.18   0.04   0.07     0.27   0.11  -0.18
  15   1    -0.06   0.10   0.04     0.15  -0.08  -0.04    -0.20   0.30   0.11
  16   1    -0.01  -0.19  -0.00     0.08   0.27  -0.03    -0.08  -0.26   0.08
  17   6     0.05  -0.16  -0.08     0.02   0.20   0.09     0.05   0.19   0.15
  18   1    -0.12  -0.03  -0.12     0.01   0.04   0.07     0.20   0.03   0.20
  19   1     0.04   0.05   0.10     0.00   0.05   0.00    -0.02  -0.10  -0.12
  20   1     0.11  -0.16  -0.05    -0.00   0.10   0.03    -0.12   0.25   0.08
  21   1    -0.00   0.10   0.00     0.01   0.01   0.03     0.04   0.07   0.02
  22   6    -0.00   0.01   0.01    -0.00  -0.01  -0.01    -0.00  -0.00  -0.01
  23   8    -0.00   0.01   0.02    -0.00  -0.02  -0.02     0.01  -0.01  -0.03
  24   7    -0.00  -0.00  -0.01    -0.01   0.02   0.03     0.02  -0.01  -0.02
  25   1     0.00  -0.00  -0.01     0.02  -0.02  -0.05    -0.01   0.02   0.04
  26   1     0.00  -0.00  -0.01     0.03  -0.02  -0.07    -0.03   0.03   0.08
  27   7     0.01   0.00  -0.01    -0.02   0.00  -0.00    -0.02  -0.00   0.01
  28   1    -0.00   0.00   0.01    -0.02   0.01   0.04     0.01  -0.01  -0.03
  29   1    -0.00   0.00   0.01    -0.01   0.00   0.01    -0.00  -0.00  -0.01
  30   6    -0.00   0.01  -0.01     0.00  -0.00   0.00    -0.00   0.00  -0.00
  31   8     0.01   0.02  -0.01     0.00  -0.00  -0.00     0.00   0.00  -0.00
  32   7     0.01   0.01  -0.02     0.00  -0.00   0.00     0.01   0.00  -0.01
  33   1    -0.01  -0.00   0.01     0.00   0.00  -0.00    -0.01  -0.00   0.01
  34   1    -0.00   0.00  -0.00     0.00  -0.00  -0.00    -0.01  -0.00   0.00
  35   7    -0.02  -0.00   0.00     0.00   0.00   0.00    -0.01  -0.00  -0.00
  36   1    -0.01  -0.00   0.01     0.00   0.00  -0.00    -0.00  -0.00   0.00
  37   1    -0.01  -0.00   0.01    -0.00   0.00  -0.00    -0.00  -0.00   0.00
  38   6    -0.05  -0.05   0.04     0.01   0.00  -0.01    -0.03  -0.02   0.01
  39   8    -0.19  -0.08   0.11     0.03  -0.00  -0.03    -0.08  -0.03   0.04
  40   7     0.05  -0.07   0.06    -0.00   0.00  -0.00     0.02  -0.03   0.02
  41   1    -0.00  -0.03   0.03     0.00  -0.00  -0.00    -0.00  -0.01   0.01
  42   1     0.03  -0.01   0.01    -0.00   0.00   0.00     0.01  -0.00   0.01
  43   7    -0.02  -0.01   0.01    -0.00   0.01  -0.01    -0.01  -0.00  -0.00
  44   1     0.11   0.00  -0.07    -0.02   0.00   0.01     0.06   0.00  -0.04
  45   1     0.03  -0.00  -0.03    -0.00   0.00  -0.00     0.01  -0.00  -0.01
  46   6    -0.00  -0.00  -0.00     0.00   0.00  -0.00    -0.00   0.00   0.00
  47   8     0.01  -0.01   0.01    -0.00   0.00  -0.01     0.01  -0.01   0.01
  48   7     0.00   0.01   0.01    -0.00  -0.01  -0.01    -0.00   0.00   0.00
  49   1    -0.01  -0.00  -0.00     0.01  -0.00   0.00    -0.00   0.00  -0.00
  50   1    -0.02   0.00  -0.02     0.01  -0.00   0.01    -0.01  -0.00  -0.01
  51   7     0.01   0.00   0.00    -0.00  -0.00  -0.01     0.00   0.00  -0.00
  52   1    -0.00  -0.00  -0.01     0.01   0.00   0.01    -0.00   0.00  -0.01
  53   1     0.00  -0.00  -0.00     0.00   0.00   0.00     0.00  -0.00  -0.00
                     31                     32                     33
                        a                      a                      a 
 Frequencies --   306.9616               313.7421               331.3566
 Red. masses --     7.5571                 3.6984                 1.6419
 Frc consts  --     0.0000                 0.0000                 0.0000
 IR Inten    --    33.2458                98.6365                11.4722
 Raman Activ --     0.0000                 0.0000                 0.0000
 Depolar     --     0.0000                 0.0000                 0.0000
 Atom AN      X      Y      Z        X      Y      Z        X      Y      Z
   1   8    -0.42  -0.01   0.05    -0.21   0.03   0.02     0.05  -0.02  -0.02
   2   6    -0.10   0.06  -0.15    -0.03   0.03  -0.09     0.00  -0.03   0.02
   3   1     0.00   0.04  -0.10     0.01   0.01  -0.05    -0.02  -0.01   0.02
   4   1    -0.00   0.06   0.01     0.00   0.03  -0.00    -0.00  -0.03  -0.01
   5   6    -0.03   0.00  -0.05    -0.01  -0.00  -0.05     0.01   0.02  -0.02
   6   1    -0.04   0.04   0.00    -0.01   0.02  -0.01     0.03   0.02  -0.02
   7   1     0.01  -0.01  -0.02     0.00  -0.01  -0.02    -0.02   0.00  -0.02
   8   7     0.13  -0.04   0.06     0.06  -0.04   0.03    -0.01   0.01   0.01
   9   6     0.06  -0.31  -0.00     0.03  -0.17   0.02    -0.01   0.00   0.03
  10   1     0.01  -0.22   0.00    -0.02  -0.17   0.02    -0.01  -0.01   0.01
  11   1     0.08  -0.07   0.07     0.06  -0.00   0.10     0.00   0.01   0.02
  12   1    -0.06  -0.06  -0.09    -0.03  -0.00  -0.10    -0.00   0.01  -0.00
  13   6     0.08   0.26   0.07     0.02   0.13   0.04    -0.03   0.01   0.01
  14   1    -0.07   0.09  -0.03     0.01   0.06  -0.04    -0.01   0.00   0.00
  15   1     0.07   0.07   0.04    -0.01   0.08   0.04    -0.01   0.00   0.00
  16   1     0.05   0.15   0.04     0.00   0.03   0.04    -0.01   0.00   0.01
  17   6     0.21  -0.07   0.08     0.11  -0.05   0.05    -0.01  -0.00  -0.01
  18   1    -0.10  -0.01  -0.08    -0.01  -0.01  -0.02    -0.04   0.00  -0.03
  19   1     0.09   0.09   0.19     0.04   0.01   0.07     0.00   0.02   0.03
  20   1     0.20  -0.14  -0.03     0.08  -0.05  -0.00     0.02  -0.04  -0.01
  21   1    -0.14  -0.01  -0.02    -0.07   0.00  -0.01     0.01   0.01   0.01
  22   6     0.00   0.01   0.00    -0.00  -0.00  -0.01     0.01   0.00   0.03
  23   8     0.01   0.02  -0.02    -0.02  -0.01   0.03     0.01   0.01   0.03
  24   7     0.04  -0.07  -0.11    -0.12   0.12   0.22     0.02  -0.01  -0.00
  25   1    -0.07   0.08   0.18     0.12  -0.16  -0.34     0.01  -0.01  -0.01
  26   1    -0.11   0.09   0.29     0.22  -0.19  -0.60     0.02  -0.01  -0.03
  27   7    -0.02   0.00   0.02     0.04   0.00  -0.04     0.04  -0.02  -0.02
  28   1     0.05  -0.03  -0.14    -0.09   0.07   0.27    -0.01   0.01   0.06
  29   1     0.01  -0.01  -0.05    -0.02   0.01   0.08     0.00  -0.00   0.03
  30   6     0.00  -0.00   0.00     0.00   0.00   0.00    -0.04  -0.01  -0.00
  31   8    -0.00  -0.01   0.00    -0.00   0.00   0.00     0.01   0.01  -0.02
  32   7    -0.00  -0.00   0.01    -0.00   0.00   0.00     0.02   0.01  -0.03
  33   1     0.01   0.00  -0.00     0.00   0.00  -0.00    -0.00   0.00  -0.00
  34   1     0.00  -0.00  -0.00     0.01   0.00  -0.00    -0.03  -0.00   0.01
  35   7     0.01   0.00   0.00     0.00  -0.00   0.00    -0.03  -0.03   0.02
  36   1     0.00   0.00  -0.00     0.00  -0.00  -0.00     0.03   0.02  -0.05
  37   1     0.00   0.00  -0.00    -0.00  -0.00   0.00    -0.02  -0.01  -0.00
  38   6     0.04   0.03  -0.01     0.02   0.01  -0.00    -0.00   0.00   0.00
  39   8     0.10   0.03  -0.05     0.03   0.01  -0.01    -0.00   0.00   0.00
  40   7    -0.03   0.04  -0.03    -0.01   0.02  -0.01     0.00   0.00   0.00
  41   1     0.00   0.02  -0.02    -0.00   0.01  -0.01     0.00   0.00   0.00
  42   1    -0.02   0.00  -0.01    -0.01   0.00  -0.00    -0.00  -0.00   0.00
  43   7     0.02  -0.00   0.01     0.01  -0.01   0.01     0.00  -0.00   0.00
  44   1    -0.07  -0.00   0.04    -0.02  -0.00   0.01     0.00  -0.00  -0.00
  45   1    -0.01  -0.00   0.02     0.00  -0.00   0.01     0.00  -0.00   0.00
  46   6    -0.00   0.00   0.01     0.00  -0.00  -0.01    -0.02   0.01   0.02
  47   8    -0.00   0.01   0.01    -0.00  -0.00  -0.01    -0.02   0.00   0.02
  48   7     0.01   0.00   0.01     0.00  -0.00  -0.01     0.07   0.01   0.04
  49   1    -0.01  -0.00  -0.01     0.01  -0.00   0.01    -0.11  -0.03  -0.12
  50   1    -0.02  -0.00  -0.02     0.03   0.00   0.03    -0.43  -0.08  -0.42
  51   7    -0.02  -0.00   0.00     0.02   0.01  -0.01    -0.08  -0.01  -0.13
  52   1     0.01   0.00   0.02    -0.01   0.00  -0.02     0.42   0.14   0.53
  53   1     0.00   0.00   0.01    -0.00  -0.00  -0.01     0.16   0.05   0.18
                     34                     35                     36
                        a                      a                      a 
 Frequencies --   351.8556               366.9303               389.5901
 Red. masses --     5.1972                 6.5774                 4.0258
 Frc consts  --     0.0000                 0.0000                 0.0000
 IR Inten    --     1.8894                 8.1213               250.7260
 Raman Activ --     0.0000                 0.0000                 0.0000
 Depolar     --     0.0000                 0.0000                 0.0000
 Atom AN      X      Y      Z        X      Y      Z        X      Y      Z
   1   8     0.12   0.08  -0.01    -0.21   0.08   0.08    -0.02  -0.01   0.01
   2   6    -0.13  -0.17   0.14    -0.07   0.25  -0.01    -0.02   0.02   0.01
   3   1    -0.06  -0.08   0.12     0.06   0.11  -0.12     0.00   0.01  -0.02
   4   1    -0.08  -0.09  -0.02    -0.05   0.18   0.07    -0.01   0.02   0.01
   5   6    -0.07  -0.01   0.08    -0.09  -0.15   0.26    -0.02  -0.02   0.04
   6   1    -0.01  -0.03   0.02    -0.12  -0.14   0.15    -0.00  -0.01   0.01
   7   1    -0.05   0.04   0.05     0.11  -0.01   0.17     0.00   0.00   0.02
   8   7     0.01   0.04  -0.06     0.01  -0.08   0.00    -0.01  -0.00   0.01
   9   6    -0.01  -0.02  -0.17    -0.01  -0.06  -0.31    -0.02  -0.00  -0.04
  10   1    -0.00  -0.16  -0.05     0.08  -0.03  -0.13     0.01  -0.01  -0.02
  11   1     0.02   0.08   0.06    -0.05  -0.01  -0.13    -0.01   0.00  -0.02
  12   1    -0.03   0.06  -0.19    -0.04  -0.01  -0.11    -0.01   0.00  -0.02
  13   6     0.19  -0.21  -0.14     0.29  -0.14  -0.14     0.04   0.00  -0.02
  14   1     0.12  -0.08   0.00     0.14  -0.04  -0.03     0.01  -0.00  -0.00
  15   1     0.06  -0.07  -0.04     0.12  -0.03  -0.00     0.03  -0.01   0.00
  16   1     0.04  -0.11  -0.11     0.07  -0.07  -0.12     0.01   0.00  -0.03
  17   6    -0.07   0.32   0.14     0.00   0.09   0.15    -0.01   0.01   0.03
  18   1    -0.38   0.08  -0.07     0.18  -0.01   0.23     0.03  -0.00   0.03
  19   1     0.05   0.37   0.29    -0.03  -0.09  -0.14    -0.01  -0.02  -0.01
  20   1     0.22  -0.09  -0.05    -0.14   0.23   0.08    -0.02   0.03   0.01
  21   1     0.08   0.03   0.03    -0.06  -0.02  -0.02    -0.00  -0.01  -0.01
  22   6     0.00   0.01  -0.00     0.01  -0.01  -0.01    -0.01   0.01   0.05
  23   8    -0.00   0.01   0.01     0.01  -0.01  -0.01    -0.00  -0.00   0.02
  24   7    -0.02   0.00   0.01     0.00   0.00   0.02     0.04  -0.01  -0.06
  25   1    -0.01  -0.00  -0.01     0.01  -0.01  -0.01     0.01   0.01   0.03
  26   1     0.01  -0.01  -0.02     0.01  -0.00  -0.01    -0.01   0.03   0.04
  27   7    -0.00   0.01   0.00    -0.01   0.00   0.02     0.05  -0.03  -0.07
  28   1    -0.00   0.00   0.00     0.00  -0.00  -0.02    -0.06   0.05   0.20
  29   1    -0.00   0.00  -0.00    -0.00  -0.00  -0.01    -0.01  -0.00   0.05
  30   6     0.00   0.00  -0.00    -0.01  -0.00  -0.00     0.03   0.02   0.00
  31   8    -0.00  -0.00  -0.00     0.00   0.00  -0.00    -0.01  -0.01   0.00
  32   7     0.00   0.00  -0.00     0.00  -0.00  -0.00    -0.02   0.00   0.02
  33   1    -0.00   0.00   0.00     0.00  -0.00  -0.00     0.01   0.00  -0.01
  34   1    -0.00  -0.00   0.00    -0.01   0.00   0.00     0.05   0.00  -0.02
  35   7    -0.00   0.00  -0.00    -0.00  -0.00   0.00     0.00   0.01  -0.01
  36   1    -0.00  -0.00   0.00     0.01   0.01  -0.01    -0.05  -0.05   0.06
  37   1     0.00  -0.00   0.00    -0.01   0.00  -0.00     0.04  -0.00   0.00
  38   6    -0.02  -0.01   0.00     0.01   0.00   0.00     0.01   0.01  -0.01
  39   8    -0.03  -0.01   0.01     0.02   0.00  -0.00     0.01   0.01  -0.01
  40   7     0.01  -0.02   0.01    -0.01   0.01  -0.01    -0.01   0.01  -0.00
  41   1    -0.00  -0.01   0.01    -0.00   0.01  -0.00     0.00   0.00  -0.00
  42   1     0.01  -0.00   0.01    -0.01  -0.00  -0.00     0.02   0.00  -0.02
  43   7    -0.01   0.00  -0.01     0.01   0.00   0.00    -0.00   0.00   0.00
  44   1     0.03   0.00  -0.02    -0.01   0.00   0.01    -0.02  -0.00   0.01
  45   1    -0.00   0.00  -0.01     0.00   0.00  -0.00     0.00   0.00  -0.00
  46   6     0.00  -0.00  -0.00     0.02   0.00   0.01    -0.12  -0.02  -0.15
  47   8     0.00   0.00  -0.00     0.00   0.01  -0.00    -0.05  -0.06  -0.07
  48   7    -0.01   0.00  -0.00    -0.02  -0.01  -0.02     0.21   0.06   0.18
  49   1    -0.00  -0.00   0.00     0.01   0.00   0.02    -0.07  -0.02  -0.05
  50   1     0.02   0.01   0.02    -0.00   0.00  -0.00    -0.46  -0.05  -0.45
  51   7     0.00  -0.00   0.01    -0.03  -0.02  -0.04     0.17   0.06   0.22
  52   1    -0.02  -0.01  -0.02     0.10   0.02   0.12    -0.31  -0.08  -0.39
  53   1    -0.01  -0.00  -0.01     0.03   0.01   0.03    -0.08  -0.02  -0.09
                     37                     38                     39
                        a                      a                      a 
 Frequencies --   430.6432               436.0980               443.7818
 Red. masses --     8.8208                 3.8286                 3.4289
 Frc consts  --     0.0000                 0.0000                 0.0000
 IR Inten    --     2.7375                44.1692               318.2041
 Raman Activ --     0.0000                 0.0000                 0.0000
 Depolar     --     0.0000                 0.0000                 0.0000
 Atom AN      X      Y      Z        X      Y      Z        X      Y      Z
   1   8    -0.24   0.09   0.01     0.02  -0.00  -0.01     0.03  -0.01  -0.01
   2   6    -0.02  -0.12  -0.14    -0.00   0.01   0.01    -0.00   0.02   0.02
   3   1    -0.00  -0.05  -0.01    -0.00   0.00   0.00    -0.01   0.01   0.00
   4   1    -0.00  -0.04  -0.04    -0.00   0.00   0.00    -0.00   0.00   0.00
   5   6     0.13  -0.05   0.08    -0.01   0.01  -0.01    -0.02   0.02  -0.02
   6   1    -0.05  -0.03   0.09     0.01   0.01  -0.01     0.02   0.03  -0.03
   7   1     0.11   0.01   0.08    -0.01  -0.00  -0.01    -0.03  -0.01  -0.03
   8   7     0.32  -0.01   0.04    -0.02  -0.01   0.02    -0.03  -0.00   0.04
   9   6     0.34   0.01  -0.11    -0.02   0.00  -0.02    -0.04  -0.00  -0.02
  10   1     0.12  -0.01  -0.04     0.01  -0.00  -0.01     0.01  -0.01  -0.02
  11   1     0.06   0.03  -0.04    -0.01   0.00  -0.01    -0.02   0.00  -0.01
  12   1     0.09   0.01  -0.05    -0.01   0.00  -0.01    -0.02   0.00  -0.02
  13   6    -0.13  -0.11   0.32     0.03   0.01  -0.00     0.05   0.02  -0.00
  14   1    -0.06  -0.04   0.11     0.01   0.00  -0.00     0.02   0.01  -0.01
  15   1    -0.16  -0.03   0.01     0.02   0.00   0.01     0.03   0.01   0.01
  16   1    -0.03  -0.06   0.21     0.01   0.00  -0.01     0.01   0.01  -0.02
  17   6    -0.31   0.17  -0.22    -0.01  -0.02   0.01    -0.00  -0.04   0.03
  18   1    -0.17   0.04  -0.06     0.00  -0.00   0.00     0.01  -0.01  -0.00
  19   1    -0.08   0.17  -0.21    -0.00  -0.01   0.00    -0.00  -0.02   0.01
  20   1    -0.21  -0.02   0.00    -0.00  -0.01   0.00     0.00  -0.01   0.01
  21   1    -0.07   0.02  -0.00     0.00   0.00  -0.00     0.01  -0.00  -0.00
  22   6    -0.02   0.00   0.01     0.03   0.04   0.09    -0.08   0.03   0.09
  23   8    -0.02   0.01   0.01     0.05  -0.02   0.07    -0.05   0.00   0.03
  24   7     0.03   0.01  -0.02    -0.02  -0.10  -0.11     0.07  -0.01  -0.18
  25   1     0.02   0.00   0.02    -0.09   0.03   0.03     0.00   0.05   0.10
  26   1    -0.00   0.03   0.02    -0.06  -0.03   0.14    -0.07   0.10   0.16
  27   7     0.03  -0.02  -0.02     0.03   0.03  -0.17     0.10  -0.07  -0.18
  28   1    -0.02   0.01   0.09    -0.15   0.16   0.39    -0.21   0.15   0.63
  29   1     0.01  -0.00   0.01    -0.06  -0.01   0.02    -0.01  -0.02   0.00
  30   6    -0.00  -0.00  -0.00     0.06  -0.07  -0.04    -0.04   0.04   0.03
  31   8     0.00   0.00   0.00     0.10   0.06   0.09    -0.05  -0.05  -0.07
  32   7     0.00  -0.00   0.00    -0.11  -0.07  -0.07     0.06   0.05   0.05
  33   1    -0.00  -0.00   0.00    -0.02   0.00  -0.04     0.02   0.00   0.02
  34   1     0.00   0.00   0.00    -0.02  -0.02  -0.02     0.04   0.01  -0.01
  35   7     0.00   0.00   0.00     0.04  -0.03   0.02    -0.03   0.02   0.01
  36   1     0.00   0.00  -0.00     0.31   0.38  -0.22    -0.18  -0.23   0.12
  37   1    -0.00   0.00  -0.00    -0.42   0.00   0.09     0.27   0.00  -0.07
  38   6     0.01   0.00  -0.00    -0.01   0.01  -0.01     0.00  -0.01   0.01
  39   8     0.01  -0.00  -0.01    -0.02   0.00  -0.02     0.01  -0.00   0.02
  40   7    -0.01   0.01  -0.01     0.01   0.01   0.02    -0.01  -0.01  -0.01
  41   1    -0.00   0.00  -0.00     0.00  -0.00   0.01    -0.00  -0.00  -0.00
  42   1     0.00  -0.00  -0.01     0.01   0.01   0.00    -0.01  -0.01  -0.00
  43   7     0.00   0.00   0.00     0.00  -0.03   0.00    -0.00   0.03  -0.01
  44   1    -0.02   0.00   0.02    -0.00  -0.02  -0.01     0.01   0.02   0.01
  45   1     0.01   0.00  -0.01     0.01  -0.01   0.02    -0.01   0.01  -0.01
  46   6     0.00  -0.00  -0.01    -0.08   0.00   0.08     0.09   0.00  -0.04
  47   8     0.00   0.00  -0.01    -0.10   0.11   0.07     0.09  -0.05  -0.04
  48   7     0.00  -0.00  -0.00     0.07  -0.16  -0.05    -0.10   0.08  -0.03
  49   1     0.00  -0.00   0.00     0.05  -0.01  -0.08    -0.05   0.01   0.02
  50   1    -0.00   0.00  -0.00     0.10  -0.11   0.07     0.14   0.09   0.15
  51   7    -0.00  -0.01   0.00     0.01   0.07  -0.05    -0.05  -0.07  -0.02
  52   1     0.00  -0.00   0.01    -0.03   0.11  -0.07     0.09  -0.06   0.14
  53   1    -0.00  -0.00   0.00     0.14  -0.03  -0.03    -0.08   0.02   0.03
                     40                     41                     42
                        a                      a                      a 
 Frequencies --   456.6493               457.3224               458.8283
 Red. masses --     2.6951                 7.5563                 7.7469
 Frc consts  --     0.0000                 0.0000                 0.0000
 IR Inten    --    91.7103                20.4250                11.9405
 Raman Activ --     0.0000                 0.0000                 0.0000
 Depolar     --     0.0000                 0.0000                 0.0000
 Atom AN      X      Y      Z        X      Y      Z        X      Y      Z
   1   8    -0.01   0.01   0.01     0.06  -0.01  -0.02     0.05   0.00  -0.04
   2   6     0.06  -0.07  -0.05    -0.14   0.17   0.14     0.01   0.00   0.00
   3   1     0.04  -0.02  -0.01    -0.10   0.05   0.05    -0.03  -0.01   0.03
   4   1     0.01  -0.01  -0.01    -0.04   0.01   0.01     0.02  -0.04  -0.02
   5   6     0.01  -0.13  -0.05    -0.03   0.32   0.14    -0.01   0.13  -0.16
   6   1    -0.01  -0.04  -0.01     0.00   0.08   0.03     0.11   0.20  -0.14
   7   1     0.02  -0.04  -0.01    -0.03   0.11   0.04    -0.15  -0.04  -0.19
   8   7    -0.03  -0.11  -0.03     0.06   0.30   0.01    -0.02  -0.07   0.34
   9   6     0.03   0.11   0.02    -0.09  -0.28  -0.01    -0.07   0.07  -0.27
  10   1    -0.00   0.06   0.01    -0.02  -0.14  -0.01     0.13  -0.00  -0.15
  11   1    -0.02   0.06   0.02     0.08  -0.17  -0.02    -0.15   0.07  -0.13
  12   1     0.07   0.04   0.00    -0.18  -0.10   0.01    -0.05   0.04  -0.14
  13   6    -0.02   0.09  -0.05     0.01  -0.24   0.08     0.29   0.06   0.20
  14   1    -0.02   0.04  -0.06     0.07  -0.11   0.14     0.11   0.03   0.02
  15   1     0.02   0.05   0.02    -0.06  -0.12  -0.06     0.14   0.04   0.12
  16   1     0.00   0.05  -0.01    -0.02  -0.14   0.01     0.07   0.02  -0.03
  17   6    -0.04   0.03   0.12     0.16  -0.06  -0.29    -0.24  -0.24   0.07
  18   1    -0.04  -0.01   0.07     0.12   0.02  -0.18    -0.07  -0.05  -0.05
  19   1    -0.01   0.04   0.04     0.03  -0.10  -0.09    -0.07  -0.05  -0.03
  20   1     0.01   0.04   0.02     0.01  -0.09  -0.06    -0.11  -0.14   0.05
  21   1    -0.02   0.02   0.01     0.02  -0.01  -0.01     0.00   0.02   0.01
  22   6     0.02   0.00   0.00    -0.03  -0.01  -0.01    -0.09  -0.03  -0.04
  23   8     0.02  -0.01   0.01    -0.03   0.01  -0.01    -0.10   0.04  -0.05
  24   7    -0.01  -0.02   0.00     0.02   0.03  -0.00     0.07   0.11   0.01
  25   1    -0.01  -0.00  -0.02     0.03   0.01   0.05     0.10   0.00   0.07
  26   1    -0.01  -0.02   0.02     0.02   0.03  -0.04     0.04   0.10  -0.08
  27   7    -0.02   0.02  -0.01     0.03  -0.03   0.02     0.08  -0.10   0.09
  28   1    -0.01   0.02  -0.00     0.01  -0.03   0.01     0.06  -0.12  -0.06
  29   1    -0.01  -0.00  -0.00     0.03   0.00  -0.00     0.08   0.01   0.02
  30   6    -0.01  -0.01   0.02    -0.00  -0.01   0.01     0.01  -0.01  -0.00
  31   8    -0.00  -0.00   0.01     0.00  -0.01   0.01     0.01   0.01   0.02
  32   7     0.02  -0.00  -0.02    -0.00  -0.01  -0.01    -0.01  -0.01  -0.02
  33   1    -0.03  -0.00   0.02    -0.01   0.00   0.00    -0.01  -0.00  -0.00
  34   1    -0.01  -0.00   0.00    -0.01  -0.00  -0.00    -0.01  -0.01   0.00
  35   7    -0.00   0.02  -0.00     0.00   0.01  -0.00     0.00   0.00  -0.01
  36   1    -0.01  -0.00   0.01     0.01   0.02  -0.00     0.02   0.03  -0.01
  37   1     0.00   0.01  -0.01    -0.02   0.00   0.00    -0.04   0.00   0.01
  38   6     0.07   0.01  -0.07     0.02   0.00  -0.03    -0.00   0.02  -0.01
  39   8    -0.00   0.03   0.00    -0.00   0.01  -0.00    -0.02   0.01  -0.02
  40   7    -0.12  -0.02   0.11    -0.05  -0.01   0.06     0.00   0.01   0.03
  41   1    -0.02   0.01   0.01    -0.00  -0.00   0.01     0.01  -0.01   0.01
  42   1     0.62   0.02  -0.41     0.26   0.01  -0.16     0.05   0.01  -0.02
  43   7    -0.11  -0.02   0.06    -0.05  -0.01   0.02    -0.01  -0.03   0.01
  44   1    -0.26  -0.01   0.16    -0.08  -0.01   0.05    -0.00  -0.02  -0.01
  45   1     0.34  -0.01  -0.22     0.12  -0.01  -0.08     0.01  -0.01   0.02
  46   6     0.01   0.00   0.00     0.00  -0.00  -0.00    -0.01   0.01   0.01
  47   8     0.01  -0.00  -0.00    -0.00   0.00  -0.01    -0.01  -0.01   0.01
  48   7    -0.01   0.01  -0.00    -0.00   0.00   0.00     0.01  -0.00  -0.00
  49   1    -0.00   0.00   0.01    -0.01  -0.00  -0.00    -0.01   0.00  -0.04
  50   1     0.01   0.01   0.01     0.01   0.00   0.01     0.02  -0.01   0.01
  51   7    -0.01  -0.01  -0.00    -0.00  -0.00   0.00    -0.01   0.01   0.00
  52   1     0.01  -0.00   0.02    -0.01  -0.00  -0.01    -0.02   0.00  -0.02
  53   1    -0.00   0.00   0.01     0.00  -0.00   0.00     0.01   0.00   0.00
                     43                     44                     45
                        a                      a                      a 
 Frequencies --   467.5265               475.6585               476.2699
 Red. masses --     7.8864                 3.5570                 6.2472
 Frc consts  --     0.0000                 0.0000                 0.0000
 IR Inten    --    15.0612                28.2923                20.6723
 Raman Activ --     0.0000                 0.0000                 0.0000
 Depolar     --     0.0000                 0.0000                 0.0000
 Atom AN      X      Y      Z        X      Y      Z        X      Y      Z
   1   8    -0.01  -0.01   0.02     0.02   0.02  -0.01     0.01  -0.00  -0.00
   2   6     0.02  -0.02  -0.01     0.00  -0.00  -0.00    -0.01   0.01   0.01
   3   1     0.02  -0.00  -0.01     0.00  -0.00   0.01    -0.01   0.00   0.01
   4   1    -0.00   0.01   0.01    -0.00  -0.01  -0.01     0.00  -0.01  -0.00
   5   6     0.00  -0.08   0.03     0.00  -0.00   0.00     0.00   0.05  -0.01
   6   1    -0.03  -0.07   0.03    -0.00  -0.01   0.00     0.02   0.03  -0.02
   7   1     0.04  -0.00   0.05     0.01   0.00   0.01    -0.02   0.00  -0.02
   8   7    -0.01  -0.02  -0.11    -0.01   0.00  -0.01     0.01   0.02   0.05
   9   6     0.02   0.01   0.09    -0.01   0.00   0.01    -0.01  -0.01  -0.04
  10   1    -0.04   0.02   0.05    -0.01   0.00   0.01     0.02  -0.01  -0.02
  11   1     0.03   0.00   0.04     0.00  -0.00   0.01    -0.01  -0.00  -0.02
  12   1     0.04  -0.00   0.04     0.00  -0.00   0.01    -0.02  -0.00  -0.02
  13   6    -0.08   0.02  -0.09    -0.01  -0.00  -0.01     0.04  -0.01   0.04
  14   1    -0.04   0.01  -0.03     0.00  -0.00  -0.00     0.02  -0.01   0.02
  15   1    -0.03   0.01  -0.03    -0.00   0.00  -0.00     0.01  -0.00   0.01
  16   1    -0.02   0.02  -0.00    -0.00  -0.00  -0.01     0.01  -0.01   0.00
  17   6     0.07   0.08   0.03     0.01   0.01   0.01    -0.03  -0.04  -0.02
  18   1     0.01   0.01   0.04     0.00   0.00   0.00    -0.00  -0.00  -0.03
  19   1     0.02   0.02   0.04     0.00  -0.00   0.01    -0.01  -0.01  -0.02
  20   1     0.05   0.05  -0.01     0.01   0.01  -0.00    -0.02  -0.03   0.00
  21   1    -0.01  -0.00   0.00     0.01  -0.00  -0.01    -0.00   0.00  -0.00
  22   6    -0.18  -0.07  -0.03    -0.04  -0.03  -0.01     0.08   0.06   0.03
  23   8    -0.20   0.10  -0.11    -0.05   0.04  -0.04     0.09  -0.08   0.09
  24   7     0.16   0.16  -0.05     0.04   0.02  -0.02    -0.08  -0.04   0.03
  25   1     0.18   0.05   0.27     0.03   0.05   0.18    -0.06  -0.10  -0.39
  26   1     0.08   0.22  -0.17     0.04   0.05  -0.11    -0.09  -0.10   0.24
  27   7     0.13  -0.22   0.12     0.03  -0.06   0.04    -0.04   0.11  -0.09
  28   1     0.02  -0.15   0.11     0.00  -0.03   0.03    -0.00   0.06  -0.07
  29   1     0.13  -0.01  -0.01     0.03  -0.01  -0.01    -0.05   0.02   0.02
  30   6     0.09  -0.09   0.02    -0.02   0.05  -0.04     0.09  -0.08   0.05
  31   8     0.10   0.00   0.14    -0.02   0.02  -0.07     0.09  -0.04   0.12
  32   7    -0.10  -0.08  -0.14     0.03   0.03   0.08    -0.09  -0.06  -0.15
  33   1    -0.05   0.02  -0.04     0.05  -0.01   0.01    -0.05   0.03  -0.05
  34   1     0.01  -0.05  -0.08    -0.02   0.03   0.05     0.05  -0.05  -0.12
  35   7    -0.02   0.12  -0.01     0.02  -0.10   0.00    -0.06   0.19   0.00
  36   1     0.08   0.19   0.02     0.03  -0.02  -0.07    -0.07   0.05   0.15
  37   1    -0.20   0.04  -0.03     0.01  -0.03   0.05    -0.02   0.06  -0.11
  38   6    -0.03   0.07  -0.04    -0.11  -0.06   0.12    -0.10   0.12  -0.03
  39   8    -0.06   0.01  -0.10    -0.07  -0.02   0.14    -0.15   0.02  -0.13
  40   7     0.07   0.05   0.08     0.17  -0.03  -0.21     0.21   0.08   0.08
  41   1     0.02  -0.02   0.04    -0.06   0.01  -0.01     0.02  -0.04   0.08
  42   1     0.01   0.05   0.06    -0.34  -0.05   0.18    -0.12   0.07   0.20
  43   7     0.01  -0.12   0.01     0.07   0.08  -0.05     0.04  -0.18  -0.01
  44   1    -0.03  -0.10  -0.05    -0.39   0.07   0.32    -0.23  -0.15   0.05
  45   1     0.04  -0.05   0.09     0.42   0.03  -0.36     0.28  -0.09  -0.01
  46   6     0.09   0.00  -0.09    -0.04   0.00   0.03     0.07  -0.01  -0.06
  47   8     0.09   0.00  -0.09    -0.04   0.02   0.02     0.08  -0.03  -0.05
  48   7    -0.07   0.13   0.04     0.03  -0.05  -0.02    -0.07   0.11   0.04
  49   1    -0.07   0.00   0.06     0.02  -0.00  -0.04    -0.05   0.00   0.07
  50   1    -0.02   0.12   0.00     0.02  -0.05   0.01    -0.04   0.10  -0.01
  51   7    -0.10  -0.14   0.10     0.02   0.04  -0.02    -0.03  -0.08   0.05
  52   1    -0.01  -0.13   0.05    -0.01   0.04  -0.03     0.02  -0.09   0.05
  53   1    -0.08   0.02   0.09     0.04  -0.01  -0.02    -0.08   0.01   0.03
                     46                     47                     48
                        a                      a                      a 
 Frequencies --   484.0821               495.1688               511.6079
 Red. masses --     4.4443                 8.4575                 8.9184
 Frc consts  --     0.0000                 0.0000                 0.0000
 IR Inten    --    15.2550                53.3041                46.7320
 Raman Activ --     0.0000                 0.0000                 0.0000
 Depolar     --     0.0000                 0.0000                 0.0000
 Atom AN      X      Y      Z        X      Y      Z        X      Y      Z
   1   8    -0.00  -0.01   0.00     0.01   0.02  -0.02     0.01   0.01  -0.01
   2   6     0.00  -0.00  -0.00     0.01  -0.00  -0.01     0.00   0.00  -0.00
   3   1    -0.00  -0.00   0.00    -0.01  -0.00   0.01     0.00   0.00  -0.00
   4   1     0.00  -0.01  -0.00     0.01  -0.02  -0.01    -0.00   0.00  -0.00
   5   6     0.00   0.01  -0.01     0.01   0.04  -0.03    -0.00  -0.01   0.01
   6   1     0.01   0.01  -0.01     0.02   0.03  -0.02    -0.01  -0.00   0.00
   7   1    -0.01  -0.00  -0.01    -0.02  -0.00  -0.03     0.00  -0.00   0.01
   8   7     0.01  -0.00   0.03    -0.00   0.01   0.05     0.00  -0.00  -0.01
   9   6     0.00   0.01  -0.03    -0.02   0.01  -0.04     0.00  -0.00   0.01
  10   1     0.02   0.00  -0.02     0.02  -0.00  -0.02    -0.00   0.00   0.00
  11   1    -0.01   0.00  -0.02    -0.02   0.00  -0.02     0.00  -0.00   0.00
  12   1    -0.00   0.00  -0.01    -0.01   0.00  -0.02     0.00  -0.00   0.00
  13   6     0.02   0.00   0.03     0.04   0.00   0.04    -0.01   0.00  -0.01
  14   1     0.01   0.00   0.01     0.02   0.00   0.01    -0.00   0.00  -0.00
  15   1     0.01   0.00   0.01     0.02   0.00   0.01    -0.00   0.00  -0.00
  16   1     0.01  -0.00   0.00     0.01  -0.00  -0.00    -0.00   0.00   0.00
  17   6    -0.04  -0.02  -0.01    -0.04  -0.04  -0.01     0.01   0.01   0.00
  18   1    -0.00  -0.00  -0.01    -0.01  -0.00  -0.02     0.00   0.00   0.00
  19   1    -0.01  -0.01  -0.02    -0.01  -0.01  -0.01     0.00   0.00   0.00
  20   1    -0.02  -0.01   0.00    -0.02  -0.03   0.00     0.00   0.00  -0.00
  21   1    -0.01   0.00  -0.00     0.01   0.00   0.00     0.01  -0.00  -0.00
  22   6     0.16  -0.00  -0.03     0.09   0.03  -0.01    -0.03  -0.01   0.00
  23   8     0.18  -0.02  -0.04     0.11  -0.05   0.02    -0.04   0.03  -0.01
  24   7    -0.10  -0.21  -0.01    -0.07  -0.09   0.01     0.02   0.03  -0.00
  25   1    -0.22   0.21   0.57    -0.11   0.04   0.06     0.04  -0.01  -0.01
  26   1     0.12  -0.19  -0.36     0.01  -0.12  -0.06    -0.00   0.04   0.01
  27   7    -0.17   0.18   0.03    -0.07   0.12  -0.01     0.02  -0.05   0.01
  28   1    -0.06   0.17  -0.00    -0.02   0.08  -0.03     0.01  -0.04  -0.00
  29   1    -0.12  -0.03  -0.08    -0.06  -0.01  -0.04     0.02   0.00   0.03
  30   6     0.02  -0.03   0.03     0.06  -0.03   0.02     0.11  -0.15   0.12
  31   8     0.02  -0.03   0.04     0.05  -0.02   0.05     0.14  -0.08   0.22
  32   7    -0.02  -0.02  -0.06    -0.10  -0.03  -0.06    -0.14  -0.09  -0.32
  33   1    -0.02   0.01  -0.02    -0.04   0.02  -0.02    -0.14   0.08  -0.07
  34   1     0.02  -0.02  -0.05     0.04  -0.02  -0.07     0.01  -0.11  -0.20
  35   7    -0.04   0.10   0.00     0.04   0.01   0.03    -0.09   0.31   0.06
  36   1    -0.09  -0.05   0.11     0.11   0.15  -0.05    -0.15   0.02   0.28
[...]
  44   1     0.00  -0.00   0.00    -0.00   0.00  -0.00    -0.00  -0.00  -0.00
  45   1     0.00   0.00   0.00    -0.00  -0.01  -0.00     0.00  -0.00  -0.00
  46   6    -0.02  -0.01   0.02     0.00  -0.01   0.00     0.00   0.01  -0.00
  47   8     0.01   0.00  -0.01    -0.00   0.00  -0.00    -0.00   0.00   0.00
  48   7     0.02  -0.04  -0.01     0.01  -0.02  -0.00    -0.08   0.20   0.02
  49   1    -0.08   0.18   0.04    -0.04   0.09   0.02     0.38  -0.79  -0.16
  50   1     0.02  -0.00  -0.02     0.01  -0.00  -0.01    -0.10   0.02   0.10
  51   7     0.01   0.01  -0.01    -0.01  -0.03   0.02     0.01   0.05  -0.03
  52   1     0.00  -0.00  -0.00    -0.02  -0.00   0.02     0.04   0.00  -0.03
  53   1    -0.01  -0.03   0.02     0.04   0.12  -0.07    -0.08  -0.23   0.13
                    142                    143                    144
                        a                      a                      a 
 Frequencies --  3319.5631              3383.1446              3441.1795
 Red. masses --     1.7696                 1.9887                 1.4747
 Frc consts  --     0.0000                 0.0000                 0.0000
 IR Inten    --   206.1740               437.1726                11.0055
 Raman Activ --     0.0000                 0.0000                 0.0000
 Depolar     --     0.0000                 0.0000                 0.0000
 Atom AN      X      Y      Z        X      Y      Z        X      Y      Z
   1   8     0.00   0.00  -0.00     0.00   0.00  -0.00    -0.00  -0.00   0.00
   2   6     0.00  -0.00  -0.00     0.00   0.00   0.00     0.00   0.00  -0.00
   3   1    -0.00   0.00  -0.00    -0.00  -0.00   0.00     0.00   0.00  -0.00
   4   1    -0.00  -0.00   0.00     0.00   0.00  -0.00    -0.00  -0.00   0.00
   5   6     0.00  -0.00   0.00    -0.00   0.00  -0.00     0.00  -0.00   0.00
   6   1     0.00  -0.00  -0.00     0.00   0.00   0.00    -0.00  -0.00  -0.00
   7   1     0.00   0.00   0.00    -0.00  -0.00   0.00     0.00   0.00  -0.00
   8   7     0.00   0.00   0.00    -0.00   0.00  -0.00     0.00  -0.00   0.00
   9   6    -0.00  -0.00  -0.00    -0.00   0.00   0.00     0.00  -0.00   0.00
  10   1     0.00   0.00   0.00    -0.00   0.00  -0.00    -0.00  -0.00  -0.00
  11   1    -0.00  -0.00  -0.00    -0.00  -0.00   0.00    -0.00   0.00  -0.00
  12   1    -0.00   0.00   0.00    -0.00  -0.00  -0.00     0.00   0.00   0.00
  13   6    -0.00  -0.00   0.00     0.00  -0.00   0.00     0.00  -0.00  -0.00
  14   1    -0.00   0.00   0.00    -0.00  -0.00  -0.00    -0.00  -0.00   0.00
  15   1     0.00  -0.00  -0.00     0.00  -0.00  -0.00    -0.00   0.00   0.00
  16   1     0.00  -0.00  -0.00    -0.00  -0.00   0.00    -0.00   0.00   0.00
  17   6    -0.00  -0.00  -0.00    -0.00   0.00  -0.00     0.00  -0.00   0.00
  18   1    -0.00   0.00   0.00     0.00  -0.00  -0.00    -0.00   0.00   0.00
  19   1    -0.00  -0.00  -0.00     0.00   0.00   0.00     0.00  -0.00   0.00
  20   1     0.00   0.00   0.00    -0.00   0.00   0.00    -0.00  -0.00  -0.00
  21   1    -0.00  -0.00   0.00    -0.01  -0.02   0.02     0.00   0.00  -0.00
  22   6    -0.00  -0.00  -0.00     0.00   0.00  -0.00    -0.00  -0.00   0.00
  23   8     0.00   0.00  -0.00     0.00  -0.00  -0.00     0.00   0.00   0.00
  24   7     0.00   0.00   0.00    -0.00  -0.00  -0.00     0.00   0.00   0.00
  25   1    -0.00  -0.00   0.00     0.00   0.00   0.00     0.00   0.00  -0.00
  26   1     0.00   0.00   0.00     0.00   0.00   0.00    -0.00  -0.00  -0.00
  27   7    -0.01   0.02  -0.00     0.01  -0.01   0.00     0.00   0.00  -0.00
  28   1    -0.01  -0.00  -0.00     0.01   0.00   0.00    -0.00  -0.00  -0.00
  29   1     0.05  -0.07   0.02    -0.04   0.05  -0.02     0.00  -0.00   0.00
  30   6     0.00   0.01   0.01    -0.00   0.01  -0.00     0.01   0.00   0.00
  31   8    -0.00  -0.00  -0.00     0.00  -0.00   0.00    -0.00   0.00  -0.00
  32   7    -0.04   0.01  -0.06    -0.12   0.13  -0.20     0.01  -0.01   0.01
  33   1     0.08   0.06   0.11     0.09   0.08   0.12    -0.00  -0.00   0.00
  34   1     0.06  -0.09   0.09     0.37  -0.58   0.62    -0.02   0.04  -0.04
  35   7    -0.01  -0.01  -0.01     0.02  -0.00   0.00     0.16   0.06   0.08
  36   1     0.04  -0.03   0.02    -0.06   0.03  -0.02    -0.61   0.39  -0.21
  37   1     0.00   0.05   0.01    -0.00  -0.02  -0.00     0.00  -0.62  -0.09
  38   6    -0.00   0.00  -0.00    -0.00   0.00  -0.00     0.00  -0.00   0.00
  39   8     0.00  -0.00   0.00     0.00  -0.00   0.00    -0.00  -0.00  -0.00
  40   7    -0.00  -0.01  -0.01     0.00   0.00   0.00    -0.00  -0.00  -0.00
  41   1     0.02   0.01   0.03    -0.00  -0.00  -0.01     0.00   0.00   0.01
  42   1    -0.00   0.00  -0.00     0.00  -0.00   0.00    -0.00   0.00  -0.00
  43   7     0.00  -0.00   0.00     0.00  -0.00   0.00    -0.00   0.00  -0.00
  44   1     0.00  -0.00   0.00     0.00  -0.00   0.00     0.00  -0.00   0.00
  45   1     0.00   0.00   0.00     0.00   0.01   0.00    -0.00  -0.00  -0.00
  46   6     0.01  -0.01  -0.00     0.01  -0.00  -0.01    -0.00   0.00   0.00
  47   8    -0.01   0.00   0.01    -0.00   0.00   0.00     0.00  -0.00   0.00
  48   7    -0.02   0.07   0.01     0.00  -0.02   0.00     0.00   0.00  -0.00
  49   1     0.12  -0.24  -0.05    -0.03   0.07   0.01     0.00  -0.00  -0.00
  50   1    -0.03   0.00   0.03     0.01  -0.00  -0.01    -0.00   0.00   0.00
  51   7    -0.04  -0.19   0.09     0.00   0.03  -0.01    -0.00  -0.02   0.01
  52   1    -0.12  -0.00   0.10     0.02   0.00  -0.02    -0.02  -0.00   0.02
  53   1     0.27   0.73  -0.43    -0.04  -0.12   0.07     0.03   0.07  -0.04
                    145                    146                    147
                        a                      a                      a 
 Frequencies --  3495.7237              3496.6990              3506.1396
 Red. masses --     1.4530                 2.1427                 1.4513
 Frc consts  --     0.0000                 0.0000                 0.0000
 IR Inten    --    23.0466                10.4064                15.1558
 Raman Activ --     0.0000                 0.0000                 0.0000
 Depolar     --     0.0000                 0.0000                 0.0000
 Atom AN      X      Y      Z        X      Y      Z        X      Y      Z
   1   8    -0.00   0.00  -0.00     0.00   0.00  -0.00    -0.00  -0.00   0.00
   2   6     0.00  -0.00  -0.00    -0.00  -0.00  -0.00    -0.00   0.00   0.00
   3   1    -0.00   0.00   0.00    -0.00  -0.00   0.00    -0.00  -0.00  -0.00
   4   1    -0.00  -0.00   0.00     0.00   0.00  -0.00     0.00   0.00   0.00
   5   6    -0.00   0.00  -0.00    -0.00  -0.00  -0.00    -0.00  -0.00   0.00
   6   1     0.00  -0.00   0.00     0.00  -0.00   0.00    -0.00  -0.00  -0.00
   7   1     0.00  -0.00  -0.00     0.00  -0.00  -0.00     0.00   0.00  -0.00
   8   7    -0.00  -0.00   0.00     0.00   0.00  -0.00    -0.00   0.00  -0.00
   9   6    -0.00   0.00  -0.00    -0.00  -0.00  -0.00     0.00  -0.00   0.00
  10   1     0.00  -0.00   0.00     0.00   0.00   0.00    -0.00  -0.00  -0.00
  11   1    -0.00  -0.00  -0.00     0.00   0.00  -0.00     0.00   0.00  -0.00
  12   1    -0.00   0.00  -0.00     0.00   0.00   0.00     0.00  -0.00   0.00
  13   6    -0.00   0.00   0.00    -0.00  -0.00   0.00     0.00  -0.00   0.00
  14   1     0.00   0.00  -0.00     0.00   0.00   0.00     0.00  -0.00  -0.00
  15   1    -0.00  -0.00   0.00     0.00   0.00  -0.00     0.00   0.00  -0.00
  16   1     0.00  -0.00  -0.00    -0.00  -0.00  -0.00    -0.00   0.00   0.00
  17   6    -0.00  -0.00  -0.00    -0.00  -0.00  -0.00     0.00  -0.00   0.00
  18   1     0.00  -0.00  -0.00     0.00   0.00  -0.00     0.00  -0.00   0.00
  19   1    -0.00   0.00  -0.00    -0.00  -0.00  -0.00    -0.00   0.00   0.00
  20   1     0.00   0.00   0.00     0.00   0.00   0.00    -0.00   0.00  -0.00
  21   1    -0.00  -0.00   0.00    -0.00  -0.00   0.00     0.00   0.01  -0.01
  22   6     0.00  -0.00   0.00     0.00   0.00   0.00     0.00   0.00  -0.00
  23   8    -0.00  -0.00  -0.00    -0.00  -0.00  -0.00     0.00  -0.00  -0.00
  24   7     0.09  -0.13   0.10     0.00  -0.00   0.00    -0.00   0.00  -0.00
  25   1     0.33   0.57  -0.15     0.01   0.02  -0.00    -0.00  -0.00   0.00
  26   1    -0.67  -0.10  -0.22    -0.02  -0.00  -0.01     0.00   0.00   0.00
  27   7    -0.01   0.00  -0.01    -0.00  -0.00  -0.00     0.00  -0.00   0.00
  28   1     0.04   0.01   0.01     0.00   0.00   0.00    -0.00  -0.00  -0.00
  29   1     0.01  -0.01   0.00     0.00  -0.00   0.00    -0.00   0.00  -0.00
  30   6     0.00  -0.00   0.00    -0.00   0.01  -0.00     0.00  -0.00  -0.00
  31   8    -0.00   0.00  -0.00     0.00  -0.00   0.00     0.00   0.00   0.00
  32   7    -0.00   0.00  -0.00    -0.00   0.00  -0.01     0.00   0.00   0.00
  33   1     0.00   0.00   0.00     0.00   0.00   0.00    -0.00  -0.00  -0.01
  34   1     0.00  -0.00   0.00     0.01  -0.02   0.02    -0.00   0.00  -0.00
  35   7     0.00  -0.01   0.00    -0.13   0.27  -0.02     0.00  -0.00   0.00
  36   1    -0.02   0.01  -0.01     0.51  -0.29   0.17    -0.00   0.00  -0.00
  37   1     0.00   0.02   0.00    -0.03  -0.73  -0.11     0.00   0.00   0.00
  38   6     0.00  -0.00   0.00    -0.00   0.00  -0.00    -0.00   0.00  -0.00
  39   8    -0.00   0.00  -0.00     0.00  -0.00   0.00     0.00  -0.00   0.00
  40   7    -0.00   0.00  -0.00     0.00  -0.00  -0.00     0.01  -0.01   0.02
  41   1     0.00   0.00   0.00     0.00   0.00   0.00    -0.01  -0.01  -0.01
  42   1     0.00  -0.00   0.00    -0.00   0.00  -0.00    -0.03   0.05  -0.05
  43   7    -0.00  -0.00  -0.00    -0.00  -0.00  -0.00    -0.10  -0.04  -0.15
  44   1     0.00  -0.00   0.00     0.00  -0.00   0.00     0.30  -0.49   0.45
  45   1     0.00   0.00   0.00     0.00   0.00   0.00     0.08   0.63   0.10
  46   6     0.00  -0.00  -0.00     0.00  -0.00  -0.00    -0.00   0.00  -0.00
  47   8    -0.00   0.00   0.00    -0.00   0.00   0.00     0.00  -0.00   0.00
  48   7     0.00   0.00  -0.00    -0.00  -0.00  -0.00    -0.00  -0.00   0.00
  49   1     0.00  -0.01  -0.00    -0.00   0.00   0.00    -0.00   0.00   0.00
  50   1    -0.01   0.00   0.01     0.00  -0.00   0.00     0.00  -0.00  -0.00
  51   7    -0.00   0.00   0.00     0.00  -0.00  -0.00     0.00  -0.00   0.00
  52   1     0.00  -0.00  -0.00    -0.01   0.00   0.01    -0.00   0.00   0.00
  53   1    -0.00  -0.00   0.00    -0.00   0.00   0.00     0.00   0.00  -0.00
                    148                    149                    150
                        a                      a                      a 
 Frequencies --  3529.1070              3532.5858              3535.2351
 Red. masses --     1.8700                 1.9041                 1.9447
 Frc consts  --     0.0000                 0.0000                 0.0000
 IR Inten    --    15.0331                15.7215                 3.1074
 Raman Activ --     0.0000                 0.0000                 0.0000
 Depolar     --     0.0000                 0.0000                 0.0000
 Atom AN      X      Y      Z        X      Y      Z        X      Y      Z
   1   8     0.00   0.00  -0.00     0.00   0.00  -0.00     0.00   0.00  -0.00
   2   6     0.00   0.00  -0.00     0.00   0.00   0.00    -0.00  -0.00  -0.00
   3   1     0.00  -0.00  -0.00     0.00  -0.00   0.00     0.00  -0.00  -0.00
   4   1    -0.00  -0.00   0.00    -0.00  -0.00   0.00    -0.00  -0.00   0.00
   5   6     0.00   0.00  -0.00     0.00  -0.00   0.00    -0.00  -0.00   0.00
   6   1    -0.00  -0.00  -0.00    -0.00   0.00  -0.00     0.00  -0.00  -0.00
   7   1    -0.00  -0.00   0.00     0.00   0.00   0.00     0.00   0.00   0.00
   8   7    -0.00  -0.00   0.00    -0.00  -0.00  -0.00     0.00   0.00   0.00
   9   6     0.00   0.00  -0.00    -0.00  -0.00   0.00    -0.00  -0.00  -0.00
  10   1    -0.00   0.00  -0.00     0.00  -0.00  -0.00     0.00  -0.00   0.00
  11   1    -0.00  -0.00   0.00     0.00   0.00  -0.00     0.00   0.00  -0.00
  12   1    -0.00  -0.00  -0.00     0.00  -0.00   0.00    -0.00   0.00   0.00
  13   6     0.00   0.00  -0.00     0.00   0.00  -0.00    -0.00   0.00  -0.00
  14   1    -0.00   0.00   0.00    -0.00  -0.00  -0.00     0.00   0.00   0.00
  15   1    -0.00  -0.00   0.00    -0.00  -0.00   0.00     0.00  -0.00  -0.00
  16   1     0.00  -0.00  -0.00    -0.00   0.00   0.00     0.00  -0.00  -0.00
  17   6    -0.00   0.00  -0.00    -0.00   0.00  -0.00    -0.00  -0.00  -0.00
  18   1     0.00  -0.00  -0.00     0.00  -0.00  -0.00     0.00   0.00   0.00
  19   1     0.00  -0.00  -0.00    -0.00   0.00   0.00    -0.00  -0.00   0.00
  20   1     0.00   0.00   0.00    -0.00  -0.00   0.00     0.00   0.00   0.00
  21   1    -0.00  -0.00   0.00    -0.00  -0.00   0.00    -0.00  -0.00   0.00
  22   6     0.00  -0.00   0.00     0.01  -0.00   0.00    -0.00  -0.00   0.00
  23   8    -0.00   0.00  -0.00    -0.00   0.00  -0.00     0.00   0.00  -0.00
  24   7     0.00   0.00   0.00    -0.02  -0.02   0.00     0.00  -0.00   0.00
  25   1     0.00  -0.00  -0.00     0.04   0.08  -0.02     0.00   0.00  -0.00
  26   1    -0.00  -0.00  -0.00     0.03   0.00   0.01    -0.00  -0.00  -0.00
  27   7     0.00   0.00   0.00     0.25   0.02   0.08     0.02   0.00   0.00
  28   1    -0.00  -0.00  -0.00    -0.90  -0.14  -0.29    -0.05  -0.01  -0.02
  29   1     0.00  -0.00   0.00    -0.03   0.08  -0.02    -0.00   0.00  -0.00
  30   6     0.00  -0.00   0.00     0.00  -0.00   0.00    -0.00  -0.00  -0.00
  31   8    -0.00   0.00  -0.00    -0.00   0.00  -0.00     0.00  -0.00   0.00
  32   7    -0.00   0.00  -0.00    -0.00   0.00  -0.00     0.00   0.00   0.00
  33   1    -0.00   0.00  -0.00     0.00   0.00   0.00    -0.00  -0.00  -0.00
  34   1     0.00  -0.00   0.00     0.00  -0.00   0.00     0.00  -0.00   0.00
  35   7     0.00  -0.00  -0.00    -0.00   0.00  -0.00     0.00  -0.00   0.00
  36   1    -0.00   0.00  -0.00     0.00  -0.00   0.00    -0.00  -0.00  -0.00
  37   1     0.00   0.00   0.00    -0.00  -0.00  -0.00     0.00   0.01   0.00
  38   6     0.01  -0.00   0.01     0.00   0.00   0.00     0.00  -0.00   0.00
  39   8    -0.00   0.00  -0.00    -0.00  -0.00  -0.00     0.00   0.00   0.00
  40   7     0.11  -0.16   0.16    -0.00   0.00  -0.00     0.00  -0.00   0.00
  41   1    -0.01  -0.03  -0.03     0.00   0.00   0.00    -0.00  -0.00  -0.00
  42   1    -0.42   0.63  -0.59     0.00  -0.00   0.00    -0.00   0.01  -0.01
  43   7     0.01   0.02   0.01     0.00  -0.00   0.00     0.00   0.00   0.00
  44   1    -0.01   0.02  -0.01    -0.00   0.00  -0.00    -0.00   0.00  -0.00
  45   1    -0.01  -0.09  -0.02    -0.00  -0.00  -0.00    -0.00  -0.00  -0.00
  46   6    -0.00  -0.00   0.00     0.00  -0.00  -0.00     0.00   0.01  -0.00
  47   8     0.00   0.00  -0.00    -0.00   0.00   0.00    -0.00  -0.00   0.00
  48   7     0.00  -0.00  -0.00     0.01  -0.00  -0.01    -0.11   0.02   0.11
  49   1     0.00   0.00  -0.00    -0.00   0.01   0.00     0.03  -0.07  -0.01
  50   1    -0.00   0.00   0.00    -0.03   0.00   0.03     0.39  -0.03  -0.40
  51   7    -0.00   0.00   0.00    -0.01   0.00   0.01     0.17   0.01  -0.14
  52   1     0.01  -0.00  -0.01     0.03  -0.00  -0.02    -0.61   0.05   0.47
  53   1    -0.00  -0.00   0.00     0.00   0.00  -0.00    -0.02  -0.10   0.05
                    151                    152                    153
                        a                      a                      a 
 Frequencies --  3541.3383              3559.9560              3573.0124
 Red. masses --     1.9300                 2.1790                 2.1831
 Frc consts  --     0.0000                 0.0000                 0.0000
 IR Inten    --    40.0072                15.7950                12.4214
 Raman Activ --     0.0000                 0.0000                 0.0000
 Depolar     --     0.0000                 0.0000                 0.0000
 Atom AN      X      Y      Z        X      Y      Z        X      Y      Z
   1   8     0.00   0.00   0.00     0.00  -0.00   0.00    -0.00  -0.00   0.00
   2   6    -0.00   0.00   0.00    -0.00   0.00  -0.00     0.00   0.00   0.00
   3   1     0.00  -0.00  -0.00     0.00   0.00   0.00     0.00  -0.00  -0.00
   4   1    -0.00  -0.00  -0.00    -0.00  -0.00   0.00    -0.00  -0.00   0.00
   5   6     0.00   0.00  -0.00     0.00   0.00   0.00     0.00   0.00   0.00
   6   1     0.00   0.00   0.00    -0.00   0.00  -0.00    -0.00  -0.00   0.00
   7   1    -0.00  -0.00   0.00     0.00  -0.00   0.00    -0.00   0.00  -0.00
   8   7    -0.00  -0.00  -0.00    -0.00   0.00  -0.00    -0.00   0.00  -0.00
   9   6     0.00   0.00   0.00     0.00   0.00   0.00    -0.00   0.00  -0.00
  10   1    -0.00   0.00  -0.00    -0.00   0.00  -0.00    -0.00  -0.00  -0.00
  11   1    -0.00  -0.00   0.00     0.00  -0.00   0.00    -0.00   0.00   0.00
  12   1    -0.00  -0.00  -0.00     0.00  -0.00  -0.00     0.00  -0.00  -0.00
  13   6     0.00  -0.00  -0.00     0.00  -0.00  -0.00    -0.00   0.00   0.00
  14   1    -0.00  -0.00  -0.00    -0.00  -0.00  -0.00     0.00  -0.00  -0.00
  15   1    -0.00  -0.00   0.00     0.00   0.00   0.00     0.00   0.00   0.00
  16   1    -0.00   0.00   0.00    -0.00   0.00   0.00    -0.00   0.00   0.00
  17   6     0.00   0.00   0.00     0.00   0.00   0.00    -0.00   0.00  -0.00
  18   1    -0.00  -0.00   0.00     0.00  -0.00   0.00     0.00  -0.00   0.00
  19   1    -0.00  -0.00  -0.00     0.00  -0.00   0.00     0.00   0.00   0.00
  20   1    -0.00  -0.00  -0.00    -0.00  -0.00  -0.00    -0.00   0.00  -0.00
  21   1    -0.00  -0.00   0.00     0.00   0.00  -0.00     0.00   0.00  -0.00
  22   6     0.00   0.00   0.00     0.01   0.01   0.00     0.00   0.00   0.00
  23   8    -0.00   0.00   0.00    -0.00  -0.00  -0.00    -0.00  -0.00  -0.00
  24   7    -0.00  -0.00  -0.00     0.24   0.17   0.01    -0.00  -0.00  -0.00
  25   1     0.00   0.00  -0.00    -0.31  -0.59   0.17     0.00   0.00  -0.00
  26   1     0.01   0.00   0.00    -0.62  -0.07  -0.22     0.00   0.00   0.00
  27   7    -0.00  -0.00  -0.00     0.02   0.00   0.01    -0.00  -0.00  -0.00
  28   1     0.01   0.00   0.00    -0.08  -0.01  -0.03     0.00   0.00   0.00
  29   1    -0.00   0.00  -0.00    -0.00   0.01  -0.00    -0.00   0.00  -0.00
  30   6    -0.00  -0.00  -0.00     0.00  -0.00   0.00     0.00  -0.00   0.00
  31   8     0.00  -0.00   0.00    -0.00   0.00  -0.00    -0.00   0.00  -0.00
  32   7    -0.00   0.00  -0.00    -0.00   0.00  -0.00     0.00   0.00   0.00
  33   1    -0.00  -0.00  -0.00     0.00   0.00   0.00    -0.00  -0.00  -0.01
  34   1     0.00  -0.00   0.00     0.00  -0.00   0.00    -0.00   0.00  -0.00
  35   7    -0.00  -0.00   0.00    -0.00  -0.00  -0.00     0.00  -0.00  -0.00
  36   1    -0.00  -0.00  -0.00     0.00  -0.00   0.00    -0.00   0.00  -0.00
  37   1     0.00   0.01   0.00    -0.00   0.00   0.00     0.00   0.00   0.00
  38   6    -0.00  -0.00  -0.00    -0.00   0.00  -0.00     0.00  -0.01   0.00
  39   8     0.00   0.00   0.00     0.00  -0.00   0.00    -0.00   0.00  -0.00
  40   7     0.00  -0.00   0.00    -0.00   0.00  -0.00     0.01  -0.01   0.01
  41   1    -0.00  -0.00  -0.00     0.00   0.00   0.00    -0.00  -0.00  -0.00
  42   1    -0.00   0.00  -0.00     0.00  -0.00   0.00    -0.02   0.04  -0.03
  43   7    -0.00   0.00  -0.00     0.00  -0.00   0.00     0.04  -0.29   0.07
  44   1     0.00  -0.00   0.00    -0.00   0.00  -0.00    -0.27   0.40  -0.40
  45   1    -0.00  -0.00  -0.00     0.00   0.00   0.00     0.10   0.69   0.13
  46   6     0.01  -0.00  -0.01     0.00   0.00  -0.00    -0.00   0.00  -0.00
  47   8    -0.00   0.00   0.00    -0.00   0.00   0.00     0.00  -0.00   0.00
  48   7     0.15  -0.03  -0.15     0.00  -0.00  -0.00     0.00  -0.00  -0.00
  49   1    -0.03   0.09   0.01    -0.00   0.01   0.00    -0.00   0.00   0.00
  50   1    -0.54   0.04   0.56    -0.01   0.00   0.01    -0.00   0.00   0.00
  51   7     0.12   0.01  -0.10     0.00   0.00  -0.00     0.00   0.00  -0.00
  52   1    -0.44   0.04   0.34    -0.00   0.00   0.00    -0.00   0.00   0.00
  53   1    -0.02  -0.07   0.04    -0.00  -0.00   0.00    -0.00  -0.00   0.00
