 Entering Gaussian System
 *********************************************
 Gaussian 98:
 frequency output generated by the xtb code
 *********************************************
                         Standard orientation:
 --------------------------------------------------------------------
  Center     Atomic     Atomic              Coordinates (Angstroms)
  Number     Number      Type              X           Y           Z
 --------------------------------------------------------------------
    1          8             0       -3.447247   -0.065254    1.742375
    2          6             0       -2.351881    0.802160    1.794806
    3          1             0       -2.736204    1.797227    1.557734
    4          1             0       -1.933745    0.839751    2.810873
    5          6             0       -1.209914    0.385629    0.859645
    6          1             0       -1.053860   -0.683929    1.005911
    7          1             0       -0.292631    0.906664    1.136439
    8          7             0       -1.426199    0.619939   -0.590818
    9          6             0       -2.738436    0.135966   -1.042389
   10          1             0       -2.838558   -0.924250   -0.818614
   11          1             0       -2.819507    0.289453   -2.116907
   12          1             0       -3.542078    0.666398   -0.537794
   13          6             0       -0.379444   -0.112546   -1.325621
   14          1             0       -0.487315   -1.182631   -1.166772
   15          1             0        0.595226    0.214291   -0.968042
   16          1             0       -0.459499    0.124905   -2.386634
   17          6             0       -1.296013    2.052957   -0.899107
   18          1             0       -0.319984    2.400692   -0.566273
   19          1             0       -2.079298    2.623103   -0.407371
   20          1             0       -1.362460    2.188768   -1.978829
   21          1             0       -3.145097   -0.964842    1.952491
   22          6             0        3.028319    1.425057   -0.113850
   23          8             0        1.890454    1.735010   -0.454421
   24          7             0        4.113328    2.106763   -0.569637
   25          1             0        3.952832    2.980441   -1.039498
   26          1             0        5.024554    1.961125   -0.173245
   27          7             0        3.284027    0.394237    0.718039
   28          1             0        4.227332    0.069246    0.834869
   29          1             0        2.530696   -0.237510    0.989147
   30          6             0        0.473768    2.198867   -4.188760
   31          8             0       -0.538795    1.625903   -3.809728
   32          7             0        1.537229    2.416944   -3.378716
   33          1             0        1.497106    2.174249   -2.397633
   34          1             0        2.322180    2.952274   -3.700774
   35          7             0        0.596079    2.663644   -5.456820
   36          1             0        1.452612    3.045933   -5.812537
   37          1             0       -0.137700    2.451752   -6.108838
   38          6             0       -1.542648   -3.369071    1.093654
   39          8             0       -1.966434   -2.517176    1.879979
   40          7             0       -0.309557   -3.274550    0.550927
   41          1             0        0.345389   -2.606061    0.965764
   42          1             0        0.082423   -4.050066    0.046507
   43          7             0       -2.327645   -4.381665    0.669785
   44          1             0       -1.984585   -5.120567    0.083661
   45          1             0       -3.243825   -4.476180    1.071855
   46          6             0        1.124122   -1.179774    3.049816
   47          8             0        1.307325   -1.332234    1.836141
   48          7             0        2.079592   -0.634405    3.837748
   49          1             0        2.971464   -0.406487    3.437443
   50          1             0        1.968615   -0.557037    4.831902
   51          7             0       -0.031219   -1.511510    3.642225
   52          1             0       -0.161684   -1.415893    4.632378
   53          1             0       -0.789736   -1.903552    3.083438
 --------------------------------------------------------------------
     1 basis functions        1 primitive gaussians
     1 alpha electrons        1 beta electrons

 Harmonic frequencies (cm**-1), IR intensities (km*mol⁻¹),
 Raman scattering activities (A**4/amu), Raman depolarization ratios,
 reduced masses (AMU), force constants (mDyne/A) and normal coordinates:
                      1                      2                      3
                        a                      a                      a 
 Frequencies --    15.0476                18.6188                21.5895
 Red. masses --    12.2236                12.1956                12.0570
 Frc consts  --     0.0000                 0.0000                 0.0000
 IR Inten    --     0.3888                 0.1742                 0.0512
 Raman Activ --     0.0000                 0.0000                 0.0000
 Depolar     --     0.0000                 0.0000                 0.0000
 Atom AN      X      Y      Z        X      Y      Z        X      Y      Z
   1   8     0.19   0.21   0.20     0.20   0.11   0.10    -0.09  -0.06   0.00
   2   6     0.22   0.12   0.06     0.26  -0.01   0.00    -0.12  -0.01   0.08
   3   1     0.07   0.04   0.02     0.09   0.01   0.02    -0.04  -0.01   0.02
   4   1     0.09   0.03   0.01     0.11  -0.02  -0.01    -0.05  -0.01   0.03
   5   6     0.12   0.05  -0.02     0.13  -0.08  -0.13    -0.06   0.05   0.12
   6   1     0.03   0.02   0.00     0.02  -0.03  -0.05    -0.01   0.01   0.03
   7   1     0.05   0.01  -0.04     0.06  -0.05  -0.06    -0.02   0.02   0.05
   8   7    -0.00  -0.01  -0.01     0.00  -0.02  -0.10     0.01   0.10   0.13
   9   6    -0.03  -0.06   0.11    -0.06   0.04   0.01     0.00   0.18   0.05
  10   1     0.00  -0.02   0.05    -0.02   0.01  -0.01    -0.02   0.05   0.01
  11   1    -0.04  -0.03   0.03    -0.05   0.02   0.01     0.02   0.06   0.01
  12   1     0.00  -0.02   0.05     0.00   0.01   0.03     0.00   0.06   0.00
  13   6    -0.04  -0.03  -0.06    -0.09  -0.03  -0.21    -0.00   0.06   0.14
  14   1    -0.01  -0.01  -0.01    -0.03  -0.01  -0.07    -0.02   0.02   0.04
  15   1    -0.01  -0.00  -0.04    -0.01  -0.02  -0.08     0.00   0.00   0.05
  16   1    -0.03  -0.02  -0.02    -0.05   0.00  -0.06     0.01   0.02   0.04
  17   6    -0.06  -0.02  -0.09     0.02  -0.02  -0.06     0.10   0.10   0.15
  18   1    -0.02   0.01  -0.04     0.01  -0.01  -0.03     0.04   0.01   0.04
  19   1    -0.02  -0.01  -0.03     0.02  -0.00  -0.00     0.05   0.04   0.06
  20   1    -0.03  -0.02  -0.03    -0.01   0.01  -0.02     0.02   0.04   0.05
  21   1     0.04   0.05   0.03     0.03   0.02   0.01    -0.02  -0.01  -0.01
  22   6    -0.12   0.12   0.10    -0.03  -0.13  -0.04     0.11  -0.03  -0.03
  23   8    -0.15   0.02   0.03    -0.03  -0.20  -0.11     0.15  -0.02  -0.09
  24   7    -0.17   0.25   0.18    -0.03  -0.19  -0.10     0.15  -0.13  -0.08
  25   1    -0.06   0.06   0.05    -0.00  -0.07  -0.06     0.05  -0.04  -0.05
  26   1    -0.05   0.09   0.07    -0.01  -0.04  -0.02     0.04  -0.03  -0.01
  27   7    -0.08   0.15   0.11    -0.05  -0.04   0.08     0.06   0.04   0.08
  28   1    -0.01   0.07   0.05    -0.01  -0.00   0.05     0.01   0.00   0.03
  29   1    -0.01   0.02   0.02    -0.01  -0.00   0.04     0.01   0.02   0.03
  30   6    -0.01  -0.13  -0.08    -0.05   0.15  -0.06    -0.11  -0.14  -0.00
  31   8    -0.05  -0.08  -0.10    -0.07   0.17  -0.11    -0.15  -0.03   0.12
  32   7    -0.04  -0.12  -0.06    -0.02   0.02  -0.08    -0.02  -0.23  -0.10
  33   1    -0.02  -0.02  -0.01    -0.00  -0.02  -0.03     0.01  -0.04  -0.02
  34   1     0.00  -0.05  -0.02    -0.00   0.01  -0.01    -0.00  -0.08  -0.05
  35   7     0.06  -0.22  -0.11    -0.07   0.30  -0.02    -0.18  -0.22  -0.03
  36   1     0.02  -0.07  -0.03    -0.01   0.07  -0.00    -0.04  -0.09  -0.03
  37   1     0.02  -0.06  -0.03    -0.02   0.10  -0.01    -0.07  -0.05   0.01
  38   6    -0.01   0.09  -0.12     0.08  -0.05   0.02     0.11   0.03  -0.19
  39   8     0.01   0.07  -0.09     0.01  -0.04  -0.05     0.05  -0.04  -0.18
  40   7     0.01   0.07  -0.10     0.13  -0.04   0.10     0.15   0.11  -0.12
  41   1     0.01   0.01  -0.01     0.02  -0.00   0.03     0.03   0.03  -0.01
  42   1    -0.00   0.02  -0.04     0.05  -0.01   0.04     0.05   0.04  -0.04
  43   7    -0.05   0.16  -0.22     0.16  -0.10   0.01     0.17   0.05  -0.34
  44   1    -0.02   0.04  -0.06     0.06  -0.03   0.02     0.06   0.03  -0.10
  45   1    -0.01   0.04  -0.06     0.04  -0.03  -0.01     0.04  -0.00  -0.11
  46   6     0.04  -0.15   0.06    -0.11   0.03   0.17    -0.07   0.04   0.07
  47   8     0.06  -0.07   0.06    -0.01   0.00   0.22    -0.01   0.11   0.08
  48   7     0.06  -0.27   0.12    -0.20   0.07   0.26    -0.16   0.09   0.14
  49   1     0.03  -0.09   0.04    -0.04   0.00   0.09    -0.04   0.04   0.05
  50   1     0.02  -0.10   0.04    -0.07   0.02   0.07    -0.06   0.01   0.04
  51   7     0.02  -0.14   0.02    -0.17   0.06   0.09    -0.09  -0.06   0.00
  52   1     0.00  -0.05   0.01    -0.07   0.02   0.02    -0.04  -0.03  -0.00
  53   1     0.00  -0.02  -0.01    -0.03   0.01   0.01    -0.01  -0.02  -0.01
                      4                      5                      6
                        a                      a                      a 
 Frequencies --    31.8996                33.6105                37.7511
 Red. masses --    11.9227                12.0720                12.6200
 Frc consts  --     0.0000                 0.0000                 0.0000
 IR Inten    --     0.6566                 1.9324                 1.0894
 Raman Activ --     0.0000                 0.0000                 0.0000
 Depolar     --     0.0000                 0.0000                 0.0000
 Atom AN      X      Y      Z        X      Y      Z        X      Y      Z
   1   8     0.04   0.00   0.13    -0.09  -0.04  -0.18    -0.10  -0.03  -0.07
   2   6     0.07  -0.04   0.09    -0.07  -0.04  -0.08    -0.12   0.00  -0.04
   3   1     0.03  -0.00   0.05    -0.02  -0.01  -0.02    -0.04  -0.00  -0.01
   4   1     0.04  -0.03   0.02    -0.03  -0.02  -0.02    -0.04   0.00  -0.01
   5   6    -0.02  -0.04  -0.02    -0.04  -0.01  -0.05    -0.09   0.04  -0.02
   6   1    -0.02  -0.02  -0.03    -0.02  -0.01  -0.03    -0.02   0.01  -0.01
   7   1     0.01  -0.03  -0.01    -0.01  -0.02   0.01    -0.03   0.01   0.00
   8   7    -0.10   0.10   0.01     0.03   0.09  -0.05    -0.07   0.05  -0.02
   9   6    -0.15   0.21   0.06     0.02   0.20  -0.13    -0.06   0.05  -0.04
  10   1    -0.06   0.06  -0.00    -0.02   0.06  -0.06    -0.02   0.02  -0.01
  11   1    -0.06   0.09   0.02     0.02   0.08  -0.03    -0.01   0.02  -0.01
  12   1    -0.02   0.07   0.04     0.01   0.07  -0.04    -0.02   0.02  -0.02
  13   6    -0.18   0.07  -0.10     0.01   0.07  -0.05    -0.06   0.05  -0.01
  14   1    -0.07   0.02  -0.05    -0.01   0.02  -0.03    -0.02   0.01  -0.01
  15   1    -0.04  -0.01  -0.03     0.01   0.00  -0.01    -0.02   0.01   0.00
  16   1    -0.06   0.05  -0.02     0.01   0.03  -0.01    -0.01   0.02  -0.00
  17   6    -0.01   0.10   0.11     0.13   0.10   0.05    -0.06   0.05  -0.01
  18   1     0.01   0.01   0.03     0.05   0.00   0.01    -0.02   0.01   0.01
  19   1     0.01   0.03   0.05     0.05   0.04   0.03    -0.02   0.01  -0.01
  20   1    -0.01   0.05   0.03     0.03   0.05   0.02    -0.01   0.02  -0.00
  21   1     0.00  -0.01   0.01    -0.03  -0.01  -0.04    -0.02  -0.00  -0.01
  22   6    -0.07  -0.02   0.02     0.04   0.09   0.06    -0.03  -0.03  -0.11
  23   8    -0.11  -0.09   0.09     0.08   0.02  -0.11    -0.05   0.02  -0.03
  24   7    -0.14   0.09   0.03     0.07   0.16   0.21    -0.03  -0.15  -0.29
  25   1    -0.06   0.03   0.03     0.02   0.03   0.04    -0.01  -0.04  -0.08
  26   1    -0.03   0.04   0.00     0.01   0.06   0.09    -0.00  -0.04  -0.09
  27   7     0.03  -0.05  -0.06    -0.01   0.13   0.13    -0.02   0.01  -0.07
  28   1     0.01  -0.00  -0.03    -0.00   0.05   0.07    -0.01  -0.00  -0.03
  29   1     0.02  -0.03  -0.02    -0.00   0.03   0.01    -0.01   0.02   0.02
  30   6     0.10  -0.02   0.03    -0.07   0.00  -0.09     0.05   0.05   0.02
  31   8    -0.07   0.31   0.06    -0.13   0.15  -0.02     0.05   0.04  -0.00
  32   7     0.09  -0.12   0.09     0.07  -0.25  -0.22    -0.13   0.40   0.15
  33   1    -0.00  -0.01   0.03     0.02  -0.04  -0.05    -0.02   0.08   0.03
  34   1     0.08  -0.13   0.01     0.01  -0.06  -0.06     0.01   0.03   0.01
  35   7     0.34  -0.31  -0.04    -0.16   0.09  -0.08     0.22  -0.30  -0.08
  36   1     0.10  -0.10  -0.00    -0.02  -0.04  -0.05     0.03   0.02   0.01
  37   1     0.07  -0.03  -0.01    -0.06   0.04  -0.01     0.06  -0.07  -0.03
  38   6     0.05  -0.11  -0.00    -0.01  -0.06   0.12     0.08   0.04   0.02
  39   8     0.03  -0.07  -0.07    -0.05   0.01   0.04     0.03   0.03   0.00
  40   7     0.04  -0.10  -0.03    -0.03  -0.05   0.08     0.08   0.11   0.02
  41   1     0.01  -0.01  -0.02    -0.01   0.00   0.00     0.01   0.04   0.01
  42   1     0.02  -0.03   0.01     0.00  -0.02   0.04     0.03   0.03   0.01
  43   7     0.11  -0.21   0.12     0.06  -0.18   0.30     0.16  -0.03   0.05
  44   1     0.03  -0.06   0.04     0.02  -0.05   0.09     0.05  -0.00   0.01
  45   1     0.03  -0.06   0.03     0.01  -0.04   0.08     0.04  -0.02   0.01
  46   6    -0.01   0.06  -0.12     0.03  -0.10   0.01     0.04  -0.08   0.12
  47   8     0.02  -0.03  -0.12    -0.01   0.00  -0.01     0.02   0.08   0.12
  48   7    -0.05   0.18  -0.16     0.14  -0.39   0.07     0.14  -0.42   0.23
  49   1    -0.01   0.05  -0.04     0.04  -0.11   0.02     0.04  -0.11   0.07
  50   1    -0.02   0.06  -0.04     0.04  -0.11   0.02     0.03  -0.12   0.06
  51   7    -0.01   0.07  -0.12    -0.02   0.03  -0.01    -0.03   0.05   0.07
  52   1    -0.01   0.04  -0.04     0.01  -0.04   0.00     0.00  -0.05   0.03
  53   1     0.00   0.00  -0.03    -0.01   0.03  -0.01    -0.01   0.03   0.01
                      7                      8                      9
                        a                      a                      a 
 Frequencies --    41.6437                47.7921                53.9047
 Red. masses --    12.7368                13.0422                12.8899
 Frc consts  --     0.0000                 0.0000                 0.0000
 IR Inten    --     0.5905                 3.6672                 3.4650
 Raman Activ --     0.0000                 0.0000                 0.0000
 Depolar     --     0.0000                 0.0000                 0.0000
 Atom AN      X      Y      Z        X      Y      Z        X      Y      Z
   1   8     0.09   0.10  -0.03     0.06  -0.33  -0.12    -0.05  -0.02  -0.06
   2   6     0.13   0.02   0.00     0.01  -0.23  -0.06    -0.04  -0.02  -0.04
   3   1     0.05   0.01   0.01    -0.01  -0.07  -0.00    -0.01  -0.01  -0.01
   4   1     0.04  -0.01   0.00     0.00  -0.08  -0.02    -0.01  -0.01  -0.01
   5   6     0.10  -0.03  -0.00     0.02  -0.13  -0.09    -0.03  -0.03  -0.03
   6   1     0.01  -0.01  -0.01     0.02  -0.04  -0.05    -0.01  -0.01  -0.01
   7   1     0.04  -0.02   0.00     0.00  -0.03  -0.02    -0.01  -0.01  -0.01
   8   7     0.13   0.02   0.00     0.01  -0.01  -0.08    -0.02  -0.03  -0.03
   9   6     0.12   0.05  -0.02    -0.01   0.05  -0.10    -0.03   0.02  -0.04
  10   1     0.03   0.01  -0.02    -0.01   0.01  -0.06    -0.02   0.01  -0.01
  11   1     0.04   0.03  -0.00    -0.01   0.04  -0.02    -0.00   0.01  -0.01
  12   1     0.04   0.01  -0.00     0.00   0.01  -0.01    -0.01   0.02  -0.02
  13   6     0.11   0.02  -0.01    -0.02   0.03  -0.15    -0.04  -0.06  -0.03
  14   1     0.04   0.01  -0.00    -0.01   0.01  -0.07    -0.03  -0.02  -0.01
  15   1     0.03   0.01  -0.01    -0.00  -0.00  -0.04    -0.01  -0.03  -0.00
  16   1     0.03   0.00  -0.00    -0.01   0.03  -0.04    -0.01  -0.02  -0.01
  17   6     0.14   0.02   0.04     0.03   0.01   0.04     0.03  -0.03  -0.02
  18   1     0.04   0.00   0.02     0.01  -0.01   0.01     0.01  -0.02  -0.01
  19   1     0.04   0.01   0.01     0.02  -0.00   0.03     0.01  -0.00  -0.00
  20   1     0.05   0.01   0.01     0.00   0.03   0.02     0.00  -0.01  -0.01
  21   1     0.01   0.02  -0.02     0.02  -0.07  -0.00    -0.01  -0.01  -0.01
  22   6     0.09   0.01   0.07     0.01  -0.03   0.03     0.04  -0.11   0.09
  23   8     0.14   0.02  -0.03     0.01  -0.10  -0.05     0.01  -0.25   0.13
  24   7     0.14   0.04   0.22     0.00  -0.00   0.07    -0.04   0.07   0.19
  25   1     0.05   0.01   0.06    -0.00  -0.01   0.01    -0.04   0.03   0.07
  26   1     0.03   0.01   0.08    -0.00   0.02   0.04    -0.01   0.04   0.05
  27   7     0.02  -0.02   0.07     0.00   0.01   0.08     0.16  -0.18  -0.01
  28   1     0.00  -0.01   0.04     0.00   0.01   0.04     0.05  -0.02  -0.00
  29   1     0.00  -0.01  -0.01     0.00  -0.00   0.02     0.06  -0.07  -0.01
  30   6    -0.15   0.03  -0.05    -0.03   0.06  -0.05    -0.10  -0.03   0.05
  31   8    -0.11  -0.05  -0.01    -0.12   0.25  -0.02    -0.12  -0.08  -0.02
  32   7    -0.32   0.50   0.02    -0.04   0.05  -0.04    -0.16  -0.01   0.11
  33   1    -0.04   0.09  -0.00    -0.01   0.01  -0.01    -0.04  -0.04   0.02
  34   1    -0.05   0.05  -0.03     0.03  -0.06  -0.03    -0.03  -0.02   0.04
  35   7    -0.09  -0.34  -0.17     0.08  -0.15  -0.12    -0.07   0.02   0.08
  36   1    -0.08   0.04  -0.02     0.02  -0.02  -0.03    -0.03   0.04   0.04
  37   1    -0.04  -0.08  -0.03     0.00   0.00  -0.02    -0.02   0.02   0.01
  38   6    -0.05  -0.08   0.01    -0.08   0.09   0.07     0.05   0.05  -0.05
  39   8    -0.07  -0.01  -0.08     0.03  -0.10   0.37     0.06   0.05  -0.03
  40   7    -0.03  -0.17   0.06    -0.12   0.17   0.00     0.08   0.01   0.02
  41   1    -0.01  -0.04   0.00    -0.02   0.01   0.03     0.03  -0.01   0.01
  42   1    -0.01  -0.06   0.03    -0.05   0.07  -0.06     0.02   0.01  -0.00
  43   7    -0.06  -0.11   0.08    -0.19   0.28  -0.18    -0.00   0.15  -0.17
  44   1    -0.02  -0.04   0.03    -0.07   0.10  -0.09     0.00   0.03  -0.04
  45   1    -0.02  -0.01   0.01    -0.04   0.05  -0.02    -0.00   0.04  -0.05
  46   6    -0.07  -0.01  -0.05     0.08   0.01   0.10     0.07   0.10  -0.03
  47   8    -0.04  -0.08  -0.04     0.04  -0.02   0.11     0.18  -0.12   0.01
  48   7    -0.14   0.11  -0.06     0.06   0.17   0.03     0.17  -0.12   0.01
  49   1    -0.03   0.02  -0.01     0.01   0.05  -0.00     0.06  -0.08   0.01
  50   1    -0.04   0.02  -0.02     0.04   0.03   0.01     0.00   0.06  -0.01
  51   7    -0.07  -0.05  -0.06     0.16  -0.10   0.18    -0.12   0.62  -0.13
  52   1    -0.03   0.02  -0.02     0.05  -0.00   0.05    -0.03   0.14  -0.03
  53   1    -0.02  -0.01  -0.02     0.04  -0.03   0.06    -0.01   0.11  -0.03
                     10                     11                     12
                        a                      a                      a 
 Frequencies --    62.7300                64.3818                69.1772
 Red. masses --    12.3273                12.6174                13.0364
 Frc consts  --     0.0000                 0.0000                 0.0000
 IR Inten    --     6.9223                 0.5505                 1.3457
 Raman Activ --     0.0000                 0.0000                 0.0000
 Depolar     --     0.0000                 0.0000                 0.0000
 Atom AN      X      Y      Z        X      Y      Z        X      Y      Z
   1   8    -0.12   0.11   0.00    -0.11   0.05  -0.13     0.02   0.07  -0.17
   2   6    -0.10   0.10  -0.05    -0.09   0.03  -0.05    -0.00   0.08  -0.11
   3   1    -0.03   0.03  -0.03    -0.02   0.01  -0.02    -0.00   0.02  -0.04
   4   1    -0.03   0.05  -0.02    -0.04   0.00  -0.01    -0.01   0.03  -0.03
   5   6    -0.11   0.02  -0.04    -0.06   0.03  -0.01     0.04   0.10  -0.07
   6   1    -0.05   0.00  -0.00    -0.02   0.01  -0.00     0.02   0.03  -0.01
   7   1    -0.02  -0.01  -0.01    -0.02   0.01   0.01     0.01   0.04  -0.02
   8   7    -0.10   0.01  -0.05    -0.01   0.05  -0.02     0.07   0.08  -0.08
   9   6    -0.16   0.17  -0.02    -0.02   0.13  -0.06     0.10  -0.01  -0.12
  10   1    -0.09   0.06   0.01    -0.03   0.04  -0.02     0.05  -0.00  -0.04
  11   1    -0.04   0.04  -0.01     0.01   0.04  -0.02     0.04  -0.00  -0.04
  12   1    -0.03   0.09  -0.02    -0.00   0.05  -0.03     0.02  -0.02  -0.04
  13   6    -0.19  -0.15  -0.03    -0.03   0.00   0.00     0.12   0.11  -0.04
  14   1    -0.10  -0.04  -0.01    -0.03   0.00  -0.00     0.05   0.03  -0.00
  15   1    -0.04  -0.09  -0.00    -0.01  -0.02   0.01     0.03   0.05  -0.00
  16   1    -0.04  -0.04  -0.01     0.00   0.00   0.00     0.03   0.02  -0.01
  17   6     0.10  -0.02  -0.08     0.07   0.05   0.00    -0.02   0.08  -0.08
  18   1     0.05  -0.04  -0.04     0.03  -0.00   0.00    -0.02   0.04  -0.01
  19   1     0.06   0.03  -0.02     0.03   0.02   0.00    -0.02   0.01  -0.03
  20   1     0.02  -0.01  -0.02     0.02   0.02   0.00     0.00   0.02  -0.02
  21   1    -0.03   0.03   0.01    -0.03   0.01  -0.04     0.01   0.02  -0.04
  22   6     0.03  -0.10   0.05    -0.05   0.02  -0.03    -0.05  -0.09   0.12
  23   8     0.02  -0.38  -0.13    -0.09  -0.00   0.03    -0.09   0.10   0.42
  24   7    -0.03   0.04   0.12    -0.10   0.06  -0.09    -0.07  -0.10   0.07
  25   1    -0.03  -0.01  -0.00    -0.04   0.02  -0.01    -0.02   0.01   0.09
  26   1    -0.01   0.07   0.07    -0.02   0.02  -0.04    -0.00  -0.07  -0.03
  27   7     0.11   0.05   0.23     0.01  -0.00  -0.09     0.00  -0.32  -0.17
  28   1     0.04   0.05   0.09     0.01   0.01  -0.03    -0.00  -0.11  -0.10
  29   1     0.04  -0.01   0.04     0.01  -0.00  -0.01    -0.01  -0.06  -0.02
  30   6     0.01  -0.03   0.02    -0.01   0.00   0.01    -0.14  -0.04  -0.00
  31   8     0.09  -0.24  -0.08    -0.02   0.01  -0.01    -0.23   0.03  -0.10
  32   7    -0.10   0.13   0.11    -0.02  -0.02   0.03    -0.17  -0.18   0.07
  33   1     0.00  -0.04   0.01    -0.01  -0.01   0.01    -0.08  -0.02   0.02
  34   1    -0.01   0.02   0.03    -0.00  -0.01   0.01    -0.04  -0.03   0.04
  35   7    -0.01   0.09   0.07     0.01   0.03   0.02    -0.02  -0.00   0.03
  36   1    -0.02   0.10   0.04     0.01   0.00   0.01     0.01  -0.03   0.02
  37   1     0.01   0.03   0.01     0.00   0.01   0.00     0.01   0.01  -0.01
  38   6     0.05   0.07  -0.01     0.04  -0.02   0.04     0.07   0.07  -0.01
  39   8     0.05   0.08  -0.01     0.06   0.17  -0.15     0.08   0.10  -0.04
  40   7    -0.01   0.17  -0.14     0.23  -0.45   0.45     0.02   0.17  -0.15
  41   1    -0.00   0.05  -0.04     0.06  -0.10   0.09     0.01   0.04  -0.03
  42   1     0.00   0.04  -0.03     0.04  -0.14   0.14     0.01   0.04  -0.02
  43   7     0.12  -0.03   0.13    -0.15   0.20  -0.16     0.16  -0.05   0.17
  44   1     0.03   0.00   0.02    -0.04  -0.01   0.04     0.04  -0.00   0.03
  45   1     0.04  -0.02   0.05    -0.06   0.11  -0.08     0.04  -0.02   0.05
  46   6     0.08  -0.03  -0.03     0.09  -0.08   0.05     0.02  -0.04   0.07
  47   8     0.06   0.04  -0.05     0.16  -0.12   0.07     0.00  -0.04   0.07
  48   7     0.03   0.14  -0.06    -0.01   0.11   0.06    -0.03   0.09   0.04
  49   1    -0.00   0.06  -0.02     0.01  -0.01   0.03    -0.01   0.03   0.00
  50   1     0.03  -0.01  -0.01     0.01  -0.02   0.02     0.01  -0.00   0.01
  51   7     0.20  -0.30   0.03     0.13  -0.24   0.03     0.09  -0.22   0.11
  52   1     0.05  -0.05   0.00     0.00  -0.01  -0.00     0.01  -0.02   0.02
  53   1     0.04  -0.05   0.00     0.03  -0.03  -0.01     0.01  -0.03   0.02
                     13                     14                     15
                        a                      a                      a 
 Frequencies --    75.4589                80.7410                86.3346
 Red. masses --    11.3682                12.6062                12.4025
 Frc consts  --     0.0000                 0.0000                 0.0000
 IR Inten    --     2.5783                 2.5888                 6.3314
 Raman Activ --     0.0000                 0.0000                 0.0000
 Depolar     --     0.0000                 0.0000                 0.0000
 Atom AN      X      Y      Z        X      Y      Z        X      Y      Z
   1   8     0.08  -0.05  -0.07    -0.04  -0.08   0.09    -0.14   0.25  -0.06
   2   6     0.10  -0.09   0.01    -0.09   0.00   0.05     0.04   0.01  -0.03
   3   1     0.04  -0.02   0.01    -0.04  -0.01   0.01     0.07   0.02  -0.00
   4   1     0.02  -0.05   0.01    -0.02   0.02   0.01     0.01  -0.02  -0.01
   5   6     0.09  -0.10   0.01    -0.06   0.06   0.05    -0.03  -0.19  -0.02
   6   1     0.00  -0.03  -0.02    -0.00   0.02   0.02    -0.06  -0.06  -0.01
   7   1     0.04  -0.05   0.02    -0.03   0.03   0.02     0.02  -0.10  -0.00
   8   7     0.16   0.03   0.02    -0.07   0.03   0.05     0.03  -0.16  -0.02
   9   6     0.07   0.31  -0.04    -0.08   0.03   0.08     0.06  -0.17  -0.08
  10   1    -0.05   0.09  -0.02    -0.03   0.01   0.04     0.03  -0.06  -0.05
  11   1     0.04   0.10  -0.01    -0.02  -0.00   0.02     0.02  -0.02  -0.02
  12   1     0.05   0.13  -0.01    -0.02   0.02   0.02     0.01  -0.08  -0.01
  13   6     0.02  -0.13  -0.01    -0.08   0.01   0.05     0.07  -0.10  -0.00
  14   1    -0.05  -0.03  -0.02    -0.02   0.00   0.02     0.04  -0.03  -0.00
  15   1     0.02  -0.10   0.01    -0.02   0.01   0.01     0.02  -0.01  -0.00
  16   1     0.02  -0.01   0.00    -0.02  -0.00   0.01     0.02  -0.03  -0.00
  17   6     0.41   0.02   0.11    -0.04   0.02   0.00    -0.00  -0.13   0.05
  18   1     0.14  -0.05   0.02    -0.01   0.00  -0.01    -0.01  -0.03   0.04
  19   1     0.16   0.04   0.06    -0.00   0.02   0.00    -0.02  -0.05  -0.01
  20   1     0.10   0.03   0.04    -0.02  -0.00   0.00     0.03  -0.03   0.01
  21   1     0.00  -0.02  -0.01     0.01  -0.01   0.02    -0.09   0.05  -0.01
  22   6    -0.14   0.08  -0.07     0.00  -0.04  -0.10     0.12   0.06  -0.14
  23   8    -0.21   0.12   0.09     0.04  -0.00  -0.20     0.09  -0.08  -0.14
  24   7    -0.22   0.13  -0.17     0.03   0.22   0.35     0.03   0.27  -0.09
  25   1    -0.08   0.04  -0.02     0.01   0.09   0.15    -0.03   0.07  -0.01
  26   1    -0.04   0.03  -0.08    -0.00   0.03   0.10     0.01   0.10  -0.03
  27   7    -0.06   0.02  -0.20    -0.05  -0.35  -0.48     0.26   0.03  -0.25
  28   1    -0.01   0.01  -0.07    -0.01  -0.06  -0.07     0.08   0.05  -0.04
  29   1    -0.01   0.01  -0.02    -0.02  -0.08  -0.12     0.08   0.00  -0.04
  30   6     0.02  -0.09   0.04     0.09   0.03  -0.10    -0.04   0.03   0.13
  31   8     0.12  -0.30  -0.01     0.19  -0.04  -0.02    -0.14   0.21   0.17
  32   7    -0.01  -0.00   0.06     0.14   0.14  -0.19    -0.02  -0.08   0.13
  33   1    -0.01   0.00   0.02     0.06   0.03  -0.05    -0.00  -0.02   0.04
  34   1    -0.04   0.07   0.04     0.02   0.05  -0.07     0.03  -0.09   0.02
  35   7    -0.05   0.06   0.09    -0.05   0.03  -0.13     0.04  -0.07   0.12
  36   1    -0.02   0.02   0.02    -0.02   0.01  -0.06     0.01  -0.02   0.03
  37   1     0.01  -0.03   0.01    -0.02  -0.02  -0.02    -0.01   0.03   0.04
  38   6    -0.06  -0.03   0.01     0.05   0.01   0.01    -0.09   0.06   0.01
  39   8    -0.08  -0.13   0.11     0.04  -0.02   0.03    -0.22   0.04  -0.02
  40   7    -0.10   0.10  -0.06     0.05   0.06  -0.01    -0.10   0.17   0.03
  41   1    -0.02   0.02  -0.00     0.01   0.01   0.01    -0.03   0.04   0.02
  42   1    -0.02   0.04  -0.03     0.02   0.02  -0.01    -0.01   0.05   0.02
  43   7    -0.02  -0.05  -0.02     0.08  -0.00  -0.00     0.02  -0.03   0.03
  44   1    -0.00   0.01  -0.04     0.02   0.01  -0.01     0.03  -0.00   0.01
  45   1     0.00  -0.03  -0.00     0.02  -0.01  -0.00     0.00  -0.03  -0.00
  46   6    -0.04   0.01   0.03    -0.03  -0.04   0.10     0.01  -0.03   0.03
  47   8     0.00   0.00   0.04    -0.00  -0.09   0.13     0.15   0.02   0.05
  48   7    -0.06   0.01   0.06    -0.06   0.05   0.10    -0.13   0.05   0.15
  49   1    -0.00  -0.02   0.03     0.00  -0.04   0.04    -0.00  -0.04   0.08
  50   1    -0.02  -0.02   0.02    -0.00  -0.03   0.03    -0.04  -0.07   0.05
  51   7    -0.07   0.05  -0.01    -0.03  -0.04   0.10    -0.03  -0.12  -0.07
  52   1    -0.02   0.01  -0.00    -0.02   0.01   0.02    -0.04  -0.00  -0.03
  53   1    -0.01   0.00  -0.00    -0.01  -0.01   0.02    -0.01  -0.00  -0.03
                     16                     17                     18
                        a                      a                      a 
 Frequencies --    99.2611               108.8725               112.7189
 Red. masses --    13.7134                12.2554                13.2099
 Frc consts  --     0.0000                 0.0000                 0.0000
 IR Inten    --     6.4874                 3.4769                19.0419
 Raman Activ --     0.0000                 0.0000                 0.0000
 Depolar     --     0.0000                 0.0000                 0.0000
 Atom AN      X      Y      Z        X      Y      Z        X      Y      Z
   1   8     0.09  -0.01   0.04     0.18  -0.28  -0.01     0.01   0.04  -0.10
   2   6     0.08  -0.01  -0.01     0.00  -0.05   0.01     0.02   0.02  -0.06
   3   1     0.02  -0.00   0.00    -0.05  -0.03   0.01     0.01   0.01  -0.03
   4   1     0.04  -0.00  -0.01     0.00  -0.00  -0.00    -0.00   0.01  -0.01
   5   6     0.03  -0.01  -0.07     0.06   0.20  -0.03     0.04  -0.03  -0.02
   6   1     0.01  -0.00  -0.02     0.09   0.07  -0.01     0.00  -0.01   0.01
   7   1     0.02  -0.01  -0.03    -0.01   0.11  -0.02     0.01  -0.01  -0.00
   8   7    -0.01   0.01  -0.06    -0.04   0.16  -0.03     0.07  -0.06  -0.02
   9   6    -0.04   0.04  -0.02    -0.03   0.05   0.05     0.06  -0.01  -0.05
  10   1    -0.02   0.01  -0.01     0.01   0.02   0.04     0.01  -0.00  -0.02
  11   1    -0.02   0.01  -0.00    -0.02  -0.01   0.01     0.03  -0.00  -0.01
  12   1    -0.00   0.01   0.00    -0.01   0.02   0.00     0.02   0.00  -0.02
  13   6    -0.04  -0.00  -0.09    -0.03   0.19  -0.06     0.03  -0.11  -0.01
  14   1    -0.02  -0.00  -0.03    -0.00   0.05  -0.02     0.00  -0.03   0.01
  15   1    -0.01  -0.01  -0.03    -0.01   0.06  -0.02     0.01  -0.03  -0.01
  16   1    -0.02   0.00  -0.02    -0.02   0.05  -0.02     0.01  -0.04  -0.00
  17   6    -0.00   0.01  -0.05    -0.16   0.15  -0.09     0.11  -0.06  -0.01
  18   1     0.00  -0.00  -0.02    -0.04   0.07  -0.06     0.03  -0.02  -0.00
  19   1     0.01   0.00  -0.00    -0.04   0.03  -0.01     0.04  -0.01  -0.00
  20   1    -0.01   0.01  -0.01    -0.08   0.03  -0.03     0.03  -0.01  -0.00
  21   1     0.02  -0.00   0.01     0.09  -0.06  -0.01     0.00   0.01  -0.03
  22   6     0.08  -0.00  -0.04     0.11   0.07  -0.10    -0.14  -0.00  -0.11
  23   8     0.11   0.01  -0.08     0.14   0.04  -0.22    -0.05   0.08  -0.42
  24   7     0.11   0.08   0.13     0.13   0.09  -0.05     0.01  -0.09   0.14
  25   1     0.03   0.03   0.05     0.04   0.02  -0.03     0.06  -0.03   0.00
  26   1     0.02   0.01   0.04     0.03   0.03   0.00    -0.02  -0.05   0.08
  27   7     0.04  -0.11  -0.16     0.08   0.11  -0.06    -0.42   0.01  -0.04
  28   1     0.01  -0.04  -0.03     0.02   0.05   0.03    -0.12   0.00   0.07
  29   1    -0.01  -0.01  -0.04     0.02   0.03  -0.01    -0.13   0.01  -0.03
  30   6    -0.04  -0.06   0.08    -0.02  -0.10   0.08    -0.02  -0.00   0.20
  31   8    -0.09  -0.10  -0.06    -0.06  -0.22  -0.14    -0.09   0.11   0.23
  32   7    -0.13  -0.10   0.20    -0.15  -0.12   0.24    -0.02  -0.06   0.20
  33   1    -0.04  -0.04   0.05    -0.05  -0.06   0.06     0.00  -0.01   0.06
  34   1    -0.02  -0.03   0.07    -0.03  -0.03   0.09     0.01  -0.05   0.04
  35   7     0.09   0.01   0.13     0.13   0.06   0.16     0.03  -0.09   0.19
  36   1     0.03   0.02   0.07     0.05   0.03   0.09     0.01  -0.03   0.05
  37   1     0.04   0.02   0.01     0.07   0.02   0.01    -0.01   0.00   0.06
  38   6     0.03  -0.03   0.05    -0.06  -0.03   0.01     0.08   0.06  -0.07
  39   8    -0.02  -0.09   0.08    -0.01  -0.01   0.01     0.21   0.17  -0.13
  40   7     0.10  -0.07   0.23    -0.09  -0.05  -0.07     0.05  -0.05  -0.18
  41   1     0.00   0.02   0.04    -0.01  -0.03  -0.01     0.03  -0.03  -0.05
  42   1     0.04   0.00   0.04    -0.03  -0.02  -0.02    -0.00  -0.04  -0.03
  43   7     0.02   0.06  -0.16    -0.09  -0.05   0.11    -0.00   0.06   0.10
  44   1     0.03   0.01  -0.02    -0.05  -0.01   0.01    -0.03   0.01   0.02
  45   1     0.00   0.00  -0.05    -0.03   0.01   0.03    -0.00   0.05   0.04
  46   6    -0.11   0.12  -0.04    -0.01  -0.08   0.03     0.01   0.01   0.04
  47   8    -0.38   0.53  -0.14     0.16  -0.21   0.08    -0.09  -0.10   0.05
  48   7     0.06  -0.19  -0.06    -0.14   0.07   0.11     0.07   0.06  -0.07
  49   1    -0.04   0.08  -0.06     0.01  -0.08   0.07     0.02  -0.03  -0.04
  50   1     0.04  -0.04  -0.02    -0.05  -0.05   0.03     0.05   0.01  -0.01
  51   7    -0.00  -0.07   0.07    -0.08  -0.02  -0.07     0.03   0.09   0.13
  52   1     0.06  -0.13   0.04    -0.06   0.05  -0.03     0.02   0.05   0.03
  53   1    -0.01  -0.01   0.03    -0.01  -0.00  -0.03     0.00   0.03   0.04
                     19                     20                     21
                        a                      a                      a 
 Frequencies --   127.8781               135.4296               141.4269
 Red. masses --    11.5567                12.4748                12.7273
 Frc consts  --     0.0000                 0.0000                 0.0000
 IR Inten    --     3.6039                 9.2179                22.8355
 Raman Activ --     0.0000                 0.0000                 0.0000
 Depolar     --     0.0000                 0.0000                 0.0000
 Atom AN      X      Y      Z        X      Y      Z        X      Y      Z
   1   8    -0.13   0.24   0.06     0.03  -0.19  -0.07     0.17  -0.03  -0.15
   2   6     0.09  -0.04   0.02     0.13  -0.29   0.09     0.08   0.05  -0.10
   3   1     0.09   0.02   0.04     0.07  -0.06   0.10     0.00   0.01  -0.02
   4   1     0.06  -0.07  -0.01     0.05  -0.17   0.02     0.02   0.02  -0.03
   5   6    -0.10  -0.23  -0.13     0.05  -0.18  -0.05     0.09   0.15  -0.12
   6   1    -0.11  -0.08  -0.08     0.02  -0.05  -0.05     0.06   0.05  -0.03
   7   1     0.01  -0.14  -0.04     0.02  -0.06  -0.02     0.01   0.07  -0.05
   8   7    -0.15  -0.00  -0.10    -0.06  -0.05  -0.01    -0.01   0.11  -0.12
   9   6    -0.15   0.07  -0.13    -0.07  -0.02   0.02     0.01   0.01  -0.07
  10   1    -0.03   0.00  -0.11    -0.01  -0.01  -0.02     0.02   0.00  -0.00
  11   1    -0.07   0.10  -0.02    -0.04   0.03   0.01     0.00  -0.02  -0.02
  12   1    -0.04  -0.02   0.02    -0.01  -0.02   0.04    -0.00  -0.00  -0.03
  13   6    -0.12   0.10  -0.18    -0.08   0.04  -0.13     0.00   0.11  -0.10
  14   1    -0.01   0.03  -0.07    -0.02   0.01  -0.07     0.01   0.03  -0.02
  15   1    -0.04   0.04  -0.06    -0.02  -0.00  -0.03    -0.00   0.04  -0.03
  16   1    -0.05   0.04  -0.05    -0.03   0.05  -0.03     0.00   0.03  -0.03
  17   6    -0.13   0.04   0.09    -0.10  -0.01   0.13    -0.14   0.11  -0.12
  18   1    -0.05   0.01   0.06    -0.02  -0.01   0.03    -0.04   0.05  -0.05
  19   1    -0.05  -0.01   0.03    -0.02  -0.02   0.07    -0.05   0.01  -0.02
  20   1    -0.02   0.04   0.03    -0.05   0.03   0.04    -0.06   0.03  -0.03
  21   1    -0.09   0.04   0.01    -0.01  -0.07  -0.07     0.06  -0.00  -0.03
  22   6     0.04   0.08   0.04     0.05   0.01   0.03    -0.06  -0.07   0.02
  23   8     0.12   0.35   0.04     0.03  -0.00   0.13    -0.08  -0.15   0.00
  24   7     0.21  -0.14   0.09     0.01   0.04  -0.03    -0.11  -0.01   0.00
  25   1     0.12  -0.02   0.03    -0.01   0.02   0.01    -0.05  -0.00   0.00
  26   1     0.05  -0.10   0.03     0.01   0.02  -0.02    -0.03   0.02   0.00
  27   7    -0.15   0.02   0.01     0.13  -0.01  -0.01    -0.00  -0.04   0.03
  28   1    -0.05  -0.04  -0.01     0.04  -0.01  -0.03     0.00   0.00   0.01
  29   1    -0.06   0.02  -0.01     0.04   0.00   0.01     0.01  -0.02   0.01
  30   6     0.02  -0.09   0.04     0.03  -0.04   0.01     0.04  -0.04   0.19
  31   8     0.08  -0.23   0.01     0.12  -0.14   0.09     0.15  -0.06   0.49
  32   7     0.01  -0.03   0.03     0.07   0.04  -0.06     0.19   0.07  -0.03
  33   1    -0.01   0.03   0.02     0.03   0.02  -0.01     0.10   0.02  -0.01
  34   1    -0.05   0.08   0.03    -0.01   0.05  -0.02     0.04  -0.01  -0.07
  35   7    -0.06   0.00   0.06    -0.11  -0.03   0.00    -0.30  -0.18   0.13
  36   1     0.00  -0.05   0.00    -0.04  -0.01  -0.02    -0.13  -0.00  -0.03
  37   1     0.01  -0.07   0.01    -0.03  -0.05   0.01    -0.14  -0.05   0.10
  38   6     0.01  -0.01   0.03    -0.02   0.16  -0.10     0.02   0.02   0.08
  39   8    -0.08  -0.09   0.08     0.05   0.44  -0.34    -0.07  -0.05   0.13
  40   7     0.03   0.09   0.09    -0.01  -0.03  -0.13     0.04   0.10   0.16
  41   1     0.00   0.02   0.04     0.00  -0.00  -0.06     0.00   0.04   0.04
  42   1     0.02   0.04   0.01    -0.01  -0.05   0.03     0.02   0.04   0.02
  43   7     0.09  -0.01  -0.11    -0.10   0.11   0.23     0.08   0.02  -0.03
  44   1     0.05   0.00  -0.02    -0.06  -0.01   0.09     0.04   0.01  -0.01
  45   1     0.03  -0.04  -0.03    -0.04   0.10   0.06     0.02  -0.02  -0.02
  46   6     0.09  -0.04   0.00    -0.04   0.06   0.03    -0.03  -0.03  -0.08
  47   8     0.16  -0.17   0.02    -0.10   0.17   0.02     0.03  -0.01  -0.09
  48   7     0.07   0.06  -0.03    -0.01  -0.02   0.06    -0.06  -0.04  -0.04
  49   1     0.03  -0.01  -0.01    -0.01   0.01   0.01    -0.01  -0.00  -0.00
  50   1     0.02   0.03  -0.01     0.00  -0.02   0.02    -0.03  -0.01  -0.01
  51   7     0.08   0.02  -0.02    -0.01  -0.03   0.06    -0.04  -0.07  -0.13
  52   1     0.01   0.03  -0.01    -0.01  -0.00   0.01    -0.02  -0.02  -0.04
  53   1     0.02  -0.00  -0.00    -0.01   0.04   0.00    -0.01  -0.01  -0.04
                     22                     23                     24
                        a                      a                      a 
 Frequencies --   149.9251               157.7002               175.7944
 Red. masses --    12.2431                11.4682                11.6069
 Frc consts  --     0.0000                 0.0000                 0.0000
 IR Inten    --    22.1573                10.3726                 8.2939
 Raman Activ --     0.0000                 0.0000                 0.0000
 Depolar     --     0.0000                 0.0000                 0.0000
 Atom AN      X      Y      Z        X      Y      Z        X      Y      Z
   1   8     0.03   0.07   0.11     0.10  -0.22   0.15     0.04   0.00  -0.39
   2   6    -0.04   0.16  -0.13    -0.06   0.01  -0.08     0.06  -0.06   0.04
   3   1    -0.04   0.02  -0.09    -0.07  -0.03  -0.07     0.04   0.01   0.07
   4   1     0.00   0.11  -0.04    -0.01   0.08  -0.03    -0.02  -0.10   0.03
   5   6    -0.07   0.04  -0.10    -0.02   0.03  -0.04     0.14   0.13   0.06
   6   1    -0.04   0.01  -0.01     0.02   0.02   0.02     0.10   0.05   0.03
   7   1    -0.01  -0.00  -0.04    -0.02   0.04  -0.02     0.01   0.10  -0.00
   8   7    -0.07  -0.00  -0.12    -0.04  -0.12  -0.06    -0.02  -0.01   0.06
   9   6    -0.09   0.06  -0.09    -0.14   0.04   0.07    -0.08  -0.01   0.24
  10   1    -0.04   0.02  -0.02    -0.10   0.03   0.09    -0.07   0.03   0.19
  11   1    -0.03   0.01  -0.03    -0.04  -0.04   0.01    -0.02  -0.12   0.05
  12   1    -0.02   0.03  -0.03    -0.01   0.09  -0.01    -0.01   0.09   0.00
  13   6    -0.09  -0.08  -0.07    -0.16  -0.32  -0.03    -0.13  -0.12   0.01
  14   1    -0.04  -0.02  -0.01    -0.09  -0.09   0.01    -0.07  -0.03   0.00
  15   1    -0.02  -0.03  -0.02    -0.03  -0.13  -0.02    -0.02  -0.06  -0.01
  16   1    -0.02  -0.04  -0.02    -0.04  -0.10  -0.01    -0.04  -0.03   0.00
  17   6     0.01  -0.02  -0.15     0.17  -0.16  -0.20    -0.01  -0.05  -0.10
  18   1     0.01  -0.02  -0.04     0.08  -0.09  -0.10     0.02  -0.02  -0.10
  19   1     0.01   0.01  -0.05     0.10   0.00  -0.04     0.04   0.01   0.01
  20   1     0.01  -0.01  -0.04     0.02  -0.07  -0.06    -0.07  -0.04  -0.03
  21   1     0.03   0.03   0.05     0.07  -0.04   0.05    -0.02  -0.01  -0.11
  22   6     0.10   0.07   0.02     0.08   0.11   0.05    -0.01   0.01   0.02
  23   8     0.08   0.10   0.17     0.11   0.31   0.18     0.01   0.09   0.01
  24   7     0.07   0.08  -0.08     0.17  -0.05  -0.01     0.05  -0.06   0.07
  25   1     0.01   0.03   0.01     0.08   0.01   0.03     0.04  -0.01   0.02
  26   1     0.03   0.02  -0.04     0.04  -0.06  -0.01     0.01  -0.04   0.02
  27   7     0.19   0.04  -0.05     0.02   0.03  -0.02    -0.07  -0.03  -0.01
  28   1     0.05   0.00  -0.04    -0.00  -0.03  -0.04    -0.02  -0.03  -0.01
  29   1     0.05   0.02   0.01    -0.01   0.02  -0.01    -0.03  -0.00  -0.00
  30   6    -0.00   0.01   0.07    -0.03   0.06   0.02    -0.01   0.02   0.01
  31   8     0.02   0.04   0.20    -0.08   0.16   0.07    -0.03   0.06   0.02
  32   7     0.07   0.02  -0.02     0.01   0.00  -0.01     0.00   0.01   0.00
  33   1     0.03   0.02  -0.00    -0.01   0.03   0.01    -0.00   0.01   0.00
  34   1     0.02  -0.01  -0.03     0.00   0.00  -0.01    -0.00   0.00  -0.00
  35   7    -0.12  -0.08   0.04    -0.01  -0.04  -0.00     0.01  -0.01  -0.00
  36   1    -0.05  -0.01  -0.02     0.00  -0.03  -0.01     0.01  -0.02  -0.00
  37   1    -0.06  -0.02   0.04    -0.01   0.00   0.01     0.00  -0.00  -0.00
  38   6    -0.05  -0.19  -0.10     0.05   0.12   0.06    -0.17  -0.05  -0.07
  39   8     0.17  -0.20  -0.03     0.01   0.15   0.03    -0.37  -0.04  -0.20
  40   7    -0.11  -0.28  -0.29     0.07   0.13   0.11    -0.12   0.04   0.07
  41   1    -0.02  -0.09  -0.08     0.02   0.04   0.03    -0.05   0.02   0.03
  42   1    -0.05  -0.09  -0.08     0.02   0.03   0.03     0.00   0.01   0.05
  43   7    -0.21  -0.12  -0.02     0.06   0.13   0.07     0.03  -0.21  -0.10
  44   1    -0.10  -0.03  -0.03     0.02   0.03   0.03     0.06  -0.05  -0.01
  45   1    -0.04  -0.01   0.03     0.02   0.04   0.02    -0.01  -0.08  -0.07
  46   6     0.04   0.06   0.15    -0.07  -0.08  -0.08     0.17   0.09   0.07
  47   8    -0.05   0.08   0.17     0.04  -0.12  -0.08     0.14   0.10   0.07
  48   7     0.09   0.03   0.14    -0.14  -0.06  -0.03     0.20   0.06   0.06
  49   1     0.01   0.03   0.02    -0.03  -0.03   0.01     0.03   0.09  -0.00
  50   1     0.03   0.03   0.04    -0.06  -0.02  -0.01     0.04   0.08   0.01
  51   7     0.06   0.09   0.23    -0.11  -0.07  -0.16     0.18   0.05   0.07
  52   1     0.03  -0.01   0.07    -0.05   0.01  -0.05     0.05  -0.01   0.02
  53   1     0.03  -0.01   0.07    -0.03  -0.00  -0.05     0.05   0.01   0.02
                     25                     26                     27
                        a                      a                      a 
 Frequencies --   188.0174               189.4298               197.8444
 Red. masses --    11.3444                 3.8017                12.5908
 Frc consts  --     0.0000                 0.0000                 0.0000
 IR Inten    --     4.2770                77.6823                65.1974
 Raman Activ --     0.0000                 0.0000                 0.0000
 Depolar     --     0.0000                 0.0000                 0.0000
 Atom AN      X      Y      Z        X      Y      Z        X      Y      Z
   1   8     0.06  -0.19   0.40    -0.06   0.10  -0.15    -0.08   0.16  -0.28
   2   6    -0.07   0.01  -0.03     0.04  -0.03   0.04     0.05  -0.01   0.04
   3   1    -0.08  -0.03  -0.07     0.04   0.01   0.05     0.06   0.02   0.05
   4   1     0.01   0.10  -0.02     0.00  -0.06   0.02    -0.01  -0.08   0.02
   5   6    -0.08  -0.03  -0.04     0.03  -0.01   0.03     0.04  -0.00   0.04
   6   1    -0.04  -0.01  -0.02     0.01  -0.00   0.00     0.02   0.00   0.01
   7   1    -0.02  -0.03   0.00     0.01   0.00   0.00     0.01   0.01   0.00
   8   7     0.03   0.01  -0.06    -0.02  -0.01   0.04    -0.03  -0.03   0.06
   9   6     0.07  -0.00  -0.14    -0.03  -0.01   0.07    -0.05  -0.03   0.11
  10   1     0.04  -0.01  -0.09    -0.02   0.00   0.05    -0.03   0.00   0.08
  11   1     0.02   0.04  -0.03    -0.00  -0.04   0.01    -0.01  -0.05   0.03
  12   1     0.01  -0.04  -0.02    -0.01   0.02   0.00    -0.01   0.03   0.01
  13   6     0.10   0.04   0.00    -0.04   0.00  -0.01    -0.07  -0.03   0.01
  14   1     0.03   0.01  -0.01    -0.03  -0.00  -0.03    -0.03  -0.01  -0.01
  15   1     0.02   0.02   0.02    -0.01  -0.02   0.01    -0.01  -0.03   0.00
  16   1     0.05   0.02   0.00    -0.00   0.03   0.00    -0.02   0.01   0.01
  17   6     0.06   0.02  -0.01    -0.04  -0.01   0.02    -0.04  -0.03   0.03
  18   1     0.01   0.00   0.02    -0.00  -0.00  -0.02    -0.00  -0.01  -0.02
  19   1     0.01   0.00  -0.02     0.00  -0.00   0.02     0.00  -0.01   0.03
  20   1     0.04   0.01  -0.00    -0.03  -0.00   0.01    -0.04  -0.01   0.01
  21   1     0.06  -0.04   0.08    -0.04   0.02  -0.04    -0.07   0.04  -0.02
  22   6    -0.09  -0.04   0.03     0.02   0.06   0.01    -0.03  -0.03   0.03
  23   8    -0.06   0.04  -0.03     0.02   0.11   0.07    -0.01   0.06   0.00
  24   7    -0.02  -0.12   0.09     0.03   0.02  -0.07     0.03  -0.08   0.08
  25   1     0.02  -0.02   0.03     0.00   0.02   0.02     0.03  -0.01   0.03
  26   1    -0.02  -0.05   0.04     0.01   0.01  -0.01    -0.00  -0.04   0.03
  27   7    -0.18  -0.08  -0.02     0.02   0.04  -0.02    -0.09  -0.07  -0.03
  28   1    -0.05  -0.01   0.03     0.00  -0.01  -0.02    -0.03  -0.00   0.02
  29   1    -0.05  -0.01   0.02     0.00   0.01  -0.01    -0.03  -0.00   0.03
  30   6     0.01  -0.00  -0.00     0.02   0.00  -0.03     0.00   0.01  -0.02
  31   8     0.01  -0.03  -0.01     0.04  -0.06  -0.05    -0.00   0.01  -0.02
  32   7     0.00  -0.02  -0.01     0.01  -0.03  -0.02    -0.00   0.00  -0.01
  33   1     0.04  -0.07  -0.02     0.08  -0.16  -0.04     0.00   0.00  -0.00
  34   1     0.07  -0.13  -0.04     0.16  -0.30  -0.08     0.00  -0.00  -0.00
  35   7     0.02  -0.08  -0.01     0.07  -0.16  -0.03     0.01   0.01  -0.02
  36   1    -0.10   0.27   0.06    -0.22   0.61   0.13     0.00   0.00  -0.00
  37   1    -0.08   0.16   0.03    -0.16   0.38   0.07     0.00   0.00  -0.01
  38   6    -0.12   0.00  -0.05     0.05   0.00   0.02     0.09  -0.06   0.05
  39   8    -0.20   0.07  -0.16     0.07  -0.02   0.06     0.32  -0.11   0.24
  40   7    -0.08  -0.00   0.03     0.04   0.01  -0.00     0.01  -0.12  -0.15
  41   1    -0.03   0.01  -0.00     0.01  -0.00   0.00     0.03  -0.05  -0.07
  42   1    -0.01  -0.01   0.03     0.00   0.01  -0.01    -0.04  -0.02  -0.09
  43   7    -0.05  -0.08   0.02     0.03   0.03  -0.01    -0.15   0.11   0.10
  44   1    -0.01  -0.02   0.01     0.01   0.01  -0.01    -0.11   0.03  -0.02
  45   1    -0.03  -0.00  -0.03     0.02  -0.00   0.01    -0.01   0.05   0.09
  46   6     0.16   0.12  -0.01    -0.06  -0.06   0.01     0.04   0.07  -0.08
  47   8     0.28   0.29  -0.02    -0.12  -0.14   0.01     0.26   0.29  -0.09
  48   7     0.06   0.04   0.19    -0.02   0.00  -0.09    -0.15  -0.06   0.24
  49   1     0.03   0.03   0.09    -0.00  -0.04  -0.04    -0.03   0.07   0.13
  50   1    -0.02  -0.04   0.05     0.02  -0.00  -0.02    -0.13  -0.02   0.05
  51   7     0.12  -0.02  -0.19    -0.05   0.01   0.09    -0.04  -0.06  -0.34
  52   1    -0.01  -0.02  -0.05     0.00   0.02   0.02    -0.03  -0.10  -0.09
  53   1     0.04   0.02  -0.08    -0.02  -0.00   0.04     0.02  -0.03  -0.13
                     28                     29                     30
                        a                      a                      a 
 Frequencies --   209.9968               250.5944               279.6440
 Red. masses --     3.0751                 2.5203                 7.4597
 Frc consts  --     0.0000                 0.0000                 0.0000
 IR Inten    --   172.5883                 0.9647                 3.7339
 Raman Activ --     0.0000                 0.0000                 0.0000
 Depolar     --     0.0000                 0.0000                 0.0000
 Atom AN      X      Y      Z        X      Y      Z        X      Y      Z
   1   8     0.00  -0.01   0.04     0.07  -0.05  -0.16     0.07  -0.05  -0.13
   2   6    -0.01   0.00  -0.00     0.03  -0.01   0.06    -0.14   0.23  -0.35
   3   1    -0.01  -0.00  -0.01     0.01   0.01   0.04    -0.09   0.00  -0.28
   4   1     0.00   0.01  -0.00    -0.01  -0.04   0.02    -0.12   0.27  -0.08
   5   6    -0.01  -0.00  -0.00     0.04   0.08   0.05     0.07  -0.07   0.04
   6   1    -0.01  -0.00   0.00     0.03   0.03   0.03    -0.03  -0.02   0.04
   7   1    -0.00  -0.00  -0.00     0.01   0.04   0.00     0.03  -0.05   0.03
   8   7     0.01   0.01  -0.01    -0.03  -0.00   0.05     0.06  -0.06   0.08
   9   6     0.02   0.02  -0.04    -0.07   0.12   0.03    -0.00  -0.12   0.33
  10   1     0.01  -0.00  -0.03     0.11  -0.06  -0.36     0.09  -0.07  -0.01
  11   1     0.00   0.03  -0.01    -0.17   0.40   0.07    -0.12   0.07   0.12
  12   1     0.00  -0.01   0.00    -0.01  -0.23   0.30     0.01  -0.15   0.23
  13   6     0.02   0.02   0.00    -0.07  -0.13   0.11    -0.09   0.09  -0.27
  14   1     0.01   0.01   0.01     0.09  -0.02   0.23     0.00   0.02  -0.11
  15   1     0.00   0.01  -0.00    -0.02   0.11  -0.12    -0.01   0.02  -0.14
  16   1     0.00  -0.00  -0.00    -0.14  -0.24   0.00    -0.11   0.07  -0.06
  17   6     0.01   0.02   0.01     0.02  -0.03  -0.11     0.06  -0.01   0.32
  18   1    -0.00   0.01   0.01    -0.09   0.06   0.17     0.05  -0.05   0.05
  19   1    -0.01   0.00  -0.01    -0.15  -0.02  -0.26     0.07  -0.01   0.17
  20   1     0.01   0.01   0.00     0.26  -0.08  -0.06    -0.05   0.06   0.11
  21   1     0.01  -0.00   0.01     0.02  -0.02  -0.07     0.07   0.02   0.04
  22   6     0.00   0.01  -0.06     0.00   0.00   0.00     0.00   0.00   0.00
  23   8     0.00   0.00  -0.07     0.00   0.01   0.01     0.00   0.01   0.01
  24   7    -0.02   0.07   0.01     0.01  -0.00   0.00     0.00   0.00   0.00
  25   1    -0.01   0.01  -0.01     0.00   0.00   0.00     0.00  -0.00  -0.00
  26   1     0.00   0.00  -0.03     0.00  -0.00   0.00     0.00  -0.00  -0.01
  27   7     0.01   0.03  -0.01     0.00   0.00   0.00     0.00   0.00   0.00
  28   1    -0.00  -0.03  -0.07    -0.00  -0.00  -0.00    -0.00  -0.00  -0.00
  29   1     0.01  -0.03  -0.05    -0.00   0.00  -0.00    -0.00   0.00  -0.00
  30   6     0.00  -0.00   0.00     0.00   0.00  -0.01     0.01  -0.02  -0.00
  31   8     0.00  -0.01  -0.00     0.00   0.00  -0.00     0.02  -0.05  -0.02
  32   7    -0.00  -0.01   0.01     0.00  -0.01  -0.01     0.01  -0.00  -0.00
  33   1    -0.00  -0.01   0.00    -0.00   0.00  -0.00     0.00   0.00   0.00
  34   1     0.01  -0.01   0.00     0.01  -0.01  -0.00    -0.01   0.02   0.00
  35   7     0.01  -0.01   0.01     0.00   0.00  -0.00     0.00  -0.00   0.00
  36   1    -0.01   0.03   0.01    -0.02   0.04   0.01    -0.01   0.03   0.01
  37   1    -0.00   0.02   0.00    -0.01   0.03   0.00     0.00   0.00  -0.00
  38   6    -0.00   0.03  -0.00    -0.01  -0.00  -0.00    -0.01   0.01  -0.01
  39   8    -0.01   0.05  -0.02    -0.01  -0.01   0.00    -0.02   0.01  -0.02
  40   7    -0.00   0.03  -0.00    -0.00   0.00  -0.00    -0.00   0.00   0.02
  41   1     0.01  -0.01   0.02     0.00  -0.01   0.01    -0.00   0.01   0.00
  42   1    -0.00  -0.00   0.01     0.00  -0.01   0.01     0.00  -0.00   0.01
  43   7    -0.01   0.02   0.04     0.00  -0.01   0.02     0.01  -0.01   0.01
  44   1    -0.01   0.00   0.01    -0.01   0.02  -0.03    -0.00   0.01  -0.02
  45   1    -0.00   0.02   0.01    -0.01   0.01  -0.02    -0.01   0.01  -0.02
  46   6    -0.01  -0.02   0.02     0.01   0.01  -0.01    -0.00   0.00  -0.00
  47   8     0.08  -0.15   0.05     0.01   0.03  -0.01     0.00   0.01  -0.00
  48   7     0.04  -0.29   0.06    -0.00   0.01   0.01     0.00  -0.01  -0.00
  49   1    -0.19   0.52  -0.07     0.00  -0.01   0.01    -0.00   0.00  -0.00
  50   1    -0.25   0.63  -0.07     0.00  -0.02   0.01    -0.00   0.00  -0.00
  51   7    -0.04  -0.02   0.01     0.00  -0.00  -0.02    -0.00   0.00  -0.00
  52   1     0.06  -0.19   0.03    -0.00  -0.00  -0.01    -0.00   0.00  -0.00
  53   1     0.03  -0.11   0.02     0.00   0.00  -0.01     0.00  -0.00   0.00
                     31                     32                     33
                        a                      a                      a 
 Frequencies --   290.0136               306.1971               318.0652
 Red. masses --     2.5649                 2.2915                 9.0700
 Frc consts  --     0.0000                 0.0000                 0.0000
 IR Inten    --   150.3208                 2.4321                 2.1031
 Raman Activ --     0.0000                 0.0000                 0.0000
 Depolar     --     0.0000                 0.0000                 0.0000
 Atom AN      X      Y      Z        X      Y      Z        X      Y      Z
   1   8     0.01  -0.01   0.00    -0.10   0.06   0.05    -0.38   0.04   0.18
   2   6    -0.01   0.01   0.01    -0.03  -0.03   0.13    -0.11  -0.21   0.03
   3   1    -0.01   0.00   0.00    -0.00   0.01   0.12     0.01  -0.03   0.07
   4   1    -0.00   0.00   0.00     0.02  -0.08   0.03     0.00  -0.13  -0.00
   5   6     0.01   0.04   0.01    -0.02   0.18   0.02    -0.03  -0.02  -0.07
   6   1     0.01   0.01   0.01     0.08   0.07   0.03     0.02  -0.01  -0.06
   7   1    -0.00   0.02   0.00    -0.05   0.13  -0.01    -0.04   0.01   0.04
   8   7     0.01   0.00   0.01    -0.01  -0.01  -0.04     0.15   0.10  -0.10
   9   6     0.01  -0.01  -0.00     0.04  -0.09  -0.10     0.07  -0.04   0.33
  10   1     0.03  -0.02  -0.06     0.15  -0.10  -0.31     0.06  -0.00   0.16
  11   1    -0.02   0.06   0.01    -0.09   0.25   0.02    -0.09  -0.08   0.10
  12   1     0.00  -0.05   0.05    -0.00  -0.25   0.19     0.05  -0.00   0.14
  13   6    -0.00  -0.01   0.00     0.01  -0.04  -0.00     0.10   0.18  -0.25
  14   1    -0.03  -0.00  -0.03    -0.09  -0.02  -0.12     0.17   0.06   0.06
  15   1     0.00  -0.03   0.02     0.00  -0.13   0.10     0.03   0.20  -0.22
  16   1     0.02   0.02   0.01     0.09   0.10   0.02    -0.12  -0.07  -0.09
  17   6     0.02   0.00  -0.00     0.05  -0.03  -0.09     0.23   0.05  -0.30
  18   1     0.01  -0.00  -0.01     0.17  -0.12  -0.36     0.08  -0.00  -0.12
  19   1     0.01   0.00   0.01     0.25   0.05   0.29     0.09   0.06  -0.10
  20   1    -0.01   0.00   0.00    -0.35   0.05   0.01     0.05  -0.04  -0.09
  21   1     0.01  -0.01  -0.04    -0.03  -0.00  -0.04    -0.14  -0.01   0.04
  22   6    -0.00   0.00  -0.00     0.00   0.01   0.01     0.00  -0.01   0.01
  23   8    -0.00   0.00  -0.00     0.00   0.01   0.01    -0.00  -0.02   0.01
  24   7     0.00  -0.00   0.01     0.01  -0.01  -0.01    -0.03   0.02  -0.01
  25   1     0.00  -0.00  -0.00    -0.00   0.01   0.01    -0.02  -0.00  -0.01
  26   1     0.00  -0.00  -0.00    -0.00   0.00   0.01     0.00   0.00  -0.03
  27   7    -0.01  -0.00  -0.00    -0.00  -0.00  -0.01     0.00  -0.01   0.01
  28   1    -0.00  -0.00  -0.00    -0.00   0.00   0.01     0.00   0.00   0.01
  29   1    -0.00   0.00   0.00    -0.00   0.00   0.01    -0.00   0.00   0.00
  30   6    -0.00   0.00  -0.00    -0.00  -0.01   0.00     0.00  -0.00   0.04
  31   8    -0.00  -0.00  -0.00    -0.00   0.01   0.01    -0.00  -0.00   0.03
  32   7    -0.00  -0.00   0.00    -0.01   0.04   0.01     0.02  -0.01   0.02
  33   1    -0.00  -0.00   0.00     0.02  -0.03  -0.01     0.01   0.01   0.01
  34   1    -0.00  -0.00   0.00     0.03  -0.06  -0.02    -0.01   0.02   0.00
  35   7     0.00  -0.00  -0.00     0.00   0.02   0.01    -0.03  -0.03   0.04
  36   1    -0.00   0.00   0.00     0.02  -0.05  -0.01    -0.02   0.00  -0.00
  37   1    -0.00   0.00   0.00     0.01  -0.02  -0.00    -0.02  -0.01   0.02
  38   6     0.03  -0.04   0.04    -0.00  -0.00   0.00     0.01  -0.01   0.01
  39   8     0.02   0.00  -0.02     0.00  -0.02   0.02     0.02  -0.01   0.02
  40   7    -0.03   0.02   0.00     0.00  -0.01  -0.00     0.00  -0.01  -0.02
  41   1    -0.01   0.05  -0.06     0.00  -0.01   0.00     0.01  -0.01  -0.00
  42   1    -0.05   0.10  -0.17     0.00  -0.02   0.02    -0.00  -0.00  -0.01
  43   7    -0.15   0.14  -0.26     0.02  -0.02   0.02    -0.01   0.01  -0.01
  44   1     0.24  -0.40   0.63    -0.02   0.05  -0.08     0.00  -0.01   0.02
  45   1     0.17  -0.20   0.35    -0.02   0.01  -0.04     0.01  -0.01   0.02
  46   6     0.00   0.01   0.00     0.00  -0.01   0.00    -0.00   0.00   0.00
  47   8     0.01   0.00   0.01     0.00  -0.01   0.00    -0.01   0.00   0.00
  48   7    -0.00  -0.01   0.02     0.00   0.01  -0.01     0.00  -0.00  -0.00
  49   1    -0.00   0.01   0.01     0.00  -0.00  -0.00    -0.00   0.00  -0.00
  50   1    -0.01   0.01   0.00     0.00   0.00  -0.00     0.00   0.00  -0.00
  51   7     0.01  -0.02   0.00    -0.00   0.01   0.00     0.00  -0.01   0.00
  52   1    -0.02   0.04  -0.01     0.01  -0.01   0.00    -0.00  -0.00   0.00
  53   1    -0.00   0.02  -0.00     0.00  -0.01   0.00    -0.00   0.01  -0.00
                     34                     35                     36
                        a                      a                      a 
 Frequencies --   324.6909               350.1823               366.2883
 Red. masses --     3.6418                 2.2438                 2.5197
 Frc consts  --     0.0000                 0.0000                 0.0000
 IR Inten    --   199.6572                27.5266               175.1547
 Raman Activ --     0.0000                 0.0000                 0.0000
 Depolar     --     0.0000                 0.0000                 0.0000
 Atom AN      X      Y      Z        X      Y      Z        X      Y      Z
   1   8    -0.02  -0.00   0.00     0.11  -0.01  -0.04     0.01  -0.00  -0.01
   2   6    -0.00  -0.01  -0.02     0.04   0.05   0.01     0.01  -0.00  -0.02
   3   1     0.00  -0.00  -0.02    -0.00   0.01   0.00     0.00  -0.00  -0.01
   4   1    -0.01   0.01  -0.01     0.01   0.02   0.00    -0.00   0.01  -0.00
   5   6     0.01  -0.03  -0.00    -0.03  -0.02  -0.01    -0.00  -0.03  -0.01
   6   1    -0.01  -0.01  -0.01    -0.03  -0.01   0.02    -0.01  -0.01  -0.01
   7   1     0.00  -0.02   0.01     0.01  -0.02  -0.03     0.00  -0.02  -0.00
   8   7     0.02   0.01   0.01    -0.09  -0.05   0.00    -0.01  -0.00   0.00
   9   6     0.01  -0.00   0.06    -0.06   0.01  -0.17    -0.02   0.01   0.03
  10   1     0.00   0.00   0.03    -0.07   0.02   0.01    -0.01   0.00   0.01
  11   1    -0.01  -0.02   0.01     0.06  -0.06  -0.06    -0.02   0.01   0.01
  12   1     0.01   0.01   0.01    -0.03   0.07  -0.14    -0.00   0.00   0.02
  13   6     0.00   0.01  -0.02    -0.01   0.00   0.09     0.01   0.01   0.02
  14   1    -0.02   0.00  -0.03     0.29   0.03   0.40    -0.02   0.00  -0.03
  15   1     0.00  -0.02   0.01    -0.01   0.35  -0.26    -0.00  -0.02   0.04
  16   1     0.01   0.03  -0.00    -0.25  -0.35  -0.03     0.03   0.03   0.01
  17   6     0.01   0.01  -0.02    -0.01  -0.03   0.15    -0.01  -0.01  -0.02
  18   1    -0.03   0.03   0.05     0.10  -0.09  -0.17    -0.01   0.01   0.01
  19   1    -0.04  -0.01  -0.07     0.16   0.02   0.27    -0.02  -0.00  -0.03
  20   1     0.07  -0.01  -0.01    -0.24   0.06   0.07     0.03  -0.01  -0.01
  21   1    -0.01   0.00   0.01     0.04   0.00  -0.01     0.00  -0.00  -0.00
  22   6    -0.01   0.03   0.03     0.01  -0.01   0.02     0.03   0.01   0.02
  23   8    -0.00   0.05   0.03     0.01  -0.00   0.01     0.02   0.01   0.02
  24   7     0.06  -0.09  -0.15    -0.02   0.01  -0.01    -0.10   0.15   0.21
  25   1    -0.04   0.09   0.17    -0.02  -0.00  -0.01     0.07  -0.11  -0.23
  26   1    -0.07   0.16   0.23     0.01  -0.00  -0.03     0.17  -0.40  -0.58
  27   7    -0.04  -0.00  -0.01    -0.01  -0.01   0.00    -0.01  -0.06  -0.09
  28   1    -0.02  -0.03  -0.04    -0.00   0.00   0.02     0.02   0.21   0.35
  29   1    -0.02  -0.00  -0.01    -0.01   0.00  -0.00     0.01   0.02   0.06
  30   6     0.07  -0.11  -0.04    -0.01  -0.03  -0.01     0.03  -0.04  -0.02
  31   8     0.05  -0.06  -0.00    -0.00  -0.02  -0.00     0.02  -0.01  -0.01
  32   7    -0.14   0.21   0.07    -0.02   0.05  -0.02    -0.05   0.08   0.03
  33   1     0.09  -0.15  -0.03     0.03  -0.01  -0.01     0.03  -0.05  -0.01
  34   1     0.32  -0.60  -0.18     0.06  -0.11  -0.05     0.13  -0.25  -0.08
  35   7    -0.10   0.23   0.04     0.04   0.05   0.01    -0.04   0.07   0.00
  36   1     0.10  -0.29  -0.08     0.03  -0.02   0.02     0.02  -0.10  -0.04
  37   1     0.03  -0.11  -0.01     0.03   0.01  -0.02    -0.00  -0.03   0.00
  38   6    -0.00   0.00   0.00    -0.00  -0.01   0.00    -0.00   0.00  -0.00
  39   8    -0.00   0.00  -0.00    -0.00   0.00  -0.01    -0.00   0.00  -0.00
  40   7     0.00   0.00  -0.00    -0.00   0.01  -0.00    -0.00  -0.00   0.00
  41   1    -0.00   0.00   0.00     0.00  -0.01   0.01    -0.00   0.00  -0.00
  42   1     0.00  -0.00   0.01    -0.00   0.00  -0.00    -0.00  -0.00   0.00
  43   7     0.00   0.00  -0.00    -0.01   0.01  -0.01     0.01  -0.00  -0.00
  44   1     0.00  -0.00   0.01     0.01  -0.03   0.04     0.00   0.00  -0.01
  45   1     0.00  -0.00   0.00     0.01  -0.01   0.02    -0.00   0.00  -0.00
  46   6    -0.00  -0.00   0.00     0.00   0.01  -0.01    -0.01   0.00  -0.01
  47   8    -0.00  -0.00   0.00     0.00   0.01  -0.01    -0.01  -0.01  -0.01
  48   7     0.00  -0.01  -0.00    -0.00  -0.01   0.00     0.01  -0.01  -0.02
  49   1    -0.00   0.01  -0.00     0.00  -0.00   0.00     0.01  -0.01   0.00
  50   1    -0.01   0.02  -0.00    -0.00  -0.00   0.00    -0.01   0.03  -0.01
  51   7    -0.00  -0.00   0.01     0.01  -0.01  -0.01     0.01  -0.01   0.01
  52   1     0.00  -0.00   0.00    -0.00   0.01  -0.00    -0.00   0.02  -0.00
  53   1    -0.00  -0.00   0.00    -0.00   0.00  -0.00    -0.00   0.01   0.00
                     37                     38                     39
                        a                      a                      a 
 Frequencies --   390.2297               402.4160               425.7552
 Red. masses --     7.4157                 3.0588                 3.3362
 Frc consts  --     0.0000                 0.0000                 0.0000
 IR Inten    --     6.2761               195.0287               357.6715
 Raman Activ --     0.0000                 0.0000                 0.0000
 Depolar     --     0.0000                 0.0000                 0.0000
 Atom AN      X      Y      Z        X      Y      Z        X      Y      Z
   1   8     0.07  -0.02  -0.08     0.02  -0.02  -0.02    -0.01  -0.00   0.00
   2   6     0.07  -0.01  -0.18     0.00   0.01  -0.01    -0.00  -0.01  -0.01
   3   1     0.03  -0.02  -0.13    -0.00   0.00  -0.01     0.00  -0.00  -0.01
   4   1    -0.01   0.07  -0.05     0.00   0.00  -0.00     0.00  -0.00  -0.00
   5   6    -0.01  -0.29  -0.07    -0.01  -0.02  -0.00     0.01  -0.01  -0.00
   6   1    -0.13  -0.11  -0.07    -0.02  -0.01   0.01    -0.00  -0.00  -0.00
   7   1     0.05  -0.20  -0.00     0.00  -0.02   0.00     0.00  -0.01   0.01
   8   7    -0.01  -0.02   0.01    -0.00  -0.01  -0.00     0.02   0.00  -0.01
   9   6    -0.18   0.25   0.23    -0.02   0.02   0.01     0.01   0.02   0.01
  10   1    -0.10   0.06   0.01    -0.01   0.01   0.00    -0.00   0.01   0.00
  11   1    -0.13   0.14   0.08    -0.01   0.01   0.00    -0.00   0.01   0.00
  12   1     0.02   0.09   0.17     0.00   0.01   0.01     0.01   0.01   0.01
  13   6     0.29   0.12   0.32     0.02   0.02   0.01     0.01  -0.01  -0.00
  14   1     0.10   0.03   0.06     0.02   0.00   0.01    -0.00  -0.00   0.00
  15   1     0.03   0.06   0.21     0.00   0.02   0.00     0.00  -0.00   0.00
  16   1     0.20   0.05   0.09     0.01   0.00   0.00     0.01  -0.00  -0.00
  17   6    -0.16  -0.07  -0.23    -0.00  -0.02  -0.02    -0.02   0.00  -0.01
  18   1     0.00  -0.00  -0.22     0.00  -0.01  -0.01    -0.01   0.01  -0.01
  19   1     0.03   0.01   0.02     0.00  -0.00  -0.00    -0.01  -0.01   0.00
  20   1    -0.20  -0.07  -0.06    -0.01  -0.01  -0.00    -0.02   0.00  -0.00
  21   1     0.01   0.00   0.03     0.01   0.01   0.03    -0.01   0.00   0.03
  22   6    -0.00  -0.01  -0.00     0.01   0.01   0.04    -0.02  -0.04  -0.09
  23   8     0.00  -0.01  -0.02     0.01  -0.00   0.04    -0.01  -0.01  -0.10
  24   7    -0.02  -0.01  -0.02     0.02  -0.03  -0.05    -0.08   0.10   0.19
  25   1    -0.02   0.00   0.00    -0.02   0.01   0.02     0.05  -0.04  -0.08
  26   1    -0.02   0.04   0.04    -0.01   0.05   0.05     0.05  -0.21  -0.22
  27   7    -0.01  -0.01   0.01    -0.02  -0.04  -0.07     0.07   0.12   0.22
  28   1    -0.00  -0.01  -0.02     0.01   0.12   0.19    -0.05  -0.41  -0.62
  29   1    -0.00  -0.01  -0.00    -0.00   0.01   0.03    -0.02   0.02  -0.04
  30   6    -0.01   0.01   0.01    -0.00   0.01   0.00     0.01  -0.01  -0.00
  31   8    -0.01   0.01   0.01    -0.00   0.00  -0.00     0.01  -0.01   0.00
  32   7     0.00  -0.00  -0.01     0.01  -0.01  -0.00    -0.02   0.03   0.02
  33   1     0.00  -0.00  -0.00     0.00  -0.00   0.00    -0.01   0.01   0.01
  34   1    -0.01   0.03   0.00    -0.01   0.03   0.01     0.06  -0.12  -0.04
  35   7     0.02  -0.01   0.00    -0.00  -0.01  -0.00    -0.01   0.03   0.01
  36   1     0.00   0.00   0.01    -0.00   0.00  -0.00     0.01  -0.03  -0.01
  37   1     0.00   0.01  -0.00    -0.00   0.00   0.00     0.01  -0.02  -0.00
  38   6     0.00  -0.00  -0.01    -0.01   0.03  -0.04     0.01  -0.01  -0.02
  39   8    -0.00   0.01  -0.01    -0.01   0.03  -0.04     0.00  -0.02  -0.02
  40   7     0.01   0.01   0.00     0.02  -0.00   0.07     0.02   0.02   0.00
  41   1     0.00   0.00   0.01    -0.00   0.03  -0.03    -0.01   0.01   0.01
  42   1     0.00   0.01  -0.00    -0.02   0.06  -0.10     0.02   0.01   0.01
  43   7    -0.01   0.01   0.00    -0.00  -0.00   0.02    -0.03   0.01   0.02
  44   1    -0.00  -0.01   0.01     0.00  -0.03   0.04    -0.02  -0.02   0.02
  45   1    -0.00   0.01   0.00    -0.01   0.02   0.00    -0.01   0.02   0.02
  46   6    -0.01   0.01   0.00     0.05  -0.15   0.02     0.03  -0.05   0.03
  47   8    -0.00   0.00   0.00     0.01  -0.05   0.00     0.03  -0.02   0.03
  48   7     0.01  -0.02  -0.00    -0.06   0.18  -0.05    -0.03   0.08   0.02
  49   1    -0.00   0.01  -0.00     0.04  -0.12   0.02    -0.04   0.10  -0.04
  50   1    -0.00   0.01  -0.00     0.02  -0.04  -0.00     0.11  -0.24   0.04
  51   7     0.01  -0.02   0.00    -0.09   0.24  -0.02    -0.06   0.09  -0.04
  52   1    -0.02   0.06  -0.01     0.29  -0.79   0.12     0.06  -0.21   0.02
  53   1    -0.00   0.01  -0.00     0.04  -0.09   0.01     0.02  -0.03  -0.01
                     40                     41                     42
                        a                      a                      a 
 Frequencies --   429.9226               460.6649               463.3053
 Red. masses --     8.6393                 8.0108                 7.3593
 Frc consts  --     0.0000                 0.0000                 0.0000
 IR Inten    --     2.4673                14.4121                35.6462
 Raman Activ --     0.0000                 0.0000                 0.0000
 Depolar     --     0.0000                 0.0000                 0.0000
 Atom AN      X      Y      Z        X      Y      Z        X      Y      Z
   1   8     0.22  -0.04  -0.15    -0.03  -0.01   0.02     0.01  -0.01   0.00
   2   6     0.07   0.09   0.10     0.05  -0.08  -0.13     0.02  -0.02  -0.03
   3   1     0.01   0.03   0.06     0.02  -0.02  -0.02     0.01  -0.01  -0.01
   4   1     0.03  -0.02   0.03     0.04  -0.03  -0.05     0.01  -0.00  -0.01
   5   6    -0.19  -0.05  -0.05    -0.04  -0.08  -0.19    -0.00  -0.01  -0.05
   6   1    -0.17  -0.04  -0.06    -0.11  -0.05  -0.13     0.01  -0.00  -0.02
   7   1     0.02  -0.14  -0.03     0.03  -0.13  -0.00    -0.00  -0.00  -0.01
   8   7    -0.30   0.12   0.01     0.07   0.30  -0.10    -0.03   0.03  -0.02
   9   6    -0.15  -0.32  -0.00     0.17  -0.13   0.11    -0.02  -0.03   0.02
  10   1     0.08  -0.10   0.04     0.18  -0.04   0.07     0.01  -0.01   0.01
  11   1    -0.05  -0.14  -0.01    -0.02  -0.09   0.03    -0.02  -0.02   0.00
  12   1    -0.10  -0.17  -0.02     0.01  -0.12   0.05    -0.01  -0.02   0.01
  13   6    -0.11   0.27   0.17    -0.13  -0.28   0.20     0.00  -0.00   0.05
  14   1    -0.00   0.07  -0.00    -0.17  -0.05   0.18    -0.00   0.00   0.02
  15   1    -0.06   0.08   0.12    -0.01  -0.16   0.04    -0.01   0.00   0.03
  16   1     0.04   0.11   0.05     0.00  -0.19   0.03     0.02  -0.01   0.01
  17   6     0.39   0.04  -0.09    -0.06   0.37   0.03     0.03   0.03   0.02
  18   1     0.15  -0.14   0.03    -0.01   0.11  -0.01     0.01  -0.01   0.02
  19   1     0.18   0.16  -0.09    -0.02   0.06   0.06     0.01   0.01   0.01
  20   1     0.20  -0.01  -0.03    -0.06   0.13   0.02     0.02   0.02   0.01
  21   1     0.08  -0.01  -0.06    -0.03  -0.00   0.03    -0.00   0.00   0.02
  22   6     0.01  -0.01  -0.00    -0.05   0.03  -0.03    -0.02  -0.00  -0.01
  23   8     0.02   0.00  -0.01    -0.08  -0.02   0.00    -0.02   0.00  -0.02
  24   7    -0.02   0.02  -0.01     0.05  -0.06   0.02    -0.01  -0.00   0.05
  25   1    -0.02  -0.00  -0.01     0.08   0.05   0.11     0.02  -0.03  -0.04
  26   1    -0.00   0.02  -0.00    -0.00  -0.11   0.01     0.00  -0.03  -0.00
  27   7    -0.02  -0.00   0.02     0.06   0.06  -0.03     0.03   0.03   0.03
  28   1    -0.01  -0.04  -0.04     0.03   0.07   0.01    -0.00  -0.07  -0.12
  29   1    -0.01  -0.00  -0.01     0.04  -0.01  -0.00     0.01   0.01   0.01
  30   6     0.01   0.01   0.01    -0.08  -0.02  -0.01    -0.01  -0.00  -0.00
  31   8    -0.00   0.01  -0.01    -0.04  -0.03   0.09    -0.00  -0.00   0.01
  32   7     0.00  -0.01   0.03    -0.01   0.02  -0.11    -0.00   0.00  -0.01
  33   1     0.00  -0.01   0.01     0.02   0.01  -0.03    -0.00   0.01  -0.00
  34   1    -0.01   0.01   0.01    -0.02   0.01  -0.06     0.01  -0.02  -0.01
  35   7    -0.02  -0.01   0.01     0.10   0.04   0.02     0.01   0.01   0.00
  36   1    -0.01  -0.01  -0.02     0.05   0.04   0.09     0.00   0.01   0.01
  37   1    -0.02   0.00   0.02     0.09   0.01  -0.07     0.01  -0.01  -0.01
  38   6     0.01  -0.02  -0.02     0.03  -0.04  -0.01    -0.10   0.12   0.15
  39   8     0.00  -0.01  -0.02    -0.00  -0.05  -0.03     0.02   0.21   0.15
  40   7     0.02   0.03   0.02     0.04   0.07  -0.03    -0.18  -0.21  -0.13
  41   1    -0.01   0.02   0.01    -0.02   0.03   0.03     0.01  -0.08  -0.11
  42   1     0.02   0.02  -0.00     0.07  -0.03   0.11    -0.10  -0.20   0.15
  43   7    -0.03   0.00   0.02    -0.06   0.02   0.01     0.22   0.01  -0.16
  44   1    -0.03  -0.00  -0.01    -0.05  -0.02   0.02     0.24   0.09  -0.05
  45   1    -0.01   0.02   0.01    -0.01   0.04   0.04     0.07  -0.23  -0.07
  46   6     0.00  -0.00   0.01    -0.01   0.00   0.02     0.05   0.01  -0.17
  47   8     0.00  -0.01   0.01    -0.00   0.01   0.02    -0.07  -0.02  -0.20
  48   7     0.01   0.00  -0.00     0.02   0.01  -0.02    -0.18  -0.02   0.13
  49   1    -0.00   0.00  -0.00     0.02  -0.06  -0.01     0.10  -0.21   0.25
  50   1     0.01  -0.00   0.00    -0.00   0.05  -0.01    -0.28   0.11  -0.00
  51   7    -0.00  -0.00  -0.00    -0.02  -0.02  -0.01     0.19   0.06   0.13
  52   1    -0.01   0.01  -0.00    -0.00  -0.05   0.00     0.17  -0.02   0.06
  53   1     0.00  -0.00  -0.00    -0.00   0.01  -0.01    -0.02   0.06   0.11
                     43                     44                     45
                        a                      a                      a 
 Frequencies --   465.0557               469.8581               472.3853
 Red. masses --     2.4590                 3.5174                 5.5715
 Frc consts  --     0.0000                 0.0000                 0.0000
 IR Inten    --    32.0744                 0.4148                35.7561
 Raman Activ --     0.0000                 0.0000                 0.0000
 Depolar     --     0.0000                 0.0000                 0.0000
 Atom AN      X      Y      Z        X      Y      Z        X      Y      Z
   1   8    -0.02   0.01   0.01    -0.01  -0.00   0.00     0.00   0.01   0.00
   2   6     0.01  -0.02  -0.03     0.02  -0.02  -0.04    -0.01   0.01   0.02
   3   1     0.00  -0.00  -0.00     0.01  -0.00  -0.00    -0.00   0.01   0.02
   4   1     0.01  -0.01  -0.01     0.01  -0.01  -0.02     0.00  -0.01   0.01
   5   6     0.00   0.01  -0.05    -0.01  -0.00  -0.06     0.00   0.04   0.02
   6   1     0.01   0.00  -0.02     0.00  -0.00  -0.02     0.04   0.02   0.03
   7   1    -0.00   0.01  -0.01    -0.00  -0.00  -0.01    -0.02   0.05  -0.01
   8   7     0.01   0.03  -0.04    -0.01   0.04  -0.04    -0.03  -0.08  -0.01
   9   6     0.01  -0.02   0.02    -0.01  -0.03   0.02    -0.07   0.01  -0.01
  10   1     0.02  -0.01   0.02     0.02  -0.01   0.02    -0.05   0.01  -0.01
  11   1    -0.01  -0.01   0.01    -0.02  -0.02   0.01    -0.02   0.01  -0.00
  12   1     0.00  -0.01   0.01    -0.00  -0.02   0.02    -0.00   0.02  -0.00
  13   6    -0.01  -0.07   0.03    -0.01  -0.04   0.05     0.05   0.08  -0.05
  14   1    -0.03  -0.01   0.02    -0.03  -0.01   0.03     0.03   0.01  -0.07
  15   1     0.00  -0.04   0.02    -0.00  -0.03   0.03     0.00   0.03   0.02
  16   1     0.01  -0.03   0.00     0.02  -0.02   0.01     0.03   0.07  -0.00
  17   6    -0.01   0.06   0.03     0.01   0.06   0.03     0.05  -0.09  -0.00
  18   1    -0.01   0.02   0.02     0.00   0.01   0.02     0.00  -0.03   0.04
  19   1    -0.01  -0.00   0.01    -0.00   0.01   0.01    -0.00  -0.02  -0.04
  20   1     0.00   0.03   0.01     0.02   0.03   0.01     0.06  -0.03  -0.00
  21   1    -0.01  -0.00   0.00    -0.01   0.00   0.03     0.01  -0.00  -0.02
  22   6     0.03  -0.01   0.09     0.04  -0.01   0.04     0.00  -0.03   0.00
  23   8     0.09   0.13   0.03     0.07   0.04   0.03     0.02  -0.00  -0.02
  24   7    -0.06   0.06   0.11    -0.02   0.03  -0.06    -0.03   0.02  -0.01
  25   1    -0.10  -0.39  -0.70    -0.07  -0.04  -0.09    -0.02   0.03   0.05
  26   1    -0.02   0.37   0.16    -0.00   0.13   0.03     0.01  -0.02  -0.04
  27   7    -0.01  -0.14  -0.05    -0.07  -0.09  -0.03     0.00  -0.01   0.04
  28   1    -0.02  -0.08  -0.06    -0.01   0.07   0.16    -0.00  -0.03  -0.02
  29   1    -0.03   0.03   0.06    -0.02  -0.03  -0.02    -0.00  -0.00   0.01
  30   6    -0.01  -0.01  -0.01    -0.06  -0.02   0.01    -0.21  -0.06   0.05
  31   8    -0.00  -0.01   0.02    -0.05  -0.03   0.06    -0.17  -0.09   0.19
  32   7    -0.01   0.02  -0.01     0.00   0.02  -0.09     0.04   0.04  -0.32
  33   1    -0.00   0.02   0.00     0.04   0.02  -0.02     0.10   0.18  -0.04
  34   1     0.03  -0.06  -0.04    -0.02   0.01  -0.06    -0.00  -0.06  -0.25
  35   7     0.01   0.02   0.01     0.07   0.02   0.04     0.19   0.10   0.15
  36   1     0.01   0.00   0.01     0.04   0.03   0.07     0.07   0.25   0.32
  37   1     0.02  -0.01  -0.02     0.07  -0.00  -0.05     0.38  -0.27  -0.23
  38   6     0.02  -0.02  -0.01    -0.06   0.08   0.07    -0.00  -0.00  -0.02
  39   8    -0.01  -0.04  -0.01     0.01   0.12   0.07     0.01  -0.01  -0.01
  40   7     0.02   0.04  -0.00    -0.09  -0.12  -0.04     0.01  -0.01   0.05
  41   1    -0.01   0.01   0.02     0.02  -0.06  -0.05     0.01  -0.01   0.00
  42   1     0.03  -0.00   0.04    -0.09  -0.06  -0.02    -0.04   0.08  -0.14
  43   7    -0.04   0.01   0.01     0.12  -0.01  -0.06    -0.00  -0.02   0.03
  44   1    -0.03  -0.01   0.00     0.13   0.04  -0.02    -0.02  -0.00  -0.01
  45   1    -0.00   0.02   0.02     0.03  -0.10  -0.06    -0.02   0.03  -0.02
  46   6    -0.01   0.01   0.03     0.03  -0.07  -0.03    -0.01   0.02   0.01
  47   8    -0.00   0.02   0.03     0.04  -0.09  -0.03    -0.01   0.02   0.01
  48   7     0.04   0.02  -0.03    -0.06  -0.03   0.05     0.02   0.00  -0.01
  49   1     0.05  -0.12  -0.00    -0.22   0.58  -0.10     0.04  -0.11   0.02
  50   1    -0.01   0.11  -0.02     0.18  -0.47   0.07    -0.03   0.10  -0.01
  51   7    -0.02  -0.04  -0.04    -0.01   0.13   0.01     0.00  -0.03  -0.00
  52   1    -0.03  -0.03  -0.01     0.02   0.06   0.00    -0.01   0.01  -0.00
  53   1    -0.00   0.01  -0.04     0.02  -0.05   0.04    -0.00   0.01  -0.01
                     46                     47                     48
                        a                      a                      a 
 Frequencies --   477.0831               477.4306               482.0504
 Red. masses --     2.8000                 5.0765                 7.7879
 Frc consts  --     0.0000                 0.0000                 0.0000
 IR Inten    --   198.6902                10.9835                20.8184
 Raman Activ --     0.0000                 0.0000                 0.0000
 Depolar     --     0.0000                 0.0000                 0.0000
 Atom AN      X      Y      Z        X      Y      Z        X      Y      Z
   1   8    -0.01   0.00   0.00    -0.01   0.01   0.01     0.03  -0.01  -0.02
   2   6     0.01  -0.02  -0.01     0.00  -0.01  -0.01    -0.02   0.04   0.07
   3   1     0.01  -0.00  -0.01    -0.00  -0.00   0.00    -0.01   0.01   0.00
   4   1     0.00  -0.00  -0.00     0.01  -0.00  -0.01    -0.02   0.02   0.03
   5   6    -0.00  -0.03  -0.02     0.01   0.04  -0.02    -0.01  -0.03   0.10
   6   1    -0.02  -0.01  -0.01     0.04   0.02   0.01    -0.02  -0.01   0.03
   7   1     0.01  -0.03   0.00    -0.01   0.04  -0.01     0.01  -0.02   0.02
   8   7     0.01   0.05  -0.00    -0.01  -0.04  -0.02     0.00  -0.05   0.08
   9   6     0.04  -0.02   0.00    -0.04   0.01   0.00     0.01   0.03  -0.04
  10   1     0.03  -0.01   0.00    -0.02   0.00   0.00    -0.03   0.01  -0.03
  11   1     0.01  -0.01   0.00    -0.02   0.00   0.00     0.04   0.02  -0.01
  12   1     0.00  -0.02   0.00    -0.00   0.01   0.01    -0.00   0.02  -0.03
  13   6    -0.04  -0.04   0.02     0.03   0.01  -0.01    -0.00   0.11  -0.08
  14   1    -0.04  -0.01   0.03     0.01  -0.00  -0.03     0.04   0.02  -0.06
  15   1    -0.00  -0.03  -0.00     0.00  -0.00   0.02    -0.00   0.04  -0.04
  16   1    -0.01  -0.03   0.00     0.03   0.03   0.00    -0.03   0.06  -0.01
  17   6    -0.01   0.06  -0.01     0.01  -0.03   0.03     0.02  -0.09  -0.08
  18   1    -0.00   0.02  -0.01    -0.01  -0.01   0.04     0.01  -0.02  -0.04
  19   1    -0.00   0.01   0.00    -0.02  -0.02  -0.01     0.01   0.00  -0.05
  20   1    -0.01   0.01  -0.00     0.04   0.00   0.01     0.01  -0.06  -0.03
  21   1    -0.01   0.00   0.03    -0.00  -0.00  -0.01     0.02  -0.00  -0.03
  22   6    -0.02   0.01  -0.00     0.10  -0.06   0.04    -0.21   0.10  -0.05
  23   8    -0.02   0.01  -0.00     0.15   0.01   0.00    -0.29   0.01  -0.00
  24   7     0.00  -0.01   0.03    -0.07   0.12  -0.11     0.08  -0.23   0.20
  25   1     0.02  -0.03  -0.04    -0.14   0.08   0.10     0.24  -0.14  -0.16
  26   1    -0.00  -0.02   0.01     0.03   0.06  -0.14    -0.06  -0.13   0.23
  27   7     0.03   0.02   0.00    -0.14  -0.09   0.09     0.28   0.15  -0.17
  28   1     0.00  -0.03  -0.07    -0.07  -0.11   0.03     0.14   0.21  -0.07
  29   1     0.01   0.01   0.02    -0.09   0.02  -0.02     0.18  -0.05   0.03
  30   6    -0.02  -0.05   0.00    -0.11  -0.12   0.03    -0.06  -0.07   0.03
  31   8    -0.03  -0.04   0.01    -0.12  -0.12   0.07    -0.07  -0.07   0.05
  32   7    -0.01   0.07  -0.05     0.00   0.16  -0.19     0.01   0.09  -0.12
  33   1     0.05  -0.04  -0.03     0.17  -0.07  -0.07     0.08   0.02  -0.03
  34   1    -0.03   0.05  -0.03    -0.10   0.14  -0.12    -0.02   0.02  -0.11
  35   7     0.07  -0.01   0.03     0.20  -0.02   0.12     0.11   0.00   0.09
  36   1     0.08  -0.18  -0.03     0.18  -0.29   0.03     0.09  -0.13   0.04
[...]
  44   1     0.00  -0.00  -0.00     0.00  -0.00  -0.00    -0.00   0.01   0.01
  45   1    -0.01  -0.00   0.00    -0.00  -0.00   0.00     0.02   0.00  -0.01
  46   6     0.00   0.01   0.02     0.00   0.00  -0.00     0.00   0.00  -0.00
  47   8     0.00  -0.00  -0.01    -0.00  -0.00   0.00    -0.00  -0.00  -0.00
  48   7     0.00  -0.00  -0.00     0.00  -0.00  -0.00     0.00  -0.00   0.00
  49   1    -0.02  -0.00   0.01    -0.00  -0.00   0.00     0.00   0.00  -0.00
  50   1     0.00  -0.00  -0.01     0.00   0.00  -0.00    -0.00   0.00   0.00
  51   7     0.09   0.04   0.05    -0.00  -0.00  -0.00    -0.01  -0.01  -0.00
  52   1    -0.00   0.01   0.06     0.00   0.00  -0.00     0.00  -0.00  -0.01
  53   1    -0.34  -0.17  -0.24     0.00   0.00   0.00     0.04   0.02   0.03
                    142                    143                    144
                        a                      a                      a 
 Frequencies --  3493.3929              3495.1382              3501.0962
 Red. masses --     1.4590                 1.4505                 1.4481
 Frc consts  --     0.0000                 0.0000                 0.0000
 IR Inten    --    16.3363                28.8318                20.7605
 Raman Activ --     0.0000                 0.0000                 0.0000
 Depolar     --     0.0000                 0.0000                 0.0000
 Atom AN      X      Y      Z        X      Y      Z        X      Y      Z
   1   8    -0.00  -0.00   0.00     0.00  -0.00   0.00    -0.00   0.00  -0.00
   2   6     0.00  -0.00  -0.00    -0.00  -0.00   0.00    -0.00   0.00   0.00
   3   1    -0.00   0.00  -0.00    -0.00   0.00  -0.00    -0.00  -0.00   0.00
   4   1     0.00   0.00   0.00     0.00   0.00  -0.00    -0.00  -0.00  -0.00
   5   6    -0.00  -0.00  -0.00     0.00  -0.00   0.00     0.00   0.00   0.00
   6   1    -0.00   0.00  -0.00     0.00   0.00  -0.00    -0.00  -0.00  -0.00
   7   1     0.00   0.00   0.00    -0.00  -0.00  -0.00     0.00  -0.00  -0.00
   8   7     0.00   0.00  -0.00     0.00  -0.00  -0.00    -0.00  -0.00  -0.00
   9   6    -0.00   0.00   0.00    -0.00  -0.00   0.00    -0.00  -0.00  -0.00
  10   1     0.00   0.00  -0.00    -0.00   0.00  -0.00     0.00   0.00  -0.00
  11   1    -0.00  -0.00   0.00    -0.00  -0.00   0.00    -0.00  -0.00   0.00
  12   1    -0.00  -0.00  -0.00     0.00  -0.00  -0.00     0.00  -0.00  -0.00
  13   6    -0.00  -0.00  -0.00    -0.00  -0.00   0.00    -0.00   0.00  -0.00
  14   1    -0.00  -0.00  -0.00     0.00   0.00  -0.00    -0.00   0.00  -0.00
  15   1     0.00   0.00   0.00     0.00   0.00   0.00     0.00   0.00   0.00
  16   1     0.00  -0.00   0.00    -0.00   0.00  -0.00     0.00  -0.00   0.00
  17   6    -0.00  -0.00  -0.00    -0.00   0.00   0.00    -0.00   0.00  -0.00
  18   1     0.00   0.00   0.00     0.00   0.00   0.00     0.00  -0.00   0.00
  19   1    -0.00   0.00   0.00     0.00  -0.00  -0.00     0.00  -0.00  -0.00
  20   1    -0.00  -0.00   0.00    -0.00   0.00  -0.00    -0.00  -0.00   0.00
  21   1    -0.00   0.00  -0.00    -0.01   0.02  -0.00     0.00  -0.00   0.00
  22   6     0.00   0.00   0.00     0.00   0.00  -0.00     0.00  -0.00   0.00
  23   8    -0.00   0.00  -0.00    -0.00  -0.00   0.00    -0.00   0.00  -0.00
  24   7     0.15   0.11  -0.01    -0.00  -0.00   0.00     0.00   0.00  -0.00
  25   1     0.12  -0.56   0.31    -0.00   0.00  -0.00     0.00  -0.00   0.00
  26   1    -0.66   0.13  -0.29     0.00  -0.00   0.00    -0.00   0.00  -0.00
  27   7    -0.01  -0.00   0.00     0.00  -0.00   0.00    -0.00   0.00  -0.00
  28   1     0.04  -0.01   0.00    -0.00   0.00  -0.00     0.00  -0.00   0.00
  29   1     0.01   0.01  -0.00     0.00   0.00  -0.00    -0.00  -0.00   0.00
  30   6    -0.00  -0.00  -0.00     0.00   0.00  -0.00    -0.00  -0.00   0.00
  31   8     0.00   0.00  -0.00    -0.00  -0.00   0.00     0.00   0.00  -0.00
  32   7    -0.00  -0.00  -0.00     0.00  -0.00   0.00     0.00   0.01  -0.01
  33   1    -0.00  -0.00   0.01     0.00   0.00  -0.00    -0.00  -0.01   0.02
  34   1     0.01   0.01  -0.00    -0.00  -0.00   0.00    -0.02  -0.02   0.01
  35   7     0.00   0.00  -0.00    -0.00  -0.00  -0.00    -0.03  -0.04   0.18
  36   1    -0.00  -0.00   0.00    -0.00  -0.00   0.00     0.62   0.28  -0.24
  37   1     0.00   0.00   0.00     0.00   0.00   0.00    -0.50  -0.14  -0.42
  38   6     0.00   0.00  -0.00     0.00   0.00   0.00    -0.00  -0.00   0.00
  39   8    -0.00  -0.00  -0.00     0.00  -0.00  -0.00     0.00   0.00  -0.00
  40   7    -0.00  -0.00  -0.00     0.00  -0.02  -0.01     0.00   0.00  -0.00
  41   1     0.00   0.00   0.00     0.01   0.01   0.01    -0.00  -0.00  -0.00
  42   1     0.00  -0.00  -0.00    -0.02   0.04   0.03     0.00  -0.00   0.00
  43   7     0.00   0.00   0.00     0.11   0.15   0.03     0.00   0.00   0.00
  44   1     0.00  -0.00  -0.00     0.25  -0.50  -0.41     0.00  -0.00  -0.00
  45   1    -0.00  -0.00   0.00    -0.64  -0.05   0.28    -0.00  -0.00   0.00
  46   6     0.00   0.00  -0.00     0.00   0.00   0.00    -0.00  -0.00   0.00
  47   8    -0.00  -0.00   0.00    -0.00  -0.00  -0.00     0.00   0.00  -0.00
  48   7     0.00   0.00   0.00    -0.00  -0.00  -0.00    -0.00  -0.00  -0.00
  49   1    -0.00  -0.00   0.00     0.00   0.00  -0.00     0.00   0.00  -0.00
  50   1     0.00  -0.00  -0.00    -0.00   0.00   0.00    -0.00   0.00   0.00
  51   7    -0.00  -0.00  -0.00    -0.00  -0.00   0.00     0.00   0.00  -0.00
  52   1     0.00   0.00  -0.00     0.00  -0.00  -0.01    -0.00   0.00   0.00
  53   1     0.00   0.00   0.00     0.01   0.00   0.01     0.00  -0.00   0.00
                    145                    146                    147
                        a                      a                      a 
 Frequencies --  3503.8790              3520.6418              3521.9546
 Red. masses --     1.4515                 1.8905                 1.9066
 Frc consts  --     0.0000                 0.0000                 0.0000
 IR Inten    --    21.6507                13.3695                11.4857
 Raman Activ --     0.0000                 0.0000                 0.0000
 Depolar     --     0.0000                 0.0000                 0.0000
 Atom AN      X      Y      Z        X      Y      Z        X      Y      Z
   1   8     0.00  -0.00   0.00     0.00  -0.00   0.00     0.00  -0.00   0.00
   2   6    -0.00   0.00  -0.00    -0.00  -0.00   0.00    -0.00   0.00  -0.00
   3   1     0.00  -0.00   0.00    -0.00   0.00  -0.00     0.00  -0.00   0.00
   4   1    -0.00   0.00   0.00     0.00  -0.00  -0.00    -0.00   0.00  -0.00
   5   6     0.00  -0.00  -0.00     0.00   0.00   0.00     0.00  -0.00   0.00
   6   1    -0.00  -0.00  -0.00     0.00  -0.00   0.00    -0.00   0.00  -0.00
   7   1    -0.00   0.00  -0.00    -0.00   0.00  -0.00     0.00  -0.00  -0.00
   8   7    -0.00   0.00  -0.00     0.00  -0.00  -0.00     0.00  -0.00   0.00
   9   6    -0.00  -0.00  -0.00    -0.00  -0.00   0.00     0.00   0.00   0.00
  10   1    -0.00  -0.00  -0.00     0.00   0.00   0.00    -0.00   0.00   0.00
  11   1     0.00   0.00   0.00    -0.00   0.00  -0.00     0.00   0.00  -0.00
  12   1    -0.00   0.00   0.00     0.00  -0.00  -0.00    -0.00   0.00  -0.00
  13   6    -0.00  -0.00  -0.00     0.00  -0.00   0.00    -0.00  -0.00  -0.00
  14   1    -0.00  -0.00  -0.00    -0.00   0.00  -0.00    -0.00   0.00  -0.00
  15   1     0.00   0.00   0.00    -0.00  -0.00  -0.00     0.00   0.00   0.00
  16   1     0.00   0.00  -0.00     0.00  -0.00  -0.00    -0.00  -0.00   0.00
  17   6    -0.00  -0.00   0.00    -0.00  -0.00   0.00     0.00   0.00   0.00
  18   1     0.00   0.00  -0.00     0.00   0.00   0.00    -0.00  -0.00  -0.00
  19   1    -0.00   0.00   0.00     0.00  -0.00  -0.00    -0.00  -0.00  -0.00
  20   1     0.00  -0.00  -0.00    -0.00   0.00  -0.00     0.00  -0.00   0.00
  21   1    -0.00   0.00  -0.00    -0.00   0.00  -0.00    -0.00   0.00  -0.00
  22   6     0.00  -0.00   0.00     0.00   0.00  -0.00    -0.01  -0.00   0.00
  23   8    -0.00   0.00  -0.00    -0.00  -0.00   0.00     0.00  -0.00  -0.00
  24   7     0.00   0.00  -0.00    -0.00   0.00  -0.00     0.01  -0.02   0.01
  25   1     0.00  -0.00   0.00     0.00  -0.01   0.01    -0.01   0.07  -0.04
  26   1    -0.00   0.00  -0.00     0.00  -0.00   0.00    -0.01   0.00  -0.01
  27   7    -0.01  -0.00   0.00     0.03  -0.01   0.00    -0.25   0.06  -0.03
  28   1     0.01  -0.01   0.00    -0.12   0.04  -0.02     0.89  -0.30   0.11
  29   1     0.02   0.01  -0.01    -0.00  -0.01   0.00     0.06   0.07  -0.03
  30   6     0.00   0.00  -0.00    -0.00   0.00  -0.00     0.00   0.00   0.00
  31   8    -0.00  -0.00   0.00    -0.00  -0.00   0.00     0.00  -0.00  -0.00
  32   7    -0.00  -0.00  -0.00     0.00   0.00   0.00    -0.00  -0.00  -0.00
  33   1     0.00  -0.00   0.00     0.00   0.00  -0.00    -0.00  -0.00   0.00
  34   1     0.00   0.00  -0.00    -0.00  -0.00   0.00     0.00   0.00  -0.00
  35   7    -0.00  -0.00  -0.00    -0.00  -0.00   0.00    -0.00   0.00  -0.00
  36   1    -0.00  -0.00   0.00     0.00   0.00  -0.00    -0.00  -0.00   0.00
  37   1     0.00   0.00   0.00     0.00   0.00   0.00     0.00   0.00   0.00
  38   6    -0.00  -0.00  -0.00     0.00   0.01   0.00     0.00   0.00   0.00
  39   8     0.00   0.00   0.00     0.00  -0.00  -0.00     0.00  -0.00  -0.00
  40   7     0.00  -0.00  -0.00    -0.08   0.20   0.14    -0.01   0.03   0.02
  41   1    -0.00  -0.01  -0.00    -0.06  -0.04  -0.02    -0.01  -0.01  -0.01
  42   1    -0.00   0.01   0.01     0.37  -0.73  -0.48     0.05  -0.10  -0.06
  43   7    -0.00  -0.00   0.00     0.02   0.00  -0.01     0.00   0.00  -0.00
  44   1    -0.00   0.00   0.00    -0.00   0.00   0.00     0.00   0.00  -0.00
  45   1     0.00   0.00  -0.00    -0.08  -0.01   0.03    -0.01  -0.00   0.00
  46   6    -0.00  -0.00  -0.00    -0.00   0.00   0.00    -0.00   0.00   0.00
  47   8    -0.00   0.00   0.00     0.00  -0.00  -0.00     0.00  -0.00  -0.00
  48   7    -0.13  -0.06  -0.12    -0.00  -0.00  -0.00     0.00   0.00   0.00
  49   1     0.58   0.15  -0.28     0.00   0.00  -0.00    -0.01  -0.00   0.00
  50   1    -0.10   0.05   0.72    -0.00   0.00   0.01     0.00  -0.00  -0.02
  51   7     0.00   0.00   0.02     0.00   0.00   0.00     0.00   0.00  -0.00
  52   1     0.01  -0.00  -0.05     0.00  -0.00  -0.01    -0.00   0.00   0.00
  53   1    -0.01  -0.01  -0.01    -0.00  -0.00  -0.00    -0.00  -0.00  -0.00
                    148                    149                    150
                        a                      a                      a 
 Frequencies --  3537.7992              3540.7454              3556.1720
 Red. masses --     1.9058                 1.9854                 2.1695
 Frc consts  --     0.0000                 0.0000                 0.0000
 IR Inten    --    20.3020                14.1198                10.7840
 Raman Activ --     0.0000                 0.0000                 0.0000
 Depolar     --     0.0000                 0.0000                 0.0000
 Atom AN      X      Y      Z        X      Y      Z        X      Y      Z
   1   8     0.00  -0.00   0.00     0.00   0.00   0.00     0.00   0.00  -0.00
   2   6     0.00   0.00   0.00    -0.00   0.00  -0.00    -0.00  -0.00   0.00
   3   1     0.00  -0.00   0.00     0.00  -0.00  -0.00    -0.00   0.00  -0.00
   4   1    -0.00   0.00  -0.00     0.00  -0.00   0.00     0.00  -0.00  -0.00
   5   6     0.00  -0.00   0.00     0.00   0.00  -0.00    -0.00   0.00   0.00
   6   1     0.00   0.00   0.00    -0.00  -0.00   0.00     0.00  -0.00   0.00
   7   1    -0.00  -0.00  -0.00    -0.00  -0.00   0.00    -0.00  -0.00   0.00
   8   7     0.00   0.00  -0.00     0.00   0.00  -0.00     0.00  -0.00   0.00
   9   6     0.00  -0.00   0.00     0.00   0.00  -0.00    -0.00  -0.00  -0.00
  10   1     0.00   0.00  -0.00     0.00  -0.00   0.00     0.00   0.00   0.00
  11   1    -0.00   0.00  -0.00     0.00   0.00   0.00    -0.00   0.00  -0.00
  12   1    -0.00   0.00   0.00    -0.00   0.00   0.00     0.00   0.00   0.00
  13   6     0.00  -0.00   0.00     0.00   0.00   0.00     0.00   0.00   0.00
  14   1     0.00   0.00  -0.00     0.00  -0.00   0.00     0.00   0.00   0.00
  15   1    -0.00  -0.00  -0.00    -0.00  -0.00  -0.00    -0.00  -0.00  -0.00
  16   1    -0.00   0.00  -0.00     0.00   0.00  -0.00    -0.00   0.00  -0.00
  17   6     0.00  -0.00   0.00     0.00   0.00   0.00     0.00   0.00   0.00
  18   1     0.00  -0.00  -0.00    -0.00  -0.00  -0.00    -0.00   0.00  -0.00
  19   1    -0.00   0.00   0.00    -0.00  -0.00   0.00     0.00   0.00  -0.00
  20   1     0.00   0.00  -0.00     0.00  -0.00  -0.00     0.00   0.00  -0.00
  21   1    -0.00   0.01  -0.00     0.00  -0.00   0.00     0.00  -0.00   0.00
  22   6     0.00  -0.00   0.00     0.00  -0.00   0.00     0.01  -0.01   0.01
  23   8    -0.00   0.00  -0.00    -0.00   0.00  -0.00    -0.00   0.00  -0.00
  24   7    -0.00   0.00  -0.00    -0.01   0.01  -0.01     0.18  -0.18   0.15
  25   1     0.00  -0.00   0.00     0.00  -0.02   0.01    -0.10   0.62  -0.33
  26   1     0.00  -0.00   0.00     0.03  -0.00   0.01    -0.57   0.08  -0.24
  27   7     0.00  -0.00   0.00     0.00   0.00  -0.00     0.02  -0.00   0.00
  28   1    -0.00   0.00  -0.00    -0.00   0.00   0.00    -0.07   0.03  -0.01
  29   1    -0.00  -0.00   0.00    -0.00  -0.00   0.00    -0.01  -0.01   0.00
  30   6     0.00   0.00  -0.00    -0.00  -0.00   0.01    -0.00  -0.00   0.00
  31   8    -0.00  -0.00   0.00     0.00   0.00  -0.00    -0.00  -0.00  -0.00
  32   7    -0.00  -0.00   0.00    -0.19  -0.14   0.13    -0.01  -0.01   0.01
  33   1     0.00   0.00  -0.00    -0.01   0.04  -0.20    -0.00   0.00  -0.02
  34   1     0.00   0.00  -0.00     0.73   0.50  -0.30     0.03   0.02  -0.01
  35   7    -0.00  -0.00  -0.00     0.03   0.01   0.01     0.00   0.00   0.00
  36   1    -0.00  -0.00   0.00    -0.04  -0.02   0.02    -0.01  -0.00   0.00
  37   1     0.00   0.00   0.00    -0.07  -0.02  -0.06    -0.01  -0.00  -0.01
  38   6     0.00  -0.00  -0.00    -0.00  -0.00  -0.00    -0.00  -0.00   0.00
  39   8    -0.00   0.00   0.00     0.00   0.00   0.00    -0.00   0.00  -0.00
  40   7    -0.00   0.00   0.00     0.00   0.00   0.00    -0.00  -0.00  -0.00
  41   1    -0.00   0.00   0.00    -0.00  -0.00  -0.00     0.00   0.00   0.00
  42   1     0.00  -0.01  -0.01     0.00  -0.00  -0.00    -0.00   0.00   0.00
  43   7    -0.00   0.00   0.00    -0.00   0.00   0.00    -0.00   0.00   0.00
  44   1     0.00  -0.01  -0.01     0.00  -0.00  -0.00     0.00  -0.00  -0.00
  45   1     0.00   0.00  -0.00     0.00   0.00  -0.00     0.00   0.00  -0.00
  46   6    -0.00  -0.00  -0.01    -0.00  -0.00   0.00     0.00  -0.00  -0.00
  47   8     0.00   0.00   0.00     0.00   0.00  -0.00    -0.00  -0.00   0.00
  48   7    -0.02  -0.01   0.01    -0.00   0.00   0.00     0.00  -0.00  -0.00
  49   1     0.08   0.02  -0.04     0.00   0.00   0.00    -0.00  -0.00  -0.00
  50   1     0.00  -0.00  -0.01     0.00  -0.00  -0.00    -0.00   0.00   0.00
  51   7     0.02  -0.03  -0.26     0.00   0.00   0.00    -0.00  -0.00  -0.00
  52   1    -0.13   0.09   0.94     0.00  -0.00  -0.00    -0.00   0.00   0.00
  53   1     0.07   0.04   0.03    -0.00  -0.00  -0.00     0.00   0.00   0.00
                    151                    152                    153
                        a                      a                      a 
 Frequencies --  3560.4920              3567.8487              3569.9964
 Red. masses --     2.1862                 2.1824                 2.1829
 Frc consts  --     0.0000                 0.0000                 0.0000
 IR Inten    --    19.6547                12.1620                19.9056
 Raman Activ --     0.0000                 0.0000                 0.0000
 Depolar     --     0.0000                 0.0000                 0.0000
 Atom AN      X      Y      Z        X      Y      Z        X      Y      Z
   1   8    -0.00   0.00  -0.00     0.00  -0.00   0.00     0.00  -0.00   0.00
   2   6     0.00  -0.00  -0.00     0.00   0.00  -0.00    -0.00  -0.00  -0.00
   3   1     0.00   0.00  -0.00     0.00  -0.00  -0.00     0.00  -0.00   0.00
   4   1     0.00  -0.00  -0.00     0.00  -0.00   0.00    -0.00   0.00  -0.00
   5   6     0.00   0.00  -0.00    -0.00  -0.00  -0.00    -0.00  -0.00   0.00
   6   1    -0.00  -0.00   0.00    -0.00   0.00   0.00     0.00   0.00  -0.00
   7   1     0.00   0.00  -0.00    -0.00  -0.00   0.00     0.00  -0.00   0.00
   8   7    -0.00   0.00   0.00     0.00   0.00   0.00     0.00  -0.00   0.00
   9   6    -0.00   0.00   0.00     0.00   0.00  -0.00     0.00  -0.00  -0.00
  10   1    -0.00  -0.00   0.00     0.00  -0.00   0.00     0.00   0.00  -0.00
  11   1     0.00   0.00  -0.00     0.00   0.00  -0.00    -0.00  -0.00   0.00
  12   1     0.00  -0.00  -0.00     0.00   0.00   0.00    -0.00   0.00   0.00
  13   6    -0.00  -0.00   0.00     0.00  -0.00   0.00     0.00   0.00   0.00
  14   1    -0.00   0.00  -0.00     0.00  -0.00   0.00     0.00   0.00   0.00
  15   1     0.00  -0.00   0.00    -0.00  -0.00  -0.00    -0.00  -0.00  -0.00
  16   1     0.00  -0.00  -0.00    -0.00   0.00  -0.00    -0.00  -0.00   0.00
  17   6     0.00   0.00  -0.00     0.00  -0.00   0.00     0.00  -0.00  -0.00
  18   1    -0.00   0.00   0.00    -0.00  -0.00   0.00    -0.00  -0.00  -0.00
  19   1     0.00  -0.00  -0.00     0.00   0.00   0.00     0.00   0.00  -0.00
  20   1    -0.00   0.00  -0.00     0.00  -0.00  -0.00    -0.00   0.00   0.00
  21   1     0.00  -0.01   0.00    -0.00   0.00  -0.00    -0.00   0.00  -0.00
  22   6    -0.00   0.00  -0.00     0.00  -0.00   0.00    -0.00   0.00  -0.00
  23   8     0.00  -0.00   0.00    -0.00   0.00  -0.00     0.00  -0.00   0.00
  24   7    -0.00   0.00  -0.00     0.00  -0.00   0.00    -0.00   0.00  -0.00
  25   1     0.00  -0.00   0.00    -0.00   0.01  -0.00     0.00  -0.00   0.00
  26   1     0.00  -0.00   0.00    -0.00   0.00  -0.00     0.00  -0.00   0.00
  27   7    -0.00  -0.00   0.00     0.00   0.00  -0.00     0.00   0.00  -0.00
  28   1     0.00  -0.00   0.00    -0.00   0.00  -0.00     0.01  -0.00  -0.00
  29   1     0.00   0.00  -0.00    -0.00  -0.00   0.00    -0.01  -0.01   0.00
  30   6    -0.00  -0.00  -0.00    -0.01  -0.00  -0.00    -0.00  -0.00  -0.00
  31   8     0.00   0.00  -0.00     0.00   0.00   0.00     0.00   0.00  -0.00
  32   7     0.00   0.00  -0.00    -0.02  -0.01   0.01    -0.00  -0.00   0.00
  33   1     0.00  -0.00   0.00    -0.00   0.01  -0.02    -0.00   0.00  -0.00
  34   1    -0.00  -0.00   0.00     0.08   0.05  -0.03     0.00   0.00  -0.00
  35   7    -0.00  -0.00  -0.00    -0.28  -0.10  -0.06     0.00   0.00   0.00
  36   1     0.00   0.00  -0.00     0.55   0.25  -0.24    -0.00  -0.00   0.00
  37   1     0.00   0.00   0.00     0.50   0.14   0.46    -0.00  -0.00  -0.00
  38   6    -0.01   0.00   0.01     0.00   0.00  -0.00     0.00  -0.00  -0.00
  39   8     0.00  -0.00  -0.00     0.00  -0.00   0.00    -0.00   0.00   0.00
  40   7    -0.00   0.01   0.01     0.00  -0.00  -0.00    -0.00  -0.00  -0.00
  41   1    -0.01  -0.00  -0.00    -0.00  -0.00  -0.00     0.00   0.00   0.00
  42   1     0.03  -0.05  -0.03    -0.00   0.00   0.00    -0.00   0.00   0.00
  43   7    -0.22   0.11   0.17     0.00  -0.00  -0.00     0.00  -0.00  -0.00
  44   1     0.22  -0.51  -0.40    -0.00   0.00   0.00    -0.00   0.00   0.00
  45   1     0.61   0.07  -0.26    -0.00  -0.00   0.00    -0.01  -0.00   0.00
  46   6    -0.00   0.00   0.00    -0.00  -0.00  -0.00     0.01   0.00  -0.01
  47   8     0.00  -0.00  -0.00     0.00   0.00   0.00    -0.00  -0.00   0.00
  48   7     0.00   0.00  -0.00     0.00   0.00   0.00     0.18   0.03  -0.24
  49   1    -0.01  -0.00   0.00    -0.00  -0.00   0.00    -0.63  -0.16   0.27
  50   1    -0.00   0.00   0.01     0.00  -0.00  -0.00    -0.06   0.05   0.63
  51   7     0.00   0.00   0.00     0.00   0.00   0.00    -0.00  -0.00  -0.02
  52   1     0.00  -0.00  -0.01     0.00  -0.00  -0.00    -0.01   0.01   0.07
  53   1    -0.01  -0.00  -0.00    -0.00  -0.00  -0.00     0.01   0.00   0.00
