 Entering Gaussian System
 *********************************************
 Gaussian 98:
 frequency output generated by the xtb code
 *********************************************
                         Standard orientation:
 --------------------------------------------------------------------
  Center     Atomic     Atomic              Coordinates (Angstroms)
  Number     Number      Type              X           Y           Z
 --------------------------------------------------------------------
    1          8             0       -0.969434    1.652077   -2.231601
    2          6             0       -1.086595    1.818927   -0.847639
    3          1             0       -0.865753    2.857815   -0.565074
    4          1             0       -2.131964    1.623511   -0.596007
    5          6             0       -0.139404    0.940042   -0.019209
    6          1             0       -0.257984    1.225068    1.027477
    7          1             0        0.894008    1.124912   -0.330815
    8          7             0       -0.350856   -0.529618   -0.113258
    9          6             0       -0.012814   -1.008961   -1.463498
   10          1             0       -0.652742   -0.528194   -2.200006
   11          1             0       -0.143198   -2.087703   -1.510003
   12          1             0        1.026751   -0.758224   -1.671410
   13          6             0       -1.733275   -0.903155    0.216097
   14          1             0       -2.009652   -0.500035    1.191093
   15          1             0       -1.803612   -1.987217    0.267877
   16          1             0       -2.417913   -0.540243   -0.545474
   17          6             0        0.563738   -1.171049    0.847360
   18          1             0        0.361162   -0.806454    1.851025
   19          1             0        1.589018   -0.934391    0.568522
   20          1             0        0.409626   -2.248261    0.842573
   21          1             0       -0.071088    1.958065   -2.502047
   22          6             0        3.778473    0.664896   -1.390544
   23          8             0        2.765950    0.235456   -0.849337
   24          7             0        3.766713    1.746678   -2.196075
   25          1             0        2.874482    2.143839   -2.471818
   26          1             0        4.581289    1.993549   -2.728221
   27          7             0        4.986205    0.067632   -1.210990
   28          1             0        5.837502    0.491203   -1.532146
   29          1             0        5.056929   -0.658225   -0.520382
   30          6             0        0.889350    3.784404   -3.839947
   31          8             0        1.271651    2.906826   -3.064453
   32          7             0        1.755550    4.636881   -4.430260
   33          1             0        2.724016    4.603813   -4.167143
   34          1             0        1.444788    5.399445   -5.003735
   35          7             0       -0.414419    3.945597   -4.140314
   36          1             0       -0.725908    4.606590   -4.827919
   37          1             0       -1.075721    3.280632   -3.769643
   38          6             0       -2.466359   -3.914171    2.081433
   39          8             0       -1.273871   -3.636546    1.952612
   40          7             0       -3.368784   -3.004602    2.493054
   41          1             0       -3.047727   -2.073151    2.753530
   42          1             0       -4.334055   -3.240795    2.629056
   43          7             0       -2.943548   -5.141313    1.755339
   44          1             0       -3.885262   -5.417139    1.965812
   45          1             0       -2.278988   -5.860854    1.532020
   46          6             0       -1.311532   -0.811100    4.131319
   47          8             0       -2.177705   -0.549479    3.297467
   48          7             0       -1.092820   -0.002254    5.197990
   49          1             0       -1.740928    0.748007    5.360343
   50          1             0       -0.473788   -0.262388    5.943953
   51          7             0       -0.478473   -1.861396    3.985789
   52          1             0        0.137370   -2.140772    4.727636
   53          1             0       -0.681908   -2.538129    3.245398
 --------------------------------------------------------------------
     1 basis functions        1 primitive gaussians
     1 alpha electrons        1 beta electrons

 Harmonic frequencies (cm**-1), IR intensities (km*mol⁻¹),
 Raman scattering activities (A**4/amu), Raman depolarization ratios,
 reduced masses (AMU), force constants (mDyne/A) and normal coordinates:
                      1                      2                      3
                        a                      a                      a 
 Frequencies --     7.8978                14.1510                18.4194
 Red. masses --    12.0995                12.0856                12.0982
 Frc consts  --     0.0000                 0.0000                 0.0000
 IR Inten    --     0.7564                 0.0548                 0.5261
 Raman Activ --     0.0000                 0.0000                 0.0000
 Depolar     --     0.0000                 0.0000                 0.0000
 Atom AN      X      Y      Z        X      Y      Z        X      Y      Z
   1   8     0.03  -0.12  -0.07    -0.01   0.01   0.13    -0.00  -0.07  -0.25
   2   6    -0.02  -0.15  -0.05     0.03  -0.05   0.13    -0.14  -0.04  -0.23
   3   1    -0.02  -0.04  -0.00     0.01  -0.02   0.05    -0.06  -0.01  -0.07
   4   1    -0.00  -0.06  -0.02     0.01  -0.02   0.04    -0.05  -0.02  -0.10
   5   6    -0.00  -0.15  -0.06     0.06  -0.09   0.06    -0.19   0.01  -0.13
   6   1    -0.01  -0.05  -0.02     0.02  -0.05   0.02    -0.07   0.02  -0.04
   7   1    -0.00  -0.03  -0.01     0.02  -0.02   0.02    -0.05   0.00  -0.02
   8   7     0.04  -0.16  -0.10     0.09  -0.10  -0.04    -0.18   0.00  -0.07
   9   6     0.05  -0.11  -0.10     0.09  -0.00  -0.06    -0.14  -0.05  -0.04
  10   1     0.02  -0.03  -0.03     0.03   0.01  -0.01    -0.04  -0.03  -0.02
  11   1     0.02  -0.03  -0.04     0.03  -0.00  -0.04    -0.03  -0.02   0.00
  12   1     0.02  -0.03  -0.03     0.03   0.01  -0.01    -0.04  -0.01  -0.01
  13   6     0.04  -0.19  -0.11     0.08  -0.12  -0.06    -0.16  -0.00  -0.06
  14   1     0.01  -0.05  -0.03     0.02  -0.04  -0.02    -0.04   0.00  -0.02
  15   1     0.02  -0.06  -0.03     0.03  -0.04  -0.02    -0.04  -0.00  -0.01
  16   1     0.01  -0.06  -0.04     0.03  -0.03  -0.02    -0.05  -0.01  -0.02
  17   6     0.05  -0.15  -0.10     0.09  -0.14  -0.07    -0.17   0.06  -0.03
  18   1     0.01  -0.05  -0.03     0.02  -0.06  -0.01    -0.05   0.03  -0.01
  19   1     0.01  -0.03  -0.03     0.02  -0.03  -0.01    -0.05   0.01  -0.01
  20   1     0.02  -0.04  -0.03     0.03  -0.04  -0.04    -0.05   0.02   0.01
  21   1     0.00  -0.02  -0.01    -0.01   0.01   0.03     0.00  -0.01  -0.04
  22   6     0.02  -0.04  -0.05     0.06   0.15   0.11    -0.10   0.02   0.14
  23   8     0.03  -0.08  -0.07     0.08   0.04   0.04    -0.17  -0.00   0.03
  24   7     0.01   0.01   0.02    -0.00   0.17   0.13    -0.02   0.07   0.21
  25   1     0.00   0.01   0.01    -0.01   0.02   0.02     0.00   0.02   0.04
  26   1    -0.00   0.01   0.00     0.00   0.08   0.06     0.01   0.02   0.08
  27   7     0.02  -0.06  -0.11     0.12   0.30   0.19    -0.13   0.00   0.23
  28   1     0.00  -0.01  -0.03     0.02   0.10   0.06    -0.03   0.00   0.09
  29   1     0.01  -0.03  -0.04     0.04   0.07   0.04    -0.05  -0.01   0.05
  30   6    -0.02   0.12   0.19    -0.08  -0.07  -0.05     0.09   0.04  -0.01
  31   8    -0.01   0.06   0.12    -0.05  -0.01   0.00     0.04   0.06   0.03
  32   7    -0.04   0.23   0.33    -0.11  -0.12  -0.16     0.13   0.11   0.13
  33   1    -0.01   0.07   0.10    -0.03  -0.03  -0.06     0.02   0.04   0.07
  34   1    -0.02   0.08   0.11    -0.04  -0.05  -0.06     0.04   0.03   0.03
  35   7    -0.02   0.11   0.20    -0.10  -0.10  -0.01     0.13  -0.03  -0.19
  36   1    -0.01   0.05   0.07    -0.04  -0.04  -0.01     0.05  -0.01  -0.06
  37   1    -0.00   0.01   0.03    -0.02  -0.02   0.02     0.03  -0.02  -0.08
  38   6    -0.02  -0.01   0.13    -0.21   0.05   0.01     0.03   0.01   0.04
  39   8    -0.02  -0.03   0.15    -0.21  -0.06  -0.02     0.04  -0.04  -0.01
  40   7    -0.02   0.01   0.08    -0.12   0.13   0.06     0.08   0.04   0.07
  41   1    -0.01   0.01  -0.00    -0.01   0.03   0.01     0.04   0.01   0.02
  42   1    -0.01   0.01   0.01    -0.04   0.06   0.01     0.02   0.02   0.04
  43   7    -0.03  -0.03   0.20    -0.35   0.10   0.00    -0.03   0.03   0.06
  44   1    -0.01  -0.00   0.06    -0.10   0.05   0.01    -0.01   0.02   0.03
  45   1    -0.01  -0.01   0.07    -0.11   0.01  -0.00    -0.02   0.00   0.01
  46   6    -0.02   0.17  -0.13     0.12  -0.01  -0.09     0.21  -0.04   0.01
  47   8    -0.02   0.11  -0.18     0.14   0.06  -0.08     0.24  -0.01   0.02
  48   7    -0.02   0.28  -0.22     0.24  -0.02  -0.11     0.32  -0.02  -0.02
  49   1    -0.01   0.08  -0.08     0.08   0.01  -0.03     0.10   0.01  -0.01
  50   1    -0.01   0.09  -0.05     0.06  -0.02  -0.03     0.08  -0.02  -0.00
  51   7    -0.01   0.17  -0.05     0.03  -0.10  -0.10     0.12  -0.13   0.04
  52   1    -0.01   0.06  -0.01     0.00  -0.04  -0.03     0.04  -0.03   0.00
  53   1    -0.01   0.03   0.00    -0.02  -0.03  -0.02     0.03  -0.03   0.01
                      4                      5                      6
                        a                      a                      a 
 Frequencies --    23.1336                28.8695                36.7684
 Red. masses --    11.8499                12.5820                12.2837
 Frc consts  --     0.0000                 0.0000                 0.0000
 IR Inten    --     0.8431                 1.9372                 5.4384
 Raman Activ --     0.0000                 0.0000                 0.0000
 Depolar     --     0.0000                 0.0000                 0.0000
 Atom AN      X      Y      Z        X      Y      Z        X      Y      Z
   1   8     0.10  -0.29  -0.24    -0.16  -0.10  -0.06     0.05   0.04  -0.11
   2   6     0.03  -0.10  -0.23    -0.03   0.01  -0.06     0.05   0.03  -0.09
   3   1    -0.01  -0.02  -0.10     0.01   0.01  -0.04     0.02   0.01  -0.03
   4   1     0.01  -0.04  -0.07    -0.01   0.02   0.01     0.01   0.02  -0.03
   5   6     0.05   0.04  -0.10    -0.02   0.03  -0.06     0.04   0.01  -0.09
   6   1     0.01   0.05  -0.04    -0.00   0.01  -0.02     0.02   0.01  -0.03
   7   1     0.01   0.01  -0.03    -0.01   0.01  -0.02     0.01  -0.01  -0.03
   8   7     0.11   0.02   0.08    -0.02   0.03  -0.03    -0.02   0.02  -0.07
   9   6     0.16  -0.13   0.14     0.04  -0.01   0.00    -0.08  -0.01  -0.07
  10   1     0.05  -0.07   0.02     0.02  -0.02  -0.01    -0.03   0.00  -0.01
  11   1     0.05  -0.04   0.08     0.02  -0.01   0.01    -0.04  -0.00  -0.01
  12   1     0.04  -0.04   0.04     0.01  -0.00   0.01    -0.02  -0.01  -0.03
  13   6     0.11   0.01   0.09    -0.03   0.04  -0.08    -0.01   0.06   0.01
  14   1     0.02   0.03   0.01    -0.02   0.01  -0.02     0.01   0.03   0.00
  15   1     0.05   0.00   0.06    -0.01   0.01  -0.02    -0.01   0.02   0.02
  16   1     0.03  -0.03   0.01    -0.00   0.01  -0.03    -0.01   0.01   0.01
  17   6     0.10   0.17   0.17    -0.06   0.05   0.03     0.01   0.01  -0.09
  18   1     0.01   0.07   0.04    -0.03   0.02   0.00     0.02   0.00  -0.02
  19   1     0.03   0.06   0.05    -0.01   0.01   0.02     0.00  -0.01  -0.04
  20   1     0.05   0.05   0.08    -0.02   0.02   0.02    -0.00   0.00  -0.02
  21   1     0.02  -0.06  -0.06    -0.04  -0.06  -0.04     0.02  -0.00  -0.03
  22   6     0.06   0.04  -0.07     0.01  -0.04   0.08     0.02   0.04   0.00
  23   8     0.10   0.09   0.02     0.02   0.02   0.15    -0.01  -0.03  -0.13
  24   7     0.03   0.00  -0.13    -0.02  -0.22  -0.15     0.05   0.04  -0.00
  25   1     0.00  -0.00  -0.03    -0.01  -0.08  -0.06     0.02  -0.00  -0.03
  26   1    -0.00  -0.01  -0.06    -0.00  -0.08  -0.05     0.03   0.03   0.03
  27   7     0.07   0.04  -0.12     0.04   0.07   0.27     0.05   0.14   0.17
  28   1     0.01   0.01  -0.05     0.01   0.01   0.05     0.02   0.05   0.07
  29   1     0.03   0.02  -0.02     0.01   0.06   0.11     0.00   0.03   0.04
  30   6    -0.06   0.04   0.01    -0.07  -0.09   0.07     0.05   0.06  -0.05
  31   8     0.00  -0.02  -0.10    -0.08  -0.37  -0.21     0.08  -0.04  -0.19
  32   7    -0.14   0.25   0.19    -0.04  -0.12   0.10     0.06  -0.03  -0.16
  33   1    -0.04   0.09   0.06     0.00  -0.10  -0.04     0.03  -0.05  -0.10
  34   1    -0.06   0.08   0.08    -0.00   0.01   0.08     0.02   0.01  -0.02
  35   7    -0.07  -0.07  -0.04    -0.11   0.23   0.41     0.01   0.28   0.23
  36   1    -0.03  -0.00   0.01    -0.03   0.11   0.16    -0.00   0.08   0.07
  37   1    -0.00  -0.06  -0.05    -0.04   0.06   0.09     0.00   0.08   0.07
  38   6    -0.13   0.06  -0.02     0.06   0.06  -0.09    -0.04  -0.06   0.13
  39   8    -0.15   0.04  -0.08     0.09   0.03  -0.01    -0.09   0.00  -0.09
  40   7    -0.10   0.10  -0.01     0.08   0.08  -0.10    -0.08  -0.02  -0.01
  41   1    -0.02   0.02   0.00     0.03   0.02  -0.02    -0.02  -0.00  -0.02
  42   1    -0.03   0.03   0.01     0.02   0.03  -0.05    -0.00  -0.03   0.09
  43   7    -0.19   0.08   0.01     0.04   0.11  -0.21     0.03  -0.20   0.56
  44   1    -0.05   0.03   0.00     0.01   0.03  -0.06     0.01  -0.05   0.15
  45   1    -0.06   0.02  -0.01     0.01   0.02  -0.05     0.01  -0.05   0.13
  46   6    -0.02  -0.08   0.09     0.06   0.04  -0.02    -0.04  -0.08   0.00
  47   8     0.01   0.01   0.11     0.11   0.05  -0.06    -0.06  -0.04   0.03
  48   7    -0.02  -0.19   0.17     0.09   0.09  -0.06    -0.11  -0.22   0.11
  49   1     0.00  -0.04   0.06     0.03   0.03  -0.03    -0.03  -0.06   0.05
  50   1    -0.01  -0.07   0.04     0.01   0.02  -0.00    -0.01  -0.06   0.01
  51   7    -0.06  -0.11   0.04     0.00  -0.02   0.07     0.04  -0.01  -0.13
  52   1    -0.02  -0.05   0.01     0.00   0.00   0.02     0.00  -0.02  -0.04
  53   1    -0.02  -0.01  -0.00     0.01  -0.00   0.02     0.01   0.01  -0.04
                      7                      8                      9
                        a                      a                      a 
 Frequencies --    40.1772                44.6671                46.5766
 Red. masses --    12.2295                12.6645                12.8482
 Frc consts  --     0.0000                 0.0000                 0.0000
 IR Inten    --     3.0379                 5.0181                 2.2525
 Raman Activ --     0.0000                 0.0000                 0.0000
 Depolar     --     0.0000                 0.0000                 0.0000
 Atom AN      X      Y      Z        X      Y      Z        X      Y      Z
   1   8     0.22  -0.06  -0.07    -0.04  -0.07  -0.07     0.29   0.02  -0.04
   2   6     0.19  -0.02  -0.06     0.01  -0.01  -0.06     0.06   0.01  -0.05
   3   1     0.08  -0.01  -0.02     0.00  -0.00  -0.03    -0.00   0.00  -0.00
   4   1     0.05   0.02  -0.02     0.00  -0.00  -0.01     0.01  -0.01  -0.06
   5   6     0.10  -0.10  -0.04     0.04   0.02  -0.06    -0.03   0.02   0.07
   6   1     0.04  -0.02  -0.01     0.03   0.03  -0.02    -0.04   0.01   0.02
   7   1     0.04  -0.06  -0.02     0.01  -0.00  -0.04     0.00   0.01   0.05
   8   7    -0.04  -0.09  -0.02     0.01   0.02   0.04    -0.01   0.02   0.09
   9   6    -0.11  -0.14  -0.02    -0.11  -0.06   0.04     0.05   0.01   0.10
  10   1    -0.03  -0.03  -0.00    -0.05  -0.02   0.02     0.02  -0.00   0.02
  11   1    -0.06  -0.04   0.00    -0.04  -0.02   0.03     0.02   0.00   0.03
  12   1    -0.03  -0.06  -0.02    -0.04  -0.02  -0.02     0.02   0.01   0.04
  13   6    -0.06   0.05   0.01     0.03   0.05   0.18    -0.02   0.01   0.03
  14   1     0.00   0.01   0.01     0.03   0.02   0.05    -0.02   0.00   0.01
  15   1    -0.05   0.02  -0.01     0.01   0.01   0.07    -0.00   0.00   0.01
  16   1    -0.01   0.04   0.01    -0.01   0.00   0.06     0.00  -0.00   0.00
  17   6    -0.07  -0.15  -0.03     0.09   0.06  -0.01    -0.04   0.05   0.13
  18   1    -0.00  -0.03  -0.01     0.05   0.03  -0.00    -0.02   0.02   0.03
  19   1    -0.02  -0.08  -0.02     0.02   0.01  -0.03    -0.01   0.01   0.05
  20   1    -0.05  -0.04   0.00     0.02   0.02   0.02    -0.01   0.01   0.04
  21   1     0.06  -0.02  -0.02    -0.01  -0.03  -0.02     0.08   0.02   0.02
  22   6    -0.01  -0.07   0.03     0.02   0.02  -0.02    -0.03  -0.04   0.06
  23   8    -0.05  -0.29  -0.21    -0.01  -0.10  -0.17    -0.05   0.14   0.21
  24   7     0.02   0.12   0.29     0.04   0.11   0.09     0.03  -0.20  -0.12
  25   1     0.01   0.02   0.05     0.01   0.01   0.00     0.02  -0.02  -0.02
  26   1     0.02   0.08   0.13     0.02   0.05   0.05     0.01  -0.08  -0.04
  27   7     0.01  -0.01   0.07     0.04   0.09   0.06    -0.08  -0.14   0.10
  28   1     0.01   0.03   0.07     0.01   0.04   0.04    -0.01  -0.08  -0.00
  29   1    -0.01  -0.05  -0.03     0.00   0.00  -0.01    -0.03  -0.01   0.06
  30   6    -0.07   0.07  -0.06     0.03  -0.04   0.02    -0.02   0.14  -0.07
  31   8     0.10   0.12  -0.11     0.00  -0.12  -0.05     0.17   0.26  -0.05
  32   7    -0.22   0.13  -0.20     0.07  -0.05   0.06    -0.16   0.13  -0.31
  33   1    -0.05   0.04  -0.10     0.02  -0.03   0.01    -0.03   0.06  -0.12
  34   1    -0.09   0.02  -0.05     0.03  -0.00   0.03    -0.08   0.02  -0.08
  35   7    -0.14   0.01   0.15     0.04   0.05   0.06    -0.08   0.06   0.14
  36   1    -0.07  -0.01   0.04     0.02   0.03   0.03    -0.06  -0.02   0.02
  37   1    -0.01  -0.01   0.06     0.00   0.01   0.00     0.01  -0.00   0.06
  38   6     0.06   0.07  -0.04    -0.04  -0.04   0.00    -0.04  -0.11   0.01
  39   8     0.10   0.03   0.12    -0.09   0.10  -0.14    -0.06  -0.09  -0.02
  40   7     0.06   0.08  -0.06    -0.03  -0.27   0.50    -0.05  -0.15   0.08
  41   1     0.02   0.02   0.00    -0.03  -0.05   0.10    -0.02  -0.04   0.02
  42   1     0.01   0.03  -0.06    -0.01  -0.08   0.08    -0.01  -0.05   0.02
  43   7     0.03   0.14  -0.23    -0.00   0.01  -0.31    -0.02  -0.12  -0.00
  44   1     0.01   0.04  -0.07     0.03  -0.04  -0.01    -0.00  -0.04   0.01
  45   1     0.01   0.03  -0.04     0.01   0.03  -0.13    -0.00  -0.03  -0.01
  46   6    -0.02   0.03   0.11    -0.04   0.05  -0.03     0.01  -0.00  -0.08
  47   8     0.05   0.05   0.05    -0.28  -0.07   0.17    -0.09  -0.09  -0.01
  48   7    -0.12   0.00   0.15     0.11   0.09  -0.09     0.24   0.19  -0.27
  49   1    -0.03   0.00   0.03     0.01  -0.00   0.02     0.06   0.05  -0.07
  50   1    -0.04   0.00   0.05     0.07   0.04  -0.06     0.05   0.05  -0.07
  51   7    -0.01   0.03   0.17     0.07   0.16  -0.22    -0.09  -0.09  -0.00
  52   1    -0.02   0.00   0.06     0.06   0.06  -0.09     0.01   0.01  -0.02
  53   1     0.01   0.01   0.04    -0.01   0.03  -0.04    -0.03  -0.03   0.01
                     10                     11                     12
                        a                      a                      a 
 Frequencies --    51.3784                53.6208                64.1998
 Red. masses --    12.5368                12.0722                12.7062
 Frc consts  --     0.0000                 0.0000                 0.0000
 IR Inten    --     2.3208                 1.1435                 8.0179
 Raman Activ --     0.0000                 0.0000                 0.0000
 Depolar     --     0.0000                 0.0000                 0.0000
 Atom AN      X      Y      Z        X      Y      Z        X      Y      Z
   1   8    -0.06  -0.01   0.05    -0.05  -0.12  -0.10     0.02   0.05  -0.02
   2   6     0.11   0.10   0.05    -0.11  -0.06  -0.10    -0.03   0.06  -0.02
   3   1     0.07   0.03  -0.02    -0.06  -0.01  -0.04    -0.01   0.02  -0.01
   4   1     0.03   0.06   0.05    -0.03  -0.04  -0.04    -0.01   0.01  -0.02
   5   6     0.12   0.07   0.00    -0.08   0.04  -0.03    -0.04   0.07  -0.01
   6   1     0.06   0.03   0.00    -0.03   0.03  -0.01    -0.03   0.01  -0.00
   7   1     0.03  -0.01  -0.02    -0.02   0.03  -0.01    -0.01   0.03   0.01
   8   7     0.00   0.09   0.08     0.02   0.02   0.05     0.00   0.07  -0.07
   9   6    -0.07  -0.01   0.08     0.09  -0.04   0.08     0.06   0.10  -0.06
  10   1    -0.02   0.00   0.02     0.02  -0.03   0.01     0.02   0.02  -0.02
  11   1    -0.05   0.00   0.04     0.04  -0.01   0.04     0.03   0.03  -0.02
  12   1    -0.02  -0.03   0.01     0.02   0.00   0.03     0.02   0.04  -0.01
  13   6    -0.02   0.20   0.11     0.03  -0.04   0.02    -0.00   0.03  -0.12
  14   1     0.00   0.08   0.03    -0.01   0.00  -0.01    -0.01   0.00  -0.04
  15   1    -0.03   0.06   0.05     0.03  -0.01   0.02     0.01   0.01  -0.04
  16   1    -0.00   0.06   0.03     0.01  -0.04  -0.01     0.01   0.01  -0.04
  17   6    -0.02   0.05   0.07     0.02   0.13   0.11    -0.01   0.06  -0.05
  18   1     0.01   0.03   0.02    -0.01   0.05   0.02    -0.01   0.01  -0.02
  19   1    -0.00  -0.02   0.01     0.00   0.05   0.04    -0.00   0.02  -0.01
  20   1    -0.03   0.02   0.04     0.02   0.03   0.05    -0.00   0.02  -0.02
  21   1    -0.02  -0.02  -0.02    -0.01  -0.03  -0.01     0.02  -0.01   0.01
  22   6     0.03  -0.06   0.03    -0.01   0.08  -0.02     0.04  -0.09   0.13
  23   8     0.05  -0.23  -0.07     0.00   0.09   0.00     0.03   0.01   0.21
  24   7    -0.01   0.06   0.19     0.05   0.34   0.31     0.12  -0.03   0.22
  25   1    -0.01  -0.00   0.04     0.01   0.09   0.09     0.04   0.01   0.07
  26   1    -0.00   0.04   0.06    -0.00   0.07   0.05     0.03  -0.04   0.04
  27   7     0.07   0.00  -0.00    -0.08  -0.16  -0.38    -0.03  -0.29  -0.01
  28   1     0.01   0.03   0.02    -0.02  -0.03  -0.08     0.00  -0.10  -0.00
  29   1     0.03  -0.03  -0.03    -0.02  -0.08  -0.14    -0.02  -0.08  -0.01
  30   6    -0.07  -0.08   0.02     0.03  -0.05   0.06    -0.10  -0.10   0.07
  31   8    -0.06  -0.14  -0.04    -0.01  -0.03   0.12     0.06  -0.05   0.08
  32   7    -0.11   0.07   0.20     0.11  -0.32  -0.21    -0.25  -0.00   0.02
  33   1    -0.03   0.02   0.06     0.03  -0.11  -0.08    -0.06   0.03  -0.02
  34   1    -0.03   0.01   0.05     0.04  -0.08  -0.05    -0.10  -0.02   0.00
  35   7    -0.06  -0.18  -0.07     0.01   0.18   0.28    -0.14  -0.28   0.14
  36   1    -0.02  -0.02   0.01     0.01   0.01   0.04    -0.07  -0.08   0.04
  37   1    -0.01  -0.06  -0.03    -0.01   0.06   0.09    -0.01  -0.09   0.06
  38   6     0.00  -0.02  -0.09    -0.01  -0.00  -0.03     0.04   0.08  -0.03
  39   8    -0.00   0.01  -0.12    -0.00  -0.03   0.00    -0.01   0.19  -0.30
  40   7    -0.08   0.06  -0.44    -0.02   0.04  -0.13     0.06   0.02   0.16
  41   1    -0.02   0.00  -0.07     0.00   0.00  -0.02     0.01   0.02   0.00
  42   1    -0.00  -0.02  -0.03    -0.00   0.01  -0.02     0.02  -0.01   0.08
  43   7     0.10  -0.13   0.22    -0.01  -0.01   0.01     0.07   0.05   0.09
  44   1     0.01  -0.02  -0.00    -0.01   0.01  -0.02     0.03  -0.00   0.07
  45   1     0.03  -0.03   0.06    -0.01  -0.01   0.01     0.02   0.03  -0.01
  46   6     0.01   0.02  -0.06     0.01  -0.01  -0.00     0.03   0.03  -0.10
  47   8    -0.15  -0.06   0.07     0.01  -0.01  -0.01     0.07   0.12  -0.12
  48   7     0.28   0.18  -0.23     0.08   0.06  -0.07    -0.11  -0.17   0.07
  49   1     0.06   0.03  -0.04     0.02   0.02  -0.02    -0.02  -0.04   0.03
  50   1     0.07   0.04  -0.06     0.01   0.01  -0.01    -0.00  -0.05  -0.00
  51   7    -0.07  -0.03  -0.07    -0.07  -0.07   0.06     0.14   0.13  -0.26
  52   1     0.04   0.02  -0.05    -0.01  -0.01   0.01     0.01   0.00  -0.06
  53   1    -0.02  -0.01  -0.02    -0.01  -0.02   0.01     0.03   0.05  -0.08
                     13                     14                     15
                        a                      a                      a 
 Frequencies --    69.3006                78.0113                83.4482
 Red. masses --    12.4318                13.9285                13.2460
 Frc consts  --     0.0000                 0.0000                 0.0000
 IR Inten    --     3.0859                 0.8935                 9.6386
 Raman Activ --     0.0000                 0.0000                 0.0000
 Depolar     --     0.0000                 0.0000                 0.0000
 Atom AN      X      Y      Z        X      Y      Z        X      Y      Z
   1   8    -0.04   0.06   0.04    -0.10  -0.07  -0.07     0.05   0.06  -0.02
   2   6     0.12   0.13   0.04    -0.06  -0.03  -0.06    -0.05   0.03  -0.02
   3   1     0.08   0.03  -0.01    -0.03  -0.01  -0.03    -0.03   0.01  -0.00
   4   1     0.04   0.08   0.04    -0.01  -0.02  -0.01    -0.02  -0.00  -0.02
   5   6     0.08   0.04   0.00     0.01   0.02  -0.07    -0.05   0.05  -0.01
   6   1     0.03   0.01   0.00     0.01   0.02  -0.02    -0.02   0.01  -0.00
   7   1     0.03  -0.01   0.00    -0.00   0.01  -0.04    -0.02   0.02  -0.01
   8   7    -0.01   0.06  -0.03     0.02   0.01  -0.00    -0.04   0.06  -0.02
   9   6     0.07   0.05  -0.00     0.07  -0.06   0.04    -0.06   0.06  -0.02
  10   1     0.05   0.03  -0.01     0.04  -0.01  -0.00    -0.03   0.00  -0.00
  11   1     0.00   0.02  -0.01     0.00  -0.02   0.02     0.00   0.01  -0.00
  12   1     0.03  -0.00   0.02     0.03  -0.04   0.03    -0.02   0.03  -0.02
  13   6    -0.07   0.14  -0.15     0.01   0.02  -0.03    -0.02   0.03   0.01
  14   1    -0.03   0.03  -0.04    -0.01   0.03  -0.02    -0.00   0.01   0.00
  15   1    -0.04   0.04  -0.06     0.01   0.01   0.02    -0.00   0.01   0.00
  16   1     0.01   0.06  -0.06     0.01  -0.02  -0.03    -0.01   0.00   0.01
  17   6    -0.14  -0.01   0.05    -0.01   0.07   0.07    -0.00   0.07  -0.04
  18   1    -0.06  -0.00   0.01    -0.01   0.04   0.01     0.01   0.02  -0.01
  19   1    -0.03  -0.02   0.04    -0.00   0.01   0.03    -0.00   0.02  -0.02
  20   1    -0.06   0.00   0.01    -0.01   0.02   0.04     0.00   0.02  -0.01
  21   1    -0.02  -0.00  -0.03    -0.04   0.02  -0.02     0.03  -0.01   0.03
  22   6     0.05   0.01   0.01     0.05  -0.15   0.03     0.05   0.06  -0.17
  23   8     0.12  -0.06   0.08     0.16  -0.41   0.04    -0.08   0.07  -0.45
  24   7    -0.03   0.12   0.15    -0.21  -0.22  -0.04     0.23   0.03  -0.22
  25   1    -0.02   0.01   0.03    -0.07  -0.06   0.03     0.08   0.03  -0.07
  26   1    -0.03   0.02   0.01    -0.06   0.02   0.02     0.10   0.03   0.00
  27   7     0.08  -0.00  -0.19     0.20   0.14   0.06     0.02   0.09   0.14
  28   1     0.01   0.02  -0.05     0.03   0.07  -0.01     0.03   0.01   0.08
  29   1     0.04  -0.01  -0.06     0.10   0.03   0.00    -0.04   0.01   0.03
  30   6    -0.01  -0.01  -0.09    -0.06   0.11   0.07     0.02  -0.11   0.16
  31   8    -0.04  -0.16  -0.26    -0.19   0.33   0.37     0.14  -0.00   0.28
  32   7     0.01   0.10   0.08     0.04  -0.14  -0.15    -0.08  -0.11   0.06
  33   1     0.00  -0.00   0.01    -0.00  -0.02   0.01    -0.02   0.01   0.01
  34   1     0.01   0.04   0.04     0.03  -0.05  -0.07    -0.05  -0.05  -0.00
  35   7    -0.00   0.06  -0.10    -0.04   0.14  -0.05     0.00  -0.29   0.19
  36   1     0.00   0.06   0.01     0.02  -0.02  -0.08    -0.02  -0.10   0.04
  37   1    -0.01   0.02  -0.04    -0.02   0.06   0.00     0.02  -0.08   0.08
  38   6     0.01  -0.07   0.09     0.03   0.05  -0.04     0.01   0.00  -0.01
  39   8    -0.02  -0.04  -0.07     0.00   0.14  -0.24    -0.00   0.04  -0.10
  40   7     0.06  -0.16   0.39     0.04   0.00   0.08     0.02  -0.02   0.07
  41   1     0.01  -0.02   0.04     0.01   0.01   0.00     0.00  -0.00   0.00
  42   1     0.01  -0.03   0.08     0.02  -0.01   0.05     0.01  -0.01   0.03
  43   7    -0.02  -0.06   0.05     0.07   0.02   0.05     0.03  -0.01   0.03
  44   1     0.01  -0.03   0.08     0.03  -0.01   0.04     0.01  -0.01   0.02
  45   1    -0.01  -0.01  -0.01     0.02   0.02  -0.02     0.01   0.00  -0.01
  46   6    -0.04  -0.05  -0.03    -0.01   0.01  -0.01    -0.04  -0.02   0.02
  47   8     0.16   0.03  -0.22     0.04   0.07  -0.05     0.08   0.05  -0.09
  48   7    -0.06   0.04  -0.09     0.02  -0.00  -0.01     0.02   0.07  -0.05
  49   1     0.00   0.04  -0.07     0.01   0.01  -0.00     0.02   0.04  -0.04
  50   1    -0.08  -0.01   0.02    -0.01  -0.02   0.01    -0.05  -0.01   0.02
  51   7    -0.26  -0.25   0.25    -0.10  -0.06   0.03    -0.25  -0.20   0.22
  52   1    -0.09  -0.06   0.09    -0.02  -0.02   0.00    -0.07  -0.05   0.06
  53   1    -0.03  -0.05   0.04    -0.01   0.00  -0.01    -0.04  -0.03   0.03
                     16                     17                     18
                        a                      a                      a 
 Frequencies --    93.1659               104.8305               106.3513
 Red. masses --    13.4777                12.6183                11.6463
 Frc consts  --     0.0000                 0.0000                 0.0000
 IR Inten    --    13.1249                10.0887                 3.1172
 Raman Activ --     0.0000                 0.0000                 0.0000
 Depolar     --     0.0000                 0.0000                 0.0000
 Atom AN      X      Y      Z        X      Y      Z        X      Y      Z
   1   8     0.07  -0.10   0.10     0.06  -0.01  -0.11     0.14  -0.21   0.03
   2   6     0.08  -0.13   0.09     0.07   0.04  -0.10     0.25   0.05   0.01
   3   1     0.03  -0.04   0.04     0.05   0.01  -0.03     0.14   0.01  -0.05
   4   1     0.02  -0.03   0.03     0.01   0.05  -0.02     0.07   0.09   0.03
   5   6     0.05  -0.18   0.06    -0.02  -0.05  -0.09     0.13  -0.04   0.05
   6   1     0.01  -0.06   0.02    -0.01  -0.02  -0.02     0.05   0.01   0.01
   7   1     0.02  -0.06   0.02     0.00  -0.04  -0.01     0.05  -0.05   0.01
   8   7     0.01  -0.18   0.01    -0.16  -0.03  -0.14    -0.07  -0.01   0.11
   9   6    -0.02  -0.14  -0.01    -0.13  -0.01  -0.13    -0.03  -0.15   0.16
  10   1    -0.01  -0.03   0.01    -0.02   0.01  -0.04     0.01  -0.05   0.03
  11   1    -0.01  -0.04  -0.01    -0.05   0.00  -0.05    -0.03  -0.04   0.07
  12   1    -0.01  -0.04  -0.01    -0.03  -0.02  -0.03    -0.00  -0.07   0.05
  13   6    -0.00  -0.12   0.01    -0.19   0.08  -0.15    -0.15   0.21  -0.00
  14   1     0.00  -0.03   0.00    -0.04   0.01  -0.03    -0.04   0.07  -0.01
  15   1    -0.01  -0.03   0.00    -0.09   0.02  -0.07    -0.09   0.06  -0.01
  16   1     0.00  -0.03   0.00    -0.04   0.06  -0.04    -0.01   0.09  -0.02
  17   6     0.00  -0.23  -0.02    -0.22  -0.13  -0.13    -0.21  -0.08   0.19
  18   1     0.01  -0.07  -0.00    -0.07  -0.05  -0.03    -0.05   0.01   0.04
  19   1     0.00  -0.07  -0.01    -0.06  -0.05  -0.02    -0.05  -0.07   0.06
  20   1    -0.01  -0.06  -0.01    -0.08  -0.04  -0.05    -0.11  -0.02   0.08
  21   1     0.01  -0.02   0.02     0.02  -0.01  -0.02     0.03  -0.06  -0.02
  22   6    -0.11   0.09   0.01     0.18   0.09   0.01    -0.11   0.11  -0.06
  23   8    -0.13   0.20   0.09     0.31   0.17   0.25    -0.11   0.14  -0.02
  24   7    -0.08   0.06  -0.04     0.06   0.02  -0.10    -0.15   0.06  -0.15
  25   1    -0.02   0.02  -0.01     0.01   0.01   0.01    -0.04   0.02  -0.03
  26   1    -0.02  -0.02  -0.03    -0.01  -0.02  -0.08    -0.04   0.02  -0.04
  27   7    -0.16   0.01  -0.03     0.23   0.10  -0.20    -0.11   0.15  -0.05
  28   1    -0.04  -0.01  -0.01     0.04   0.04  -0.09    -0.03   0.04  -0.03
  29   1    -0.05   0.02   0.01     0.10   0.06  -0.02    -0.02   0.05  -0.00
  30   6     0.04   0.01  -0.03    -0.01  -0.05   0.08     0.03  -0.04   0.09
  31   8     0.01  -0.04  -0.08     0.03   0.02   0.16    -0.00   0.02   0.19
  32   7     0.08   0.01   0.01    -0.03  -0.08   0.00     0.07  -0.13   0.03
  33   1     0.02  -0.01   0.01    -0.01  -0.00   0.01     0.01  -0.03   0.03
  34   1     0.03   0.01   0.01    -0.02  -0.03  -0.01     0.03  -0.04  -0.00
  35   7     0.05   0.05  -0.03    -0.01  -0.11   0.08     0.04  -0.06   0.06
  36   1     0.02   0.02   0.00    -0.01  -0.05   0.01     0.02  -0.03  -0.00
  37   1     0.01   0.01  -0.01     0.00  -0.03   0.04     0.01  -0.01   0.02
  38   6     0.06   0.15  -0.13    -0.04   0.02   0.04     0.02  -0.04  -0.00
  39   8    -0.00   0.36  -0.46    -0.05   0.09   0.10     0.03  -0.11  -0.02
  40   7     0.02   0.07  -0.01    -0.11  -0.02  -0.01     0.07  -0.00   0.03
  41   1    -0.01   0.02  -0.00    -0.03  -0.01   0.03     0.03   0.01  -0.02
  42   1     0.03  -0.03   0.09    -0.02  -0.03   0.01     0.01   0.02  -0.01
  43   7     0.20   0.06   0.10     0.04   0.00  -0.02    -0.06  -0.01   0.00
  44   1     0.07  -0.01   0.05     0.01  -0.02  -0.01    -0.02   0.01   0.02
  45   1     0.06   0.05  -0.04     0.03   0.01   0.00    -0.03  -0.02   0.01
  46   6    -0.05   0.03   0.08    -0.01  -0.04   0.13     0.05   0.04  -0.15
  47   8    -0.07   0.11   0.13    -0.15  -0.19   0.26     0.11   0.08  -0.22
  48   7     0.12   0.05   0.04     0.08   0.05   0.05    -0.12  -0.09  -0.04
  49   1     0.05   0.02   0.02     0.01  -0.00   0.03    -0.02  -0.02  -0.02
  50   1     0.02  -0.01   0.01     0.05   0.04  -0.00    -0.01  -0.01  -0.02
  51   7    -0.21  -0.09   0.09     0.07   0.02   0.09     0.16   0.12  -0.23
  52   1    -0.03  -0.02  -0.00     0.06   0.03   0.00     0.01   0.01  -0.04
  53   1    -0.04   0.01  -0.01     0.01  -0.00   0.03     0.03   0.02  -0.05
                     19                     20                     21
                        a                      a                      a 
 Frequencies --   121.1743               127.6864               137.3047
 Red. masses --    11.2315                12.3817                12.0989
 Frc consts  --     0.0000                 0.0000                 0.0000
 IR Inten    --    19.9288                 9.5904                17.1658
 Raman Activ --     0.0000                 0.0000                 0.0000
 Depolar     --     0.0000                 0.0000                 0.0000
 Atom AN      X      Y      Z        X      Y      Z        X      Y      Z
   1   8    -0.10  -0.03  -0.12     0.02   0.03   0.00    -0.03  -0.01  -0.00
   2   6     0.19   0.07  -0.09    -0.11  -0.06  -0.00    -0.04  -0.05   0.00
   3   1     0.10   0.02  -0.06    -0.06  -0.02   0.02    -0.03  -0.01   0.01
   4   1     0.06   0.05   0.04    -0.03  -0.04  -0.03    -0.01  -0.03  -0.00
   5   6     0.28   0.04  -0.23    -0.12  -0.04   0.03    -0.01  -0.02  -0.01
   6   1     0.14   0.02  -0.06    -0.03  -0.00   0.01     0.02   0.01  -0.01
   7   1     0.07  -0.01  -0.12    -0.03  -0.01   0.01    -0.01  -0.02  -0.03
   8   7     0.17   0.05  -0.14    -0.13  -0.04   0.08    -0.05  -0.02   0.09
   9   6    -0.10  -0.03  -0.17    -0.30  -0.04   0.03    -0.30  -0.08   0.04
  10   1    -0.04   0.01  -0.02    -0.11  -0.01   0.03    -0.11  -0.02   0.04
  11   1    -0.07  -0.00  -0.04    -0.10  -0.01   0.01    -0.10  -0.02   0.03
  12   1    -0.03  -0.05  -0.09    -0.09  -0.02  -0.03    -0.09  -0.04  -0.04
  13   6     0.17   0.18   0.10    -0.08  -0.04   0.26     0.01   0.02   0.32
  14   1     0.10   0.08   0.03     0.01   0.01   0.08     0.05   0.01   0.10
  15   1     0.03   0.05   0.05    -0.02  -0.01   0.09     0.00   0.01   0.11
  16   1     0.03   0.05   0.05    -0.05  -0.02   0.10    -0.04  -0.00   0.12
  17   6     0.22  -0.01  -0.24     0.02  -0.03  -0.05     0.11  -0.00  -0.05
  18   1     0.09  -0.01  -0.06     0.05  -0.00  -0.01     0.07   0.00  -0.01
  19   1     0.06  -0.00  -0.09    -0.01  -0.01  -0.06     0.02   0.00  -0.06
  20   1     0.06  -0.00  -0.08     0.01  -0.01  -0.01     0.03  -0.00  -0.00
  21   1    -0.03  -0.02  -0.06     0.01   0.01   0.02    -0.01   0.00   0.00
  22   6    -0.10   0.02   0.10     0.14   0.02   0.02     0.07   0.01   0.04
  23   8    -0.13   0.18   0.22     0.21   0.05   0.14     0.10   0.07   0.12
  24   7    -0.06  -0.04   0.03     0.08   0.00  -0.01     0.06  -0.01   0.01
  25   1    -0.01   0.01   0.03     0.02  -0.01   0.01     0.01  -0.00   0.01
  26   1    -0.02  -0.03  -0.01     0.01  -0.02  -0.03     0.01  -0.02  -0.02
  27   7    -0.18  -0.12   0.08     0.17   0.03  -0.09     0.07  -0.02  -0.03
  28   1    -0.04  -0.07  -0.00     0.04   0.02  -0.04     0.02  -0.00  -0.01
  29   1    -0.06  -0.02   0.04     0.07   0.02  -0.01     0.03   0.01   0.01
  30   6    -0.06  -0.01   0.07     0.01   0.01  -0.03    -0.00   0.02  -0.01
  31   8    -0.12   0.07   0.19     0.04  -0.01  -0.06    -0.01   0.02  -0.01
  32   7    -0.01  -0.11   0.01    -0.01   0.04  -0.02    -0.00   0.01  -0.02
  33   1    -0.01  -0.02   0.03    -0.00   0.01  -0.01    -0.00   0.01   0.00
  34   1     0.01  -0.03  -0.01    -0.01   0.02   0.00    -0.00   0.01   0.00
  35   7    -0.04  -0.01  -0.02     0.00   0.00   0.01    -0.01   0.03  -0.02
  36   1     0.00  -0.02  -0.02    -0.00   0.00   0.00     0.00   0.00  -0.01
  37   1    -0.02   0.01   0.01     0.01  -0.01  -0.00    -0.00   0.00  -0.01
  38   6     0.02  -0.05   0.03     0.11  -0.09  -0.04    -0.10   0.01  -0.05
  39   8     0.05  -0.14   0.08     0.17  -0.31  -0.11    -0.17   0.23  -0.04
  40   7     0.08  -0.00   0.05     0.28   0.06  -0.01    -0.26  -0.12  -0.07
  41   1     0.03   0.00  -0.00     0.09   0.02  -0.02    -0.09  -0.03  -0.02
  42   1     0.01   0.02  -0.02     0.06   0.06  -0.01    -0.06  -0.06  -0.01
  43   7    -0.06  -0.01  -0.01    -0.12  -0.01   0.00     0.11  -0.07  -0.04
  44   1    -0.02   0.01   0.01    -0.04   0.04   0.02     0.04  -0.06  -0.03
  45   1    -0.03  -0.02   0.02    -0.07  -0.04   0.00     0.06   0.01  -0.02
  46   6    -0.05  -0.01   0.03    -0.07   0.11  -0.04     0.13   0.00  -0.07
  47   8    -0.04   0.03   0.02    -0.04   0.36  -0.03     0.36  -0.07  -0.31
  48   7     0.01   0.03  -0.01     0.03  -0.05   0.05    -0.17   0.06  -0.06
  49   1     0.01   0.01  -0.00     0.04   0.01   0.03    -0.05   0.03  -0.09
  50   1    -0.02  -0.01   0.01    -0.00  -0.06   0.01    -0.07   0.05   0.02
  51   7    -0.15  -0.09   0.09    -0.24  -0.00  -0.14     0.20   0.01   0.16
  52   1    -0.03  -0.02   0.02    -0.06  -0.03  -0.05    -0.01  -0.01   0.09
  53   1    -0.03  -0.02   0.01    -0.06   0.02  -0.06     0.06  -0.00   0.05
                     22                     23                     24
                        a                      a                      a 
 Frequencies --   146.2789               156.6707               175.4399
 Red. masses --    12.1442                13.1858                12.4265
 Frc consts  --     0.0000                 0.0000                 0.0000
 IR Inten    --    13.6588                 4.3259                56.4225
 Raman Activ --     0.0000                 0.0000                 0.0000
 Depolar     --     0.0000                 0.0000                 0.0000
 Atom AN      X      Y      Z        X      Y      Z        X      Y      Z
   1   8    -0.27  -0.12   0.08    -0.01   0.00  -0.01     0.04  -0.13  -0.01
   2   6     0.00  -0.03   0.08     0.03   0.02  -0.01     0.05   0.02  -0.02
   3   1     0.04  -0.01  -0.00     0.02   0.01  -0.01     0.04   0.01  -0.03
   4   1     0.01   0.02   0.08     0.01   0.02   0.01     0.01   0.03  -0.00
   5   6     0.07  -0.06  -0.04     0.02   0.01  -0.02    -0.02   0.01   0.06
   6   1     0.06  -0.01  -0.01     0.00  -0.00  -0.00    -0.04  -0.00   0.01
   7   1     0.01  -0.03  -0.05     0.01   0.00  -0.00     0.00   0.00   0.04
   8   7    -0.03  -0.06   0.02     0.03   0.01  -0.05    -0.01   0.01   0.01
   9   6     0.03  -0.14   0.07     0.10   0.03  -0.03    -0.00   0.06  -0.01
  10   1     0.03  -0.03   0.00     0.04   0.01  -0.02    -0.02   0.00   0.00
  11   1    -0.01  -0.04   0.03     0.03   0.01  -0.02     0.03   0.01  -0.01
  12   1     0.02  -0.06   0.03     0.03   0.01   0.01    -0.01   0.05  -0.01
  13   6    -0.08   0.06  -0.06     0.01   0.01  -0.11    -0.01   0.00  -0.00
  14   1    -0.04   0.04  -0.03    -0.01  -0.00  -0.03     0.02  -0.05   0.03
  15   1    -0.04   0.02   0.00     0.00   0.00  -0.04    -0.02  -0.00  -0.07
  16   1     0.00   0.01  -0.04     0.01   0.01  -0.04    -0.01   0.06   0.03
  17   6    -0.13  -0.06   0.11    -0.04  -0.01   0.00    -0.00  -0.02  -0.02
  18   1    -0.05  -0.01   0.02    -0.03  -0.01  -0.00     0.00  -0.01  -0.00
  19   1    -0.03  -0.03   0.05    -0.01  -0.00   0.02    -0.00  -0.00  -0.01
  20   1    -0.05  -0.02   0.04    -0.01  -0.00  -0.01    -0.00  -0.00  -0.01
  21   1    -0.09  -0.01  -0.02    -0.00  -0.00  -0.01     0.00  -0.02  -0.01
  22   6     0.20   0.00  -0.00    -0.01  -0.00  -0.01     0.01  -0.00   0.00
  23   8     0.06   0.21  -0.16    -0.03  -0.00  -0.03     0.01   0.01  -0.01
  24   7     0.50   0.03   0.00     0.00   0.00  -0.00     0.03  -0.00   0.00
  25   1     0.15   0.02  -0.02     0.00   0.00  -0.00     0.01  -0.00   0.00
  26   1     0.15  -0.04   0.00     0.00   0.00   0.01     0.01  -0.00  -0.00
  27   7     0.06  -0.25   0.17    -0.02  -0.01   0.02     0.01  -0.02   0.01
  28   1     0.06  -0.11   0.09    -0.00  -0.01   0.01     0.00  -0.00   0.01
  29   1    -0.05  -0.07   0.05    -0.01  -0.00   0.00    -0.00  -0.00   0.01
  30   6    -0.11   0.09  -0.04    -0.01  -0.00   0.01    -0.02   0.01   0.00
  31   8    -0.25   0.13   0.03    -0.02   0.00   0.02    -0.06   0.01   0.01
  32   7    -0.02  -0.00  -0.06    -0.00  -0.01   0.00     0.01  -0.03  -0.00
  33   1    -0.02   0.02   0.04    -0.00  -0.00   0.00    -0.00  -0.00   0.02
  34   1     0.01   0.03   0.01     0.00  -0.00  -0.00     0.01   0.01   0.01
  35   7    -0.09   0.20  -0.17    -0.01   0.00  -0.01    -0.02   0.04  -0.02
  36   1     0.02   0.03  -0.09     0.00   0.00  -0.00     0.01   0.00  -0.02
  37   1    -0.05   0.06  -0.08    -0.00   0.00   0.00    -0.01   0.01  -0.02
  38   6     0.01   0.00  -0.00    -0.10  -0.25  -0.12    -0.02   0.05   0.13
  39   8     0.01  -0.01  -0.03    -0.16  -0.16  -0.16    -0.02   0.21   0.44
  40   7     0.03   0.02   0.01    -0.16  -0.29  -0.13    -0.22  -0.09  -0.01
  41   1     0.01   0.01   0.00    -0.05  -0.08  -0.03    -0.10  -0.01   0.01
  42   1     0.01   0.01   0.01    -0.04  -0.09  -0.00    -0.06  -0.05  -0.07
  43   7    -0.02   0.01   0.01    -0.04  -0.31  -0.08     0.30  -0.01  -0.08
  44   1    -0.00   0.01   0.01    -0.01  -0.10  -0.03     0.08  -0.06  -0.10
  45   1    -0.01  -0.00  -0.00    -0.00  -0.07  -0.04     0.14   0.04   0.01
  46   6    -0.00  -0.00  -0.01     0.08   0.26   0.16    -0.02  -0.00  -0.11
  47   8    -0.03  -0.02   0.01     0.18   0.41   0.15     0.02   0.33  -0.07
  48   7    -0.00  -0.00  -0.01     0.09   0.11   0.30     0.21  -0.24   0.03
  49   1    -0.00  -0.00   0.00     0.06   0.06   0.09     0.10  -0.04   0.06
  50   1     0.01   0.01  -0.01     0.03   0.00   0.07     0.02  -0.17   0.00
  51   7     0.03   0.03  -0.03     0.05   0.22   0.11    -0.25  -0.15  -0.25
  52   1     0.01   0.01  -0.01    -0.03   0.01   0.04    -0.07  -0.08  -0.08
  53   1     0.00   0.00  -0.00    -0.01   0.07   0.04    -0.09  -0.01  -0.09
                     25                     26                     27
                        a                      a                      a 
 Frequencies --   191.0800               226.2942               244.9725
 Red. masses --     9.8588                 3.2638                10.8962
 Frc consts  --     0.0000                 0.0000                 0.0000
 IR Inten    --    16.6990                39.6894                 5.3071
 Raman Activ --     0.0000                 0.0000                 0.0000
 Depolar     --     0.0000                 0.0000                 0.0000
 Atom AN      X      Y      Z        X      Y      Z        X      Y      Z
   1   8     0.22  -0.45  -0.01     0.06  -0.02  -0.04     0.52   0.33  -0.10
   2   6     0.13   0.05  -0.07     0.04   0.00  -0.05     0.07  -0.04  -0.10
   3   1     0.09   0.02  -0.10     0.02  -0.00  -0.01    -0.06  -0.01   0.05
   4   1     0.02   0.09  -0.02     0.01   0.01  -0.02     0.01  -0.09  -0.12
   5   6    -0.13   0.08   0.27    -0.03  -0.01   0.02     0.00  -0.02   0.00
   6   1    -0.16   0.00   0.07    -0.03  -0.00   0.00    -0.02   0.00  -0.00
   7   1    -0.01   0.05   0.19    -0.00  -0.00   0.03     0.01  -0.01   0.02
   8   7    -0.03   0.10   0.04    -0.01  -0.01   0.02    -0.00  -0.02   0.03
   9   6    -0.04   0.33  -0.06    -0.00   0.02   0.01    -0.02   0.03   0.01
  10   1    -0.11   0.02   0.02    -0.01  -0.01   0.01     0.11   0.15  -0.00
  11   1     0.13   0.08  -0.03     0.02   0.00   0.00    -0.17   0.03  -0.06
  12   1    -0.05   0.23  -0.06    -0.01   0.03  -0.00     0.04  -0.13   0.06
  13   6     0.01  -0.03   0.03    -0.00  -0.04   0.02     0.00  -0.04   0.04
  14   1     0.04  -0.13   0.07     0.01  -0.04   0.02    -0.04   0.10  -0.05
  15   1    -0.01  -0.01  -0.14    -0.00  -0.01  -0.03     0.04  -0.01   0.15
  16   1    -0.02   0.10   0.08    -0.01   0.02   0.02     0.01  -0.13  -0.06
  17   6     0.07  -0.05  -0.15     0.00  -0.00   0.01    -0.02  -0.01   0.04
  18   1     0.10  -0.01  -0.03     0.02   0.01   0.00    -0.08  -0.08   0.02
  19   1     0.01  -0.06  -0.10     0.00  -0.01  -0.01    -0.01   0.08   0.08
  20   1    -0.03  -0.01  -0.04    -0.01   0.00   0.02     0.07  -0.01  -0.06
  21   1     0.03  -0.07  -0.03     0.01   0.00  -0.02     0.13   0.15   0.03
  22   6     0.03  -0.03  -0.00     0.02   0.00   0.00     0.01  -0.01  -0.01
  23   8     0.01  -0.03  -0.05     0.01   0.03  -0.01    -0.01   0.01  -0.05
  24   7     0.04  -0.00   0.02     0.03  -0.02  -0.03     0.05   0.03   0.02
  25   1     0.01  -0.01   0.00     0.01   0.02   0.02     0.01  -0.02  -0.01
  26   1     0.01  -0.00  -0.00     0.03   0.04   0.04    -0.00  -0.03  -0.04
  27   7     0.02  -0.03   0.04     0.01  -0.03   0.01    -0.01  -0.03   0.03
  28   1     0.01  -0.01   0.01     0.01  -0.02   0.01     0.01  -0.00   0.04
  29   1    -0.00  -0.02  -0.00    -0.01  -0.01  -0.00    -0.01  -0.00   0.02
  30   6    -0.08   0.01  -0.01    -0.04   0.01  -0.02    -0.20  -0.06   0.01
  31   8    -0.20  -0.00   0.02    -0.09   0.04   0.05    -0.32  -0.11   0.02
  32   7     0.03  -0.10   0.01    -0.04   0.14   0.28     0.02  -0.22   0.16
  33   1    -0.01  -0.00   0.08     0.09  -0.30  -0.35    -0.02  -0.10   0.13
  34   1     0.03   0.03   0.07     0.11  -0.35  -0.50     0.07  -0.00   0.08
  35   7    -0.07   0.14  -0.06     0.01  -0.07  -0.18    -0.16   0.12  -0.09
  36   1     0.02  -0.01  -0.08    -0.06   0.27   0.26     0.01   0.02  -0.06
  37   1    -0.02   0.01  -0.08    -0.06   0.16   0.17    -0.06   0.03  -0.06
  38   6     0.01  -0.01  -0.04     0.00   0.00  -0.00     0.00   0.00   0.00
  39   8     0.00  -0.05  -0.12     0.00   0.00  -0.01     0.00   0.01   0.00
  40   7     0.05   0.02  -0.00     0.00   0.00  -0.00     0.00   0.00   0.00
  41   1     0.02   0.00  -0.00    -0.00   0.00   0.00     0.00   0.00  -0.00
  42   1     0.02   0.01   0.02     0.00  -0.00   0.00    -0.00   0.00  -0.00
  43   7    -0.08   0.00   0.04    -0.00   0.00   0.01     0.02   0.00  -0.01
  44   1    -0.02   0.02   0.03    -0.00   0.00  -0.00     0.00  -0.00  -0.01
  45   1    -0.04  -0.01  -0.00    -0.00   0.00  -0.00     0.01   0.00  -0.01
  46   6     0.00  -0.00   0.03     0.00   0.00  -0.00     0.00   0.00  -0.01
  47   8    -0.00  -0.08   0.02     0.00  -0.00  -0.00     0.01   0.01  -0.01
  48   7    -0.06   0.07  -0.01    -0.01   0.00  -0.00    -0.01  -0.01  -0.00
  49   1    -0.03   0.01  -0.02     0.00   0.00  -0.00     0.01   0.01  -0.01
  50   1    -0.02   0.04   0.01     0.00   0.01  -0.00     0.02   0.01  -0.01
  51   7     0.04   0.02   0.08     0.00  -0.00   0.00     0.01   0.00  -0.01
  52   1     0.02   0.02   0.02    -0.00  -0.00   0.00    -0.01  -0.01   0.01
  53   1     0.02   0.00   0.02     0.00   0.00  -0.00    -0.00  -0.00   0.00
                     28                     29                     30
                        a                      a                      a 
 Frequencies --   257.9078               263.6453               273.5553
 Red. masses --     6.3904                 1.9477                 2.4201
 Frc consts  --     0.0000                 0.0000                 0.0000
 IR Inten    --     6.5405                80.8613               120.7060
 Raman Activ --     0.0000                 0.0000                 0.0000
 Depolar     --     0.0000                 0.0000                 0.0000
 Atom AN      X      Y      Z        X      Y      Z        X      Y      Z
   1   8     0.01   0.42  -0.12    -0.01  -0.01  -0.01     0.03  -0.04   0.03
   2   6     0.12   0.16  -0.09     0.00  -0.00  -0.00    -0.03  -0.03   0.02
   3   1     0.11   0.02   0.02     0.00   0.00  -0.00    -0.03  -0.01   0.01
   4   1     0.02   0.11  -0.02     0.00  -0.00   0.00    -0.01  -0.03  -0.00
   5   6    -0.05  -0.07  -0.10     0.01   0.00  -0.01     0.00   0.00   0.01
   6   1    -0.04  -0.01  -0.03     0.00   0.00  -0.00     0.00  -0.00   0.01
   7   1    -0.00  -0.04   0.00     0.00  -0.00  -0.00    -0.00   0.01   0.00
   8   7    -0.01  -0.11   0.01     0.00   0.00  -0.00     0.01   0.01  -0.01
   9   6     0.04  -0.19   0.06     0.01   0.02  -0.01    -0.00  -0.00  -0.01
  10   1    -0.08  -0.18   0.02     0.00   0.01  -0.00     0.01   0.01  -0.00
  11   1     0.16  -0.08   0.08     0.00   0.00  -0.01    -0.02   0.00  -0.00
  12   1    -0.03   0.07  -0.04     0.00   0.01  -0.00     0.00  -0.02  -0.00
  13   6     0.03  -0.22   0.02     0.00   0.00  -0.00    -0.01   0.04  -0.02
  14   1     0.11  -0.32   0.14    -0.00   0.00  -0.00    -0.02   0.05  -0.03
  15   1    -0.04  -0.07  -0.30     0.00   0.00   0.01     0.00   0.01   0.04
  16   1    -0.03   0.19   0.17     0.00  -0.01  -0.00     0.01  -0.02  -0.03
  17   6     0.02   0.07   0.11    -0.00  -0.01  -0.01     0.00  -0.00  -0.01
  18   1     0.14   0.21  -0.01    -0.00  -0.01  -0.00     0.02   0.03  -0.01
  19   1     0.01  -0.14  -0.09    -0.00  -0.00   0.00     0.00  -0.03  -0.02
  20   1    -0.12   0.04   0.23    -0.00  -0.00  -0.00    -0.02   0.00   0.02
  21   1     0.02   0.06  -0.03    -0.00  -0.00  -0.00     0.01   0.01   0.01
  22   6     0.01   0.00   0.01    -0.00   0.00   0.00    -0.01   0.01   0.01
  23   8     0.00   0.02   0.01    -0.00   0.00   0.00    -0.01   0.00  -0.00
  24   7     0.01   0.01   0.01    -0.00   0.00   0.00     0.01   0.01   0.02
  25   1     0.00  -0.01  -0.00    -0.00  -0.00  -0.00    -0.00  -0.02  -0.02
  26   1    -0.00  -0.02  -0.02    -0.00  -0.00  -0.00    -0.02  -0.07  -0.07
  27   7     0.00  -0.02  -0.01    -0.00  -0.01  -0.01     0.00  -0.09  -0.11
  28   1     0.00   0.02   0.03    -0.00   0.01   0.02     0.00   0.18   0.24
  29   1    -0.00   0.02   0.02    -0.00   0.01   0.01     0.00   0.12   0.12
  30   6    -0.07  -0.02   0.02     0.00   0.00   0.00    -0.00   0.01   0.00
  31   8    -0.08  -0.03   0.03     0.01   0.00   0.00    -0.00   0.01   0.01
  32   7     0.00  -0.09   0.02    -0.00   0.00  -0.01     0.00   0.00   0.00
  33   1    -0.02  -0.00   0.07    -0.00   0.00   0.00     0.00  -0.00  -0.01
  34   1     0.01   0.03   0.07    -0.00   0.00   0.00     0.00  -0.01  -0.01
  35   7    -0.05   0.02  -0.02     0.00  -0.00   0.00    -0.00  -0.00  -0.01
  36   1     0.00  -0.01  -0.03    -0.00   0.00   0.00    -0.00   0.01   0.01
  37   1    -0.02   0.01  -0.01     0.00   0.00   0.00    -0.00   0.00   0.00
  38   6     0.00   0.01  -0.01     0.00  -0.01   0.01    -0.01  -0.01  -0.00
  39   8     0.00  -0.01  -0.03     0.02  -0.04   0.02    -0.01  -0.01  -0.00
  40   7    -0.00   0.00  -0.01    -0.02   0.01  -0.01    -0.00  -0.01   0.01
  41   1    -0.00  -0.00   0.01     0.03  -0.04   0.12     0.00  -0.00  -0.01
  42   1     0.00  -0.01   0.01     0.08  -0.11   0.38    -0.00   0.00   0.00
  43   7    -0.02   0.01   0.03     0.07  -0.01   0.24    -0.02  -0.00   0.02
  44   1    -0.01   0.01  -0.01    -0.19   0.16  -0.69    -0.02   0.02  -0.05
  45   1    -0.01  -0.00  -0.01    -0.09   0.06  -0.43    -0.02   0.00  -0.03
  46   6     0.00   0.00   0.00     0.00   0.01  -0.02    -0.00  -0.02   0.02
  47   8    -0.00   0.00   0.00     0.01   0.01  -0.02     0.03  -0.03  -0.02
  48   7     0.00   0.02  -0.00    -0.06  -0.01  -0.00     0.18   0.19  -0.07
  49   1    -0.02  -0.02   0.01     0.01   0.03  -0.03    -0.27  -0.25   0.15
  50   1    -0.04  -0.02   0.02     0.03   0.04  -0.03    -0.52  -0.38   0.31
  51   7    -0.01   0.00  -0.00    -0.00   0.00  -0.01    -0.01   0.03  -0.01
  52   1     0.02   0.01  -0.02    -0.02  -0.01   0.01     0.19   0.13  -0.12
  53   1     0.01   0.01  -0.01    -0.01  -0.01   0.00     0.06   0.03  -0.04
                     31                     32                     33
                        a                      a                      a 
 Frequencies --   279.6870               302.5567               311.6370
 Red. masses --     2.6083                 5.4878                 6.0583
 Frc consts  --     0.0000                 0.0000                 0.0000
 IR Inten    --   154.7443                 2.0144                 7.1583
 Raman Activ --     0.0000                 0.0000                 0.0000
 Depolar     --     0.0000                 0.0000                 0.0000
 Atom AN      X      Y      Z        X      Y      Z        X      Y      Z
   1   8    -0.02  -0.02  -0.00     0.06   0.08  -0.05     0.24  -0.05   0.24
   2   6    -0.02  -0.01  -0.00    -0.23  -0.28  -0.03    -0.01   0.04   0.15
   3   1    -0.01   0.00  -0.00    -0.24  -0.06   0.06    -0.03   0.02   0.06
   4   1    -0.00  -0.01   0.00    -0.05  -0.24  -0.07    -0.00  -0.02   0.02
   5   6     0.00   0.02   0.00     0.08   0.03  -0.03    -0.01   0.02   0.03
   6   1    -0.00   0.01   0.00     0.04   0.03  -0.01     0.01  -0.04   0.02
   7   1    -0.00   0.01  -0.00     0.01   0.04  -0.04    -0.01   0.02   0.00
   8   7     0.02   0.02   0.00     0.11   0.04   0.04    -0.05   0.03  -0.15
   9   6     0.02   0.02  -0.00     0.14   0.14   0.01    -0.10  -0.27  -0.05
  10   1     0.01   0.01   0.00    -0.00   0.00   0.01    -0.22  -0.34  -0.02
  11   1     0.01   0.01  -0.00     0.12   0.03  -0.00     0.24  -0.12   0.16
  12   1     0.01   0.00  -0.00     0.02   0.12  -0.01    -0.11   0.14  -0.16
  13   6     0.02   0.03   0.00     0.03   0.31   0.03    -0.07   0.05  -0.20
  14   1     0.01   0.00   0.00     0.03   0.12   0.00    -0.11   0.20  -0.16
  15   1     0.00   0.01  -0.01    -0.06   0.10   0.03     0.03   0.02   0.16
  16   1     0.01   0.02   0.01     0.02   0.10   0.00     0.02  -0.17  -0.19
  17   6     0.00  -0.02  -0.00    -0.07  -0.28  -0.00     0.08   0.26  -0.11
  18   1     0.02   0.00  -0.00     0.21   0.14  -0.03     0.10   0.18  -0.06
  19   1     0.00  -0.03  -0.01     0.01  -0.39  -0.16     0.01   0.03  -0.12
  20   1    -0.02  -0.00   0.01    -0.32  -0.04   0.19     0.00   0.08   0.09
  21   1    -0.01  -0.00  -0.00     0.02   0.07   0.04     0.06   0.01   0.08
  22   6    -0.03   0.00   0.02    -0.00   0.01   0.00     0.01  -0.01   0.01
  23   8    -0.03  -0.02  -0.02    -0.00   0.02   0.01     0.01   0.00   0.02
  24   7     0.01   0.04   0.05     0.00  -0.00  -0.01    -0.01  -0.01   0.01
  25   1    -0.01  -0.06  -0.06     0.00   0.01   0.00    -0.00  -0.00   0.00
  26   1    -0.06  -0.19  -0.18     0.01   0.02   0.02    -0.00  -0.00  -0.00
  27   7     0.01  -0.19  -0.24    -0.01   0.01   0.02     0.01  -0.01  -0.00
  28   1     0.01   0.43   0.56    -0.00  -0.05  -0.06     0.00  -0.00  -0.00
  29   1     0.01   0.27   0.28    -0.00  -0.02  -0.02     0.01  -0.00   0.00
  30   6     0.01   0.01   0.00    -0.02  -0.01  -0.01    -0.04  -0.00  -0.02
  31   8     0.02   0.03   0.02    -0.02  -0.02  -0.02    -0.06  -0.01  -0.02
  32   7    -0.01   0.02  -0.01     0.00  -0.01   0.03     0.02  -0.02   0.04
  33   1     0.00   0.00  -0.01     0.00  -0.02   0.00     0.00  -0.03   0.01
  34   1    -0.00  -0.01  -0.03     0.01  -0.01  -0.00     0.03  -0.01  -0.01
  35   7     0.01  -0.01   0.00    -0.02   0.02   0.00    -0.03   0.04  -0.03
  36   1    -0.00   0.00   0.01     0.00  -0.01  -0.01    -0.00   0.00  -0.02
  37   1     0.00   0.00   0.01    -0.00  -0.01  -0.01    -0.01   0.00  -0.01
  38   6     0.00   0.00   0.00    -0.01  -0.00   0.01    -0.01  -0.01   0.02
  39   8     0.00   0.00  -0.00    -0.01  -0.00   0.03    -0.01  -0.00   0.04
  40   7     0.01   0.00  -0.00    -0.01  -0.00   0.01    -0.01  -0.00  -0.00
  41   1     0.00   0.00  -0.00     0.00   0.00  -0.00     0.01  -0.00   0.00
  42   1    -0.00   0.01  -0.01    -0.00   0.00  -0.00     0.00  -0.00   0.02
  43   7     0.00   0.00  -0.02     0.01  -0.01  -0.01     0.01  -0.01  -0.02
  44   1     0.01  -0.01   0.04     0.01  -0.01   0.00     0.00  -0.01  -0.01
  45   1     0.01  -0.00   0.02     0.01   0.00   0.00     0.01   0.00  -0.00
  46   6    -0.00   0.00  -0.00     0.00  -0.00  -0.01    -0.00   0.00   0.00
  47   8    -0.02   0.01   0.01    -0.00   0.00  -0.00    -0.01  -0.00   0.01
  48   7    -0.07  -0.08   0.03    -0.01  -0.02   0.01    -0.00  -0.02   0.02
  49   1     0.11   0.11  -0.06     0.02   0.01  -0.00     0.03   0.02   0.00
  50   1     0.22   0.16  -0.13     0.03   0.01  -0.02     0.05   0.02  -0.03
  51   7     0.01  -0.01   0.00    -0.01  -0.01   0.00    -0.01  -0.01   0.02
  52   1    -0.09  -0.06   0.06    -0.01  -0.01   0.01    -0.02  -0.01   0.02
  53   1    -0.03  -0.01   0.02    -0.00   0.00  -0.00     0.00   0.00   0.00
                     34                     35                     36
                        a                      a                      a 
 Frequencies --   340.2504               346.1503               358.2603
 Red. masses --     5.2063                 3.2745                 3.8509
 Frc consts  --     0.0000                 0.0000                 0.0000
 IR Inten    --    16.9089                 2.7898               187.7540
 Raman Activ --     0.0000                 0.0000                 0.0000
 Depolar     --     0.0000                 0.0000                 0.0000
 Atom AN      X      Y      Z        X      Y      Z        X      Y      Z
   1   8     0.18  -0.20   0.21     0.13   0.03   0.06     0.05  -0.04   0.03
   2   6    -0.15  -0.05   0.14    -0.16  -0.10   0.03    -0.05  -0.05   0.02
   3   1    -0.11   0.00   0.04    -0.14  -0.02   0.05    -0.04  -0.01   0.02
   4   1    -0.04  -0.06   0.00    -0.04  -0.11  -0.04    -0.01  -0.04  -0.01
   5   6    -0.03   0.06   0.02     0.02   0.03  -0.06    -0.01   0.01   0.02
   6   1     0.02  -0.02   0.02     0.06  -0.00  -0.01    -0.00  -0.01   0.01
   7   1    -0.02   0.04  -0.03    -0.01   0.03  -0.07    -0.01   0.02   0.00
   8   7     0.03   0.06  -0.10     0.03   0.03  -0.05     0.01   0.02  -0.02
   9   6    -0.08  -0.18  -0.05     0.09  -0.15   0.03    -0.00  -0.04  -0.00
  10   1     0.18   0.17  -0.05    -0.09  -0.23  -0.01     0.01  -0.01  -0.01
  11   1    -0.36  -0.01  -0.04     0.23  -0.07   0.11    -0.02  -0.01   0.01
  12   1     0.07  -0.37   0.07    -0.03   0.13  -0.05     0.00  -0.03   0.00
  13   6     0.01   0.08  -0.17     0.00   0.26   0.07    -0.00   0.07  -0.02
  14   1     0.07  -0.19   0.06     0.13  -0.10   0.13     0.02  -0.02   0.02
  15   1    -0.07   0.01  -0.30    -0.11   0.07  -0.21    -0.03   0.02  -0.06
  16   1    -0.01   0.24   0.06    -0.03   0.30   0.16    -0.00   0.07   0.02
  17   6     0.10   0.23  -0.06    -0.05  -0.05  -0.05     0.02   0.03  -0.02
  18   1     0.11   0.18  -0.04    -0.25  -0.29   0.04    -0.01  -0.01  -0.00
  19   1     0.02   0.01  -0.09    -0.02   0.24   0.19     0.00   0.03   0.00
  20   1    -0.02   0.07   0.10     0.20  -0.05  -0.28     0.02   0.01  -0.02
  21   1     0.03   0.01   0.08     0.03   0.04   0.06     0.02  -0.02   0.01
  22   6    -0.00   0.01   0.00     0.00  -0.01   0.00    -0.01  -0.03  -0.03
  23   8     0.00   0.01   0.01     0.00  -0.01  -0.01    -0.00  -0.04  -0.02
  24   7     0.00  -0.00  -0.01    -0.01  -0.01   0.00     0.04   0.09   0.08
  25   1     0.00   0.00  -0.00    -0.00  -0.00   0.00    -0.01  -0.05  -0.04
  26   1     0.00   0.01   0.01    -0.00   0.01   0.01    -0.07  -0.19  -0.20
  27   7    -0.00   0.00   0.00     0.01  -0.00  -0.01    -0.00   0.05   0.06
  28   1    -0.00  -0.01  -0.02     0.00   0.02   0.02    -0.01  -0.04  -0.07
  29   1     0.00  -0.00  -0.00     0.00  -0.00  -0.00     0.01  -0.02  -0.03
  30   6     0.01  -0.01  -0.03    -0.02  -0.01  -0.02    -0.02   0.10   0.09
  31   8    -0.01  -0.01  -0.02    -0.02  -0.01  -0.02    -0.03   0.05   0.03
  32   7     0.00   0.03   0.04     0.00  -0.00   0.05     0.05  -0.13  -0.21
  33   1     0.01  -0.03  -0.03     0.01  -0.03  -0.01    -0.04   0.10   0.15
  34   1     0.01  -0.04  -0.05     0.02  -0.03  -0.03    -0.02   0.17   0.24
  35   7    -0.01   0.05   0.03    -0.03   0.04   0.02     0.06  -0.21  -0.21
  36   1     0.01  -0.06  -0.07     0.01  -0.05  -0.07    -0.11   0.47   0.51
  37   1     0.01  -0.03  -0.04     0.00  -0.02  -0.03    -0.05   0.13   0.16
  38   6     0.01  -0.00   0.00     0.02   0.00  -0.02     0.00  -0.00  -0.00
  39   8     0.00  -0.01   0.00     0.01  -0.00  -0.02     0.00  -0.00  -0.00
  40   7    -0.01  -0.01  -0.01     0.01  -0.01   0.01    -0.00  -0.00  -0.00
  41   1    -0.00  -0.01   0.01    -0.01  -0.00  -0.00    -0.00  -0.00   0.00
  42   1     0.01  -0.02   0.03    -0.00  -0.00  -0.02     0.00  -0.00   0.00
  43   7    -0.02  -0.00   0.01    -0.02   0.00   0.03    -0.01   0.00   0.00
  44   1    -0.01   0.01   0.00    -0.01   0.02  -0.01    -0.00   0.00   0.00
  45   1    -0.01  -0.00   0.00    -0.02  -0.01  -0.01    -0.00  -0.00   0.00
  46   6     0.00   0.00   0.01    -0.00  -0.00   0.01     0.00  -0.00   0.00
  47   8    -0.00  -0.00   0.01     0.00  -0.00   0.01    -0.00  -0.00   0.00
  48   7    -0.01  -0.00   0.01    -0.00   0.03  -0.01    -0.00   0.00   0.00
  49   1     0.01   0.01  -0.00    -0.02  -0.00  -0.01    -0.00   0.00  -0.00
  50   1     0.03   0.02  -0.01    -0.03  -0.01   0.02     0.01   0.01  -0.00
  51   7    -0.02  -0.01   0.01     0.01   0.00  -0.02    -0.00  -0.00   0.00
  52   1     0.01   0.00  -0.01     0.00  -0.00  -0.01     0.00  -0.00  -0.00
  53   1     0.00   0.01  -0.01    -0.01  -0.01   0.00    -0.00   0.00  -0.00
                     37                     38                     39
                        a                      a                      a 
 Frequencies --   370.1742               381.1900               391.9049
 Red. masses --     7.6410                 3.4953                 3.2158
 Frc consts  --     0.0000                 0.0000                 0.0000
 IR Inten    --     0.7963               260.1316               533.3056
 Raman Activ --     0.0000                 0.0000                 0.0000
 Depolar     --     0.0000                 0.0000                 0.0000
 Atom AN      X      Y      Z        X      Y      Z        X      Y      Z
   1   8     0.08  -0.11   0.08    -0.01   0.01  -0.01    -0.03   0.00  -0.01
   2   6     0.05  -0.20   0.08     0.01  -0.01  -0.00     0.01   0.02  -0.01
   3   1    -0.10  -0.04   0.04    -0.00  -0.00  -0.00     0.02   0.00  -0.01
   4   1     0.04  -0.17   0.04     0.00  -0.01   0.00     0.00   0.02   0.01
   5   6     0.33  -0.01  -0.17     0.02  -0.00  -0.01    -0.00   0.01  -0.00
   6   1     0.26   0.05  -0.05     0.01   0.01  -0.00    -0.01   0.00  -0.00
   7   1     0.07  -0.07  -0.19     0.01  -0.00  -0.01     0.00   0.01   0.01
   8   7    -0.02   0.05  -0.01     0.00  -0.00   0.02     0.01  -0.00  -0.00
   9   6    -0.24   0.30  -0.15     0.01   0.02   0.01    -0.00  -0.00  -0.00
  10   1    -0.17   0.07   0.04    -0.01  -0.00   0.01    -0.01  -0.01   0.00
  11   1     0.02   0.08  -0.09     0.02   0.00   0.00     0.01  -0.00   0.00
  12   1    -0.11   0.17  -0.13    -0.00   0.02  -0.00    -0.00   0.01  -0.00
  13   6     0.04  -0.23  -0.05    -0.00  -0.00   0.01     0.01  -0.01  -0.00
  14   1     0.01  -0.16   0.03    -0.01  -0.01   0.00    -0.00   0.01  -0.01
  15   1     0.09  -0.08  -0.10    -0.01   0.00  -0.00     0.01  -0.00   0.02
  16   1    -0.03  -0.06   0.03     0.00   0.00   0.00     0.01  -0.02  -0.01
  17   6    -0.22   0.19   0.25     0.00  -0.01   0.01    -0.00  -0.02   0.00
  18   1    -0.15   0.10   0.04    -0.02  -0.02   0.00     0.00  -0.00  -0.00
  19   1    -0.04   0.05   0.14     0.00   0.02   0.01     0.00  -0.02   0.00
  20   1    -0.05   0.05   0.12     0.01  -0.00  -0.02    -0.01  -0.01   0.00
  21   1     0.01   0.02   0.02    -0.00   0.00  -0.00    -0.01   0.02  -0.00
  22   6    -0.00  -0.00   0.00    -0.00  -0.01  -0.01    -0.04  -0.08  -0.07
  23   8     0.00  -0.00   0.01    -0.00  -0.01  -0.01    -0.02  -0.09  -0.03
  24   7    -0.00   0.00   0.00     0.01   0.02   0.01     0.10   0.20   0.17
  25   1    -0.00  -0.00  -0.00    -0.00  -0.01  -0.00    -0.01  -0.06  -0.01
  26   1    -0.01  -0.02  -0.02    -0.02  -0.04  -0.05    -0.19  -0.54  -0.58
  27   7    -0.00   0.00  -0.00    -0.00   0.01   0.01    -0.02   0.15   0.15
  28   1    -0.00   0.01   0.01    -0.00  -0.00  -0.00    -0.02  -0.09  -0.17
  29   1    -0.00  -0.00  -0.00    -0.00  -0.01  -0.01     0.01  -0.07  -0.08
  30   6    -0.00   0.00  -0.00    -0.00  -0.00  -0.00     0.02  -0.01  -0.02
  31   8    -0.00   0.00  -0.00     0.00   0.00   0.00     0.02   0.01   0.01
  32   7     0.00  -0.00  -0.00    -0.00   0.00   0.01    -0.02   0.06   0.07
  33   1     0.00   0.00   0.00     0.00  -0.00  -0.00     0.01  -0.01  -0.04
  34   1     0.00   0.00   0.00     0.00  -0.01  -0.01     0.01  -0.13  -0.19
  35   7    -0.00  -0.00  -0.00    -0.00   0.01   0.01    -0.01   0.05   0.08
  36   1    -0.00   0.01   0.01     0.00  -0.01  -0.01     0.03  -0.16  -0.16
  37   1     0.00  -0.00  -0.00     0.00  -0.00  -0.00     0.02  -0.04  -0.03
  38   6     0.00   0.01  -0.01     0.02  -0.05   0.16    -0.00   0.00  -0.01
  39   8     0.00   0.00  -0.01     0.00  -0.03   0.07    -0.00   0.00  -0.00
  40   7     0.00  -0.00   0.00    -0.06   0.08  -0.24     0.00  -0.01   0.02
  41   1    -0.00   0.00   0.00     0.04  -0.04   0.10    -0.00   0.00  -0.01
  42   1    -0.00   0.00  -0.03     0.15  -0.21   0.74    -0.01   0.02  -0.06
  43   7    -0.00   0.00   0.01    -0.06   0.05  -0.25     0.01  -0.01   0.02
  44   1    -0.00   0.00  -0.00     0.09  -0.08   0.30    -0.01   0.01  -0.03
  45   1    -0.00   0.00  -0.00     0.03   0.00   0.09    -0.00   0.00  -0.01
  46   6    -0.00   0.00  -0.00     0.04   0.03  -0.04    -0.00   0.00   0.00
  47   8    -0.00   0.01  -0.00     0.03   0.02  -0.03    -0.00  -0.00  -0.00
  48   7     0.00  -0.00   0.00    -0.06  -0.03   0.02     0.01  -0.00   0.00
  49   1     0.00   0.00   0.00     0.00   0.01  -0.02     0.00  -0.00   0.00
  50   1     0.00  -0.00  -0.00     0.00   0.02  -0.00    -0.01  -0.01   0.01
  51   7     0.00   0.01  -0.01    -0.09  -0.05   0.01     0.00   0.00   0.00
  52   1     0.01   0.01  -0.01     0.17   0.11  -0.11     0.00   0.00   0.00
  53   1    -0.00  -0.00   0.00     0.03   0.01  -0.03    -0.00  -0.00   0.00
                     40                     41                     42
                        a                      a                      a 
 Frequencies --   432.0698               439.9125               459.5339
 Red. masses --     7.8802                 3.8459                 8.1735
 Frc consts  --     0.0000                 0.0000                 0.0000
 IR Inten    --    36.4552               270.9388                19.8450
 Raman Activ --     0.0000                 0.0000                 0.0000
 Depolar     --     0.0000                 0.0000                 0.0000
 Atom AN      X      Y      Z        X      Y      Z        X      Y      Z
   1   8     0.10  -0.12   0.16    -0.04   0.05  -0.06    -0.01   0.01  -0.01
   2   6    -0.03   0.15   0.08     0.02  -0.06  -0.03     0.01  -0.02  -0.00
   3   1     0.02   0.04  -0.00    -0.01  -0.02  -0.00     0.00  -0.01   0.00
   4   1    -0.01   0.06   0.02     0.01  -0.03  -0.01     0.00  -0.01  -0.00
   5   6    -0.06   0.02  -0.11     0.03  -0.00   0.05     0.00  -0.02   0.01
   6   1     0.03  -0.03  -0.01    -0.02   0.02   0.01    -0.01  -0.00   0.00
   7   1    -0.03   0.00  -0.06     0.01   0.00   0.03     0.00  -0.00   0.01
   8   7    -0.12   0.03  -0.27     0.05  -0.01   0.12     0.01  -0.01   0.01
   9   6     0.29  -0.05  -0.17    -0.11   0.01   0.08    -0.02   0.01  -0.00
  10   1     0.17  -0.02  -0.12    -0.07   0.00   0.05    -0.01   0.01   0.01
  11   1     0.08  -0.01  -0.04    -0.03   0.00   0.03    -0.01   0.00  -0.01
  12   1     0.11  -0.02   0.07    -0.04   0.01  -0.03    -0.01   0.00  -0.01
  13   6     0.07  -0.09   0.38    -0.03   0.04  -0.16    -0.01   0.02  -0.04
  14   1     0.15   0.03   0.13    -0.07  -0.00  -0.05    -0.01   0.00  -0.01
  15   1     0.07  -0.02   0.20    -0.03   0.01  -0.07    -0.01   0.01  -0.02
  16   1    -0.12  -0.10   0.20     0.05   0.04  -0.09     0.01   0.02  -0.02
  17   6    -0.30   0.06  -0.11     0.13  -0.04   0.04     0.03   0.01   0.02
  18   1    -0.10   0.08  -0.06     0.03  -0.04   0.02     0.00   0.00   0.01
  19   1    -0.06  -0.06   0.00     0.03   0.03   0.00     0.01   0.01   0.01
  20   1    -0.14   0.02   0.03     0.06  -0.01  -0.02     0.02   0.00   0.01
  21   1     0.02  -0.02   0.04    -0.01   0.01  -0.02    -0.00   0.01  -0.00
  22   6     0.00   0.01  -0.00    -0.00   0.00   0.00    -0.00  -0.00   0.00
  23   8     0.01  -0.00  -0.00    -0.00   0.00   0.00    -0.01   0.00  -0.00
  24   7    -0.00   0.01  -0.00     0.00  -0.01  -0.00     0.01  -0.00   0.00
  25   1    -0.00  -0.00  -0.00     0.00   0.00  -0.00     0.00  -0.00  -0.00
  26   1    -0.00   0.00  -0.00     0.01   0.01   0.01     0.00  -0.00   0.00
  27   7    -0.01  -0.01   0.00     0.00   0.00  -0.01     0.00   0.00  -0.01
  28   1     0.00  -0.01   0.01     0.00   0.02   0.02    -0.00   0.00  -0.01
  29   1    -0.01  -0.00   0.00    -0.00  -0.01  -0.01     0.01   0.01   0.01
  30   6    -0.01   0.01  -0.01     0.00  -0.01   0.01     0.01  -0.02   0.01
  31   8    -0.01   0.01  -0.01     0.01  -0.01   0.01     0.00  -0.02   0.01
  32   7     0.02  -0.00   0.00    -0.02   0.00  -0.00    -0.03   0.00  -0.01
  33   1     0.00  -0.00   0.01    -0.00   0.01  -0.01    -0.01   0.03   0.00
  34   1     0.02   0.00  -0.00    -0.02   0.00   0.01    -0.02  -0.01  -0.01
  35   7    -0.01  -0.00  -0.00     0.01   0.01  -0.01     0.02   0.02  -0.01
  36   1    -0.01   0.01   0.02     0.01   0.00  -0.00     0.02   0.02   0.00
  37   1     0.01  -0.01  -0.00    -0.01   0.01  -0.01    -0.01   0.01  -0.02
  38   6    -0.02   0.00  -0.00    -0.01   0.00  -0.03    -0.21  -0.01   0.04
  39   8    -0.01  -0.01  -0.01    -0.01   0.02  -0.02    -0.20  -0.17  -0.00
  40   7     0.01   0.01   0.02    -0.00  -0.04   0.05     0.09   0.28   0.06
  41   1     0.00   0.00   0.01    -0.01  -0.01   0.02     0.15   0.04   0.02
  42   1    -0.02   0.03  -0.08    -0.05   0.05  -0.21    -0.01   0.21  -0.01
  43   7     0.02  -0.01   0.01    -0.00  -0.02   0.06     0.22  -0.15  -0.05
  44   1     0.00  -0.01  -0.03    -0.03   0.03  -0.08     0.13  -0.26  -0.01
  45   1     0.01   0.01  -0.01    -0.02  -0.01  -0.01     0.21   0.14  -0.17
  46   6     0.05   0.02  -0.02     0.08   0.07  -0.05     0.14  -0.08   0.13
  47   8     0.04   0.02  -0.01     0.06   0.00  -0.05     0.11   0.04   0.22
  48   7    -0.07  -0.03   0.03    -0.11  -0.10   0.11    -0.19   0.17  -0.01
  49   1     0.01   0.03  -0.04     0.07   0.06  -0.01    -0.06   0.09  -0.25
  50   1     0.04   0.06  -0.02     0.15   0.10  -0.08    -0.15   0.18   0.13
  51   7    -0.09  -0.06   0.02    -0.21  -0.09   0.11    -0.02  -0.16  -0.24
  52   1     0.25   0.17  -0.15     0.57   0.42  -0.33     0.04  -0.13  -0.13
  53   1     0.01  -0.02  -0.00     0.03  -0.03   0.02    -0.11  -0.00  -0.08
                     43                     44                     45
                        a                      a                      a 
 Frequencies --   462.0586               464.0179               466.2071
 Red. masses --     4.2620                 7.0710                 4.8956
 Frc consts  --     0.0000                 0.0000                 0.0000
 IR Inten    --    18.8193                 7.4908                 2.7449
 Raman Activ --     0.0000                 0.0000                 0.0000
 Depolar     --     0.0000                 0.0000                 0.0000
 Atom AN      X      Y      Z        X      Y      Z        X      Y      Z
   1   8    -0.05  -0.01  -0.01    -0.01   0.05  -0.01    -0.01   0.02  -0.01
   2   6     0.01  -0.05   0.01     0.09  -0.18   0.02     0.03  -0.06  -0.00
   3   1     0.02  -0.02   0.01     0.07  -0.07   0.04     0.03  -0.02   0.01
   4   1     0.00  -0.00   0.01     0.02  -0.01   0.01     0.00   0.01  -0.01
   5   6    -0.00  -0.06  -0.01    -0.05  -0.29   0.01    -0.07  -0.09   0.07
   6   1     0.01  -0.01  -0.00    -0.07  -0.09   0.00    -0.12  -0.06   0.02
   7   1     0.00  -0.02  -0.01    -0.00  -0.07   0.06    -0.00   0.02   0.11
   8   7    -0.04  -0.04   0.01    -0.08  -0.21  -0.06     0.09  -0.08  -0.10
   9   6     0.03   0.04  -0.00     0.10   0.11  -0.14    -0.03  -0.01  -0.16
  10   1     0.02   0.03  -0.00     0.04   0.08  -0.02    -0.03   0.02  -0.01
  11   1     0.01   0.01  -0.03     0.07   0.03  -0.14    -0.01  -0.00  -0.06
  12   1     0.01   0.02   0.02     0.03   0.09   0.02    -0.01   0.00  -0.07
  13   6    -0.07   0.03   0.00    -0.16   0.19   0.08     0.09   0.11   0.03
  14   1    -0.01   0.01   0.00     0.02   0.11   0.02     0.07   0.07   0.01
  15   1    -0.04   0.01  -0.00    -0.15   0.06   0.05    -0.02   0.04   0.04
  16   1    -0.01   0.02  -0.00    -0.03   0.11   0.03     0.02   0.05   0.02
  17   6     0.05   0.04  -0.01     0.11   0.22   0.05    -0.03   0.06   0.12
  18   1     0.03   0.02  -0.00     0.02   0.13  -0.01    -0.08   0.06   0.01
  19   1     0.00   0.03  -0.02     0.01   0.13  -0.02     0.00   0.02   0.08
  20   1     0.03   0.01   0.01     0.12   0.05   0.10     0.01   0.02   0.07
  21   1    -0.00  -0.03  -0.01    -0.01   0.02  -0.01    -0.00  -0.01  -0.01
  22   6     0.05   0.05  -0.03     0.05   0.06  -0.03    -0.08  -0.09   0.04
  23   8     0.10   0.00   0.01     0.11   0.00   0.02    -0.16  -0.01  -0.02
  24   7    -0.08   0.03  -0.05    -0.11   0.02  -0.07     0.15  -0.05   0.08
  25   1    -0.04   0.02   0.05    -0.05   0.01   0.05     0.07   0.01  -0.03
  26   1    -0.06  -0.02  -0.09    -0.06   0.01  -0.07     0.07  -0.07   0.04
  27   7    -0.01  -0.03   0.07    -0.02  -0.03   0.07     0.03   0.08  -0.10
  28   1     0.06   0.00   0.19     0.06   0.02   0.24    -0.08   0.03  -0.24
  29   1    -0.14  -0.20  -0.17    -0.16  -0.24  -0.21     0.19   0.22   0.16
  30   6    -0.06   0.15  -0.10     0.06  -0.10   0.08     0.02  -0.06   0.10
  31   8    -0.02   0.19  -0.10     0.01  -0.13   0.09     0.02  -0.06   0.12
  32   7     0.20   0.01   0.08    -0.16   0.03  -0.05    -0.17   0.05  -0.00
  33   1     0.11  -0.44  -0.22    -0.03   0.16  -0.03     0.05  -0.22  -0.39
  34   1     0.19   0.27   0.30    -0.15  -0.06  -0.05    -0.13   0.19   0.29
  35   7    -0.14  -0.21   0.03     0.12   0.12  -0.06     0.10   0.05  -0.16
  36   1    -0.15  -0.21  -0.09     0.12   0.07  -0.01     0.12  -0.04  -0.14
  37   1     0.04   0.01   0.26    -0.03   0.06  -0.09    -0.07   0.18   0.08
  38   6    -0.01  -0.00   0.00     0.03  -0.00  -0.01     0.01  -0.00  -0.00
  39   8    -0.01  -0.01   0.00     0.02   0.02   0.00     0.01   0.01   0.00
  40   7     0.00   0.01   0.01    -0.01  -0.04  -0.01    -0.00  -0.01  -0.00
  41   1     0.01   0.00   0.00    -0.02  -0.01  -0.00    -0.00   0.00  -0.01
  42   1    -0.00   0.01  -0.01    -0.00  -0.02  -0.01     0.00  -0.01   0.01
  43   7     0.01  -0.01  -0.00    -0.03   0.01   0.01    -0.01   0.00  -0.00
  44   1     0.01  -0.01  -0.00    -0.01   0.03   0.01    -0.00   0.01   0.00
  45   1     0.01   0.01  -0.01    -0.03  -0.01   0.01    -0.01  -0.01   0.01
  46   6     0.01  -0.01   0.01     0.01  -0.01   0.00    -0.01  -0.00  -0.00
  47   8     0.01   0.00   0.02     0.01   0.00   0.00    -0.00  -0.00  -0.01
  48   7    -0.02   0.01   0.00    -0.01   0.01  -0.00     0.00  -0.00  -0.00
  49   1    -0.01   0.01  -0.02    -0.02  -0.01   0.01    -0.01  -0.01   0.01
  50   1    -0.01   0.02   0.01     0.01   0.02  -0.01     0.01   0.00  -0.01
  51   7    -0.00  -0.02  -0.02    -0.00  -0.01  -0.00     0.00   0.00   0.00
  52   1     0.01  -0.01  -0.01    -0.01  -0.02   0.00     0.00   0.00   0.00
  53   1    -0.01   0.00  -0.01     0.00   0.01  -0.01     0.00  -0.00   0.00
                     46                     47                     48
                        a                      a                      a 
 Frequencies --   468.2024               471.9175               476.0123
 Red. masses --     6.0175                 6.7169                 4.2733
 Frc consts  --     0.0000                 0.0000                 0.0000
 IR Inten    --     3.7927                12.1631                 5.6369
 Raman Activ --     0.0000                 0.0000                 0.0000
 Depolar     --     0.0000                 0.0000                 0.0000
 Atom AN      X      Y      Z        X      Y      Z        X      Y      Z
   1   8    -0.07   0.02  -0.02    -0.06   0.02  -0.02    -0.01   0.00  -0.00
   2   6     0.07  -0.14   0.02    -0.02   0.02  -0.02    -0.00   0.01  -0.00
   3   1     0.07  -0.05   0.02     0.02  -0.00  -0.01    -0.00   0.00  -0.00
   4   1     0.01   0.01   0.01    -0.01   0.04  -0.01    -0.00   0.00  -0.00
   5   6    -0.05  -0.23   0.02    -0.11  -0.00   0.14    -0.01   0.01   0.02
   6   1    -0.06  -0.07   0.00    -0.20  -0.07   0.04    -0.02  -0.00   0.00
   7   1    -0.00  -0.05   0.05    -0.01   0.09   0.18     0.00   0.01   0.02
   8   7    -0.03  -0.18  -0.03     0.25  -0.04  -0.13     0.03   0.01  -0.01
   9   6     0.06   0.10  -0.12    -0.15  -0.10  -0.23    -0.02  -0.01  -0.02
  10   1     0.02   0.07  -0.01    -0.11  -0.01  -0.00    -0.01  -0.00   0.00
  11   1     0.04   0.03  -0.11    -0.09  -0.02  -0.04    -0.01  -0.00   0.00
  12   1     0.01   0.07  -0.00    -0.06  -0.06  -0.16    -0.01  -0.01  -0.02
  13   6    -0.10   0.15   0.05     0.28   0.10  -0.01     0.03  -0.00  -0.02
  14   1     0.02   0.09   0.01     0.11   0.06  -0.01    -0.00   0.02  -0.01
  15   1    -0.11   0.05   0.04     0.04   0.03   0.03     0.02  -0.00   0.02
  16   1    -0.01   0.09   0.01     0.07   0.03   0.01     0.01  -0.02  -0.02
  17   6     0.09   0.15   0.08    -0.11  -0.03   0.22    -0.02  -0.01   0.02
  18   1    -0.00   0.09  -0.00    -0.15   0.03   0.03    -0.01   0.01   0.00
  19   1     0.01   0.10   0.01     0.01  -0.04   0.18     0.00  -0.02   0.01
  20   1     0.10   0.03   0.08    -0.06  -0.01   0.08    -0.02  -0.00   0.01
  21   1    -0.01  -0.01  -0.01    -0.01  -0.02  -0.01    -0.00  -0.00  -0.00
  22   6     0.01  -0.04  -0.02    -0.06  -0.01   0.07    -0.02  -0.01   0.02
  23   8    -0.03  -0.00  -0.06    -0.08   0.00   0.07    -0.03   0.00   0.02
  24   7     0.01   0.03   0.08     0.12  -0.10  -0.05     0.04  -0.03  -0.00
  25   1    -0.00  -0.05  -0.04     0.07   0.05  -0.01     0.02   0.01  -0.01
  26   1     0.01   0.04   0.05     0.08  -0.04   0.05     0.02  -0.02   0.02
  27   7     0.01  -0.07  -0.02     0.02   0.13  -0.06     0.01   0.04  -0.02
  28   1    -0.04  -0.10  -0.24    -0.00   0.17   0.14    -0.01   0.05   0.02
  29   1     0.11   0.30   0.32     0.01  -0.22  -0.29     0.02  -0.04  -0.06
  30   6    -0.05   0.11  -0.12    -0.03   0.04  -0.06    -0.01   0.00  -0.01
  31   8    -0.01   0.13  -0.13    -0.00   0.06  -0.07     0.00   0.01  -0.01
  32   7     0.21  -0.04   0.04     0.11  -0.03   0.02     0.01  -0.01   0.00
  33   1    -0.01   0.03   0.26    -0.02   0.05   0.18    -0.00   0.00   0.02
  34   1     0.19  -0.08  -0.15     0.09  -0.06  -0.10     0.01  -0.00  -0.01
  35   7    -0.15  -0.12   0.14    -0.08  -0.05   0.07    -0.01  -0.00   0.01
  36   1    -0.15  -0.06   0.06    -0.08   0.00   0.06    -0.01   0.00   0.01
[...]
  44   1    -0.01  -0.00   0.00    -0.00   0.00  -0.00     0.00   0.00  -0.00
  45   1     0.01  -0.01  -0.00     0.00  -0.00  -0.00    -0.00   0.00   0.00
  46   6     0.01  -0.00   0.01    -0.00   0.00  -0.00     0.00  -0.00   0.00
  47   8    -0.01   0.00  -0.01     0.00  -0.00   0.00    -0.00   0.00  -0.00
  48   7    -0.00  -0.00  -0.00     0.00   0.00   0.00    -0.00   0.00   0.00
  49   1     0.01  -0.01  -0.00     0.00  -0.00  -0.00     0.00  -0.00  -0.00
  50   1    -0.00   0.00  -0.00    -0.00   0.00  -0.00    -0.00   0.00  -0.00
  51   7     0.01   0.06   0.05     0.00  -0.00  -0.00     0.00  -0.00  -0.00
  52   1     0.02  -0.01   0.03    -0.00  -0.00   0.00    -0.00   0.00  -0.00
  53   1    -0.06  -0.20  -0.22    -0.00  -0.00  -0.00     0.00   0.00   0.00
                    142                    143                    144
                        a                      a                      a 
 Frequencies --  3496.4911              3497.3691              3498.5440
 Red. masses --     1.4486                 1.4487                 1.4524
 Frc consts  --     0.0000                 0.0000                 0.0000
 IR Inten    --    19.8725                20.4084                15.0235
 Raman Activ --     0.0000                 0.0000                 0.0000
 Depolar     --     0.0000                 0.0000                 0.0000
 Atom AN      X      Y      Z        X      Y      Z        X      Y      Z
   1   8     0.00   0.00  -0.00    -0.00  -0.00   0.00    -0.00  -0.00   0.00
   2   6     0.00  -0.00   0.00     0.00   0.00  -0.00     0.00  -0.00  -0.00
   3   1     0.00   0.00   0.00    -0.00  -0.00  -0.00     0.00   0.00   0.00
   4   1    -0.00  -0.00   0.00    -0.00   0.00  -0.00    -0.00   0.00  -0.00
   5   6     0.00  -0.00  -0.00    -0.00   0.00   0.00    -0.00  -0.00   0.00
   6   1    -0.00  -0.00   0.00     0.00  -0.00  -0.00    -0.00   0.00   0.00
   7   1    -0.00  -0.00   0.00     0.00  -0.00  -0.00     0.00   0.00  -0.00
   8   7     0.00   0.00  -0.00     0.00  -0.00  -0.00     0.00  -0.00   0.00
   9   6     0.00   0.00  -0.00    -0.00  -0.00  -0.00    -0.00  -0.00   0.00
  10   1     0.00  -0.00   0.00    -0.00   0.00  -0.00    -0.00  -0.00   0.00
  11   1     0.00   0.00  -0.00     0.00   0.00  -0.00    -0.00  -0.00  -0.00
  12   1    -0.00  -0.00   0.00     0.00  -0.00   0.00     0.00   0.00  -0.00
  13   6     0.00  -0.00  -0.00    -0.00  -0.00  -0.00    -0.00   0.00   0.00
  14   1    -0.00   0.00   0.00    -0.00   0.00   0.00     0.00  -0.00  -0.00
  15   1     0.00  -0.00  -0.00     0.00   0.00  -0.00    -0.00   0.00  -0.00
  16   1    -0.00   0.00  -0.00     0.00  -0.00   0.00     0.00  -0.00   0.00
  17   6     0.00  -0.00  -0.00    -0.00  -0.00   0.00    -0.00  -0.00   0.00
  18   1    -0.00   0.00   0.00     0.00   0.00   0.00    -0.00   0.00   0.00
  19   1    -0.00  -0.00   0.00     0.00  -0.00  -0.00     0.00   0.00  -0.00
  20   1     0.00   0.00  -0.00     0.00   0.00  -0.00    -0.00  -0.00  -0.00
  21   1    -0.00  -0.00   0.00     0.00   0.00  -0.00     0.00   0.00  -0.00
  22   6    -0.00  -0.00   0.00     0.00   0.00  -0.00     0.00   0.00   0.00
  23   8     0.00   0.00  -0.00    -0.00  -0.00   0.00    -0.00  -0.00   0.00
  24   7     0.00   0.00  -0.00    -0.00  -0.00   0.00    -0.01   0.00   0.00
  25   1     0.00  -0.00   0.00     0.00  -0.00   0.00     0.02  -0.01   0.00
  26   1    -0.00  -0.00   0.00     0.00   0.00  -0.00     0.03   0.01  -0.02
  27   7     0.00  -0.00   0.00     0.00  -0.00   0.00     0.17  -0.05   0.05
  28   1    -0.00  -0.00   0.00    -0.00  -0.00   0.00    -0.61  -0.32   0.25
  29   1    -0.00   0.00  -0.00    -0.00   0.00  -0.00    -0.03   0.48  -0.45
  30   6     0.00  -0.00   0.00     0.00   0.00  -0.00     0.00   0.00   0.00
  31   8    -0.00   0.00  -0.00    -0.00  -0.00   0.00    -0.00   0.00  -0.00
  32   7     0.00   0.00  -0.00    -0.00  -0.00   0.00     0.00   0.00  -0.00
  33   1    -0.00   0.00  -0.00     0.00  -0.00   0.00    -0.01   0.00  -0.00
  34   1     0.00  -0.00   0.00    -0.00   0.00  -0.00     0.00  -0.01   0.01
  35   7     0.00   0.00   0.00    -0.00  -0.00  -0.00    -0.00  -0.00   0.00
  36   1    -0.00   0.00  -0.00     0.00  -0.00   0.00    -0.00   0.00  -0.00
  37   1    -0.00  -0.00   0.00     0.00   0.00  -0.00     0.00   0.00  -0.00
  38   6    -0.00   0.00   0.00     0.00   0.00  -0.00    -0.00   0.00  -0.00
  39   8     0.00  -0.00  -0.00    -0.00  -0.00   0.00     0.00  -0.00   0.00
  40   7     0.00  -0.00  -0.00    -0.01  -0.01  -0.00    -0.00  -0.00   0.00
  41   1     0.00   0.01   0.00     0.00   0.01   0.00     0.00   0.00   0.00
  42   1    -0.01  -0.00   0.00     0.03   0.01  -0.00     0.00   0.00  -0.00
  43   7    -0.00  -0.00  -0.00     0.06   0.17   0.00    -0.00  -0.00   0.00
  44   1     0.01   0.00  -0.00    -0.67  -0.18   0.15     0.00   0.00  -0.00
  45   1    -0.01   0.01   0.00     0.46  -0.47  -0.16    -0.00   0.00   0.00
  46   6     0.00  -0.00   0.00     0.00   0.00   0.00    -0.00   0.00  -0.00
  47   8    -0.00   0.00  -0.00    -0.00  -0.00  -0.00     0.00  -0.00   0.00
  48   7     0.01   0.08   0.16     0.00   0.00   0.00    -0.00  -0.00  -0.00
  49   1     0.43  -0.50  -0.09     0.01  -0.01  -0.00    -0.00   0.00   0.00
  50   1    -0.45   0.19  -0.52    -0.01   0.00  -0.01     0.00  -0.00   0.00
  51   7    -0.01  -0.00  -0.01     0.00  -0.00  -0.00     0.00  -0.00   0.00
  52   1     0.03  -0.01   0.03    -0.00   0.00  -0.00    -0.00   0.00  -0.00
  53   1     0.00   0.01   0.01     0.00   0.01   0.01    -0.00  -0.00  -0.00
                    145                    146                    147
                        a                      a                      a 
 Frequencies --  3502.0434              3529.8153              3531.7867
 Red. masses --     1.4545                 1.8967                 1.9565
 Frc consts  --     0.0000                 0.0000                 0.0000
 IR Inten    --    19.8521                12.2641                16.7015
 Raman Activ --     0.0000                 0.0000                 0.0000
 Depolar     --     0.0000                 0.0000                 0.0000
 Atom AN      X      Y      Z        X      Y      Z        X      Y      Z
   1   8     0.00   0.00  -0.00    -0.00  -0.00   0.00    -0.00  -0.00   0.00
   2   6    -0.00  -0.00   0.00    -0.00   0.00   0.00    -0.00   0.00  -0.00
   3   1    -0.00   0.00   0.00    -0.00  -0.00  -0.00     0.00   0.00  -0.00
   4   1     0.00   0.00  -0.00     0.00   0.00  -0.00     0.00   0.00   0.00
   5   6    -0.00  -0.00   0.00    -0.00  -0.00   0.00     0.00   0.00  -0.00
   6   1     0.00  -0.00  -0.00    -0.00  -0.00  -0.00     0.00   0.00   0.00
   7   1     0.00  -0.00   0.00     0.00   0.00  -0.00    -0.00  -0.00   0.00
   8   7    -0.00   0.00  -0.00    -0.00  -0.00   0.00     0.00  -0.00   0.00
   9   6    -0.00  -0.00  -0.00    -0.00  -0.00   0.00     0.00  -0.00   0.00
  10   1    -0.00  -0.00   0.00    -0.00   0.00   0.00    -0.00   0.00  -0.00
  11   1     0.00   0.00   0.00    -0.00   0.00  -0.00     0.00  -0.00  -0.00
  12   1     0.00  -0.00   0.00     0.00   0.00  -0.00    -0.00  -0.00  -0.00
  13   6     0.00   0.00  -0.00    -0.00  -0.00   0.00    -0.00   0.00  -0.00
  14   1    -0.00   0.00   0.00     0.00  -0.00   0.00    -0.00   0.00  -0.00
  15   1     0.00  -0.00   0.00     0.00   0.00  -0.00     0.00   0.00  -0.00
  16   1    -0.00  -0.00  -0.00     0.00  -0.00  -0.00     0.00  -0.00   0.00
  17   6    -0.00  -0.00   0.00    -0.00  -0.00   0.00     0.00   0.00  -0.00
  18   1    -0.00   0.00   0.00    -0.00  -0.00  -0.00    -0.00   0.00   0.00
  19   1     0.00   0.00  -0.00     0.00   0.00  -0.00    -0.00  -0.00   0.00
  20   1    -0.00  -0.00  -0.00    -0.00   0.00  -0.00     0.00  -0.00   0.00
  21   1    -0.01  -0.00   0.00     0.00   0.00  -0.00     0.01   0.00  -0.00
  22   6     0.00   0.00  -0.00    -0.00   0.00  -0.00     0.01  -0.00  -0.00
  23   8    -0.00  -0.00   0.00    -0.00  -0.00   0.00    -0.00   0.00   0.00
  24   7    -0.00   0.00  -0.00    -0.00  -0.00   0.00     0.24   0.05  -0.12
  25   1     0.02  -0.01   0.00     0.00  -0.00   0.00    -0.13   0.07  -0.06
  26   1    -0.02  -0.00   0.01     0.00   0.00  -0.00    -0.77  -0.24   0.50
  27   7     0.00  -0.00   0.00    -0.00   0.00  -0.00    -0.00  -0.02   0.02
  28   1    -0.01  -0.00   0.00     0.00   0.00  -0.00     0.02   0.01  -0.01
  29   1    -0.00   0.01  -0.01     0.00  -0.00   0.00    -0.01   0.06  -0.06
  30   6    -0.00  -0.00   0.00     0.00   0.00  -0.00     0.00  -0.00   0.00
  31   8    -0.00   0.00  -0.00    -0.00  -0.00   0.00    -0.00   0.00  -0.00
  32   7    -0.11  -0.14   0.07     0.00  -0.00   0.00    -0.00   0.00  -0.00
  33   1     0.63  -0.04   0.18    -0.00   0.00  -0.00    -0.00   0.00  -0.00
  34   1    -0.24   0.54  -0.42    -0.00   0.00  -0.00     0.01  -0.01   0.01
  35   7     0.01   0.01  -0.01    -0.00   0.00  -0.00    -0.00   0.00  -0.00
  36   1     0.00  -0.01   0.01     0.00  -0.00   0.00     0.00  -0.01   0.01
  37   1    -0.04  -0.03   0.02     0.00   0.00  -0.00     0.00   0.00  -0.00
  38   6    -0.00  -0.00   0.00    -0.00  -0.00   0.00    -0.00  -0.00   0.00
  39   8     0.00   0.00  -0.00     0.00   0.00   0.00     0.00   0.00  -0.00
  40   7     0.00   0.00   0.00    -0.00  -0.00   0.00    -0.00  -0.00   0.00
  41   1    -0.00  -0.00  -0.00     0.00   0.00   0.00     0.00   0.00   0.00
  42   1    -0.00  -0.00   0.00     0.02   0.00  -0.00     0.00   0.00  -0.00
  43   7     0.00  -0.00  -0.00     0.00   0.00  -0.00     0.00   0.00  -0.00
  44   1     0.00   0.00  -0.00    -0.01  -0.00   0.00    -0.00  -0.00   0.00
  45   1    -0.00   0.00   0.00    -0.00   0.00   0.00     0.00  -0.00  -0.00
  46   6     0.00  -0.00   0.00    -0.00  -0.00  -0.01    -0.00   0.00  -0.00
  47   8    -0.00   0.00  -0.00     0.00   0.00   0.00     0.00  -0.00   0.00
  48   7     0.00   0.00   0.00     0.02  -0.02  -0.00     0.00  -0.00  -0.00
  49   1     0.00  -0.00  -0.00    -0.05   0.06   0.01    -0.00   0.00   0.00
  50   1    -0.00   0.00  -0.00    -0.01   0.00  -0.01     0.00  -0.00   0.00
  51   7    -0.00   0.00  -0.00    -0.16   0.06  -0.20    -0.00   0.00  -0.00
  52   1     0.00  -0.00   0.00     0.59  -0.26   0.71     0.00  -0.00   0.00
  53   1     0.00   0.00   0.00     0.01   0.06   0.05     0.00   0.00   0.00
                    148                    149                    150
                        a                      a                      a 
 Frequencies --  3540.0013              3545.9500              3562.3952
 Red. masses --     1.9187                 2.0851                 2.1814
 Frc consts  --     0.0000                 0.0000                 0.0000
 IR Inten    --    15.1695                28.2838                 9.9229
 Raman Activ --     0.0000                 0.0000                 0.0000
 Depolar     --     0.0000                 0.0000                 0.0000
 Atom AN      X      Y      Z        X      Y      Z        X      Y      Z
   1   8     0.00   0.00  -0.00     0.00   0.00   0.00     0.00   0.00  -0.00
   2   6     0.00   0.00   0.00     0.00  -0.00  -0.00    -0.00  -0.00   0.00
   3   1    -0.00  -0.00   0.00     0.00   0.00   0.00     0.00  -0.00  -0.00
   4   1    -0.00  -0.00   0.00     0.00   0.00  -0.00     0.00  -0.00   0.00
   5   6     0.00   0.00  -0.00     0.00  -0.00   0.00     0.00  -0.00   0.00
   6   1    -0.00   0.00   0.00     0.00  -0.00   0.00    -0.00  -0.00   0.00
   7   1    -0.00  -0.00   0.00    -0.00  -0.00   0.00     0.00  -0.00  -0.00
   8   7     0.00   0.00  -0.00     0.00   0.00  -0.00    -0.00  -0.00   0.00
   9   6     0.00   0.00  -0.00     0.00  -0.00   0.00     0.00   0.00   0.00
  10   1     0.00  -0.00   0.00    -0.00   0.00  -0.00     0.00  -0.00   0.00
  11   1    -0.00  -0.00  -0.00     0.00  -0.00   0.00    -0.00  -0.00   0.00
  12   1    -0.00   0.00   0.00    -0.00  -0.00   0.00     0.00  -0.00  -0.00
  13   6     0.00  -0.00  -0.00    -0.00  -0.00   0.00     0.00  -0.00  -0.00
  14   1    -0.00   0.00   0.00     0.00  -0.00  -0.00    -0.00   0.00   0.00
  15   1    -0.00  -0.00  -0.00     0.00   0.00  -0.00     0.00   0.00  -0.00
  16   1    -0.00  -0.00   0.00     0.00   0.00  -0.00     0.00  -0.00  -0.00
  17   6     0.00   0.00  -0.00     0.00  -0.00  -0.00    -0.00   0.00   0.00
  18   1    -0.00   0.00   0.00     0.00   0.00  -0.00    -0.00   0.00  -0.00
  19   1    -0.00  -0.00   0.00    -0.00  -0.00   0.00     0.00   0.00  -0.00
  20   1     0.00  -0.00  -0.00     0.00   0.00  -0.00    -0.00  -0.00  -0.00
  21   1    -0.00  -0.00   0.00    -0.01  -0.00   0.00    -0.00  -0.00   0.00
  22   6    -0.00  -0.00   0.00    -0.00  -0.00   0.00    -0.00  -0.00   0.00
  23   8     0.00   0.00  -0.00     0.00   0.00  -0.00     0.00   0.00  -0.00
  24   7    -0.00  -0.00   0.00    -0.00   0.00   0.00    -0.00   0.00  -0.00
  25   1     0.00  -0.00   0.00     0.00  -0.00   0.00     0.00  -0.00   0.00
  26   1     0.00   0.00  -0.00     0.00   0.00  -0.00     0.00   0.00  -0.00
  27   7    -0.00  -0.00   0.00     0.00   0.00  -0.00    -0.00  -0.00   0.00
  28   1     0.00   0.00  -0.00    -0.00  -0.00   0.00     0.00   0.00  -0.00
  29   1    -0.00   0.00  -0.00     0.00  -0.00   0.00    -0.00   0.00  -0.00
  30   6     0.00  -0.00   0.00     0.00   0.01  -0.01     0.00  -0.00   0.00
  31   8     0.00   0.00  -0.00    -0.00  -0.00   0.00    -0.00   0.00  -0.00
  32   7     0.00  -0.00   0.00     0.03  -0.01   0.02    -0.00   0.00  -0.00
  33   1    -0.00   0.00  -0.00    -0.11   0.00  -0.03     0.00  -0.00   0.00
  34   1    -0.00   0.00  -0.00    -0.02   0.04  -0.03     0.00  -0.00   0.00
  35   7     0.00  -0.00   0.00    -0.01   0.21  -0.19     0.00   0.00  -0.00
  36   1    -0.00   0.00  -0.00     0.28  -0.58   0.60     0.00  -0.00   0.00
  37   1     0.00   0.00  -0.00    -0.24  -0.22   0.11    -0.00  -0.00   0.00
  38   6    -0.01  -0.01  -0.00     0.00   0.00  -0.00     0.00  -0.00  -0.00
  39   8     0.00   0.00  -0.00    -0.00  -0.00   0.00    -0.00   0.00   0.00
  40   7    -0.25  -0.08   0.03    -0.00  -0.00   0.00     0.00  -0.00  -0.00
  41   1     0.01   0.10   0.03     0.00   0.00   0.00     0.00   0.01   0.00
  42   1     0.92   0.22  -0.13     0.00   0.00  -0.00    -0.01  -0.00   0.00
  43   7     0.03  -0.02  -0.01    -0.00  -0.00   0.00     0.04  -0.01  -0.01
  44   1    -0.04  -0.01   0.01     0.00   0.00  -0.00    -0.10  -0.03   0.02
  45   1    -0.07   0.07   0.02     0.00  -0.00  -0.00    -0.07   0.08   0.02
  46   6    -0.00   0.00  -0.00    -0.00   0.00  -0.00    -0.01   0.01  -0.00
  47   8     0.00   0.00   0.00     0.00  -0.00   0.00     0.00  -0.00   0.00
  48   7     0.00  -0.00   0.00     0.00   0.00   0.00    -0.22   0.18  -0.10
  49   1    -0.00   0.00   0.00     0.00  -0.00  -0.00     0.43  -0.51  -0.12
  50   1    -0.01   0.00  -0.01    -0.00   0.00  -0.00     0.39  -0.16   0.48
  51   7     0.00  -0.00   0.00     0.00  -0.00   0.00    -0.01   0.00  -0.01
  52   1    -0.01   0.00  -0.01    -0.00   0.00  -0.00     0.05  -0.02   0.05
  53   1     0.00   0.00   0.00    -0.00  -0.00  -0.00     0.00   0.01   0.00
                    151                    152                    153
                        a                      a                      a 
 Frequencies --  3562.9779              3563.9275              3567.2024
 Red. masses --     2.1793                 2.1765                 2.1815
 Frc consts  --     0.0000                 0.0000                 0.0000
 IR Inten    --    18.0250                 8.4319                20.3989
 Raman Activ --     0.0000                 0.0000                 0.0000
 Depolar     --     0.0000                 0.0000                 0.0000
 Atom AN      X      Y      Z        X      Y      Z        X      Y      Z
   1   8    -0.00  -0.00   0.00     0.00   0.00  -0.00     0.00   0.00  -0.00
   2   6    -0.00  -0.00  -0.00     0.00  -0.00   0.00    -0.00  -0.00  -0.00
   3   1     0.00  -0.00   0.00    -0.00   0.00   0.00    -0.00   0.00   0.00
   4   1    -0.00  -0.00   0.00    -0.00   0.00  -0.00     0.00   0.00  -0.00
   5   6    -0.00   0.00   0.00    -0.00  -0.00   0.00    -0.00  -0.00   0.00
   6   1    -0.00  -0.00   0.00    -0.00  -0.00  -0.00     0.00   0.00  -0.00
   7   1     0.00  -0.00  -0.00     0.00  -0.00  -0.00     0.00  -0.00   0.00
   8   7     0.00   0.00  -0.00     0.00  -0.00   0.00     0.00   0.00   0.00
   9   6    -0.00   0.00  -0.00    -0.00  -0.00   0.00    -0.00  -0.00   0.00
  10   1     0.00  -0.00   0.00    -0.00  -0.00   0.00    -0.00   0.00  -0.00
  11   1     0.00  -0.00  -0.00    -0.00   0.00   0.00     0.00   0.00  -0.00
  12   1     0.00  -0.00  -0.00     0.00   0.00   0.00     0.00  -0.00   0.00
  13   6     0.00  -0.00  -0.00     0.00   0.00   0.00     0.00  -0.00   0.00
  14   1    -0.00   0.00   0.00     0.00  -0.00  -0.00     0.00   0.00   0.00
  15   1    -0.00   0.00  -0.00    -0.00   0.00  -0.00     0.00   0.00  -0.00
  16   1     0.00  -0.00   0.00    -0.00  -0.00   0.00    -0.00   0.00  -0.00
  17   6    -0.00  -0.00  -0.00    -0.00  -0.00   0.00    -0.00  -0.00   0.00
  18   1    -0.00   0.00   0.00    -0.00   0.00   0.00    -0.00   0.00  -0.00
  19   1     0.00  -0.00  -0.00     0.00   0.00  -0.00     0.00   0.00  -0.00
  20   1     0.00   0.00  -0.00    -0.00   0.00  -0.00     0.00   0.00  -0.00
  21   1     0.00   0.00  -0.00    -0.00  -0.00   0.00    -0.01  -0.00   0.00
  22   6    -0.00  -0.00   0.00    -0.00  -0.01   0.01    -0.00   0.00   0.00
  23   8    -0.00   0.00  -0.00     0.00   0.00  -0.00    -0.00  -0.00   0.00
  24   7    -0.00  -0.00   0.00    -0.02  -0.00   0.01    -0.01   0.00   0.00
  25   1     0.00  -0.00   0.00     0.01  -0.01   0.01     0.01  -0.01   0.00
  26   1     0.00   0.00  -0.00     0.06   0.02  -0.04     0.01   0.00  -0.01
  27   7    -0.00  -0.01   0.00    -0.13  -0.20   0.18    -0.00  -0.00   0.00
  28   1     0.02   0.01  -0.01     0.54   0.26  -0.20     0.01   0.01  -0.00
  29   1    -0.00   0.01  -0.01    -0.06   0.51  -0.48    -0.00   0.01  -0.01
  30   6     0.00  -0.00   0.00     0.00   0.00  -0.00    -0.01   0.01  -0.01
  31   8    -0.00  -0.00   0.00     0.00  -0.00   0.00     0.00  -0.00   0.00
  32   7     0.00  -0.00   0.00     0.01  -0.00   0.00    -0.23   0.13  -0.14
  33   1    -0.00   0.00  -0.00    -0.02   0.00  -0.00     0.68  -0.01   0.18
  34   1    -0.00   0.00  -0.00    -0.00   0.01  -0.01     0.19  -0.49   0.36
  35   7    -0.00  -0.00   0.00     0.00  -0.00   0.00     0.00   0.03  -0.02
  36   1    -0.00   0.00  -0.00    -0.00   0.00  -0.00     0.04  -0.07   0.08
  37   1     0.00   0.00  -0.00    -0.00  -0.00   0.00    -0.03  -0.03   0.02
  38   6    -0.01   0.00   0.00     0.00  -0.00  -0.00    -0.00   0.00   0.00
  39   8     0.00  -0.00  -0.00    -0.00  -0.00   0.00     0.00  -0.00  -0.00
  40   7    -0.03  -0.01   0.00     0.00   0.00  -0.00    -0.00  -0.00   0.00
  41   1     0.00   0.01   0.00    -0.00  -0.00  -0.00     0.00   0.00   0.00
  42   1     0.10   0.02  -0.01    -0.00  -0.00   0.00     0.00   0.00  -0.00
  43   7    -0.27   0.08   0.07     0.01  -0.00  -0.00    -0.00   0.00   0.00
  44   1     0.61   0.19  -0.13    -0.02  -0.01   0.00     0.00   0.00  -0.00
  45   1     0.44  -0.49  -0.15    -0.01   0.01   0.00     0.00  -0.00  -0.00
  46   6    -0.00   0.00  -0.00     0.00  -0.00  -0.00     0.00  -0.00  -0.00
  47   8     0.00  -0.00   0.00     0.00  -0.00   0.00    -0.00   0.00  -0.00
  48   7    -0.03   0.03  -0.01     0.00  -0.00   0.00    -0.00   0.00  -0.00
  49   1     0.07  -0.08  -0.02    -0.00   0.00   0.00     0.00  -0.00  -0.00
  50   1     0.06  -0.02   0.08    -0.00   0.00  -0.00     0.00  -0.00   0.00
  51   7    -0.00  -0.00  -0.00     0.00  -0.00   0.00    -0.00   0.00  -0.00
  52   1     0.01  -0.00   0.01    -0.00   0.00  -0.00     0.00  -0.00   0.00
  53   1     0.00   0.01   0.01    -0.00  -0.00  -0.00     0.00   0.00   0.00
