      -----------------------------------------------------------      
     |                   =====================                   |     
     |                           x T B                           |     
     |                   =====================                   |     
     |                         S. Grimme                         |     
     |          Mulliken Center for Theoretical Chemistry        |     
     |                    University of Bonn                     |     
      -----------------------------------------------------------      

   * xtb version 6.6.1 (unknown-commit) compiled by '@Linux' on 12/27/2023

   xtb is free software: you can redistribute it and/or modify it under
   the terms of the GNU Lesser General Public License as published by
   the Free Software Foundation, either version 3 of the License, or
   (at your option) any later version.
   
   xtb is distributed in the hope that it will be useful,
   but WITHOUT ANY WARRANTY; without even the implied warranty of
   MERCHANTABILITY or FITNESS FOR A PARTICULAR PURPOSE.  See the
   GNU Lesser General Public License for more details.
   
   Cite this work as:
   * C. Bannwarth, E. Caldeweyher, S. Ehlert, A. Hansen, P. Pracht,
     J. Seibert, S. Spicher, S. Grimme, WIREs Comput. Mol. Sci., 2020, 11,
     e01493. DOI: 10.1002/wcms.1493
   
   for GFN2-xTB:
   * C. Bannwarth, S. Ehlert and S. Grimme., J. Chem. Theory Comput., 2019,
     15, 1652-1671. DOI: 10.1021/acs.jctc.8b01176
   for GFN1-xTB:
   * S. Grimme, C. Bannwarth, P. Shushkov, J. Chem. Theory Comput., 2017,
     13, 1989-2009. DOI: 10.1021/acs.jctc.7b00118
   for GFN0-xTB:
   * P. Pracht, E. Caldeweyher, S. Ehlert, S. Grimme, ChemRxiv, 2019, preprint.
     DOI: 10.26434/chemrxiv.8326202.v1
   for GFN-FF:
   * S. Spicher and S. Grimme, Angew. Chem. Int. Ed., 2020, 59, 15665-15673.
     DOI: 10.1002/anie.202004239
   
   for ALPB and GBSA implicit solvation:
   * S. Ehlert, M. Stahn, S. Spicher, S. Grimme, J. Chem. Theory Comput.,
     2021, 17, 4250-4261. DOI: 10.1021/acs.jctc.1c00471
   
   for DFT-D4:
   * E. Caldeweyher, C. Bannwarth and S. Grimme, J. Chem. Phys., 2017,
     147, 034112. DOI: 10.1063/1.4993215
   * E. Caldeweyher, S. Ehlert, A. Hansen, H. Neugebauer, S. Spicher,
     C. Bannwarth and S. Grimme, J. Chem. Phys., 2019, 150, 154122.
     DOI: 10.1063/1.5090222
   * E. Caldeweyher, J.-M. Mewes, S. Ehlert and S. Grimme, Phys. Chem. Chem. Phys.
     2020, 22, 8499-8512. DOI: 10.1039/D0CP00502A
   
   for sTDA-xTB:
   * S. Grimme and C. Bannwarth, J. Chem. Phys., 2016, 145, 054103.
     DOI: 10.1063/1.4959605
   
   in the mass-spec context:
   * V. Asgeirsson, C. Bauer and S. Grimme, Chem. Sci., 2017, 8, 4879.
     DOI: 10.1039/c7sc00601b
   * J. Koopman and S. Grimme, ACS Omega 2019, 4, 12, 15120-15133.
     DOI: 10.1021/acsomega.9b02011
   
   for metadynamics refer to:
   * S. Grimme, J. Chem. Theory Comput., 2019, 155, 2847-2862
     DOI: 10.1021/acs.jctc.9b00143
   
   for SPH calculations refer to:
   * S. Spicher and S. Grimme, J. Chem. Theory Comput., 2021, 17, 1701-1714
     DOI: 10.1021/acs.jctc.0c01306
   
   with help from (in alphabetical order)
   P. Atkinson, C. Bannwarth, F. Bohle, G. Brandenburg, E. Caldeweyher
   M. Checinski, S. Dohm, S. Ehlert, S. Ehrlich, I. Gerasimov, C. Hölzer
   A. Katbashev, J. Koopman, C. Lavigne, S. Lehtola, F. März, M. Müller,
   F. Musil, H. Neugebauer, J. Pisarek, C. Plett, P. Pracht, F. Pultar,
   J. Seibert, P. Shushkov, S. Spicher, M. Stahn, M. Steiner, T. Strunk,
   J. Stückrath, T. Rose, and J. Unsleber
   
 * started run on 2024/01/10 at 15:42:57.565     

           -------------------------------------------------
          |                Calculation Setup                |
           -------------------------------------------------

          program call               : xtb struc.xyz --gfn2 --hess
          hostname                   : swaroop
          coordinate file            : struc.xyz
          omp threads                :                     1

   ID    Z sym.   atoms
    1    8 O      1, 23, 31, 39, 47
    2    6 C      2, 5, 9, 13, 17, 22, 30, 38, 46
    3    1 H      3, 4, 6, 7, 10-12, 14-16, 18-21, 25, 26, 28, 29, 33, 34,
                  36, 37, 41, 42, 44, 45, 49, 50, 52, 53
    4    7 N      8, 24, 27, 32, 35, 40, 43, 48, 51

molecular fragmentation (1/2 indicates fragments):
11111111111111111111122222222222222222222222222222222
# atoms in fragment 1/2:    21    32
 fragment masses (1/2) :      104.17      240.22
CMA distance (Bohr)    :   2.093
constraining FC (au)   :  0.0500

           -------------------------------------------------
          |                 G F N 2 - x T B                 |
           -------------------------------------------------

        Reference                      10.1021/acs.jctc.8b01176
      * Hamiltonian:
        H0-scaling (s, p, d)           1.850000    2.230000    2.230000
        zeta-weighting                 0.500000
      * Dispersion:
        s8                             2.700000
        a1                             0.520000
        a2                             5.000000
        s9                             5.000000
      * Repulsion:
        kExp                           1.500000    1.000000
        rExp                           1.000000
      * Coulomb:
        alpha                          2.000000
        third order                    shell-resolved
        anisotropic                    true
        a3                             3.000000
        a5                             4.000000
        cn-shift                       1.200000
        cn-exp                         4.000000
        max-rad                        5.000000


          ...................................................
          :                      SETUP                      :
          :.................................................:
          :  # basis functions                 122          :
          :  # atomic orbitals                 122          :
          :  # shells                           76          :
          :  # electrons                       140          :
          :  max. iterations                   250          :
          :  Hamiltonian                  GFN2-xTB          :
          :  restarted?                      false          :
          :  GBSA solvation                  false          :
          :  PC potential                    false          :
          :  electronic temp.          300.0000000     K    :
          :  accuracy                    1.0000000          :
          :  -> integral cutoff          0.2500000E+02      :
          :  -> integral neglect         0.1000000E-07      :
          :  -> SCF convergence          0.1000000E-05 Eh   :
          :  -> wf. convergence          0.1000000E-03 e    :
          :  Broyden damping             0.4000000          :
          ...................................................

 iter      E             dE          RMSdq      gap      omega  full diag
   1    -81.5459408 -0.815459E+02  0.436E+00    5.18       0.0  T
   2    -81.8376446 -0.291704E+00  0.237E+00    6.00       1.0  T
   3    -81.8431502 -0.550561E-02  0.116E+00    5.67       1.0  T
   4    -81.8444552 -0.130499E-02  0.233E-01    5.71       1.0  T
   5    -81.8453090 -0.853855E-03  0.916E-02    5.62       1.0  T
   6    -81.8453331 -0.240787E-04  0.257E-02    5.64       1.0  T
   7    -81.8453378 -0.470508E-05  0.739E-03    5.64       1.9  T
   8    -81.8453380 -0.247327E-06  0.262E-03    5.64       5.2  T
   9    -81.8453381 -0.134781E-07  0.831E-04    5.64      16.5  T
  10    -81.8453381 -0.495251E-08  0.174E-04    5.64      78.8  T

   *** convergence criteria satisfied after 10 iterations ***

         #    Occupation            Energy/Eh            Energy/eV
      -------------------------------------------------------------
         1        2.0000           -0.7968323             -21.6829
       ...           ...                  ...                  ...
        64        2.0000           -0.4925641             -13.4034
        65        2.0000           -0.4920502             -13.3894
        66        2.0000           -0.4896706             -13.3246
        67        2.0000           -0.4868387             -13.2476
        68        2.0000           -0.4861841             -13.2297
        69        2.0000           -0.4837526             -13.1636
        70        2.0000           -0.4826017             -13.1323 (HOMO)
        71                         -0.2754436              -7.4952 (LUMO)
        72                         -0.2626408              -7.1468
        73                         -0.2581706              -7.0252
        74                         -0.2547919              -6.9332
        75                         -0.1449354              -3.9439
       ...                                ...                  ...
       122                          0.5647639              15.3680
      -------------------------------------------------------------
                  HL-Gap            0.2071581 Eh            5.6371 eV
             Fermi-level           -0.3790226 Eh          -10.3137 eV

 SCC (total)                   0 d,  0 h,  0 min,  0.079 sec
 SCC setup                      ...        0 min,  0.000 sec (  0.364%)
 Dispersion                     ...        0 min,  0.001 sec (  0.745%)
 classical contributions        ...        0 min,  0.000 sec (  0.230%)
 integral evaluation            ...        0 min,  0.008 sec (  9.607%)
 iterations                     ...        0 min,  0.043 sec ( 54.192%)
 molecular gradient             ...        0 min,  0.027 sec ( 34.522%)
 printout                       ...        0 min,  0.000 sec (  0.325%)

         :::::::::::::::::::::::::::::::::::::::::::::::::::::
         ::                     SUMMARY                     ::
         :::::::::::::::::::::::::::::::::::::::::::::::::::::
         :: total energy             -80.931613119804 Eh    ::
         :: gradient norm              0.000132519045 Eh/a0 ::
         :: HOMO-LUMO gap              5.637059114175 eV    ::
         ::.................................................::
         :: SCC energy               -81.845338060221 Eh    ::
         :: -> isotropic ES            0.291584869700 Eh    ::
         :: -> anisotropic ES         -0.027273804380 Eh    ::
         :: -> anisotropic XC          0.020580769550 Eh    ::
         :: -> dispersion             -0.042158523158 Eh    ::
         :: repulsion energy           0.913029861194 Eh    ::
         :: add. restraining           0.000000000000 Eh    ::
         :: total charge               1.000000000000 e     ::
         :::::::::::::::::::::::::::::::::::::::::::::::::::::

           ------------------------------------------------- 
          |                Numerical Hessian                |
           ------------------------------------------------- 
step length          :   0.00500
SCC accuracy         :   0.30000
Hessian scale factor :   1.00000
frozen atoms in %    :   0.00000    0
RMS gradient         :   0.00013
estimated CPU  time      0.23 min
estimated wall time      0.23 min

writing file <hessian>.

 projected vibrational frequencies (cm⁻¹)
eigval :       -0.00    -0.00     0.00     0.00     0.00     0.00
eigval :        7.90    14.15    18.42    23.13    28.87    36.77
eigval :       40.18    44.67    46.58    51.38    53.62    64.20
eigval :       69.30    78.01    83.45    93.17   104.83   106.35
eigval :      121.17   127.69   137.30   146.28   156.67   175.44
eigval :      191.08   226.29   244.97   257.91   263.65   273.56
eigval :      279.69   302.56   311.64   340.25   346.15   358.26
eigval :      370.17   381.19   391.90   432.07   439.91   459.53
eigval :      462.06   464.02   466.21   468.20   471.92   476.01
eigval :      481.39   482.53   487.87   540.33   547.91   548.53
eigval :      554.44   561.90   570.57   656.80   671.24   673.87
eigval :      675.62   680.44   735.43   766.32   792.17   797.33
eigval :      905.11   927.20   956.79   963.74   966.55   968.16
eigval :     1001.75  1008.58  1009.98  1010.37  1014.55  1018.57
eigval :     1030.54  1037.67  1040.61  1083.09  1084.22  1091.34
eigval :     1091.87  1096.18  1105.31  1130.80  1172.05  1229.08
eigval :     1250.02  1276.17  1315.37  1337.46  1347.31  1353.07
eigval :     1355.44  1365.36  1374.34  1388.30  1405.40  1412.64
eigval :     1424.59  1436.42  1444.63  1445.99  1447.34  1449.87
eigval :     1452.44  1455.43  1463.62  1469.87  1472.56  1484.11
eigval :     1487.20  1501.58  1503.09  1505.64  1510.86  1677.44
eigval :     1689.69  1705.43  1717.16  2892.38  2960.80  2979.99
eigval :     2999.59  3024.85  3038.24  3047.96  3048.93  3052.20
eigval :     3055.07  3061.73  3064.45  3067.42  3105.07  3173.35
eigval :     3259.60  3348.33  3450.65  3496.49  3497.37  3498.54
eigval :     3502.04  3529.82  3531.79  3540.00  3545.95  3562.40
eigval :     3562.98  3563.93  3567.20
           -------------------------------------------------
          |                Property Printout                |
           -------------------------------------------------

    * Orbital Energies and Occupations

         #    Occupation            Energy/Eh            Energy/eV
      -------------------------------------------------------------
         1        2.0000           -0.7968301             -21.6828
       ...           ...                  ...                  ...
        58        2.0000           -0.5141876             -13.9918
        59        2.0000           -0.5078808             -13.8201
        60        2.0000           -0.5055994             -13.7581
        61        2.0000           -0.4987891             -13.5727
        62        2.0000           -0.4974585             -13.5365
        63        2.0000           -0.4962056             -13.5024
        64        2.0000           -0.4925659             -13.4034
        65        2.0000           -0.4920519             -13.3894
        66        2.0000           -0.4896725             -13.3247
        67        2.0000           -0.4868404             -13.2476
        68        2.0000           -0.4861856             -13.2298
        69        2.0000           -0.4837544             -13.1636
        70        2.0000           -0.4826035             -13.1323 (HOMO)
        71                         -0.2754410              -7.4951 (LUMO)
        72                         -0.2626435              -7.1469
        73                         -0.2581728              -7.0252
        74                         -0.2547947              -6.9333
        75                         -0.1449348              -3.9439
        76                         -0.1064549              -2.8968
        77                         -0.0888219              -2.4170
        78                         -0.0784149              -2.1338
        79                         -0.0764893              -2.0814
        80                         -0.0699080              -1.9023
        81                         -0.0663859              -1.8065
       ...                                ...                  ...
       122                          0.5647621              15.3680
      -------------------------------------------------------------
                  HL-Gap            0.2071625 Eh            5.6372 eV
             Fermi-level           -0.3790222 Eh          -10.3137 eV

     #   Z          covCN         q      C6AA      α(0)
     1   8 O        1.653    -0.479    22.455     6.397
     2   6 C        3.673     0.074    19.568     6.340
     3   1 H        0.923     0.042     2.422     2.434
     4   1 H        0.924     0.056     2.241     2.341
     5   6 C        3.767    -0.066    21.801     6.655
     6   1 H        0.924     0.078     2.005     2.214
     7   1 H        0.924     0.126     1.569     1.959
     8   7 N        3.624     0.159    18.560     6.398
     9   6 C        3.726    -0.111    22.724     6.806
    10   1 H        0.925     0.108     1.711     2.046
    11   1 H        0.925     0.082     1.959     2.189
    12   1 H        0.925     0.120     1.614     1.987
    13   6 C        3.721    -0.113    22.781     6.817
    14   1 H        0.924     0.121     1.608     1.983
    15   1 H        0.925     0.100     1.785     2.089
    16   1 H        0.925     0.085     1.924     2.169
    17   6 C        3.737    -0.120    22.893     6.828
    18   1 H        0.925     0.092     1.857     2.131
    19   1 H        0.925     0.121     1.606     1.982
    20   1 H        0.925     0.110     1.693     2.035
    21   1 H        0.802     0.336     0.622     1.239
    22   6 C        2.675     0.344    21.149     7.525
    23   8 O        0.860    -0.530    24.456     6.630
    24   7 N        2.644    -0.305    27.861     7.839
    25   1 H        0.860     0.234     0.946     1.524
    26   1 H        0.861     0.173     1.255     1.755
    27   7 N        2.645    -0.296    27.620     7.805
    28   1 H        0.861     0.180     1.215     1.727
    29   1 H        0.860     0.195     1.131     1.666
    30   6 C        2.675     0.344    21.156     7.527
    31   8 O        0.860    -0.514    24.105     6.583
    32   7 N        2.645    -0.283    27.302     7.760
    33   1 H        0.860     0.203     1.092     1.637
    34   1 H        0.861     0.190     1.157     1.685
    35   7 N        2.645    -0.288    27.429     7.778
    36   1 H        0.861     0.189     1.165     1.691
    37   1 H        0.860     0.224     0.992     1.560
    38   6 C        2.675     0.339    21.232     7.540
    39   8 O        0.860    -0.526    24.360     6.617
    40   7 N        2.644    -0.308    27.937     7.850
    41   1 H        0.860     0.239     0.929     1.510
    42   1 H        0.861     0.178     1.228     1.736
    43   7 N        2.644    -0.292    27.540     7.794
    44   1 H        0.861     0.182     1.202     1.717
    45   1 H        0.860     0.200     1.106     1.648
    46   6 C        2.675     0.340    21.230     7.540
    47   8 O        0.860    -0.526    24.356     6.617
    48   7 N        2.644    -0.293    27.557     7.796
    49   1 H        0.860     0.200     1.106     1.647
    50   1 H        0.861     0.182     1.203     1.718
    51   7 N        2.643    -0.316    28.139     7.878
    52   1 H        0.861     0.175     1.242     1.746
    53   1 H        0.859     0.244     0.905     1.491

 Mol. C6AA /au·bohr⁶  :      21795.386999
 Mol. C8AA /au·bohr⁸  :     454272.211569
 Mol. α(0) /au        :        220.573989


Wiberg/Mayer (AO) data.
largest (>0.10) Wiberg bond orders for each atom

 ---------------------------------------------------------------------------
     #   Z sym  total        # sym  WBO       # sym  WBO       # sym  WBO
 ---------------------------------------------------------------------------
     1   8 O    1.952 --     2 C    1.019    21 H    0.810
     2   6 C    3.965 --     1 O    1.019     5 C    0.994     4 H    0.966
                             3 H    0.963
     3   1 H    0.998 --     2 C    0.963
     4   1 H    0.997 --     2 C    0.966
     5   6 C    3.933 --     2 C    0.994     6 H    0.969     7 H    0.947
                             8 N    0.937
     6   1 H    0.994 --     5 C    0.969
     7   1 H    0.984 --     5 C    0.947
     8   7 N    3.823 --    13 C    0.959     9 C    0.956    17 C    0.954
                             5 C    0.937
     9   6 C    3.921 --    11 H    0.978    10 H    0.967    12 H    0.962
                             8 N    0.956
    10   1 H    0.988 --     9 C    0.967
    11   1 H    0.993 --     9 C    0.978
    12   1 H    0.986 --     9 C    0.962
    13   6 C    3.924 --    16 H    0.975    15 H    0.970     8 N    0.959
                            14 H    0.957
    14   1 H    0.985 --    13 C    0.957
    15   1 H    0.990 --    13 C    0.970
    16   1 H    0.993 --    13 C    0.975
    17   6 C    3.917 --    18 H    0.972    20 H    0.969    19 H    0.963
                             8 N    0.954
    18   1 H    0.991 --    17 C    0.972
    19   1 H    0.985 --    17 C    0.963
    20   1 H    0.988 --    17 C    0.969
    21   1 H    0.887 --     1 O    0.810
    22   6 C    3.959 --    23 O    1.525    24 N    1.232    27 N    1.193
    23   8 O    1.889 --    22 C    1.525    24 N    0.146    27 N    0.137
    24   7 N    3.327 --    22 C    1.232    26 H    0.951    25 H    0.893
                            23 O    0.146
    25   1 H    0.945 --    24 N    0.893
    26   1 H    0.970 --    24 N    0.951
    27   7 N    3.307 --    22 C    1.193    28 H    0.949    29 H    0.945
                            23 O    0.137
    28   1 H    0.967 --    27 N    0.949
    29   1 H    0.962 --    27 N    0.945
    30   6 C    3.960 --    31 O    1.496    35 N    1.238    32 N    1.220
    31   8 O    1.940 --    30 C    1.496    35 N    0.140    32 N    0.135
    32   7 N    3.333 --    30 C    1.220    34 H    0.945    33 H    0.942
                            31 O    0.135
    33   1 H    0.959 --    32 N    0.942
    34   1 H    0.964 --    32 N    0.945
    35   7 N    3.342 --    30 C    1.238    36 H    0.945    37 H    0.921
                            31 O    0.140
    36   1 H    0.964 --    35 N    0.945
    37   1 H    0.950 --    35 N    0.921
    38   6 C    3.960 --    39 O    1.503    40 N    1.246    43 N    1.202
    39   8 O    1.904 --    38 C    1.503    40 N    0.148    43 N    0.133
    40   7 N    3.340 --    38 C    1.246    42 H    0.949    41 H    0.879
                            39 O    0.148
    41   1 H    0.943 --    40 N    0.879
    42   1 H    0.968 --    40 N    0.949
    43   7 N    3.316 --    38 C    1.202    44 H    0.948    45 H    0.943
                            39 O    0.133
    44   1 H    0.966 --    43 N    0.948
    45   1 H    0.960 --    43 N    0.943
    46   6 C    3.960 --    47 O    1.506    51 N    1.240    48 N    1.202
    47   8 O    1.906 --    46 C    1.506    51 N    0.146    48 N    0.134
    48   7 N    3.317 --    46 C    1.202    50 H    0.948    49 H    0.943
                            47 O    0.134
    49   1 H    0.960 --    48 N    0.943
    50   1 H    0.967 --    48 N    0.948
    51   7 N    3.328 --    46 C    1.240    52 H    0.949    53 H    0.868
                            47 O    0.146
    52   1 H    0.969 --    51 N    0.949
    53   1 H    0.940 --    51 N    0.868
 ---------------------------------------------------------------------------

Topologies differ in total number of bonds
Writing topology from bond orders to xtbtopo.mol

molecular dipole:
                 x           y           z       tot (Debye)
 q only:        0.311       0.707      -0.709
   full:        0.489       0.858      -0.403       2.712
molecular quadrupole (traceless):
                xx          xy          yy          xz          yz          zz
 q only:      -12.216      28.326       2.895     -20.164     -48.334       9.322
  q+dip:      -13.625      35.678       3.267     -26.678     -59.370      10.357
   full:      -14.210      35.774       2.717     -26.684     -59.313      11.493

           -------------------------------------------------
          |               Frequency Printout                |
           -------------------------------------------------
 projected vibrational frequencies (cm⁻¹)
eigval :       -0.00    -0.00     0.00     0.00     0.00     0.00
eigval :        7.90    14.15    18.42    23.13    28.87    36.77
eigval :       40.18    44.67    46.58    51.38    53.62    64.20
eigval :       69.30    78.01    83.45    93.17   104.83   106.35
eigval :      121.17   127.69   137.30   146.28   156.67   175.44
eigval :      191.08   226.29   244.97   257.91   263.65   273.56
eigval :      279.69   302.56   311.64   340.25   346.15   358.26
eigval :      370.17   381.19   391.90   432.07   439.91   459.53
eigval :      462.06   464.02   466.21   468.20   471.92   476.01
eigval :      481.39   482.53   487.87   540.33   547.91   548.53
eigval :      554.44   561.90   570.57   656.80   671.24   673.87
eigval :      675.62   680.44   735.43   766.32   792.17   797.33
eigval :      905.11   927.20   956.79   963.74   966.55   968.16
eigval :     1001.75  1008.58  1009.98  1010.37  1014.55  1018.57
eigval :     1030.54  1037.67  1040.61  1083.09  1084.22  1091.34
eigval :     1091.87  1096.18  1105.31  1130.80  1172.05  1229.08
eigval :     1250.02  1276.17  1315.37  1337.46  1347.31  1353.07
eigval :     1355.44  1365.36  1374.34  1388.30  1405.40  1412.64
eigval :     1424.59  1436.42  1444.63  1445.99  1447.34  1449.87
eigval :     1452.44  1455.43  1463.62  1469.87  1472.56  1484.11
eigval :     1487.20  1501.58  1503.09  1505.64  1510.86  1677.44
eigval :     1689.69  1705.43  1717.16  2892.38  2960.80  2979.99
eigval :     2999.59  3024.85  3038.24  3047.96  3048.93  3052.20
eigval :     3055.07  3061.73  3064.45  3067.42  3105.07  3173.35
eigval :     3259.60  3348.33  3450.65  3496.49  3497.37  3498.54
eigval :     3502.04  3529.82  3531.79  3540.00  3545.95  3562.40
eigval :     3562.98  3563.93  3567.20
 reduced masses (amu)
   1: 12.70   2: 12.68   3: 12.59   4: 12.58   5: 12.68   6: 12.59   7: 12.10   8: 12.09
   9: 12.10  10: 11.85  11: 12.58  12: 12.28  13: 12.23  14: 12.66  15: 12.85  16: 12.54
  17: 12.07  18: 12.71  19: 12.43  20: 13.93  21: 13.25  22: 13.48  23: 12.62  24: 11.65
  25: 11.23  26: 12.38  27: 12.10  28: 12.14  29: 13.19  30: 12.43  31:  9.86  32:  3.26
  33: 10.90  34:  6.39  35:  1.95  36:  2.42  37:  2.61  38:  5.49  39:  6.06  40:  5.21
  41:  3.27  42:  3.85  43:  7.64  44:  3.50  45:  3.22  46:  7.88  47:  3.85  48:  8.17
  49:  4.26  50:  7.07  51:  4.90  52:  6.02  53:  6.72  54:  4.27  55:  3.38  56:  7.61
  57:  6.12  58: 11.27  59:  4.95  60: 11.34  61: 11.74  62:  9.01  63:  7.82  64:  5.40
  65: 11.05  66: 10.99  67: 11.60  68:  9.13  69:  2.19  70:  9.25  71:  2.04  72:  2.01
  73:  6.96  74:  8.45  75:  5.11  76:  4.87  77:  4.93  78:  5.05  79:  7.54  80:  9.28
  81:  8.66  82:  9.28  83:  7.68  84:  9.61  85:  7.38  86:  5.31  87:  3.32  88:  9.50
  89:  8.81  90:  8.00  91:  8.27  92:  7.18  93:  4.28  94:  8.53  95:  2.92  96:  5.41
  97:  6.70  98:  7.99  99:  6.40 100:  3.19 101:  5.33 102:  4.54 103:  4.52 104:  5.90
 105:  5.20 106:  3.29 107:  2.54 108:  2.52 109:  2.05 110:  2.02 111:  2.06 112:  2.89
 113:  3.25 114:  3.08 115:  1.83 116:  1.99 117:  3.02 118:  1.77 119:  1.67 120:  1.77
 121:  1.77 122:  8.02 123:  8.57 124:  8.93 125:  9.40 126: 12.44 127: 12.63 128: 12.75
 129: 12.77 130:  1.76 131:  1.72 132:  1.69 133:  1.77 134:  1.75 135:  1.72 136:  1.63
 137:  1.46 138:  1.94 139:  1.92 140:  1.95 141:  1.51 142:  1.72 143:  1.92 144:  1.81
 145:  1.77 146:  1.70 147:  1.56 148:  1.45 149:  1.45 150:  1.45 151:  1.45 152:  1.90
 153:  1.96 154:  1.92 155:  2.09 156:  2.18 157:  2.18 158:  2.18 159:  2.18
 IR intensities (km·mol⁻¹)
   1:  1.05   2:  2.38   3:  1.34   4:  2.00   5:  0.80   6:  1.17   7:  0.76   8:  0.05
   9:  0.53  10:  0.84  11:  1.94  12:  5.44  13:  3.04  14:  5.02  15:  2.25  16:  2.32
  17:  1.14  18:  8.02  19:  3.09  20:  0.89  21:  9.64  22: 13.12  23: 10.09  24:  3.12
  25: 19.93  26:  9.59  27: 17.17  28: 13.66  29:  4.33  30: 56.42  31: 16.70  32: 39.69
  33:  5.31  34:  6.54  35: 80.86  36:120.71  37:154.74  38:  2.01  39:  7.16  40: 16.91
  41:  2.79  42:187.75  43:  0.80  44:260.13  45:533.31  46: 36.46  47:270.94  48: 19.85
  49: 18.82  50:  7.49  51:  2.74  52:  3.79  53: 12.16  54:  5.64  55: 20.59  56: 14.67
  57: 51.90  58: 21.38  59: 38.14  60:  0.03  61: 45.31  62: 17.03  63: 63.83  64: 42.68
  65: 20.15  66:  3.17  67: 37.73  68:189.34  69: 86.53  70:  7.55  71:547.95  72:181.78
  73:  2.98  74:  3.42  75:  5.48  76:  6.36  77:  0.08  78:  2.39  79: 18.97  80: 13.35
  81: 13.22  82:  1.24  83: 18.55  84:  0.96  85: 17.05  86: 20.10  87:  2.28  88:  0.51
  89:  1.87  90:  0.45  91:  6.11  92: 17.53  93: 16.07  94: 46.50  95: 23.20  96:  2.31
  97:  3.71  98:  3.77  99:  8.17 100:  0.92 101:239.50 102:  9.87 103: 70.73 104:132.31
 105:  8.14 106: 88.16 107: 43.19 108:  4.93 109:  4.30 110:  9.10 111:  4.73 112:  7.74
 113:  6.18 114: 16.57 115:  2.39 116:  9.98 117:  2.27 118: 10.08 119: 24.34 120: 61.11
 121: 43.40 122:480.73 123:441.85 124:664.75 125:415.48 126:580.68 127:702.01 128:******
 129:635.48 130: 31.80 131: 50.24 132: 23.87 133: 13.70 134: 33.09 135:  6.60 136:  8.24
 137: 21.88 138:  7.03 139:  1.35 140:  3.35 141:  3.86 142:  6.55 143:819.85 144:382.20
 145:****** 146:619.11 147:118.61 148: 19.87 149: 20.41 150: 15.02 151: 19.85 152: 12.26
 153: 16.70 154: 15.17 155: 28.28 156:  9.92 157: 18.03 158:  8.43 159: 20.40
 Raman intensities (amu)
Molecule has no symmetry elements
It seems to be the C1 point group
   1:  0.00   2:  0.00   3:  0.00   4:  0.00   5:  0.00   6:  0.00   7:  0.00   8:  0.00
   9:  0.00  10:  0.00  11:  0.00  12:  0.00  13:  0.00  14:  0.00  15:  0.00  16:  0.00
  17:  0.00  18:  0.00  19:  0.00  20:  0.00  21:  0.00  22:  0.00  23:  0.00  24:  0.00
  25:  0.00  26:  0.00  27:  0.00  28:  0.00  29:  0.00  30:  0.00  31:  0.00  32:  0.00
  33:  0.00  34:  0.00  35:  0.00  36:  0.00  37:  0.00  38:  0.00  39:  0.00  40:  0.00
  41:  0.00  42:  0.00  43:  0.00  44:  0.00  45:  0.00  46:  0.00  47:  0.00  48:  0.00
  49:  0.00  50:  0.00  51:  0.00  52:  0.00  53:  0.00  54:  0.00  55:  0.00  56:  0.00
  57:  0.00  58:  0.00  59:  0.00  60:  0.00  61:  0.00  62:  0.00  63:  0.00  64:  0.00
  65:  0.00  66:  0.00  67:  0.00  68:  0.00  69:  0.00  70:  0.00  71:  0.00  72:  0.00
  73:  0.00  74:  0.00  75:  0.00  76:  0.00  77:  0.00  78:  0.00  79:  0.00  80:  0.00
  81:  0.00  82:  0.00  83:  0.00  84:  0.00  85:  0.00  86:  0.00  87:  0.00  88:  0.00
  89:  0.00  90:  0.00  91:  0.00  92:  0.00  93:  0.00  94:  0.00  95:  0.00  96:  0.00
  97:  0.00  98:  0.00  99:  0.00 100:  0.00 101:  0.00 102:  0.00 103:  0.00 104:  0.00
 105:  0.00 106:  0.00 107:  0.00 108:  0.00 109:  0.00 110:  0.00 111:  0.00 112:  0.00
 113:  0.00 114:  0.00 115:  0.00 116:  0.00 117:  0.00 118:  0.00 119:  0.00 120:  0.00
 121:  0.00 122:  0.00 123:  0.00 124:  0.00 125:  0.00 126:  0.00 127:  0.00 128:  0.00
 129:  0.00 130:  0.00 131:  0.00 132:  0.00 133:  0.00 134:  0.00 135:  0.00 136:  0.00
 137:  0.00 138:  0.00 139:  0.00 140:  0.00 141:  0.00 142:  0.00 143:  0.00 144:  0.00
 145:  0.00 146:  0.00 147:  0.00 148:  0.00 149:  0.00 150:  0.00 151:  0.00 152:  0.00
 153:  0.00 154:  0.00 155:  0.00 156:  0.00 157:  0.00 158:  0.00 159:  0.00
 output can be read by thermo (or use thermo option).
 writing <g98.out> molden fake output.
 recommended (thermochemical) frequency scaling factor: 1.0
           -------------------------------------------------
          |             Thermodynamic Functions             |
           -------------------------------------------------

c1  symmetry found (for desy threshold:  0.10E+00) used in thermo

          ...................................................
          :                      SETUP                      :
          :.................................................:
          :  # frequencies                         153      :
          :  # imaginary freq.                       0      :
          :  linear?                             false      :
          :  only rotor calc.                    false      :
          :  symmetry                               c1      :
          :  rotational number                       1      :
          :  scaling factor                  1.0000000      :
          :  rotor cutoff                   50.0000000 cm⁻¹ :
          :  imag. cutoff                  -20.0000000 cm⁻¹ :
          :.................................................:

    mode    ω/cm⁻¹     T·S(HO)/kcal·mol⁻¹    T·S(FR)/kcal·mol⁻¹   T·S(vib)
   ------------------------------------------------------------------------
       1      7.90    -2.52830 (  0.06%)    -1.60310 ( 99.94%)    -1.60368
       2     14.15    -2.18284 (  0.64%)    -1.43040 ( 99.36%)    -1.43519
       3     18.42    -2.02673 (  1.81%)    -1.35232 ( 98.19%)    -1.36452
       4     23.13    -1.89182 (  4.38%)    -1.28483 ( 95.62%)    -1.31142
       5     28.87    -1.76076 ( 10.00%)    -1.21922 ( 90.00%)    -1.27338
       6     36.77    -1.61776 ( 22.63%)    -1.14758 ( 77.37%)    -1.25396
       7     40.18    -1.56538 ( 29.42%)    -1.12132 ( 70.58%)    -1.25198
       8     44.67    -1.50284 ( 38.91%)    -1.08994 ( 61.09%)    -1.25059
       9     46.58    -1.47813 ( 42.95%)    -1.07754 ( 57.05%)    -1.24961
      10     51.38    -1.42027 ( 52.72%)    -1.04847 ( 47.28%)    -1.24447
      11     53.62    -1.39509 ( 56.95%)    -1.03582 ( 43.05%)    -1.24041
      12     64.20    -1.28912 ( 73.10%)    -0.98248 ( 26.90%)    -1.20665
      13     69.30    -1.24421 ( 78.68%)    -0.95983 ( 21.32%)    -1.18358
      14     78.01    -1.17480 ( 85.56%)    -0.92476 ( 14.44%)    -1.13869
      15     83.45    -1.13538 ( 88.58%)    -0.90480 ( 11.42%)    -1.10906
      16     93.17    -1.07109 ( 92.34%)    -0.87217 (  7.66%)    -1.05586
      17    104.83    -1.00251 ( 95.08%)    -0.83722 (  4.92%)    -0.99438
      18    106.35    -0.99416 ( 95.34%)    -0.83296 (  4.66%)    -0.98665
      19    121.17    -0.91876 ( 97.18%)    -0.79431 (  2.82%)    -0.91526
      20    127.69    -0.88867 ( 97.70%)    -0.77880 (  2.30%)    -0.88614
      21    137.30    -0.84707 ( 98.27%)    -0.75728 (  1.73%)    -0.84552
      22    146.28    -0.81099 ( 98.65%)    -0.73853 (  1.35%)    -0.81001
      23    156.67    -0.77209 ( 98.97%)    -0.71820 (  1.03%)    -0.77154
      24    175.44    -0.70852 ( 99.34%)    -0.68468 (  0.66%)    -0.70836
      25    191.08    -0.66109 ( 99.53%)    -0.65938 (  0.47%)    -0.66109
      26    226.29    -0.56891 ( 99.76%)    -0.60928 (  0.24%)    -0.56901
      27    244.97    -0.52667 ( 99.83%)    -0.58578 (  0.17%)    -0.52678
      28    257.91    -0.49967 ( 99.86%)    -0.57054 (  0.14%)    -0.49977
      29    263.65    -0.48822 ( 99.87%)    -0.56402 (  0.13%)    -0.48832
      30    273.56    -0.46918 ( 99.89%)    -0.55309 (  0.11%)    -0.46927
      31    279.69    -0.45783 ( 99.90%)    -0.54652 (  0.10%)    -0.45792
   ------------------------------------------------------------------------

   temp. (K)  partition function   enthalpy   heat capacity  entropy
                                   cal/mol     cal/K/mol   cal/K/mol   J/K/mol
 298.15  VIB  0.593E+18            19633.316    103.844    129.955
         ROT  0.171E+08              888.752      2.981     36.078
         INT  0.101E+26            20522.069    106.825    166.032
         TR   0.618E+28             1481.254      4.968     43.384
         TOT                       22003.3227   111.7929   209.4167   876.1993

       T/K    H(0)-H(T)+PV         H(T)/Eh          T*S/Eh         G(T)/Eh
   ------------------------------------------------------------------------
    298.15    0.350645E-01    0.473914E+00    0.995006E-01    0.374413E+00
   ------------------------------------------------------------------------

         :::::::::::::::::::::::::::::::::::::::::::::::::::::
         ::                  THERMODYNAMIC                  ::
         :::::::::::::::::::::::::::::::::::::::::::::::::::::
         :: total free energy         -80.557200174533 Eh   ::
         ::.................................................::
         :: total energy              -80.931613120190 Eh   ::
         :: zero point energy           0.438849028630 Eh   ::
         :: G(RRHO) w/o ZPVE           -0.064436082973 Eh   ::
         :: G(RRHO) contrib.            0.374412945657 Eh   ::
         :::::::::::::::::::::::::::::::::::::::::::::::::::::

           -------------------------------------------------
          | TOTAL ENERGY              -80.931613120190 Eh   |
          | TOTAL ENTHALPY            -80.457699564815 Eh   |
          | TOTAL FREE ENERGY         -80.557200174533 Eh   |
          | GRADIENT NORM               0.000132451079 Eh/α |
          | HOMO-LUMO GAP               5.637178314950 eV   |
           -------------------------------------------------

------------------------------------------------------------------------
 * finished run on 2024/01/10 at 15:43:11.721     
------------------------------------------------------------------------
 total:
 * wall-time:     0 d,  0 h,  0 min, 14.156 sec
 *  cpu-time:     0 d,  0 h,  0 min, 14.092 sec
 * ratio c/w:     0.996 speedup
 SCF:
 * wall-time:     0 d,  0 h,  0 min,  0.079 sec
 *  cpu-time:     0 d,  0 h,  0 min,  0.057 sec
 * ratio c/w:     0.719 speedup
 analytical hessian:
 * wall-time:     0 d,  0 h,  0 min, 14.050 sec
 *  cpu-time:     0 d,  0 h,  0 min, 14.009 sec
 * ratio c/w:     0.997 speedup

