 Entering Gaussian System
 *********************************************
 Gaussian 98:
 frequency output generated by the xtb code
 *********************************************
                         Standard orientation:
 --------------------------------------------------------------------
  Center     Atomic     Atomic              Coordinates (Angstroms)
  Number     Number      Type              X           Y           Z
 --------------------------------------------------------------------
    1          8             0        1.234351   -1.093922    0.605762
    2          6             0        1.171445   -1.508410   -0.732677
    3          1             0        1.888954   -2.328116   -0.822240
    4          1             0        0.165572   -1.882475   -0.965320
    5          6             0        1.552242   -0.320557   -1.628160
    6          1             0        2.480633    0.093700   -1.223049
    7          1             0        0.759504    0.430759   -1.576423
    8          7             0        1.805021   -0.605739   -3.062800
    9          6             0        2.847195   -1.632269   -3.222708
   10          1             0        3.152941   -1.687923   -4.265599
   11          1             0        2.475941   -2.607439   -2.918388
   12          1             0        3.705578   -1.357083   -2.607808
   13          6             0        2.287677    0.649417   -3.666324
   14          1             0        3.213071    0.948180   -3.178135
   15          1             0        1.527462    1.418040   -3.529617
   16          1             0        2.469563    0.507506   -4.729576
   17          6             0        0.560489   -1.009367   -3.733281
   18          1             0        0.176415   -1.927279   -3.295305
   19          1             0        0.744638   -1.174132   -4.793228
   20          1             0       -0.172660   -0.211882   -3.613315
   21          1             0        0.556777   -0.375324    0.716357
   22          6             0        4.901658   -0.223174    0.081537
   23          8             0        4.504662   -0.131936   -1.075095
   24          7             0        4.069669   -0.443241    1.122436
   25          1             0        3.089278   -0.648910    0.962987
   26          1             0        4.432339   -0.599007    2.044986
   27          7             0        6.220286   -0.117190    0.388355
   28          1             0        6.539427   -0.048931    1.337449
   29          1             0        6.849954    0.167816   -0.340612
   30          6             0       -0.983109    2.753043   -2.292711
   31          8             0       -0.437115    1.786448   -2.813777
   32          7             0       -1.178359    3.910623   -2.981353
   33          1             0       -1.012117    3.901153   -3.972271
   34          1             0       -1.762150    4.642361   -2.618279
   35          7             0       -1.422716    2.739318   -1.017127
   36          1             0       -1.679722    3.602069   -0.570778
   37          1             0       -1.141220    1.961949   -0.414816
   38          6             0       -4.936002   -1.348826    4.334662
   39          8             0       -4.131061   -1.001888    3.480406
   40          7             0       -6.273401   -1.310987    4.122217
   41          1             0       -6.601715   -1.110920    3.194105
   42          1             0       -6.924003   -1.710447    4.773837
   43          7             0       -4.547159   -1.793842    5.553918
   44          1             0       -5.207795   -1.964066    6.290093
   45          1             0       -3.576472   -1.720944    5.801827
   46          6             0       -1.702900    0.176799    1.455834
   47          8             0       -0.806248    0.604414    0.709789
   48          7             0       -2.936122    0.709917    1.476910
   49          1             0       -3.178109    1.444611    0.837995
   50          1             0       -3.631640    0.306018    2.086726
   51          7             0       -1.504997   -0.846769    2.301199
   52          1             0       -2.273006   -1.157254    2.879150
   53          1             0       -0.611128   -1.304129    2.336462
 --------------------------------------------------------------------
     1 basis functions        1 primitive gaussians
     1 alpha electrons        1 beta electrons

 Harmonic frequencies (cm**-1), IR intensities (km*mol⁻¹),
 Raman scattering activities (A**4/amu), Raman depolarization ratios,
 reduced masses (AMU), force constants (mDyne/A) and normal coordinates:
                      1                      2                      3
                        a                      a                      a 
 Frequencies --     9.1203                10.5659                14.1167
 Red. masses --    12.0137                11.0290                12.2207
 Frc consts  --     0.0000                 0.0000                 0.0000
 IR Inten    --     0.8096                 0.0405                 1.7312
 Raman Activ --     0.0000                 0.0000                 0.0000
 Depolar     --     0.0000                 0.0000                 0.0000
 Atom AN      X      Y      Z        X      Y      Z        X      Y      Z
   1   8     0.13   0.15   0.18     0.02   0.01   0.01     0.10  -0.17  -0.07
   2   6     0.03   0.05   0.19     0.00   0.01   0.01     0.09  -0.09  -0.08
   3   1     0.01   0.01   0.06    -0.00   0.00   0.00     0.03  -0.02  -0.04
   4   1     0.00   0.01   0.08    -0.00   0.00   0.01     0.03  -0.03  -0.02
   5   6    -0.02  -0.01   0.09     0.00   0.01   0.01     0.03  -0.03  -0.03
   6   1     0.00   0.00   0.00     0.00   0.00   0.00     0.00  -0.00  -0.00
   7   1    -0.00   0.00   0.03     0.00   0.00   0.01    -0.00  -0.02   0.00
   8   7    -0.13  -0.10   0.10    -0.02   0.01   0.01     0.04   0.05  -0.05
   9   6    -0.15  -0.12   0.08    -0.03   0.00  -0.01     0.08   0.10  -0.09
  10   1    -0.06  -0.05   0.02    -0.01   0.00  -0.00     0.02   0.05  -0.03
  11   1    -0.04  -0.03   0.05    -0.01   0.00  -0.00     0.04   0.02  -0.04
  12   1    -0.03  -0.03   0.00    -0.01  -0.00  -0.01     0.02   0.03  -0.03
  13   6    -0.13  -0.14  -0.01    -0.01   0.01   0.00    -0.03   0.09   0.01
  14   1    -0.03  -0.04  -0.03    -0.00  -0.00  -0.00    -0.01   0.03   0.01
  15   1    -0.03  -0.03  -0.00    -0.00   0.01   0.00    -0.02   0.01   0.01
  16   1    -0.06  -0.06  -0.00    -0.01   0.00   0.00    -0.01   0.04   0.00
  17   6    -0.17  -0.11   0.20    -0.03   0.03   0.02     0.05   0.01  -0.06
  18   1    -0.05  -0.02   0.08    -0.01   0.01   0.01     0.03  -0.01  -0.03
  19   1    -0.07  -0.05   0.06    -0.01   0.01   0.00     0.02   0.02  -0.02
  20   1    -0.04  -0.03   0.06    -0.01   0.01   0.01     0.00  -0.01  -0.01
  21   1     0.04   0.04   0.04     0.00   0.00   0.01     0.02  -0.05  -0.01
  22   6     0.10   0.05  -0.14     0.02  -0.05  -0.03     0.04   0.08  -0.07
  23   8     0.02  -0.03  -0.14     0.01  -0.04  -0.02     0.03   0.14  -0.07
  24   7     0.18   0.13  -0.08     0.03  -0.04  -0.02     0.07  -0.03  -0.08
  25   1     0.04   0.04   0.00     0.01  -0.01  -0.00     0.02  -0.02  -0.02
  26   1     0.06   0.05  -0.02     0.01  -0.01  -0.01     0.02  -0.02  -0.02
  27   7     0.13   0.05  -0.25     0.03  -0.08  -0.05     0.04   0.16  -0.08
  28   1     0.05   0.03  -0.08     0.01  -0.03  -0.01     0.01   0.03  -0.02
  29   1     0.02  -0.00  -0.09     0.01  -0.02  -0.01     0.00   0.06  -0.02
  30   6     0.01   0.01   0.08     0.01   0.03   0.04    -0.06  -0.08   0.11
  31   8    -0.06  -0.04   0.11     0.01   0.04   0.03    -0.08  -0.07   0.07
  32   7     0.01  -0.01   0.04     0.01   0.04   0.05    -0.11  -0.07   0.17
  33   1    -0.01  -0.02   0.01     0.00   0.01   0.01    -0.04  -0.01   0.04
  34   1     0.02   0.01   0.01     0.00   0.01   0.02    -0.03  -0.02   0.06
  35   7     0.08   0.09   0.11     0.00   0.02   0.04    -0.01  -0.13   0.14
  36   1     0.04   0.03   0.02     0.00   0.00   0.01     0.00  -0.04   0.05
  37   1     0.03   0.03   0.04     0.00   0.00   0.01     0.01  -0.04   0.03
  38   6    -0.07  -0.06  -0.18    -0.01  -0.01  -0.02    -0.13   0.16   0.00
  39   8    -0.02  -0.03  -0.14    -0.04  -0.05  -0.07     0.03   0.02   0.11
  40   7    -0.06  -0.02  -0.27    -0.00  -0.56  -0.19    -0.10   0.30  -0.21
  41   1    -0.00   0.01  -0.07     0.01  -0.28  -0.08     0.02   0.07  -0.07
  42   1    -0.03  -0.01  -0.09     0.02  -0.15  -0.03    -0.07   0.11  -0.07
  43   7    -0.16  -0.15  -0.20     0.01   0.58   0.18    -0.38   0.23   0.10
  44   1    -0.05  -0.05  -0.07    -0.00   0.17   0.05    -0.14   0.09   0.00
  45   1    -0.05  -0.05  -0.04    -0.01   0.28   0.07    -0.11   0.03   0.06
  46   6     0.07   0.08   0.06    -0.00   0.00  -0.00     0.07  -0.15   0.05
  47   8     0.12   0.14   0.14     0.01   0.00   0.01     0.08  -0.20   0.04
  48   7     0.06   0.04  -0.01    -0.01  -0.02  -0.05     0.08  -0.16   0.04
  49   1     0.02   0.02   0.00    -0.00  -0.02  -0.02     0.02  -0.04   0.01
  50   1     0.01   0.00  -0.02    -0.01  -0.01  -0.02     0.02  -0.03   0.02
  51   7     0.05   0.06   0.04     0.00   0.03   0.04     0.07  -0.16   0.06
  52   1     0.01   0.01  -0.00    -0.00   0.00   0.00     0.02  -0.03   0.03
  53   1     0.02   0.03   0.03     0.00   0.01   0.02     0.02  -0.04   0.02
                      4                      5                      6
                        a                      a                      a 
 Frequencies --    20.7953                21.9664                24.3031
 Red. masses --    12.2262                12.1931                12.7655
 Frc consts  --     0.0000                 0.0000                 0.0000
 IR Inten    --     4.3151                 0.3304                 0.6777
 Raman Activ --     0.0000                 0.0000                 0.0000
 Depolar     --     0.0000                 0.0000                 0.0000
 Atom AN      X      Y      Z        X      Y      Z        X      Y      Z
   1   8     0.02  -0.03   0.04     0.11   0.21   0.09     0.02  -0.18   0.02
   2   6     0.02  -0.05   0.04     0.12   0.14   0.09    -0.03  -0.08  -0.01
   3   1     0.01  -0.01   0.01     0.05   0.05   0.04    -0.01  -0.03  -0.02
   4   1     0.01  -0.02   0.01     0.04   0.03   0.03    -0.01  -0.02   0.00
   5   6    -0.01  -0.06   0.02     0.08   0.12   0.06    -0.04  -0.04   0.05
   6   1    -0.00  -0.01  -0.00     0.03   0.04   0.00    -0.01  -0.01   0.02
   7   1    -0.01  -0.02   0.01     0.02   0.03   0.02    -0.02  -0.02   0.02
   8   7    -0.04  -0.07   0.02     0.03   0.10   0.06    -0.02   0.03   0.04
   9   6    -0.06  -0.08   0.01     0.02   0.08   0.04     0.04   0.09   0.00
  10   1    -0.02  -0.03   0.00    -0.00   0.02   0.01     0.01   0.04   0.00
  11   1    -0.02  -0.02   0.01     0.00   0.02   0.02     0.03   0.02  -0.01
  12   1    -0.01  -0.03  -0.00     0.01   0.02   0.00     0.01   0.03   0.01
  13   6    -0.01  -0.08   0.01     0.01   0.07   0.01    -0.08   0.08   0.09
  14   1     0.00  -0.03  -0.00     0.01   0.02  -0.01    -0.03   0.03   0.03
  15   1     0.00  -0.02   0.01     0.01   0.02   0.00    -0.04   0.01   0.03
  16   1    -0.01  -0.02   0.00    -0.01   0.01   0.00    -0.02   0.04   0.02
  17   6    -0.05  -0.04   0.03     0.00   0.08   0.11     0.01  -0.01   0.02
  18   1    -0.02  -0.01   0.01     0.00   0.03   0.04     0.02  -0.01  -0.01
  19   1    -0.02  -0.02   0.01    -0.01   0.02   0.03     0.01   0.01   0.00
  20   1    -0.01  -0.01   0.01     0.00   0.03   0.03    -0.01  -0.02   0.01
  21   1    -0.00  -0.02   0.01     0.01   0.04   0.02     0.03  -0.03   0.02
  22   6    -0.01   0.14  -0.06     0.16  -0.14  -0.02    -0.03  -0.02   0.06
  23   8    -0.02   0.04  -0.07     0.14  -0.07  -0.00    -0.05   0.08   0.09
  24   7     0.01   0.17  -0.04     0.19  -0.04   0.02    -0.00  -0.19   0.05
  25   1     0.01   0.02  -0.01     0.04   0.03   0.01     0.00  -0.06   0.01
  26   1     0.01   0.07  -0.01     0.06  -0.03  -0.00     0.00  -0.07   0.01
  27   7    -0.02   0.27  -0.07     0.20  -0.37  -0.08    -0.03   0.02   0.06
  28   1    -0.00   0.09  -0.02     0.07  -0.11  -0.03    -0.01  -0.02   0.02
  29   1    -0.01   0.07  -0.03     0.06  -0.12  -0.03    -0.02   0.03   0.02
  30   6     0.15   0.06   0.09    -0.13   0.00  -0.02    -0.12  -0.07   0.06
  31   8     0.08   0.04   0.06     0.00   0.08   0.00    -0.19  -0.10   0.08
  32   7     0.32   0.13   0.17    -0.22  -0.01  -0.02    -0.28  -0.14  -0.00
  33   1     0.09   0.05   0.05    -0.04   0.01  -0.00    -0.12  -0.06  -0.01
  34   1     0.10   0.04   0.05    -0.09  -0.02  -0.01    -0.07  -0.03   0.01
  35   7     0.13   0.03   0.08    -0.24  -0.07  -0.05     0.06   0.02   0.14
  36   1     0.06   0.01   0.04    -0.09  -0.03  -0.01     0.03   0.01   0.03
  37   1     0.01  -0.01   0.01    -0.05  -0.01  -0.01     0.05   0.02   0.04
  38   6    -0.02   0.03   0.03    -0.02   0.03   0.02     0.06   0.06  -0.16
  39   8    -0.17  -0.13  -0.17    -0.06  -0.12  -0.07    -0.11  -0.04  -0.40
  40   7    -0.06   0.12   0.28    -0.04   0.19   0.13     0.02   0.09   0.10
  41   1    -0.06   0.01   0.08    -0.03   0.04   0.04    -0.04   0.01   0.04
  42   1     0.01   0.06   0.12    -0.01   0.08   0.06     0.04   0.04   0.07
  43   7     0.17   0.15   0.01     0.02   0.07   0.02     0.30   0.16  -0.22
  44   1     0.08   0.07   0.04     0.02   0.05   0.02     0.12   0.06  -0.02
  45   1     0.06   0.03  -0.05     0.01  -0.01  -0.02     0.10   0.04  -0.11
  46   6    -0.11  -0.15  -0.12    -0.09  -0.08  -0.09     0.11   0.05  -0.02
  47   8    -0.07  -0.13  -0.05    -0.10  -0.02  -0.05     0.23   0.05   0.10
  48   7    -0.13  -0.19  -0.21    -0.17  -0.25  -0.23     0.15   0.14  -0.09
  49   1    -0.02  -0.04  -0.05    -0.05  -0.08  -0.07     0.07   0.04  -0.03
  50   1    -0.04  -0.05  -0.07    -0.04  -0.07  -0.06     0.01   0.03  -0.06
  51   7    -0.16  -0.19  -0.15    -0.03  -0.02  -0.02    -0.02  -0.01  -0.06
  52   1    -0.05  -0.05  -0.05    -0.01  -0.02  -0.01    -0.03  -0.01  -0.05
  53   1    -0.04  -0.04  -0.02     0.01   0.03   0.02    -0.02  -0.03  -0.01
                      7                      8                      9
                        a                      a                      a 
 Frequencies --    35.8727                41.6416                45.8842
 Red. masses --    12.1567                12.7301                12.9254
 Frc consts  --     0.0000                 0.0000                 0.0000
 IR Inten    --     1.6718                 4.6919                 0.2368
 Raman Activ --     0.0000                 0.0000                 0.0000
 Depolar     --     0.0000                 0.0000                 0.0000
 Atom AN      X      Y      Z        X      Y      Z        X      Y      Z
   1   8     0.03  -0.14  -0.02    -0.03  -0.05  -0.03    -0.05   0.03  -0.06
   2   6     0.04  -0.08  -0.03    -0.05  -0.03  -0.03    -0.08   0.04  -0.05
   3   1     0.02  -0.02  -0.01    -0.02  -0.01  -0.01    -0.05  -0.01  -0.01
   4   1     0.01  -0.03  -0.01    -0.02   0.00  -0.01    -0.03   0.05  -0.02
   5   6     0.01  -0.05   0.00    -0.02  -0.03  -0.02     0.07   0.00  -0.04
   6   1    -0.00  -0.01   0.01     0.00  -0.02  -0.01     0.03  -0.02  -0.00
   7   1    -0.00  -0.02   0.01     0.00   0.00   0.00     0.04   0.02  -0.02
   8   7     0.03   0.00  -0.00    -0.07  -0.03  -0.03     0.11  -0.02  -0.04
   9   6     0.04   0.01  -0.03    -0.13  -0.09  -0.06     0.01  -0.11  -0.00
  10   1     0.01   0.01  -0.01    -0.04  -0.02  -0.02     0.01  -0.04   0.00
  11   1     0.01   0.00  -0.02    -0.06  -0.02  -0.03    -0.02  -0.02   0.00
  12   1     0.01   0.00  -0.01    -0.03  -0.05  -0.01     0.01  -0.05   0.00
  13   6     0.03   0.02   0.04     0.01  -0.04  -0.02     0.23  -0.06  -0.01
  14   1     0.01   0.00   0.02     0.01  -0.03  -0.01     0.07  -0.04   0.01
  15   1     0.01   0.00   0.02     0.02   0.00   0.00     0.09   0.00  -0.01
  16   1     0.01   0.02   0.01    -0.01  -0.01  -0.01     0.07  -0.02  -0.00
  17   6     0.04   0.01  -0.03    -0.10   0.07  -0.02     0.09   0.09  -0.08
  18   1     0.01   0.00  -0.02    -0.05   0.03  -0.01     0.00   0.03  -0.03
  19   1     0.02   0.01  -0.01    -0.04   0.02  -0.01     0.03   0.03  -0.02
  20   1     0.01   0.00  -0.01    -0.01   0.03  -0.00     0.04   0.04  -0.03
  21   1    -0.00  -0.05   0.00     0.01   0.00  -0.01    -0.01   0.01  -0.00
  22   6     0.03   0.01  -0.06    -0.10  -0.02   0.09     0.06   0.01  -0.11
  23   8     0.01   0.08  -0.06    -0.03  -0.29   0.06     0.10  -0.06  -0.14
  24   7     0.06  -0.11  -0.07    -0.17   0.19   0.09     0.05  -0.01  -0.13
  25   1     0.02  -0.03  -0.02    -0.04   0.02   0.01     0.01  -0.01  -0.04
  26   1     0.02  -0.04  -0.02    -0.06   0.09   0.04     0.01   0.03  -0.03
  27   7     0.03   0.07  -0.08    -0.13   0.09   0.17     0.04   0.13  -0.08
  28   1     0.01   0.00  -0.02    -0.05   0.08   0.05     0.01   0.04  -0.02
  29   1     0.00   0.04  -0.02    -0.02  -0.01   0.04     0.01   0.03  -0.02
  30   6     0.01  -0.02   0.04    -0.02   0.06   0.02     0.02  -0.03  -0.00
  31   8     0.02   0.00  -0.01     0.09   0.14   0.02     0.26   0.07   0.04
  32   7     0.06   0.03   0.12    -0.06   0.08   0.05    -0.11  -0.07  -0.02
  33   1     0.02   0.03   0.03     0.01   0.04   0.02     0.01  -0.00   0.00
  34   1     0.02   0.00   0.04    -0.03   0.01   0.01    -0.07  -0.04  -0.02
  35   7    -0.03  -0.12   0.02    -0.12  -0.02  -0.01    -0.12  -0.12  -0.05
  36   1    -0.00  -0.04   0.02    -0.05  -0.01   0.00    -0.08  -0.04  -0.02
  37   1    -0.01  -0.04  -0.01    -0.02  -0.00  -0.01    -0.02  -0.02  -0.00
  38   6    -0.06   0.02  -0.00     0.11  -0.02  -0.09    -0.13  -0.07  -0.02
  39   8    -0.17   0.27   0.00     0.20  -0.30  -0.15    -0.23  -0.30  -0.20
  40   7    -0.08  -0.12   0.08     0.12   0.18  -0.12    -0.17   0.04   0.15
  41   1    -0.05   0.01   0.04     0.05   0.02  -0.04    -0.07  -0.02   0.04
  42   1     0.00  -0.08   0.02     0.01   0.10  -0.02    -0.03   0.05   0.08
  43   7     0.06  -0.14  -0.10     0.03   0.09  -0.03    -0.02   0.07  -0.01
  44   1     0.03  -0.08  -0.02    -0.00   0.07  -0.01     0.01   0.06   0.03
  45   1     0.02  -0.01  -0.04     0.01  -0.02  -0.01     0.00  -0.01  -0.04
  46   6    -0.03   0.05   0.03     0.12  -0.01   0.02    -0.03   0.07   0.19
  47   8    -0.02  -0.17  -0.06     0.08   0.03  -0.02    -0.06   0.05   0.17
  48   7    -0.08  -0.03  -0.26     0.03  -0.23  -0.12     0.03   0.21   0.37
  49   1    -0.03  -0.09  -0.17    -0.02  -0.11  -0.07    -0.01   0.03   0.08
  50   1    -0.03   0.02  -0.06     0.02  -0.08  -0.03    -0.01   0.02   0.06
  51   7    -0.00   0.44   0.49     0.30   0.20   0.24    -0.04   0.04   0.16
  52   1    -0.02   0.14   0.12     0.08   0.02   0.04    -0.02  -0.01   0.02
  53   1    -0.00   0.12   0.17     0.09   0.07   0.06    -0.03  -0.02   0.00
                     10                     11                     12
                        a                      a                      a 
 Frequencies --    47.8937                50.4455                64.7511
 Red. masses --    13.0348                12.1670                12.7184
 Frc consts  --     0.0000                 0.0000                 0.0000
 IR Inten    --     2.6118                 0.6801                 1.9535
 Raman Activ --     0.0000                 0.0000                 0.0000
 Depolar     --     0.0000                 0.0000                 0.0000
 Atom AN      X      Y      Z        X      Y      Z        X      Y      Z
   1   8     0.07  -0.11  -0.00     0.08   0.06  -0.10     0.03  -0.10   0.09
   2   6     0.10  -0.08  -0.01     0.15   0.03  -0.08     0.16  -0.12   0.09
   3   1     0.04  -0.01  -0.00     0.07   0.03  -0.01     0.09   0.00   0.04
   4   1     0.03  -0.03  -0.01     0.06  -0.02  -0.03     0.07  -0.09   0.02
   5   6     0.08  -0.05   0.01     0.05   0.04  -0.11    -0.04  -0.06   0.09
   6   1     0.03  -0.03  -0.00     0.01   0.03  -0.04    -0.02   0.01   0.02
   7   1     0.03  -0.01   0.02     0.00  -0.00  -0.03    -0.04  -0.05   0.04
   8   7     0.00  -0.01  -0.01     0.01   0.03  -0.12    -0.06  -0.01   0.08
   9   6    -0.09  -0.09  -0.09     0.10   0.12  -0.13    -0.03   0.03   0.03
  10   1    -0.03  -0.02  -0.03     0.02   0.04  -0.04    -0.01   0.02   0.01
  11   1    -0.05  -0.02  -0.04     0.06   0.03  -0.03     0.00   0.00   0.00
  12   1    -0.01  -0.06  -0.03     0.03   0.05  -0.04    -0.01   0.01   0.01
  13   6     0.08  -0.02   0.03    -0.14   0.06  -0.18    -0.10   0.02   0.10
  14   1     0.04  -0.04  -0.00    -0.04   0.05  -0.07    -0.03   0.01   0.03
  15   1     0.04   0.01   0.03    -0.06  -0.00  -0.05    -0.04  -0.00   0.04
  16   1     0.00   0.00   0.00    -0.05   0.01  -0.05    -0.03   0.02   0.03
  17   6    -0.05   0.12   0.02     0.02  -0.11  -0.05    -0.05  -0.02   0.09
  18   1    -0.04   0.04   0.00     0.04  -0.04  -0.01    -0.01  -0.01   0.03
  19   1    -0.03   0.04   0.00    -0.01  -0.03  -0.02    -0.02  -0.01   0.03
  20   1     0.01   0.05   0.02    -0.02  -0.05  -0.00    -0.02  -0.01   0.02
  21   1     0.01  -0.03  -0.00    -0.00  -0.01  -0.03    -0.01  -0.04  -0.00
  22   6     0.05  -0.02   0.02    -0.01   0.01   0.05     0.00   0.02   0.01
  23   8     0.13  -0.39  -0.03     0.07  -0.10   0.02    -0.07   0.09   0.05
  24   7    -0.01   0.30   0.04    -0.12   0.51   0.07     0.06   0.03   0.06
  25   1     0.01   0.03   0.01    -0.03   0.12   0.01     0.01   0.01   0.03
  26   1    -0.01   0.13   0.02    -0.04   0.11   0.02     0.03  -0.01   0.01
  27   7     0.03   0.10   0.07     0.02  -0.33   0.08     0.03  -0.06  -0.07
  28   1    -0.01   0.10   0.02    -0.01  -0.04   0.02     0.02  -0.02  -0.02
  29   1     0.02  -0.03   0.01     0.03  -0.15   0.02    -0.00  -0.01  -0.02
  30   6    -0.07   0.02   0.07     0.01  -0.08   0.05    -0.06   0.02  -0.05
  31   8     0.14   0.15   0.08    -0.19  -0.19   0.02    -0.05   0.07  -0.12
  32   7    -0.31  -0.02   0.08     0.13  -0.06   0.06     0.20   0.17   0.13
  33   1    -0.07   0.01   0.02     0.00  -0.03   0.01     0.10   0.09   0.04
  34   1    -0.12  -0.03   0.02     0.07   0.00   0.03     0.04   0.04   0.04
  35   7    -0.10  -0.08   0.06     0.14  -0.00   0.10    -0.36  -0.19  -0.15
  36   1    -0.07  -0.03   0.02     0.08   0.01   0.03    -0.08  -0.06  -0.01
  37   1     0.01  -0.01   0.01     0.02  -0.01   0.02    -0.10  -0.06  -0.06
  38   6    -0.01   0.08   0.01    -0.07  -0.02  -0.01     0.06   0.01  -0.09
  39   8    -0.06   0.40   0.09    -0.14  -0.07  -0.09     0.06  -0.05  -0.13
  40   7    -0.01  -0.12  -0.01    -0.09  -0.01   0.08     0.06   0.04  -0.08
  41   1    -0.01   0.00   0.01    -0.04  -0.01   0.03     0.02   0.00  -0.02
  42   1     0.01  -0.08  -0.02    -0.01   0.00   0.04     0.01   0.03  -0.01
  43   7     0.05  -0.06  -0.06     0.01   0.02  -0.03     0.07   0.05  -0.08
  44   1     0.02  -0.07  -0.02     0.02   0.01   0.01     0.02   0.02  -0.02
  45   1     0.01   0.03  -0.01     0.01   0.00  -0.03     0.02   0.01  -0.03
  46   6     0.00  -0.03  -0.08    -0.01   0.01   0.08     0.01  -0.01  -0.04
  47   8     0.06  -0.11  -0.06    -0.02  -0.07   0.04    -0.10  -0.24  -0.31
  48   7     0.07   0.13  -0.05     0.02   0.10   0.13     0.14   0.29   0.30
  49   1     0.05   0.06   0.00     0.00  -0.00   0.00     0.01   0.02   0.02
  50   1     0.01   0.06  -0.01    -0.00   0.02   0.02     0.03   0.06   0.07
  51   7    -0.15  -0.14  -0.18    -0.02   0.06   0.15     0.03   0.02  -0.02
  52   1    -0.04   0.00  -0.03    -0.01   0.01   0.03     0.02   0.02   0.01
  53   1    -0.05  -0.05  -0.03    -0.02  -0.00   0.03    -0.01  -0.05  -0.06
                     13                     14                     15
                        a                      a                      a 
 Frequencies --    67.7313                78.2690                88.3964
 Red. masses --    12.4950                12.8505                12.8705
 Frc consts  --     0.0000                 0.0000                 0.0000
 IR Inten    --     4.0576                 2.0384                10.0093
 Raman Activ --     0.0000                 0.0000                 0.0000
 Depolar     --     0.0000                 0.0000                 0.0000
 Atom AN      X      Y      Z        X      Y      Z        X      Y      Z
   1   8    -0.08  -0.14   0.06    -0.04   0.11  -0.07     0.17   0.09  -0.03
   2   6    -0.10  -0.09   0.04    -0.12   0.09  -0.06    -0.02   0.09  -0.02
   3   1    -0.03  -0.03   0.01    -0.07  -0.01  -0.02    -0.03   0.01  -0.02
   4   1    -0.03  -0.02   0.01    -0.05   0.07  -0.01    -0.02   0.05   0.02
   5   6    -0.09  -0.07   0.07     0.04   0.02  -0.08     0.00   0.03  -0.09
   6   1    -0.04  -0.01   0.04     0.02  -0.02  -0.02     0.01   0.01  -0.04
   7   1    -0.04  -0.03   0.01     0.03   0.03  -0.04     0.01   0.02  -0.04
   8   7     0.05  -0.02   0.10     0.04  -0.05  -0.07    -0.04  -0.10  -0.08
   9   6     0.00  -0.07   0.14     0.07  -0.03  -0.01    -0.01  -0.08   0.00
  10   1     0.02  -0.02   0.04     0.02  -0.03  -0.00    -0.00  -0.04   0.00
  11   1    -0.02  -0.02   0.03     0.03  -0.01   0.02     0.01  -0.02   0.02
  12   1    -0.01  -0.03   0.05     0.02   0.01  -0.01    -0.01  -0.00  -0.00
  13   6     0.21  -0.02   0.22     0.00  -0.07  -0.13    -0.09  -0.15  -0.23
  14   1     0.05  -0.04   0.10    -0.00  -0.00  -0.04    -0.03  -0.02  -0.08
  15   1     0.07   0.01   0.06    -0.00  -0.02  -0.05    -0.03  -0.04  -0.09
  16   1     0.09   0.01   0.07     0.00  -0.03  -0.04    -0.03  -0.08  -0.06
  17   6     0.10   0.09  -0.07     0.05  -0.12  -0.04    -0.05  -0.18   0.01
  18   1    -0.01   0.03  -0.04     0.03  -0.04  -0.01    -0.01  -0.04   0.04
  19   1     0.06   0.03  -0.01     0.01  -0.03  -0.01    -0.02  -0.09   0.01
  20   1     0.04   0.04  -0.04     0.00  -0.05  -0.00    -0.01  -0.05  -0.02
  21   1    -0.01  -0.02   0.01     0.01   0.04  -0.01     0.04   0.02   0.02
  22   6    -0.13   0.11  -0.11    -0.03   0.02  -0.01    -0.04   0.05   0.11
  23   8    -0.18   0.36  -0.10     0.03   0.12  -0.02    -0.11   0.25   0.16
  24   7    -0.16   0.38  -0.08    -0.08  -0.02  -0.06     0.00  -0.05   0.12
  25   1    -0.04   0.10  -0.02    -0.02   0.01  -0.03    -0.00   0.00   0.03
  26   1    -0.03   0.01  -0.04    -0.03  -0.02  -0.01     0.01  -0.06   0.02
  27   7    -0.07  -0.40  -0.20    -0.04  -0.05   0.06    -0.01  -0.08   0.06
  28   1    -0.01  -0.11  -0.06    -0.02  -0.03   0.02     0.01  -0.05   0.01
  29   1    -0.02  -0.11  -0.05     0.00  -0.00   0.03    -0.01   0.01   0.02
  30   6     0.03   0.00   0.01    -0.05  -0.11   0.18     0.03   0.10  -0.08
  31   8     0.15   0.05   0.02     0.05  -0.11   0.30     0.16   0.31  -0.32
  32   7    -0.11  -0.04  -0.01     0.23  -0.04   0.23    -0.21   0.20   0.15
  33   1    -0.02  -0.01  -0.00     0.13   0.00   0.07    -0.06   0.12   0.04
  34   1    -0.04  -0.02  -0.00     0.03  -0.02   0.03    -0.07   0.02   0.09
  35   7     0.05  -0.02   0.01    -0.49  -0.20   0.05     0.10  -0.19  -0.06
  36   1    -0.01  -0.01  -0.00    -0.12  -0.05   0.01    -0.00  -0.08   0.02
  37   1     0.03   0.00   0.00    -0.11  -0.03   0.03     0.06  -0.06  -0.04
  38   6     0.04   0.02  -0.01     0.06   0.07  -0.05    -0.06   0.02   0.00
  39   8     0.05   0.04   0.00     0.06   0.19  -0.02    -0.12   0.10  -0.02
  40   7     0.04   0.01  -0.04     0.07  -0.00  -0.07    -0.07  -0.04   0.06
  41   1     0.02   0.01  -0.01     0.02   0.02  -0.02    -0.03  -0.00   0.02
  42   1     0.01  -0.00  -0.02     0.02  -0.02  -0.03    -0.01  -0.02   0.02
  43   7     0.02   0.00  -0.02     0.08   0.01  -0.08     0.01  -0.01  -0.03
  44   1     0.00  -0.00  -0.01     0.02  -0.02  -0.03     0.01  -0.01  -0.00
  45   1     0.00   0.00   0.00     0.02   0.02  -0.02     0.00   0.01  -0.02
  46   6     0.04  -0.03  -0.00     0.01   0.06   0.01     0.09  -0.07   0.07
  47   8     0.07  -0.01   0.04     0.08   0.22   0.18     0.14  -0.05   0.15
  48   7     0.03  -0.06  -0.07    -0.03  -0.04  -0.10     0.10  -0.07   0.02
  49   1     0.02  -0.00  -0.01     0.01   0.03   0.01     0.04   0.00   0.02
  50   1     0.01  -0.01  -0.01    -0.01  -0.01  -0.03     0.02  -0.01   0.00
  51   7     0.02  -0.04  -0.01    -0.03  -0.05  -0.12     0.03  -0.12   0.04
  52   1     0.00  -0.01  -0.00    -0.01  -0.02  -0.03     0.00  -0.03   0.00
  53   1     0.01  -0.01   0.01     0.01   0.02  -0.00     0.01  -0.03   0.03
                     16                     17                     18
                        a                      a                      a 
 Frequencies --    94.5837               109.8881               113.1532
 Red. masses --    13.0751                11.7087                12.4272
 Frc consts  --     0.0000                 0.0000                 0.0000
 IR Inten    --    12.2445                 9.7981                 8.8245
 Raman Activ --     0.0000                 0.0000                 0.0000
 Depolar     --     0.0000                 0.0000                 0.0000
 Atom AN      X      Y      Z        X      Y      Z        X      Y      Z
   1   8    -0.04   0.05  -0.04    -0.11   0.04   0.01    -0.09  -0.31  -0.02
   2   6     0.16  -0.06  -0.01    -0.23   0.06   0.01    -0.10  -0.19  -0.04
   3   1     0.08   0.01   0.03    -0.11  -0.02  -0.01    -0.05  -0.07  -0.02
   4   1     0.07  -0.06  -0.02    -0.09   0.07   0.01    -0.04  -0.02  -0.02
   5   6     0.10  -0.08  -0.06    -0.07   0.01  -0.00     0.01  -0.16   0.05
   6   1     0.03  -0.01  -0.03    -0.03   0.00   0.03     0.01  -0.07   0.02
   7   1     0.02  -0.03  -0.01    -0.01   0.01  -0.04     0.02  -0.03   0.03
   8   7     0.03  -0.14  -0.06     0.12  -0.08   0.05     0.01  -0.07   0.04
   9   6     0.07  -0.09  -0.06     0.22  -0.00   0.22     0.16   0.09  -0.03
  10   1     0.00  -0.04  -0.02     0.09  -0.01   0.07     0.03   0.04  -0.02
  11   1     0.04  -0.03   0.01     0.08  -0.00   0.07     0.09   0.01  -0.00
  12   1     0.03  -0.00  -0.04     0.04   0.03   0.09     0.04   0.06  -0.02
  13   6    -0.06  -0.14  -0.14     0.06  -0.07   0.02    -0.19   0.03   0.07
  14   1    -0.01  -0.03  -0.07    -0.00   0.01   0.03    -0.07   0.05   0.02
  15   1    -0.02  -0.04  -0.03    -0.01  -0.03  -0.03    -0.09  -0.03   0.02
  16   1    -0.04  -0.05  -0.04     0.05  -0.03   0.01    -0.05   0.02   0.02
  17   6     0.00  -0.19   0.03     0.22  -0.22  -0.05     0.05  -0.21   0.06
  18   1     0.02  -0.06   0.02     0.07  -0.07  -0.01     0.06  -0.09   0.00
  19   1    -0.02  -0.06   0.01     0.10  -0.08  -0.01     0.01  -0.03   0.01
  20   1    -0.00  -0.06   0.02     0.04  -0.08  -0.05    -0.02  -0.09   0.04
  21   1    -0.03  -0.00  -0.05    -0.03   0.01   0.02     0.01  -0.04  -0.00
  22   6    -0.02   0.05   0.01     0.06  -0.05  -0.07     0.10   0.02  -0.03
  23   8     0.03   0.26   0.01     0.13  -0.22  -0.11     0.18  -0.01  -0.05
  24   7    -0.05  -0.10  -0.05     0.01   0.05  -0.10     0.04   0.12  -0.05
  25   1    -0.02   0.01  -0.02     0.01  -0.00  -0.03     0.02   0.00  -0.03
  26   1    -0.02  -0.05  -0.01    -0.01   0.05  -0.01     0.00   0.01  -0.01
  27   7    -0.02  -0.06   0.08     0.04   0.04  -0.01     0.10  -0.03   0.04
  28   1    -0.02  -0.05   0.03    -0.00   0.03  -0.00     0.01   0.01   0.02
  29   1     0.00   0.02   0.04     0.02  -0.02  -0.00     0.04  -0.01   0.02
  30   6     0.02   0.11   0.17    -0.10   0.06   0.04    -0.04   0.15  -0.06
  31   8     0.23   0.14   0.37    -0.29   0.10  -0.18     0.03   0.18   0.00
  32   7    -0.24  -0.05  -0.02    -0.15   0.19   0.24     0.01   0.16  -0.08
  33   1    -0.05  -0.04  -0.00    -0.10   0.08   0.05     0.03   0.05  -0.02
  34   1    -0.09  -0.02  -0.03    -0.02   0.04   0.12    -0.01   0.04  -0.04
  35   7     0.05   0.25   0.18     0.11  -0.02   0.12    -0.20   0.14  -0.11
  36   1    -0.03   0.07   0.02     0.06  -0.01   0.06    -0.05   0.04  -0.03
  37   1     0.01   0.07   0.06     0.02  -0.03   0.00    -0.03   0.06  -0.02
  38   6     0.05  -0.02  -0.01     0.10   0.01  -0.04    -0.10  -0.08   0.11
  39   8     0.09  -0.10  -0.00     0.16  -0.03  -0.03    -0.11  -0.17   0.11
  40   7     0.06   0.04  -0.05     0.13   0.05  -0.12    -0.12  -0.03   0.14
  41   1     0.03   0.00  -0.02     0.05   0.02  -0.04    -0.03  -0.03   0.03
  42   1     0.00   0.02  -0.02     0.02   0.03  -0.04    -0.03  -0.01   0.04
  43   7    -0.01   0.01   0.02     0.05   0.03  -0.03    -0.14  -0.06   0.14
  44   1    -0.01   0.01   0.00     0.01   0.00  -0.02    -0.04   0.02   0.04
  45   1    -0.00  -0.01   0.01     0.01  -0.01   0.00    -0.04  -0.02   0.04
  46   6    -0.10   0.02  -0.09    -0.11   0.00  -0.00     0.11   0.11  -0.06
  47   8    -0.20  -0.11  -0.28    -0.13  -0.07  -0.04     0.20   0.20   0.06
  48   7    -0.07   0.13   0.04    -0.09   0.08   0.01     0.08   0.04  -0.17
  49   1    -0.04  -0.02  -0.04    -0.02   0.00  -0.02     0.03   0.04  -0.02
  50   1    -0.01   0.03   0.01    -0.03   0.02   0.00     0.02   0.01  -0.05
  51   7    -0.04   0.13  -0.00    -0.13   0.03   0.02     0.04   0.06  -0.10
  52   1     0.00   0.04   0.02    -0.03   0.02   0.01     0.00   0.01  -0.04
  53   1    -0.01   0.02  -0.03    -0.04   0.00   0.00     0.01   0.02  -0.01
                     19                     20                     21
                        a                      a                      a 
 Frequencies --   116.5508               120.6529               126.9991
 Red. masses --    11.7028                11.7355                12.0472
 Frc consts  --     0.0000                 0.0000                 0.0000
 IR Inten    --    20.4233                 4.0225                 5.4069
 Raman Activ --     0.0000                 0.0000                 0.0000
 Depolar     --     0.0000                 0.0000                 0.0000
 Atom AN      X      Y      Z        X      Y      Z        X      Y      Z
   1   8    -0.12  -0.09   0.04     0.02   0.11   0.12     0.12   0.03   0.06
   2   6    -0.22   0.05   0.00     0.26   0.01   0.11     0.26  -0.01   0.06
   3   1    -0.13  -0.05  -0.02     0.14   0.06   0.06     0.12   0.04   0.04
   4   1    -0.09   0.11  -0.01     0.11  -0.08   0.01     0.10  -0.06   0.00
   5   6     0.11   0.02   0.10     0.03   0.06   0.07     0.10   0.02   0.03
   6   1     0.08  -0.07   0.01    -0.01   0.07   0.01     0.03   0.03  -0.01
   7   1     0.09   0.07   0.06    -0.03  -0.02   0.01     0.02  -0.01   0.02
   8   7    -0.08   0.04   0.07     0.07   0.03   0.09     0.02   0.02   0.01
   9   6    -0.12   0.02  -0.05     0.16   0.12   0.10    -0.05  -0.05  -0.05
  10   1    -0.09  -0.02  -0.03     0.05   0.04   0.03    -0.03  -0.02  -0.02
  11   1    -0.02   0.01   0.03     0.07   0.03   0.03    -0.03  -0.01  -0.01
  12   1     0.00   0.01  -0.07     0.04   0.06   0.03    -0.00  -0.03  -0.03
  13   6    -0.10   0.03   0.01    -0.07   0.05   0.03     0.07  -0.01  -0.01
  14   1    -0.03   0.02  -0.01    -0.02   0.04  -0.01     0.03  -0.02  -0.02
  15   1    -0.03   0.01   0.00    -0.03   0.00   0.01     0.03   0.01   0.01
  16   1    -0.04  -0.00   0.00    -0.03   0.01   0.01     0.00  -0.01  -0.01
  17   6    -0.17   0.08   0.21     0.10  -0.12   0.11    -0.04   0.09   0.07
  18   1    -0.03   0.01   0.05     0.05  -0.04   0.05    -0.03   0.04   0.03
  19   1    -0.09   0.05   0.05     0.03  -0.05   0.04    -0.03   0.01   0.02
  20   1    -0.04   0.02   0.11     0.01  -0.05   0.01     0.01   0.04   0.02
  21   1    -0.02  -0.01   0.03    -0.02   0.02  -0.00     0.01  -0.01   0.01
  22   6     0.12   0.06  -0.04    -0.18  -0.09  -0.15    -0.09  -0.01  -0.05
  23   8     0.43   0.23  -0.14    -0.02  -0.18  -0.25     0.03   0.06  -0.10
  24   7    -0.13   0.02  -0.25    -0.31  -0.14  -0.28    -0.19  -0.09  -0.15
  25   1    -0.03   0.01  -0.11    -0.09  -0.01  -0.08    -0.05  -0.01  -0.05
  26   1    -0.08  -0.03  -0.05    -0.11   0.03  -0.05    -0.07  -0.02  -0.03
  27   7     0.06  -0.07   0.31    -0.26   0.04   0.02    -0.14  -0.01   0.10
  28   1    -0.06  -0.04   0.11    -0.10   0.00   0.02    -0.06  -0.03   0.04
  29   1     0.07  -0.00   0.14    -0.04  -0.01   0.03    -0.01   0.00   0.05
  30   6     0.04  -0.04  -0.06     0.02   0.06  -0.04    -0.00  -0.08  -0.01
  31   8     0.04  -0.04  -0.11     0.08   0.08  -0.00    -0.05  -0.04  -0.17
  32   7     0.02  -0.05  -0.05    -0.01   0.05  -0.06    -0.01   0.01   0.14
  33   1     0.00  -0.01  -0.01     0.01   0.01  -0.01    -0.02   0.03   0.03
  34   1     0.01  -0.01  -0.00    -0.01   0.01  -0.02     0.01  -0.01   0.07
  35   7     0.11  -0.07  -0.05    -0.02   0.06  -0.05     0.05  -0.21   0.00
  36   1     0.02  -0.03  -0.01    -0.03   0.01  -0.02     0.04  -0.06   0.02
  37   1     0.01  -0.03  -0.02    -0.01   0.02  -0.01     0.04  -0.06  -0.01
  38   6     0.04   0.04  -0.05    -0.05   0.05  -0.03     0.04  -0.10   0.07
  39   8     0.04   0.08  -0.05    -0.11   0.15  -0.04     0.13  -0.28   0.09
  40   7     0.05   0.01  -0.06    -0.06  -0.04   0.04     0.06   0.04  -0.01
  41   1     0.01   0.01  -0.01    -0.03   0.00   0.02     0.04  -0.01  -0.02
  42   1     0.01   0.00  -0.02    -0.00  -0.03   0.02    -0.01   0.04  -0.01
  43   7     0.06   0.02  -0.06     0.04   0.01  -0.07    -0.10  -0.02   0.15
  44   1     0.02  -0.01  -0.02     0.02  -0.02  -0.01    -0.05   0.03   0.03
  45   1     0.02   0.01  -0.02     0.01   0.02  -0.03    -0.03  -0.04   0.06
  46   6    -0.03  -0.08   0.04     0.07  -0.07   0.06    -0.03   0.14  -0.04
  47   8    -0.07  -0.13  -0.02     0.02   0.01   0.05     0.15   0.09   0.13
  48   7    -0.02  -0.06   0.08     0.04  -0.17   0.10     0.01   0.28  -0.25
  49   1    -0.01  -0.02   0.02     0.00  -0.03   0.05     0.04   0.07  -0.09
  50   1    -0.00  -0.01   0.03     0.02  -0.05   0.04    -0.03   0.08  -0.10
  51   7    -0.00  -0.05   0.08     0.16  -0.09   0.03    -0.30   0.09  -0.08
  52   1     0.00  -0.01   0.02     0.05  -0.04   0.01    -0.10   0.06  -0.03
  53   1    -0.01  -0.03   0.00     0.05  -0.02  -0.00    -0.08   0.04   0.05
                     22                     23                     24
                        a                      a                      a 
 Frequencies --   130.6253               146.1043               178.0017
 Red. masses --    12.4156                12.0047                 9.4795
 Frc consts  --     0.0000                 0.0000                 0.0000
 IR Inten    --    12.6055                 4.1662                18.3328
 Raman Activ --     0.0000                 0.0000                 0.0000
 Depolar     --     0.0000                 0.0000                 0.0000
 Atom AN      X      Y      Z        X      Y      Z        X      Y      Z
   1   8     0.06   0.08  -0.02    -0.21  -0.10  -0.04    -0.04   0.08  -0.01
   2   6     0.09  -0.01   0.01     0.28  -0.22  -0.01     0.09  -0.06   0.03
   3   1     0.03   0.00   0.02     0.18   0.01   0.07     0.12   0.07   0.03
   4   1     0.03  -0.01   0.00     0.14  -0.18  -0.06     0.07  -0.15   0.02
   5   6     0.08  -0.04  -0.04     0.05  -0.16  -0.02    -0.43   0.02  -0.07
   6   1     0.02  -0.01  -0.02     0.00  -0.01  -0.01    -0.18   0.13  -0.01
   7   1     0.02  -0.01  -0.01    -0.01  -0.08   0.02    -0.21  -0.08  -0.05
   8   7     0.08  -0.10  -0.03     0.01  -0.07  -0.05    -0.21   0.01  -0.03
   9   6    -0.09  -0.26   0.02    -0.01  -0.07  -0.15    -0.14   0.03   0.22
  10   1    -0.02  -0.10   0.01    -0.02  -0.01  -0.05     0.06   0.04   0.09
  11   1    -0.07  -0.06   0.01    -0.00  -0.02  -0.05    -0.07  -0.00  -0.00
  12   1    -0.02  -0.11   0.01     0.01  -0.03  -0.05    -0.10  -0.00   0.15
  13   6     0.27  -0.16  -0.00     0.01  -0.02   0.04    -0.10   0.01   0.05
  14   1     0.09  -0.08   0.01     0.01  -0.02   0.01    -0.02  -0.02   0.02
  15   1     0.11  -0.01  -0.01     0.01  -0.01   0.03    -0.01   0.02   0.02
  16   1     0.08  -0.05   0.00    -0.01   0.02   0.01    -0.02   0.02   0.01
  17   6     0.02   0.11  -0.07    -0.01   0.02  -0.06    -0.03  -0.02  -0.31
  18   1    -0.04   0.05  -0.02    -0.01   0.00  -0.03    -0.07   0.03  -0.07
  19   1     0.01   0.03  -0.02    -0.01   0.02  -0.02     0.08  -0.08  -0.06
  20   1     0.04   0.06  -0.02     0.01   0.01  -0.01    -0.00   0.02  -0.20
  21   1     0.01   0.02  -0.02    -0.08  -0.04  -0.05    -0.02   0.01  -0.03
  22   6     0.02   0.03   0.01     0.08   0.03   0.02     0.15   0.01   0.00
  23   8     0.13   0.15  -0.01     0.07   0.08   0.04     0.29   0.04  -0.03
  24   7    -0.06  -0.04  -0.07     0.09  -0.01   0.03     0.04  -0.01  -0.09
  25   1    -0.02   0.01  -0.03     0.02   0.02   0.01     0.01   0.01  -0.05
  26   1    -0.03  -0.02  -0.01     0.02   0.00   0.01    -0.02  -0.01  -0.01
  27   7     0.00  -0.04   0.15     0.09  -0.00   0.02     0.12  -0.02   0.21
  28   1    -0.03  -0.03   0.05     0.03  -0.01   0.01    -0.02   0.01   0.07
  29   1     0.02   0.01   0.06     0.02   0.00   0.01     0.06   0.01   0.09
  30   6    -0.19   0.08   0.01    -0.05   0.07  -0.06     0.06  -0.05   0.04
  31   8    -0.50  -0.05  -0.02    -0.12   0.07  -0.12     0.14  -0.01   0.02
  32   7     0.03   0.15   0.05    -0.01   0.11  -0.03    -0.03  -0.07   0.07
  33   1    -0.04   0.02   0.00    -0.02   0.03  -0.01     0.01  -0.00   0.02
  34   1     0.04   0.06   0.02     0.00   0.03   0.00    -0.01  -0.02   0.03
  35   7    -0.12   0.19   0.06    -0.02   0.08  -0.06     0.06  -0.12   0.03
  36   1     0.05   0.07   0.02    -0.00   0.02  -0.02    -0.01  -0.04   0.01
  37   1    -0.04   0.04   0.01    -0.02   0.02  -0.01     0.02  -0.03   0.01
  38   6    -0.10  -0.00   0.03     0.08   0.05  -0.07    -0.02  -0.00   0.01
  39   8    -0.15   0.04   0.01     0.09   0.10  -0.06    -0.03  -0.01   0.00
  40   7    -0.12  -0.05   0.11     0.10   0.03  -0.11    -0.03  -0.01   0.03
  41   1    -0.05  -0.01   0.03     0.03   0.02  -0.03    -0.01  -0.01   0.01
  42   1    -0.02  -0.03   0.03     0.02   0.01  -0.03    -0.00  -0.01   0.01
  43   7    -0.04  -0.03   0.01     0.10   0.04  -0.09    -0.02  -0.01   0.01
  44   1    -0.00  -0.00   0.01     0.03  -0.01  -0.03    -0.00   0.00   0.00
  45   1    -0.01   0.01  -0.00     0.03   0.01  -0.03    -0.00   0.00   0.00
  46   6     0.12  -0.02  -0.06    -0.14   0.02   0.20     0.03   0.04  -0.04
  47   8     0.06   0.01  -0.15    -0.13   0.22   0.38     0.01   0.09  -0.05
  48   7     0.12  -0.06   0.03    -0.24  -0.17   0.10     0.02   0.00  -0.01
  49   1     0.01  -0.02   0.00    -0.05   0.02   0.10    -0.00   0.01   0.01
  50   1     0.04  -0.02   0.01    -0.05  -0.05   0.04     0.01  -0.00   0.00
  51   7     0.22   0.00  -0.05    -0.13  -0.08   0.08     0.09   0.03  -0.07
  52   1     0.07  -0.01  -0.01    -0.03  -0.04   0.01     0.03   0.00  -0.01
  53   1     0.06  -0.00  -0.03    -0.02   0.02   0.04     0.03   0.02  -0.02
                     25                     26                     27
                        a                      a                      a 
 Frequencies --   182.8916               219.0670               244.3391
 Red. masses --    12.1968                10.3554                 3.6714
 Frc consts  --     0.0000                 0.0000                 0.0000
 IR Inten    --    31.0444                 8.9947                19.4920
 Raman Activ --     0.0000                 0.0000                 0.0000
 Depolar     --     0.0000                 0.0000                 0.0000
 Atom AN      X      Y      Z        X      Y      Z        X      Y      Z
   1   8     0.35  -0.05  -0.00    -0.35  -0.38  -0.08    -0.02  -0.02  -0.01
   2   6    -0.02   0.04  -0.01     0.13   0.09  -0.19     0.00  -0.00  -0.01
   3   1    -0.03   0.00  -0.06     0.10   0.08  -0.06     0.00   0.00  -0.00
   4   1    -0.03   0.04   0.05     0.08  -0.04  -0.15     0.00  -0.00  -0.01
   5   6    -0.14   0.06  -0.05     0.02   0.30   0.02     0.00   0.01   0.00
   6   1    -0.06   0.05  -0.01    -0.01   0.12   0.01     0.00   0.00   0.00
   7   1    -0.06  -0.00  -0.03    -0.02   0.06  -0.00     0.00   0.00   0.00
   8   7    -0.05   0.01  -0.03     0.02   0.12   0.07     0.00   0.00   0.00
   9   6    -0.04  -0.01   0.10    -0.04   0.01   0.31     0.00   0.00   0.01
  10   1     0.04   0.01   0.05     0.06  -0.01   0.11     0.00   0.00   0.00
  11   1    -0.03  -0.01  -0.01    -0.06   0.01   0.06    -0.00   0.00   0.00
  12   1    -0.04  -0.01   0.08    -0.04  -0.02   0.14    -0.00  -0.00   0.00
  13   6     0.02  -0.03  -0.04     0.08  -0.10  -0.32     0.00  -0.00  -0.01
  14   1     0.01  -0.02  -0.02     0.06  -0.03  -0.16     0.00  -0.00  -0.01
  15   1     0.02   0.00  -0.01     0.06   0.01  -0.11     0.00   0.00  -0.00
  16   1     0.00  -0.01  -0.01    -0.03  -0.12  -0.09    -0.00  -0.00  -0.00
  17   6     0.01  -0.01  -0.11    -0.04   0.04   0.22    -0.00   0.00   0.01
  18   1    -0.02   0.02  -0.01    -0.04   0.06   0.15    -0.00   0.00   0.01
  19   1     0.03  -0.04  -0.02    -0.03  -0.09   0.08    -0.00  -0.00   0.00
  20   1     0.01   0.01  -0.08     0.01   0.05   0.00     0.00   0.00   0.00
  21   1     0.06  -0.05   0.06    -0.08  -0.09  -0.02    -0.00  -0.00  -0.00
  22   6     0.01  -0.01   0.00     0.02   0.01  -0.00    -0.00   0.00   0.00
  23   8     0.06   0.00  -0.01    -0.01  -0.00   0.01    -0.00  -0.00   0.00
  24   7    -0.03  -0.00  -0.03     0.04   0.03   0.03     0.00   0.00   0.00
  25   1    -0.00  -0.02  -0.02     0.02  -0.01   0.01     0.00  -0.00   0.00
  26   1    -0.01  -0.02  -0.01     0.02  -0.01   0.00     0.00  -0.00  -0.00
  27   7    -0.00  -0.02   0.08     0.03   0.00  -0.06     0.00  -0.01  -0.00
  28   1    -0.02   0.02   0.03     0.02   0.01  -0.02    -0.00   0.01  -0.00
  29   1     0.01   0.01   0.03    -0.00   0.00  -0.03    -0.00   0.01  -0.00
  30   6    -0.05   0.14  -0.06    -0.01  -0.00   0.01     0.00  -0.00   0.00
  31   8    -0.05   0.06   0.13    -0.02  -0.02   0.03    -0.00  -0.00  -0.00
  32   7     0.08   0.05  -0.26     0.02  -0.01  -0.01    -0.00  -0.00   0.00
  33   1     0.06  -0.03  -0.06     0.00  -0.01  -0.00    -0.00  -0.00   0.00
  34   1     0.03   0.04  -0.12     0.00  -0.00  -0.01     0.00   0.00   0.00
  35   7    -0.21   0.28  -0.10    -0.03   0.02   0.01     0.00  -0.00   0.00
  36   1    -0.03   0.09  -0.04     0.00   0.01  -0.00    -0.00  -0.00   0.00
  37   1    -0.04   0.09  -0.01    -0.00   0.01   0.00     0.00   0.00   0.00
  38   6     0.06  -0.00  -0.01     0.00  -0.00   0.00    -0.02  -0.01   0.02
  39   8     0.08  -0.03  -0.00     0.00  -0.01   0.00    -0.02  -0.00   0.01
  40   7     0.07   0.02  -0.07     0.00   0.01   0.00     0.04  -0.28  -0.08
  41   1     0.03   0.02  -0.02     0.00  -0.01  -0.00    -0.06   0.31   0.09
  42   1     0.01   0.03  -0.02     0.00  -0.01  -0.00    -0.10   0.44   0.18
  43   7     0.02   0.01   0.00    -0.00  -0.01   0.01    -0.03   0.32   0.08
  44   1     0.00  -0.01  -0.01    -0.00   0.01   0.00     0.02  -0.53  -0.11
  45   1     0.01  -0.01   0.00    -0.00   0.00   0.00     0.05  -0.36  -0.08
  46   6    -0.01  -0.14   0.12     0.03  -0.01   0.00     0.02   0.01  -0.01
  47   8     0.11  -0.31   0.21     0.05  -0.02   0.01     0.02   0.03  -0.02
  48   7     0.06   0.07  -0.03     0.03  -0.02  -0.06     0.02   0.01   0.03
  49   1     0.05  -0.03  -0.08     0.04   0.05   0.03    -0.03  -0.06  -0.05
  50   1    -0.03   0.03  -0.05     0.01   0.02   0.00     0.00  -0.03  -0.01
  51   7    -0.31  -0.15   0.20     0.01   0.01   0.04     0.00  -0.02  -0.05
  52   1    -0.11   0.02   0.06    -0.01  -0.01  -0.02     0.01   0.03   0.02
  53   1    -0.09  -0.04   0.15    -0.02  -0.05  -0.04     0.02   0.05   0.05
                     28                     29                     30
                        a                      a                      a 
 Frequencies --   255.9854               271.5722               278.1318
 Red. masses --     3.5414                 5.9085                 2.5624
 Frc consts  --     0.0000                 0.0000                 0.0000
 IR Inten    --     4.2385                12.8390                78.4064
 Raman Activ --     0.0000                 0.0000                 0.0000
 Depolar     --     0.0000                 0.0000                 0.0000
 Atom AN      X      Y      Z        X      Y      Z        X      Y      Z
   1   8     0.09   0.03   0.03    -0.35   0.18   0.02     0.14  -0.06  -0.03
   2   6     0.01   0.01   0.03     0.02   0.04   0.05    -0.06  -0.04  -0.03
   3   1    -0.01  -0.00   0.00     0.06   0.05   0.08    -0.06  -0.04  -0.04
   4   1    -0.00   0.01   0.02     0.04  -0.05  -0.04    -0.04   0.04   0.02
   5   6    -0.01  -0.02  -0.01    -0.01   0.01  -0.01     0.03  -0.05  -0.00
   6   1    -0.00  -0.00  -0.00    -0.00   0.00  -0.01     0.02  -0.03   0.00
   7   1    -0.00  -0.01  -0.00    -0.00   0.00  -0.00     0.02  -0.00   0.00
   8   7    -0.01  -0.02  -0.01    -0.03  -0.00  -0.02     0.02  -0.01  -0.00
   9   6    -0.00  -0.01  -0.02    -0.05  -0.02   0.03     0.05   0.02  -0.06
  10   1    -0.00   0.00  -0.01    -0.12  -0.13  -0.02     0.14   0.15   0.01
  11   1     0.00  -0.00  -0.01     0.03   0.03   0.16    -0.03  -0.03  -0.19
  12   1     0.00  -0.00  -0.01     0.04   0.07  -0.10    -0.05  -0.08   0.11
  13   6    -0.01   0.00   0.03    -0.02  -0.00  -0.01    -0.01   0.01   0.03
  14   1    -0.01  -0.00   0.01    -0.07   0.06   0.08     0.08  -0.08  -0.09
  15   1    -0.00  -0.00   0.01    -0.06  -0.03  -0.11     0.06   0.04   0.15
  16   1     0.00   0.01   0.01     0.12  -0.03   0.02    -0.16   0.06  -0.02
  17   6     0.01  -0.01  -0.04     0.01   0.02  -0.11    -0.02  -0.02   0.07
  18   1     0.01  -0.01  -0.03     0.10  -0.11  -0.18    -0.13   0.14   0.21
  19   1     0.01   0.01  -0.01    -0.01   0.20  -0.07     0.03  -0.27   0.07
  20   1    -0.00  -0.01  -0.00    -0.06  -0.08   0.12     0.08   0.10  -0.18
  21   1     0.03   0.02   0.01    -0.12   0.03  -0.04     0.05  -0.01   0.01
  22   6    -0.00   0.00  -0.00     0.03  -0.00   0.02     0.01  -0.00   0.01
  23   8     0.01   0.00  -0.01     0.02  -0.01   0.02     0.01   0.03   0.01
  24   7    -0.00  -0.01  -0.01     0.04  -0.06   0.01    -0.00  -0.05  -0.02
  25   1    -0.00   0.01   0.00    -0.02   0.11   0.03    -0.02   0.08   0.01
  26   1    -0.01   0.02   0.00    -0.03   0.23   0.06    -0.05   0.24   0.05
  27   7    -0.01   0.00   0.01    -0.03   0.20  -0.02    -0.08   0.22   0.01
  28   1    -0.00  -0.01   0.00     0.12  -0.44  -0.02     0.13  -0.55  -0.01
  29   1     0.00  -0.01   0.01     0.08  -0.24  -0.04     0.09  -0.29  -0.03
  30   6    -0.02   0.00  -0.00     0.01   0.02  -0.01    -0.00  -0.01   0.00
  31   8    -0.00   0.01   0.02     0.02   0.02   0.02    -0.01  -0.01  -0.01
  32   7     0.02   0.02   0.00    -0.00  -0.00  -0.03     0.00  -0.00   0.01
  33   1    -0.01  -0.01  -0.00     0.02   0.00  -0.00    -0.00  -0.00   0.00
  34   1    -0.04  -0.02  -0.02     0.01   0.01  -0.01     0.00   0.00   0.00
  35   7    -0.02   0.01  -0.00    -0.03   0.01  -0.01     0.01  -0.00   0.01
  36   1     0.01   0.01  -0.00     0.02   0.01   0.01    -0.00  -0.00  -0.00
  37   1    -0.02  -0.01  -0.01     0.02   0.01  -0.01    -0.01  -0.00   0.00
  38   6     0.00  -0.02   0.00     0.00  -0.01   0.01    -0.00   0.00  -0.00
  39   8     0.00  -0.04  -0.00     0.00  -0.01   0.01    -0.00   0.01  -0.00
  40   7     0.01  -0.02  -0.02     0.00  -0.00   0.00    -0.00  -0.00  -0.00
  41   1     0.00   0.03   0.00     0.00   0.01   0.00    -0.00   0.00   0.00
  42   1    -0.01   0.06   0.01    -0.00   0.01   0.00    -0.00   0.00   0.00
  43   7     0.00   0.06   0.02    -0.01  -0.00   0.02     0.00   0.00  -0.00
  44   1     0.01  -0.08  -0.01    -0.01  -0.01   0.00     0.00  -0.00  -0.00
  45   1     0.01  -0.06  -0.02    -0.00  -0.01   0.01     0.00   0.00  -0.00
  46   6    -0.01   0.01  -0.00     0.09  -0.11   0.02    -0.03   0.04  -0.01
  47   8    -0.00  -0.07  -0.04     0.13  -0.16   0.02    -0.04   0.05  -0.01
  48   7    -0.06  -0.16  -0.22     0.17   0.06  -0.10    -0.06  -0.01   0.04
  49   1     0.18   0.45   0.44     0.09  -0.01  -0.08    -0.03  -0.01   0.02
  50   1     0.05   0.18   0.17     0.01   0.04  -0.05    -0.00  -0.02   0.01
  51   7     0.02   0.19   0.22    -0.04  -0.08   0.09     0.01   0.02  -0.03
  52   1    -0.08  -0.10  -0.13    -0.03   0.01   0.01     0.01  -0.00  -0.00
  53   1    -0.17  -0.33  -0.35    -0.02  -0.04   0.04     0.01   0.02  -0.01
                     31                     32                     33
                        a                      a                      a 
 Frequencies --   290.0961               319.0112               333.7251
 Red. masses --     8.5318                 2.0316                 2.9573
 Frc consts  --     0.0000                 0.0000                 0.0000
 IR Inten    --    31.8719                 2.2145               172.2099
 Raman Activ --     0.0000                 0.0000                 0.0000
 Depolar     --     0.0000                 0.0000                 0.0000
 Atom AN      X      Y      Z        X      Y      Z        X      Y      Z
   1   8    -0.46   0.30   0.04     0.08  -0.14   0.09     0.00  -0.02   0.02
   2   6    -0.07   0.04   0.10    -0.01  -0.04   0.05    -0.00   0.00   0.01
   3   1     0.00   0.02   0.10    -0.01  -0.01   0.01    -0.00   0.00   0.00
   4   1     0.00  -0.02  -0.02    -0.01  -0.01   0.03    -0.00   0.00   0.00
   5   6     0.04  -0.06  -0.00    -0.05  -0.01   0.01    -0.00   0.01   0.01
   6   1     0.01  -0.02  -0.00    -0.02   0.01   0.01     0.00   0.00  -0.00
   7   1     0.02  -0.01  -0.01    -0.03  -0.02  -0.00     0.00   0.00   0.01
   8   7     0.04  -0.03  -0.02     0.00   0.05  -0.01    -0.02   0.01  -0.00
   9   6     0.05   0.02  -0.21    -0.01   0.07  -0.04    -0.02   0.01   0.00
  10   1     0.02   0.07  -0.06    -0.33  -0.29  -0.09    -0.02  -0.01  -0.00
  11   1     0.01  -0.01  -0.12     0.14   0.10   0.40    -0.00   0.01   0.02
  12   1     0.01  -0.03  -0.04     0.16   0.23  -0.34     0.00   0.01  -0.01
  13   6    -0.02   0.04   0.07     0.03   0.01  -0.07     0.00   0.00  -0.01
  14   1     0.08  -0.07  -0.08    -0.04   0.06   0.04     0.02  -0.02  -0.03
  15   1     0.06   0.04   0.17    -0.02  -0.01  -0.12     0.02   0.02   0.02
  16   1    -0.16   0.08  -0.02     0.11  -0.05   0.00    -0.03   0.01  -0.01
  17   6     0.03  -0.04   0.01     0.04   0.04  -0.08     0.00  -0.01  -0.03
  18   1    -0.12   0.13   0.19    -0.15   0.18   0.18     0.01  -0.02  -0.02
  19   1     0.06  -0.28   0.05     0.09  -0.29   0.04     0.01   0.02  -0.01
  20   1     0.09   0.09  -0.21     0.10   0.13  -0.29    -0.01  -0.02   0.00
  21   1    -0.15   0.07  -0.05     0.04  -0.03   0.04     0.00  -0.01   0.01
  22   6     0.01   0.02   0.01    -0.00  -0.02  -0.00     0.00   0.00  -0.00
  23   8    -0.00   0.01   0.02    -0.00  -0.03  -0.00     0.00   0.00  -0.00
  24   7     0.03  -0.01   0.02     0.00   0.02   0.02     0.00  -0.00  -0.00
  25   1     0.00   0.01   0.01     0.01  -0.02   0.00    -0.00   0.00   0.00
  26   1     0.02  -0.05  -0.01     0.01  -0.01  -0.00    -0.00   0.01   0.00
  27   7     0.06  -0.08  -0.03    -0.02   0.02   0.02    -0.00  -0.00   0.00
  28   1    -0.03   0.22  -0.01     0.00  -0.04   0.01     0.00  -0.01   0.00
  29   1    -0.03   0.11  -0.00     0.01  -0.02   0.01     0.00  -0.00   0.00
  30   6    -0.01   0.01  -0.01    -0.00  -0.00   0.01    -0.02  -0.04  -0.02
  31   8    -0.01  -0.00   0.01    -0.00  -0.01   0.01     0.00  -0.02  -0.00
  32   7     0.02   0.00  -0.02     0.00  -0.01   0.00     0.30   0.22   0.09
  33   1     0.00  -0.01  -0.01     0.00  -0.00   0.00    -0.31  -0.19  -0.05
  34   1    -0.00  -0.00  -0.02     0.01   0.00   0.00    -0.67  -0.40  -0.23
  35   7    -0.03   0.01  -0.00    -0.01   0.01   0.01    -0.02  -0.01  -0.01
  36   1     0.03   0.01   0.01    -0.01   0.00  -0.00     0.18   0.04   0.01
  37   1     0.02   0.01  -0.01    -0.01   0.00   0.01     0.04   0.01  -0.00
  38   6     0.00  -0.01   0.01    -0.00   0.00  -0.00    -0.00  -0.00  -0.00
  39   8     0.00  -0.01   0.00    -0.00   0.00  -0.00     0.00  -0.00  -0.00
  40   7     0.00  -0.00   0.00    -0.00   0.00  -0.00    -0.00   0.00   0.00
  41   1     0.00   0.00   0.00    -0.00   0.00  -0.00    -0.00  -0.00  -0.00
  42   1    -0.00   0.01   0.00    -0.00  -0.00  -0.00     0.00  -0.01  -0.00
  43   7    -0.01  -0.00   0.01     0.00   0.00  -0.00    -0.00   0.00  -0.00
  44   1    -0.01  -0.00   0.00     0.00  -0.00  -0.00    -0.00   0.00  -0.00
  45   1    -0.00  -0.01   0.01     0.00   0.00  -0.00    -0.00  -0.00   0.00
  46   6     0.10  -0.12   0.03    -0.02   0.03  -0.01    -0.00   0.00   0.01
  47   8     0.12  -0.17   0.02    -0.02   0.03  -0.01    -0.01  -0.00  -0.01
  48   7     0.19   0.05  -0.12    -0.04  -0.02   0.03    -0.00   0.00   0.01
  49   1     0.11   0.01  -0.06    -0.02   0.00   0.02    -0.01  -0.01  -0.01
  50   1     0.01   0.06  -0.05    -0.00  -0.01   0.01    -0.00  -0.01  -0.00
  51   7    -0.04  -0.08   0.10     0.01   0.02  -0.02    -0.00  -0.01  -0.01
  52   1    -0.04   0.00   0.01     0.01  -0.00  -0.00     0.01   0.01   0.02
  53   1    -0.03  -0.06   0.02     0.00   0.01  -0.01     0.02   0.03   0.04
                     34                     35                     36
                        a                      a                      a 
 Frequencies --   348.0464               351.6881               355.6549
 Red. masses --     6.7492                 3.7261                 4.7515
 Frc consts  --     0.0000                 0.0000                 0.0000
 IR Inten    --     6.7662               380.3074                 1.9446
 Raman Activ --     0.0000                 0.0000                 0.0000
 Depolar     --     0.0000                 0.0000                 0.0000
 Atom AN      X      Y      Z        X      Y      Z        X      Y      Z
   1   8    -0.04  -0.20   0.37    -0.00  -0.01   0.01    -0.07  -0.09   0.22
   2   6    -0.01   0.07   0.22    -0.01  -0.00   0.01     0.04   0.04   0.14
   3   1    -0.03  -0.01   0.05    -0.00  -0.00   0.00    -0.02  -0.02   0.04
   4   1    -0.01   0.07   0.04    -0.00   0.00   0.00     0.00   0.06   0.01
   5   6     0.10   0.02   0.09    -0.00  -0.00   0.00     0.26  -0.03   0.08
   6   1     0.06  -0.01  -0.02    -0.00   0.00  -0.00     0.13  -0.09  -0.02
   7   1     0.05   0.02   0.04    -0.00  -0.00   0.00     0.14   0.05   0.06
   8   7    -0.01  -0.00  -0.01     0.00  -0.00   0.00     0.01   0.00  -0.02
   9   6     0.01   0.01   0.02     0.01   0.01   0.01    -0.07  -0.09   0.01
  10   1    -0.03  -0.04  -0.00    -0.01  -0.01  -0.00     0.14   0.10   0.05
  11   1     0.02   0.01   0.06     0.01   0.00   0.02    -0.13  -0.05  -0.19
  12   1     0.02   0.03  -0.03     0.01   0.01  -0.01    -0.09  -0.15   0.16
  13   6    -0.12  -0.04  -0.21     0.00  -0.01  -0.02    -0.22   0.05  -0.13
  14   1     0.15  -0.14  -0.33     0.03  -0.03  -0.04    -0.24   0.25   0.15
  15   1     0.09   0.06   0.21     0.02   0.01   0.04    -0.24  -0.11  -0.31
  16   1    -0.39   0.03  -0.13    -0.05   0.01  -0.01     0.24  -0.09   0.03
  17   6     0.13   0.10  -0.34     0.00   0.01  -0.01     0.09   0.09  -0.23
  18   1     0.04  -0.04  -0.24     0.01  -0.01  -0.02    -0.09   0.10  -0.02
  19   1     0.10   0.17  -0.11    -0.00   0.02  -0.01     0.12  -0.09  -0.03
  20   1     0.01  -0.01  -0.04    -0.00  -0.00   0.01     0.07   0.09  -0.20
  21   1     0.02  -0.03   0.10    -0.01  -0.01   0.00    -0.01  -0.01   0.05
  22   6    -0.02  -0.00  -0.00    -0.00   0.00   0.00    -0.01   0.01  -0.00
  23   8    -0.00   0.01  -0.01    -0.00   0.00   0.00     0.00   0.01  -0.01
  24   7    -0.01   0.01   0.01     0.00  -0.00   0.00    -0.02  -0.01  -0.01
  25   1     0.00  -0.02   0.01    -0.00   0.00   0.00    -0.01   0.00   0.01
  26   1     0.01  -0.02  -0.00    -0.00   0.01   0.00    -0.00   0.01  -0.00
  27   7    -0.02   0.00  -0.01     0.00  -0.00  -0.00    -0.01  -0.02  -0.03
  28   1     0.00  -0.02  -0.00     0.00  -0.00  -0.00    -0.00   0.03  -0.01
  29   1    -0.01  -0.00  -0.00    -0.00  -0.00  -0.00    -0.02   0.01  -0.01
  30   6    -0.00   0.00  -0.01    -0.00   0.00  -0.00     0.00  -0.00   0.01
  31   8    -0.01  -0.00  -0.01    -0.00  -0.00   0.00     0.01  -0.00   0.02
  32   7    -0.02  -0.01  -0.00    -0.00  -0.00  -0.00     0.01   0.00   0.00
  33   1     0.02   0.02   0.00     0.01   0.00   0.00    -0.01  -0.01  -0.00
  34   1     0.06   0.04   0.02     0.02   0.01   0.00    -0.03  -0.02  -0.01
  35   7     0.01   0.00  -0.00     0.01   0.00   0.00    -0.01   0.01   0.00
  36   1    -0.02  -0.01  -0.00    -0.02  -0.00  -0.00     0.00   0.00   0.00
  37   1    -0.01  -0.00  -0.00    -0.00  -0.00  -0.00    -0.00   0.00   0.00
  38   6    -0.00   0.01   0.00     0.01  -0.10  -0.04     0.00  -0.01  -0.00
  39   8    -0.00   0.01   0.00     0.02  -0.05  -0.01     0.00  -0.00   0.00
  40   7     0.01  -0.02  -0.01    -0.09   0.28   0.13    -0.01   0.02   0.01
  41   1    -0.00   0.02   0.01     0.06  -0.25  -0.07     0.00  -0.02  -0.00
  42   1    -0.01   0.05   0.02     0.09  -0.55  -0.23     0.01  -0.04  -0.02
  43   7     0.00  -0.02  -0.00     0.00   0.29   0.03    -0.00   0.02   0.00
  44   1    -0.00   0.04   0.01     0.01  -0.50  -0.13     0.00  -0.03  -0.01
  45   1    -0.00   0.02   0.00     0.03  -0.25  -0.05     0.00  -0.02  -0.00
  46   6    -0.01   0.01  -0.02     0.01   0.02   0.01    -0.00  -0.00  -0.01
  47   8    -0.01   0.02  -0.01    -0.00  -0.02  -0.01    -0.00   0.00  -0.01
  48   7    -0.02  -0.00   0.02    -0.00  -0.02  -0.01    -0.00   0.00   0.01
  49   1    -0.02  -0.02  -0.01     0.01   0.03   0.03    -0.01  -0.01  -0.01
  50   1    -0.00  -0.02  -0.00     0.01   0.03   0.04    -0.00  -0.01  -0.00
  51   7     0.02   0.02  -0.02    -0.01  -0.03  -0.03     0.01   0.00  -0.00
  52   1     0.00  -0.01  -0.01     0.02   0.05   0.05     0.00   0.00  -0.00
  53   1    -0.00  -0.01  -0.02     0.03   0.07   0.08    -0.00  -0.00  -0.01
                     37                     38                     39
                        a                      a                      a 
 Frequencies --   368.2113               378.5463               390.0092
 Red. masses --     8.7391                 8.3644                 3.7564
 Frc consts  --     0.0000                 0.0000                 0.0000
 IR Inten    --    36.4681                 1.4270               237.6821
 Raman Activ --     0.0000                 0.0000                 0.0000
 Depolar     --     0.0000                 0.0000                 0.0000
 Atom AN      X      Y      Z        X      Y      Z        X      Y      Z
   1   8     0.06   0.22  -0.22     0.05   0.03  -0.27    -0.03   0.11  -0.06
   2   6    -0.05  -0.29  -0.03     0.10   0.07  -0.23     0.01  -0.05  -0.00
   3   1    -0.04  -0.12   0.06     0.01   0.00  -0.05     0.00  -0.02   0.02
   4   1    -0.03  -0.06   0.02     0.03   0.05  -0.10     0.01  -0.02  -0.00
   5   6     0.11  -0.32  -0.00     0.26   0.09   0.00     0.05  -0.07  -0.00
   6   1     0.06  -0.15   0.01     0.12  -0.05  -0.03     0.01  -0.02   0.00
   7   1     0.07  -0.06   0.08     0.12   0.07   0.06     0.02  -0.02   0.02
   8   7     0.00  -0.02  -0.03    -0.00   0.04   0.05     0.01  -0.02  -0.00
   9   6     0.18   0.10   0.38    -0.26  -0.24   0.25     0.03  -0.01   0.09
  10   1     0.11  -0.06   0.13    -0.13  -0.21   0.06     0.04  -0.01   0.03
  11   1     0.08   0.04   0.19    -0.15  -0.00   0.19     0.00  -0.00   0.03
  12   1     0.00   0.13   0.13    -0.03  -0.08   0.01    -0.01   0.01   0.04
  13   6    -0.13  -0.03  -0.15    -0.23   0.22   0.26    -0.06   0.00  -0.01
  14   1    -0.01   0.01  -0.11    -0.02   0.03   0.01    -0.02   0.02  -0.02
  15   1    -0.04  -0.01  -0.01    -0.07   0.03   0.23    -0.03  -0.01   0.01
  16   1    -0.11  -0.03  -0.05    -0.17   0.18   0.04    -0.03   0.00  -0.01
  17   6    -0.13   0.33   0.01     0.15  -0.17  -0.09    -0.02   0.07  -0.00
  18   1    -0.12   0.12  -0.01     0.05  -0.04  -0.01    -0.03   0.03  -0.00
  19   1    -0.07   0.10  -0.00     0.12  -0.09  -0.01    -0.01   0.02  -0.00
  20   1     0.04   0.16   0.03     0.01  -0.07  -0.11     0.01   0.04   0.01
  21   1    -0.01   0.04  -0.09     0.01   0.00  -0.06    -0.01   0.03  -0.03
  22   6    -0.01   0.02   0.02    -0.01   0.01   0.02     0.01  -0.13  -0.04
  23   8    -0.01  -0.00   0.02    -0.01   0.01   0.01     0.03  -0.07  -0.04
  24   7    -0.02  -0.07  -0.03    -0.02  -0.02   0.00    -0.03   0.28   0.10
  25   1    -0.02   0.05  -0.00    -0.01   0.01  -0.00     0.04  -0.11  -0.04
  26   1    -0.04   0.16   0.03    -0.01   0.03   0.01     0.11  -0.79  -0.16
  27   7     0.01  -0.05  -0.04    -0.00  -0.01  -0.03    -0.08   0.22   0.00
  28   1    -0.00   0.11  -0.02     0.01   0.03  -0.01     0.03  -0.27   0.00
  29   1    -0.03   0.02  -0.03    -0.02   0.01  -0.02     0.03  -0.06   0.00
  30   6    -0.00  -0.00  -0.00    -0.00   0.00  -0.01     0.00   0.00   0.00
  31   8    -0.01  -0.00  -0.00     0.00   0.00  -0.00     0.00   0.00  -0.00
  32   7     0.01  -0.00  -0.00     0.00   0.01  -0.00    -0.00  -0.00  -0.00
  33   1    -0.00  -0.01  -0.00     0.00   0.00  -0.00     0.00  -0.00  -0.00
  34   1    -0.01  -0.01  -0.01     0.00   0.00  -0.00    -0.01  -0.01  -0.00
  35   7     0.00  -0.01  -0.00     0.02  -0.01  -0.00    -0.02  -0.00  -0.00
  36   1     0.01  -0.00   0.00    -0.03  -0.01  -0.00     0.04   0.01   0.01
  37   1     0.00  -0.00  -0.00    -0.00  -0.01  -0.00     0.00  -0.00  -0.00
  38   6    -0.00   0.00   0.00     0.00   0.00   0.00    -0.00  -0.00  -0.00
  39   8    -0.00  -0.00  -0.00     0.00   0.00   0.00    -0.00  -0.01  -0.00
  40   7     0.00  -0.01  -0.00     0.00   0.00  -0.00    -0.00  -0.00  -0.00
  41   1    -0.00   0.00   0.00     0.00  -0.00  -0.00    -0.00  -0.00   0.00
  42   1    -0.00   0.02   0.01    -0.00  -0.00  -0.00    -0.00   0.01   0.00
  43   7    -0.00  -0.01  -0.00     0.00   0.00   0.00     0.00   0.00  -0.00
  44   1    -0.00   0.02   0.00     0.00  -0.00  -0.00     0.00   0.00   0.00
  45   1    -0.00   0.01   0.00     0.00  -0.00   0.00     0.00  -0.00  -0.00
  46   6     0.00  -0.01   0.02    -0.00  -0.00   0.00     0.01  -0.00   0.02
  47   8     0.00  -0.01   0.01     0.00  -0.00   0.01    -0.01  -0.02  -0.01
  48   7     0.02   0.01  -0.02    -0.00   0.00  -0.00     0.01  -0.01  -0.02
  49   1     0.02   0.01   0.00    -0.00  -0.00  -0.00     0.03   0.04   0.04
  50   1    -0.00   0.01  -0.00    -0.00  -0.00  -0.00     0.01   0.03   0.01
  51   7    -0.01  -0.01   0.02    -0.01  -0.00   0.00    -0.01  -0.02   0.00
  52   1    -0.01  -0.00   0.00    -0.00  -0.00  -0.00     0.00   0.01   0.02
  53   1    -0.00   0.00   0.01    -0.00  -0.00  -0.00     0.02   0.03   0.04
                     40                     41                     42
                        a                      a                      a 
 Frequencies --   434.7927               445.4667               446.6829
 Red. masses --     3.1069                 2.3630                 1.9278
 Frc consts  --     0.0000                 0.0000                 0.0000
 IR Inten    --   199.5184               418.3549               137.5317
 Raman Activ --     0.0000                 0.0000                 0.0000
 Depolar     --     0.0000                 0.0000                 0.0000
 Atom AN      X      Y      Z        X      Y      Z        X      Y      Z
   1   8     0.02  -0.01  -0.01    -0.02   0.00   0.02    -0.00  -0.00   0.01
   2   6     0.00  -0.01  -0.00    -0.02  -0.01   0.02    -0.01  -0.01   0.01
   3   1    -0.00  -0.01  -0.00    -0.01  -0.01   0.00    -0.01  -0.00   0.00
   4   1    -0.00   0.00   0.00    -0.01   0.00   0.01    -0.01   0.00   0.01
   5   6     0.02  -0.01   0.01    -0.01   0.00   0.02    -0.00   0.00   0.01
   6   1     0.01  -0.01   0.00    -0.00   0.00   0.01    -0.00   0.00   0.01
   7   1     0.01   0.00   0.02    -0.00  -0.00   0.00    -0.00  -0.00   0.00
   8   7    -0.02   0.03   0.00     0.02   0.04   0.01     0.01   0.02   0.01
   9   6    -0.04   0.02   0.01    -0.03  -0.01  -0.02    -0.02  -0.00  -0.01
  10   1    -0.01   0.00   0.00    -0.01  -0.00  -0.01    -0.01  -0.00  -0.00
  11   1    -0.02   0.01   0.00    -0.03   0.00  -0.01    -0.02   0.00  -0.01
  12   1    -0.01   0.00   0.00    -0.00  -0.02  -0.00    -0.00  -0.01  -0.00
  13   6     0.02   0.02  -0.00     0.01   0.02  -0.03     0.01   0.01  -0.02
  14   1     0.01  -0.01  -0.00     0.00   0.01  -0.02     0.00   0.01  -0.01
  15   1     0.02   0.01   0.00     0.00   0.01  -0.01     0.00   0.00  -0.01
  16   1    -0.00   0.00  -0.00    -0.00  -0.00  -0.01    -0.00  -0.00  -0.01
  17   6     0.00  -0.03  -0.01     0.04  -0.01   0.00     0.03  -0.01   0.00
  18   1     0.02  -0.01   0.00     0.02  -0.01   0.00     0.02  -0.01   0.00
  19   1     0.01  -0.01  -0.00     0.02  -0.00   0.00     0.01  -0.00   0.00
  20   1    -0.01  -0.02  -0.01    -0.00  -0.01  -0.00    -0.00  -0.01  -0.00
  21   1    -0.00  -0.01   0.00    -0.05  -0.04  -0.00    -0.03  -0.03  -0.00
  22   6    -0.00   0.00   0.00     0.00   0.01   0.02     0.00   0.00   0.01
  23   8     0.00   0.00   0.00     0.01   0.01   0.02     0.00   0.00   0.01
  24   7    -0.00  -0.01  -0.00    -0.02  -0.03  -0.01    -0.01  -0.01  -0.01
  25   1    -0.00  -0.00   0.00    -0.01   0.00  -0.01    -0.00   0.00  -0.01
  26   1    -0.00   0.03   0.01    -0.02   0.06   0.02    -0.01   0.04   0.01
  27   7     0.00  -0.01  -0.00     0.02  -0.01  -0.02     0.01  -0.01  -0.01
  28   1    -0.00   0.02  -0.00     0.01   0.03  -0.01     0.01   0.02  -0.01
  29   1    -0.00  -0.00  -0.00    -0.01  -0.01  -0.02    -0.00  -0.00  -0.01
  30   6     0.10  -0.02  -0.01    -0.01   0.00   0.00    -0.01   0.00   0.00
  31   8     0.11   0.01  -0.05    -0.00   0.01   0.01     0.00   0.01   0.01
  32   7    -0.15  -0.11   0.01    -0.02  -0.01  -0.01    -0.01  -0.01  -0.01
  33   1     0.11   0.08   0.03     0.06   0.02   0.01     0.04   0.01   0.01
  34   1     0.05   0.01   0.06     0.01   0.01  -0.01     0.01   0.01  -0.01
  35   7    -0.30   0.03  -0.02     0.00  -0.00   0.01    -0.01  -0.00   0.01
  36   1     0.85   0.20   0.17     0.05   0.00   0.02     0.05   0.01   0.02
  37   1    -0.01  -0.01  -0.06    -0.03  -0.03  -0.03    -0.02  -0.02  -0.02
  38   6    -0.00   0.00   0.00    -0.05  -0.03  -0.01     0.03   0.01  -0.07
  39   8    -0.00   0.00   0.01    -0.02  -0.04   0.02     0.06   0.00  -0.05
  40   7    -0.00   0.00  -0.00    -0.03  -0.08  -0.05     0.01   0.08   0.09
  41   1     0.00   0.02   0.00    -0.00   0.20   0.03    -0.06  -0.48  -0.06
  42   1     0.00  -0.03  -0.02    -0.03  -0.06  -0.06     0.03   0.36   0.26
  43   7     0.00   0.01   0.00     0.04   0.04  -0.00    -0.05  -0.10  -0.07
  44   1     0.00  -0.01  -0.00     0.07   0.32   0.13    -0.09  -0.29  -0.14
  45   1     0.00  -0.01  -0.01     0.07  -0.24  -0.16    -0.10   0.37   0.20
  46   6    -0.04  -0.00  -0.00     0.06   0.08   0.06     0.01   0.04   0.05
  47   8    -0.03   0.01   0.02    -0.01  -0.07  -0.12    -0.03  -0.04  -0.05
  48   7    -0.03   0.01   0.02    -0.00  -0.11  -0.06    -0.01  -0.04  -0.05
  49   1    -0.01  -0.03  -0.03     0.11   0.29   0.32     0.07   0.17   0.17
  50   1    -0.02  -0.01  -0.01     0.06   0.11   0.14     0.02   0.07   0.07
  51   7     0.04   0.01  -0.00    -0.08  -0.09  -0.11    -0.02  -0.06  -0.06
  52   1     0.01  -0.03  -0.01     0.05   0.18   0.17     0.04   0.08   0.10
  53   1     0.00  -0.02  -0.05     0.15   0.34   0.42     0.09   0.20   0.22
                     43                     44                     45
                        a                      a                      a 
 Frequencies --   457.6376               464.1885               466.0741
 Red. masses --     8.4514                 6.1161                 6.0586
 Frc consts  --     0.0000                 0.0000                 0.0000
 IR Inten    --     4.0488                 6.4908                 8.4081
 Raman Activ --     0.0000                 0.0000                 0.0000
 Depolar     --     0.0000                 0.0000                 0.0000
 Atom AN      X      Y      Z        X      Y      Z        X      Y      Z
   1   8    -0.01   0.01  -0.00    -0.00   0.01  -0.02     0.02   0.08  -0.02
   2   6     0.00   0.00   0.00    -0.04   0.01  -0.01    -0.07  -0.18   0.05
   3   1     0.00   0.00   0.00     0.00   0.02  -0.01    -0.03  -0.06   0.04
   4   1     0.00  -0.00  -0.00    -0.01  -0.02   0.01    -0.03  -0.05   0.04
   5   6     0.00  -0.00  -0.00    -0.13   0.02  -0.02    -0.06  -0.12   0.06
   6   1     0.00  -0.00  -0.00    -0.10   0.09   0.05    -0.03  -0.03   0.06
   7   1     0.00   0.00   0.00    -0.10  -0.05  -0.08    -0.03  -0.05   0.04
   8   7    -0.01   0.00  -0.00     0.22  -0.05   0.06     0.09   0.21   0.01
   9   6    -0.00   0.01   0.00     0.07  -0.22  -0.05    -0.17  -0.02  -0.01
  10   1     0.00   0.00   0.00    -0.02  -0.07  -0.02    -0.05  -0.02  -0.00
  11   1     0.00   0.00   0.00    -0.03  -0.04  -0.01    -0.14   0.03  -0.02
  12   1    -0.00   0.00   0.00     0.05  -0.11  -0.03    -0.03  -0.09   0.01
  13   6     0.01  -0.00   0.00    -0.18   0.05  -0.04     0.05   0.15  -0.20
  14   1     0.00  -0.00   0.00    -0.06   0.11  -0.06     0.03   0.06  -0.09
  15   1     0.00   0.00  -0.00    -0.12  -0.05   0.02     0.02   0.05  -0.07
  16   1     0.00  -0.00   0.00    -0.10   0.02  -0.02    -0.01  -0.02  -0.05
  17   6    -0.01  -0.01  -0.00     0.14   0.16   0.11     0.17  -0.05   0.09
  18   1    -0.00  -0.00   0.00     0.00   0.05   0.01     0.12  -0.03   0.05
  19   1    -0.00  -0.00  -0.00     0.00   0.07   0.02     0.04  -0.03   0.03
  20   1    -0.00  -0.00  -0.00     0.07   0.07   0.07    -0.01  -0.07   0.02
  21   1    -0.00   0.00  -0.00     0.01   0.01  -0.00    -0.00   0.02  -0.03
  22   6     0.00   0.00   0.00     0.00  -0.00  -0.14    -0.00  -0.00  -0.11
  23   8     0.00   0.00   0.00    -0.14  -0.03  -0.10    -0.11  -0.03  -0.08
  24   7    -0.01  -0.00  -0.00     0.18   0.06   0.02     0.14   0.05   0.02
  25   1    -0.00   0.00  -0.00     0.06  -0.06   0.07     0.04  -0.03   0.06
  26   1    -0.00  -0.00   0.00     0.10   0.12  -0.00     0.09   0.07  -0.01
  27   7     0.00   0.00  -0.00    -0.04  -0.07   0.13    -0.04  -0.05   0.10
  28   1     0.00   0.01  -0.00    -0.14  -0.22   0.09    -0.11  -0.17   0.07
  29   1    -0.00  -0.01  -0.01     0.04   0.30   0.21     0.03   0.24   0.16
  30   6     0.01  -0.01  -0.01    -0.06   0.06   0.07     0.09  -0.05  -0.08
  31   8     0.01  -0.02   0.00    -0.07   0.12  -0.04     0.10  -0.13   0.06
  32   7    -0.00   0.00   0.02     0.01  -0.06  -0.10     0.00   0.06   0.10
  33   1    -0.03   0.01   0.00     0.35  -0.03   0.03    -0.47  -0.00  -0.05
  34   1     0.01  -0.00   0.02    -0.12  -0.02  -0.22     0.17   0.04   0.26
  35   7    -0.01   0.01  -0.01     0.06  -0.10   0.11    -0.08   0.09  -0.13
  36   1     0.00   0.01  -0.01     0.05  -0.04   0.08    -0.03   0.05  -0.08
  37   1     0.00   0.01   0.00     0.01  -0.07  -0.02    -0.00   0.07   0.02
  38   6    -0.21  -0.09   0.22    -0.01  -0.00   0.01     0.01   0.00  -0.00
  39   8    -0.23  -0.10   0.24    -0.01  -0.01   0.01     0.00   0.00  -0.01
  40   7    -0.12   0.17  -0.35    -0.01   0.01  -0.02     0.00  -0.00   0.01
  41   1     0.21  -0.08  -0.21     0.01   0.00  -0.01    -0.00   0.00   0.00
  42   1    -0.21   0.18  -0.19    -0.01   0.00  -0.01     0.00  -0.00   0.00
  43   7     0.41  -0.04   0.05     0.02  -0.00   0.00    -0.01   0.00   0.00
  44   1     0.27  -0.16   0.13     0.02  -0.01   0.01    -0.01   0.00  -0.00
  45   1     0.14   0.23  -0.16     0.01   0.01  -0.01    -0.00  -0.00   0.00
  46   6     0.04   0.02  -0.04    -0.01   0.00   0.00     0.01  -0.02   0.01
  47   8     0.05   0.02  -0.04     0.00  -0.00   0.01    -0.02   0.00  -0.01
  48   7     0.02  -0.04   0.03    -0.00   0.01  -0.00     0.02  -0.00  -0.01
  49   1    -0.03  -0.03   0.00    -0.00  -0.01  -0.01     0.02   0.01  -0.00
  50   1     0.03  -0.02   0.03    -0.00  -0.00  -0.01    -0.00   0.01  -0.00
  51   7    -0.05   0.02  -0.00     0.02   0.00  -0.01    -0.01  -0.02   0.02
  52   1    -0.03   0.02  -0.02     0.01  -0.01  -0.00    -0.01   0.00   0.00
  53   1    -0.02  -0.01   0.03     0.00  -0.00  -0.02    -0.01  -0.01   0.01
                     46                     47                     48
                        a                      a                      a 
 Frequencies --   472.3688               475.1645               481.7883
 Red. masses --     4.8216                 5.1806                 8.2315
 Frc consts  --     0.0000                 0.0000                 0.0000
 IR Inten    --    33.3541                 4.5201                35.9220
 Raman Activ --     0.0000                 0.0000                 0.0000
 Depolar     --     0.0000                 0.0000                 0.0000
 Atom AN      X      Y      Z        X      Y      Z        X      Y      Z
   1   8     0.03   0.05  -0.01     0.00  -0.05  -0.01     0.03   0.03   0.01
   2   6    -0.09  -0.18   0.06    -0.00   0.14  -0.05    -0.05  -0.08   0.04
   3   1    -0.02  -0.05   0.03     0.02   0.06  -0.05    -0.00  -0.01   0.01
   4   1    -0.03  -0.06   0.05     0.01   0.02  -0.02    -0.01  -0.04   0.04
   5   6    -0.12  -0.10   0.05    -0.11   0.11  -0.06    -0.13  -0.04   0.01
   6   1    -0.07   0.00   0.06    -0.08   0.11   0.01    -0.08   0.05   0.04
   7   1    -0.07  -0.07   0.00    -0.08  -0.02  -0.11    -0.08  -0.05  -0.04
   8   7     0.15   0.19   0.02     0.15  -0.19   0.05     0.14   0.07   0.03
   9   6    -0.15  -0.08  -0.04     0.18  -0.21  -0.05    -0.05  -0.11  -0.06
  10   1    -0.06  -0.04  -0.02     0.01  -0.05  -0.03    -0.04  -0.04  -0.03
  11   1    -0.15   0.01  -0.03     0.07  -0.06  -0.00    -0.08  -0.01  -0.02
  12   1    -0.01  -0.12  -0.01     0.06  -0.04  -0.04     0.01  -0.09  -0.03
  13   6     0.03   0.16  -0.21    -0.22  -0.05   0.09    -0.04   0.09  -0.11
  14   1     0.02   0.09  -0.11    -0.08   0.07   0.00    -0.01   0.07  -0.07
  15   1    -0.01   0.03  -0.07    -0.13  -0.08   0.06    -0.04  -0.00  -0.03
  16   1    -0.03  -0.01  -0.06    -0.09   0.03   0.02    -0.04   0.00  -0.03
  17   6     0.20  -0.02   0.12     0.03   0.20   0.06     0.14   0.04   0.09
  18   1     0.13  -0.03   0.05    -0.08   0.08  -0.02     0.06   0.00   0.03
  19   1     0.04  -0.01   0.03    -0.02   0.09   0.01     0.02   0.02   0.02
  20   1     0.01  -0.05   0.04     0.08   0.12   0.05     0.03  -0.00   0.04
  21   1     0.01   0.01  -0.01    -0.00  -0.02   0.02     0.01   0.01   0.00
  22   6    -0.02   0.06  -0.00    -0.01   0.03  -0.01     0.07  -0.05   0.24
  23   8     0.03   0.06  -0.02    -0.00   0.03  -0.01     0.19  -0.02   0.23
  24   7     0.03  -0.09   0.01     0.03  -0.05   0.00    -0.37   0.02  -0.08
  25   1    -0.02   0.10   0.02    -0.00   0.04   0.01    -0.06  -0.04  -0.20
  26   1     0.03  -0.11  -0.02     0.02  -0.02  -0.01    -0.26  -0.03   0.04
  27   7    -0.05   0.06   0.06    -0.03   0.03   0.05     0.20   0.03  -0.27
  28   1    -0.00   0.32  -0.01    -0.01   0.17   0.00     0.25  -0.12  -0.13
  29   1     0.09  -0.57  -0.12     0.06  -0.30  -0.05    -0.16   0.27  -0.16
  30   6    -0.03   0.00   0.01     0.04   0.06   0.02    -0.01   0.05   0.04
  31   8    -0.03   0.02  -0.03     0.05   0.05   0.06    -0.02   0.07   0.00
  32   7    -0.02  -0.02  -0.00     0.08   0.02  -0.08     0.04  -0.01  -0.07
  33   1     0.21   0.04   0.04    -0.48  -0.18  -0.11    -0.07  -0.09  -0.03
  34   1    -0.09  -0.03  -0.09     0.21   0.09   0.11     0.04   0.04  -0.04
  35   7     0.05   0.00   0.03    -0.10  -0.10  -0.02    -0.01  -0.08   0.04
  36   1    -0.04  -0.01  -0.00     0.10  -0.02   0.06     0.02  -0.03   0.05
[...]
  44   1     0.00   0.00  -0.00    -0.00  -0.00   0.00     0.01   0.00  -0.01
  45   1    -0.00  -0.00   0.00     0.01   0.00   0.00    -0.03  -0.00  -0.01
  46   6    -0.00   0.00   0.00    -0.00   0.01  -0.01    -0.01  -0.00   0.00
  47   8     0.00  -0.00  -0.00    -0.00  -0.00   0.00     0.01   0.00  -0.00
  48   7    -0.00  -0.00   0.00    -0.09  -0.03   0.05    -0.16  -0.03   0.08
  49   1     0.00  -0.00   0.00     0.03  -0.10   0.09     0.05  -0.19   0.17
  50   1     0.01   0.00  -0.00     0.33   0.19  -0.29     0.55   0.32  -0.48
  51   7    -0.00  -0.00   0.00     0.10   0.09  -0.12    -0.05  -0.06   0.07
  52   1     0.01   0.00  -0.00    -0.61  -0.25   0.46     0.35   0.14  -0.27
  53   1     0.00  -0.00   0.00     0.23  -0.11   0.00    -0.15   0.07  -0.00
                    142                    143                    144
                        a                      a                      a 
 Frequencies --  3494.2794              3496.2469              3497.5544
 Red. masses --     1.4541                 1.4400                 1.4502
 Frc consts  --     0.0000                 0.0000                 0.0000
 IR Inten    --    14.7909                39.6058                18.1422
 Raman Activ --     0.0000                 0.0000                 0.0000
 Depolar     --     0.0000                 0.0000                 0.0000
 Atom AN      X      Y      Z        X      Y      Z        X      Y      Z
   1   8    -0.00   0.00  -0.00    -0.00   0.00  -0.00     0.00  -0.00   0.00
   2   6    -0.00  -0.00   0.00     0.00   0.00   0.00    -0.00  -0.00   0.00
   3   1    -0.00   0.00  -0.00    -0.00   0.00  -0.00    -0.00  -0.00   0.00
   4   1     0.00   0.00   0.00    -0.00  -0.00  -0.00     0.00   0.00  -0.00
   5   6    -0.00   0.00  -0.00    -0.00   0.00  -0.00     0.00   0.00   0.00
   6   1     0.00   0.00   0.00     0.00   0.00   0.00    -0.00  -0.00  -0.00
   7   1     0.00  -0.00   0.00     0.00  -0.00   0.00    -0.00   0.00   0.00
   8   7    -0.00  -0.00   0.00    -0.00   0.00  -0.00    -0.00   0.00  -0.00
   9   6    -0.00   0.00  -0.00    -0.00  -0.00  -0.00     0.00   0.00   0.00
  10   1    -0.00   0.00   0.00     0.00  -0.00  -0.00     0.00   0.00   0.00
  11   1    -0.00  -0.00   0.00     0.00   0.00   0.00     0.00   0.00   0.00
  12   1     0.00   0.00   0.00     0.00   0.00   0.00    -0.00  -0.00  -0.00
  13   6    -0.00   0.00   0.00    -0.00   0.00   0.00     0.00   0.00   0.00
  14   1     0.00   0.00   0.00    -0.00  -0.00   0.00    -0.00  -0.00  -0.00
  15   1     0.00  -0.00  -0.00     0.00  -0.00  -0.00    -0.00   0.00  -0.00
  16   1    -0.00   0.00   0.00     0.00  -0.00  -0.00     0.00   0.00   0.00
  17   6    -0.00   0.00   0.00    -0.00   0.00   0.00     0.00  -0.00  -0.00
  18   1    -0.00   0.00   0.00     0.00  -0.00   0.00    -0.00  -0.00   0.00
  19   1    -0.00   0.00   0.00     0.00  -0.00  -0.00     0.00   0.00   0.00
  20   1     0.00  -0.00  -0.00     0.00  -0.00  -0.00    -0.00   0.00   0.00
  21   1     0.00  -0.00   0.00     0.00  -0.00   0.00    -0.00   0.00  -0.00
  22   6     0.00  -0.00   0.00     0.00   0.00   0.00    -0.00  -0.00  -0.00
  23   8    -0.00   0.00  -0.00    -0.00   0.00  -0.00     0.00  -0.00   0.00
  24   7    -0.00  -0.00   0.00     0.00  -0.00   0.00     0.01  -0.00   0.01
  25   1     0.00   0.00   0.00     0.00  -0.00   0.00    -0.02  -0.00  -0.00
  26   1    -0.00   0.00  -0.00    -0.00   0.00  -0.00    -0.01   0.01  -0.03
  27   7     0.00   0.00   0.00     0.00   0.00   0.00    -0.17  -0.06  -0.05
  28   1    -0.00  -0.00  -0.00    -0.00  -0.00  -0.01     0.21   0.04   0.69
  29   1    -0.00  -0.00   0.00    -0.00  -0.00   0.00     0.41   0.18  -0.49
  30   6     0.00  -0.00   0.00     0.00  -0.00   0.00    -0.00   0.00  -0.00
  31   8    -0.00   0.00   0.00    -0.00   0.00  -0.00     0.00  -0.00   0.00
  32   7     0.08  -0.14   0.10     0.00  -0.00   0.00     0.00  -0.00   0.00
  33   1     0.13  -0.02  -0.65     0.00  -0.00  -0.00     0.00  -0.00  -0.00
  34   1    -0.41   0.53   0.28    -0.00   0.00   0.00    -0.00   0.00   0.00
  35   7    -0.00   0.01   0.00     0.00  -0.00  -0.00     0.00  -0.00   0.00
  36   1     0.01  -0.04  -0.02    -0.00   0.00   0.00    -0.00   0.00   0.00
  37   1     0.00  -0.01   0.01     0.00  -0.00   0.00    -0.00   0.00  -0.00
  38   6    -0.00  -0.00   0.00    -0.00  -0.00  -0.00    -0.00  -0.00  -0.00
  39   8     0.00   0.00  -0.00    -0.00   0.00  -0.00     0.00   0.00  -0.00
  40   7     0.00   0.00   0.00    -0.14  -0.03  -0.02    -0.00  -0.00  -0.00
  41   1    -0.00   0.00  -0.00     0.16  -0.11   0.48     0.00  -0.00   0.00
  42   1    -0.00  -0.00   0.00     0.36   0.23  -0.39     0.00   0.00  -0.00
  43   7    -0.00   0.00  -0.00    -0.02   0.01  -0.11    -0.00   0.00  -0.00
  44   1    -0.00  -0.00   0.00    -0.30  -0.08   0.32    -0.00  -0.00   0.00
  45   1     0.00   0.00   0.00     0.39   0.03   0.09     0.00   0.00   0.00
  46   6     0.00  -0.00   0.00     0.00  -0.00   0.00    -0.00  -0.00   0.00
  47   8    -0.00   0.00  -0.00    -0.00   0.00  -0.00     0.00   0.00  -0.00
  48   7     0.00  -0.00   0.00     0.00  -0.00  -0.00     0.00  -0.00  -0.00
  49   1    -0.00   0.00  -0.00    -0.00   0.00  -0.00    -0.00   0.00  -0.00
  50   1     0.00   0.00  -0.00    -0.00  -0.00   0.00    -0.00  -0.00   0.00
  51   7    -0.00   0.00  -0.00    -0.00   0.00  -0.00    -0.00   0.00   0.00
  52   1    -0.00  -0.00   0.00     0.00   0.00   0.00     0.00   0.00  -0.00
  53   1     0.00  -0.00   0.00     0.00  -0.00   0.00     0.00  -0.00   0.00
                    145                    146                    147
                        a                      a                      a 
 Frequencies --  3500.2412              3517.5269              3534.3425
 Red. masses --     1.4638                 1.8965                 2.0491
 Frc consts  --     0.0000                 0.0000                 0.0000
 IR Inten    --     4.8075                 9.5779                83.3443
 Raman Activ --     0.0000                 0.0000                 0.0000
 Depolar     --     0.0000                 0.0000                 0.0000
 Atom AN      X      Y      Z        X      Y      Z        X      Y      Z
   1   8     0.00  -0.00   0.00    -0.00   0.00   0.00     0.00  -0.00   0.00
   2   6    -0.00   0.00  -0.00    -0.00  -0.00  -0.00    -0.00  -0.00  -0.00
   3   1     0.00  -0.00  -0.00     0.00  -0.00   0.00     0.00  -0.00  -0.00
   4   1     0.00   0.00  -0.00     0.00   0.00   0.00     0.00   0.00   0.00
   5   6    -0.00   0.00   0.00     0.00  -0.00  -0.00     0.00  -0.00   0.00
   6   1     0.00   0.00   0.00    -0.00  -0.00  -0.00     0.00   0.00  -0.00
   7   1     0.00  -0.00   0.00    -0.00   0.00  -0.00    -0.00   0.00   0.00
   8   7     0.00  -0.00  -0.00     0.00  -0.00   0.00    -0.00  -0.00   0.00
   9   6    -0.00  -0.00  -0.00     0.00   0.00   0.00     0.00   0.00  -0.00
  10   1    -0.00   0.00  -0.00     0.00  -0.00  -0.00    -0.00  -0.00   0.00
  11   1     0.00   0.00  -0.00    -0.00  -0.00   0.00    -0.00  -0.00  -0.00
  12   1     0.00   0.00   0.00    -0.00  -0.00  -0.00     0.00   0.00  -0.00
  13   6    -0.00  -0.00  -0.00     0.00   0.00  -0.00     0.00  -0.00  -0.00
  14   1     0.00   0.00   0.00    -0.00  -0.00  -0.00     0.00   0.00  -0.00
  15   1    -0.00   0.00   0.00    -0.00  -0.00   0.00    -0.00   0.00   0.00
  16   1    -0.00  -0.00  -0.00    -0.00  -0.00   0.00    -0.00   0.00   0.00
  17   6    -0.00  -0.00   0.00    -0.00  -0.00  -0.00     0.00  -0.00  -0.00
  18   1     0.00   0.00  -0.00     0.00   0.00  -0.00    -0.00   0.00  -0.00
  19   1     0.00  -0.00  -0.00     0.00  -0.00   0.00    -0.00   0.00   0.00
  20   1     0.00  -0.00   0.00    -0.00   0.00   0.00    -0.00   0.00   0.00
  21   1    -0.00   0.00   0.00     0.00  -0.00  -0.00    -0.01   0.01   0.00
  22   6     0.00   0.00   0.00     0.00   0.00  -0.00     0.00   0.00   0.00
  23   8    -0.00  -0.00  -0.00     0.00  -0.00   0.00    -0.00  -0.00  -0.00
  24   7    -0.00  -0.00   0.00    -0.00  -0.00   0.00     0.01  -0.00   0.02
  25   1     0.00   0.00   0.00     0.00   0.00   0.00    -0.01  -0.00   0.00
  26   1    -0.00   0.00  -0.00    -0.00   0.00  -0.00    -0.03   0.01  -0.07
  27   7     0.00   0.00   0.00     0.00   0.00   0.00     0.00   0.00  -0.00
  28   1    -0.00  -0.00  -0.00    -0.00  -0.00  -0.00     0.00   0.00   0.00
  29   1    -0.00  -0.00   0.00    -0.00  -0.00   0.00    -0.00  -0.00   0.00
  30   6    -0.00   0.00  -0.00     0.00  -0.01   0.00    -0.00   0.00   0.00
  31   8    -0.00   0.00   0.00    -0.00   0.00   0.00     0.00  -0.00  -0.00
  32   7    -0.00   0.00  -0.00    -0.01   0.00   0.02     0.00  -0.00  -0.00
  33   1    -0.00   0.00   0.00     0.01  -0.00  -0.08    -0.00   0.00   0.00
  34   1     0.00  -0.00  -0.00     0.00  -0.00  -0.00    -0.00   0.00   0.00
  35   7    -0.00   0.00  -0.00     0.07  -0.23  -0.10    -0.00   0.00   0.00
  36   1     0.00  -0.00  -0.00    -0.25   0.82   0.42     0.00  -0.01  -0.00
  37   1     0.00  -0.00   0.00    -0.02   0.05  -0.06     0.00  -0.00   0.00
  38   6     0.00   0.00  -0.00    -0.00  -0.00   0.00     0.00   0.00  -0.00
  39   8    -0.00  -0.00   0.00     0.00   0.00  -0.00    -0.00  -0.00   0.00
  40   7     0.11   0.02   0.03     0.00   0.00  -0.00    -0.00  -0.00   0.00
  41   1    -0.13   0.09  -0.38    -0.00   0.00  -0.00     0.00  -0.00   0.00
  42   1    -0.28  -0.17   0.29    -0.00  -0.00   0.00     0.01   0.00  -0.01
  43   7    -0.04   0.02  -0.14    -0.00   0.00  -0.00    -0.00  -0.00   0.00
  44   1    -0.38  -0.10   0.40    -0.00  -0.00   0.00     0.01   0.00  -0.01
  45   1     0.52   0.03   0.12     0.00  -0.00   0.00    -0.00   0.00  -0.00
  46   6     0.00  -0.00  -0.00    -0.00  -0.00   0.00     0.01  -0.00  -0.00
  47   8     0.00   0.00  -0.00     0.00   0.00  -0.00    -0.00   0.00  -0.00
  48   7    -0.01   0.00   0.00     0.00  -0.00   0.00     0.00  -0.02   0.02
  49   1     0.00  -0.01   0.01    -0.00   0.01  -0.01    -0.03   0.09  -0.08
  50   1     0.02   0.01  -0.01     0.00   0.00  -0.00     0.01   0.00  -0.01
  51   7     0.00  -0.00   0.00     0.00   0.00  -0.00     0.26  -0.09  -0.03
  52   1     0.02   0.01  -0.01    -0.01  -0.00   0.00    -0.19  -0.10   0.16
  53   1    -0.02   0.01  -0.00    -0.01   0.00  -0.00    -0.81   0.42  -0.04
                    148                    149                    150
                        a                      a                      a 
 Frequencies --  3537.4046              3555.9051              3558.5662
 Red. masses --     1.9402                 2.0444                 2.1738
 Frc consts  --     0.0000                 0.0000                 0.0000
 IR Inten    --    12.3591                56.4177                 8.6227
 Raman Activ --     0.0000                 0.0000                 0.0000
 Depolar     --     0.0000                 0.0000                 0.0000
 Atom AN      X      Y      Z        X      Y      Z        X      Y      Z
   1   8     0.00  -0.00   0.00    -0.00   0.00   0.00     0.00  -0.00  -0.00
   2   6     0.00  -0.00  -0.00     0.00   0.00   0.00    -0.00   0.00   0.00
   3   1    -0.00   0.00  -0.00    -0.00   0.00   0.00    -0.00   0.00  -0.00
   4   1     0.00   0.00   0.00    -0.00  -0.00  -0.00    -0.00  -0.00  -0.00
   5   6    -0.00  -0.00  -0.00     0.00  -0.00   0.00    -0.00   0.00  -0.00
   6   1     0.00  -0.00   0.00    -0.00  -0.00  -0.00     0.00   0.00   0.00
   7   1    -0.00   0.00  -0.00    -0.00   0.00  -0.00     0.00  -0.00   0.00
   8   7    -0.00  -0.00   0.00     0.00   0.00  -0.00     0.00  -0.00  -0.00
   9   6     0.00  -0.00   0.00     0.00   0.00   0.00    -0.00  -0.00  -0.00
  10   1    -0.00   0.00   0.00    -0.00   0.00  -0.00     0.00   0.00  -0.00
  11   1     0.00   0.00  -0.00    -0.00  -0.00   0.00    -0.00   0.00  -0.00
  12   1    -0.00   0.00   0.00    -0.00  -0.00  -0.00     0.00   0.00   0.00
  13   6     0.00   0.00   0.00     0.00  -0.00  -0.00    -0.00   0.00   0.00
  14   1    -0.00  -0.00   0.00     0.00  -0.00   0.00     0.00   0.00   0.00
  15   1     0.00  -0.00  -0.00    -0.00   0.00   0.00     0.00  -0.00  -0.00
  16   1    -0.00  -0.00   0.00    -0.00  -0.00   0.00    -0.00   0.00  -0.00
  17   6     0.00  -0.00  -0.00     0.00  -0.00  -0.00    -0.00   0.00   0.00
  18   1     0.00  -0.00  -0.00    -0.00  -0.00   0.00    -0.00   0.00   0.00
  19   1    -0.00   0.00   0.00    -0.00   0.00   0.00    -0.00   0.00  -0.00
  20   1    -0.00   0.00  -0.00    -0.00   0.00   0.00     0.00  -0.00  -0.00
  21   1    -0.00   0.00   0.00     0.00  -0.00  -0.00    -0.00   0.00   0.00
  22   6    -0.01   0.00  -0.00    -0.00  -0.00  -0.00     0.00   0.00   0.00
  23   8     0.00  -0.00   0.00     0.00  -0.00   0.00    -0.00   0.00  -0.00
  24   7    -0.12   0.03  -0.23     0.00  -0.00   0.00    -0.00  -0.00  -0.00
  25   1     0.14   0.03   0.00    -0.00  -0.00  -0.00     0.00   0.00   0.00
  26   1     0.34  -0.14   0.87    -0.00   0.00  -0.00     0.00  -0.00   0.00
  27   7    -0.01  -0.01   0.03     0.00   0.00  -0.00     0.00   0.00  -0.00
  28   1    -0.01  -0.00  -0.04     0.00   0.00   0.00     0.00   0.00   0.00
  29   1     0.06   0.03  -0.07    -0.00  -0.00   0.00    -0.00  -0.00   0.00
  30   6    -0.00   0.00  -0.00    -0.00   0.00   0.00    -0.00   0.00   0.01
  31   8     0.00  -0.00   0.00     0.00  -0.00  -0.00     0.00  -0.00  -0.00
  32   7     0.00  -0.00   0.00     0.00  -0.00  -0.01    -0.13   0.12   0.24
  33   1     0.00  -0.00  -0.00    -0.00  -0.00   0.02     0.11   0.01  -0.69
  34   1    -0.00   0.00   0.00    -0.01   0.01   0.01     0.37  -0.47  -0.22
  35   7     0.00  -0.00   0.00     0.00   0.00   0.00    -0.00   0.01   0.00
  36   1    -0.00   0.00   0.00     0.00  -0.01  -0.00     0.02  -0.05  -0.03
  37   1    -0.00   0.00  -0.00    -0.00   0.01  -0.01     0.00  -0.00   0.00
  38   6     0.00   0.00  -0.00    -0.00  -0.00   0.00     0.00  -0.00   0.00
  39   8    -0.00   0.00   0.00     0.00   0.00  -0.00     0.00   0.00  -0.00
  40   7    -0.00  -0.00   0.00     0.00   0.01  -0.01    -0.00  -0.00   0.00
  41   1     0.00  -0.00   0.00     0.01  -0.01   0.03    -0.00   0.00  -0.00
  42   1     0.00   0.00  -0.00    -0.03  -0.02   0.03     0.00   0.00  -0.00
  43   7    -0.00  -0.00   0.00     0.00   0.00  -0.00     0.00   0.00  -0.00
  44   1     0.00   0.00  -0.00    -0.01  -0.00   0.01    -0.00  -0.00   0.00
  45   1    -0.00  -0.00  -0.00    -0.01  -0.00  -0.00    -0.00  -0.00  -0.00
  46   6     0.00  -0.00  -0.00    -0.00  -0.01   0.01     0.00  -0.00   0.00
  47   8     0.00  -0.00  -0.00     0.00   0.00  -0.00    -0.00  -0.00   0.00
  48   7     0.00  -0.00   0.00     0.01  -0.20   0.19     0.00  -0.01   0.01
  49   1    -0.00   0.01  -0.01    -0.23   0.67  -0.58    -0.01   0.02  -0.02
  50   1     0.00   0.00  -0.00     0.19   0.09  -0.15     0.01   0.00  -0.00
  51   7     0.02  -0.01  -0.00    -0.03   0.01   0.00    -0.00   0.00   0.00
  52   1    -0.02  -0.01   0.01     0.04   0.02  -0.03     0.00   0.00  -0.00
  53   1    -0.07   0.03  -0.00     0.09  -0.05   0.00     0.00  -0.00   0.00
                    151                    152                    153
                        a                      a                      a 
 Frequencies --  3559.5228              3563.0819              3565.0394
 Red. masses --     2.1887                 2.1776                 2.1754
 Frc consts  --     0.0000                 0.0000                 0.0000
 IR Inten    --    14.6531                11.8568                18.3944
 Raman Activ --     0.0000                 0.0000                 0.0000
 Depolar     --     0.0000                 0.0000                 0.0000
 Atom AN      X      Y      Z        X      Y      Z        X      Y      Z
   1   8    -0.00   0.00   0.00    -0.00   0.00  -0.00    -0.00   0.00  -0.00
   2   6    -0.00  -0.00  -0.00    -0.00   0.00   0.00     0.00  -0.00   0.00
   3   1    -0.00   0.00   0.00     0.00  -0.00   0.00    -0.00   0.00   0.00
   4   1     0.00   0.00   0.00    -0.00  -0.00  -0.00    -0.00  -0.00  -0.00
   5   6     0.00  -0.00  -0.00     0.00   0.00   0.00    -0.00  -0.00  -0.00
   6   1    -0.00   0.00  -0.00    -0.00  -0.00  -0.00     0.00  -0.00   0.00
   7   1    -0.00   0.00  -0.00     0.00   0.00   0.00     0.00   0.00  -0.00
   8   7    -0.00  -0.00   0.00    -0.00   0.00  -0.00     0.00   0.00  -0.00
   9   6     0.00   0.00   0.00     0.00   0.00   0.00     0.00   0.00  -0.00
  10   1    -0.00  -0.00   0.00     0.00   0.00  -0.00    -0.00  -0.00   0.00
  11   1    -0.00  -0.00  -0.00     0.00  -0.00   0.00    -0.00  -0.00   0.00
  12   1    -0.00  -0.00  -0.00    -0.00  -0.00  -0.00    -0.00  -0.00   0.00
  13   6     0.00  -0.00  -0.00     0.00  -0.00   0.00     0.00  -0.00  -0.00
  14   1     0.00  -0.00  -0.00    -0.00   0.00  -0.00    -0.00  -0.00  -0.00
  15   1    -0.00   0.00   0.00     0.00   0.00   0.00    -0.00   0.00  -0.00
  16   1    -0.00  -0.00   0.00     0.00   0.00   0.00    -0.00  -0.00   0.00
  17   6     0.00  -0.00  -0.00     0.00  -0.00  -0.00     0.00  -0.00  -0.00
  18   1    -0.00  -0.00  -0.00     0.00   0.00   0.00    -0.00  -0.00   0.00
  19   1    -0.00   0.00   0.00     0.00   0.00   0.00    -0.00   0.00   0.00
  20   1    -0.00   0.00   0.00    -0.00   0.00   0.00    -0.00   0.00  -0.00
  21   1     0.00  -0.00  -0.00     0.00  -0.00  -0.00     0.00  -0.00  -0.00
  22   6     0.00   0.00  -0.00    -0.00  -0.00   0.01    -0.00   0.00  -0.00
  23   8     0.00  -0.00   0.00     0.00   0.00  -0.00    -0.00   0.00  -0.00
  24   7    -0.00  -0.00   0.00     0.01  -0.00   0.02    -0.00   0.00  -0.00
  25   1     0.00   0.00  -0.00    -0.02  -0.00  -0.00     0.00   0.00   0.00
  26   1     0.00  -0.00  -0.00    -0.03   0.02  -0.09     0.00  -0.00   0.00
  27   7     0.00   0.00  -0.00    -0.06  -0.04   0.29     0.00   0.00  -0.00
  28   1     0.00   0.00   0.00    -0.21  -0.05  -0.61     0.00   0.00   0.00
  29   1    -0.00  -0.00   0.00     0.45   0.20  -0.50    -0.00  -0.00   0.00
  30   6     0.00  -0.00  -0.00    -0.00   0.00   0.00    -0.00  -0.00   0.00
  31   8     0.00  -0.00   0.00     0.00  -0.00  -0.00     0.00  -0.00  -0.00
  32   7     0.00  -0.00  -0.00    -0.00   0.00   0.00     0.00  -0.00  -0.00
  33   1    -0.00  -0.00   0.01     0.00   0.00  -0.00    -0.00  -0.00   0.00
  34   1    -0.00   0.00   0.00     0.00  -0.00  -0.00    -0.00   0.00   0.00
  35   7     0.00  -0.00   0.00    -0.00   0.00  -0.00     0.00  -0.00   0.00
  36   1    -0.00   0.00   0.00     0.00  -0.00  -0.00     0.00  -0.00  -0.00
  37   1    -0.00   0.00  -0.00     0.00  -0.00   0.00    -0.00   0.00  -0.00
  38   6     0.01  -0.00   0.01    -0.00  -0.00   0.00    -0.01  -0.00   0.01
  39   8    -0.00   0.00  -0.00     0.00   0.00  -0.00     0.00   0.00  -0.00
  40   7    -0.04  -0.08   0.21    -0.00  -0.00   0.00    -0.03  -0.07   0.18
  41   1    -0.19   0.11  -0.50    -0.00   0.00  -0.00    -0.15   0.09  -0.41
  42   1     0.32   0.19  -0.31     0.00   0.00  -0.00     0.28   0.17  -0.27
  43   7     0.19   0.03  -0.05    -0.00  -0.00   0.00    -0.22  -0.03   0.06
  44   1    -0.26  -0.07   0.30     0.00   0.00  -0.00     0.32   0.09  -0.37
  45   1    -0.45  -0.03  -0.12     0.00   0.00   0.00     0.51   0.03   0.14
  46   6    -0.00  -0.00   0.00     0.00  -0.00   0.00    -0.00  -0.00   0.00
  47   8     0.00   0.00   0.00    -0.00   0.00  -0.00    -0.00   0.00   0.00
  48   7     0.00  -0.01   0.01    -0.00  -0.00   0.00    -0.00  -0.01   0.01
  49   1    -0.01   0.02  -0.02    -0.00   0.00  -0.00    -0.01   0.03  -0.02
  50   1     0.01   0.00  -0.01     0.00   0.00  -0.00     0.02   0.01  -0.01
  51   7    -0.00   0.00   0.00    -0.00   0.00   0.00    -0.01   0.00   0.00
  52   1    -0.00  -0.00  -0.00     0.00   0.00  -0.00     0.01   0.01  -0.01
  53   1     0.00  -0.00  -0.00     0.00  -0.00   0.00     0.01  -0.01   0.00
