      -----------------------------------------------------------      
     |                   =====================                   |     
     |                           x T B                           |     
     |                   =====================                   |     
     |                         S. Grimme                         |     
     |          Mulliken Center for Theoretical Chemistry        |     
     |                    University of Bonn                     |     
      -----------------------------------------------------------      

   * xtb version 6.6.1 (unknown-commit) compiled by '@Linux' on 12/27/2023

   xtb is free software: you can redistribute it and/or modify it under
   the terms of the GNU Lesser General Public License as published by
   the Free Software Foundation, either version 3 of the License, or
   (at your option) any later version.
   
   xtb is distributed in the hope that it will be useful,
   but WITHOUT ANY WARRANTY; without even the implied warranty of
   MERCHANTABILITY or FITNESS FOR A PARTICULAR PURPOSE.  See the
   GNU Lesser General Public License for more details.
   
   Cite this work as:
   * C. Bannwarth, E. Caldeweyher, S. Ehlert, A. Hansen, P. Pracht,
     J. Seibert, S. Spicher, S. Grimme, WIREs Comput. Mol. Sci., 2020, 11,
     e01493. DOI: 10.1002/wcms.1493
   
   for GFN2-xTB:
   * C. Bannwarth, S. Ehlert and S. Grimme., J. Chem. Theory Comput., 2019,
     15, 1652-1671. DOI: 10.1021/acs.jctc.8b01176
   for GFN1-xTB:
   * S. Grimme, C. Bannwarth, P. Shushkov, J. Chem. Theory Comput., 2017,
     13, 1989-2009. DOI: 10.1021/acs.jctc.7b00118
   for GFN0-xTB:
   * P. Pracht, E. Caldeweyher, S. Ehlert, S. Grimme, ChemRxiv, 2019, preprint.
     DOI: 10.26434/chemrxiv.8326202.v1
   for GFN-FF:
   * S. Spicher and S. Grimme, Angew. Chem. Int. Ed., 2020, 59, 15665-15673.
     DOI: 10.1002/anie.202004239
   
   for ALPB and GBSA implicit solvation:
   * S. Ehlert, M. Stahn, S. Spicher, S. Grimme, J. Chem. Theory Comput.,
     2021, 17, 4250-4261. DOI: 10.1021/acs.jctc.1c00471
   
   for DFT-D4:
   * E. Caldeweyher, C. Bannwarth and S. Grimme, J. Chem. Phys., 2017,
     147, 034112. DOI: 10.1063/1.4993215
   * E. Caldeweyher, S. Ehlert, A. Hansen, H. Neugebauer, S. Spicher,
     C. Bannwarth and S. Grimme, J. Chem. Phys., 2019, 150, 154122.
     DOI: 10.1063/1.5090222
   * E. Caldeweyher, J.-M. Mewes, S. Ehlert and S. Grimme, Phys. Chem. Chem. Phys.
     2020, 22, 8499-8512. DOI: 10.1039/D0CP00502A
   
   for sTDA-xTB:
   * S. Grimme and C. Bannwarth, J. Chem. Phys., 2016, 145, 054103.
     DOI: 10.1063/1.4959605
   
   in the mass-spec context:
   * V. Asgeirsson, C. Bauer and S. Grimme, Chem. Sci., 2017, 8, 4879.
     DOI: 10.1039/c7sc00601b
   * J. Koopman and S. Grimme, ACS Omega 2019, 4, 12, 15120-15133.
     DOI: 10.1021/acsomega.9b02011
   
   for metadynamics refer to:
   * S. Grimme, J. Chem. Theory Comput., 2019, 155, 2847-2862
     DOI: 10.1021/acs.jctc.9b00143
   
   for SPH calculations refer to:
   * S. Spicher and S. Grimme, J. Chem. Theory Comput., 2021, 17, 1701-1714
     DOI: 10.1021/acs.jctc.0c01306
   
   with help from (in alphabetical order)
   P. Atkinson, C. Bannwarth, F. Bohle, G. Brandenburg, E. Caldeweyher
   M. Checinski, S. Dohm, S. Ehlert, S. Ehrlich, I. Gerasimov, C. Hölzer
   A. Katbashev, J. Koopman, C. Lavigne, S. Lehtola, F. März, M. Müller,
   F. Musil, H. Neugebauer, J. Pisarek, C. Plett, P. Pracht, F. Pultar,
   J. Seibert, P. Shushkov, S. Spicher, M. Stahn, M. Steiner, T. Strunk,
   J. Stückrath, T. Rose, and J. Unsleber
   
 * started run on 2024/01/10 at 18:24:29.459     

           -------------------------------------------------
          |                Calculation Setup                |
           -------------------------------------------------

          program call               : xtb struc.xyz --gfn2 --hess
          hostname                   : swaroop
          coordinate file            : struc.xyz
          omp threads                :                     1

   ID    Z sym.   atoms
    1    8 O      1, 23, 31, 39, 47
    2    6 C      2, 5, 9, 13, 17, 22, 30, 38, 46
    3    1 H      3, 4, 6, 7, 10-12, 14-16, 18-21, 25, 26, 28, 29, 33, 34,
                  36, 37, 41, 42, 44, 45, 49, 50, 52, 53
    4    7 N      8, 24, 27, 32, 35, 40, 43, 48, 51

molecular fragmentation (1/2 indicates fragments):
11111111111111111111122222222222222222222222222222222
# atoms in fragment 1/2:    21    32
 fragment masses (1/2) :      104.17      240.22
CMA distance (Bohr)    :   5.512
constraining FC (au)   :  0.0500

           -------------------------------------------------
          |                 G F N 2 - x T B                 |
           -------------------------------------------------

        Reference                      10.1021/acs.jctc.8b01176
      * Hamiltonian:
        H0-scaling (s, p, d)           1.850000    2.230000    2.230000
        zeta-weighting                 0.500000
      * Dispersion:
        s8                             2.700000
        a1                             0.520000
        a2                             5.000000
        s9                             5.000000
      * Repulsion:
        kExp                           1.500000    1.000000
        rExp                           1.000000
      * Coulomb:
        alpha                          2.000000
        third order                    shell-resolved
        anisotropic                    true
        a3                             3.000000
        a5                             4.000000
        cn-shift                       1.200000
        cn-exp                         4.000000
        max-rad                        5.000000


          ...................................................
          :                      SETUP                      :
          :.................................................:
          :  # basis functions                 122          :
          :  # atomic orbitals                 122          :
          :  # shells                           76          :
          :  # electrons                       140          :
          :  max. iterations                   250          :
          :  Hamiltonian                  GFN2-xTB          :
          :  restarted?                      false          :
          :  GBSA solvation                  false          :
          :  PC potential                    false          :
          :  electronic temp.          300.0000000     K    :
          :  accuracy                    1.0000000          :
          :  -> integral cutoff          0.2500000E+02      :
          :  -> integral neglect         0.1000000E-07      :
          :  -> SCF convergence          0.1000000E-05 Eh   :
          :  -> wf. convergence          0.1000000E-03 e    :
          :  Broyden damping             0.4000000          :
          ...................................................

 iter      E             dE          RMSdq      gap      omega  full diag
   1    -81.5541763 -0.815542E+02  0.431E+00    5.20       0.0  T
   2    -81.8398323 -0.285656E+00  0.234E+00    5.90       1.0  T
   3    -81.8455540 -0.572172E-02  0.114E+00    5.57       1.0  T
   4    -81.8469492 -0.139517E-02  0.237E-01    5.58       1.0  T
   5    -81.8478071 -0.857874E-03  0.911E-02    5.50       1.0  T
   6    -81.8478311 -0.239929E-04  0.264E-02    5.52       1.0  T
   7    -81.8478356 -0.457465E-05  0.742E-03    5.52       1.9  T
   8    -81.8478359 -0.255711E-06  0.268E-03    5.52       5.1  T
   9    -81.8478359 -0.146604E-07  0.882E-04    5.52      15.6  T
  10    -81.8478359 -0.459129E-08  0.176E-04    5.52      78.0  T

   *** convergence criteria satisfied after 10 iterations ***

         #    Occupation            Energy/Eh            Energy/eV
      -------------------------------------------------------------
         1        2.0000           -0.7980718             -21.7166
       ...           ...                  ...                  ...
        64        2.0000           -0.4938173             -13.4375
        65        2.0000           -0.4935642             -13.4306
        66        2.0000           -0.4906090             -13.3502
        67        2.0000           -0.4867683             -13.2456
        68        2.0000           -0.4846545             -13.1881
        69        2.0000           -0.4838575             -13.1664
        70        2.0000           -0.4802391             -13.0680 (HOMO)
        71                         -0.2774752              -7.5505 (LUMO)
        72                         -0.2648774              -7.2077
        73                         -0.2602989              -7.0831
        74                         -0.2536992              -6.9035
        75                         -0.1506135              -4.0984
       ...                                ...                  ...
       122                          0.5652833              15.3821
      -------------------------------------------------------------
                  HL-Gap            0.2027639 Eh            5.5175 eV
             Fermi-level           -0.3788571 Eh          -10.3092 eV

 SCC (total)                   0 d,  0 h,  0 min,  0.063 sec
 SCC setup                      ...        0 min,  0.000 sec (  0.461%)
 Dispersion                     ...        0 min,  0.001 sec (  0.931%)
 classical contributions        ...        0 min,  0.000 sec (  0.288%)
 integral evaluation            ...        0 min,  0.008 sec ( 12.466%)
 iterations                     ...        0 min,  0.026 sec ( 40.835%)
 molecular gradient             ...        0 min,  0.028 sec ( 44.565%)
 printout                       ...        0 min,  0.000 sec (  0.433%)

         :::::::::::::::::::::::::::::::::::::::::::::::::::::
         ::                     SUMMARY                     ::
         :::::::::::::::::::::::::::::::::::::::::::::::::::::
         :: total energy             -80.936080610872 Eh    ::
         :: gradient norm              0.000041885817 Eh/a0 ::
         :: HOMO-LUMO gap              5.517486383859 eV    ::
         ::.................................................::
         :: SCC energy               -81.847835909154 Eh    ::
         :: -> isotropic ES            0.291670698360 Eh    ::
         :: -> anisotropic ES         -0.028443627728 Eh    ::
         :: -> anisotropic XC          0.020229981705 Eh    ::
         :: -> dispersion             -0.043831517333 Eh    ::
         :: repulsion energy           0.910638334016 Eh    ::
         :: add. restraining           0.000000000000 Eh    ::
         :: total charge               1.000000000000 e     ::
         :::::::::::::::::::::::::::::::::::::::::::::::::::::

           ------------------------------------------------- 
          |                Numerical Hessian                |
           ------------------------------------------------- 
step length          :   0.00500
SCC accuracy         :   0.30000
Hessian scale factor :   1.00000
frozen atoms in %    :   0.00000    0
RMS gradient         :   0.00004
estimated CPU  time      0.24 min
estimated wall time      0.24 min

writing file <hessian>.

 projected vibrational frequencies (cm⁻¹)
eigval :       -0.00     0.00     0.00     0.00     0.00     0.00
eigval :       13.78    19.83    28.94    33.79    36.59    38.17
eigval :       43.68    50.29    51.57    60.55    65.26    67.22
eigval :       75.09    78.06    89.36    93.94    99.02   106.61
eigval :      129.18   135.05   150.88   163.78   170.71   182.58
eigval :      199.24   242.82   256.51   263.46   269.06   299.65
eigval :      302.08   304.90   333.71   354.47   365.46   372.85
eigval :      372.93   394.87   418.80   433.98   445.48   461.86
eigval :      464.05   465.69   466.10   471.64   473.85   475.16
eigval :      484.72   498.97   540.91   541.29   550.24   555.97
eigval :      556.75   563.92   627.24   660.77   670.69   673.42
eigval :      676.19   696.54   730.15   765.17   773.81   802.16
eigval :      907.77   925.18   958.33   963.30   965.24   990.71
eigval :      999.22  1003.47  1008.89  1011.54  1015.41  1029.26
eigval :     1031.41  1034.22  1038.84  1083.57  1085.52  1088.07
eigval :     1094.52  1095.08  1105.76  1132.20  1169.81  1226.84
eigval :     1250.60  1280.42  1315.18  1337.41  1353.64  1354.97
eigval :     1360.14  1361.29  1382.72  1387.11  1402.18  1404.20
eigval :     1429.97  1435.02  1438.05  1445.00  1448.31  1448.95
eigval :     1451.99  1455.50  1462.05  1466.99  1470.68  1478.38
eigval :     1486.09  1501.90  1509.48  1510.74  1516.49  1661.76
eigval :     1688.24  1693.08  1715.92  2889.75  2952.82  2973.74
eigval :     2992.86  3014.01  3035.94  3040.62  3044.30  3049.23
eigval :     3056.34  3060.21  3064.95  3088.01  3092.74  3179.91
eigval :     3239.19  3328.55  3374.26  3459.86  3496.61  3497.23
eigval :     3499.71  3523.58  3528.24  3538.08  3539.62  3546.26
eigval :     3561.62  3561.63  3565.02
           -------------------------------------------------
          |                Property Printout                |
           -------------------------------------------------

    * Orbital Energies and Occupations

         #    Occupation            Energy/Eh            Energy/eV
      -------------------------------------------------------------
         1        2.0000           -0.7980701             -21.7166
       ...           ...                  ...                  ...
        58        2.0000           -0.5152014             -14.0193
        59        2.0000           -0.5095478             -13.8655
        60        2.0000           -0.5073973             -13.8070
        61        2.0000           -0.5025148             -13.6741
        62        2.0000           -0.5015171             -13.6470
        63        2.0000           -0.4959653             -13.4959
        64        2.0000           -0.4938179             -13.4375
        65        2.0000           -0.4935649             -13.4306
        66        2.0000           -0.4906107             -13.3502
        67        2.0000           -0.4867687             -13.2456
        68        2.0000           -0.4846557             -13.1882
        69        2.0000           -0.4838586             -13.1665
        70        2.0000           -0.4802406             -13.0680 (HOMO)
        71                         -0.2774731              -7.5504 (LUMO)
        72                         -0.2648772              -7.2077
        73                         -0.2602996              -7.0831
        74                         -0.2537035              -6.9036
        75                         -0.1506133              -4.0984
        76                         -0.1060919              -2.8869
        77                         -0.0950375              -2.5861
        78                         -0.0823592              -2.2411
        79                         -0.0724313              -1.9710
        80                         -0.0710430              -1.9332
        81                         -0.0659028              -1.7933
       ...                                ...                  ...
       122                          0.5652809              15.3821
      -------------------------------------------------------------
                  HL-Gap            0.2027675 Eh            5.5176 eV
             Fermi-level           -0.3788568 Eh          -10.3092 eV

     #   Z          covCN         q      C6AA      α(0)
     1   8 O        1.653    -0.478    22.434     6.394
     2   6 C        3.673     0.076    19.543     6.336
     3   1 H        0.924     0.052     2.289     2.366
     4   1 H        0.923     0.042     2.429     2.437
     5   6 C        3.762    -0.062    21.741     6.647
     6   1 H        0.924     0.124     1.585     1.969
     7   1 H        0.924     0.071     2.077     2.254
     8   7 N        3.623     0.157    18.593     6.404
     9   6 C        3.729    -0.112    22.746     6.808
    10   1 H        0.925     0.096     1.824     2.112
    11   1 H        0.925     0.119     1.624     1.993
    12   1 H        0.925     0.104     1.745     2.066
    13   6 C        3.738    -0.125    22.984     6.841
    14   1 H        0.925     0.120     1.613     1.986
    15   1 H        0.925     0.072     2.063     2.246
    16   1 H        0.924     0.132     1.522     1.929
    17   6 C        3.726    -0.104    22.591     6.786
    18   1 H        0.925     0.090     1.883     2.146
    19   1 H        0.925     0.124     1.578     1.964
    20   1 H        0.925     0.080     1.975     2.198
    21   1 H        0.802     0.335     0.625     1.242
    22   6 C        2.675     0.344    21.160     7.527
    23   8 O        0.861    -0.515    24.119     6.585
    24   7 N        2.645    -0.283    27.296     7.759
    25   1 H        0.860     0.206     1.074     1.624
    26   1 H        0.861     0.190     1.156     1.684
    27   7 N        2.645    -0.289    27.452     7.782
    28   1 H        0.861     0.189     1.164     1.690
    29   1 H        0.860     0.221     1.007     1.572
    30   6 C        2.675     0.339    21.245     7.542
    31   8 O        0.861    -0.542    24.731     6.668
    32   7 N        2.643    -0.304    27.825     7.834
    33   1 H        0.860     0.233     0.954     1.530
    34   1 H        0.860     0.174     1.247     1.749
    35   7 N        2.643    -0.313    28.068     7.868
    36   1 H        0.861     0.175     1.245     1.748
    37   1 H        0.860     0.240     0.925     1.506
    38   6 C        2.675     0.344    21.164     7.528
    39   8 O        0.860    -0.530    24.466     6.632
    40   7 N        2.645    -0.295    27.608     7.804
    41   1 H        0.860     0.196     1.126     1.662
    42   1 H        0.861     0.180     1.214     1.726
    43   7 N        2.644    -0.305    27.865     7.840
    44   1 H        0.860     0.175     1.241     1.745
    45   1 H        0.860     0.235     0.945     1.523
    46   6 C        2.675     0.341    21.213     7.537
    47   8 O        0.861    -0.524    24.310     6.611
    48   7 N        2.644    -0.306    27.872     7.841
    49   1 H        0.860     0.243     0.912     1.496
    50   1 H        0.861     0.179     1.221     1.731
    51   7 N        2.645    -0.291    27.512     7.790
    52   1 H        0.861     0.184     1.192     1.710
    53   1 H        0.860     0.199     1.110     1.650

 Mol. C6AA /au·bohr⁶  :      21804.839662
 Mol. C8AA /au·bohr⁸  :     454450.992403
 Mol. α(0) /au        :        220.616128


Wiberg/Mayer (AO) data.
largest (>0.10) Wiberg bond orders for each atom

 ---------------------------------------------------------------------------
     #   Z sym  total        # sym  WBO       # sym  WBO       # sym  WBO
 ---------------------------------------------------------------------------
     1   8 O    1.948 --     2 C    1.022    21 H    0.809
     2   6 C    3.967 --     1 O    1.022     5 C    0.992     3 H    0.966
                             4 H    0.963
     3   1 H    0.997 --     2 C    0.966
     4   1 H    0.998 --     2 C    0.963
     5   6 C    3.937 --     2 C    0.992     7 H    0.970     6 H    0.949
                             8 N    0.939
     6   1 H    0.985 --     5 C    0.949
     7   1 H    0.995 --     5 C    0.970
     8   7 N    3.822 --    17 C    0.963     9 C    0.953    13 C    0.950
                             5 C    0.939
     9   6 C    3.916 --    10 H    0.971    12 H    0.970    11 H    0.961
                             8 N    0.953
    10   1 H    0.991 --     9 C    0.971
    11   1 H    0.986 --     9 C    0.961
    12   1 H    0.989 --     9 C    0.970
    13   6 C    3.909 --    15 H    0.980    14 H    0.957     8 N    0.950
                            16 H    0.950
    14   1 H    0.986 --    13 C    0.957
    15   1 H    0.995 --    13 C    0.980
    16   1 H    0.982 --    13 C    0.950
    17   6 C    3.932 --    20 H    0.979    18 H    0.974    19 H    0.965
                             8 N    0.963
    18   1 H    0.992 --    17 C    0.974
    19   1 H    0.984 --    17 C    0.965
    20   1 H    0.994 --    17 C    0.979
    21   1 H    0.888 --     1 O    0.809
    22   6 C    3.960 --    23 O    1.497    27 N    1.232    24 N    1.223
    23   8 O    1.937 --    22 C    1.497    27 N    0.139    24 N    0.136
    24   7 N    3.335 --    22 C    1.223    26 H    0.945    25 H    0.940
                            23 O    0.136
    25   1 H    0.957 --    24 N    0.940
    26   1 H    0.963 --    24 N    0.945
    27   7 N    3.338 --    22 C    1.232    28 H    0.945    29 H    0.925
                            23 O    0.139
    28   1 H    0.964 --    27 N    0.945
    29   1 H    0.951 --    27 N    0.925
    30   6 C    3.960 --    31 O    1.470    35 N    1.245    32 N    1.229
    31   8 O    1.890 --    30 C    1.470    35 N    0.141    32 N    0.130
    32   7 N    3.323 --    30 C    1.229    34 H    0.950    33 H    0.898
                            31 O    0.130
    33   1 H    0.946 --    32 N    0.898
    34   1 H    0.969 --    32 N    0.950
    35   7 N    3.336 --    30 C    1.245    36 H    0.949    37 H    0.875
                            31 O    0.141
    36   1 H    0.969 --    35 N    0.949
    37   1 H    0.942 --    35 N    0.875
    38   6 C    3.959 --    39 O    1.523    43 N    1.234    40 N    1.194
    39   8 O    1.890 --    38 C    1.523    43 N    0.147    40 N    0.136
    40   7 N    3.308 --    38 C    1.194    42 H    0.948    41 H    0.944
                            39 O    0.136
    41   1 H    0.961 --    40 N    0.944
    42   1 H    0.967 --    40 N    0.948
    43   7 N    3.329 --    38 C    1.234    44 H    0.950    45 H    0.892
                            39 O    0.147
    44   1 H    0.969 --    43 N    0.950
    45   1 H    0.945 --    43 N    0.892
    46   6 C    3.960 --    47 O    1.486    48 N    1.258    51 N    1.205
    47   8 O    1.919 --    46 C    1.486    48 N    0.144    51 N    0.130
    48   7 N    3.347 --    46 C    1.258    50 H    0.948    49 H    0.869
                            47 O    0.144
    49   1 H    0.941 --    48 N    0.869
    50   1 H    0.968 --    48 N    0.948
    51   7 N    3.319 --    46 C    1.205    52 H    0.947    53 H    0.943
                            47 O    0.130
    52   1 H    0.966 --    51 N    0.947
    53   1 H    0.960 --    51 N    0.943
 ---------------------------------------------------------------------------

Topologies differ in total number of bonds
Writing topology from bond orders to xtbtopo.mol

molecular dipole:
                 x           y           z       tot (Debye)
 q only:        0.396      -0.615       0.374
   full:        0.477      -0.117       0.514       1.806
molecular quadrupole (traceless):
                xx          xy          yy          xz          yz          zz
 q only:       44.603     -14.452     -21.421      27.891      -1.676     -23.183
  q+dip:       52.224     -18.521     -26.275      34.998      -2.711     -25.948
   full:       52.237     -18.088     -26.135      34.028      -2.989     -26.102

           -------------------------------------------------
          |               Frequency Printout                |
           -------------------------------------------------
 projected vibrational frequencies (cm⁻¹)
eigval :       -0.00     0.00     0.00     0.00     0.00     0.00
eigval :       13.78    19.83    28.94    33.79    36.59    38.17
eigval :       43.68    50.29    51.57    60.55    65.26    67.22
eigval :       75.09    78.06    89.36    93.94    99.02   106.61
eigval :      129.18   135.05   150.88   163.78   170.71   182.58
eigval :      199.24   242.82   256.51   263.46   269.06   299.65
eigval :      302.08   304.90   333.71   354.47   365.46   372.85
eigval :      372.93   394.87   418.80   433.98   445.48   461.86
eigval :      464.05   465.69   466.10   471.64   473.85   475.16
eigval :      484.72   498.97   540.91   541.29   550.24   555.97
eigval :      556.75   563.92   627.24   660.77   670.69   673.42
eigval :      676.19   696.54   730.15   765.17   773.81   802.16
eigval :      907.77   925.18   958.33   963.30   965.24   990.71
eigval :      999.22  1003.47  1008.89  1011.54  1015.41  1029.26
eigval :     1031.41  1034.22  1038.84  1083.57  1085.52  1088.07
eigval :     1094.52  1095.08  1105.76  1132.20  1169.81  1226.84
eigval :     1250.60  1280.42  1315.18  1337.41  1353.64  1354.97
eigval :     1360.14  1361.29  1382.72  1387.11  1402.18  1404.20
eigval :     1429.97  1435.02  1438.05  1445.00  1448.31  1448.95
eigval :     1451.99  1455.50  1462.05  1466.99  1470.68  1478.38
eigval :     1486.09  1501.90  1509.48  1510.74  1516.49  1661.76
eigval :     1688.24  1693.08  1715.92  2889.75  2952.82  2973.74
eigval :     2992.86  3014.01  3035.94  3040.62  3044.30  3049.23
eigval :     3056.34  3060.21  3064.95  3088.01  3092.74  3179.91
eigval :     3239.19  3328.55  3374.26  3459.86  3496.61  3497.23
eigval :     3499.71  3523.58  3528.24  3538.08  3539.62  3546.26
eigval :     3561.62  3561.63  3565.02
 reduced masses (amu)
   1: 12.66   2: 12.66   3: 12.23   4: 12.73   5: 12.46   6: 12.57   7: 12.37   8: 12.10
   9: 12.51  10: 12.21  11: 12.08  12: 12.32  13: 12.54  14: 12.49  15: 12.71  16: 12.45
  17: 12.75  18: 12.61  19: 12.32  20:  9.38  21: 12.56  22: 12.87  23: 13.24  24: 12.10
  25: 13.30  26: 13.26  27: 12.49  28: 12.45  29: 13.65  30:  9.99  31: 12.57  32: 11.58
  33:  5.78  34:  2.36  35:  3.64  36:  4.19  37:  4.39  38:  5.90  39:  4.28  40:  3.96
  41:  2.91  42:  4.49  43:  6.11  44:  2.65  45:  3.03  46:  8.65  47:  3.30  48:  7.86
  49:  6.65  50:  7.28  51:  4.90  52:  3.14  53:  4.83  54:  4.62  55:  8.46  56:  8.73
  57:  6.13  58: 10.93  59: 10.00  60: 10.22  61: 10.21  62:  7.73  63:  3.67  64:  8.11
  65: 11.82  66: 11.45  67: 12.02  68:  5.00  69:  2.02  70:  9.30  71:  1.89  72:  1.93
  73:  7.23  74:  8.01  75:  5.09  76:  4.87  77:  4.86  78:  4.29  79:  7.56  80:  9.13
  81:  8.58  82:  7.79  83:  9.10  84:  7.24  85:  9.24  86:  6.45  87:  3.76  88:  9.47
  89:  8.96  90:  8.97  91:  7.00  92:  7.63  93:  4.19  94:  8.30  95:  2.93  96:  5.75
  97:  6.59  98:  8.09  99:  6.29 100:  3.12 101:  4.42 102:  4.92 103:  4.72 104:  5.82
 105:  4.14 106:  3.97 107:  2.52 108:  2.57 109:  2.36 110:  1.63 111:  2.06 112:  3.25
 113:  2.30 114:  2.71 115:  2.80 116:  2.23 117:  2.53 118:  1.82 119:  2.14 120:  1.75
 121:  1.70 122:  7.74 123:  9.24 124:  9.29 125:  9.19 126: 12.29 127: 12.68 128: 12.67
 129: 12.77 130:  1.76 131:  1.75 132:  1.69 133:  1.74 134:  1.74 135:  1.75 136:  1.56
 137:  1.78 138:  1.71 139:  1.75 140:  1.83 141:  1.76 142:  1.78 143:  1.87 144:  1.81
 145:  1.77 146:  1.74 147:  1.68 148:  1.54 149:  1.45 150:  1.45 151:  1.45 152:  1.97
 153:  1.93 154:  1.91 155:  1.91 156:  2.11 157:  2.18 158:  2.18 159:  2.18
 IR intensities (km·mol⁻¹)
   1:  0.60   2:  2.42   3:  1.06   4:  2.68   5:  1.92   6:  0.04   7:  0.46   8:  2.84
   9:  1.91  10:  1.47  11:  2.77  12:  0.43  13:  3.50  14:  1.56  15:  2.94  16:  1.35
  17:  3.20  18:  7.97  19:  4.92  20:  1.71  21:  3.39  22:  6.80  23:  5.90  24: 10.44
  25:  7.44  26:  9.99  27: 34.46  28:  1.29  29: 24.37  30: 19.93  31: 74.36  32:  5.80
  33:  8.80  34: 84.43  35: 18.72  36: 29.78  37: 86.90  38: 35.23  39:  4.45  40: 15.25
  41:  1.20  42:320.56  43:149.12  44:225.99  45:299.11  46:  2.56  47:239.02  48: 26.02
  49: 17.34  50:  8.30  51: 15.32  52:  9.85  53: 10.24  54:  3.00  55: 17.27  56: 46.69
  57: 33.11  58: 24.93  59: 34.03  60: 44.18  61:  2.35  62: 69.43  63:119.72  64: 20.08
  65: 20.68  66: 51.90  67: 48.45  68:146.27  69: 70.30  70: 12.20  71:317.15  72:371.76
  73:  3.13  74:  4.51  75:  6.26  76:  3.24  77:  3.78  78:  1.32  79: 23.63  80: 17.97
  81: 12.99  82: 17.90  83:  0.71  84: 13.14  85: 18.41  86:  6.34  87:  0.65  88:  0.26
  89:  1.64  90:  2.12  91: 14.43  92:  0.34  93: 13.52  94: 48.73  95: 22.11  96:  0.86
  97:  3.73  98: 12.62  99:  0.46 100:  2.88 101: 12.94 102:241.51 103: 44.37 104:126.41
 105: 41.43 106: 45.55 107: 37.80 108: 20.80 109:  7.08 110:  0.97 111:  2.16 112:  7.55
 113:  5.06 114:  3.09 115: 18.39 116:  6.54 117: 13.09 118:  8.15 119: 22.99 120:  4.22
 121: 13.34 122:550.88 123:662.69 124:421.01 125:550.73 126:368.18 127:****** 128:516.13
 129:939.83 130: 32.94 131: 38.99 132: 35.11 133: 18.63 134: 65.35 135:  0.45 136: 22.39
 137: 23.49 138: 22.83 139:  9.44 140: 12.32 141: 13.01 142:233.87 143:564.11 144:191.84
 145:****** 146:599.26 147:381.93 148: 93.53 149: 15.97 150: 23.22 151: 18.19 152: 14.11
 153: 13.72 154: 19.48 155: 13.92 156: 24.88 157: 11.02 158: 20.95 159: 14.91
 Raman intensities (amu)
Molecule has no symmetry elements
It seems to be the C1 point group
   1:  0.00   2:  0.00   3:  0.00   4:  0.00   5:  0.00   6:  0.00   7:  0.00   8:  0.00
   9:  0.00  10:  0.00  11:  0.00  12:  0.00  13:  0.00  14:  0.00  15:  0.00  16:  0.00
  17:  0.00  18:  0.00  19:  0.00  20:  0.00  21:  0.00  22:  0.00  23:  0.00  24:  0.00
  25:  0.00  26:  0.00  27:  0.00  28:  0.00  29:  0.00  30:  0.00  31:  0.00  32:  0.00
  33:  0.00  34:  0.00  35:  0.00  36:  0.00  37:  0.00  38:  0.00  39:  0.00  40:  0.00
  41:  0.00  42:  0.00  43:  0.00  44:  0.00  45:  0.00  46:  0.00  47:  0.00  48:  0.00
  49:  0.00  50:  0.00  51:  0.00  52:  0.00  53:  0.00  54:  0.00  55:  0.00  56:  0.00
  57:  0.00  58:  0.00  59:  0.00  60:  0.00  61:  0.00  62:  0.00  63:  0.00  64:  0.00
  65:  0.00  66:  0.00  67:  0.00  68:  0.00  69:  0.00  70:  0.00  71:  0.00  72:  0.00
  73:  0.00  74:  0.00  75:  0.00  76:  0.00  77:  0.00  78:  0.00  79:  0.00  80:  0.00
  81:  0.00  82:  0.00  83:  0.00  84:  0.00  85:  0.00  86:  0.00  87:  0.00  88:  0.00
  89:  0.00  90:  0.00  91:  0.00  92:  0.00  93:  0.00  94:  0.00  95:  0.00  96:  0.00
  97:  0.00  98:  0.00  99:  0.00 100:  0.00 101:  0.00 102:  0.00 103:  0.00 104:  0.00
 105:  0.00 106:  0.00 107:  0.00 108:  0.00 109:  0.00 110:  0.00 111:  0.00 112:  0.00
 113:  0.00 114:  0.00 115:  0.00 116:  0.00 117:  0.00 118:  0.00 119:  0.00 120:  0.00
 121:  0.00 122:  0.00 123:  0.00 124:  0.00 125:  0.00 126:  0.00 127:  0.00 128:  0.00
 129:  0.00 130:  0.00 131:  0.00 132:  0.00 133:  0.00 134:  0.00 135:  0.00 136:  0.00
 137:  0.00 138:  0.00 139:  0.00 140:  0.00 141:  0.00 142:  0.00 143:  0.00 144:  0.00
 145:  0.00 146:  0.00 147:  0.00 148:  0.00 149:  0.00 150:  0.00 151:  0.00 152:  0.00
 153:  0.00 154:  0.00 155:  0.00 156:  0.00 157:  0.00 158:  0.00 159:  0.00
 output can be read by thermo (or use thermo option).
 writing <g98.out> molden fake output.
 recommended (thermochemical) frequency scaling factor: 1.0
           -------------------------------------------------
          |             Thermodynamic Functions             |
           -------------------------------------------------

c1  symmetry found (for desy threshold:  0.10E+00) used in thermo

          ...................................................
          :                      SETUP                      :
          :.................................................:
          :  # frequencies                         153      :
          :  # imaginary freq.                       0      :
          :  linear?                             false      :
          :  only rotor calc.                    false      :
          :  symmetry                               c1      :
          :  rotational number                       1      :
          :  scaling factor                  1.0000000      :
          :  rotor cutoff                   50.0000000 cm⁻¹ :
          :  imag. cutoff                  -20.0000000 cm⁻¹ :
          :.................................................:

    mode    ω/cm⁻¹     T·S(HO)/kcal·mol⁻¹    T·S(FR)/kcal·mol⁻¹   T·S(vib)
   ------------------------------------------------------------------------
       1     13.78    -2.19852 (  0.57%)    -1.43822 ( 99.43%)    -1.44258
       2     19.83    -1.98296 (  2.42%)    -1.33041 ( 97.58%)    -1.34618
       3     28.94    -1.75942 ( 10.08%)    -1.21854 ( 89.92%)    -1.27308
       4     33.79    -1.66774 ( 17.25%)    -1.17262 ( 82.75%)    -1.25804
       5     36.59    -1.62057 ( 22.30%)    -1.14898 ( 77.70%)    -1.25412
       6     38.17    -1.59563 ( 25.36%)    -1.13648 ( 74.64%)    -1.25290
       7     43.68    -1.51607 ( 36.80%)    -1.09657 ( 63.20%)    -1.25095
       8     50.29    -1.43290 ( 50.58%)    -1.05481 ( 49.42%)    -1.24604
       9     51.57    -1.41805 ( 53.09%)    -1.04735 ( 46.91%)    -1.24416
      10     60.55    -1.32356 ( 68.26%)    -0.99982 ( 31.74%)    -1.22080
      11     65.26    -1.27947 ( 74.38%)    -0.97761 ( 25.62%)    -1.20212
      12     67.22    -1.26214 ( 76.56%)    -0.96887 ( 23.44%)    -1.19340
      13     75.09    -1.19712 ( 83.57%)    -0.93604 ( 16.43%)    -1.15424
      14     78.06    -1.17445 ( 85.59%)    -0.92458 ( 14.41%)    -1.13845
      15     89.36    -1.09542 ( 91.07%)    -0.88453 (  8.93%)    -1.07660
      16     93.94    -1.06628 ( 92.57%)    -0.86972 (  7.43%)    -1.05167
      17     99.02    -1.03562 ( 93.90%)    -0.85411 (  6.10%)    -1.02454
      18    106.61    -0.99276 ( 95.39%)    -0.83224 (  4.61%)    -0.98535
      19    129.18    -0.88201 ( 97.80%)    -0.77536 (  2.20%)    -0.87967
      20    135.05    -0.85655 ( 98.16%)    -0.76219 (  1.84%)    -0.85481
      21    150.88    -0.79341 ( 98.81%)    -0.72936 (  1.19%)    -0.79265
      22    163.78    -0.74707 ( 99.14%)    -0.70505 (  0.86%)    -0.74671
      23    170.71    -0.72382 ( 99.27%)    -0.69278 (  0.73%)    -0.72359
      24    182.58    -0.68629 ( 99.44%)    -0.67286 (  0.56%)    -0.68622
      25    199.24    -0.63807 ( 99.60%)    -0.64699 (  0.40%)    -0.63811
      26    242.82    -0.53134 ( 99.82%)    -0.58839 (  0.18%)    -0.53144
      27    256.51    -0.50249 ( 99.86%)    -0.57214 (  0.14%)    -0.50259
      28    263.46    -0.48858 ( 99.87%)    -0.56422 (  0.13%)    -0.48868
      29    269.06    -0.47771 ( 99.88%)    -0.55800 (  0.12%)    -0.47781
      30    299.65    -0.42303 ( 99.92%)    -0.52610 (  0.08%)    -0.42311
   ------------------------------------------------------------------------

   temp. (K)  partition function   enthalpy   heat capacity  entropy
                                   cal/mol     cal/K/mol   cal/K/mol   J/K/mol
 298.15  VIB  0.221E+17            19212.695    104.085    125.785
         ROT  0.141E+08              888.752      2.981     35.690
         INT  0.311E+24            20101.447    107.065    161.475
         TR   0.618E+28             1481.254      4.968     43.384
         TOT                       21582.7012   112.0336   204.8593   857.1313

       T/K    H(0)-H(T)+PV         H(T)/Eh          T*S/Eh         G(T)/Eh
   ------------------------------------------------------------------------
    298.15    0.343942E-01    0.473910E+00    0.973353E-01    0.376574E+00
   ------------------------------------------------------------------------

         :::::::::::::::::::::::::::::::::::::::::::::::::::::
         ::                  THERMODYNAMIC                  ::
         :::::::::::::::::::::::::::::::::::::::::::::::::::::
         :: total free energy         -80.559506249326 Eh   ::
         ::.................................................::
         :: total energy              -80.936080611325 Eh   ::
         :: zero point energy           0.439515404372 Eh   ::
         :: G(RRHO) w/o ZPVE           -0.062941042373 Eh   ::
         :: G(RRHO) contrib.            0.376574361999 Eh   ::
         :::::::::::::::::::::::::::::::::::::::::::::::::::::

           -------------------------------------------------
          | TOTAL ENERGY              -80.936080611325 Eh   |
          | TOTAL ENTHALPY            -80.462170983332 Eh   |
          | TOTAL FREE ENERGY         -80.559506249326 Eh   |
          | GRADIENT NORM               0.000041768755 Eh/α |
          | HOMO-LUMO GAP               5.517583643773 eV   |
           -------------------------------------------------

------------------------------------------------------------------------
 * finished run on 2024/01/10 at 18:24:43.922     
------------------------------------------------------------------------
 total:
 * wall-time:     0 d,  0 h,  0 min, 14.463 sec
 *  cpu-time:     0 d,  0 h,  0 min, 14.406 sec
 * ratio c/w:     0.996 speedup
 SCF:
 * wall-time:     0 d,  0 h,  0 min,  0.063 sec
 *  cpu-time:     0 d,  0 h,  0 min,  0.058 sec
 * ratio c/w:     0.920 speedup
 analytical hessian:
 * wall-time:     0 d,  0 h,  0 min, 14.373 sec
 *  cpu-time:     0 d,  0 h,  0 min, 14.321 sec
 * ratio c/w:     0.996 speedup

