 Entering Gaussian System
 *********************************************
 Gaussian 98:
 frequency output generated by the xtb code
 *********************************************
                         Standard orientation:
 --------------------------------------------------------------------
  Center     Atomic     Atomic              Coordinates (Angstroms)
  Number     Number      Type              X           Y           Z
 --------------------------------------------------------------------
    1          8             0       -0.430783    1.674695    3.410732
    2          6             0       -0.694856    0.334615    3.097316
    3          1             0        0.178515   -0.291376    3.330514
    4          1             0       -1.508378    0.017444    3.753686
    5          6             0       -1.014368    0.085378    1.621715
    6          1             0       -1.092013   -0.992849    1.454491
    7          1             0       -0.197798    0.481403    1.012525
    8          7             0       -2.277929    0.680653    1.101436
    9          6             0       -3.440428    0.078536    1.772665
   10          1             0       -3.388452   -1.003999    1.659414
   11          1             0       -4.359525    0.442465    1.317494
   12          1             0       -3.448687    0.337105    2.828383
   13          6             0       -2.356331    0.359382   -0.335327
   14          1             0       -3.229803    0.833615   -0.776826
   15          1             0       -2.433554   -0.722706   -0.442184
   16          1             0       -1.454620    0.698798   -0.840824
   17          6             0       -2.284416    2.141088    1.271247
   18          1             0       -3.190633    2.561891    0.839332
   19          1             0       -1.416051    2.567563    0.771328
   20          1             0       -2.234570    2.396897    2.327793
   21          1             0        0.234148    2.009238    2.765983
   22          6             0        0.459899   -2.072676   -3.930607
   23          8             0        1.246553   -2.655402   -3.185354
   24          7             0        0.180570   -2.546958   -5.166273
   25          1             0        0.613740   -3.405014   -5.456841
   26          1             0       -0.490658   -2.115447   -5.773918
   27          7             0       -0.186296   -0.950697   -3.550154
   28          1             0       -0.728864   -0.419771   -4.206266
   29          1             0        0.085018   -0.510799   -2.671578
   30          6             0        1.823644    3.785452    2.132005
   31          8             0        1.297395    2.786356    1.634335
   32          7             0        1.503148    4.213104    3.367404
   33          1             0        0.859889    3.670624    3.920161
   34          1             0        1.960998    4.996410    3.796345
   35          7             0        2.753233    4.499181    1.463068
   36          1             0        3.137541    5.350504    1.830180
   37          1             0        2.958779    4.256273    0.510059
   38          6             0        1.932177    0.099465   -0.955770
   39          8             0        0.695777    0.144197   -1.054755
   40          7             0        2.653636   -0.849731   -1.566304
   41          1             0        2.189080   -1.559686   -2.137638
   42          1             0        3.654068   -0.874321   -1.494635
   43          7             0        2.603567    1.027491   -0.238831
   44          1             0        3.582382    0.906882   -0.049751
   45          1             0        2.081228    1.665424    0.353389
   46          6             0       -1.236384   -3.214764   -0.185365
   47          8             0       -2.036386   -2.559379    0.481613
   48          7             0       -1.459972   -4.517596   -0.487824
   49          1             0       -2.217300   -4.987206   -0.023621
   50          1             0       -0.739103   -5.079169   -0.903926
   51          7             0       -0.083484   -2.688388   -0.649761
   52          1             0        0.444493   -3.152466   -1.375102
   53          1             0        0.028621   -1.682590   -0.631434
 --------------------------------------------------------------------
     1 basis functions        1 primitive gaussians
     1 alpha electrons        1 beta electrons

 Harmonic frequencies (cm**-1), IR intensities (km*mol⁻¹),
 Raman scattering activities (A**4/amu), Raman depolarization ratios,
 reduced masses (AMU), force constants (mDyne/A) and normal coordinates:
                      1                      2                      3
                        a                      a                      a 
 Frequencies --    13.9689                20.4683                25.1358
 Red. masses --    12.1194                12.2909                12.1281
 Frc consts  --     0.0000                 0.0000                 0.0000
 IR Inten    --     1.4158                 0.5502                 1.2340
 Raman Activ --     0.0000                 0.0000                 0.0000
 Depolar     --     0.0000                 0.0000                 0.0000
 Atom AN      X      Y      Z        X      Y      Z        X      Y      Z
   1   8     0.19  -0.18   0.14     0.09  -0.17   0.07    -0.09   0.04  -0.02
   2   6     0.10  -0.13   0.07     0.01  -0.12  -0.01    -0.08   0.03   0.02
   3   1     0.02  -0.05   0.01    -0.01  -0.05  -0.01    -0.03   0.01   0.03
   4   1     0.03  -0.03   0.02    -0.00  -0.03  -0.01    -0.04   0.02  -0.01
   5   6     0.07  -0.06   0.07     0.02  -0.03  -0.03    -0.01  -0.02   0.01
   6   1     0.00  -0.01   0.01    -0.01  -0.01  -0.02     0.00  -0.01   0.01
   7   1     0.02  -0.02   0.02     0.02  -0.01   0.00     0.01  -0.01   0.01
   8   7     0.10   0.03   0.11     0.07   0.07  -0.02     0.02  -0.04  -0.08
   9   6     0.07   0.05   0.09     0.02   0.08  -0.08    -0.01  -0.03  -0.13
  10   1     0.00   0.02   0.01    -0.01   0.02  -0.05    -0.00  -0.01  -0.03
  11   1     0.02   0.03   0.03     0.01   0.05  -0.02     0.00  -0.01  -0.05
  12   1     0.03  -0.00   0.03     0.00   0.00  -0.02    -0.02  -0.00  -0.04
  13   6     0.07   0.10   0.09     0.08   0.15  -0.04     0.10  -0.06  -0.07
  14   1     0.03   0.05   0.03     0.03   0.06  -0.01     0.03  -0.02  -0.04
  15   1     0.00   0.03   0.01     0.01   0.05  -0.03     0.03  -0.02  -0.02
  16   1     0.02   0.02   0.03     0.03   0.04  -0.00     0.03  -0.01  -0.01
  17   6     0.16   0.02   0.18     0.13   0.05   0.06     0.00  -0.03  -0.10
  18   1     0.06   0.02   0.05     0.05   0.04   0.01     0.01  -0.01  -0.04
  19   1     0.06  -0.00   0.06     0.05   0.01   0.04     0.01  -0.01  -0.02
  20   1     0.04  -0.01   0.05     0.03  -0.00   0.02    -0.01  -0.00  -0.03
  21   1     0.04  -0.04   0.03     0.02  -0.04   0.02     0.00  -0.01   0.01
  22   6     0.08   0.04  -0.03    -0.07  -0.16   0.14    -0.17   0.12   0.06
  23   8     0.01  -0.03  -0.00     0.09  -0.04   0.09    -0.10   0.11  -0.06
  24   7     0.16   0.10  -0.07    -0.26  -0.34   0.26    -0.36   0.16   0.10
  25   1     0.03   0.02  -0.02    -0.04  -0.08   0.06    -0.11   0.05   0.00
  26   1     0.05   0.04  -0.03    -0.08  -0.10   0.07    -0.11   0.05   0.05
  27   7     0.12   0.06  -0.04    -0.09  -0.17   0.13    -0.12   0.12   0.19
  28   1     0.05   0.03  -0.02    -0.07  -0.08   0.05    -0.05   0.04   0.07
  29   1     0.02   0.00  -0.00    -0.01  -0.02   0.02     0.00   0.02   0.04
  30   6    -0.16   0.07  -0.15    -0.08  -0.01   0.06    -0.01   0.00  -0.04
  31   8    -0.06  -0.06  -0.04    -0.03  -0.03   0.03     0.15  -0.14   0.08
  32   7    -0.21   0.17  -0.20    -0.07  -0.09   0.09    -0.30   0.27  -0.21
  33   1    -0.03   0.04  -0.03    -0.00  -0.04   0.02    -0.09   0.09  -0.05
  34   1    -0.08   0.07  -0.08    -0.03  -0.02   0.03    -0.10   0.09  -0.07
  35   7    -0.29   0.13  -0.26    -0.16   0.09   0.06     0.09  -0.10  -0.01
  36   1    -0.10   0.06  -0.10    -0.05   0.03   0.02    -0.01  -0.00  -0.03
  37   1    -0.07   0.01  -0.06    -0.04   0.04   0.01     0.08  -0.08   0.02
  38   6     0.04  -0.10   0.08     0.05   0.10  -0.07     0.13  -0.07   0.08
  39   8     0.05  -0.06   0.04     0.05   0.02   0.00     0.14  -0.01   0.13
  40   7     0.02  -0.14   0.11     0.08   0.16  -0.12     0.08  -0.05  -0.02
  41   1     0.00  -0.03   0.02     0.02   0.03  -0.02     0.01   0.00  -0.01
  42   1     0.01  -0.05   0.04     0.02   0.06  -0.05     0.02  -0.03  -0.01
  43   7     0.05  -0.13   0.10     0.04   0.15  -0.11     0.19  -0.15   0.13
  44   1     0.01  -0.04   0.04     0.02   0.06  -0.04     0.05  -0.06   0.03
  45   1     0.01  -0.03   0.02     0.01   0.03  -0.02     0.06  -0.05   0.05
  46   6    -0.13   0.03  -0.07    -0.00   0.07  -0.12     0.09  -0.04  -0.01
  47   8    -0.11   0.05  -0.05    -0.08   0.10  -0.26     0.09  -0.05  -0.02
  48   7    -0.21   0.05  -0.11    -0.03   0.10  -0.22     0.08  -0.02  -0.07
  49   1    -0.06   0.02  -0.03    -0.03   0.03  -0.10     0.01  -0.01  -0.03
  50   1    -0.06   0.01  -0.03     0.00   0.02  -0.03     0.02  -0.01  -0.02
  51   7    -0.12  -0.02  -0.07     0.12   0.02   0.10     0.13  -0.05   0.06
  52   1    -0.04  -0.01  -0.02     0.05   0.00   0.04     0.03  -0.01   0.01
  53   1    -0.02  -0.01  -0.01     0.04   0.01   0.03     0.04  -0.01   0.03
                      4                      5                      6
                        a                      a                      a 
 Frequencies --    34.6698                39.0748                40.3251
 Red. masses --    12.0883                12.1156                11.6901
 Frc consts  --     0.0000                 0.0000                 0.0000
 IR Inten    --     0.7202                 0.2561                 0.2783
 Raman Activ --     0.0000                 0.0000                 0.0000
 Depolar     --     0.0000                 0.0000                 0.0000
 Atom AN      X      Y      Z        X      Y      Z        X      Y      Z
   1   8    -0.19  -0.01   0.22     0.03   0.12  -0.15    -0.09  -0.04   0.05
   2   6    -0.14  -0.00   0.13     0.04   0.08  -0.06    -0.11  -0.03   0.02
   3   1    -0.04  -0.00   0.05     0.02   0.03  -0.02    -0.04  -0.02   0.02
   4   1    -0.05  -0.01   0.02     0.02   0.03  -0.00    -0.05  -0.00  -0.01
   5   6    -0.06   0.05   0.11    -0.03   0.00  -0.03    -0.02  -0.02  -0.00
   6   1    -0.00   0.02   0.02     0.01  -0.00   0.00    -0.02  -0.00   0.00
   7   1    -0.01   0.03   0.05    -0.02   0.01  -0.03     0.01  -0.02   0.02
   8   7    -0.06   0.03   0.08    -0.09  -0.10   0.01     0.05   0.06  -0.10
   9   6    -0.06  -0.06  -0.02    -0.02  -0.22   0.01    -0.03   0.18  -0.12
  10   1    -0.00  -0.02  -0.02     0.02  -0.06  -0.02    -0.03   0.05  -0.02
  11   1    -0.02  -0.02  -0.01    -0.02  -0.07   0.02     0.01   0.06  -0.06
  12   1    -0.04  -0.04  -0.00    -0.00  -0.08   0.01    -0.02   0.07  -0.04
  13   6     0.03   0.10   0.05    -0.08  -0.05  -0.00     0.10  -0.01  -0.08
  14   1     0.01   0.03   0.01    -0.04  -0.03   0.01     0.04   0.00  -0.04
  15   1     0.02   0.03  -0.00     0.00  -0.02  -0.01     0.01  -0.00  -0.01
  16   1     0.01   0.04   0.03    -0.03   0.01  -0.00     0.04  -0.02  -0.01
  17   6    -0.13   0.01   0.16    -0.22  -0.10   0.06     0.15   0.06  -0.16
  18   1    -0.03   0.00   0.04    -0.08  -0.05   0.03     0.06   0.03  -0.07
  19   1    -0.03   0.02   0.07    -0.08  -0.00   0.01     0.07  -0.01  -0.03
  20   1    -0.05  -0.01   0.05    -0.06  -0.04   0.02     0.03   0.03  -0.05
  21   1    -0.05   0.00   0.06    -0.00   0.03  -0.05    -0.02  -0.01   0.01
  22   6     0.06   0.00   0.01    -0.00   0.05   0.13    -0.06   0.11   0.01
  23   8     0.10   0.05   0.02     0.03   0.03   0.09    -0.04   0.10  -0.03
  24   7     0.08  -0.02   0.02     0.03   0.16   0.09    -0.11   0.15   0.01
  25   1     0.03  -0.00   0.01     0.01   0.05   0.01    -0.04   0.04  -0.01
  26   1     0.01  -0.02   0.01    -0.02   0.04   0.05    -0.04   0.04   0.02
  27   7     0.02  -0.03   0.01    -0.07  -0.02   0.25    -0.04   0.11   0.06
  28   1    -0.01  -0.02   0.00    -0.02   0.01   0.08    -0.01   0.04   0.02
  29   1    -0.00  -0.00   0.00    -0.01  -0.01   0.07     0.00   0.02   0.01
  30   6     0.02  -0.17  -0.13     0.09   0.07  -0.10    -0.07  -0.09  -0.05
  31   8    -0.20  -0.19   0.06     0.01   0.15  -0.15    -0.15  -0.08  -0.04
  32   7     0.18   0.06  -0.19     0.32  -0.09   0.01     0.30  -0.33   0.12
  33   1     0.04   0.07  -0.01     0.09  -0.03   0.00     0.11  -0.11   0.05
  34   1     0.09   0.01  -0.09     0.09  -0.03   0.00     0.07  -0.07   0.01
  35   7     0.10  -0.46  -0.32    -0.01   0.16  -0.17    -0.37   0.09  -0.26
  36   1     0.07  -0.12  -0.13     0.02   0.03  -0.03    -0.08   0.01  -0.06
  37   1    -0.01  -0.17  -0.08    -0.04   0.07  -0.06    -0.16   0.06  -0.09
  38   6    -0.00   0.08  -0.02     0.05  -0.02   0.12     0.05  -0.03   0.05
  39   8    -0.00   0.04  -0.01     0.06  -0.07   0.20     0.05  -0.01   0.04
  40   7     0.03   0.12  -0.04     0.05  -0.05   0.16     0.04  -0.03   0.03
  41   1     0.02   0.03  -0.01     0.01  -0.01   0.04     0.01   0.00  -0.00
  42   1     0.01   0.04  -0.01     0.02   0.00   0.02     0.01  -0.02   0.01
  43   7    -0.03   0.12  -0.03     0.07   0.03   0.04     0.05  -0.07   0.10
  44   1    -0.01   0.03   0.01     0.02   0.02   0.00     0.01  -0.02   0.03
  45   1    -0.02   0.00   0.01     0.02   0.02   0.00     0.01  -0.02   0.02
  46   6     0.06   0.07  -0.03    -0.05  -0.03  -0.11     0.07  -0.03   0.09
  47   8     0.04   0.08  -0.06    -0.06  -0.05  -0.12     0.06  -0.01   0.05
  48   7     0.07   0.08  -0.06    -0.17   0.04  -0.35     0.13  -0.07   0.21
  49   1     0.01   0.02  -0.02    -0.07   0.01  -0.13     0.04  -0.02   0.07
  50   1     0.02   0.02  -0.01    -0.05   0.01  -0.09     0.04  -0.02   0.06
  51   7     0.08   0.08   0.03     0.05  -0.09   0.08     0.05  -0.02   0.04
  52   1     0.03   0.02   0.01     0.02  -0.01   0.02     0.01  -0.01   0.01
  53   1     0.02   0.02   0.01     0.03  -0.03   0.05     0.01  -0.00  -0.00
                      7                      8                      9
                        a                      a                      a 
 Frequencies --    46.0764                57.6119                59.1176
 Red. masses --    12.3409                11.5051                12.4747
 Frc consts  --     0.0000                 0.0000                 0.0000
 IR Inten    --     0.2778                 4.9299                 5.3013
 Raman Activ --     0.0000                 0.0000                 0.0000
 Depolar     --     0.0000                 0.0000                 0.0000
 Atom AN      X      Y      Z        X      Y      Z        X      Y      Z
   1   8     0.04  -0.05  -0.02     0.01   0.06   0.04    -0.18   0.22   0.10
   2   6    -0.05  -0.04   0.03    -0.04   0.07   0.01    -0.11   0.16   0.17
   3   1    -0.03  -0.03   0.02    -0.02   0.01   0.01    -0.03   0.06   0.08
   4   1    -0.02   0.01   0.01    -0.02   0.03  -0.01    -0.04   0.05   0.04
   5   6    -0.04  -0.07   0.03     0.00   0.12  -0.01    -0.01   0.04   0.16
   6   1    -0.03  -0.02   0.02     0.03   0.04  -0.02     0.01   0.01   0.07
   7   1     0.00  -0.05   0.01    -0.00   0.06   0.01     0.01   0.00   0.05
   8   7     0.03   0.02  -0.02    -0.04   0.05   0.00     0.02  -0.01   0.05
   9   6    -0.04   0.16  -0.01    -0.01  -0.20  -0.16    -0.01   0.09   0.07
  10   1    -0.04   0.04   0.02     0.04  -0.05  -0.10    -0.00   0.02   0.07
  11   1     0.00   0.06  -0.01    -0.01  -0.07  -0.04     0.00   0.01  -0.01
  12   1    -0.01   0.06  -0.01    -0.03  -0.11  -0.03    -0.02   0.07   0.01
  13   6     0.02  -0.06  -0.00     0.08   0.25  -0.05     0.06  -0.17   0.08
  14   1     0.01  -0.01  -0.01     0.02   0.07  -0.01     0.03  -0.06  -0.00
  15   1    -0.01  -0.02   0.01     0.05   0.07  -0.06     0.01  -0.05   0.06
  16   1     0.01  -0.04  -0.00     0.02   0.11   0.01     0.03  -0.07   0.02
  17   6     0.16   0.03  -0.10    -0.23   0.02   0.23     0.03   0.02  -0.13
  18   1     0.06   0.03  -0.05    -0.08  -0.01   0.09     0.01  -0.01  -0.05
  19   1     0.06  -0.03  -0.03    -0.08   0.06   0.08     0.01  -0.01  -0.05
  20   1     0.04   0.02  -0.03    -0.08  -0.04   0.08     0.01   0.04  -0.05
  21   1     0.01  -0.03  -0.01     0.02   0.01   0.02    -0.02   0.04   0.04
  22   6     0.00   0.03   0.07    -0.04  -0.07  -0.06     0.01  -0.10  -0.07
  23   8    -0.03  -0.01   0.08    -0.02  -0.09  -0.11     0.00  -0.11  -0.07
  24   7     0.37   0.35  -0.13     0.16   0.11  -0.19     0.03  -0.10  -0.08
  25   1     0.07   0.08  -0.03     0.02   0.02  -0.05     0.02  -0.02  -0.03
  26   1     0.01   0.03   0.02    -0.03  -0.02  -0.01     0.02  -0.02  -0.03
  27   7    -0.27  -0.17   0.25    -0.24  -0.23   0.06    -0.00  -0.11  -0.07
  28   1    -0.01  -0.00   0.05    -0.03  -0.04   0.01     0.00  -0.03  -0.02
  29   1    -0.06  -0.05   0.07    -0.05  -0.05   0.01    -0.00  -0.03  -0.02
  30   6    -0.01  -0.06  -0.02     0.02   0.01   0.07     0.03   0.02   0.09
  31   8     0.04  -0.08  -0.05     0.19  -0.10   0.12     0.17  -0.12   0.24
  32   7    -0.14  -0.02  -0.06    -0.02  -0.02   0.08     0.09   0.06   0.10
  33   1    -0.04  -0.01  -0.03     0.02  -0.02   0.03     0.05   0.01   0.05
  34   1    -0.04  -0.01  -0.01    -0.04   0.02   0.01    -0.01   0.06  -0.01
  35   7     0.05  -0.08   0.05    -0.14   0.17   0.03    -0.18   0.15  -0.06
  36   1     0.00  -0.02   0.02    -0.06   0.06   0.01    -0.06   0.05  -0.04
  37   1     0.03  -0.02   0.02    -0.02   0.04   0.01    -0.04   0.02  -0.01
  38   6     0.02   0.07  -0.08     0.03  -0.10  -0.06     0.00  -0.02  -0.06
  39   8    -0.00  -0.09   0.12     0.04  -0.09  -0.06    -0.00  -0.05  -0.02
  40   7     0.03   0.09  -0.11     0.02  -0.09  -0.13     0.02   0.08  -0.22
  41   1     0.00   0.00   0.00     0.00  -0.02  -0.03     0.00   0.01  -0.04
  42   1     0.01   0.06  -0.08     0.00  -0.03  -0.03     0.00   0.01  -0.05
  43   7     0.03   0.25  -0.32     0.06  -0.17  -0.01     0.00  -0.09   0.02
  44   1     0.02   0.09  -0.11     0.02  -0.05  -0.01     0.00  -0.02  -0.01
  45   1     0.01   0.04  -0.06     0.02  -0.05   0.00     0.01  -0.04   0.02
  46   6    -0.05  -0.06   0.07     0.05   0.07   0.03     0.02  -0.00  -0.04
  47   8    -0.05  -0.05   0.07     0.04   0.20  -0.11     0.18  -0.09   0.23
  48   7    -0.12  -0.04   0.01     0.05   0.03   0.24    -0.17   0.10  -0.38
  49   1    -0.04  -0.00  -0.01     0.00   0.03   0.07    -0.03   0.02  -0.09
  50   1    -0.03  -0.02   0.01     0.01  -0.01   0.09    -0.07   0.03  -0.15
  51   7     0.00  -0.12   0.15     0.08  -0.01   0.02     0.01  -0.01  -0.06
  52   1    -0.00  -0.03   0.04     0.02  -0.03   0.02    -0.02   0.02  -0.05
  53   1     0.01  -0.03   0.05     0.02  -0.00  -0.03     0.03  -0.01   0.03
                     10                     11                     12
                        a                      a                      a 
 Frequencies --    61.7472                68.7824                73.4084
 Red. masses --    12.6995                12.6467                12.7170
 Frc consts  --     0.0000                 0.0000                 0.0000
 IR Inten    --     3.4745                 0.4363                 0.2793
 Raman Activ --     0.0000                 0.0000                 0.0000
 Depolar     --     0.0000                 0.0000                 0.0000
 Atom AN      X      Y      Z        X      Y      Z        X      Y      Z
   1   8    -0.02   0.01   0.05    -0.02  -0.20  -0.03    -0.10  -0.02   0.07
   2   6     0.09   0.00  -0.02     0.01  -0.15  -0.12    -0.00  -0.02   0.01
   3   1     0.04   0.02  -0.03     0.01  -0.04  -0.06     0.01   0.01   0.01
   4   1     0.04  -0.03  -0.00     0.02  -0.06  -0.03    -0.00  -0.02  -0.01
   5   6     0.06   0.05  -0.03    -0.07  -0.07  -0.12     0.05  -0.00  -0.01
   6   1     0.01   0.01  -0.02    -0.03  -0.02  -0.04     0.03  -0.00  -0.01
   7   1     0.01   0.02  -0.01    -0.03  -0.02  -0.04     0.02   0.00   0.01
   8   7     0.06   0.08   0.01    -0.09  -0.01  -0.04     0.06  -0.03  -0.05
   9   6     0.07   0.16   0.09    -0.07   0.09   0.09     0.05  -0.06  -0.09
  10   1     0.01   0.04   0.04    -0.04   0.02   0.04     0.02  -0.02  -0.03
  11   1     0.02   0.05   0.03    -0.02   0.03   0.04     0.02  -0.02  -0.03
  12   1     0.04   0.06   0.02     0.01   0.04   0.02     0.00  -0.02  -0.02
  13   6    -0.01   0.02   0.02    -0.22  -0.06  -0.02     0.10  -0.01  -0.05
  14   1    -0.01   0.00   0.01    -0.07  -0.01   0.01     0.03  -0.00  -0.02
  15   1    -0.01   0.00   0.02    -0.08  -0.02   0.01     0.03  -0.00  -0.02
  16   1    -0.01  -0.00  -0.01    -0.07  -0.03  -0.03     0.03  -0.00  -0.01
  17   6     0.13   0.09  -0.06     0.03  -0.01  -0.08     0.03  -0.03  -0.03
  18   1     0.04   0.03  -0.02     0.00   0.01   0.01     0.01  -0.01  -0.01
  19   1     0.04   0.01  -0.02    -0.00  -0.02  -0.06     0.01  -0.00  -0.00
  20   1     0.04   0.04  -0.02     0.06   0.01  -0.03    -0.00  -0.01  -0.01
  21   1    -0.03   0.03   0.00     0.03  -0.04   0.03    -0.01   0.01   0.05
  22   6    -0.04  -0.05  -0.04    -0.01  -0.03   0.05     0.06   0.05  -0.02
  23   8     0.15   0.07  -0.16    -0.06  -0.04   0.11     0.29   0.20  -0.15
  24   7     0.06   0.04  -0.11     0.15   0.02  -0.01    -0.13  -0.06   0.06
  25   1     0.04   0.03  -0.04     0.02  -0.01   0.02     0.01   0.02  -0.01
  26   1    -0.07  -0.05   0.02     0.01  -0.02   0.01    -0.04  -0.02   0.02
  27   7    -0.35  -0.28   0.12    -0.08  -0.06   0.03    -0.01  -0.02   0.04
  28   1    -0.11  -0.08   0.04     0.01  -0.00  -0.01    -0.07  -0.04   0.04
  29   1    -0.07  -0.06   0.02    -0.02  -0.00   0.00    -0.00  -0.00   0.01
  30   6    -0.05   0.07  -0.00     0.15   0.05   0.04     0.08   0.09   0.06
  31   8    -0.27   0.22  -0.06     0.31  -0.13   0.31     0.08   0.04   0.23
  32   7     0.02   0.08   0.02     0.19   0.24  -0.01     0.16   0.23   0.04
  33   1    -0.02   0.04  -0.00     0.08   0.07   0.03     0.05   0.08   0.04
  34   1     0.05  -0.02   0.02     0.02   0.11  -0.05     0.04   0.08  -0.02
  35   7     0.12  -0.10   0.06    -0.04   0.10  -0.18     0.02   0.05  -0.07
  36   1     0.06  -0.04   0.02    -0.02   0.05  -0.09     0.01   0.02  -0.05
  37   1     0.01  -0.01   0.01    -0.00  -0.03  -0.03    -0.00  -0.02  -0.01
  38   6    -0.10  -0.07   0.10    -0.07   0.06   0.03    -0.02   0.05   0.03
  39   8    -0.10  -0.04  -0.05    -0.07   0.17  -0.04    -0.03  -0.12   0.09
  40   7    -0.05  -0.01   0.08    -0.10   0.06  -0.01     0.06   0.11   0.04
  41   1     0.00   0.01  -0.01    -0.03   0.02   0.00     0.03   0.03  -0.00
  42   1    -0.02  -0.01   0.06    -0.03  -0.01   0.03     0.02   0.07  -0.02
  43   7    -0.19  -0.20   0.34    -0.03  -0.05   0.13    -0.09   0.18  -0.06
  44   1    -0.05  -0.04   0.10    -0.01  -0.04   0.05    -0.02   0.07  -0.02
  45   1    -0.06  -0.03   0.05     0.00  -0.02   0.05    -0.03   0.02   0.01
  46   6     0.09  -0.02  -0.09     0.01   0.00  -0.04    -0.15  -0.15  -0.04
  47   8     0.13   0.01  -0.11    -0.18  -0.08  -0.20    -0.08  -0.02  -0.08
  48   7     0.05  -0.01  -0.11     0.24  -0.05   0.00    -0.23  -0.21   0.24
  49   1     0.01   0.00  -0.03     0.06  -0.03  -0.03    -0.06  -0.02   0.10
  50   1     0.01  -0.01  -0.02     0.10   0.01   0.03    -0.08  -0.09   0.07
  51   7     0.14  -0.07  -0.07     0.01   0.12   0.10    -0.21  -0.25  -0.27
  52   1     0.03  -0.02  -0.02     0.03   0.04   0.04    -0.05  -0.11  -0.04
  53   1     0.03  -0.02  -0.02    -0.04   0.04   0.01    -0.03  -0.07  -0.08
                     13                     14                     15
                        a                      a                      a 
 Frequencies --    77.8868                81.5938                88.4461
 Red. masses --    13.1923                12.1581                11.9922
 Frc consts  --     0.0000                 0.0000                 0.0000
 IR Inten    --     2.9582                 8.9208                 3.1699
 Raman Activ --     0.0000                 0.0000                 0.0000
 Depolar     --     0.0000                 0.0000                 0.0000
 Atom AN      X      Y      Z        X      Y      Z        X      Y      Z
   1   8    -0.00  -0.04  -0.03     0.08   0.06  -0.07     0.07   0.07   0.06
   2   6     0.07  -0.04  -0.06    -0.07   0.05   0.03    -0.11   0.06   0.18
   3   1     0.03  -0.00  -0.03    -0.03  -0.00   0.00    -0.06  -0.01   0.10
   4   1     0.03  -0.03  -0.02    -0.01   0.05   0.03    -0.06   0.08   0.05
   5   6     0.06  -0.03  -0.06    -0.19   0.01   0.07    -0.02  -0.08   0.19
   6   1     0.02  -0.01  -0.02    -0.08   0.00   0.03    -0.03  -0.03   0.08
   7   1     0.01  -0.00  -0.02    -0.06  -0.03  -0.00     0.02  -0.06   0.06
   8   7     0.04  -0.06  -0.05    -0.19   0.10   0.13     0.08  -0.03   0.02
   9   6     0.06  -0.11  -0.05    -0.18   0.21   0.22    -0.05  -0.02  -0.17
  10   1     0.03  -0.03  -0.02    -0.08   0.06   0.07    -0.03  -0.00  -0.08
  11   1     0.01  -0.04  -0.01    -0.05   0.08   0.08     0.01   0.03  -0.07
  12   1     0.02  -0.04  -0.01    -0.02   0.07   0.06    -0.04  -0.04  -0.04
  13   6     0.04  -0.02  -0.05    -0.27   0.03   0.14     0.25   0.03  -0.00
  14   1     0.01  -0.00  -0.01    -0.09   0.00   0.05     0.09   0.01  -0.03
  15   1     0.01  -0.00  -0.02    -0.07   0.00   0.06     0.08   0.01  -0.01
  16   1     0.01  -0.00  -0.01    -0.09   0.00   0.02     0.09   0.01   0.03
  17   6    -0.01  -0.06  -0.01    -0.06   0.10   0.07     0.10  -0.03   0.07
  18   1    -0.01  -0.02  -0.00    -0.01   0.04   0.02     0.06   0.01  -0.03
  19   1    -0.01  -0.01   0.00    -0.01   0.00   0.00     0.07  -0.02   0.08
  20   1    -0.01  -0.03  -0.00     0.00   0.04   0.02    -0.03  -0.02   0.02
  21   1    -0.01   0.01  -0.01     0.02  -0.01  -0.03     0.02  -0.01   0.00
  22   6     0.01   0.01   0.07     0.10   0.02  -0.05    -0.04   0.01  -0.04
  23   8    -0.07  -0.03   0.15     0.19   0.01  -0.15    -0.23  -0.07   0.09
  24   7     0.11   0.03   0.05    -0.09  -0.01   0.00     0.04   0.01  -0.06
  25   1     0.01  -0.01   0.03    -0.01   0.02  -0.03    -0.01  -0.02   0.01
  26   1     0.03   0.00   0.01    -0.00   0.03   0.00     0.05   0.02  -0.04
  27   7     0.01   0.02   0.04     0.21   0.06   0.00     0.10   0.14  -0.17
  28   1     0.04   0.02  -0.01     0.00  -0.00   0.03     0.05   0.04  -0.06
  29   1     0.01   0.01   0.01     0.04  -0.01   0.02    -0.01   0.02  -0.03
  30   6    -0.03   0.02  -0.03     0.01  -0.01  -0.04     0.05   0.12  -0.00
  31   8    -0.14   0.10  -0.07     0.06  -0.01  -0.11    -0.01   0.19  -0.03
  32   7     0.02   0.00  -0.01    -0.05  -0.07  -0.04     0.09   0.11   0.01
  33   1    -0.00   0.01  -0.01    -0.01  -0.03  -0.02     0.01   0.04  -0.00
  34   1     0.03  -0.02   0.01    -0.02  -0.02   0.00     0.04   0.02   0.01
  35   7     0.05  -0.05  -0.00     0.01   0.04   0.02     0.11   0.09   0.02
  36   1     0.02  -0.02   0.00    -0.01   0.01   0.02     0.04   0.02   0.01
  37   1    -0.01   0.00  -0.01     0.01   0.02   0.00     0.02   0.03   0.00
  38   6     0.07   0.05  -0.04     0.06  -0.09   0.00    -0.14  -0.02  -0.00
  39   8     0.08   0.02  -0.00     0.04  -0.26   0.22    -0.17  -0.07   0.04
  40   7     0.14   0.41  -0.53     0.10   0.11  -0.27    -0.14   0.04  -0.08
  41   1     0.03   0.07  -0.09     0.03   0.01  -0.06    -0.04   0.00  -0.00
  42   1     0.03   0.06  -0.07     0.03   0.05  -0.10    -0.04   0.01  -0.02
  43   7     0.02  -0.23   0.36     0.05  -0.11   0.02    -0.17  -0.03   0.03
  44   1     0.02  -0.02   0.04     0.03   0.01  -0.05    -0.04   0.01  -0.02
  45   1     0.00  -0.06   0.09     0.02  -0.04   0.02    -0.04   0.00  -0.00
  46   6    -0.13   0.01   0.08     0.05  -0.05  -0.06     0.03  -0.12  -0.05
  47   8    -0.14  -0.01   0.12    -0.00   0.04  -0.23    -0.12  -0.08  -0.29
  48   7    -0.13   0.01   0.09     0.08  -0.10   0.10     0.08  -0.14  -0.04
  49   1    -0.03   0.00   0.03     0.01  -0.01   0.02    -0.01  -0.03  -0.06
  50   1    -0.04   0.00   0.02     0.03  -0.04   0.06     0.04  -0.04   0.03
  51   7    -0.15   0.03   0.06     0.09  -0.12  -0.04     0.18  -0.18   0.24
  52   1    -0.04   0.01   0.01     0.04  -0.05   0.01     0.05  -0.04   0.06
  53   1    -0.04   0.01   0.02     0.03  -0.03  -0.03     0.02  -0.04   0.04
                     16                     17                     18
                        a                      a                      a 
 Frequencies --    92.6605               107.2721               130.7700
 Red. masses --    11.5544                12.5932                13.4949
 Frc consts  --     0.0000                 0.0000                 0.0000
 IR Inten    --     3.2652                13.2732                 8.9358
 Raman Activ --     0.0000                 0.0000                 0.0000
 Depolar     --     0.0000                 0.0000                 0.0000
 Atom AN      X      Y      Z        X      Y      Z        X      Y      Z
   1   8     0.12   0.10  -0.05     0.22  -0.29  -0.03     0.19   0.16  -0.13
   2   6    -0.13   0.08   0.19    -0.17  -0.19  -0.04     0.04   0.14   0.01
   3   1    -0.08  -0.01   0.10    -0.10  -0.12   0.00    -0.01   0.02   0.02
   4   1    -0.07   0.10   0.06    -0.08   0.01  -0.02    -0.00   0.08   0.01
   5   6    -0.09  -0.14   0.21    -0.18  -0.12  -0.03     0.03   0.05   0.03
   6   1    -0.05  -0.05   0.11    -0.09  -0.03  -0.02     0.01   0.01   0.02
   7   1    -0.01  -0.09   0.06    -0.04  -0.06  -0.00     0.01   0.01   0.00
   8   7    -0.01  -0.09   0.07    -0.12   0.02  -0.06     0.03   0.02   0.01
   9   6    -0.12  -0.02  -0.07    -0.20   0.03  -0.21     0.04  -0.01  -0.01
  10   1    -0.06  -0.00  -0.04    -0.07   0.01  -0.08     0.02  -0.00  -0.01
  11   1    -0.01   0.03  -0.04    -0.04   0.03  -0.08     0.01  -0.01  -0.01
  12   1    -0.05  -0.02  -0.02    -0.08  -0.02  -0.06     0.00  -0.01  -0.00
  13   6     0.13  -0.09   0.06    -0.02   0.15  -0.09     0.05   0.02   0.01
  14   1     0.05  -0.02  -0.01     0.01   0.06  -0.03     0.01   0.00  -0.00
  15   1     0.03  -0.03   0.02    -0.01   0.05  -0.06     0.02   0.01   0.00
  16   1     0.05  -0.03   0.04     0.01   0.04  -0.00     0.01   0.01   0.00
  17   6     0.06  -0.08   0.04    -0.01  -0.00   0.10    -0.01   0.02   0.01
  18   1     0.04  -0.01  -0.03     0.01   0.03   0.03    -0.01  -0.00   0.01
  19   1     0.05  -0.04   0.05     0.01  -0.00   0.06    -0.01   0.01  -0.01
  20   1    -0.03  -0.02   0.01    -0.01  -0.04   0.04     0.01   0.01   0.00
  21   1     0.03  -0.02  -0.04     0.06  -0.10  -0.01     0.05  -0.00  -0.05
  22   6     0.01  -0.04  -0.00     0.03  -0.01  -0.02     0.09   0.07   0.08
  23   8     0.14   0.04  -0.07     0.09   0.01  -0.06     0.19   0.15   0.06
  24   7     0.02  -0.03  -0.01    -0.04  -0.04   0.01     0.04  -0.03   0.14
  25   1     0.01  -0.00  -0.01     0.03   0.01  -0.02     0.07   0.03   0.02
  26   1    -0.05  -0.05   0.03     0.02   0.02  -0.02     0.05   0.01   0.01
  27   7    -0.15  -0.16   0.09     0.03  -0.02   0.00     0.02   0.02   0.08
  28   1    -0.05  -0.05   0.03    -0.02  -0.02   0.02    -0.03  -0.02   0.03
  29   1    -0.01  -0.02   0.00    -0.00  -0.01   0.01    -0.00   0.02   0.02
  30   6     0.04   0.02  -0.06     0.09   0.08  -0.05     0.03  -0.17  -0.07
  31   8     0.06   0.05  -0.15     0.10   0.09  -0.06     0.25  -0.31  -0.09
  32   7    -0.00  -0.07  -0.04     0.07   0.07  -0.05    -0.14  -0.24  -0.10
  33   1    -0.01  -0.03  -0.03     0.02   0.01  -0.02    -0.04  -0.09  -0.05
  34   1    -0.01  -0.02   0.01     0.02   0.01  -0.00    -0.10  -0.03  -0.03
  35   7     0.06   0.07   0.02     0.11   0.09  -0.02    -0.08  -0.02  -0.04
  36   1     0.01   0.01   0.02     0.02   0.03  -0.00    -0.04  -0.01   0.00
  37   1     0.02   0.04   0.00     0.03   0.03  -0.01     0.04  -0.03   0.01
  38   6     0.06   0.04   0.02    -0.08   0.01   0.06    -0.18   0.12   0.01
  39   8     0.07   0.12  -0.02    -0.10  -0.04   0.09    -0.19   0.31  -0.14
  40   7     0.03   0.00   0.05    -0.06   0.07   0.01    -0.22   0.12   0.00
  41   1     0.01   0.01   0.00    -0.01   0.01   0.00    -0.05   0.04  -0.01
  42   1     0.01  -0.01   0.02    -0.02   0.02   0.01    -0.06  -0.00   0.05
  43   7     0.09  -0.02   0.07    -0.11   0.00   0.09    -0.14  -0.05   0.18
  44   1     0.02  -0.01   0.02    -0.02   0.02   0.00    -0.05  -0.06   0.06
  45   1     0.03   0.01   0.00    -0.02   0.01   0.02    -0.02   0.00   0.04
  46   6    -0.09   0.06  -0.08     0.10   0.02   0.12     0.00  -0.09  -0.01
  47   8    -0.21  -0.12  -0.04     0.31  -0.03   0.42     0.06  -0.01  -0.04
  48   7     0.23  -0.02   0.03    -0.08   0.09  -0.07    -0.12  -0.08   0.01
  49   1     0.10  -0.05   0.03     0.00   0.02   0.02    -0.05   0.00   0.00
  50   1     0.09   0.04  -0.01    -0.05   0.03  -0.07    -0.05  -0.04   0.01
  51   7    -0.31   0.33  -0.27     0.04   0.01  -0.04     0.05  -0.18  -0.01
  52   1    -0.05   0.10  -0.05    -0.02   0.01  -0.04     0.01  -0.06   0.00
  53   1    -0.11   0.09  -0.05     0.03  -0.00   0.03     0.02  -0.05  -0.01
                     19                     20                     21
                        a                      a                      a 
 Frequencies --   134.4379               135.6778               153.9645
 Red. masses --    12.8366                13.2768                12.7651
 Frc consts  --     0.0000                 0.0000                 0.0000
 IR Inten    --    40.0062                 3.4977                16.5717
 Raman Activ --     0.0000                 0.0000                 0.0000
 Depolar     --     0.0000                 0.0000                 0.0000
 Atom AN      X      Y      Z        X      Y      Z        X      Y      Z
   1   8     0.04  -0.04  -0.02    -0.02  -0.02   0.07     0.06   0.09  -0.04
   2   6    -0.08  -0.03   0.06    -0.05   0.00   0.01     0.08   0.08  -0.08
   3   1    -0.04  -0.03   0.03    -0.02  -0.01  -0.01     0.03   0.03  -0.04
   4   1    -0.03   0.02   0.02    -0.01  -0.00  -0.00     0.03   0.01  -0.02
   5   6    -0.11  -0.09   0.07    -0.06   0.07  -0.00     0.03   0.13  -0.08
   6   1    -0.04  -0.03   0.03    -0.02   0.02  -0.02     0.01   0.04  -0.03
   7   1    -0.03  -0.04   0.01    -0.02   0.03   0.00     0.00   0.04  -0.03
   8   7    -0.09  -0.05   0.06    -0.06   0.13   0.04     0.01   0.16  -0.01
   9   6    -0.12   0.02   0.06    -0.07   0.10   0.01     0.04   0.06  -0.04
  10   1    -0.05   0.01   0.03    -0.02   0.03  -0.01     0.02   0.02  -0.03
  11   1    -0.03   0.02   0.01    -0.02   0.04   0.00     0.01   0.02   0.00
  12   1    -0.03   0.01   0.02    -0.02   0.02   0.01     0.01  -0.01  -0.01
  13   6    -0.08  -0.08   0.06    -0.04   0.16   0.03     0.02   0.21  -0.02
  14   1    -0.01  -0.01   0.01    -0.01   0.04   0.01     0.00   0.06  -0.00
  15   1    -0.04  -0.02   0.02     0.00   0.05  -0.00     0.01   0.06  -0.02
  16   1    -0.01  -0.04   0.02    -0.01   0.06   0.01     0.00   0.07  -0.00
  17   6    -0.03  -0.05   0.02    -0.05   0.11   0.12    -0.05   0.14   0.10
  18   1    -0.00  -0.01   0.00    -0.01   0.04   0.04    -0.02   0.04   0.05
  19   1    -0.00  -0.03   0.00    -0.01   0.04   0.05    -0.02   0.06   0.03
  20   1    -0.01  -0.01   0.01    -0.02   0.01   0.04    -0.01   0.01   0.04
  21   1     0.01  -0.03  -0.01    -0.01   0.00   0.02     0.01   0.02  -0.01
  22   6    -0.04   0.08  -0.09    -0.05  -0.07   0.10    -0.08   0.06  -0.02
  23   8     0.02   0.33   0.00    -0.20  -0.26   0.14    -0.11   0.26   0.16
  24   7     0.07  -0.14  -0.04     0.03   0.09   0.03     0.13  -0.15   0.02
  25   1     0.03  -0.05   0.04    -0.05  -0.01   0.02     0.04  -0.07   0.08
  26   1    -0.04  -0.12  -0.01    -0.01   0.03   0.03    -0.01  -0.13  -0.01
  27   7    -0.25   0.03  -0.25     0.05  -0.03   0.14    -0.20   0.07  -0.23
  28   1    -0.04  -0.01  -0.10     0.08   0.04   0.01    -0.03   0.00  -0.09
  29   1    -0.03   0.05  -0.10     0.04   0.00   0.03    -0.07   0.03  -0.07
  30   6     0.02   0.03  -0.01    -0.02   0.05   0.01    -0.00  -0.06   0.00
  31   8     0.01   0.05  -0.02    -0.10   0.10   0.00     0.06  -0.11   0.02
  32   7     0.02   0.02   0.00     0.03   0.05   0.03    -0.05  -0.05  -0.02
  33   1     0.00   0.00  -0.00     0.01   0.02   0.01    -0.01  -0.02  -0.00
  34   1     0.01   0.00   0.01     0.03  -0.00   0.01    -0.03  -0.00  -0.01
  35   7     0.03   0.04   0.01     0.02   0.00   0.02    -0.05  -0.03  -0.02
  36   1     0.01   0.01   0.01     0.01  -0.00   0.00    -0.01  -0.01  -0.00
  37   1     0.01   0.01   0.00    -0.01   0.01  -0.00     0.01  -0.03   0.00
  38   6     0.17   0.04  -0.09     0.10   0.11  -0.07     0.03  -0.06   0.09
  39   8     0.23   0.14  -0.38     0.14   0.33  -0.21     0.02  -0.27   0.19
  40   7     0.25  -0.04   0.10     0.02   0.00  -0.02     0.13   0.05   0.04
  41   1     0.07   0.02  -0.01    -0.01  -0.01   0.02     0.04   0.01   0.02
  42   1     0.06  -0.02   0.06     0.00  -0.05   0.04     0.04   0.05  -0.01
  43   7     0.12  -0.01   0.05     0.19   0.02  -0.02    -0.04   0.05   0.03
  44   1     0.02  -0.03   0.08     0.04  -0.04   0.03    -0.00   0.04  -0.01
  45   1     0.01   0.00  -0.01     0.05   0.02  -0.02    -0.02  -0.01   0.02
  46   6    -0.03  -0.04   0.08     0.03  -0.23  -0.10    -0.01  -0.15   0.00
  47   8    -0.04   0.04   0.00     0.16  -0.22  -0.01    -0.05  -0.35   0.14
  48   7    -0.19  -0.00   0.04     0.00  -0.26  -0.05     0.16  -0.16  -0.18
  49   1    -0.08   0.03  -0.01     0.03  -0.07   0.03     0.09  -0.10  -0.03
  50   1    -0.06  -0.03   0.03    -0.01  -0.07  -0.03     0.08   0.00  -0.05
  51   7     0.11  -0.18   0.24    -0.05  -0.24  -0.31    -0.12   0.03  -0.03
  52   1     0.02  -0.06   0.07    -0.03  -0.05  -0.11    -0.02   0.04  -0.02
  53   1     0.04  -0.05   0.03    -0.01  -0.07  -0.05    -0.04   0.01   0.01
                     22                     23                     24
                        a                      a                      a 
 Frequencies --   157.7985               164.1325               184.9047
 Red. masses --    13.2468                13.6188                 3.5579
 Frc consts  --     0.0000                 0.0000                 0.0000
 IR Inten    --     6.7612                 0.8309               144.9811
 Raman Activ --     0.0000                 0.0000                 0.0000
 Depolar     --     0.0000                 0.0000                 0.0000
 Atom AN      X      Y      Z        X      Y      Z        X      Y      Z
   1   8     0.05  -0.01  -0.04    -0.00   0.03  -0.03     0.11  -0.00   0.02
   2   6    -0.02  -0.01   0.02     0.05   0.02  -0.04    -0.02   0.02   0.01
   3   1    -0.01  -0.01   0.02     0.03   0.02  -0.02    -0.02  -0.01   0.01
   4   1    -0.01   0.02   0.01     0.02  -0.01  -0.01    -0.02   0.03  -0.00
   5   6    -0.00  -0.05   0.02     0.02   0.03  -0.03     0.00   0.03   0.00
   6   1     0.00  -0.01   0.01     0.00   0.01  -0.01     0.01   0.01  -0.00
   7   1    -0.00  -0.02   0.00     0.00   0.01  -0.02     0.00   0.02   0.01
   8   7    -0.00  -0.08  -0.00     0.01   0.03  -0.01    -0.00   0.00  -0.01
   9   6    -0.01  -0.03   0.03     0.02  -0.00  -0.01     0.00  -0.01  -0.01
  10   1    -0.00  -0.01   0.02     0.01  -0.00  -0.02     0.02  -0.00   0.02
  11   1    -0.00  -0.01   0.00     0.00   0.00   0.01     0.00  -0.02  -0.02
  12   1    -0.00   0.01   0.01     0.01  -0.02  -0.00    -0.01   0.02  -0.01
  13   6    -0.02  -0.12   0.01     0.01   0.07  -0.02     0.00  -0.02  -0.01
  14   1    -0.01  -0.05   0.00     0.00   0.03  -0.00     0.01   0.01  -0.01
  15   1     0.01  -0.04   0.02    -0.01   0.02  -0.01    -0.01  -0.00   0.00
  16   1    -0.01  -0.03  -0.00     0.00   0.02  -0.00     0.01  -0.02  -0.00
  17   6     0.02  -0.06  -0.08    -0.01   0.02   0.03    -0.03   0.00  -0.02
  18   1     0.00  -0.02  -0.02    -0.00   0.01   0.01    -0.03  -0.01   0.03
  19   1     0.00  -0.03  -0.04    -0.00   0.01   0.01    -0.03   0.01  -0.04
  20   1     0.01  -0.00  -0.03    -0.01  -0.00   0.01     0.03   0.00  -0.01
  21   1     0.01  -0.02  -0.02    -0.01   0.01  -0.01     0.03  -0.01  -0.00
  22   6    -0.13  -0.08  -0.03     0.02  -0.13  -0.24    -0.00  -0.05   0.02
  23   8    -0.32  -0.08   0.15     0.07  -0.16  -0.35     0.07  -0.09  -0.08
  24   7     0.11  -0.10  -0.08    -0.12  -0.05  -0.26     0.08   0.19  -0.12
  25   1    -0.03  -0.08   0.05    -0.04  -0.01  -0.11    -0.38  -0.22   0.15
  26   1    -0.01  -0.09  -0.02    -0.04   0.01  -0.05    -0.54  -0.33   0.31
  27   7    -0.15  -0.02  -0.19     0.04  -0.15  -0.13     0.15   0.04   0.04
  28   1     0.04   0.02  -0.09     0.00  -0.02  -0.02     0.19   0.09  -0.05
  29   1    -0.05   0.01  -0.06     0.02  -0.05  -0.04     0.12   0.03  -0.02
  30   6     0.01  -0.04  -0.03    -0.02  -0.02  -0.00     0.01  -0.02  -0.00
  31   8     0.06  -0.06  -0.04    -0.04  -0.02  -0.01     0.03  -0.04   0.00
  32   7    -0.02  -0.06  -0.04    -0.01  -0.03  -0.00    -0.01  -0.02  -0.01
  33   1    -0.01  -0.02  -0.02    -0.00  -0.01  -0.00    -0.00  -0.01  -0.00
  34   1    -0.02  -0.01  -0.01    -0.00  -0.01  -0.00    -0.01   0.00  -0.00
  35   7    -0.00  -0.01  -0.02    -0.02  -0.04  -0.01    -0.01  -0.01  -0.00
  36   1    -0.01  -0.00  -0.00    -0.00  -0.01  -0.01    -0.00  -0.00   0.00
  37   1     0.01  -0.00  -0.00    -0.01  -0.01  -0.01     0.01  -0.01   0.00
  38   6     0.03   0.11   0.21     0.05   0.19   0.17    -0.03   0.01  -0.00
  39   8     0.03   0.02   0.34     0.06   0.31   0.32    -0.03  -0.07  -0.10
  40   7     0.03   0.18   0.11    -0.10   0.13   0.09     0.07   0.05   0.06
  41   1     0.00   0.04   0.06    -0.04   0.05   0.02     0.04   0.01  -0.00
  42   1     0.01   0.05   0.01    -0.02   0.02  -0.02     0.02   0.04   0.02
  43   7     0.06   0.15   0.15     0.24   0.13   0.11    -0.16   0.05   0.05
  44   1     0.02   0.05   0.01     0.06  -0.00   0.02    -0.04   0.04   0.02
  45   1     0.02   0.03   0.05     0.08   0.03   0.05    -0.06   0.01   0.00
  46   6     0.09   0.09  -0.12    -0.07  -0.08   0.11    -0.01   0.00   0.02
  47   8     0.22   0.29  -0.16    -0.16  -0.15   0.07    -0.02  -0.02   0.03
  48   7    -0.09   0.07   0.13    -0.04  -0.06  -0.01    -0.03   0.01  -0.05
  49   1    -0.02   0.07   0.08    -0.03  -0.03  -0.04     0.01  -0.00   0.02
  50   1    -0.05  -0.03   0.05     0.00  -0.01   0.00     0.02  -0.00   0.04
  51   7     0.07  -0.07  -0.32     0.00  -0.06   0.29    -0.01   0.01   0.04
  52   1    -0.00  -0.04  -0.08     0.00  -0.00   0.07     0.01  -0.00   0.02
  53   1     0.05  -0.02  -0.09    -0.00  -0.02   0.09    -0.01   0.00  -0.01
                     25                     26                     27
                        a                      a                      a 
 Frequencies --   192.5606               198.9541               229.6332
 Red. masses --     8.1679                11.3461                12.6447
 Frc consts  --     0.0000                 0.0000                 0.0000
 IR Inten    --     5.7436               103.7853                10.7903
 Raman Activ --     0.0000                 0.0000                 0.0000
 Depolar     --     0.0000                 0.0000                 0.0000
 Atom AN      X      Y      Z        X      Y      Z        X      Y      Z
   1   8     0.40  -0.15   0.33    -0.09  -0.08   0.12     0.53   0.16  -0.17
   2   6    -0.15   0.01   0.09    -0.05  -0.06   0.02     0.15   0.20  -0.05
   3   1    -0.13  -0.10   0.06    -0.01  -0.02   0.01     0.01   0.01  -0.03
   4   1    -0.11   0.08  -0.02    -0.02  -0.03  -0.01     0.05   0.12   0.02
   5   6     0.05   0.27   0.00     0.02   0.03  -0.01    -0.07  -0.03   0.02
   6   1     0.08   0.08  -0.06     0.02   0.01  -0.02    -0.05  -0.02   0.07
   7   1     0.01   0.16   0.05     0.01   0.03   0.01    -0.03  -0.06  -0.04
   8   7    -0.03   0.06  -0.07     0.01  -0.00  -0.01    -0.07  -0.05  -0.05
   9   6     0.04  -0.03  -0.01     0.02  -0.02   0.01    -0.13  -0.00  -0.12
  10   1     0.12  -0.02   0.14     0.03  -0.01   0.03    -0.09   0.00  -0.11
  11   1     0.00  -0.16  -0.11     0.00  -0.03  -0.02    -0.03   0.08   0.01
  12   1    -0.08   0.14  -0.04    -0.01   0.02  -0.00     0.00  -0.08  -0.01
  13   6     0.01  -0.14  -0.03     0.00  -0.02  -0.00    -0.04  -0.07  -0.05
  14   1     0.04  -0.01  -0.04     0.01   0.00  -0.00    -0.03  -0.05  -0.01
  15   1    -0.05  -0.04   0.04    -0.01  -0.01   0.00     0.03  -0.02  -0.01
  16   1     0.03  -0.11  -0.01     0.01  -0.01   0.00    -0.03   0.02  -0.02
  17   6    -0.19   0.06  -0.19    -0.02  -0.00  -0.03     0.02  -0.05  -0.04
  18   1    -0.18  -0.04   0.15    -0.01  -0.01   0.00     0.01   0.01  -0.01
  19   1    -0.19   0.06  -0.26    -0.01   0.00  -0.02     0.01  -0.03  -0.01
  20   1     0.18   0.04  -0.07     0.01   0.00  -0.01     0.02  -0.02  -0.01
  21   1     0.08  -0.06   0.06    -0.03  -0.00   0.03     0.11   0.02  -0.08
  22   6    -0.00  -0.00  -0.02     0.04   0.07   0.04     0.00   0.01   0.01
  23   8    -0.02  -0.02  -0.01     0.16   0.26   0.08     0.01   0.01   0.01
  24   7    -0.04  -0.02  -0.00     0.19  -0.09   0.08     0.02  -0.01   0.02
  25   1     0.06   0.04  -0.04    -0.02  -0.10   0.13     0.01  -0.00   0.01
  26   1     0.09   0.07  -0.06    -0.15  -0.22   0.10    -0.00  -0.01   0.00
  27   7    -0.02  -0.02   0.00    -0.06   0.06  -0.07     0.00   0.01   0.00
  28   1    -0.03  -0.01   0.01    -0.00  -0.00  -0.04    -0.01  -0.00   0.00
  29   1    -0.01  -0.01   0.01    -0.02   0.05  -0.04    -0.01   0.00   0.00
  30   6    -0.01   0.01  -0.02    -0.02   0.05  -0.02    -0.14  -0.01   0.18
  31   8    -0.04   0.04  -0.05    -0.07   0.11  -0.05    -0.26  -0.01   0.30
  32   7    -0.02  -0.00  -0.01     0.02   0.04   0.01     0.03   0.17   0.17
  33   1     0.01  -0.01   0.00     0.02   0.00   0.01     0.02   0.06   0.08
  34   1     0.03  -0.03   0.01     0.05  -0.02   0.02     0.06   0.03   0.02
  35   7     0.03  -0.01   0.02     0.05   0.03   0.03    -0.14  -0.25  -0.05
  36   1    -0.01   0.01   0.00    -0.01   0.02   0.01    -0.01  -0.05  -0.08
  37   1    -0.01   0.02  -0.01    -0.02   0.04  -0.01    -0.11  -0.12  -0.02
  38   6     0.02   0.00   0.01    -0.05  -0.06  -0.03     0.01  -0.03  -0.03
  39   8     0.02  -0.02   0.01    -0.08   0.19   0.27     0.01   0.02   0.03
  40   7     0.04   0.02   0.01    -0.37  -0.18  -0.20    -0.06  -0.06  -0.05
  41   1     0.01   0.00   0.01    -0.15  -0.03  -0.05    -0.03  -0.01  -0.01
  42   1     0.01   0.00   0.01    -0.10  -0.07  -0.12    -0.01  -0.02  -0.03
  43   7    -0.00   0.01   0.02     0.32  -0.21  -0.18     0.07  -0.02  -0.08
  44   1     0.00   0.01   0.00     0.09  -0.11  -0.10     0.01  -0.04   0.01
  45   1    -0.00   0.01  -0.00     0.14  -0.04  -0.02     0.02  -0.04   0.01
  46   6    -0.03  -0.02  -0.02     0.02  -0.00  -0.01     0.02   0.02   0.00
  47   8    -0.08  -0.04  -0.06     0.05   0.02  -0.00     0.04   0.03   0.01
  48   7     0.04  -0.04  -0.01    -0.04   0.00  -0.03    -0.02   0.02   0.00
  49   1     0.00  -0.02  -0.02     0.00   0.01   0.02    -0.00   0.01   0.01
  50   1     0.02   0.00  -0.01     0.00  -0.01   0.04    -0.00  -0.00   0.01
  51   7    -0.02   0.00   0.03     0.00  -0.01  -0.05     0.01   0.00  -0.03
  52   1    -0.00   0.01   0.01     0.02  -0.02   0.02     0.00  -0.00  -0.01
  53   1    -0.01   0.00   0.01     0.01  -0.00  -0.01     0.01   0.00   0.00
                     28                     29                     30
                        a                      a                      a 
 Frequencies --   252.1109               261.8389               289.8404
 Red. masses --     3.0006                 5.4409                 6.6464
 Frc consts  --     0.0000                 0.0000                 0.0000
 IR Inten    --    15.4241                 2.8336                 0.7063
 Raman Activ --     0.0000                 0.0000                 0.0000
 Depolar     --     0.0000                 0.0000                 0.0000
 Atom AN      X      Y      Z        X      Y      Z        X      Y      Z
   1   8    -0.04   0.03  -0.01     0.14  -0.12   0.35     0.08   0.05  -0.04
   2   6     0.02   0.01  -0.00     0.09  -0.02   0.02    -0.37   0.12  -0.00
   3   1     0.02   0.01  -0.01     0.03  -0.02  -0.06    -0.21  -0.06   0.14
   4   1     0.02  -0.01   0.01     0.05  -0.05   0.01    -0.22   0.16  -0.08
   5   6    -0.00  -0.01   0.01    -0.01   0.19  -0.01     0.08   0.06  -0.10
   6   1    -0.01  -0.00   0.01     0.03   0.06  -0.02     0.07   0.02  -0.04
   7   1    -0.00  -0.01  -0.00    -0.02   0.09  -0.00     0.04   0.05   0.01
   8   7     0.00   0.00   0.00    -0.08   0.06  -0.04     0.06  -0.03  -0.07
   9   6    -0.01   0.01  -0.01    -0.04   0.01  -0.03     0.24  -0.20   0.10
  10   1    -0.01   0.00  -0.02    -0.10   0.02  -0.18     0.17  -0.06   0.09
  11   1    -0.00   0.02   0.01    -0.02   0.15   0.13     0.04  -0.17   0.01
  12   1     0.01  -0.01   0.00     0.10  -0.17   0.03     0.03   0.01   0.01
  13   6     0.02   0.00   0.00     0.00  -0.16   0.00    -0.33   0.09  -0.06
  14   1     0.00  -0.00  -0.00    -0.11  -0.25   0.01    -0.16  -0.00   0.08
  15   1     0.01   0.00   0.00     0.21  -0.07   0.04    -0.06   0.03  -0.04
  16   1     0.01   0.00   0.00    -0.09   0.12  -0.04    -0.16   0.09  -0.09
  17   6    -0.01   0.00   0.00    -0.18   0.07  -0.19     0.28  -0.04   0.05
  18   1    -0.00  -0.00  -0.01     0.10   0.03  -0.36     0.20   0.07  -0.16
  19   1    -0.00   0.00   0.00     0.12  -0.00   0.22     0.21  -0.07   0.20
  20   1    -0.01   0.00  -0.00    -0.39   0.04  -0.04    -0.11  -0.03   0.03
  21   1    -0.03   0.02  -0.02     0.01   0.00   0.08     0.06  -0.05   0.00
  22   6    -0.00  -0.00  -0.00     0.00   0.00  -0.01     0.00   0.00  -0.00
  23   8    -0.00  -0.00  -0.00     0.01   0.00  -0.01     0.00   0.00  -0.00
  24   7    -0.01   0.00  -0.00    -0.00  -0.00  -0.01    -0.00  -0.00  -0.00
  25   1    -0.00   0.00  -0.00    -0.00  -0.00  -0.00     0.00  -0.00  -0.00
  26   1     0.00   0.00  -0.00    -0.01  -0.00   0.00     0.00  -0.00  -0.00
  27   7    -0.00  -0.00   0.00    -0.00  -0.00  -0.00    -0.00  -0.00  -0.00
  28   1     0.00   0.00  -0.00     0.01   0.00  -0.00     0.01   0.00  -0.00
  29   1     0.00  -0.00  -0.00     0.00   0.00  -0.00     0.00  -0.00  -0.00
  30   6     0.01  -0.02  -0.01     0.04  -0.01  -0.04    -0.01   0.01   0.02
  31   8     0.06  -0.06   0.01     0.07  -0.02  -0.06    -0.02   0.01   0.03
  32   7    -0.18   0.12  -0.09    -0.02  -0.04  -0.04     0.00   0.02   0.02
  33   1     0.23  -0.18   0.10     0.00  -0.02  -0.01     0.00   0.01   0.01
  34   1     0.32  -0.27   0.14    -0.01  -0.01  -0.00     0.02  -0.01   0.01
  35   7     0.23  -0.14   0.09     0.02   0.06   0.01     0.00  -0.04  -0.00
  36   1    -0.46   0.31  -0.21     0.01   0.00   0.03    -0.03   0.01  -0.03
  37   1    -0.34   0.25  -0.14     0.04   0.02   0.01    -0.03  -0.00  -0.01
  38   6    -0.01   0.01   0.01    -0.00   0.01   0.00     0.00  -0.00   0.00
  39   8    -0.01  -0.00  -0.02    -0.00  -0.00  -0.01     0.01  -0.01  -0.00
  40   7     0.02   0.02   0.02     0.01   0.01   0.01     0.02   0.00   0.00
  41   1     0.01   0.00   0.01     0.01   0.00  -0.00     0.01  -0.00   0.00
  42   1     0.00   0.00   0.02     0.00   0.01   0.00     0.00   0.00   0.00
  43   7    -0.04  -0.00   0.03    -0.01   0.00   0.01     0.01  -0.00  -0.00
  44   1     0.00   0.04  -0.03    -0.00  -0.00   0.00     0.00  -0.01   0.00
  45   1    -0.00   0.01   0.00     0.00   0.00   0.00     0.00  -0.00   0.00
  46   6    -0.00  -0.00   0.00    -0.01  -0.01   0.01    -0.01  -0.01   0.00
  47   8    -0.00  -0.00   0.00    -0.02  -0.01   0.01    -0.01  -0.02   0.00
  48   7     0.00  -0.00   0.00    -0.01  -0.00  -0.01     0.00  -0.01  -0.01
  49   1    -0.00  -0.00  -0.00    -0.00  -0.00  -0.01     0.00  -0.01  -0.00
  50   1    -0.00   0.00  -0.00    -0.00   0.00  -0.00     0.00  -0.00  -0.00
  51   7    -0.00  -0.00   0.00    -0.02   0.01   0.01    -0.00  -0.01   0.01
  52   1    -0.00   0.00   0.00     0.00   0.00   0.01    -0.00  -0.00   0.00
  53   1    -0.00  -0.00  -0.00    -0.00   0.00   0.01    -0.01  -0.00  -0.00
                     31                     32                     33
                        a                      a                      a 
 Frequencies --   298.9934               323.3491               342.2754
 Red. masses --     3.5631                 8.2562                 2.2895
 Frc consts  --     0.0000                 0.0000                 0.0000
 IR Inten    --     0.3324                 1.3551                 8.5952
 Raman Activ --     0.0000                 0.0000                 0.0000
 Depolar     --     0.0000                 0.0000                 0.0000
 Atom AN      X      Y      Z        X      Y      Z        X      Y      Z
   1   8    -0.07   0.07   0.22     0.00   0.15   0.41    -0.06   0.04   0.08
   2   6    -0.10   0.07   0.09     0.24   0.15  -0.03     0.10   0.02  -0.02
   3   1    -0.04   0.02   0.04     0.13   0.10  -0.10     0.05   0.04  -0.03
   4   1    -0.03   0.02   0.02     0.13  -0.06   0.01     0.04  -0.03  -0.01
   5   6    -0.01  -0.01   0.04     0.00   0.10  -0.02     0.01  -0.03  -0.00
   6   1    -0.00  -0.01   0.04     0.04   0.02   0.03    -0.01  -0.01   0.04
   7   1     0.01  -0.02   0.01    -0.03   0.04  -0.04    -0.01  -0.03  -0.04
   8   7     0.02  -0.05  -0.07    -0.10  -0.11  -0.06     0.00  -0.02   0.02
   9   6     0.06  -0.10  -0.05    -0.23  -0.06  -0.22    -0.13   0.04  -0.15
  10   1    -0.16  -0.00  -0.34    -0.03  -0.02   0.01     0.06  -0.00   0.13
  11   1    -0.00   0.26   0.26    -0.03  -0.07  -0.17    -0.01  -0.14  -0.23
  12   1     0.24  -0.35   0.07    -0.16   0.05  -0.08    -0.20   0.19  -0.09
  13   6    -0.19   0.07  -0.09    -0.25  -0.06  -0.07    -0.04  -0.02   0.03
  14   1    -0.12  -0.03   0.05     0.05   0.19  -0.03    -0.26  -0.37   0.12
  15   1     0.02   0.02  -0.06    -0.31  -0.00  -0.02     0.42  -0.04   0.01
  16   1    -0.11   0.10  -0.07     0.01  -0.22  -0.01    -0.21   0.38  -0.09
  17   6     0.19  -0.05  -0.06     0.23  -0.13   0.11     0.14  -0.03   0.10
  18   1    -0.06  -0.00   0.24     0.13   0.07   0.00    -0.01   0.01   0.15
  19   1    -0.08  -0.02  -0.27     0.13  -0.09   0.10    -0.01  -0.01  -0.07
  20   1     0.35  -0.02  -0.03     0.03  -0.09   0.05     0.18  -0.03   0.03
  21   1    -0.01   0.02   0.06    -0.02   0.10   0.11    -0.02   0.03   0.02
  22   6     0.00   0.00  -0.00     0.00   0.00   0.00     0.00   0.00  -0.00
  23   8     0.00   0.00  -0.00    -0.00  -0.00   0.00     0.00   0.00  -0.00
  24   7    -0.00  -0.00  -0.00    -0.00  -0.00   0.00     0.00  -0.01  -0.00
  25   1     0.00  -0.00   0.00     0.00   0.00  -0.00    -0.00  -0.01   0.00
  26   1     0.00  -0.00  -0.00     0.01   0.01  -0.00    -0.02  -0.02   0.01
  27   7    -0.00   0.00  -0.00    -0.01  -0.00   0.00    -0.00   0.00  -0.01
  28   1     0.00   0.00  -0.00     0.01   0.01  -0.00     0.02   0.01  -0.01
  29   1     0.00  -0.00  -0.00     0.01   0.00  -0.00    -0.00  -0.00   0.00
  30   6     0.01  -0.00  -0.04     0.02  -0.02  -0.04     0.01  -0.01  -0.02
  31   8     0.02   0.00  -0.06     0.04  -0.03  -0.06     0.01  -0.01  -0.02
  32   7    -0.00  -0.04  -0.03    -0.02  -0.05  -0.05    -0.01  -0.01  -0.02
  33   1    -0.00  -0.01  -0.01     0.01  -0.02  -0.00     0.01  -0.01   0.00
  34   1    -0.01  -0.00  -0.01    -0.01  -0.01  -0.01     0.01  -0.01   0.00
  35   7     0.03   0.04   0.02     0.02   0.05   0.02     0.00   0.02   0.01
  36   1     0.00   0.01   0.03    -0.00   0.01   0.03     0.00  -0.00   0.01
  37   1     0.02   0.03   0.00     0.03   0.03   0.01     0.01   0.01   0.00
  38   6     0.00   0.00  -0.00     0.00   0.00   0.01    -0.01   0.00  -0.00
  39   8     0.00   0.00  -0.01     0.00  -0.00   0.00    -0.00   0.00  -0.00
  40   7     0.01   0.00   0.00     0.01   0.01   0.00     0.01   0.00   0.01
  41   1     0.01   0.00   0.00     0.00  -0.00   0.01     0.01   0.00  -0.00
  42   1     0.00   0.00   0.00     0.00  -0.00   0.01     0.00   0.02  -0.01
  43   7     0.00  -0.00   0.00    -0.00   0.00   0.00     0.01  -0.00  -0.01
  44   1     0.00   0.00  -0.00     0.00   0.01  -0.01    -0.00  -0.02   0.02
  45   1     0.00   0.00  -0.00     0.00   0.00  -0.00     0.00  -0.01   0.00
  46   6     0.01  -0.01   0.01     0.00   0.00  -0.00    -0.01  -0.00  -0.01
  47   8     0.01  -0.01   0.02     0.01   0.01  -0.01    -0.02  -0.01  -0.01
  48   7    -0.01  -0.01  -0.01    -0.00  -0.01  -0.02     0.03  -0.00   0.08
  49   1     0.01  -0.01   0.01     0.02  -0.01   0.03    -0.06   0.01  -0.08
  50   1     0.00  -0.00   0.00     0.03  -0.01   0.04    -0.08   0.02  -0.14
  51   7    -0.00  -0.01  -0.00     0.01  -0.02  -0.01    -0.01   0.02   0.01
  52   1    -0.00   0.00  -0.00    -0.01  -0.00  -0.01     0.02  -0.00   0.02
  53   1    -0.00  -0.00   0.00    -0.00  -0.00  -0.01     0.00   0.00   0.01
                     34                     35                     36
                        a                      a                      a 
 Frequencies --   350.8866               370.8817               374.6532
 Red. masses --     3.0998                 2.6632                 3.6984
 Frc consts  --     0.0000                 0.0000                 0.0000
 IR Inten    --   174.8449                59.7811               441.6914
 Raman Activ --     0.0000                 0.0000                 0.0000
 Depolar     --     0.0000                 0.0000                 0.0000
 Atom AN      X      Y      Z        X      Y      Z        X      Y      Z
   1   8    -0.02  -0.01  -0.01     0.00  -0.00   0.02     0.01   0.00   0.02
   2   6     0.01  -0.01   0.00     0.00  -0.00   0.02     0.02  -0.00   0.03
   3   1     0.00   0.00   0.00     0.01   0.00  -0.00     0.01   0.00  -0.01
   4   1     0.00  -0.00  -0.00     0.01  -0.00   0.01     0.02  -0.00   0.03
   5   6     0.01  -0.01   0.00    -0.03  -0.02   0.02    -0.05  -0.05   0.05
   6   1     0.00  -0.00   0.01    -0.02  -0.01   0.01    -0.03  -0.01   0.03
   7   1     0.00  -0.01  -0.00    -0.00  -0.02   0.00    -0.01  -0.04   0.00
   8   7     0.01  -0.01   0.01    -0.01   0.00  -0.00    -0.01  -0.00   0.01
   9   6    -0.02   0.02  -0.01     0.02  -0.04   0.01     0.03  -0.05   0.02
  10   1     0.01   0.00   0.03     0.02  -0.01   0.00     0.04  -0.02   0.03
  11   1     0.00  -0.03  -0.04    -0.00  -0.02   0.01    -0.00  -0.05  -0.00
  12   1    -0.04   0.04  -0.01     0.01  -0.02   0.00    -0.00   0.01   0.00
  13   6     0.01  -0.00   0.01    -0.01   0.04  -0.01    -0.01   0.08  -0.01
  14   1    -0.06  -0.09   0.03     0.02   0.05  -0.01    -0.01   0.02   0.01
  15   1     0.10  -0.01  -0.00    -0.04   0.02  -0.01     0.01   0.02  -0.03
  16   1    -0.04   0.10  -0.02     0.02  -0.02   0.01    -0.01   0.05  -0.00
  17   6     0.01  -0.01   0.01     0.00   0.01  -0.05     0.00   0.01  -0.08
  18   1    -0.01  -0.01   0.02     0.01   0.00  -0.03     0.00  -0.00  -0.04
  19   1    -0.01  -0.00  -0.02     0.01  -0.01  -0.01     0.00  -0.01  -0.03
  20   1     0.03  -0.00   0.00    -0.01   0.02  -0.02    -0.00   0.03  -0.03
  21   1    -0.00  -0.00  -0.00    -0.03   0.02  -0.02    -0.05   0.02  -0.04
  22   6    -0.03  -0.03   0.00    -0.07  -0.04   0.03     0.04   0.02  -0.02
  23   8    -0.02  -0.02   0.01    -0.06  -0.02   0.04     0.03   0.01  -0.02
  24   7     0.01   0.02  -0.03     0.07   0.04  -0.04    -0.04  -0.02   0.02
  25   1    -0.00   0.01  -0.01    -0.02  -0.02   0.02     0.01   0.01  -0.01
  26   1     0.03   0.03  -0.02    -0.04  -0.04   0.01     0.02   0.03  -0.01
  27   7     0.08   0.02  -0.02     0.14   0.05  -0.03    -0.08  -0.03   0.02
  28   1    -0.19  -0.11   0.08    -0.31  -0.18   0.13     0.18   0.10  -0.07
  29   1    -0.03  -0.01   0.02    -0.06  -0.02   0.04     0.03   0.01  -0.02
  30   6     0.00   0.00  -0.01     0.06  -0.03   0.01     0.09  -0.08   0.05
  31   8     0.00   0.00  -0.00     0.02  -0.00  -0.01     0.03  -0.03   0.01
  32   7     0.00  -0.01  -0.00    -0.11   0.08  -0.05    -0.19   0.19  -0.08
  33   1    -0.00   0.00  -0.00     0.09  -0.08   0.03     0.16  -0.12   0.07
  34   1    -0.01   0.01  -0.00     0.23  -0.20   0.12     0.41  -0.33   0.19
  35   7     0.01   0.00   0.00    -0.09   0.08  -0.04    -0.21   0.12  -0.09
  36   1    -0.01   0.01  -0.00     0.14  -0.09   0.07     0.31  -0.22   0.16
  37   1    -0.00   0.01  -0.00     0.09  -0.05   0.03     0.15  -0.10   0.05
  38   6     0.01   0.02  -0.03    -0.00   0.04  -0.05     0.00  -0.02   0.02
  39   8     0.01   0.02  -0.03    -0.00  -0.01  -0.03     0.01   0.01   0.02
  40   7     0.01  -0.02   0.04     0.00  -0.06   0.12     0.00   0.03  -0.06
  41   1     0.01   0.02  -0.02     0.01   0.06  -0.08    -0.01  -0.03   0.04
  42   1     0.01   0.07  -0.09     0.04   0.34  -0.44    -0.02  -0.18   0.23
  43   7     0.00  -0.01   0.02     0.04   0.03  -0.00    -0.02  -0.01   0.01
  44   1    -0.01  -0.02   0.03    -0.08  -0.26   0.32     0.04   0.13  -0.15
  45   1    -0.00  -0.00   0.01    -0.03  -0.06   0.04     0.00   0.04  -0.04
  46   6     0.02   0.01   0.05     0.00  -0.01  -0.00    -0.00   0.00   0.00
  47   8     0.01   0.02   0.02     0.00   0.00  -0.00     0.00   0.00  -0.00
  48   7    -0.18   0.01  -0.33     0.03  -0.01   0.06    -0.02   0.00  -0.04
  49   1     0.22  -0.02   0.35    -0.04   0.00  -0.07     0.03  -0.00   0.05
  50   1     0.32  -0.09   0.66    -0.06   0.02  -0.13     0.04  -0.01   0.09
  51   7    -0.01   0.01   0.02    -0.03   0.00  -0.03     0.02  -0.00   0.02
  52   1    -0.04   0.01  -0.03     0.04  -0.00   0.03    -0.03   0.01  -0.02
  53   1    -0.01   0.01  -0.01     0.03  -0.01   0.04    -0.02   0.00  -0.02
                     37                     38                     39
                        a                      a                      a 
 Frequencies --   379.3040               389.0294               431.4456
 Red. masses --     7.4076                 2.6938                 5.1605
 Frc consts  --     0.0000                 0.0000                 0.0000
 IR Inten    --    34.7098                74.3120               268.4457
 Raman Activ --     0.0000                 0.0000                 0.0000
 Depolar     --     0.0000                 0.0000                 0.0000
 Atom AN      X      Y      Z        X      Y      Z        X      Y      Z
   1   8     0.05   0.00   0.10    -0.00  -0.00  -0.01     0.04   0.05   0.14
   2   6     0.16  -0.03   0.15    -0.00  -0.01   0.00    -0.01   0.07  -0.00
   3   1     0.10   0.03  -0.05    -0.00  -0.00   0.01    -0.01   0.02  -0.00
   4   1     0.12  -0.05   0.12    -0.00   0.00  -0.00    -0.00   0.02   0.00
   5   6    -0.20  -0.17   0.20     0.01  -0.00   0.00    -0.01  -0.11  -0.01
   6   1    -0.14  -0.05   0.12     0.01   0.00  -0.01    -0.04  -0.04   0.06
   7   1    -0.03  -0.16   0.02     0.00   0.01   0.00     0.01  -0.10  -0.02
   8   7    -0.08   0.02   0.03     0.01  -0.00   0.00     0.04  -0.10  -0.15
   9   6     0.07  -0.23   0.07     0.00   0.02   0.00     0.07   0.16   0.11
  10   1     0.16  -0.07   0.09    -0.01   0.00  -0.00    -0.03   0.04   0.11
  11   1    -0.02  -0.22  -0.02     0.00   0.01  -0.00     0.01   0.05   0.05
  12   1    -0.02   0.01   0.00     0.00   0.00   0.00     0.08   0.13   0.01
  13   6    -0.07   0.38  -0.06     0.01  -0.01   0.00     0.01   0.05  -0.19
  14   1    -0.02   0.15   0.03     0.00  -0.00  -0.00    -0.01   0.02  -0.03
  15   1    -0.01   0.12  -0.13     0.00  -0.00  -0.00     0.02   0.02  -0.09
  16   1    -0.02   0.16   0.01     0.00  -0.01  -0.00    -0.00   0.05  -0.04
  17   6    -0.02   0.08  -0.40    -0.01  -0.00   0.01    -0.12  -0.14   0.06
  18   1     0.01  -0.01  -0.19    -0.00  -0.00   0.01    -0.05  -0.05   0.02
  19   1     0.02  -0.06  -0.14    -0.01   0.01   0.00    -0.04   0.03   0.06
  20   1    -0.02   0.14  -0.14    -0.00  -0.00   0.00    -0.07  -0.09   0.03
  21   1    -0.00   0.01   0.01    -0.01   0.00  -0.01     0.01   0.02   0.04
  22   6     0.00   0.00  -0.00     0.10   0.03  -0.02     0.01   0.01   0.00
  23   8     0.00   0.00  -0.00     0.07  -0.01  -0.03     0.00  -0.00  -0.01
  24   7    -0.00  -0.00   0.00    -0.11  -0.05   0.09    -0.01  -0.03   0.03
  25   1     0.00  -0.00   0.00     0.03   0.03  -0.03     0.03   0.01   0.00
  26   1     0.00  -0.00  -0.00     0.08   0.09  -0.03     0.04   0.02  -0.02
  27   7    -0.01   0.00   0.00    -0.21  -0.09   0.06    -0.05  -0.01   0.03
  28   1     0.02   0.01  -0.01     0.56   0.32  -0.23     0.18   0.11  -0.06
  29   1    -0.00  -0.00   0.00     0.06   0.01  -0.03    -0.01  -0.02   0.02
  30   6    -0.02   0.02  -0.02     0.00   0.02  -0.01    -0.01  -0.03  -0.00
  31   8    -0.01   0.00  -0.00    -0.00   0.02  -0.01    -0.01  -0.03  -0.00
  32   7     0.05  -0.05   0.02    -0.00  -0.02   0.00     0.01   0.02  -0.02
  33   1    -0.04   0.03  -0.02    -0.01  -0.01  -0.01     0.03   0.01   0.02
  34   1    -0.12   0.10  -0.06     0.01  -0.01   0.01    -0.02   0.04  -0.04
  35   7     0.06  -0.03   0.03     0.02   0.01   0.01    -0.01  -0.01   0.02
  36   1    -0.08   0.06  -0.04    -0.03   0.03  -0.02     0.04  -0.04   0.05
  37   1    -0.04   0.03  -0.01     0.01  -0.01   0.00    -0.03   0.05  -0.01
  38   6     0.00  -0.01  -0.00    -0.04  -0.03   0.03     0.01   0.09  -0.11
  39   8     0.00   0.00  -0.01    -0.03  -0.05   0.02     0.01   0.07  -0.05
  40   7     0.01  -0.00  -0.00    -0.02   0.00  -0.00    -0.00  -0.13   0.17
  41   1     0.01  -0.00  -0.00     0.00   0.00  -0.01     0.00   0.02  -0.03
  42   1     0.00   0.00   0.00     0.01   0.17  -0.21     0.04   0.29  -0.40
  43   7     0.00   0.00  -0.01     0.04   0.09  -0.10    -0.06  -0.16   0.17
  44   1    -0.00  -0.01   0.01    -0.11  -0.32   0.40     0.10   0.28  -0.39
  45   1    -0.00  -0.01   0.01    -0.03  -0.06   0.04     0.03   0.02   0.01
  46   6    -0.00  -0.01  -0.00    -0.01   0.01  -0.00    -0.00   0.00   0.01
  47   8     0.01  -0.00   0.00     0.00   0.01   0.01     0.00   0.01   0.00
  48   7     0.01  -0.01  -0.00    -0.01   0.01  -0.06     0.01  -0.00  -0.00
  49   1     0.00  -0.01  -0.00     0.05  -0.01   0.06     0.00  -0.01  -0.01
  50   1     0.00   0.00  -0.00     0.06  -0.01   0.10     0.00   0.01  -0.01
  51   7    -0.00  -0.01  -0.00     0.01  -0.00   0.02    -0.02  -0.01  -0.02
  52   1    -0.00   0.00  -0.01    -0.02  -0.01  -0.01     0.03  -0.02   0.03
  53   1    -0.00  -0.00   0.01    -0.03   0.00  -0.05     0.03  -0.01   0.02
                     40                     41                     42
                        a                      a                      a 
 Frequencies --   432.1126               460.1254               464.5189
 Red. masses --     7.2763                 8.4395                 6.9399
 Frc consts  --     0.0000                 0.0000                 0.0000
 IR Inten    --   108.3959                 2.8802                11.4825
 Raman Activ --     0.0000                 0.0000                 0.0000
 Depolar     --     0.0000                 0.0000                 0.0000
 Atom AN      X      Y      Z        X      Y      Z        X      Y      Z
   1   8    -0.05  -0.07  -0.21    -0.02  -0.02  -0.06    -0.01  -0.00  -0.00
   2   6     0.02  -0.10   0.00     0.10  -0.10   0.23    -0.00  -0.01  -0.00
   3   1     0.01  -0.02  -0.00     0.02  -0.01   0.13    -0.00  -0.00   0.01
   4   1     0.01  -0.03   0.00    -0.00  -0.00   0.04    -0.01  -0.00  -0.01
   5   6     0.01   0.15   0.02     0.26  -0.14   0.16     0.06   0.04  -0.01
   6   1     0.04   0.06  -0.08     0.03  -0.04   0.04     0.07   0.01  -0.04
   7   1    -0.01   0.12   0.04     0.10  -0.06   0.06    -0.00   0.07   0.01
   8   7    -0.06   0.17   0.23     0.32   0.02   0.01    -0.03  -0.09   0.04
   9   6    -0.10  -0.25  -0.18     0.09   0.17  -0.31    -0.09   0.01   0.04
  10   1     0.06  -0.06  -0.18    -0.03   0.05  -0.10    -0.05   0.00   0.02
  11   1    -0.02  -0.08  -0.08     0.08   0.10  -0.16    -0.01   0.03   0.00
  12   1    -0.12  -0.20  -0.02    -0.07   0.03  -0.08    -0.02   0.01   0.01
  13   6    -0.03  -0.08   0.30    -0.36   0.00   0.05     0.03   0.07   0.01
  14   1     0.01  -0.03   0.05    -0.15   0.05   0.15     0.01   0.02   0.01
  15   1    -0.03  -0.03   0.14    -0.19   0.01   0.03     0.03   0.02  -0.04
  16   1    -0.00  -0.08   0.06    -0.16  -0.05  -0.12     0.01   0.05   0.03
  17   6     0.18   0.23  -0.09    -0.23   0.04  -0.03     0.02  -0.09  -0.05
  18   1     0.07   0.09  -0.04    -0.11  -0.12  -0.04     0.01  -0.02  -0.02
  19   1     0.07  -0.03  -0.08    -0.11   0.12   0.02     0.01  -0.04  -0.03
  20   1     0.10   0.14  -0.05    -0.15   0.02  -0.01     0.01   0.00  -0.02
  21   1    -0.00  -0.04  -0.05    -0.01  -0.02  -0.03    -0.00  -0.00  -0.00
  22   6     0.01   0.00   0.00    -0.01   0.01  -0.01     0.12  -0.10   0.09
  23   8     0.01  -0.00  -0.01    -0.01   0.00  -0.01     0.11  -0.02   0.18
  24   7    -0.02  -0.02   0.02     0.01  -0.01  -0.00    -0.11   0.19   0.03
  25   1     0.01   0.01  -0.00     0.01  -0.00   0.01    -0.12   0.06  -0.14
  26   1     0.03   0.02  -0.01     0.00  -0.01  -0.01    -0.05   0.18   0.11
  27   7    -0.04  -0.01   0.01     0.01   0.01   0.01    -0.05  -0.09  -0.24
  28   1     0.13   0.08  -0.05    -0.01   0.00   0.01    -0.04  -0.13  -0.13
  29   1    -0.00  -0.01   0.01     0.01  -0.00   0.01    -0.08   0.07  -0.10
  30   6    -0.00   0.01   0.03     0.03   0.07   0.04     0.03   0.06   0.03
  31   8     0.01   0.01   0.02     0.05   0.08   0.02     0.04   0.07   0.01
  32   7    -0.01   0.01   0.02    -0.07  -0.06   0.06    -0.06  -0.05   0.05
  33   1     0.00  -0.01   0.00    -0.06  -0.04  -0.05    -0.04  -0.04  -0.03
  34   1    -0.02   0.01   0.00    -0.03  -0.05   0.08    -0.03  -0.04   0.07
  35   7    -0.01  -0.03  -0.03     0.01  -0.03  -0.10     0.01  -0.03  -0.09
  36   1     0.04  -0.03  -0.01     0.02   0.02  -0.11     0.03   0.01  -0.08
  37   1    -0.04  -0.00  -0.02    -0.01  -0.10  -0.01    -0.02  -0.08  -0.01
  38   6     0.00   0.05  -0.07    -0.00   0.00  -0.00    -0.04   0.02   0.00
  39   8    -0.00   0.04  -0.03    -0.00   0.00  -0.00    -0.04  -0.02  -0.02
  40   7     0.01  -0.08   0.11     0.01   0.00   0.01     0.01   0.04   0.03
  41   1     0.01   0.01  -0.02     0.01  -0.00   0.00     0.01  -0.00   0.02
  42   1     0.03   0.19  -0.25     0.00   0.00   0.00     0.00   0.03   0.01
  43   7    -0.03  -0.11   0.11     0.01  -0.01  -0.00     0.06  -0.04  -0.01
  44   1     0.07   0.18  -0.26     0.01  -0.00  -0.01     0.03  -0.02  -0.06
  45   1     0.03   0.01   0.01     0.01   0.00  -0.00     0.05  -0.00   0.02
  46   6     0.01  -0.00  -0.00     0.00  -0.01  -0.00    -0.14   0.06   0.08
  47   8     0.00  -0.01  -0.00     0.01  -0.00  -0.00    -0.06   0.20   0.06
  48   7    -0.01   0.00   0.00    -0.01  -0.01   0.00     0.14   0.04  -0.12
  49   1    -0.00   0.01   0.01     0.01  -0.01   0.01     0.29  -0.22   0.14
  50   1    -0.00  -0.01   0.01    -0.01   0.00  -0.02     0.08   0.21  -0.24
  51   7    -0.01   0.01  -0.01     0.01  -0.00   0.01    -0.05  -0.24   0.00
  52   1     0.02  -0.01   0.03    -0.00   0.01  -0.00     0.01  -0.21   0.12
  53   1     0.01   0.00   0.01    -0.01   0.00   0.00     0.05  -0.07  -0.15
                     43                     44                     45
                        a                      a                      a 
 Frequencies --   466.0455               468.5969               469.4478
 Red. masses --     7.4835                 3.1914                 7.7552
 Frc consts  --     0.0000                 0.0000                 0.0000
 IR Inten    --     6.6332                 3.9737                18.1260
 Raman Activ --     0.0000                 0.0000                 0.0000
 Depolar     --     0.0000                 0.0000                 0.0000
 Atom AN      X      Y      Z        X      Y      Z        X      Y      Z
   1   8     0.03  -0.00  -0.08     0.01   0.00  -0.04    -0.00   0.01   0.05
   2   6     0.02  -0.02   0.04     0.01  -0.01   0.00    -0.00   0.02  -0.01
   3   1    -0.00  -0.01   0.04    -0.00  -0.00   0.01     0.01   0.01  -0.03
   4   1    -0.01   0.02   0.00    -0.00   0.01  -0.01     0.02  -0.01   0.01
   5   6     0.07  -0.05   0.04     0.03   0.00  -0.00    -0.08  -0.03   0.00
   6   1    -0.00  -0.01   0.01     0.02   0.00  -0.01    -0.07  -0.01   0.03
   7   1     0.03  -0.03   0.01     0.00   0.02   0.00    -0.01  -0.06  -0.01
   8   7     0.09   0.03   0.02     0.01  -0.02   0.03    -0.01   0.07  -0.06
   9   6     0.03   0.03  -0.10    -0.03   0.00  -0.01     0.08  -0.01  -0.00
  10   1     0.01   0.01  -0.04    -0.02   0.00  -0.01     0.05  -0.00   0.00
  11   1     0.03   0.02  -0.05     0.00   0.01  -0.01     0.00  -0.03   0.02
  12   1    -0.03  -0.01  -0.02    -0.02  -0.00  -0.00     0.04  -0.00  -0.00
  13   6    -0.10  -0.01   0.05    -0.01   0.02   0.02     0.00  -0.05  -0.04
  14   1    -0.04   0.01   0.04    -0.00   0.01   0.01     0.01  -0.02  -0.03
  15   1    -0.05  -0.00   0.03    -0.00   0.01  -0.00    -0.01  -0.02   0.02
  16   1    -0.04  -0.03  -0.03    -0.00   0.01   0.01     0.01  -0.04  -0.02
  17   6    -0.06   0.04  -0.01    -0.01  -0.01  -0.02    -0.00   0.06   0.05
  18   1    -0.03  -0.03  -0.02    -0.00  -0.01  -0.01    -0.00   0.03   0.03
  19   1    -0.03   0.04   0.00    -0.00  -0.01  -0.01    -0.00   0.03   0.02
  20   1    -0.04   0.02  -0.00    -0.00   0.01  -0.01     0.00  -0.02   0.02
  21   1     0.00  -0.01  -0.02     0.04  -0.02   0.02     0.00   0.00   0.01
  22   6     0.06  -0.05   0.05    -0.02   0.01  -0.01     0.14  -0.12   0.10
  23   8     0.06  -0.01   0.10    -0.02   0.00  -0.03     0.13  -0.02   0.22
  24   7    -0.06   0.10   0.01     0.02  -0.03  -0.00    -0.13   0.22   0.04
  25   1    -0.07   0.02  -0.07     0.03  -0.00   0.02    -0.19   0.04  -0.14
  26   1    -0.02   0.09   0.06     0.00  -0.03  -0.01    -0.02   0.23   0.12
  27   7    -0.03  -0.05  -0.12     0.01   0.01   0.03    -0.07  -0.12  -0.28
  28   1    -0.02  -0.07  -0.06     0.01   0.02   0.01    -0.02  -0.13  -0.16
  29   1    -0.04   0.03  -0.05     0.01  -0.01   0.01    -0.09   0.07  -0.11
  30   6    -0.11  -0.21  -0.10    -0.08  -0.10  -0.06     0.01   0.04   0.01
  31   8    -0.14  -0.25  -0.06    -0.10  -0.11  -0.06     0.02   0.05  -0.00
  32   7     0.21   0.22  -0.18     0.22   0.04  -0.04    -0.01  -0.05   0.04
  33   1     0.19   0.11   0.16    -0.23   0.29  -0.08    -0.09   0.02  -0.05
  34   1     0.08   0.16  -0.25     0.31  -0.14   0.01     0.03  -0.06   0.06
  35   7    -0.05   0.08   0.31    -0.10   0.11   0.16    -0.00  -0.00  -0.05
  36   1     0.00  -0.10   0.34    -0.40   0.25  -0.08    -0.07   0.07  -0.10
  37   1    -0.05   0.35  -0.01     0.46  -0.25   0.22     0.09  -0.13   0.04
  38   6    -0.04  -0.00   0.02     0.01   0.01  -0.01    -0.05  -0.01  -0.01
  39   8    -0.04  -0.01   0.00     0.02   0.02   0.01    -0.05  -0.01   0.00
  40   7     0.03   0.05   0.02    -0.00  -0.02   0.01     0.04   0.03   0.04
  41   1     0.03  -0.00   0.01    -0.01  -0.00  -0.00     0.04  -0.00   0.01
  42   1     0.00   0.02   0.04     0.00   0.01  -0.03     0.01   0.05   0.01
  43   7     0.04  -0.02  -0.03    -0.02  -0.01   0.03     0.05  -0.07  -0.03
  44   1    -0.00  -0.07   0.03     0.01   0.06  -0.05     0.03  -0.02  -0.07
  45   1     0.03   0.00  -0.01    -0.02   0.01  -0.01     0.05  -0.01   0.01
  46   6     0.00   0.00  -0.00    -0.03   0.01   0.02     0.15  -0.05  -0.08
  47   8     0.00   0.00   0.00    -0.01   0.04   0.01     0.06  -0.21  -0.06
  48   7    -0.01   0.00  -0.01     0.03   0.01  -0.02    -0.15  -0.03   0.09
  49   1     0.03  -0.02   0.04     0.05  -0.04   0.02    -0.22   0.19  -0.07
  50   1    -0.01   0.01  -0.04     0.02   0.04  -0.04    -0.11  -0.18   0.15
  51   7     0.00  -0.01   0.00    -0.01  -0.05  -0.00     0.04   0.24  -0.01
  52   1     0.02  -0.03   0.03    -0.01  -0.03   0.00     0.09   0.10   0.03
  53   1    -0.01   0.00  -0.04     0.01  -0.02  -0.01    -0.06   0.07   0.03
                     46                     47                     48
                        a                      a                      a 
 Frequencies --   482.1137               486.3042               490.3310
 Red. masses --     6.1114                 5.9135                 1.7932
 Frc consts  --     0.0000                 0.0000                 0.0000
 IR Inten    --    13.5646                14.7126                 9.2293
 Raman Activ --     0.0000                 0.0000                 0.0000
 Depolar     --     0.0000                 0.0000                 0.0000
 Atom AN      X      Y      Z        X      Y      Z        X      Y      Z
   1   8    -0.01   0.00   0.06    -0.00  -0.00   0.02    -0.00  -0.00   0.00
   2   6    -0.01   0.02  -0.01    -0.00   0.00   0.00    -0.00  -0.00   0.00
   3   1     0.02   0.02  -0.08     0.01   0.01  -0.03     0.00   0.00  -0.00
   4   1     0.05  -0.02   0.05     0.02  -0.01   0.03     0.00  -0.00   0.00
   5   6    -0.26  -0.10   0.04    -0.11  -0.05   0.03    -0.01  -0.00   0.00
   6   1    -0.21  -0.04   0.11    -0.10  -0.02   0.05    -0.01  -0.00   0.00
   7   1    -0.02  -0.21  -0.03    -0.01  -0.10  -0.01    -0.00  -0.01  -0.00
   8   7     0.01   0.26  -0.16     0.02   0.12  -0.07     0.00   0.01  -0.00
   9   6     0.26  -0.07  -0.08     0.12  -0.03  -0.05     0.01  -0.00  -0.01
  10   1     0.17  -0.02  -0.03     0.08  -0.01  -0.02     0.01  -0.00  -0.00
  11   1     0.02  -0.12   0.02     0.01  -0.05   0.00     0.00  -0.00  -0.00
  12   1     0.09  -0.03  -0.02     0.04  -0.02  -0.01     0.00  -0.00  -0.00
  13   6    -0.03  -0.25  -0.07    -0.03  -0.12  -0.03    -0.00  -0.01   0.00
  14   1    -0.01  -0.12  -0.07    -0.01  -0.06  -0.02    -0.00  -0.01  -0.00
  15   1    -0.02  -0.09   0.12    -0.01  -0.04   0.06     0.00  -0.00   0.00
  16   1    -0.01  -0.15  -0.07    -0.01  -0.08  -0.04    -0.00  -0.00  -0.00
  17   6     0.00   0.25   0.17    -0.00   0.12   0.08     0.00   0.01   0.00
  18   1    -0.01   0.10   0.10    -0.01   0.04   0.04    -0.00   0.00   0.00
  19   1    -0.00   0.11   0.08    -0.00   0.06   0.04    -0.00   0.00   0.00
  20   1     0.01  -0.03   0.07     0.00  -0.01   0.03     0.00   0.00   0.00
  21   1    -0.02   0.01   0.00    -0.01   0.00  -0.00    -0.00  -0.00  -0.00
  22   6    -0.01   0.01  -0.01     0.02  -0.02   0.02     0.05   0.06  -0.04
  23   8    -0.01   0.00  -0.02     0.01  -0.01   0.04     0.05   0.06  -0.06
  24   7     0.01  -0.02  -0.00    -0.03   0.03   0.01     0.08  -0.01  -0.03
  25   1     0.01  -0.01   0.01     0.06   0.07  -0.06    -0.60  -0.43   0.32
  26   1     0.01  -0.02  -0.01    -0.07  -0.01   0.05     0.38   0.27  -0.21
  27   7     0.00   0.01   0.03     0.00  -0.01  -0.06    -0.10  -0.06   0.10
  28   1    -0.01   0.00   0.02     0.00  -0.02  -0.03    -0.07  -0.03   0.05
  29   1     0.02   0.01  -0.00    -0.03  -0.00  -0.01     0.08   0.05  -0.04
  30   6     0.01   0.01  -0.00     0.00  -0.00  -0.00     0.00  -0.00  -0.00
  31   8     0.00   0.01   0.01    -0.00  -0.00   0.00    -0.00  -0.00   0.00
  32   7    -0.01  -0.02   0.00     0.00  -0.00  -0.00     0.00  -0.00  -0.00
  33   1    -0.01  -0.01  -0.01     0.00  -0.00  -0.00     0.00  -0.00   0.00
  34   1    -0.01  -0.01   0.01    -0.00   0.00  -0.00    -0.00   0.00  -0.00
  35   7     0.01   0.01  -0.01     0.00   0.00   0.00     0.00   0.00   0.00
  36   1    -0.02   0.02  -0.02    -0.01   0.01  -0.00    -0.00   0.00   0.00
[...]
  44   1    -0.02   0.00  -0.00    -0.17   0.03  -0.02    -0.02   0.00  -0.00
  45   1     0.06  -0.07  -0.06     0.49  -0.59  -0.54     0.04  -0.05  -0.05
  46   6    -0.00  -0.00  -0.00     0.00   0.00  -0.00    -0.01  -0.01   0.01
  47   8    -0.00   0.00   0.00    -0.00   0.00   0.00     0.00  -0.00  -0.00
  48   7     0.00   0.00   0.00    -0.00  -0.00  -0.00     0.00   0.00   0.00
  49   1     0.00   0.00  -0.00    -0.00  -0.00   0.00     0.01   0.01  -0.01
  50   1    -0.00   0.00  -0.00     0.00  -0.00  -0.00    -0.01   0.01   0.01
  51   7     0.00  -0.03  -0.01     0.00   0.02  -0.00    -0.09  -0.17   0.07
  52   1    -0.01   0.01   0.01    -0.00   0.01   0.01     0.23  -0.23  -0.31
  53   1     0.01   0.09   0.00    -0.01  -0.10  -0.00     0.10   0.86   0.04
                    142                    143                    144
                        a                      a                      a 
 Frequencies --  3438.3194              3479.3872              3493.2269
 Red. masses --     2.1053                 1.4843                 1.4472
 Frc consts  --     0.0000                 0.0000                 0.0000
 IR Inten    --   159.6318                74.6898                21.4296
 Raman Activ --     0.0000                 0.0000                 0.0000
 Depolar     --     0.0000                 0.0000                 0.0000
 Atom AN      X      Y      Z        X      Y      Z        X      Y      Z
   1   8     0.00   0.00  -0.00     0.00   0.00  -0.01     0.00   0.00  -0.00
   2   6     0.00  -0.00  -0.00     0.00   0.00   0.00     0.00  -0.00  -0.00
   3   1     0.00  -0.00   0.00     0.00  -0.00   0.00     0.00  -0.00   0.00
   4   1    -0.00  -0.00   0.00     0.00   0.00  -0.00    -0.00  -0.00   0.00
   5   6    -0.00  -0.00   0.00     0.00  -0.00  -0.00     0.00   0.00   0.00
   6   1     0.00   0.00   0.00    -0.00   0.00  -0.00    -0.00  -0.00  -0.00
   7   1     0.00  -0.00  -0.00    -0.00  -0.00   0.00     0.00   0.00  -0.00
   8   7    -0.00  -0.00   0.00     0.00   0.00  -0.00     0.00  -0.00   0.00
   9   6     0.00   0.00   0.00     0.00  -0.00   0.00     0.00   0.00   0.00
  10   1    -0.00  -0.00   0.00     0.00   0.00   0.00     0.00  -0.00  -0.00
  11   1    -0.00   0.00  -0.00    -0.00   0.00  -0.00    -0.00   0.00  -0.00
  12   1     0.00  -0.00   0.00     0.00   0.00  -0.00     0.00   0.00   0.00
  13   6    -0.00  -0.00   0.00     0.00   0.00   0.00     0.00   0.00   0.00
  14   1    -0.00  -0.00  -0.00    -0.00   0.00  -0.00    -0.00   0.00  -0.00
  15   1    -0.00   0.00   0.00     0.00   0.00   0.00     0.00  -0.00   0.00
  16   1     0.00  -0.00  -0.00    -0.00  -0.00   0.00     0.00   0.00   0.00
  17   6     0.00  -0.00   0.00     0.00  -0.00  -0.00     0.00  -0.00   0.00
  18   1    -0.00   0.00  -0.00    -0.00   0.00  -0.00    -0.00   0.00  -0.00
  19   1     0.00  -0.00  -0.00    -0.00  -0.00   0.00    -0.00  -0.00   0.00
  20   1     0.00  -0.00   0.00     0.00   0.00   0.00     0.00   0.00  -0.00
  21   1    -0.00  -0.00   0.00    -0.02  -0.01   0.02    -0.00  -0.00   0.00
  22   6    -0.01   0.00  -0.00    -0.00  -0.00   0.00    -0.00   0.00   0.00
  23   8     0.00  -0.00   0.00     0.00   0.00  -0.00     0.00  -0.00  -0.00
  24   7     0.00  -0.00  -0.00    -0.00  -0.00  -0.00     0.00   0.00   0.00
  25   1    -0.01   0.02   0.00    -0.00   0.00   0.00     0.00  -0.01  -0.00
  26   1     0.01  -0.00   0.01     0.00  -0.00   0.00    -0.00   0.00  -0.00
  27   7     0.00  -0.01  -0.01    -0.00   0.00   0.00     0.00  -0.00  -0.00
  28   1    -0.01   0.01  -0.01     0.00  -0.00   0.00     0.00  -0.00   0.00
  29   1     0.01   0.02   0.05    -0.00  -0.00  -0.00     0.00   0.00   0.00
  30   6     0.00  -0.00  -0.00     0.00   0.00  -0.01    -0.00  -0.00  -0.00
  31   8    -0.00   0.00   0.00     0.00   0.00   0.00     0.00   0.00   0.00
  32   7     0.00   0.00  -0.00     0.08   0.01  -0.17     0.00   0.00  -0.00
  33   1    -0.00  -0.00   0.00    -0.53  -0.44   0.44    -0.00  -0.00   0.00
  34   1     0.00   0.00   0.00     0.24   0.41   0.21     0.00   0.00   0.00
  35   7     0.00   0.00  -0.00     0.01   0.01  -0.01     0.00   0.00  -0.00
  36   1    -0.00  -0.00  -0.00    -0.04  -0.08  -0.04    -0.00  -0.00  -0.00
  37   1    -0.00   0.00   0.00    -0.02   0.02   0.09    -0.00   0.00   0.00
  38   6    -0.01   0.00   0.00    -0.00  -0.00  -0.00    -0.00  -0.00   0.00
  39   8     0.00   0.00  -0.00     0.00   0.00   0.00     0.00   0.00  -0.00
  40   7    -0.00  -0.01  -0.01     0.00   0.00   0.00     0.00  -0.00  -0.00
  41   1     0.02   0.04   0.03    -0.00  -0.00  -0.00     0.00   0.00   0.00
  42   1    -0.01   0.00  -0.00     0.00  -0.00   0.00    -0.00   0.00  -0.00
  43   7     0.00   0.00   0.00     0.00   0.00   0.00     0.00   0.00   0.00
  44   1    -0.01   0.00  -0.00    -0.01   0.00  -0.00    -0.00   0.00  -0.00
  45   1     0.01  -0.02  -0.01     0.01  -0.01  -0.01     0.00  -0.00  -0.00
  46   6     0.00  -0.01  -0.00    -0.00   0.00   0.00     0.00  -0.00   0.00
  47   8    -0.00   0.00   0.00     0.00  -0.00  -0.00    -0.00   0.00   0.00
  48   7    -0.01   0.01   0.00     0.00   0.00  -0.00     0.00  -0.18  -0.00
  49   1    -0.00  -0.00   0.00    -0.00  -0.00   0.00     0.52   0.30  -0.31
  50   1     0.03  -0.02  -0.01     0.00  -0.00  -0.00    -0.52   0.39   0.31
  51   7     0.11  -0.22  -0.16     0.00   0.00   0.00     0.01  -0.00  -0.01
  52   1    -0.45   0.40   0.61     0.00   0.00  -0.00    -0.02   0.02   0.03
  53   1     0.06   0.41   0.00    -0.00  -0.00  -0.00    -0.00  -0.00  -0.00
                    145                    146                    147
                        a                      a                      a 
 Frequencies --  3498.2525              3501.9234              3527.9585
 Red. masses --     1.4574                 1.4444                 1.9412
 Frc consts  --     0.0000                 0.0000                 0.0000
 IR Inten    --    19.8994                21.7003                 9.2546
 Raman Activ --     0.0000                 0.0000                 0.0000
 Depolar     --     0.0000                 0.0000                 0.0000
 Atom AN      X      Y      Z        X      Y      Z        X      Y      Z
   1   8    -0.00  -0.00   0.00    -0.00  -0.00   0.00     0.00   0.00  -0.00
   2   6     0.00  -0.00   0.00     0.00   0.00   0.00    -0.00  -0.00  -0.00
   3   1     0.00   0.00  -0.00    -0.00   0.00  -0.00    -0.00   0.00   0.00
   4   1    -0.00  -0.00   0.00     0.00   0.00  -0.00     0.00   0.00   0.00
   5   6     0.00  -0.00  -0.00     0.00  -0.00  -0.00    -0.00  -0.00   0.00
   6   1     0.00   0.00   0.00     0.00   0.00   0.00    -0.00   0.00   0.00
   7   1     0.00   0.00   0.00    -0.00  -0.00   0.00     0.00   0.00  -0.00
   8   7     0.00   0.00   0.00    -0.00   0.00   0.00    -0.00  -0.00   0.00
   9   6     0.00  -0.00  -0.00    -0.00  -0.00   0.00     0.00   0.00  -0.00
  10   1    -0.00   0.00   0.00    -0.00   0.00   0.00     0.00   0.00  -0.00
  11   1     0.00  -0.00   0.00    -0.00   0.00  -0.00    -0.00  -0.00  -0.00
  12   1    -0.00  -0.00  -0.00     0.00  -0.00  -0.00    -0.00   0.00   0.00
  13   6     0.00  -0.00  -0.00    -0.00  -0.00  -0.00    -0.00  -0.00   0.00
  14   1    -0.00   0.00  -0.00     0.00  -0.00   0.00    -0.00  -0.00   0.00
  15   1    -0.00   0.00  -0.00    -0.00   0.00   0.00     0.00   0.00   0.00
  16   1    -0.00   0.00   0.00     0.00   0.00   0.00     0.00   0.00  -0.00
  17   6    -0.00  -0.00   0.00    -0.00   0.00  -0.00     0.00   0.00  -0.00
  18   1    -0.00   0.00   0.00    -0.00  -0.00  -0.00    -0.00  -0.00   0.00
  19   1     0.00   0.00   0.00     0.00   0.00   0.00    -0.00  -0.00  -0.00
  20   1    -0.00   0.00  -0.00     0.00  -0.00   0.00    -0.00  -0.00   0.00
  21   1     0.01   0.01  -0.01     0.00   0.00  -0.00    -0.00  -0.00   0.00
  22   6    -0.00  -0.00  -0.00     0.00   0.00   0.00     0.00  -0.00   0.00
  23   8     0.00   0.00   0.00    -0.00   0.00  -0.00    -0.00   0.00  -0.00
  24   7    -0.00  -0.00  -0.00     0.05   0.07   0.16    -0.00   0.00  -0.00
  25   1    -0.00   0.00   0.00     0.30  -0.58  -0.19     0.00  -0.00  -0.00
  26   1     0.00  -0.00   0.00    -0.47   0.32  -0.42     0.00  -0.00   0.00
  27   7    -0.00   0.00   0.00    -0.01   0.00  -0.01     0.00  -0.00   0.00
  28   1     0.00  -0.00   0.00     0.02  -0.02   0.03    -0.02   0.02  -0.02
  29   1    -0.00  -0.00  -0.00     0.00   0.01   0.01     0.00  -0.00   0.00
  30   6     0.00   0.00  -0.00     0.00   0.00   0.00     0.00   0.00   0.00
  31   8    -0.00  -0.00  -0.00    -0.00  -0.00  -0.00    -0.00  -0.00  -0.00
  32   7    -0.02  -0.01   0.03    -0.00  -0.00   0.00    -0.00  -0.00  -0.00
  33   1     0.08   0.07  -0.07     0.00   0.00  -0.00    -0.00  -0.00   0.00
  34   1    -0.03  -0.04  -0.02    -0.00  -0.00  -0.00     0.01   0.01   0.00
  35   7     0.11   0.11  -0.10     0.00   0.00  -0.00    -0.00  -0.00  -0.00
  36   1    -0.26  -0.58  -0.27    -0.00  -0.00  -0.00     0.01   0.01   0.01
  37   1    -0.14   0.18   0.65    -0.00   0.00   0.00     0.00  -0.00  -0.00
  38   6    -0.00  -0.00  -0.00    -0.00   0.00   0.00    -0.01   0.01   0.00
  39   8     0.00  -0.00  -0.00    -0.00  -0.00  -0.00     0.00  -0.00  -0.00
  40   7     0.00   0.00   0.00     0.00  -0.00  -0.00     0.08   0.00   0.01
  41   1    -0.00  -0.00  -0.00     0.00   0.01   0.01    -0.00  -0.02  -0.01
  42   1    -0.00  -0.00  -0.00    -0.01   0.00  -0.00    -0.28   0.01  -0.02
  43   7    -0.00  -0.00  -0.00    -0.00  -0.00  -0.00    -0.25   0.05  -0.02
  44   1     0.02  -0.00   0.00     0.00  -0.00   0.00     0.89  -0.11   0.17
  45   1    -0.01   0.01   0.01    -0.00   0.00   0.00     0.06  -0.09  -0.09
  46   6    -0.00   0.00   0.00    -0.00  -0.00   0.00     0.00  -0.00  -0.00
  47   8     0.00  -0.00  -0.00     0.00  -0.00  -0.00     0.00  -0.00   0.00
  48   7     0.00   0.00  -0.00     0.00   0.00  -0.00    -0.00  -0.00   0.00
  49   1    -0.00  -0.00   0.00    -0.01  -0.00   0.00     0.00   0.00  -0.00
  50   1     0.00  -0.00  -0.00     0.01  -0.00  -0.00    -0.00   0.00   0.00
  51   7     0.00   0.00  -0.00     0.00  -0.00  -0.00    -0.00  -0.00   0.00
  52   1    -0.00   0.00   0.00    -0.01   0.01   0.01     0.00  -0.00  -0.00
  53   1    -0.00  -0.00   0.00     0.00   0.00   0.00     0.00   0.01   0.00
                    148                    149                    150
                        a                      a                      a 
 Frequencies --  3535.1458              3538.2235              3549.8394
 Red. masses --     1.9154                 1.8938                 2.1594
 Frc consts  --     0.0000                 0.0000                 0.0000
 IR Inten    --    15.2192                17.7419                26.3949
 Raman Activ --     0.0000                 0.0000                 0.0000
 Depolar     --     0.0000                 0.0000                 0.0000
 Atom AN      X      Y      Z        X      Y      Z        X      Y      Z
   1   8    -0.00  -0.00  -0.00    -0.00  -0.00   0.00    -0.00  -0.00   0.00
   2   6    -0.00   0.00   0.00     0.00   0.00   0.00    -0.00  -0.00  -0.00
   3   1    -0.00  -0.00  -0.00     0.00  -0.00  -0.00    -0.00   0.00  -0.00
   4   1     0.00   0.00  -0.00    -0.00  -0.00  -0.00    -0.00  -0.00   0.00
   5   6     0.00   0.00  -0.00     0.00   0.00  -0.00     0.00   0.00   0.00
   6   1    -0.00  -0.00  -0.00    -0.00  -0.00   0.00    -0.00  -0.00  -0.00
   7   1    -0.00  -0.00   0.00    -0.00   0.00   0.00     0.00   0.00   0.00
   8   7     0.00   0.00  -0.00     0.00   0.00  -0.00    -0.00  -0.00   0.00
   9   6    -0.00   0.00   0.00    -0.00   0.00   0.00     0.00   0.00  -0.00
  10   1     0.00  -0.00  -0.00    -0.00  -0.00   0.00    -0.00  -0.00  -0.00
  11   1    -0.00   0.00  -0.00     0.00  -0.00   0.00     0.00  -0.00   0.00
  12   1     0.00   0.00  -0.00     0.00  -0.00  -0.00    -0.00  -0.00  -0.00
  13   6     0.00   0.00  -0.00    -0.00   0.00   0.00    -0.00   0.00  -0.00
  14   1    -0.00   0.00  -0.00     0.00  -0.00  -0.00     0.00  -0.00   0.00
  15   1     0.00  -0.00   0.00    -0.00  -0.00  -0.00    -0.00  -0.00  -0.00
  16   1    -0.00   0.00   0.00    -0.00   0.00  -0.00     0.00   0.00  -0.00
  17   6    -0.00  -0.00   0.00    -0.00  -0.00   0.00     0.00   0.00   0.00
  18   1    -0.00   0.00  -0.00    -0.00   0.00   0.00     0.00  -0.00   0.00
  19   1     0.00   0.00   0.00     0.00   0.00  -0.00    -0.00  -0.00   0.00
  20   1     0.00   0.00  -0.00     0.00   0.00  -0.00    -0.00  -0.00  -0.00
  21   1     0.00   0.00   0.00     0.00   0.00  -0.00     0.01   0.00  -0.01
  22   6     0.00  -0.00   0.01     0.00  -0.00   0.00     0.00   0.00  -0.00
  23   8    -0.00   0.00  -0.00    -0.00   0.00  -0.00    -0.00  -0.00   0.00
  24   7    -0.01   0.02   0.00    -0.00   0.00  -0.00    -0.00  -0.00  -0.00
  25   1     0.03  -0.07  -0.02    -0.00   0.00   0.00    -0.00   0.00   0.00
  26   1     0.01  -0.01   0.01     0.01  -0.00   0.01     0.00  -0.00   0.00
  27   7     0.14  -0.12   0.18    -0.00   0.00  -0.00    -0.00   0.00  -0.00
  28   1    -0.52   0.50  -0.62     0.01  -0.01   0.01     0.00  -0.00   0.00
  29   1    -0.02  -0.06  -0.08    -0.00  -0.00  -0.00     0.00   0.00   0.00
  30   6    -0.00   0.00   0.00    -0.00  -0.00  -0.00    -0.01  -0.01   0.00
  31   8     0.00  -0.00  -0.00     0.00   0.00   0.00     0.00   0.00  -0.00
  32   7    -0.00  -0.00  -0.00     0.00   0.00   0.00    -0.17  -0.23  -0.02
  33   1     0.00   0.00  -0.00    -0.00  -0.00   0.00     0.31   0.25  -0.28
  34   1     0.00   0.00   0.00    -0.00  -0.01  -0.00     0.36   0.62   0.34
  35   7     0.00   0.00   0.00     0.00   0.00   0.00     0.01   0.04   0.05
  36   1    -0.00  -0.00  -0.00    -0.00  -0.00  -0.00    -0.05  -0.12  -0.05
  37   1     0.00   0.00  -0.00     0.00  -0.00  -0.00     0.04  -0.04  -0.16
  38   6     0.00  -0.00  -0.00     0.01   0.00   0.00     0.00   0.00   0.00
  39   8    -0.00   0.00  -0.00    -0.00  -0.00  -0.00    -0.00  -0.00   0.00
  40   7     0.00   0.00   0.00     0.25   0.01   0.03     0.00  -0.00   0.00
  41   1    -0.00  -0.00  -0.00    -0.02  -0.06  -0.04     0.00   0.00  -0.00
  42   1    -0.01   0.00  -0.00    -0.92   0.02  -0.07    -0.00   0.00  -0.00
  43   7     0.01  -0.00  -0.00     0.07  -0.01   0.01     0.00  -0.00  -0.00
  44   1    -0.03   0.00  -0.01    -0.27   0.03  -0.05    -0.01   0.00  -0.00
  45   1    -0.00   0.01   0.01    -0.02   0.03   0.03    -0.00   0.00   0.00
  46   6     0.00   0.00  -0.00    -0.00   0.00   0.00     0.00  -0.00  -0.00
  47   8    -0.00   0.00   0.00     0.00   0.00  -0.00    -0.00   0.00   0.00
  48   7    -0.00  -0.00   0.00     0.00   0.00  -0.00    -0.00   0.00   0.00
  49   1     0.00   0.00  -0.00    -0.00  -0.00   0.00     0.00   0.00  -0.00
  50   1     0.00  -0.00  -0.00    -0.00   0.00   0.00     0.00  -0.00  -0.00
  51   7     0.00   0.00   0.00    -0.00   0.00   0.00    -0.00  -0.00   0.00
  52   1    -0.00   0.00   0.00     0.00  -0.00  -0.01     0.00  -0.00  -0.00
  53   1    -0.00  -0.01  -0.00    -0.00  -0.00   0.00     0.00   0.00  -0.00
                    151                    152                    153
                        a                      a                      a 
 Frequencies --  3559.8704              3562.4984              3569.5829
 Red. masses --     2.1840                 2.1825                 2.1885
 Frc consts  --     0.0000                 0.0000                 0.0000
 IR Inten    --    11.9113                25.3593                15.7905
 Raman Activ --     0.0000                 0.0000                 0.0000
 Depolar     --     0.0000                 0.0000                 0.0000
 Atom AN      X      Y      Z        X      Y      Z        X      Y      Z
   1   8    -0.00  -0.00  -0.00    -0.00  -0.00   0.00    -0.00   0.00   0.00
   2   6     0.00   0.00   0.00     0.00  -0.00  -0.00     0.00  -0.00  -0.00
   3   1     0.00  -0.00  -0.00    -0.00   0.00  -0.00    -0.00   0.00  -0.00
   4   1    -0.00  -0.00   0.00    -0.00  -0.00   0.00    -0.00   0.00  -0.00
   5   6    -0.00  -0.00  -0.00     0.00   0.00  -0.00     0.00   0.00  -0.00
   6   1     0.00   0.00   0.00    -0.00  -0.00   0.00    -0.00  -0.00  -0.00
   7   1     0.00  -0.00  -0.00    -0.00   0.00   0.00    -0.00  -0.00   0.00
   8   7     0.00   0.00  -0.00     0.00   0.00   0.00     0.00   0.00  -0.00
   9   6     0.00  -0.00  -0.00     0.00  -0.00   0.00     0.00   0.00   0.00
  10   1    -0.00   0.00   0.00    -0.00   0.00   0.00     0.00  -0.00  -0.00
  11   1    -0.00  -0.00   0.00    -0.00  -0.00   0.00    -0.00   0.00  -0.00
  12   1    -0.00  -0.00  -0.00    -0.00  -0.00  -0.00     0.00   0.00  -0.00
  13   6    -0.00  -0.00   0.00     0.00   0.00  -0.00     0.00   0.00  -0.00
  14   1    -0.00  -0.00  -0.00    -0.00  -0.00   0.00    -0.00   0.00  -0.00
  15   1     0.00   0.00  -0.00    -0.00  -0.00   0.00    -0.00  -0.00   0.00
  16   1     0.00  -0.00  -0.00    -0.00  -0.00   0.00    -0.00   0.00   0.00
  17   6     0.00   0.00  -0.00    -0.00   0.00   0.00     0.00  -0.00   0.00
  18   1    -0.00  -0.00   0.00    -0.00  -0.00   0.00    -0.00   0.00  -0.00
  19   1    -0.00  -0.00   0.00     0.00   0.00   0.00     0.00   0.00  -0.00
  20   1     0.00  -0.00   0.00    -0.00  -0.00  -0.00    -0.00  -0.00  -0.00
  21   1     0.00   0.00  -0.00     0.01   0.00  -0.01     0.00   0.00  -0.00
  22   6    -0.00   0.00   0.00    -0.00  -0.00  -0.00     0.01  -0.01   0.00
  23   8     0.00  -0.00  -0.00     0.00   0.00  -0.00    -0.00   0.00  -0.00
  24   7    -0.00   0.00  -0.00     0.00  -0.00   0.00     0.19  -0.23   0.05
  25   1     0.00  -0.00  -0.00    -0.00   0.00   0.00    -0.29   0.58   0.21
  26   1     0.00  -0.00   0.00    -0.00   0.00  -0.00    -0.44   0.28  -0.41
  27   7     0.00  -0.00   0.00     0.00  -0.00   0.00     0.01  -0.01   0.01
  28   1    -0.00   0.00  -0.00    -0.00   0.00  -0.00    -0.04   0.04  -0.05
  29   1     0.00  -0.00   0.00    -0.00  -0.00  -0.00    -0.00  -0.01  -0.01
  30   6     0.00   0.00   0.00    -0.00  -0.01  -0.01    -0.00   0.00   0.00
  31   8    -0.00  -0.00   0.00     0.00   0.00   0.00     0.00   0.00  -0.00
  32   7    -0.00  -0.00  -0.00    -0.04  -0.05  -0.00     0.00   0.00   0.00
  33   1     0.00   0.00  -0.00     0.07   0.06  -0.06    -0.00  -0.00   0.00
  34   1     0.00   0.00   0.00     0.08   0.15   0.08    -0.00  -0.00  -0.00
  35   7    -0.00   0.00   0.00    -0.03  -0.19  -0.22     0.00   0.00   0.00
  36   1    -0.00  -0.00  -0.00     0.26   0.56   0.23    -0.00  -0.00  -0.00
  37   1     0.00  -0.00  -0.00    -0.14   0.15   0.62     0.00  -0.00  -0.00
  38   6    -0.00  -0.00  -0.00    -0.00  -0.00  -0.00     0.00  -0.00  -0.00
  39   8     0.00   0.00  -0.00     0.00   0.00  -0.00    -0.00   0.00  -0.00
  40   7    -0.00  -0.00  -0.00     0.00   0.00   0.00     0.00   0.00   0.00
  41   1     0.00   0.00   0.00    -0.00  -0.00  -0.00    -0.00  -0.01  -0.00
  42   1     0.00  -0.00   0.00    -0.00  -0.00   0.00    -0.01   0.00  -0.00
  43   7    -0.00   0.00   0.00     0.00  -0.00  -0.00     0.00  -0.00   0.00
  44   1     0.00  -0.00   0.00    -0.01   0.00  -0.00    -0.00   0.00  -0.00
  45   1     0.00  -0.00  -0.00    -0.01   0.01   0.01    -0.00   0.00   0.00
  46   6     0.01   0.00  -0.01    -0.00   0.00   0.00     0.00   0.00  -0.00
  47   8    -0.00  -0.00   0.00     0.00  -0.00  -0.00    -0.00   0.00   0.00
  48   7     0.26  -0.01  -0.15     0.00  -0.00  -0.00     0.00  -0.00  -0.00
  49   1    -0.52  -0.34   0.32    -0.00  -0.00   0.00    -0.00  -0.00   0.00
  50   1    -0.46   0.37   0.27    -0.00   0.00   0.00    -0.00   0.00   0.00
  51   7     0.00  -0.00  -0.00     0.00   0.00  -0.00    -0.00   0.00   0.00
  52   1    -0.01   0.01   0.01    -0.00   0.00   0.00     0.00  -0.00  -0.01
  53   1     0.00   0.01   0.00    -0.00  -0.00   0.00    -0.00  -0.00   0.00
