 Entering Gaussian System
 *********************************************
 Gaussian 98:
 frequency output generated by the xtb code
 *********************************************
                         Standard orientation:
 --------------------------------------------------------------------
  Center     Atomic     Atomic              Coordinates (Angstroms)
  Number     Number      Type              X           Y           Z
 --------------------------------------------------------------------
    1          8             0       -0.529079    2.029635    1.868827
    2          6             0       -1.394499    2.427845    0.849296
    3          1             0       -2.315373    2.764695    1.332939
    4          1             0       -0.979223    3.283691    0.298403
    5          6             0       -1.684963    1.342246   -0.200485
    6          1             0       -0.747423    1.011512   -0.658408
    7          1             0       -2.315810    1.789766   -0.971110
    8          7             0       -2.364635    0.115383    0.294474
    9          6             0       -2.736938   -0.705161   -0.871811
   10          1             0       -3.449410   -0.171579   -1.497226
   11          1             0       -3.191646   -1.627819   -0.515011
   12          1             0       -1.840254   -0.928078   -1.447961
   13          6             0       -3.576137    0.419407    1.069831
   14          1             0       -4.242340    1.059039    0.494002
   15          1             0       -3.312096    0.912437    2.001905
   16          1             0       -4.077071   -0.521594    1.297707
   17          6             0       -1.448781   -0.680131    1.130684
   18          1             0       -1.976208   -1.568020    1.473236
   19          1             0       -1.118230   -0.088083    1.980861
   20          1             0       -0.588230   -0.967887    0.529609
   21          1             0        0.361812    1.881347    1.466482
   22          6             0        1.469972   -1.024975   -1.573675
   23          8             0        0.294622   -0.671555   -1.562709
   24          7             0        2.006160   -1.684678   -2.630037
   25          1             0        1.394785   -2.002910   -3.360496
   26          1             0        2.938209   -2.055271   -2.593211
   27          7             0        2.298721   -0.817665   -0.520337
   28          1             0        3.293060   -0.868706   -0.681411
   29          1             0        2.023503   -0.071601    0.109634
   30          6             0        2.857740    2.135422    1.397584
   31          8             0        1.876968    1.761713    0.726429
   32          7             0        2.677563    2.710716    2.604311
   33          1             0        1.743571    2.814705    2.962620
   34          1             0        3.448910    3.004892    3.174462
   35          7             0        4.103849    1.971251    0.953733
   36          1             0        4.894932    2.299430    1.476668
   37          1             0        4.257168    1.575477    0.017245
   38          6             0        3.543202    1.411476   -2.453355
   39          8             0        4.332908    0.970829   -1.621785
   40          7             0        3.777624    1.283744   -3.785290
   41          1             0        4.698959    0.990490   -4.061829
   42          1             0        3.236732    1.798007   -4.457352
   43          7             0        2.395264    2.028080   -2.101250
   44          1             0        1.692643    2.233870   -2.787793
   45          1             0        2.111775    1.981892   -1.126051
   46          6             0       -4.537524   -3.707945    1.570410
   47          8             0       -3.991905   -2.660376    1.251370
   48          7             0       -5.656028   -3.737643    2.332649
   49          1             0       -6.095260   -2.869894    2.581632
   50          1             0       -6.149471   -4.589891    2.524325
   51          7             0       -4.062604   -4.915130    1.180577
   52          1             0       -4.454683   -5.775903    1.515183
   53          1             0       -3.187946   -4.952202    0.688986
 --------------------------------------------------------------------
     1 basis functions        1 primitive gaussians
     1 alpha electrons        1 beta electrons

 Harmonic frequencies (cm**-1), IR intensities (km*mol⁻¹),
 Raman scattering activities (A**4/amu), Raman depolarization ratios,
 reduced masses (AMU), force constants (mDyne/A) and normal coordinates:
                      1                      2                      3
                        a                      a                      a 
 Frequencies --    -5.6199                11.4795                15.2855
 Red. masses --    10.9619                12.1891                12.2627
 Frc consts  --     0.0000                 0.0000                 0.0000
 IR Inten    --     0.0222                 0.7598                 1.5318
 Raman Activ --     0.0000                 0.0000                 0.0000
 Depolar     --     0.0000                 0.0000                 0.0000
 Atom AN      X      Y      Z        X      Y      Z        X      Y      Z
   1   8    -0.02   0.03  -0.02     0.07  -0.04   0.15     0.05  -0.14  -0.01
   2   6    -0.01   0.00  -0.03     0.07  -0.00   0.13     0.04  -0.13  -0.01
   3   1    -0.01   0.00  -0.01     0.02  -0.01   0.04     0.01  -0.04  -0.01
   4   1    -0.00  -0.00  -0.01     0.02   0.00   0.05     0.01  -0.04  -0.01
   5   6     0.00  -0.01  -0.02     0.09   0.02   0.09     0.05  -0.15  -0.00
   6   1     0.00  -0.00  -0.00     0.03   0.01   0.03     0.02  -0.05   0.00
   7   1     0.00  -0.01  -0.01     0.03   0.01   0.03     0.02  -0.04  -0.00
   8   7     0.01  -0.01  -0.01     0.07   0.02   0.05     0.04  -0.15   0.01
   9   6     0.02  -0.03   0.00     0.10   0.05   0.01     0.05  -0.15   0.01
  10   1     0.01  -0.01  -0.00     0.04   0.02   0.00     0.02  -0.05  -0.00
  11   1     0.01  -0.01   0.00     0.02   0.01  -0.01     0.01  -0.04   0.01
  12   1     0.01  -0.01   0.00     0.03   0.02   0.01     0.02  -0.05   0.01
  13   6     0.00  -0.01  -0.01     0.04   0.01   0.01     0.03  -0.12  -0.02
  14   1     0.00  -0.01  -0.01     0.02   0.01   0.00     0.01  -0.03  -0.01
  15   1    -0.00   0.00  -0.01     0.00  -0.00   0.01     0.00  -0.03  -0.01
  16   1     0.00  -0.00  -0.00     0.01   0.00  -0.01     0.00  -0.03  -0.00
  17   6     0.01   0.00   0.01     0.03  -0.01   0.06     0.02  -0.13   0.03
  18   1     0.01   0.00   0.00     0.00  -0.00   0.01     0.00  -0.03   0.01
  19   1     0.00   0.00   0.00     0.00  -0.01   0.02     0.01  -0.03   0.01
  20   1     0.00   0.00   0.00     0.01  -0.00   0.02     0.01  -0.04   0.01
  21   1    -0.00   0.01  -0.00     0.02  -0.01   0.04     0.01  -0.02   0.00
  22   6     0.02  -0.01   0.03     0.09  -0.04   0.14     0.11  -0.03   0.00
  23   8     0.03  -0.02   0.01     0.12   0.02   0.10     0.09  -0.16   0.09
  24   7     0.04  -0.03   0.05     0.09  -0.13   0.21     0.12   0.02  -0.04
  25   1     0.01  -0.01   0.01     0.03  -0.03   0.05     0.02  -0.02   0.01
  26   1     0.01  -0.01   0.02     0.02  -0.04   0.06     0.04   0.02  -0.02
  27   7     0.01   0.01   0.04     0.08  -0.03   0.17     0.17   0.06  -0.06
  28   1     0.00   0.00   0.01     0.02  -0.03   0.05     0.05   0.04  -0.03
  29   1     0.00   0.00   0.01     0.03   0.00   0.03     0.04   0.01  -0.01
  30   6    -0.02   0.04  -0.00     0.06   0.11  -0.03     0.04   0.05  -0.02
  31   8    -0.01   0.03  -0.00     0.04   0.01   0.07     0.06   0.02  -0.01
  32   7    -0.03   0.06  -0.01     0.12   0.18  -0.06     0.04   0.02  -0.01
  33   1    -0.01   0.02  -0.01     0.04   0.03   0.00     0.01  -0.01   0.00
  34   1    -0.01   0.02  -0.00     0.04   0.07  -0.04     0.01   0.01  -0.00
  35   7    -0.01   0.04   0.00     0.04   0.17  -0.13     0.05   0.13  -0.04
  36   1    -0.00   0.02   0.00     0.01   0.07  -0.06     0.01   0.04  -0.01
  37   1    -0.00   0.01   0.00    -0.00   0.04  -0.03     0.01   0.04  -0.01
  38   6     0.01  -0.01   0.01    -0.22  -0.08  -0.05     0.03   0.17  -0.04
  39   8     0.01   0.01   0.02    -0.12   0.07  -0.10     0.06   0.21  -0.08
  40   7     0.01  -0.04   0.01    -0.37  -0.22  -0.07     0.03   0.26  -0.05
  41   1     0.00  -0.01   0.01    -0.10  -0.05  -0.04     0.01   0.08  -0.02
  42   1     0.00  -0.01   0.00    -0.13  -0.08  -0.02    -0.00   0.07  -0.01
  43   7     0.00  -0.02  -0.00    -0.24  -0.11   0.00    -0.00   0.10  -0.01
  44   1     0.00  -0.01  -0.00    -0.09  -0.08   0.01    -0.00   0.03   0.00
  45   1    -0.00  -0.00  -0.00    -0.04  -0.02   0.01     0.00   0.02  -0.00
  46   6    -0.01  -0.00  -0.01    -0.03   0.00  -0.17    -0.24   0.02   0.06
  47   8     0.02  -0.01   0.01    -0.00   0.01  -0.12    -0.11  -0.08   0.03
  48   7     0.31  -0.01   0.46    -0.09  -0.01  -0.26    -0.30   0.22   0.02
  49   1     0.16  -0.00   0.24    -0.03  -0.00  -0.07    -0.05   0.08  -0.01
  50   1     0.07   0.00   0.13    -0.03  -0.00  -0.09    -0.11   0.08   0.01
  51   7    -0.38   0.02  -0.53    -0.03   0.01  -0.20    -0.42  -0.07   0.15
  52   1    -0.10  -0.00  -0.16    -0.01   0.00  -0.06    -0.14   0.00   0.05
  53   1    -0.16  -0.00  -0.25     0.00   0.00  -0.03    -0.11  -0.06   0.05
                      4                      5                      6
                        a                      a                      a 
 Frequencies --    19.3780                28.4863                35.8406
 Red. masses --    12.3061                12.4939                12.2135
 Frc consts  --     0.0000                 0.0000                 0.0000
 IR Inten    --     0.9032                 2.4628                 0.9262
 Raman Activ --     0.0000                 0.0000                 0.0000
 Depolar     --     0.0000                 0.0000                 0.0000
 Atom AN      X      Y      Z        X      Y      Z        X      Y      Z
   1   8     0.11  -0.04   0.05     0.01  -0.09   0.10     0.09  -0.33   0.14
   2   6    -0.02  -0.03   0.14    -0.05  -0.03   0.15     0.07  -0.13   0.19
   3   1     0.01  -0.02   0.07    -0.01  -0.03   0.06     0.03  -0.04   0.07
   4   1    -0.03  -0.00   0.03    -0.03   0.01   0.06     0.03  -0.02   0.09
   5   6    -0.09  -0.01   0.13    -0.03   0.04   0.07     0.01   0.02   0.06
   6   1    -0.03  -0.00   0.02    -0.01   0.04   0.00    -0.00  -0.00   0.02
   7   1    -0.04   0.00   0.05    -0.02   0.02   0.04     0.02   0.05   0.03
   8   7    -0.07  -0.01   0.16     0.06  -0.04  -0.00    -0.12   0.02  -0.11
   9   6    -0.10  -0.00   0.15     0.05   0.04  -0.06    -0.09   0.15  -0.20
  10   1    -0.03   0.00   0.05    -0.00   0.01   0.00    -0.00   0.07  -0.06
  11   1    -0.03  -0.00   0.04     0.04  -0.01  -0.03    -0.05   0.04  -0.09
  12   1    -0.03  -0.00   0.04     0.01   0.04  -0.03    -0.02   0.04  -0.05
  13   6    -0.05  -0.02   0.18     0.07  -0.17   0.07    -0.15   0.03  -0.17
  14   1    -0.02  -0.00   0.06     0.00  -0.04   0.04    -0.02   0.04  -0.05
  15   1    -0.01  -0.01   0.05     0.02  -0.07   0.03    -0.06  -0.02  -0.03
  16   1    -0.01  -0.01   0.05     0.04  -0.06   0.00    -0.07   0.01  -0.08
  17   6    -0.04  -0.02   0.11     0.12  -0.06  -0.10    -0.23  -0.11  -0.11
  18   1    -0.01  -0.00   0.04     0.05  -0.03  -0.05    -0.09  -0.03  -0.06
  19   1    -0.00  -0.01   0.03     0.04  -0.03  -0.02    -0.07  -0.06  -0.01
  20   1    -0.02  -0.00   0.02     0.03   0.01  -0.04    -0.06  -0.04  -0.02
  21   1     0.02   0.01  -0.01    -0.00  -0.01   0.01     0.02  -0.06   0.03
  22   6    -0.10   0.02   0.05    -0.02   0.18  -0.11    -0.01  -0.01   0.05
  23   8    -0.13  -0.04   0.12     0.02   0.37  -0.27    -0.01  -0.03   0.09
  24   7    -0.13   0.02   0.04     0.04   0.20  -0.09    -0.04  -0.03   0.04
  25   1    -0.04  -0.01   0.03     0.03   0.09  -0.06    -0.02  -0.02   0.02
  26   1    -0.03   0.01   0.00    -0.00   0.03  -0.00    -0.01  -0.01   0.01
  27   7    -0.05   0.10  -0.00    -0.14   0.02   0.01     0.03   0.03   0.01
  28   1    -0.02   0.04  -0.02    -0.03  -0.03   0.04     0.01   0.01  -0.00
  29   1    -0.01   0.03  -0.00    -0.03   0.01   0.00     0.01   0.01   0.00
  30   6     0.03   0.15  -0.12    -0.05   0.07  -0.01     0.05   0.06  -0.02
  31   8     0.05   0.18  -0.16    -0.04   0.04  -0.01     0.07   0.02   0.00
  32   7     0.01   0.22  -0.16    -0.07   0.14  -0.04     0.05   0.07  -0.02
  33   1     0.00   0.06  -0.05    -0.02   0.03  -0.01     0.02  -0.00   0.00
  34   1     0.00   0.05  -0.04    -0.02   0.04  -0.01     0.01   0.02  -0.01
  35   7     0.05   0.11  -0.08    -0.04   0.06   0.02     0.06   0.13  -0.04
  36   1     0.01   0.02  -0.02    -0.01   0.02   0.00     0.01   0.04  -0.01
  37   1     0.02   0.01  -0.01    -0.01   0.00   0.01     0.02   0.03  -0.01
  38   6     0.20  -0.06  -0.05     0.03  -0.14   0.04     0.05   0.01  -0.01
  39   8     0.13  -0.13   0.01     0.01  -0.10   0.09     0.06   0.03  -0.00
  40   7     0.31  -0.07  -0.04     0.03  -0.30   0.05     0.05  -0.01  -0.01
  41   1     0.08  -0.04   0.01     0.01  -0.09   0.02     0.01  -0.00  -0.00
  42   1     0.11  -0.01  -0.02     0.01  -0.09   0.00     0.01  -0.01  -0.00
  43   7     0.23   0.01  -0.14     0.05  -0.07  -0.03     0.04  -0.00  -0.01
  44   1     0.08   0.03  -0.05     0.01  -0.04  -0.01     0.01  -0.00  -0.00
  45   1     0.04   0.02  -0.04     0.01   0.00  -0.01     0.01   0.00  -0.00
  46   6    -0.08  -0.09  -0.08    -0.00  -0.03   0.01    -0.01   0.02   0.00
  47   8    -0.09  -0.05   0.09     0.18  -0.17  -0.13    -0.27   0.05  -0.35
  48   7    -0.15  -0.22  -0.18    -0.00   0.24   0.03     0.17  -0.02   0.26
  49   1    -0.05  -0.07  -0.03     0.04   0.09  -0.02     0.01  -0.01   0.03
  50   1    -0.04  -0.07  -0.09    -0.04   0.09   0.04     0.09  -0.02   0.13
  51   7    -0.03  -0.04  -0.20    -0.20  -0.16   0.17     0.14   0.02   0.19
  52   1    -0.01  -0.02  -0.08    -0.09  -0.01   0.07     0.09   0.00   0.10
  53   1     0.01   0.01  -0.03    -0.06  -0.10   0.04     0.00   0.02  -0.01
                      7                      8                      9
                        a                      a                      a 
 Frequencies --    42.1927                44.4268                52.5925
 Red. masses --    11.9364                12.3363                12.6395
 Frc consts  --     0.0000                 0.0000                 0.0000
 IR Inten    --     3.4174                 3.0377                 9.4662
 Raman Activ --     0.0000                 0.0000                 0.0000
 Depolar     --     0.0000                 0.0000                 0.0000
 Atom AN      X      Y      Z        X      Y      Z        X      Y      Z
   1   8     0.04  -0.02   0.09     0.02  -0.03   0.09    -0.05   0.02   0.07
   2   6     0.03   0.03   0.10     0.08   0.00   0.03    -0.03   0.01   0.05
   3   1     0.01   0.00   0.03     0.02   0.02  -0.00    -0.01  -0.00   0.01
   4   1     0.01   0.01   0.04     0.04  -0.01   0.01    -0.01   0.01   0.02
   5   6     0.03   0.07   0.06     0.08  -0.00   0.04     0.02   0.02   0.03
   6   1     0.01   0.03   0.01     0.02  -0.01   0.02     0.01   0.01   0.01
   7   1     0.00   0.03   0.03     0.03   0.00   0.01     0.01   0.01   0.00
   8   7     0.06   0.04   0.03     0.04   0.02   0.05     0.02   0.00  -0.01
   9   6     0.03   0.09   0.00     0.00   0.03   0.05     0.05   0.02  -0.03
  10   1     0.00   0.03   0.01     0.01   0.02   0.01     0.02   0.01  -0.01
  11   1     0.01   0.02  -0.01    -0.01   0.02   0.02     0.02   0.00  -0.02
  12   1     0.00   0.04  -0.01    -0.00  -0.00   0.02     0.02   0.01  -0.01
  13   6     0.08  -0.01   0.08     0.05   0.07   0.05     0.01  -0.03  -0.02
  14   1     0.02   0.00   0.04     0.02   0.03   0.01     0.00  -0.01  -0.01
  15   1     0.03  -0.01   0.03     0.02   0.02   0.01    -0.01  -0.01  -0.00
  16   1     0.03  -0.01   0.02     0.00   0.03   0.02     0.00  -0.01  -0.02
  17   6     0.09   0.01  -0.04     0.01  -0.01   0.04     0.02   0.00  -0.01
  18   1     0.03  -0.01  -0.02    -0.01   0.00   0.01     0.01  -0.00  -0.01
  19   1     0.03  -0.01  -0.00     0.01  -0.01   0.01    -0.00  -0.00   0.00
  20   1     0.02   0.02  -0.02    -0.00  -0.01   0.01     0.01   0.01   0.00
  21   1     0.00  -0.02   0.01    -0.00  -0.05   0.02    -0.01  -0.00   0.02
  22   6    -0.08  -0.17  -0.06     0.07  -0.04  -0.10    -0.01  -0.05   0.07
  23   8    -0.03   0.02  -0.10     0.05  -0.12   0.08     0.01  -0.00   0.02
  24   7    -0.27  -0.59   0.09     0.03   0.27  -0.33     0.01  -0.06   0.08
  25   1    -0.10  -0.18   0.05    -0.01   0.09  -0.08     0.01   0.01   0.00
  26   1    -0.09  -0.20   0.04     0.01   0.06  -0.12     0.00  -0.01   0.03
  27   7     0.01  -0.03  -0.18     0.15  -0.23  -0.13    -0.05  -0.14   0.12
  28   1    -0.00  -0.06  -0.05     0.04  -0.04  -0.06    -0.01  -0.04   0.04
  29   1     0.04   0.04  -0.08     0.04  -0.11   0.02    -0.01  -0.04   0.03
  30   6    -0.11  -0.00   0.00    -0.13  -0.00  -0.02    -0.01  -0.02  -0.07
  31   8    -0.06  -0.12  -0.03    -0.07  -0.35   0.05    -0.06  -0.08   0.05
  32   7    -0.22   0.01  -0.02    -0.26   0.22  -0.15     0.08   0.42  -0.27
  33   1    -0.07  -0.02  -0.01    -0.07   0.02  -0.04     0.03   0.13  -0.06
  34   1    -0.07   0.02   0.00    -0.08   0.12  -0.05     0.04   0.08  -0.07
  35   7    -0.08   0.11   0.05    -0.11   0.15   0.01    -0.02  -0.37  -0.01
  36   1    -0.04   0.06   0.02    -0.05   0.12  -0.02     0.00  -0.05  -0.04
  37   1    -0.00   0.04   0.01    -0.01   0.02   0.02    -0.02  -0.12   0.00
  38   6     0.05   0.11   0.02     0.01  -0.06   0.05    -0.04   0.03   0.01
  39   8     0.07   0.23   0.06     0.06   0.05   0.07    -0.18  -0.32  -0.05
  40   7     0.11   0.09   0.03     0.08   0.02   0.06     0.08   0.44  -0.00
  41   1     0.04   0.04   0.02     0.04   0.05   0.02     0.01   0.10  -0.00
  42   1     0.02   0.01  -0.00     0.00  -0.02   0.01     0.05   0.18   0.02
  43   7    -0.01   0.03  -0.05    -0.11  -0.27   0.04    -0.01   0.05   0.09
  44   1    -0.01  -0.03  -0.02    -0.04  -0.11   0.01     0.02   0.10   0.02
  45   1    -0.01   0.00  -0.02    -0.03  -0.10   0.01    -0.02  -0.04   0.02
  46   6     0.06   0.03  -0.03    -0.01   0.06   0.01     0.04  -0.01  -0.03
  47   8     0.16  -0.02  -0.06    -0.08   0.12   0.07     0.08  -0.05  -0.12
  48   7     0.06   0.13  -0.05    -0.01  -0.03   0.01     0.05   0.09  -0.01
  49   1     0.03   0.05  -0.02    -0.02  -0.02   0.01     0.02   0.03  -0.02
  50   1    -0.00   0.05  -0.01     0.01  -0.02  -0.01     0.00   0.03   0.01
  51   7    -0.02  -0.01   0.00     0.06   0.12  -0.05    -0.02  -0.05   0.03
  52   1    -0.02   0.01   0.01     0.03   0.02  -0.02    -0.02  -0.00   0.02
  53   1    -0.00  -0.02   0.00     0.02   0.05  -0.01    -0.01  -0.03   0.00
                     10                     11                     12
                        a                      a                      a 
 Frequencies --    56.4332                64.8437                73.7723
 Red. masses --    12.2163                11.8919                13.2532
 Frc consts  --     0.0000                 0.0000                 0.0000
 IR Inten    --     1.7404                 8.7079                 9.9252
 Raman Activ --     0.0000                 0.0000                 0.0000
 Depolar     --     0.0000                 0.0000                 0.0000
 Atom AN      X      Y      Z        X      Y      Z        X      Y      Z
   1   8     0.01  -0.14  -0.09     0.05   0.12  -0.12     0.02  -0.00   0.11
   2   6     0.14  -0.08  -0.17    -0.05   0.02  -0.06     0.01  -0.02   0.09
   3   1     0.04   0.02  -0.08    -0.01  -0.01   0.00    -0.00  -0.02   0.02
   4   1     0.08  -0.05  -0.06    -0.04   0.01  -0.03    -0.00   0.00   0.03
   5   6     0.07  -0.11  -0.13    -0.06  -0.01  -0.03     0.09  -0.02   0.07
   6   1     0.01  -0.05  -0.04    -0.02  -0.01  -0.00     0.04   0.01   0.03
   7   1     0.02  -0.03  -0.04    -0.02  -0.01  -0.01     0.03  -0.01   0.01
   8   7     0.04  -0.07  -0.06    -0.07   0.00  -0.01     0.11  -0.04   0.03
   9   6    -0.15  -0.03  -0.02     0.14  -0.12   0.02     0.19  -0.05   0.01
  10   1    -0.05   0.00   0.02     0.05  -0.06  -0.03     0.06  -0.02  -0.01
  11   1    -0.05  -0.00   0.01     0.05  -0.04   0.01     0.05  -0.02  -0.00
  12   1    -0.07  -0.02  -0.04     0.06  -0.03   0.04     0.06  -0.01   0.02
  13   6     0.14   0.03   0.08    -0.19  -0.00  -0.21     0.05  -0.05  -0.05
  14   1     0.04   0.02   0.04    -0.04  -0.03  -0.11     0.03  -0.01  -0.02
  15   1     0.08   0.00   0.01    -0.11   0.03  -0.06    -0.01  -0.02  -0.01
  16   1     0.03   0.02   0.04    -0.05  -0.00  -0.05     0.01  -0.02  -0.03
  17   6     0.06  -0.13  -0.15    -0.13   0.13   0.19     0.07  -0.01   0.09
  18   1     0.01  -0.03  -0.03    -0.03   0.04   0.05     0.02  -0.00   0.03
  19   1     0.05  -0.04  -0.05    -0.08   0.06   0.05     0.01   0.00   0.03
  20   1    -0.01  -0.06  -0.07    -0.01   0.04   0.10     0.03  -0.00   0.04
  21   1     0.02  -0.03   0.01     0.01   0.02  -0.04     0.00   0.00   0.02
  22   6    -0.10  -0.03  -0.13    -0.03   0.08  -0.04     0.11   0.07  -0.08
  23   8    -0.12  -0.03  -0.29     0.03   0.34   0.10     0.18   0.26  -0.27
  24   7    -0.03  -0.12  -0.05    -0.31  -0.05  -0.10     0.14  -0.12   0.06
  25   1     0.01  -0.04  -0.03    -0.13   0.02  -0.01     0.06  -0.01  -0.01
  26   1    -0.01  -0.03   0.01    -0.10  -0.07  -0.06     0.03  -0.05   0.04
  27   7    -0.20   0.03  -0.09     0.12  -0.05  -0.15     0.02   0.06   0.00
  28   1    -0.05  -0.01   0.00     0.03  -0.07  -0.06     0.01  -0.03   0.03
  29   1    -0.05   0.02  -0.03     0.08  -0.01  -0.03     0.01   0.05  -0.03
  30   6     0.12   0.12   0.08     0.14  -0.02   0.04    -0.10  -0.06  -0.02
  31   8     0.14   0.00   0.17     0.18  -0.15   0.10    -0.11   0.04  -0.10
  32   7     0.13   0.33  -0.01     0.12   0.20  -0.06    -0.14   0.04  -0.08
  33   1     0.04   0.07   0.01     0.03   0.04  -0.01    -0.04   0.03  -0.03
  34   1     0.04   0.10  -0.01     0.03   0.05  -0.01    -0.04  -0.03   0.00
  35   7     0.13   0.10   0.09     0.16  -0.09   0.10    -0.09  -0.30   0.11
  36   1     0.03   0.06   0.00     0.04   0.02   0.00    -0.03  -0.07   0.03
  37   1     0.03   0.01   0.03     0.04  -0.02   0.02    -0.02  -0.05   0.01
  38   6    -0.05   0.02   0.14     0.03   0.02   0.05     0.00   0.04  -0.06
  39   8    -0.05  -0.02   0.13     0.15   0.15   0.01    -0.01   0.10  -0.03
  40   7    -0.14  -0.04   0.14    -0.10  -0.08   0.04     0.01  -0.06  -0.05
  41   1    -0.05  -0.03   0.03    -0.02  -0.00  -0.01     0.00  -0.02  -0.01
  42   1    -0.04  -0.00   0.04    -0.05  -0.04   0.02     0.01  -0.02  -0.02
  43   7     0.02   0.13   0.19     0.02  -0.03   0.11     0.02   0.11  -0.12
  44   1    -0.00   0.04   0.06    -0.02  -0.05   0.04     0.00   0.00  -0.04
  45   1     0.01   0.03   0.05     0.02  -0.01   0.03    -0.01   0.03  -0.04
  46   6    -0.04   0.01   0.05    -0.03  -0.10   0.01    -0.15   0.02   0.06
  47   8    -0.11   0.08   0.16    -0.02  -0.13  -0.01    -0.41   0.15   0.09
  48   7    -0.07  -0.12   0.01    -0.02  -0.08   0.02    -0.12  -0.24   0.13
  49   1    -0.03  -0.05   0.02    -0.01  -0.02  -0.00    -0.08  -0.09   0.04
  50   1    -0.00  -0.05  -0.02    -0.01  -0.02   0.01     0.01  -0.09   0.02
  51   7     0.04   0.07  -0.04    -0.06  -0.12   0.02     0.07   0.13   0.00
  52   1     0.02   0.01  -0.03    -0.01  -0.03   0.02     0.07   0.01  -0.01
  53   1     0.02   0.05  -0.00    -0.01  -0.04   0.01     0.01   0.09  -0.01
                     13                     14                     15
                        a                      a                      a 
 Frequencies --    77.3202                81.1672                84.7549
 Red. masses --    12.8727                12.6655                12.6126
 Frc consts  --     0.0000                 0.0000                 0.0000
 IR Inten    --     1.8145                 3.2316                 6.0813
 Raman Activ --     0.0000                 0.0000                 0.0000
 Depolar     --     0.0000                 0.0000                 0.0000
 Atom AN      X      Y      Z        X      Y      Z        X      Y      Z
   1   8     0.01  -0.05   0.04    -0.03   0.25  -0.13    -0.01  -0.17  -0.06
   2   6     0.03  -0.04   0.01    -0.03   0.14  -0.13    -0.02  -0.05  -0.01
   3   1     0.01  -0.01  -0.00    -0.01   0.05  -0.04     0.00  -0.01   0.01
   4   1     0.01  -0.01   0.01    -0.01   0.03  -0.06     0.00  -0.01   0.01
   5   6     0.05  -0.04   0.00    -0.04   0.07  -0.06    -0.11   0.02  -0.05
   6   1     0.02  -0.01   0.01    -0.02   0.03  -0.03    -0.04   0.01  -0.04
   7   1     0.02  -0.01  -0.01    -0.03   0.00  -0.01    -0.04   0.02   0.00
   8   7     0.02  -0.03  -0.03     0.06   0.06   0.04    -0.11   0.01  -0.08
   9   6     0.15  -0.08  -0.03    -0.09   0.06   0.08    -0.20   0.08  -0.10
  10   1     0.05  -0.04  -0.03    -0.05   0.02   0.05    -0.07   0.03  -0.01
  11   1     0.04  -0.02  -0.01    -0.02   0.02   0.04    -0.05   0.02  -0.03
  12   1     0.06  -0.02   0.01    -0.04   0.02  -0.01    -0.07   0.03  -0.05
  13   6    -0.07  -0.01  -0.17     0.17   0.01   0.23    -0.03  -0.01   0.04
  14   1    -0.01  -0.02  -0.08     0.03   0.01   0.10    -0.02  -0.00   0.03
  15   1    -0.05   0.02  -0.05     0.09  -0.01   0.06     0.02  -0.01   0.01
  16   1    -0.02  -0.00  -0.05     0.06   0.00   0.07    -0.00  -0.01   0.02
  17   6    -0.06   0.02   0.10     0.20   0.07  -0.10    -0.05  -0.06  -0.19
  18   1    -0.03   0.01   0.03     0.08   0.01  -0.02    -0.01  -0.02  -0.06
  19   1    -0.04   0.02   0.03     0.08   0.02  -0.04     0.00  -0.04  -0.05
  20   1     0.00  -0.00   0.06     0.04   0.03  -0.06    -0.03  -0.01  -0.08
  21   1     0.00  -0.02   0.01    -0.01   0.05  -0.03    -0.00  -0.03  -0.01
  22   6    -0.04   0.05  -0.01     0.01   0.02   0.04     0.03   0.09   0.08
  23   8     0.02   0.30  -0.19     0.05   0.13   0.01     0.07   0.23  -0.01
  24   7    -0.03  -0.07   0.08    -0.02  -0.03   0.06     0.04  -0.00   0.16
  25   1     0.01   0.04  -0.02    -0.00   0.01   0.01     0.02   0.02   0.03
  26   1    -0.02  -0.04   0.04    -0.01  -0.02   0.02     0.00  -0.02   0.06
  27   7    -0.16  -0.13   0.12     0.00  -0.06   0.07    -0.01   0.05   0.13
  28   1    -0.04  -0.07   0.06     0.00  -0.04   0.02    -0.00  -0.02   0.05
  29   1    -0.03  -0.02   0.02     0.01  -0.01   0.02     0.01   0.02   0.03
  30   6     0.01   0.02  -0.04     0.05  -0.01   0.00     0.06  -0.04   0.02
  31   8     0.00  -0.14   0.05     0.04  -0.07   0.06     0.05  -0.00   0.02
  32   7     0.05  -0.22   0.07     0.08  -0.09   0.05     0.07   0.04  -0.01
  33   1     0.02  -0.08   0.04     0.02  -0.02   0.02     0.02   0.01  -0.00
  34   1     0.01   0.02  -0.02     0.02   0.01  -0.01     0.02  -0.02   0.01
  35   7    -0.02   0.45  -0.28     0.04   0.14  -0.09     0.06  -0.19   0.08
  36   1    -0.00   0.10  -0.07     0.01   0.03  -0.02     0.02  -0.03   0.01
  37   1    -0.01   0.06  -0.05     0.01   0.02  -0.02     0.01  -0.02   0.01
  38   6     0.01  -0.04   0.01     0.01  -0.02  -0.00     0.02   0.01  -0.06
  39   8    -0.10  -0.26   0.01     0.03  -0.01  -0.01     0.14   0.26  -0.05
  40   7     0.15   0.24   0.01     0.09   0.14  -0.00     0.15   0.15  -0.06
  41   1     0.04   0.06   0.01     0.04   0.07   0.00     0.07   0.12  -0.01
  42   1     0.06   0.10   0.01     0.01   0.03   0.01     0.00  -0.00  -0.02
  43   7     0.01  -0.06   0.02    -0.08  -0.20   0.01    -0.21  -0.42  -0.11
  44   1     0.02   0.03   0.00    -0.02  -0.06   0.00    -0.07  -0.17  -0.03
  45   1    -0.01  -0.05  -0.00    -0.02  -0.06   0.00    -0.04  -0.10  -0.03
  46   6    -0.01   0.02   0.06    -0.15  -0.14  -0.06     0.03   0.01   0.09
  47   8     0.01   0.06   0.21    -0.37  -0.14  -0.36     0.13   0.03   0.32
  48   7    -0.05  -0.05  -0.01    -0.02  -0.17   0.14    -0.06  -0.03  -0.04
  49   1    -0.01  -0.02   0.03    -0.05  -0.05  -0.03     0.00  -0.01   0.03
  50   1    -0.01  -0.02  -0.02     0.01  -0.05   0.06    -0.02  -0.01  -0.04
  51   7     0.01   0.06  -0.04    -0.04  -0.16   0.11    -0.02   0.04  -0.06
  52   1     0.00   0.01  -0.04     0.03  -0.04   0.09    -0.02   0.01  -0.05
  53   1     0.01   0.03   0.01    -0.03  -0.04  -0.01     0.01   0.02   0.02
                     16                     17                     18
                        a                      a                      a 
 Frequencies --    95.2131               103.4285               107.8785
 Red. masses --    12.4204                12.5182                11.8492
 Frc consts  --     0.0000                 0.0000                 0.0000
 IR Inten    --     3.1518                 7.3399                 5.0111
 Raman Activ --     0.0000                 0.0000                 0.0000
 Depolar     --     0.0000                 0.0000                 0.0000
 Atom AN      X      Y      Z        X      Y      Z        X      Y      Z
   1   8    -0.02   0.08   0.09    -0.05   0.13   0.15    -0.29   0.09   0.07
   2   6     0.03  -0.02   0.01    -0.05   0.15   0.15    -0.34  -0.01   0.10
   3   1    -0.00  -0.00  -0.02    -0.02   0.03   0.05    -0.11  -0.05   0.04
   4   1     0.01  -0.01  -0.01    -0.02   0.06   0.06    -0.14   0.02   0.04
   5   6     0.10  -0.09   0.06    -0.01   0.22   0.06    -0.21  -0.01   0.05
   6   1     0.04  -0.03   0.04     0.00   0.07   0.02    -0.05   0.04   0.01
   7   1     0.05  -0.04  -0.01     0.01   0.08   0.02    -0.08  -0.02   0.02
   8   7     0.06  -0.05   0.08    -0.04   0.19  -0.07    -0.05  -0.12   0.02
   9   6     0.16  -0.13   0.10     0.03   0.24  -0.12    -0.00  -0.09  -0.02
  10   1     0.06  -0.05   0.00     0.02   0.07  -0.04    -0.02  -0.03   0.01
  11   1     0.04  -0.03   0.04     0.01   0.06  -0.06     0.02  -0.04  -0.01
  12   1     0.06  -0.05   0.05     0.02   0.07  -0.02     0.00   0.00  -0.01
  13   6    -0.03   0.02  -0.08    -0.09   0.10  -0.11    -0.05  -0.28   0.09
  14   1     0.02   0.00  -0.06    -0.03   0.02  -0.04    -0.04  -0.09   0.05
  15   1    -0.04   0.02  -0.02    -0.05   0.03  -0.03    -0.01  -0.09   0.03
  16   1    -0.02   0.01  -0.03    -0.02   0.02  -0.04     0.01  -0.10   0.01
  17   6    -0.04   0.02   0.24    -0.07   0.14  -0.06     0.09  -0.05  -0.07
  18   1    -0.03   0.02   0.08    -0.03   0.04  -0.03     0.06  -0.03  -0.02
  19   1    -0.03   0.03   0.06    -0.03   0.03  -0.01     0.02  -0.01  -0.02
  20   1     0.00  -0.02   0.10    -0.02   0.04  -0.01     0.02   0.02  -0.04
  21   1     0.01   0.04   0.04    -0.01   0.03   0.04    -0.07   0.04   0.02
  22   6    -0.13  -0.02  -0.12     0.08  -0.11  -0.14     0.07  -0.03  -0.07
  23   8    -0.21  -0.21  -0.24     0.05  -0.27  -0.22     0.08  -0.03  -0.03
  24   7     0.03   0.01  -0.05     0.23  -0.09  -0.10     0.02  -0.10  -0.06
  25   1     0.03  -0.04  -0.02     0.08  -0.07  -0.02    -0.01  -0.04   0.00
  26   1     0.02   0.04   0.01     0.07  -0.01   0.00     0.00  -0.03  -0.02
  27   7    -0.24   0.17  -0.09     0.02   0.02  -0.12     0.13   0.05  -0.14
  28   1    -0.06   0.07  -0.00     0.01   0.03  -0.02     0.03   0.02  -0.04
  29   1    -0.09   0.04  -0.03    -0.02  -0.01  -0.03     0.03   0.01  -0.03
  30   6     0.04   0.06   0.07     0.01   0.02   0.02     0.03   0.01   0.02
  31   8    -0.00   0.21   0.08    -0.04   0.03   0.10    -0.07  -0.01   0.19
  32   7     0.13   0.05   0.10     0.12   0.05   0.03     0.21   0.04   0.04
  33   1     0.04   0.04   0.03     0.04   0.01   0.03     0.07   0.02   0.05
  34   1     0.05  -0.01   0.02     0.04   0.01  -0.01     0.08   0.02  -0.03
  35   7     0.02  -0.06   0.07    -0.01   0.03  -0.07    -0.02   0.04  -0.14
  36   1     0.02  -0.04   0.02     0.00   0.00  -0.03     0.01   0.01  -0.06
  37   1    -0.00  -0.00   0.01    -0.01  -0.00  -0.02    -0.02  -0.00  -0.03
  38   6    -0.01  -0.04  -0.02     0.03  -0.02   0.02     0.09  -0.05   0.01
  39   8     0.02   0.11   0.03     0.08  -0.03  -0.02     0.20  -0.07  -0.09
  40   7     0.14   0.09  -0.00    -0.02   0.00   0.01    -0.05  -0.00  -0.02
  41   1     0.06   0.08   0.02    -0.01  -0.00  -0.01    -0.02   0.00  -0.04
  42   1     0.01  -0.01  -0.01    -0.02  -0.01   0.01    -0.04  -0.00   0.02
  43   7    -0.21  -0.39  -0.08     0.04  -0.05   0.07     0.12  -0.08   0.15
  44   1    -0.05  -0.11  -0.03     0.00  -0.01   0.03     0.02  -0.01   0.06
  45   1    -0.04  -0.06  -0.02     0.02  -0.01   0.02     0.05  -0.03   0.04
  46   6     0.02   0.04  -0.08    -0.06  -0.18   0.11     0.01   0.16  -0.02
  47   8    -0.02   0.03  -0.22     0.02  -0.21   0.25    -0.06   0.23  -0.02
  48   7     0.07   0.09  -0.01    -0.11  -0.20   0.05     0.02   0.09  -0.03
  49   1     0.02   0.03  -0.02    -0.03  -0.05   0.02     0.00   0.02   0.02
  50   1     0.03   0.03   0.03    -0.06  -0.05  -0.03     0.04   0.01   0.02
  51   7     0.04   0.02   0.02    -0.14  -0.20   0.03     0.11   0.22  -0.04
  52   1     0.01   0.01   0.01    -0.04  -0.05   0.02     0.03   0.05  -0.04
  53   1    -0.01  -0.00  -0.03    -0.01  -0.06   0.05     0.02   0.08  -0.04
                     19                     20                     21
                        a                      a                      a 
 Frequencies --   116.3725               119.5009               134.9790
 Red. masses --    12.2898                11.9857                12.8987
 Frc consts  --     0.0000                 0.0000                 0.0000
 IR Inten    --    27.8515                 2.2044                 1.2110
 Raman Activ --     0.0000                 0.0000                 0.0000
 Depolar     --     0.0000                 0.0000                 0.0000
 Atom AN      X      Y      Z        X      Y      Z        X      Y      Z
   1   8    -0.10   0.01   0.11     0.31   0.04  -0.20     0.06   0.08   0.00
   2   6     0.02   0.01   0.01    -0.11   0.00   0.15    -0.04   0.03   0.06
   3   1    -0.01  -0.01  -0.02    -0.01  -0.08   0.14    -0.02  -0.03   0.04
   4   1     0.02   0.01   0.02    -0.14   0.05   0.05    -0.05   0.03   0.03
   5   6     0.18   0.03  -0.05    -0.20   0.11   0.05     0.04   0.06   0.00
   6   1     0.07   0.02   0.01    -0.07   0.07  -0.04     0.02   0.04  -0.00
   7   1     0.07   0.01  -0.03    -0.10   0.05   0.06     0.00   0.02   0.01
   8   7     0.20  -0.02  -0.16    -0.02  -0.01  -0.02     0.13  -0.02  -0.09
   9   6     0.20   0.04  -0.19     0.10  -0.00  -0.06     0.19   0.00  -0.12
  10   1     0.06   0.02  -0.05     0.02  -0.01  -0.02     0.06  -0.00  -0.04
  11   1     0.05   0.01  -0.07     0.05  -0.01  -0.03     0.06  -0.00  -0.05
  12   1     0.06   0.02  -0.05     0.04   0.02  -0.01     0.06   0.01  -0.03
  13   6     0.17  -0.07  -0.15    -0.08  -0.22  -0.02     0.07  -0.14  -0.11
  14   1     0.05  -0.02  -0.04    -0.04  -0.08   0.00     0.01  -0.05  -0.03
  15   1     0.05  -0.03  -0.04    -0.05  -0.07   0.00    -0.00  -0.04  -0.02
  16   1     0.05  -0.03  -0.05     0.01  -0.09  -0.02     0.04  -0.05  -0.05
  17   6     0.17  -0.06  -0.17     0.10   0.09  -0.06     0.15   0.02  -0.08
  18   1     0.05  -0.02  -0.06     0.06   0.01  -0.01     0.05  -0.00  -0.02
  19   1     0.05  -0.03  -0.04     0.02   0.03  -0.02     0.03   0.01  -0.02
  20   1     0.05  -0.01  -0.05     0.03   0.05  -0.03     0.05   0.01  -0.02
  21   1    -0.01   0.02   0.05     0.05   0.05  -0.12     0.00   0.01  -0.02
  22   6    -0.08   0.05   0.05     0.01  -0.11  -0.04    -0.21  -0.03   0.13
  23   8    -0.10   0.02   0.34     0.01  -0.14  -0.03    -0.29  -0.18   0.07
  24   7    -0.34   0.04  -0.06     0.04  -0.02  -0.08    -0.06   0.16   0.12
  25   1    -0.14   0.00   0.03     0.02   0.02  -0.04     0.01   0.04   0.01
  26   1    -0.09   0.01  -0.07     0.02   0.01  -0.03    -0.00   0.08   0.04
  27   7     0.13   0.12  -0.14    -0.01  -0.21   0.01    -0.34  -0.03   0.23
  28   1     0.03   0.06  -0.09    -0.00  -0.04  -0.00    -0.09  -0.01   0.09
  29   1     0.05   0.02  -0.02    -0.00  -0.06   0.00    -0.10  -0.01   0.06
  30   6    -0.03   0.08   0.05     0.11   0.06  -0.04     0.01  -0.09  -0.05
  31   8    -0.08   0.25   0.04     0.23   0.18  -0.25     0.02  -0.26  -0.01
  32   7     0.04   0.01   0.11    -0.08  -0.04  -0.02    -0.05  -0.01  -0.12
  33   1     0.02   0.03   0.03    -0.04  -0.02  -0.04    -0.01  -0.03  -0.03
  34   1     0.02  -0.02   0.03    -0.04  -0.04   0.05    -0.02   0.02  -0.03
  35   7    -0.05  -0.00   0.04     0.17   0.05   0.13     0.01  -0.02  -0.06
  36   1    -0.00  -0.04   0.02     0.03  -0.01   0.07    -0.01   0.04  -0.03
  37   1    -0.02  -0.01   0.01     0.06   0.02   0.04     0.02   0.01  -0.02
  38   6    -0.05  -0.08  -0.01    -0.13   0.01   0.11     0.11   0.09  -0.02
  39   8    -0.14  -0.17   0.03    -0.22  -0.02   0.18     0.29   0.26  -0.10
  40   7     0.06  -0.00   0.00     0.00   0.07   0.13    -0.09  -0.03  -0.04
  41   1     0.02  -0.00   0.02     0.01   0.03   0.06    -0.03   0.01  -0.04
  42   1     0.03   0.01  -0.00     0.02   0.03   0.03    -0.06  -0.03   0.00
  43   7    -0.09  -0.14  -0.05    -0.18  -0.05   0.03     0.12   0.06   0.09
  44   1     0.00   0.02  -0.02    -0.03   0.01  -0.00     0.00  -0.03   0.04
  45   1    -0.02  -0.01  -0.01    -0.05   0.00   0.01     0.05   0.00   0.03
  46   6    -0.04  -0.02   0.06    -0.02   0.05   0.02    -0.02   0.01   0.02
  47   8    -0.05   0.00   0.16    -0.06   0.08   0.04    -0.04   0.02   0.05
  48   7    -0.06  -0.10   0.04    -0.02  -0.00   0.01    -0.02  -0.04   0.03
  49   1    -0.03  -0.03   0.01    -0.01  -0.01   0.02    -0.02  -0.01  -0.00
  50   1    -0.03  -0.03  -0.04     0.01  -0.01   0.01    -0.01  -0.01  -0.02
  51   7    -0.03   0.00  -0.02     0.03   0.08  -0.01    -0.00   0.02  -0.01
  52   1     0.02  -0.00   0.01     0.01   0.01  -0.02     0.02   0.00   0.01
  53   1     0.01   0.01   0.03     0.00   0.04  -0.01     0.01   0.02   0.01
                     22                     23                     24
                        a                      a                      a 
 Frequencies --   147.6154               148.7514               169.1110
 Red. masses --    13.0225                 3.9827                12.1835
 Frc consts  --     0.0000                 0.0000                 0.0000
 IR Inten    --     8.6347                 6.5367                23.8126
 Raman Activ --     0.0000                 0.0000                 0.0000
 Depolar     --     0.0000                 0.0000                 0.0000
 Atom AN      X      Y      Z        X      Y      Z        X      Y      Z
   1   8     0.04  -0.05  -0.00    -0.00  -0.04  -0.01     0.17  -0.08  -0.11
   2   6     0.07  -0.02  -0.03    -0.01  -0.02   0.00     0.07  -0.01   0.01
   3   1     0.02   0.01  -0.02    -0.00  -0.00   0.00     0.04  -0.00   0.03
   4   1     0.04  -0.01  -0.01    -0.00  -0.01   0.00     0.01   0.00   0.00
   5   6     0.08  -0.04  -0.01    -0.03  -0.02   0.00    -0.08   0.06  -0.02
   6   1     0.02  -0.02   0.01    -0.01  -0.00  -0.00    -0.04   0.02  -0.05
   7   1     0.03  -0.01  -0.01    -0.01  -0.00   0.00    -0.05   0.03   0.03
   8   7     0.02   0.00   0.01    -0.02  -0.02   0.02    -0.00   0.03   0.00
   9   6    -0.02   0.01   0.02    -0.01  -0.02   0.02     0.04  -0.01   0.02
  10   1    -0.00   0.01   0.01    -0.01  -0.01   0.01     0.02  -0.01  -0.01
  11   1    -0.01   0.01   0.01     0.00  -0.01   0.00     0.01  -0.00   0.01
  12   1    -0.01  -0.01   0.00    -0.00  -0.00   0.00     0.02  -0.01   0.01
  13   6     0.03   0.08   0.00    -0.02  -0.00   0.02    -0.02  -0.03  -0.00
  14   1     0.02   0.03  -0.00    -0.01  -0.00   0.00    -0.02  -0.03  -0.01
  15   1     0.02   0.02   0.00    -0.00   0.00   0.00    -0.02   0.01  -0.01
  16   1    -0.01   0.03  -0.00    -0.00   0.00   0.01     0.02  -0.02   0.01
  17   6    -0.03  -0.03   0.03    -0.01   0.00   0.02     0.05   0.09   0.00
  18   1    -0.02   0.00   0.01    -0.00   0.00   0.01     0.03   0.01  -0.01
  19   1    -0.00  -0.01   0.01    -0.00   0.00   0.00    -0.01   0.03   0.01
  20   1    -0.01  -0.03   0.01    -0.00  -0.00   0.01     0.02   0.05   0.00
  21   1     0.01   0.01  -0.01    -0.00  -0.00  -0.00     0.03  -0.05  -0.05
  22   6     0.00   0.01  -0.02     0.01   0.00  -0.01     0.02   0.17   0.01
  23   8     0.03   0.09  -0.01     0.02   0.01  -0.02    -0.05  -0.03   0.01
  24   7    -0.05  -0.04   0.00     0.02  -0.01  -0.00     0.07  -0.00   0.14
  25   1    -0.01   0.03  -0.02     0.01  -0.00  -0.00     0.02  -0.11   0.09
  26   1    -0.01   0.00  -0.02     0.01  -0.00  -0.00     0.03   0.03   0.07
  27   7     0.02  -0.04  -0.01     0.01   0.00  -0.01     0.08   0.62  -0.15
  28   1     0.01  -0.01   0.00     0.00   0.00  -0.00     0.02   0.21  -0.06
  29   1    -0.00  -0.02   0.00     0.00   0.00  -0.00    -0.01   0.17  -0.06
  30   6    -0.07   0.07  -0.21    -0.01   0.01  -0.02    -0.01  -0.11  -0.01
  31   8    -0.14   0.35  -0.33    -0.01   0.03  -0.03     0.06  -0.31  -0.02
  32   7    -0.06  -0.13  -0.13    -0.00  -0.01  -0.01    -0.18  -0.02  -0.09
  33   1    -0.02   0.02  -0.06    -0.00   0.00  -0.01    -0.06  -0.05  -0.05
  34   1    -0.01  -0.07  -0.02    -0.00  -0.01  -0.00    -0.07   0.03  -0.01
  35   7    -0.09  -0.07  -0.18    -0.01  -0.01  -0.02     0.01   0.02   0.02
  36   1    -0.02  -0.09  -0.01    -0.00  -0.01  -0.00    -0.01   0.03   0.00
  37   1    -0.01  -0.01  -0.05    -0.00  -0.00  -0.01     0.02  -0.02   0.02
  38   6     0.04  -0.01   0.20     0.00  -0.00   0.02    -0.04  -0.11   0.04
  39   8     0.29  -0.00   0.02     0.03  -0.00   0.01    -0.04  -0.26  -0.03
  40   7    -0.21   0.11   0.15    -0.02   0.01   0.02    -0.09   0.08   0.03
  41   1    -0.06   0.07  -0.02    -0.01   0.01  -0.00    -0.04   0.01  -0.02
  42   1    -0.11   0.03   0.08    -0.01   0.00   0.01    -0.04   0.03   0.03
  43   7     0.04  -0.21   0.45     0.00  -0.02   0.05    -0.02  -0.13   0.14
  44   1    -0.00  -0.03   0.14    -0.00  -0.00   0.01    -0.00  -0.01   0.05
  45   1     0.04  -0.05   0.13     0.00  -0.00   0.01    -0.00  -0.05   0.04
  46   6     0.00  -0.02  -0.00     0.02   0.04  -0.02    -0.01   0.00  -0.00
  47   8     0.01  -0.02  -0.01     0.02   0.04  -0.02    -0.01   0.00  -0.01
  48   7    -0.01  -0.00  -0.03     0.18   0.02   0.28    -0.00  -0.00  -0.00
  49   1     0.02  -0.00   0.03    -0.19   0.01  -0.35     0.00  -0.00   0.00
  50   1     0.02  -0.00   0.04    -0.23   0.04  -0.44     0.00  -0.00   0.01
  51   7     0.01  -0.02   0.03    -0.15   0.01  -0.27     0.00   0.00   0.01
  52   1    -0.03  -0.01  -0.04     0.26   0.04   0.40    -0.00  -0.00  -0.01
  53   1    -0.02  -0.01  -0.03     0.19   0.02   0.32    -0.00   0.00  -0.01
                     25                     26                     27
                        a                      a                      a 
 Frequencies --   181.8868               193.1177               262.0405
 Red. masses --    12.6117                10.6509                12.3166
 Frc consts  --     0.0000                 0.0000                 0.0000
 IR Inten    --    30.7144                 6.1079                22.3591
 Raman Activ --     0.0000                 0.0000                 0.0000
 Depolar     --     0.0000                 0.0000                 0.0000
 Atom AN      X      Y      Z        X      Y      Z        X      Y      Z
   1   8    -0.07   0.03   0.04    -0.12  -0.55  -0.02    -0.53  -0.20   0.14
   2   6    -0.03   0.01  -0.00     0.13  -0.01  -0.04    -0.28   0.02   0.02
   3   1    -0.01   0.00  -0.01     0.06   0.08  -0.02    -0.11  -0.01  -0.03
   4   1    -0.01   0.00   0.00     0.14  -0.03   0.02    -0.05   0.03   0.07
   5   6     0.01  -0.01   0.00    -0.22   0.18  -0.15     0.04   0.04  -0.05
   6   1     0.01  -0.00   0.01    -0.11   0.07  -0.15     0.04   0.03   0.04
   7   1     0.01  -0.01  -0.01    -0.15   0.08   0.04     0.04  -0.02  -0.06
   8   7     0.00  -0.01  -0.01     0.03   0.13  -0.01     0.08   0.06   0.01
   9   6    -0.00   0.00  -0.01     0.13  -0.11   0.12     0.07   0.00   0.06
  10   1    -0.00   0.00  -0.00     0.04  -0.07  -0.01     0.02  -0.01   0.01
  11   1    -0.00   0.00  -0.01     0.04  -0.02   0.08     0.03   0.00   0.03
  12   1    -0.00   0.00  -0.00     0.05  -0.05   0.06     0.02  -0.00   0.02
  13   6     0.01  -0.01  -0.00     0.01   0.02   0.01     0.11   0.19   0.02
  14   1     0.00   0.00   0.00    -0.06  -0.09  -0.03     0.08   0.14   0.04
  15   1     0.00  -0.00   0.00    -0.01   0.10  -0.04     0.06  -0.03   0.04
  16   1    -0.00  -0.00  -0.00     0.07  -0.01   0.08    -0.04   0.08  -0.05
  17   6    -0.00  -0.02  -0.01     0.19   0.35   0.03     0.01   0.02   0.05
  18   1    -0.00  -0.01  -0.00     0.12   0.05  -0.03    -0.01  -0.00  -0.02
  19   1    -0.00  -0.01  -0.00    -0.02   0.10   0.04    -0.03  -0.02   0.04
  20   1    -0.00  -0.01  -0.00     0.10   0.19   0.03     0.02   0.01   0.03
  21   1    -0.02  -0.00   0.02    -0.01  -0.11   0.03    -0.13  -0.05   0.06
  22   6     0.01   0.03   0.02    -0.01  -0.05   0.01    -0.00   0.02  -0.01
  23   8    -0.01  -0.02   0.05    -0.01  -0.05   0.02    -0.01  -0.01  -0.02
  24   7     0.02   0.07  -0.01    -0.01   0.02  -0.04    -0.00  -0.04   0.04
  25   1    -0.02  -0.06   0.05    -0.01   0.00  -0.00     0.03   0.05  -0.04
  26   1    -0.02  -0.05   0.04    -0.01  -0.01  -0.01     0.04   0.10  -0.04
  27   7     0.04   0.15  -0.04    -0.02  -0.09   0.02    -0.01   0.02   0.00
  28   1     0.01   0.03  -0.01    -0.00  -0.02   0.01    -0.00   0.00  -0.00
  29   1     0.01   0.05  -0.02    -0.01  -0.03   0.01     0.01   0.03  -0.02
  30   6     0.05  -0.12  -0.21    -0.04   0.03   0.02     0.17  -0.04  -0.11
  31   8    -0.07  -0.16  -0.07    -0.11   0.10   0.07     0.27  -0.05  -0.23
  32   7     0.25  -0.09  -0.22     0.08   0.04   0.04    -0.10  -0.06  -0.15
  33   1     0.09  -0.02  -0.01     0.03   0.00   0.04    -0.05  -0.07  -0.08
  34   1     0.10  -0.02  -0.10     0.04  -0.03   0.00    -0.07  -0.05   0.03
  35   7    -0.01  -0.12  -0.36    -0.09  -0.04  -0.06     0.30   0.07   0.14
  36   1     0.00  -0.02  -0.11    -0.01  -0.02  -0.03     0.04   0.05   0.08
  37   1    -0.03  -0.03  -0.11    -0.04  -0.00  -0.02     0.12   0.03   0.04
  38   6    -0.09   0.09   0.20     0.02   0.02  -0.00    -0.02  -0.00   0.01
  39   8    -0.17   0.23   0.38     0.02   0.05   0.01    -0.04  -0.02   0.01
  40   7     0.20  -0.11   0.31     0.02  -0.02   0.01    -0.02  -0.00  -0.01
  41   1     0.06  -0.06   0.15     0.01  -0.01   0.01     0.00   0.03   0.01
  42   1     0.06  -0.12   0.01     0.00  -0.02  -0.01     0.02   0.05   0.01
  43   7    -0.15   0.11  -0.04     0.01   0.02  -0.02    -0.02  -0.01  -0.00
  44   1    -0.02  -0.00  -0.05     0.01   0.01  -0.01    -0.01  -0.00   0.00
  45   1    -0.08   0.05  -0.02    -0.00   0.01  -0.00     0.00  -0.00   0.00
  46   6     0.00   0.00   0.00    -0.01  -0.00  -0.01     0.00  -0.01   0.00
  47   8     0.00   0.00   0.01    -0.04   0.00  -0.03     0.00  -0.01   0.00
  48   7    -0.00  -0.00  -0.00    -0.01  -0.01   0.00    -0.00  -0.01   0.00
  49   1     0.00  -0.00   0.00    -0.00  -0.00   0.01     0.00  -0.00  -0.00
  50   1     0.00  -0.00   0.00     0.01  -0.01   0.02    -0.00  -0.00  -0.00
  51   7     0.00   0.00  -0.00     0.01  -0.00   0.01    -0.01  -0.02   0.01
  52   1     0.00   0.00  -0.00    -0.00  -0.00  -0.01    -0.01  -0.00   0.00
  53   1     0.00   0.00   0.00    -0.01   0.00  -0.01    -0.00  -0.01   0.00
                     28                     29                     30
                        a                      a                      a 
 Frequencies --   269.0195               275.7960               286.8630
 Red. masses --     3.6078                 4.0089                 4.0291
 Frc consts  --     0.0000                 0.0000                 0.0000
 IR Inten    --    73.7371                 6.9112               381.9970
 Raman Activ --     0.0000                 0.0000                 0.0000
 Depolar     --     0.0000                 0.0000                 0.0000
 Atom AN      X      Y      Z        X      Y      Z        X      Y      Z
   1   8     0.12  -0.07  -0.13     0.10  -0.15  -0.13    -0.10   0.01   0.03
   2   6    -0.11  -0.06   0.06    -0.17  -0.11   0.11     0.00   0.04  -0.04
   3   1    -0.03  -0.10   0.06    -0.05  -0.14   0.09    -0.00   0.04  -0.04
   4   1    -0.10   0.04   0.05    -0.14   0.05   0.08     0.03  -0.01  -0.02
   5   6     0.03   0.00  -0.04     0.02   0.02  -0.06     0.01  -0.01   0.01
   6   1     0.02   0.01   0.01     0.02   0.03   0.00     0.01  -0.00   0.01
   7   1     0.02  -0.01  -0.02     0.01  -0.00  -0.03     0.01  -0.01  -0.00
   8   7     0.03   0.02  -0.03     0.04   0.03  -0.05     0.01  -0.01   0.02
   9   6    -0.01  -0.06   0.04    -0.01  -0.09   0.06     0.03   0.05  -0.03
  10   1    -0.06  -0.05   0.05    -0.11  -0.10   0.08     0.03   0.04  -0.02
  11   1     0.06  -0.04   0.04     0.11  -0.07   0.06    -0.02   0.02  -0.03
  12   1    -0.02   0.03  -0.03    -0.03   0.06  -0.06     0.01   0.00   0.01
  13   6     0.05   0.13  -0.03     0.06   0.18  -0.06     0.01  -0.05   0.03
  14   1     0.10   0.17   0.04     0.15   0.28   0.08    -0.03  -0.07  -0.01
  15   1     0.04  -0.10   0.06     0.05  -0.18   0.10    -0.00   0.05  -0.02
  16   1    -0.08   0.06  -0.13    -0.14   0.09  -0.22     0.05  -0.02   0.06
  17   6     0.03   0.05   0.01     0.06   0.12   0.01    -0.03  -0.06   0.03
  18   1    -0.02   0.07   0.10    -0.02   0.12   0.15    -0.00  -0.05  -0.05
  19   1     0.09   0.06  -0.06     0.14   0.11  -0.10    -0.06  -0.05   0.05
  20   1    -0.04  -0.08  -0.02    -0.06  -0.10  -0.04     0.03   0.03   0.04
  21   1     0.03   0.06  -0.07     0.02   0.00  -0.07    -0.02   0.00   0.02
  22   6     0.00   0.01  -0.00    -0.01  -0.02   0.02    -0.03  -0.05   0.04
  23   8     0.01   0.01   0.01     0.00   0.00   0.01    -0.00   0.02  -0.01
  24   7    -0.01  -0.01   0.01     0.04   0.10  -0.07     0.12   0.28  -0.19
  25   1     0.00   0.01  -0.01    -0.04  -0.12   0.09    -0.10  -0.33   0.23
  26   1     0.00   0.01  -0.01    -0.08  -0.19   0.12    -0.22  -0.53   0.33
  27   7     0.01  -0.00   0.00     0.00  -0.01   0.00    -0.03  -0.07   0.04
  28   1     0.00   0.02  -0.00    -0.00   0.01  -0.01    -0.01   0.03  -0.03
  29   1    -0.01  -0.01   0.00    -0.00  -0.01   0.01     0.00   0.01  -0.01
  30   6    -0.05  -0.05   0.06    -0.03   0.04   0.03     0.04   0.01  -0.01
  31   8    -0.08  -0.01   0.07    -0.04   0.00   0.06     0.07   0.05  -0.07
  32   7     0.02   0.28  -0.07     0.02  -0.12   0.11    -0.06   0.04  -0.03
  33   1     0.04  -0.38   0.21    -0.01   0.23  -0.08    -0.02  -0.10   0.02
  34   1     0.05  -0.57   0.26    -0.01   0.35  -0.16    -0.02  -0.15   0.08
  35   7    -0.09   0.00  -0.06    -0.06  -0.02  -0.01     0.07   0.01   0.07
  36   1    -0.03   0.14  -0.10     0.00  -0.09   0.02     0.01   0.06   0.00
  37   1    -0.04   0.06  -0.04    -0.02  -0.04   0.01     0.03   0.04   0.00
  38   6     0.01  -0.00  -0.00     0.00  -0.01  -0.01    -0.00  -0.05  -0.03
  39   8     0.01  -0.01  -0.00     0.01  -0.00  -0.01     0.01  -0.05  -0.04
  40   7     0.01  -0.01   0.00     0.01   0.04   0.00     0.01   0.14   0.01
  41   1     0.00  -0.00   0.00    -0.02  -0.03  -0.02    -0.06  -0.09  -0.06
  42   1     0.00  -0.01  -0.00    -0.05  -0.06  -0.01    -0.14  -0.16  -0.03
  43   7     0.01  -0.02   0.01     0.01   0.02  -0.00     0.02   0.00   0.01
  44   1     0.02   0.04   0.00    -0.01  -0.03   0.00    -0.01  -0.03   0.01
  45   1     0.00   0.01   0.00     0.00  -0.01  -0.00     0.01   0.00   0.00
  46   6     0.00  -0.00  -0.00     0.01  -0.01   0.01    -0.01   0.00  -0.00
  47   8     0.00  -0.01  -0.00     0.01  -0.01   0.00    -0.00   0.01   0.00
  48   7     0.00  -0.00   0.00    -0.01  -0.01  -0.02     0.00  -0.01   0.01
  49   1     0.00  -0.00  -0.00     0.01  -0.00   0.02    -0.01  -0.00  -0.01
  50   1    -0.00   0.00  -0.00     0.02  -0.00   0.03    -0.01  -0.00  -0.02
  51   7    -0.00  -0.01   0.01    -0.02  -0.02  -0.01     0.01   0.01   0.01
  52   1    -0.01  -0.00  -0.00     0.01  -0.00   0.03    -0.01   0.00  -0.02
  53   1    -0.00  -0.01  -0.00     0.01  -0.01   0.02    -0.00   0.00  -0.01
                     31                     32                     33
                        a                      a                      a 
 Frequencies --   311.5168               317.6459               329.3492
 Red. masses --     9.2242                 3.5274                 4.2472
 Frc consts  --     0.0000                 0.0000                 0.0000
 IR Inten    --     8.7421               519.2296                 3.5750
 Raman Activ --     0.0000                 0.0000                 0.0000
 Depolar     --     0.0000                 0.0000                 0.0000
 Atom AN      X      Y      Z        X      Y      Z        X      Y      Z
   1   8     0.00   0.19   0.40    -0.00  -0.00   0.02    -0.13  -0.02   0.11
   2   6     0.08  -0.08   0.15    -0.01  -0.01   0.02     0.22   0.09  -0.16
   3   1     0.01  -0.01   0.01    -0.00  -0.01   0.01     0.07   0.15  -0.12
   4   1     0.04  -0.04   0.04    -0.01   0.00   0.01     0.20  -0.06  -0.08
   5   6     0.07  -0.05   0.02     0.01  -0.00  -0.00    -0.04  -0.01   0.02
   6   1     0.02  -0.02   0.01     0.01  -0.00   0.01    -0.03  -0.04  -0.01
   7   1     0.05   0.04   0.01     0.01   0.00  -0.00    -0.02   0.00   0.01
   8   7    -0.07  -0.04  -0.14    -0.01   0.00  -0.02    -0.06   0.01   0.06
   9   6    -0.31  -0.29   0.11    -0.02  -0.02   0.00     0.09   0.14  -0.09
  10   1    -0.16  -0.14   0.07    -0.05  -0.03   0.03    -0.24  -0.09   0.17
  11   1    -0.03  -0.07   0.14     0.04  -0.02   0.02     0.35  -0.13  -0.06
  12   1    -0.14  -0.09  -0.04    -0.02   0.03  -0.03    -0.01   0.36  -0.20
  13   6    -0.09   0.05  -0.21    -0.01   0.01  -0.03    -0.14  -0.27   0.05
  14   1    -0.07  -0.11  -0.15    -0.01  -0.02  -0.02    -0.02  -0.01   0.08
  15   1    -0.06   0.15  -0.13    -0.01   0.02  -0.02    -0.06  -0.18   0.08
  16   1     0.03   0.01   0.06     0.01   0.00   0.02    -0.05  -0.11  -0.11
  17   6     0.20   0.21  -0.21     0.01   0.02  -0.02    -0.03   0.07   0.09
  18   1     0.11   0.08   0.08    -0.00   0.03   0.04    -0.06   0.12   0.20
  19   1     0.14   0.14  -0.15     0.04   0.03  -0.04     0.14   0.11  -0.09
  20   1    -0.00   0.02  -0.13    -0.02  -0.03  -0.02    -0.10  -0.15  -0.03
  21   1     0.01   0.03   0.11     0.00   0.00   0.01    -0.02  -0.04   0.08
  22   6     0.00   0.01   0.01     0.00   0.00   0.00     0.00  -0.01   0.01
  23   8     0.00   0.02  -0.00     0.00   0.00   0.01    -0.00  -0.01   0.01
  24   7     0.01   0.02  -0.00    -0.00   0.00   0.00    -0.00  -0.00   0.00
  25   1    -0.00  -0.02   0.01    -0.00   0.00   0.00     0.00   0.00   0.00
  26   1    -0.01  -0.03   0.02    -0.00   0.00  -0.00     0.00   0.01  -0.01
  27   7     0.01  -0.01   0.01     0.01   0.00  -0.00     0.01   0.00   0.00
  28   1     0.00  -0.00  -0.00     0.00  -0.00   0.00     0.00   0.01  -0.00
  29   1     0.01   0.01  -0.00     0.00  -0.00   0.00    -0.00  -0.00   0.00
  30   6     0.04  -0.01  -0.04     0.00  -0.00  -0.00     0.02  -0.01  -0.03
  31   8     0.06  -0.01  -0.07     0.00  -0.00  -0.00     0.03   0.00  -0.05
  32   7    -0.05  -0.02  -0.05     0.00  -0.01   0.00    -0.03  -0.01  -0.04
  33   1    -0.02  -0.03  -0.02    -0.00   0.01  -0.01    -0.01  -0.02  -0.01
  34   1    -0.02  -0.05   0.02    -0.00   0.03  -0.01    -0.01  -0.04   0.02
  35   7     0.08   0.02   0.04     0.00   0.00   0.00     0.05   0.01   0.03
  36   1     0.01   0.03   0.02     0.00  -0.01   0.01     0.00   0.02   0.01
  37   1     0.04   0.01   0.01     0.00  -0.00   0.00     0.03   0.01   0.01
  38   6    -0.00  -0.01   0.00    -0.00   0.00   0.00    -0.00  -0.00   0.00
  39   8    -0.00  -0.01  -0.00    -0.00   0.00   0.00    -0.00  -0.00   0.00
  40   7    -0.01   0.01  -0.00    -0.00  -0.01  -0.00    -0.01  -0.00  -0.00
  41   1    -0.01  -0.00  -0.01     0.00   0.00   0.00     0.00   0.00   0.00
  42   1    -0.01  -0.00   0.00     0.01   0.01   0.00     0.01   0.01   0.00
  43   7     0.00   0.00   0.00    -0.00   0.00  -0.00    -0.00   0.00  -0.00
  44   1    -0.00  -0.01   0.00    -0.00  -0.01  -0.00    -0.00  -0.00  -0.00
  45   1     0.00  -0.00   0.00    -0.00  -0.00  -0.00    -0.00  -0.00   0.00
  46   6     0.00  -0.00  -0.00    -0.06   0.00  -0.10    -0.01   0.01   0.01
  47   8    -0.01   0.00  -0.02     0.01  -0.01  -0.01    -0.01   0.01  -0.00
  48   7    -0.01   0.01  -0.03     0.13  -0.03   0.26    -0.01  -0.00  -0.01
  49   1     0.01   0.00   0.02    -0.13   0.00  -0.25     0.00  -0.00   0.02
  50   1     0.03  -0.00   0.05    -0.27   0.04  -0.46     0.02  -0.01   0.03
  51   7    -0.01  -0.01  -0.03     0.16   0.04   0.25    -0.00   0.01  -0.01
  52   1     0.03   0.00   0.05    -0.33  -0.03  -0.47     0.02   0.00   0.02
  53   1     0.01   0.00   0.02    -0.14  -0.02  -0.26     0.01   0.01   0.01
                     34                     35                     36
                        a                      a                      a 
 Frequencies --   361.5298               366.2227               370.4089
 Red. masses --     4.9950                 2.2946                 5.1723
 Frc consts  --     0.0000                 0.0000                 0.0000
 IR Inten    --     9.2983                62.2467                 0.2670
 Raman Activ --     0.0000                 0.0000                 0.0000
 Depolar     --     0.0000                 0.0000                 0.0000
 Atom AN      X      Y      Z        X      Y      Z        X      Y      Z
   1   8    -0.03  -0.20  -0.21     0.01  -0.00  -0.01     0.02   0.02   0.02
   2   6    -0.21  -0.08   0.02     0.00   0.02   0.00     0.02  -0.17  -0.06
   3   1    -0.08  -0.14   0.04     0.01   0.01   0.00    -0.03  -0.12  -0.03
   4   1    -0.15   0.06   0.07     0.01   0.00  -0.00    -0.03  -0.02   0.01
   5   6     0.24  -0.06  -0.04    -0.03   0.02   0.01     0.23  -0.16  -0.08
   6   1     0.13  -0.04   0.12    -0.01   0.01  -0.01     0.09  -0.10   0.06
   7   1     0.16  -0.07  -0.11    -0.02   0.01   0.01     0.15  -0.04  -0.09
   8   7     0.09   0.07   0.03     0.01  -0.01  -0.00    -0.03   0.02  -0.02
   9   6    -0.08   0.25  -0.02     0.03  -0.02  -0.00    -0.23   0.14  -0.04
  10   1    -0.09   0.09   0.08     0.03   0.00  -0.02    -0.09   0.08   0.05
  11   1     0.03   0.03  -0.03    -0.02   0.01   0.00    -0.06   0.03  -0.03
  12   1    -0.06   0.14  -0.09     0.01  -0.03   0.02    -0.10   0.05  -0.06
  13   6     0.04  -0.07   0.02     0.01   0.01   0.00    -0.07  -0.20   0.02
  14   1    -0.16  -0.32  -0.13     0.00  -0.00  -0.00     0.03   0.07   0.10
  15   1    -0.05   0.28  -0.13     0.01   0.01  -0.01    -0.04  -0.24   0.11
  16   1     0.23  -0.07   0.27     0.00   0.01   0.01    -0.06  -0.08  -0.17
  17   6     0.01   0.11   0.16    -0.01  -0.03  -0.01     0.10   0.33   0.11
  18   1    -0.05   0.11   0.18    -0.02   0.01   0.03     0.18  -0.07  -0.17
  19   1     0.10   0.11  -0.05     0.03  -0.00  -0.02    -0.26   0.06   0.17
  20   1    -0.06  -0.12   0.03    -0.02  -0.05  -0.01     0.20   0.38   0.15
  21   1    -0.01   0.01  -0.08     0.00   0.01  -0.00     0.01   0.01   0.02
  22   6    -0.00   0.00  -0.00    -0.01  -0.03   0.01    -0.01  -0.01  -0.00
  23   8    -0.00   0.00  -0.00    -0.00  -0.01   0.02    -0.01  -0.01  -0.00
  24   7    -0.00  -0.01   0.01     0.03   0.06  -0.05     0.01   0.01  -0.00
  25   1     0.00   0.01  -0.00    -0.02  -0.07   0.05     0.00  -0.01   0.01
  26   1     0.01   0.01  -0.01    -0.05  -0.11   0.07     0.00   0.00   0.00
  27   7     0.00   0.01  -0.01    -0.01   0.04  -0.01    -0.01   0.00  -0.00
  28   1     0.00   0.01  -0.00    -0.00  -0.02   0.02    -0.00  -0.04   0.01
  29   1    -0.00  -0.01   0.01    -0.00   0.01   0.00     0.02   0.02  -0.01
  30   6    -0.00  -0.00   0.02    -0.02   0.02  -0.02    -0.01   0.01   0.00
  31   8    -0.01  -0.01   0.02    -0.02   0.02  -0.02    -0.01   0.01  -0.00
  32   7     0.01   0.00   0.01     0.03  -0.01  -0.00     0.00   0.00   0.00
  33   1     0.00   0.00   0.00     0.02  -0.01   0.02     0.00  -0.00   0.00
  34   1     0.00   0.03  -0.01     0.02  -0.04   0.00     0.00  -0.01   0.00
  35   7    -0.02  -0.00  -0.01    -0.01  -0.01   0.00    -0.01  -0.00  -0.00
  36   1     0.00  -0.02  -0.00    -0.01   0.05  -0.02    -0.00   0.00  -0.00
  37   1    -0.01  -0.01  -0.00     0.00   0.01   0.00    -0.00  -0.00  -0.00
  38   6     0.00   0.00   0.00     0.01  -0.04   0.04     0.00  -0.00   0.01
  39   8    -0.00   0.00   0.00     0.02  -0.03   0.02     0.01  -0.00   0.00
  40   7    -0.00  -0.00  -0.00    -0.12  -0.14  -0.05    -0.02  -0.02  -0.01
  41   1     0.00   0.00   0.00     0.05   0.12   0.07     0.01   0.02   0.01
  42   1     0.01   0.01   0.00     0.33   0.55   0.13     0.05   0.08   0.02
  43   7     0.00   0.00   0.00     0.04   0.19  -0.02     0.00   0.01  -0.00
  44   1    -0.01  -0.01   0.00    -0.20  -0.59   0.01    -0.02  -0.05  -0.00
  45   1     0.00  -0.00   0.00    -0.00  -0.07  -0.01     0.00   0.00  -0.00
  46   6    -0.00  -0.00  -0.00     0.00  -0.00   0.00    -0.00   0.01   0.01
  47   8    -0.01  -0.00  -0.02    -0.00   0.00  -0.00     0.01   0.00   0.01
  48   7    -0.01   0.00  -0.02    -0.00   0.00  -0.00    -0.00  -0.01   0.01
  49   1     0.00  -0.00   0.01     0.00  -0.00   0.00    -0.00  -0.00  -0.00
  50   1     0.03  -0.00   0.05     0.00  -0.00   0.01    -0.02  -0.00  -0.03
  51   7    -0.01  -0.00  -0.01    -0.00  -0.00  -0.00     0.01   0.01   0.01
  52   1     0.02   0.00   0.03     0.00   0.00   0.01    -0.01   0.00  -0.02
  53   1     0.01   0.00   0.01     0.00  -0.00   0.00    -0.00   0.01  -0.01
                     37                     38                     39
                        a                      a                      a 
 Frequencies --   377.9753               411.1375               430.0170
 Red. masses --     2.8214                 3.8376                 8.4952
 Frc consts  --     0.0000                 0.0000                 0.0000
 IR Inten    --     0.3043               120.3821                 0.1708
 Raman Activ --     0.0000                 0.0000                 0.0000
 Depolar     --     0.0000                 0.0000                 0.0000
 Atom AN      X      Y      Z        X      Y      Z        X      Y      Z
   1   8     0.06   0.01  -0.08    -0.00   0.01   0.02    -0.08  -0.12  -0.16
   2   6    -0.05   0.06   0.05     0.00  -0.01   0.00     0.00   0.14  -0.08
   3   1    -0.00   0.01   0.04     0.00  -0.00  -0.00     0.01   0.06  -0.03
   4   1    -0.04   0.03   0.01     0.00  -0.00   0.00     0.03   0.02  -0.03
   5   6    -0.02   0.05   0.05    -0.01  -0.00  -0.01     0.04  -0.00   0.13
   6   1     0.00   0.05   0.01    -0.01  -0.00  -0.01     0.02  -0.01   0.07
   7   1    -0.03  -0.01   0.01    -0.01   0.00   0.00     0.02  -0.06  -0.00
   8   7     0.07  -0.01   0.04    -0.01  -0.00  -0.01     0.11   0.03   0.31
   9   6     0.01  -0.07   0.10     0.01  -0.00  -0.01    -0.07   0.20   0.27
  10   1    -0.31  -0.20   0.24     0.01   0.00  -0.01     0.05   0.14   0.07
  11   1     0.35  -0.18   0.06    -0.01   0.00  -0.00    -0.13   0.10   0.06
  12   1    -0.06   0.28  -0.19     0.01  -0.01   0.01    -0.04  -0.03   0.08
  13   6     0.03   0.20  -0.12     0.01   0.00   0.01    -0.30  -0.05  -0.28
  14   1     0.01  -0.03  -0.12    -0.00  -0.00   0.01     0.04   0.02  -0.19
  15   1    -0.02   0.17  -0.09     0.01   0.00   0.00    -0.26  -0.05  -0.01
  16   1     0.02   0.07   0.06     0.00   0.00   0.01    -0.14  -0.02  -0.22
  17   6    -0.02  -0.22  -0.06    -0.01   0.01   0.00     0.33  -0.18  -0.08
  18   1     0.05  -0.20  -0.29    -0.01   0.01   0.01     0.11  -0.06  -0.03
  19   1    -0.20  -0.22   0.17     0.01   0.01  -0.01     0.19  -0.11  -0.03
  20   1     0.11   0.17   0.04    -0.01  -0.01  -0.00     0.02  -0.03  -0.14
  21   1     0.00  -0.01  -0.04    -0.00  -0.01   0.00    -0.02  -0.03  -0.04
  22   6    -0.01  -0.01   0.00    -0.02   0.01  -0.01     0.01   0.00  -0.00
  23   8    -0.01  -0.02   0.01    -0.01   0.02   0.00     0.00  -0.00  -0.00
  24   7     0.01   0.00  -0.00     0.06   0.06  -0.01    -0.00   0.00  -0.00
  25   1     0.01  -0.01   0.00     0.00  -0.02   0.02    -0.01  -0.00   0.00
  26   1     0.01   0.01  -0.00    -0.07  -0.20   0.14    -0.01  -0.01   0.00
  27   7    -0.00   0.00  -0.01     0.01  -0.04   0.01    -0.01   0.00   0.01
  28   1    -0.00  -0.01  -0.00    -0.00   0.11  -0.07    -0.00  -0.02   0.01
  29   1     0.01   0.01  -0.00    -0.02  -0.02   0.00     0.01   0.01  -0.01
  30   6    -0.01   0.01   0.02     0.01  -0.07   0.03     0.00  -0.00   0.01
  31   8    -0.01   0.00   0.02     0.01  -0.04   0.02     0.00   0.00   0.01
  32   7     0.02   0.01   0.02    -0.02   0.05  -0.03     0.00   0.01   0.01
  33   1     0.01   0.00   0.01    -0.01  -0.01  -0.01    -0.00  -0.00   0.00
  34   1     0.01   0.01  -0.00    -0.01   0.01   0.00    -0.00   0.00   0.00
  35   7    -0.03  -0.00  -0.02    -0.00   0.09  -0.06    -0.01   0.00  -0.01
  36   1    -0.00  -0.02  -0.01     0.02  -0.25   0.12     0.00  -0.03   0.01
  37   1    -0.01  -0.01  -0.00     0.00  -0.04   0.01    -0.01  -0.00  -0.00
  38   6     0.00   0.00   0.00     0.01   0.11  -0.02     0.00   0.00  -0.00
  39   8     0.00   0.01   0.00     0.01   0.14   0.00     0.00   0.00   0.00
  40   7    -0.01  -0.02  -0.01    -0.12  -0.24  -0.10    -0.00  -0.00  -0.00
  41   1     0.01   0.01   0.01     0.03   0.00   0.08    -0.00  -0.00   0.00
  42   1     0.03   0.04   0.01     0.33   0.42   0.05     0.01   0.01   0.00
  43   7    -0.00  -0.00   0.00    -0.06  -0.26   0.06    -0.00  -0.01  -0.00
  44   1    -0.00  -0.01   0.00     0.19   0.54  -0.01     0.00   0.01  -0.00
  45   1     0.00   0.00   0.00    -0.00   0.05   0.02     0.00   0.01   0.00
  46   6    -0.01   0.01   0.00     0.00  -0.00  -0.00     0.00  -0.01   0.01
  47   8    -0.01   0.01  -0.01    -0.00  -0.00  -0.00     0.00  -0.01   0.01
  48   7    -0.01  -0.01  -0.00    -0.00   0.00  -0.00    -0.01   0.01  -0.00
  49   1    -0.01  -0.01   0.01     0.00   0.00   0.00     0.03   0.01   0.03
  50   1     0.01  -0.01   0.01     0.00   0.00   0.00    -0.03   0.01  -0.04
  51   7    -0.01   0.01  -0.00    -0.00  -0.00  -0.00     0.01   0.00   0.00
  52   1     0.01   0.00   0.01     0.00  -0.00   0.01     0.02  -0.00   0.01
  53   1     0.00  -0.00   0.00    -0.00  -0.00  -0.00    -0.01   0.01  -0.03
                     40                     41                     42
                        a                      a                      a 
 Frequencies --   439.7970               444.9378               447.9081
 Red. masses --     3.2458                 1.6216                 2.7400
 Frc consts  --     0.0000                 0.0000                 0.0000
 IR Inten    --   258.4341                 3.3504                35.1761
 Raman Activ --     0.0000                 0.0000                 0.0000
 Depolar     --     0.0000                 0.0000                 0.0000
 Atom AN      X      Y      Z        X      Y      Z        X      Y      Z
   1   8    -0.01  -0.00   0.01     0.01   0.00   0.01     0.01   0.01  -0.00
   2   6     0.00   0.01  -0.00     0.00   0.01   0.01    -0.01  -0.03  -0.00
   3   1     0.00   0.01  -0.00    -0.00  -0.00   0.00    -0.00  -0.01   0.00
   4   1     0.01  -0.00  -0.00    -0.00   0.01   0.01    -0.01  -0.01  -0.01
   5   6     0.00   0.00   0.00     0.01   0.02  -0.02    -0.02  -0.03   0.01
   6   1     0.00  -0.00   0.01     0.00   0.01  -0.00    -0.00  -0.02   0.01
   7   1     0.01   0.00  -0.00     0.00   0.01  -0.00     0.00  -0.01  -0.00
   8   7    -0.01   0.00  -0.01     0.00   0.01  -0.03    -0.04  -0.00   0.02
   9   6     0.01  -0.02  -0.01    -0.00  -0.02  -0.01     0.05   0.01  -0.02
  10   1     0.00  -0.01  -0.01    -0.01  -0.02   0.00     0.02  -0.00  -0.02
  11   1     0.01  -0.01   0.00     0.01  -0.01   0.01     0.02  -0.01  -0.02
  12   1     0.01  -0.00   0.00    -0.00  -0.00  -0.01     0.03   0.02   0.01
  13   6     0.00  -0.00   0.02     0.03  -0.01   0.02    -0.02   0.05   0.03
  14   1    -0.00   0.00   0.01    -0.01  -0.01   0.01    -0.01   0.00   0.00
  15   1     0.01  -0.00   0.00     0.02  -0.00  -0.00     0.01   0.03  -0.00
  16   1     0.00  -0.00   0.01     0.02  -0.01   0.01    -0.01   0.02   0.03
  17   6    -0.02   0.00  -0.01    -0.04   0.01   0.01     0.01   0.01  -0.03
  18   1    -0.01   0.00   0.00    -0.02   0.01   0.00     0.01   0.01   0.02
  19   1     0.00   0.00  -0.01    -0.02   0.00   0.00     0.03   0.01  -0.03
  20   1    -0.01  -0.00  -0.00    -0.01  -0.01   0.02    -0.01  -0.01  -0.03
  21   1     0.00   0.02   0.00     0.00   0.00   0.00    -0.01  -0.02  -0.00
  22   6     0.03  -0.02   0.01    -0.00   0.00  -0.00     0.06  -0.01   0.01
  23   8     0.04  -0.03   0.01    -0.00   0.00   0.00     0.05  -0.06   0.02
  24   7    -0.02   0.03  -0.05     0.00  -0.00   0.01    -0.01   0.08  -0.12
  25   1    -0.04  -0.07   0.05     0.01   0.01  -0.01    -0.08  -0.24   0.15
  26   1     0.02   0.06  -0.07    -0.00  -0.01   0.01     0.05   0.13  -0.11
  27   7    -0.04   0.03   0.05     0.01  -0.01  -0.01    -0.09   0.10   0.05
  28   1    -0.01  -0.21   0.08     0.00   0.03  -0.01    -0.03  -0.57   0.22
  29   1     0.08   0.14  -0.10    -0.01  -0.02   0.01     0.21   0.29  -0.19
  30   6     0.02  -0.13   0.08    -0.00  -0.00  -0.00     0.02   0.06   0.00
  31   8     0.02  -0.04   0.02    -0.00  -0.00  -0.00     0.02   0.04   0.01
  32   7    -0.02   0.16  -0.06     0.00   0.00  -0.00    -0.03  -0.05   0.05
  33   1    -0.00  -0.07   0.02     0.00  -0.00   0.00    -0.02   0.01  -0.02
  34   1    -0.01  -0.08   0.05     0.00  -0.00  -0.00    -0.02   0.03   0.01
  35   7    -0.03   0.23  -0.14     0.00   0.00   0.00    -0.00  -0.10  -0.01
  36   1     0.06  -0.71   0.34    -0.00  -0.01   0.01    -0.01   0.25  -0.16
  37   1     0.01  -0.04   0.01     0.00   0.00   0.00    -0.04  -0.02  -0.02
  38   6     0.04  -0.03   0.04    -0.00   0.00  -0.00     0.05  -0.04   0.05
  39   8     0.03  -0.04   0.05    -0.00  -0.00  -0.00     0.04  -0.01   0.08
  40   7    -0.05   0.08   0.03     0.01   0.00   0.00    -0.12   0.01  -0.01
  41   1    -0.02   0.07  -0.07     0.00  -0.00   0.00    -0.03   0.05  -0.05
  42   1    -0.13  -0.07   0.03    -0.00  -0.01  -0.00     0.01   0.14   0.07
  43   7     0.02   0.05  -0.11     0.00   0.01   0.00     0.00  -0.10  -0.09
  44   1    -0.04  -0.17  -0.04    -0.01  -0.01   0.00     0.12   0.20  -0.08
  45   1     0.00   0.07  -0.03     0.00  -0.00   0.00    -0.05   0.05  -0.04
  46   6    -0.00  -0.00   0.00    -0.03  -0.06   0.02     0.01   0.01  -0.00
  47   8    -0.00  -0.00  -0.00    -0.03  -0.06   0.02     0.01   0.01  -0.00
  48   7    -0.00   0.00  -0.00    -0.09   0.06  -0.07     0.00  -0.02  -0.01
  49   1     0.00   0.00   0.00     0.31   0.07   0.38     0.01  -0.01   0.03
  50   1     0.00   0.00   0.00    -0.31   0.10  -0.35    -0.01  -0.01  -0.03
  51   7     0.00   0.00  -0.00     0.11  -0.01   0.06    -0.01  -0.00   0.02
  52   1     0.00  -0.00   0.00     0.34  -0.03   0.31     0.01   0.00   0.03
  53   1     0.00   0.00  -0.00    -0.22   0.10  -0.44    -0.02  -0.01  -0.03
                     43                     44                     45
                        a                      a                      a 
 Frequencies --   455.0548               464.4780               466.0088
 Red. masses --     8.3250                 7.9816                 7.4949
 Frc consts  --     0.0000                 0.0000                 0.0000
 IR Inten    --     4.9693                 5.6432                40.7251
 Raman Activ --     0.0000                 0.0000                 0.0000
 Depolar     --     0.0000                 0.0000                 0.0000
 Atom AN      X      Y      Z        X      Y      Z        X      Y      Z
   1   8     0.00  -0.03  -0.02     0.00  -0.03  -0.03    -0.02   0.02   0.03
   2   6     0.02   0.10   0.02    -0.00   0.02  -0.01     0.00   0.00   0.01
   3   1    -0.00   0.01   0.01    -0.01  -0.02  -0.01     0.01   0.02   0.00
   4   1     0.00   0.05   0.03    -0.01   0.02   0.02     0.01  -0.01  -0.01
   5   6     0.09   0.12  -0.03     0.15  -0.01   0.01    -0.08   0.02  -0.01
   6   1     0.04   0.02   0.03     0.08  -0.07   0.12    -0.04   0.04  -0.07
   7   1     0.05   0.02  -0.04     0.15  -0.02  -0.09    -0.09   0.01   0.05
   8   7     0.03   0.10  -0.05    -0.17   0.15   0.02     0.10  -0.09  -0.02
   9   6    -0.03  -0.08   0.09     0.15  -0.09   0.08    -0.10   0.04  -0.05
  10   1    -0.02  -0.06   0.01     0.05  -0.11  -0.05    -0.03   0.06   0.03
  11   1    -0.00  -0.00   0.08     0.09  -0.04   0.05    -0.05   0.02  -0.02
  12   1    -0.02  -0.05   0.02     0.09  -0.00   0.08    -0.06  -0.01  -0.05
  13   6     0.01  -0.10  -0.00    -0.15  -0.00   0.16     0.09  -0.01  -0.09
  14   1    -0.02  -0.03   0.03    -0.08  -0.01   0.08     0.05   0.01  -0.04
  15   1    -0.01  -0.06   0.02    -0.03  -0.01   0.05     0.02   0.00  -0.03
  16   1     0.03  -0.06  -0.04     0.00  -0.03   0.04     0.00   0.01  -0.02
  17   6    -0.10  -0.02  -0.03    -0.06   0.04  -0.22     0.03  -0.02   0.13
  18   1    -0.07   0.00  -0.03     0.01  -0.01  -0.09    -0.01   0.01   0.06
  19   1    -0.03  -0.03   0.01     0.02  -0.04  -0.04    -0.01   0.03   0.02
  20   1    -0.02  -0.03   0.01    -0.04   0.05  -0.11     0.02  -0.03   0.07
  21   1    -0.00  -0.01  -0.01     0.00   0.01  -0.01    -0.01  -0.01   0.01
  22   6    -0.01   0.00  -0.00     0.17  -0.04   0.04    -0.09   0.02  -0.02
  23   8    -0.01   0.00   0.01     0.16  -0.12  -0.08    -0.08   0.07   0.05
  24   7     0.01   0.01  -0.00    -0.16  -0.02  -0.14     0.09   0.02   0.05
  25   1     0.00  -0.03   0.01    -0.16   0.19  -0.02     0.07  -0.22   0.07
  26   1     0.01   0.02   0.00    -0.10  -0.15  -0.16     0.09   0.18   0.04
  27   7    -0.00  -0.00  -0.01    -0.08   0.15   0.19     0.02  -0.08  -0.11
  28   1    -0.00  -0.05   0.01    -0.01   0.03   0.15    -0.00  -0.19  -0.02
  29   1     0.02   0.02  -0.02    -0.09   0.07  -0.01     0.11   0.03  -0.04
  30   6     0.00   0.01   0.00     0.09   0.02   0.05     0.12   0.04   0.07
  31   8     0.00   0.00   0.00     0.06   0.05   0.09     0.09   0.07   0.11
  32   7    -0.00  -0.00   0.01    -0.13   0.01   0.02    -0.18   0.02   0.04
  33   1    -0.00  -0.00   0.00    -0.07  -0.05  -0.07    -0.10  -0.04  -0.10
  34   1    -0.00   0.01  -0.00    -0.09   0.04   0.07    -0.13   0.01   0.11
  35   7    -0.00  -0.01  -0.00     0.02  -0.06  -0.12     0.02  -0.06  -0.18
  36   1     0.00   0.02  -0.02     0.04  -0.04  -0.07     0.07  -0.11  -0.08
  37   1    -0.01  -0.00  -0.00    -0.05  -0.01  -0.05    -0.07  -0.03  -0.06
  38   6     0.00  -0.00   0.00    -0.09   0.04  -0.07    -0.15   0.08  -0.11
  39   8     0.00   0.00   0.01    -0.03   0.03  -0.14    -0.06   0.04  -0.24
  40   7    -0.01  -0.00  -0.00     0.14  -0.02  -0.00     0.24  -0.08  -0.01
  41   1    -0.00   0.00  -0.00     0.01  -0.18   0.10     0.07  -0.19   0.17
  42   1     0.00   0.01   0.01     0.13  -0.03  -0.09     0.20  -0.07  -0.15
  43   7    -0.00  -0.01  -0.01    -0.04   0.01   0.16    -0.07   0.04   0.28
  44   1     0.01   0.02  -0.01    -0.08  -0.04   0.10    -0.13  -0.05   0.17
  45   1    -0.00   0.00  -0.00     0.07  -0.01   0.07     0.10  -0.04   0.11
  46   6    -0.13  -0.25   0.08     0.01   0.02  -0.00    -0.00  -0.01   0.00
  47   8    -0.14  -0.28   0.09     0.01   0.02  -0.01    -0.00  -0.00   0.00
  48   7    -0.11   0.34   0.13     0.01  -0.02  -0.01    -0.00   0.01   0.00
  49   1     0.07   0.21  -0.19    -0.01  -0.01   0.01     0.00   0.00  -0.00
  50   1    -0.14   0.19   0.22     0.01  -0.01  -0.01    -0.00   0.00   0.00
  51   7     0.30   0.02  -0.24    -0.02   0.00   0.01     0.01  -0.00  -0.00
  52   1     0.18  -0.11  -0.25    -0.01   0.01   0.02     0.00  -0.00  -0.01
  53   1     0.16   0.24   0.06    -0.01  -0.01  -0.01     0.00   0.00   0.00
                     46                     47                     48
                        a                      a                      a 
 Frequencies --   469.5455               476.2209               489.1887
 Red. masses --     7.9489                 8.2848                 3.2793
 Frc consts  --     0.0000                 0.0000                 0.0000
 IR Inten    --    11.7474                14.0222                36.2500
 Raman Activ --     0.0000                 0.0000                 0.0000
 Depolar     --     0.0000                 0.0000                 0.0000
 Atom AN      X      Y      Z        X      Y      Z        X      Y      Z
   1   8     0.00  -0.07  -0.07    -0.01  -0.02  -0.01     0.01  -0.00  -0.01
   2   6     0.03   0.18   0.01     0.04   0.21   0.05     0.00  -0.00  -0.00
   3   1    -0.00   0.01   0.01     0.01   0.04   0.02     0.00  -0.00   0.00
   4   1     0.01   0.08   0.05     0.02   0.08   0.05    -0.00  -0.00  -0.00
   5   6     0.23   0.16  -0.03     0.03   0.26  -0.09     0.00  -0.01   0.00
   6   1     0.11  -0.01   0.13    -0.00   0.12  -0.08     0.00  -0.00   0.00
   7   1     0.18   0.02  -0.11    -0.06   0.07   0.03     0.00  -0.00  -0.00
   8   7    -0.06   0.22  -0.07     0.25   0.04  -0.13    -0.01   0.00   0.00
   9   6     0.04  -0.18   0.18    -0.27  -0.08   0.10     0.01  -0.00  -0.00
  10   1     0.01  -0.14  -0.03    -0.10   0.00   0.08     0.00  -0.00  -0.00
  11   1     0.03  -0.02   0.15    -0.12   0.04   0.13     0.00  -0.00  -0.00
  12   1     0.02  -0.10   0.09    -0.15  -0.13  -0.05     0.00   0.00   0.00
  13   6    -0.08  -0.19   0.09     0.18  -0.26  -0.17    -0.01   0.00   0.01
  14   1    -0.09  -0.06   0.10     0.04  -0.06  -0.01    -0.00   0.00   0.00
  15   1    -0.03  -0.11   0.06     0.00  -0.13  -0.01     0.00   0.00   0.00
  16   1     0.05  -0.11  -0.03     0.08  -0.11  -0.12    -0.00   0.00   0.00
  17   6    -0.17  -0.02  -0.18    -0.15  -0.10   0.20     0.00   0.00  -0.01
  18   1    -0.09   0.00  -0.09    -0.15   0.03   0.03     0.00  -0.00  -0.00
  19   1    -0.02  -0.07  -0.02    -0.09  -0.03   0.07     0.00   0.00  -0.00
  20   1    -0.06  -0.02  -0.06    -0.01  -0.11   0.15    -0.00   0.00  -0.00
  21   1    -0.00  -0.02  -0.02    -0.01  -0.02  -0.01    -0.00  -0.00  -0.00
  22   6    -0.16   0.04  -0.04     0.11  -0.02   0.04    -0.02   0.02   0.00
  23   8    -0.15   0.12   0.08     0.11  -0.09  -0.07    -0.03   0.01   0.00
  24   7     0.14   0.02   0.12    -0.09  -0.01  -0.08     0.01  -0.01   0.04
  25   1     0.14  -0.22   0.04    -0.10   0.17  -0.04     0.03   0.01  -0.02
  26   1     0.10   0.16   0.14    -0.07  -0.12  -0.10     0.03   0.07  -0.01
  27   7     0.05  -0.14  -0.18    -0.02   0.11   0.13     0.01  -0.03  -0.02
  28   1     0.00  -0.08  -0.11     0.00  -0.01   0.09     0.00  -0.05  -0.01
  29   1     0.09  -0.06   0.01    -0.03   0.07  -0.03     0.04   0.02  -0.02
  30   6    -0.03   0.01   0.00     0.03   0.00   0.01    -0.09  -0.03  -0.03
  31   8    -0.00  -0.00  -0.02     0.01   0.01   0.03    -0.06  -0.04  -0.09
  32   7     0.03   0.01   0.02    -0.03  -0.01   0.00     0.11   0.00  -0.02
  33   1     0.02   0.00   0.03    -0.02  -0.02  -0.02     0.07   0.00   0.09
  34   1     0.02   0.01  -0.02    -0.03   0.03   0.01     0.09  -0.00  -0.08
  35   7    -0.02   0.00   0.02     0.01  -0.03  -0.03    -0.02   0.06   0.13
  36   1    -0.01  -0.00   0.01     0.01   0.03  -0.04    -0.04   0.01   0.10
[...]
  44   1    -0.10   0.03  -0.11    -0.03   0.01  -0.03    -0.00   0.00  -0.00
  45   1    -0.26  -0.03   0.89    -0.05  -0.00   0.18    -0.00  -0.00   0.02
  46   6     0.00   0.00  -0.00    -0.00   0.00   0.00     0.00   0.00   0.00
  47   8    -0.00  -0.00  -0.00     0.00  -0.00  -0.00    -0.00  -0.00  -0.00
  48   7    -0.00  -0.00  -0.00    -0.00   0.00  -0.00    -0.00  -0.00  -0.00
  49   1     0.00   0.00   0.00     0.00  -0.00  -0.00     0.00  -0.00   0.00
  50   1    -0.00  -0.00   0.00     0.00   0.00  -0.00     0.00   0.00  -0.00
  51   7    -0.00  -0.00  -0.00    -0.00   0.00   0.00     0.00  -0.00  -0.00
  52   1    -0.00  -0.00   0.00    -0.00  -0.00   0.00     0.00   0.00  -0.00
  53   1     0.00   0.00   0.00     0.00  -0.00  -0.00    -0.00   0.00   0.00
                    142                    143                    144
                        a                      a                      a 
 Frequencies --  3488.2667              3488.3859              3497.1322
 Red. masses --     1.4661                 1.4554                 1.4453
 Frc consts  --     0.0000                 0.0000                 0.0000
 IR Inten    --    20.7315                29.4323                24.2402
 Raman Activ --     0.0000                 0.0000                 0.0000
 Depolar     --     0.0000                 0.0000                 0.0000
 Atom AN      X      Y      Z        X      Y      Z        X      Y      Z
   1   8    -0.00   0.00   0.00     0.00  -0.00  -0.00    -0.00   0.00   0.00
   2   6    -0.00   0.00  -0.00     0.00  -0.00   0.00     0.00  -0.00  -0.00
   3   1    -0.00   0.00   0.00     0.00  -0.00  -0.00    -0.00   0.00   0.00
   4   1     0.00  -0.00   0.00    -0.00   0.00  -0.00     0.00   0.00  -0.00
   5   6    -0.00   0.00   0.00    -0.00   0.00  -0.00    -0.00   0.00   0.00
   6   1     0.00  -0.00  -0.00     0.00  -0.00  -0.00     0.00  -0.00  -0.00
   7   1     0.00   0.00   0.00    -0.00  -0.00  -0.00    -0.00   0.00  -0.00
   8   7     0.00   0.00   0.00     0.00  -0.00  -0.00     0.00  -0.00  -0.00
   9   6    -0.00   0.00   0.00    -0.00  -0.00   0.00    -0.00   0.00   0.00
  10   1    -0.00  -0.00  -0.00     0.00   0.00   0.00    -0.00   0.00  -0.00
  11   1     0.00   0.00  -0.00     0.00   0.00  -0.00    -0.00   0.00   0.00
  12   1     0.00  -0.00  -0.00     0.00  -0.00  -0.00     0.00  -0.00  -0.00
  13   6     0.00   0.00  -0.00    -0.00  -0.00   0.00    -0.00  -0.00   0.00
  14   1    -0.00  -0.00   0.00     0.00   0.00   0.00    -0.00   0.00  -0.00
  15   1    -0.00  -0.00  -0.00     0.00   0.00  -0.00    -0.00  -0.00  -0.00
  16   1    -0.00  -0.00   0.00     0.00   0.00  -0.00     0.00   0.00  -0.00
  17   6     0.00   0.00   0.00    -0.00  -0.00  -0.00    -0.00   0.00   0.00
  18   1    -0.00  -0.00   0.00     0.00   0.00  -0.00     0.00   0.00  -0.00
  19   1    -0.00  -0.00  -0.00     0.00   0.00   0.00    -0.00   0.00   0.00
  20   1     0.00   0.00  -0.00     0.00  -0.00  -0.00     0.00  -0.00  -0.00
  21   1     0.02  -0.00  -0.01    -0.01   0.00   0.00     0.00  -0.00  -0.00
  22   6     0.00   0.00   0.00    -0.00   0.00   0.00     0.00  -0.00  -0.00
  23   8    -0.00  -0.00   0.00     0.00  -0.00   0.00    -0.00   0.00  -0.00
  24   7    -0.00   0.00   0.00    -0.00   0.01   0.01     0.07  -0.12  -0.12
  25   1    -0.01  -0.00  -0.01    -0.02  -0.01  -0.02     0.42   0.20   0.49
  26   1     0.02  -0.01   0.00     0.03  -0.01   0.00    -0.66   0.25  -0.04
  27   7     0.01  -0.01  -0.01    -0.01   0.00   0.00     0.02  -0.00   0.00
  28   1    -0.02   0.00   0.00     0.04  -0.00  -0.01    -0.06   0.00   0.01
  29   1    -0.01   0.02   0.02     0.00  -0.01  -0.01     0.00   0.00   0.00
  30   6    -0.00   0.00   0.00     0.00  -0.00  -0.00    -0.00  -0.00  -0.00
  31   8    -0.00  -0.00  -0.00     0.00   0.00   0.00     0.00   0.00   0.00
  32   7    -0.07   0.06   0.15     0.02  -0.02  -0.05    -0.00   0.00   0.00
  33   1     0.71  -0.08  -0.26    -0.21   0.02   0.08     0.00  -0.00  -0.00
  34   1    -0.44  -0.16  -0.30     0.13   0.05   0.09    -0.00  -0.00  -0.00
  35   7    -0.00  -0.00  -0.01    -0.00   0.00   0.00     0.00   0.00   0.00
  36   1     0.02   0.01   0.02    -0.00  -0.00  -0.00    -0.00  -0.00  -0.00
  37   1    -0.00   0.01   0.01     0.00  -0.00  -0.01    -0.00  -0.00  -0.00
  38   6     0.00   0.00  -0.00     0.00   0.00  -0.00    -0.00   0.00  -0.00
  39   8     0.00  -0.00   0.00     0.00  -0.00   0.00     0.00  -0.00   0.00
  40   7     0.02   0.01  -0.05     0.06   0.03  -0.16     0.00   0.00  -0.01
  41   1    -0.19   0.06   0.05    -0.61   0.21   0.17    -0.03   0.01   0.01
  42   1     0.11  -0.10   0.13     0.37  -0.33   0.43     0.02  -0.02   0.02
  43   7     0.00  -0.00   0.00    -0.00   0.00   0.01     0.00  -0.00   0.00
  44   1    -0.01   0.00  -0.01    -0.01   0.00  -0.01    -0.00   0.00  -0.00
  45   1    -0.00  -0.00   0.01     0.00  -0.00  -0.02     0.00  -0.00  -0.00
  46   6     0.00  -0.00  -0.00     0.00   0.00  -0.00     0.00   0.00  -0.00
  47   8     0.00   0.00   0.00    -0.00  -0.00   0.00    -0.00  -0.00   0.00
  48   7     0.00  -0.00  -0.00     0.00  -0.00  -0.00    -0.00  -0.00  -0.00
  49   1    -0.00   0.00   0.00    -0.00   0.00   0.00    -0.00   0.00   0.00
  50   1    -0.00  -0.00   0.00    -0.00  -0.00   0.00    -0.00  -0.00   0.00
  51   7     0.00  -0.00  -0.00     0.00  -0.00  -0.00     0.00  -0.00  -0.00
  52   1     0.00   0.00  -0.00     0.00   0.00  -0.00     0.00   0.00  -0.00
  53   1    -0.00   0.00   0.00    -0.00   0.00   0.00    -0.00   0.00   0.00
                    145                    146                    147
                        a                      a                      a 
 Frequencies --  3501.1062              3505.5119              3533.3595
 Red. masses --     1.4388                 1.4624                 1.9179
 Frc consts  --     0.0000                 0.0000                 0.0000
 IR Inten    --    38.3897                 8.8514                28.8497
 Raman Activ --     0.0000                 0.0000                 0.0000
 Depolar     --     0.0000                 0.0000                 0.0000
 Atom AN      X      Y      Z        X      Y      Z        X      Y      Z
   1   8     0.00  -0.00  -0.00     0.00   0.00  -0.00     0.00  -0.00  -0.00
   2   6    -0.00   0.00   0.00     0.00  -0.00  -0.00    -0.00   0.00  -0.00
   3   1     0.00  -0.00  -0.00    -0.00  -0.00  -0.00     0.00  -0.00  -0.00
   4   1     0.00  -0.00   0.00    -0.00   0.00  -0.00    -0.00   0.00   0.00
   5   6     0.00  -0.00  -0.00     0.00  -0.00   0.00     0.00   0.00  -0.00
   6   1    -0.00   0.00   0.00    -0.00   0.00   0.00    -0.00  -0.00  -0.00
   7   1     0.00  -0.00   0.00    -0.00   0.00  -0.00     0.00  -0.00   0.00
   8   7     0.00   0.00  -0.00    -0.00  -0.00   0.00     0.00   0.00  -0.00
   9   6     0.00   0.00  -0.00     0.00   0.00  -0.00    -0.00  -0.00  -0.00
  10   1     0.00  -0.00   0.00    -0.00   0.00  -0.00     0.00  -0.00   0.00
  11   1    -0.00  -0.00   0.00    -0.00  -0.00   0.00     0.00   0.00  -0.00
  12   1     0.00   0.00  -0.00    -0.00   0.00  -0.00    -0.00   0.00  -0.00
  13   6    -0.00   0.00   0.00     0.00   0.00  -0.00     0.00   0.00  -0.00
  14   1     0.00  -0.00   0.00    -0.00   0.00  -0.00     0.00  -0.00   0.00
  15   1    -0.00  -0.00  -0.00     0.00   0.00   0.00     0.00   0.00   0.00
  16   1    -0.00   0.00   0.00    -0.00  -0.00   0.00    -0.00  -0.00  -0.00
  17   6     0.00   0.00  -0.00     0.00   0.00  -0.00    -0.00   0.00   0.00
  18   1    -0.00  -0.00   0.00    -0.00  -0.00   0.00     0.00   0.00  -0.00
  19   1    -0.00  -0.00  -0.00     0.00  -0.00  -0.00    -0.00  -0.00   0.00
  20   1     0.00   0.00  -0.00     0.00   0.00  -0.00     0.00  -0.00  -0.00
  21   1    -0.00   0.00   0.00    -0.00   0.00   0.00    -0.00   0.00   0.00
  22   6     0.00   0.00   0.00    -0.00   0.00   0.00    -0.00  -0.00  -0.00
  23   8     0.00  -0.00  -0.00     0.00  -0.00  -0.00    -0.00   0.00   0.00
  24   7    -0.00   0.00   0.00    -0.00   0.00   0.00    -0.00   0.00   0.00
  25   1    -0.00  -0.00  -0.00    -0.00  -0.00  -0.00    -0.00  -0.00  -0.00
  26   1     0.00  -0.00   0.00     0.00  -0.00   0.00     0.00  -0.00   0.00
  27   7    -0.00  -0.00  -0.00    -0.00  -0.00  -0.00    -0.00   0.00   0.00
  28   1     0.00  -0.00  -0.00     0.00  -0.00  -0.00     0.00   0.00  -0.00
  29   1    -0.00   0.00   0.00    -0.00   0.00   0.00     0.00  -0.00  -0.00
  30   6    -0.00   0.00   0.00    -0.00  -0.00  -0.00     0.00   0.00   0.01
  31   8     0.00  -0.00  -0.00     0.00   0.00   0.00    -0.00  -0.00  -0.00
  32   7     0.00  -0.00  -0.00     0.00  -0.00  -0.00    -0.02  -0.00  -0.00
  33   1    -0.00   0.00   0.00    -0.00   0.00   0.00     0.05  -0.01  -0.02
  34   1     0.00   0.00   0.00     0.00   0.00   0.00     0.04   0.02   0.03
  35   7     0.00  -0.00  -0.00     0.00   0.00   0.00     0.13   0.06   0.09
  36   1    -0.00  -0.00  -0.00    -0.00  -0.00  -0.00    -0.49  -0.20  -0.32
  37   1    -0.00   0.00   0.00     0.00   0.00   0.00     0.02  -0.01  -0.04
  38   6    -0.00   0.00  -0.00    -0.00   0.00   0.00     0.00   0.00   0.01
  39   8    -0.00  -0.00   0.00     0.00  -0.00   0.00    -0.00   0.00  -0.00
  40   7    -0.00  -0.00   0.00    -0.00  -0.00   0.00    -0.03   0.02  -0.01
  41   1     0.00  -0.00  -0.00     0.00  -0.00  -0.00     0.08  -0.03  -0.03
  42   1    -0.00   0.00  -0.00    -0.00   0.00  -0.00     0.04  -0.04   0.05
  43   7     0.00  -0.00  -0.00    -0.00   0.00  -0.00     0.12  -0.04   0.15
  44   1     0.00   0.00   0.00     0.00  -0.00   0.00    -0.50   0.15  -0.49
  45   1    -0.00   0.00   0.00    -0.00   0.00   0.00     0.04   0.00  -0.09
  46   6     0.00  -0.00   0.00    -0.00  -0.00   0.00    -0.00  -0.00  -0.00
  47   8     0.00   0.00  -0.00     0.00   0.00  -0.00     0.00   0.00   0.00
  48   7     0.10   0.01  -0.05    -0.13  -0.01   0.06     0.00   0.00  -0.00
  49   1    -0.17   0.35   0.10     0.22  -0.46  -0.13    -0.00   0.00  -0.00
  50   1    -0.22  -0.40   0.09     0.27   0.49  -0.11    -0.00  -0.00   0.00
  51   7     0.05  -0.13  -0.02     0.05  -0.10  -0.02     0.00   0.00   0.00
  52   1     0.24   0.49  -0.20     0.18   0.38  -0.15    -0.00  -0.00   0.00
  53   1    -0.44   0.01   0.25    -0.36   0.01   0.21     0.00   0.00  -0.00
                    148                    149                    150
                        a                      a                      a 
 Frequencies --  3533.7680              3551.8261              3558.0339
 Red. masses --     1.9083                 2.1703                 2.1692
 Frc consts  --     0.0000                 0.0000                 0.0000
 IR Inten    --     2.1850                13.5375                26.8440
 Raman Activ --     0.0000                 0.0000                 0.0000
 Depolar     --     0.0000                 0.0000                 0.0000
 Atom AN      X      Y      Z        X      Y      Z        X      Y      Z
   1   8     0.00  -0.00  -0.00    -0.00   0.00   0.00    -0.00   0.00   0.00
   2   6    -0.00  -0.00  -0.00     0.00  -0.00   0.00    -0.00   0.00  -0.00
   3   1     0.00  -0.00  -0.00    -0.00   0.00   0.00    -0.00   0.00   0.00
   4   1    -0.00   0.00  -0.00     0.00  -0.00  -0.00     0.00  -0.00   0.00
   5   6     0.00  -0.00  -0.00    -0.00  -0.00  -0.00     0.00   0.00   0.00
   6   1    -0.00  -0.00   0.00     0.00   0.00  -0.00     0.00   0.00   0.00
   7   1     0.00  -0.00   0.00    -0.00  -0.00   0.00    -0.00   0.00   0.00
   8   7     0.00  -0.00   0.00    -0.00  -0.00   0.00    -0.00   0.00   0.00
   9   6     0.00   0.00  -0.00     0.00   0.00  -0.00    -0.00   0.00   0.00
  10   1     0.00  -0.00   0.00    -0.00  -0.00   0.00    -0.00  -0.00  -0.00
  11   1     0.00  -0.00   0.00    -0.00  -0.00   0.00    -0.00  -0.00   0.00
  12   1    -0.00   0.00  -0.00    -0.00   0.00   0.00     0.00  -0.00  -0.00
  13   6     0.00   0.00  -0.00    -0.00  -0.00   0.00     0.00   0.00   0.00
  14   1     0.00  -0.00  -0.00     0.00  -0.00   0.00    -0.00   0.00  -0.00
  15   1     0.00   0.00   0.00    -0.00  -0.00  -0.00    -0.00  -0.00  -0.00
  16   1    -0.00  -0.00  -0.00    -0.00  -0.00   0.00    -0.00  -0.00   0.00
  17   6     0.00   0.00  -0.00     0.00   0.00  -0.00     0.00   0.00   0.00
  18   1     0.00   0.00  -0.00    -0.00  -0.00   0.00    -0.00  -0.00   0.00
  19   1    -0.00  -0.00  -0.00     0.00   0.00  -0.00    -0.00  -0.00  -0.00
  20   1    -0.00  -0.00   0.00    -0.00   0.00   0.00    -0.00   0.00   0.00
  21   1    -0.00   0.00   0.00     0.00  -0.00  -0.00     0.01  -0.00  -0.00
  22   6    -0.00  -0.00   0.00    -0.00   0.00  -0.00     0.00  -0.00   0.00
  23   8     0.00   0.00   0.00     0.00  -0.00   0.00    -0.00  -0.00   0.00
  24   7    -0.00   0.00  -0.00     0.00  -0.00   0.00    -0.00  -0.00  -0.00
  25   1     0.00   0.00   0.00    -0.01  -0.00  -0.01     0.00   0.00   0.00
  26   1     0.00  -0.00   0.00    -0.01   0.00  -0.00     0.00  -0.00   0.00
  27   7     0.00   0.00   0.00     0.00  -0.00  -0.00     0.00  -0.00  -0.00
  28   1    -0.01   0.00   0.00    -0.00  -0.00   0.00    -0.00  -0.00   0.00
  29   1     0.00  -0.01  -0.00    -0.00   0.00   0.00    -0.00   0.00   0.00
  30   6     0.00  -0.00  -0.01    -0.00  -0.00  -0.00    -0.01  -0.00  -0.00
  31   8     0.00   0.00   0.00     0.00  -0.00   0.00     0.00   0.00   0.00
  32   7     0.02   0.00  -0.00     0.01   0.00   0.00    -0.29  -0.04  -0.06
  33   1    -0.06   0.01   0.02    -0.01   0.00   0.00     0.50  -0.06  -0.21
  34   1    -0.03  -0.01  -0.02    -0.01  -0.00  -0.01     0.59   0.23   0.44
  35   7    -0.15  -0.07  -0.11    -0.00  -0.00  -0.00    -0.02  -0.01  -0.02
  36   1     0.58   0.24   0.38     0.01   0.00   0.00     0.08   0.03   0.05
  37   1    -0.02   0.01   0.04    -0.00   0.00   0.01    -0.00   0.00   0.01
  38   6    -0.00   0.00   0.01    -0.01   0.01  -0.00    -0.00   0.00  -0.00
  39   8    -0.00  -0.00  -0.00     0.00  -0.00   0.00     0.00  -0.00   0.00
  40   7    -0.02   0.01  -0.00    -0.25   0.14  -0.07    -0.00   0.00  -0.00
  41   1     0.06  -0.02  -0.02     0.60  -0.19  -0.20     0.01  -0.00  -0.00
  42   1     0.02  -0.02   0.03     0.36  -0.34   0.46     0.01  -0.01   0.01
  43   7     0.11  -0.04   0.13    -0.02   0.01  -0.03    -0.00   0.00  -0.00
  44   1    -0.43   0.13  -0.42     0.10  -0.03   0.09     0.01  -0.00   0.01
  45   1     0.03   0.00  -0.07    -0.01   0.00   0.02    -0.00  -0.00   0.01
  46   6    -0.00  -0.00   0.00    -0.00  -0.00   0.00    -0.00  -0.00  -0.00
  47   8     0.00   0.00   0.00     0.00   0.00  -0.00     0.00   0.00   0.00
  48   7    -0.00   0.00   0.00     0.00  -0.00  -0.00    -0.00  -0.00  -0.00
  49   1     0.00  -0.00  -0.00    -0.00   0.00   0.00    -0.00   0.00   0.00
  50   1     0.00   0.00  -0.00     0.00   0.00  -0.00     0.00   0.00  -0.00
  51   7    -0.00  -0.00   0.00    -0.00   0.00   0.00     0.00   0.00  -0.00
  52   1     0.00   0.00  -0.00    -0.00   0.00   0.00    -0.00  -0.00   0.00
  53   1    -0.00  -0.00   0.00     0.00  -0.00  -0.00    -0.00   0.00   0.00
                    151                    152                    153
                        a                      a                      a 
 Frequencies --  3564.7113              3565.8032              3571.2697
 Red. masses --     2.1863                 2.1907                 2.1774
 Frc consts  --     0.0000                 0.0000                 0.0000
 IR Inten    --    10.3176                13.6506                11.7402
 Raman Activ --     0.0000                 0.0000                 0.0000
 Depolar     --     0.0000                 0.0000                 0.0000
 Atom AN      X      Y      Z        X      Y      Z        X      Y      Z
   1   8     0.00  -0.00  -0.00     0.00  -0.00  -0.00     0.00   0.00  -0.00
   2   6    -0.00   0.00  -0.00    -0.00   0.00   0.00    -0.00  -0.00  -0.00
   3   1    -0.00   0.00   0.00     0.00  -0.00  -0.00     0.00  -0.00  -0.00
   4   1    -0.00  -0.00   0.00    -0.00  -0.00   0.00     0.00   0.00  -0.00
   5   6    -0.00   0.00   0.00     0.00   0.00  -0.00     0.00  -0.00   0.00
   6   1     0.00  -0.00  -0.00    -0.00   0.00   0.00    -0.00   0.00   0.00
   7   1     0.00  -0.00   0.00     0.00  -0.00   0.00     0.00   0.00  -0.00
   8   7     0.00  -0.00  -0.00     0.00   0.00  -0.00    -0.00  -0.00   0.00
   9   6    -0.00   0.00   0.00     0.00   0.00  -0.00     0.00   0.00  -0.00
  10   1    -0.00   0.00   0.00     0.00   0.00   0.00     0.00   0.00   0.00
  11   1    -0.00   0.00   0.00    -0.00  -0.00   0.00    -0.00  -0.00   0.00
  12   1     0.00  -0.00  -0.00    -0.00   0.00   0.00    -0.00   0.00   0.00
  13   6    -0.00  -0.00   0.00    -0.00  -0.00   0.00     0.00   0.00  -0.00
  14   1     0.00  -0.00   0.00     0.00  -0.00   0.00     0.00   0.00  -0.00
  15   1    -0.00   0.00   0.00    -0.00  -0.00  -0.00     0.00   0.00  -0.00
  16   1     0.00   0.00  -0.00     0.00   0.00  -0.00    -0.00  -0.00   0.00
  17   6    -0.00   0.00   0.00     0.00   0.00  -0.00     0.00   0.00  -0.00
  18   1     0.00   0.00  -0.00    -0.00  -0.00   0.00    -0.00  -0.00   0.00
  19   1    -0.00   0.00   0.00     0.00   0.00   0.00     0.00   0.00  -0.00
  20   1     0.00  -0.00  -0.00    -0.00   0.00   0.00    -0.00   0.00   0.00
  21   1    -0.00   0.00   0.00    -0.00   0.00   0.00    -0.00   0.00   0.00
  22   6    -0.01   0.00  -0.01    -0.00   0.00  -0.00    -0.00   0.00   0.00
  23   8     0.00  -0.00   0.00     0.00  -0.00   0.00     0.00  -0.00  -0.00
  24   7    -0.27   0.01  -0.14    -0.00   0.00  -0.00    -0.00  -0.00  -0.00
  25   1     0.41   0.22   0.51     0.00   0.00   0.00     0.00   0.00   0.00
  26   1     0.61  -0.25   0.01     0.01  -0.00   0.00     0.00  -0.00   0.00
  27   7    -0.01   0.00   0.00    -0.00  -0.00  -0.00    -0.00  -0.00  -0.00
  28   1     0.03  -0.00  -0.00     0.00  -0.00  -0.00     0.00   0.00  -0.00
  29   1     0.00  -0.00  -0.00    -0.00   0.00   0.00    -0.00   0.00   0.00
  30   6     0.00   0.00   0.00     0.00   0.00   0.00    -0.00   0.00   0.00
  31   8    -0.00  -0.00  -0.00     0.00  -0.00  -0.00     0.00  -0.00  -0.00
  32   7     0.00   0.00   0.00     0.00   0.00   0.00    -0.00  -0.00  -0.00
  33   1    -0.00   0.00   0.00    -0.00   0.00   0.00     0.00  -0.00  -0.00
  34   1    -0.00  -0.00  -0.00    -0.00  -0.00  -0.00     0.00   0.00   0.00
  35   7     0.00   0.00   0.00     0.00  -0.00  -0.00    -0.00  -0.00  -0.00
  36   1    -0.00  -0.00  -0.00    -0.00  -0.00  -0.00     0.00   0.00   0.00
  37   1     0.00   0.00  -0.00     0.00   0.00   0.00    -0.00   0.00   0.00
  38   6    -0.00   0.00  -0.00    -0.00   0.00  -0.00    -0.00   0.00  -0.00
  39   8    -0.00  -0.00   0.00    -0.00  -0.00   0.00     0.00  -0.00   0.00
  40   7    -0.00   0.00  -0.00     0.00  -0.00   0.00    -0.00   0.00  -0.00
  41   1     0.01  -0.00  -0.00     0.00   0.00  -0.00     0.00  -0.00  -0.00
  42   1     0.01  -0.01   0.01    -0.00   0.00  -0.00     0.00  -0.00   0.00
  43   7    -0.00   0.00  -0.00     0.00  -0.00  -0.00    -0.00  -0.00  -0.00
  44   1     0.00  -0.00   0.00    -0.00   0.00  -0.00     0.00  -0.00   0.00
  45   1    -0.00   0.00   0.00    -0.00   0.00   0.00    -0.00   0.00   0.00
  46   6    -0.00   0.00   0.00     0.01  -0.00  -0.00     0.01   0.01  -0.00
  47   8    -0.00  -0.00  -0.00    -0.00   0.00   0.00    -0.00  -0.00   0.00
  48   7    -0.00   0.00   0.00     0.00  -0.21  -0.01     0.00   0.22   0.01
  49   1     0.00  -0.00  -0.00    -0.22   0.43   0.13     0.23  -0.43  -0.13
  50   1    -0.00  -0.00   0.00     0.22   0.36  -0.09    -0.23  -0.39   0.09
  51   7    -0.00  -0.00   0.00     0.16   0.10  -0.11     0.16   0.09  -0.10
  52   1     0.00   0.00  -0.00    -0.17  -0.39   0.15    -0.17  -0.39   0.15
  53   1     0.01  -0.00  -0.00    -0.45   0.03   0.25    -0.42   0.03   0.24
