      -----------------------------------------------------------      
     |                   =====================                   |     
     |                           x T B                           |     
     |                   =====================                   |     
     |                         S. Grimme                         |     
     |          Mulliken Center for Theoretical Chemistry        |     
     |                    University of Bonn                     |     
      -----------------------------------------------------------      

   * xtb version 6.6.1 (unknown-commit) compiled by '@Linux' on 12/27/2023

   xtb is free software: you can redistribute it and/or modify it under
   the terms of the GNU Lesser General Public License as published by
   the Free Software Foundation, either version 3 of the License, or
   (at your option) any later version.
   
   xtb is distributed in the hope that it will be useful,
   but WITHOUT ANY WARRANTY; without even the implied warranty of
   MERCHANTABILITY or FITNESS FOR A PARTICULAR PURPOSE.  See the
   GNU Lesser General Public License for more details.
   
   Cite this work as:
   * C. Bannwarth, E. Caldeweyher, S. Ehlert, A. Hansen, P. Pracht,
     J. Seibert, S. Spicher, S. Grimme, WIREs Comput. Mol. Sci., 2020, 11,
     e01493. DOI: 10.1002/wcms.1493
   
   for GFN2-xTB:
   * C. Bannwarth, S. Ehlert and S. Grimme., J. Chem. Theory Comput., 2019,
     15, 1652-1671. DOI: 10.1021/acs.jctc.8b01176
   for GFN1-xTB:
   * S. Grimme, C. Bannwarth, P. Shushkov, J. Chem. Theory Comput., 2017,
     13, 1989-2009. DOI: 10.1021/acs.jctc.7b00118
   for GFN0-xTB:
   * P. Pracht, E. Caldeweyher, S. Ehlert, S. Grimme, ChemRxiv, 2019, preprint.
     DOI: 10.26434/chemrxiv.8326202.v1
   for GFN-FF:
   * S. Spicher and S. Grimme, Angew. Chem. Int. Ed., 2020, 59, 15665-15673.
     DOI: 10.1002/anie.202004239
   
   for ALPB and GBSA implicit solvation:
   * S. Ehlert, M. Stahn, S. Spicher, S. Grimme, J. Chem. Theory Comput.,
     2021, 17, 4250-4261. DOI: 10.1021/acs.jctc.1c00471
   
   for DFT-D4:
   * E. Caldeweyher, C. Bannwarth and S. Grimme, J. Chem. Phys., 2017,
     147, 034112. DOI: 10.1063/1.4993215
   * E. Caldeweyher, S. Ehlert, A. Hansen, H. Neugebauer, S. Spicher,
     C. Bannwarth and S. Grimme, J. Chem. Phys., 2019, 150, 154122.
     DOI: 10.1063/1.5090222
   * E. Caldeweyher, J.-M. Mewes, S. Ehlert and S. Grimme, Phys. Chem. Chem. Phys.
     2020, 22, 8499-8512. DOI: 10.1039/D0CP00502A
   
   for sTDA-xTB:
   * S. Grimme and C. Bannwarth, J. Chem. Phys., 2016, 145, 054103.
     DOI: 10.1063/1.4959605
   
   in the mass-spec context:
   * V. Asgeirsson, C. Bauer and S. Grimme, Chem. Sci., 2017, 8, 4879.
     DOI: 10.1039/c7sc00601b
   * J. Koopman and S. Grimme, ACS Omega 2019, 4, 12, 15120-15133.
     DOI: 10.1021/acsomega.9b02011
   
   for metadynamics refer to:
   * S. Grimme, J. Chem. Theory Comput., 2019, 155, 2847-2862
     DOI: 10.1021/acs.jctc.9b00143
   
   for SPH calculations refer to:
   * S. Spicher and S. Grimme, J. Chem. Theory Comput., 2021, 17, 1701-1714
     DOI: 10.1021/acs.jctc.0c01306
   
   with help from (in alphabetical order)
   P. Atkinson, C. Bannwarth, F. Bohle, G. Brandenburg, E. Caldeweyher
   M. Checinski, S. Dohm, S. Ehlert, S. Ehrlich, I. Gerasimov, C. Hölzer
   A. Katbashev, J. Koopman, C. Lavigne, S. Lehtola, F. März, M. Müller,
   F. Musil, H. Neugebauer, J. Pisarek, C. Plett, P. Pracht, F. Pultar,
   J. Seibert, P. Shushkov, S. Spicher, M. Stahn, M. Steiner, T. Strunk,
   J. Stückrath, T. Rose, and J. Unsleber
   
 * started run on 2024/01/10 at 18:25:27.516     

           -------------------------------------------------
          |                Calculation Setup                |
           -------------------------------------------------

          program call               : xtb struc.xyz --gfn2 --hess
          hostname                   : swaroop
          coordinate file            : struc.xyz
          omp threads                :                     1

   ID    Z sym.   atoms
    1    8 O      1, 23, 31, 39, 47
    2    6 C      2, 5, 9, 13, 17, 22, 30, 38, 46
    3    1 H      3, 4, 6, 7, 10-12, 14-16, 18-21, 25, 26, 28, 29, 33, 34,
                  36, 37, 41, 42, 44, 45, 49, 50, 52, 53
    4    7 N      8, 24, 27, 32, 35, 40, 43, 48, 51

molecular fragmentation (1/2 indicates fragments):
11111111111111111111122222222222222222222222222222222
# atoms in fragment 1/2:    21    32
 fragment masses (1/2) :      104.17      240.22
CMA distance (Bohr)    :   7.435
constraining FC (au)   :  0.0500

           -------------------------------------------------
          |                 G F N 2 - x T B                 |
           -------------------------------------------------

        Reference                      10.1021/acs.jctc.8b01176
      * Hamiltonian:
        H0-scaling (s, p, d)           1.850000    2.230000    2.230000
        zeta-weighting                 0.500000
      * Dispersion:
        s8                             2.700000
        a1                             0.520000
        a2                             5.000000
        s9                             5.000000
      * Repulsion:
        kExp                           1.500000    1.000000
        rExp                           1.000000
      * Coulomb:
        alpha                          2.000000
        third order                    shell-resolved
        anisotropic                    true
        a3                             3.000000
        a5                             4.000000
        cn-shift                       1.200000
        cn-exp                         4.000000
        max-rad                        5.000000


          ...................................................
          :                      SETUP                      :
          :.................................................:
          :  # basis functions                 122          :
          :  # atomic orbitals                 122          :
          :  # shells                           76          :
          :  # electrons                       140          :
          :  max. iterations                   250          :
          :  Hamiltonian                  GFN2-xTB          :
          :  restarted?                      false          :
          :  GBSA solvation                  false          :
          :  PC potential                    false          :
          :  electronic temp.          300.0000000     K    :
          :  accuracy                    1.0000000          :
          :  -> integral cutoff          0.2500000E+02      :
          :  -> integral neglect         0.1000000E-07      :
          :  -> SCF convergence          0.1000000E-05 Eh   :
          :  -> wf. convergence          0.1000000E-03 e    :
          :  Broyden damping             0.4000000          :
          ...................................................

 iter      E             dE          RMSdq      gap      omega  full diag
   1    -81.5553431 -0.815553E+02  0.437E+00    5.15       0.0  T
   2    -81.8395735 -0.284230E+00  0.239E+00    5.92       1.0  T
   3    -81.8452136 -0.564002E-02  0.115E+00    5.54       1.0  T
   4    -81.8466258 -0.141227E-02  0.243E-01    5.58       1.0  T
   5    -81.8475245 -0.898727E-03  0.921E-02    5.50       1.0  T
   6    -81.8475494 -0.248158E-04  0.260E-02    5.52       1.0  T
   7    -81.8475536 -0.421383E-05  0.764E-03    5.52       1.8  T
   8    -81.8475539 -0.312201E-06  0.286E-03    5.51       4.8  T
   9    -81.8475539 -0.264134E-07  0.108E-03    5.51      12.7  T
  10    -81.8475539 -0.524035E-08  0.188E-04    5.51      73.2  T
  11    -81.8475539 -0.301696E-09  0.844E-05    5.51     162.8  T

   *** convergence criteria satisfied after 11 iterations ***

         #    Occupation            Energy/Eh            Energy/eV
      -------------------------------------------------------------
         1        2.0000           -0.8015427             -21.8111
       ...           ...                  ...                  ...
        64        2.0000           -0.4988215             -13.5736
        65        2.0000           -0.4967067             -13.5161
        66        2.0000           -0.4921438             -13.3919
        67        2.0000           -0.4895224             -13.3206
        68        2.0000           -0.4886810             -13.2977
        69        2.0000           -0.4865446             -13.2396
        70        2.0000           -0.4820561             -13.1174 (HOMO)
        71                         -0.2794551              -7.6044 (LUMO)
        72                         -0.2688034              -7.3145
        73                         -0.2608602              -7.0984
        74                         -0.2554271              -6.9505
        75                         -0.1567194              -4.2646
       ...                                ...                  ...
       122                          0.5595439              15.2260
      -------------------------------------------------------------
                  HL-Gap            0.2026010 Eh            5.5131 eV
             Fermi-level           -0.3807556 Eh          -10.3609 eV

 SCC (total)                   0 d,  0 h,  0 min,  0.093 sec
 SCC setup                      ...        0 min,  0.000 sec (  0.310%)
 Dispersion                     ...        0 min,  0.001 sec (  0.627%)
 classical contributions        ...        0 min,  0.000 sec (  0.194%)
 integral evaluation            ...        0 min,  0.008 sec (  8.309%)
 iterations                     ...        0 min,  0.056 sec ( 60.472%)
 molecular gradient             ...        0 min,  0.028 sec ( 29.791%)
 printout                       ...        0 min,  0.000 sec (  0.285%)

         :::::::::::::::::::::::::::::::::::::::::::::::::::::
         ::                     SUMMARY                     ::
         :::::::::::::::::::::::::::::::::::::::::::::::::::::
         :: total energy             -80.935419567476 Eh    ::
         :: gradient norm              0.000103292148 Eh/a0 ::
         :: HOMO-LUMO gap              5.513053692876 eV    ::
         ::.................................................::
         :: SCC energy               -81.847553921032 Eh    ::
         :: -> isotropic ES            0.296285994872 Eh    ::
         :: -> anisotropic ES         -0.028759887849 Eh    ::
         :: -> anisotropic XC          0.020120113084 Eh    ::
         :: -> dispersion             -0.043574543533 Eh    ::
         :: repulsion energy           0.910916068507 Eh    ::
         :: add. restraining           0.000000000000 Eh    ::
         :: total charge               1.000000000000 e     ::
         :::::::::::::::::::::::::::::::::::::::::::::::::::::

           ------------------------------------------------- 
          |                Numerical Hessian                |
           ------------------------------------------------- 
step length          :   0.00500
SCC accuracy         :   0.30000
Hessian scale factor :   1.00000
frozen atoms in %    :   0.00000    0
RMS gradient         :   0.00010
estimated CPU  time      0.24 min
estimated wall time      0.24 min

writing file <hessian>.

 projected vibrational frequencies (cm⁻¹)
eigval :       -0.00    -0.00    -0.00     0.00     0.00     0.00
eigval :       12.47    15.43    26.21    34.04    39.40    45.04
eigval :       49.44    51.91    58.76    60.46    65.65    68.10
eigval :       71.08    82.36    90.38   104.35   112.93   124.03
eigval :      134.69   135.76   149.45   153.25   167.32   180.13
eigval :      196.94   236.60   245.13   255.04   270.97   290.73
eigval :      300.27   317.67   321.98   331.74   338.05   348.62
eigval :      377.96   393.69   425.54   440.85   459.26   462.13
eigval :      464.30   471.37   477.14   481.05   483.54   485.35
eigval :      490.74   520.17   542.19   546.56   550.78   561.14
eigval :      562.93   579.08   622.03   661.72   676.04   678.01
eigval :      683.29   687.38   695.26   762.82   781.96   826.77
eigval :      900.79   923.47   942.45   958.51   962.85   978.40
eigval :      995.87  1003.87  1007.26  1011.14  1012.64  1022.90
eigval :     1028.98  1033.02  1035.82  1074.64  1081.41  1085.24
eigval :     1086.42  1091.57  1100.79  1125.99  1167.82  1221.62
eigval :     1244.13  1271.19  1316.58  1333.21  1351.99  1354.72
eigval :     1362.09  1364.53  1378.68  1385.53  1404.90  1410.61
eigval :     1425.96  1436.92  1439.43  1441.73  1446.67  1454.92
eigval :     1455.52  1461.94  1465.10  1468.98  1473.93  1484.21
eigval :     1488.10  1500.85  1506.33  1513.16  1531.22  1642.35
eigval :     1684.11  1700.03  1709.85  2888.03  2968.20  2977.31
eigval :     2989.14  3029.86  3038.16  3040.88  3041.99  3043.92
eigval :     3048.37  3049.19  3055.86  3058.61  3102.51  3143.52
eigval :     3320.10  3343.96  3384.70  3438.86  3465.20  3497.14
eigval :     3497.33  3498.53  3532.33  3533.51  3542.89  3547.80
eigval :     3563.04  3563.34  3564.65
           -------------------------------------------------
          |                Property Printout                |
           -------------------------------------------------

    * Orbital Energies and Occupations

         #    Occupation            Energy/Eh            Energy/eV
      -------------------------------------------------------------
         1        2.0000           -0.8015428             -21.8111
       ...           ...                  ...                  ...
        58        2.0000           -0.5162007             -14.0465
        59        2.0000           -0.5108951             -13.9022
        60        2.0000           -0.5059205             -13.7668
        61        2.0000           -0.5047411             -13.7347
        62        2.0000           -0.5043397             -13.7238
        63        2.0000           -0.5003398             -13.6149
        64        2.0000           -0.4988224             -13.5736
        65        2.0000           -0.4967073             -13.5161
        66        2.0000           -0.4921446             -13.3919
        67        2.0000           -0.4895231             -13.3206
        68        2.0000           -0.4886820             -13.2977
        69        2.0000           -0.4865452             -13.2396
        70        2.0000           -0.4820569             -13.1174 (HOMO)
        71                         -0.2794547              -7.6043 (LUMO)
        72                         -0.2688039              -7.3145
        73                         -0.2608611              -7.0984
        74                         -0.2554271              -6.9505
        75                         -0.1567194              -4.2646
        76                         -0.1117443              -3.0407
        77                         -0.0916405              -2.4937
        78                         -0.0839345              -2.2840
        79                         -0.0821143              -2.2344
        80                         -0.0782282              -2.1287
        81                         -0.0749887              -2.0405
       ...                                ...                  ...
       122                          0.5595436              15.2260
      -------------------------------------------------------------
                  HL-Gap            0.2026022 Eh            5.5131 eV
             Fermi-level           -0.3807558 Eh          -10.3609 eV

     #   Z          covCN         q      C6AA      α(0)
     1   8 O        1.653    -0.482    22.500     6.403
     2   6 C        3.673     0.073    19.589     6.343
     3   1 H        0.924     0.055     2.256     2.349
     4   1 H        0.923     0.041     2.435     2.440
     5   6 C        3.767    -0.080    22.057     6.694
     6   1 H        0.924     0.113     1.673     2.023
     7   1 H        0.924     0.123     1.586     1.969
     8   7 N        3.623     0.157    18.597     6.405
     9   6 C        3.720    -0.101    22.543     6.781
    10   1 H        0.925     0.093     1.852     2.128
    11   1 H        0.925     0.080     1.981     2.201
    12   1 H        0.925     0.116     1.644     2.005
    13   6 C        3.735    -0.120    22.898     6.829
    14   1 H        0.925     0.118     1.633     1.998
    15   1 H        0.925     0.127     1.555     1.950
    16   1 H        0.925     0.078     2.001     2.212
    17   6 C        3.724    -0.102    22.565     6.783
    18   1 H        0.925     0.093     1.852     2.128
    19   1 H        0.925     0.087     1.909     2.161
    20   1 H        0.925     0.116     1.649     2.008
    21   1 H        0.802     0.331     0.635     1.252
    22   6 C        2.675     0.341    21.203     7.535
    23   8 O        0.860    -0.545    24.796     6.676
    24   7 N        2.646    -0.297    27.662     7.811
    25   1 H        0.860     0.194     1.138     1.671
    26   1 H        0.860     0.185     1.185     1.705
    27   7 N        2.646    -0.309    27.959     7.853
    28   1 H        0.860     0.209     1.061     1.614
    29   1 H        0.860     0.221     1.003     1.569
    30   6 C        2.675     0.339    21.236     7.541
    31   8 O        0.861    -0.547    24.848     6.683
    32   7 N        2.644    -0.292    27.520     7.791
    33   1 H        0.860     0.218     1.020     1.582
    34   1 H        0.861     0.187     1.176     1.698
    35   7 N        2.644    -0.297    27.644     7.809
    36   1 H        0.861     0.184     1.189     1.708
    37   1 H        0.859     0.252     0.875     1.465
    38   6 C        2.675     0.342    21.194     7.533
    39   8 O        0.861    -0.518    24.195     6.595
    40   7 N        2.644    -0.302    27.770     7.827
    41   1 H        0.860     0.230     0.965     1.538
    42   1 H        0.861     0.180     1.212     1.725
    43   7 N        2.645    -0.285    27.365     7.769
    44   1 H        0.861     0.186     1.183     1.703
    45   1 H        0.860     0.205     1.080     1.628
    46   6 C        2.675     0.342    21.183     7.531
    47   8 O        0.860    -0.529    24.435     6.628
    48   7 N        2.645    -0.292    27.539     7.794
    49   1 H        0.860     0.199     1.109     1.650
    50   1 H        0.861     0.181     1.210     1.723
    51   7 N        2.644    -0.306    27.890     7.843
    52   1 H        0.861     0.174     1.247     1.749
    53   1 H        0.860     0.233     0.952     1.529

 Mol. C6AA /au·bohr⁶  :      21793.096565
 Mol. C8AA /au·bohr⁸  :     454366.287263
 Mol. α(0) /au        :        220.541779


Wiberg/Mayer (AO) data.
largest (>0.10) Wiberg bond orders for each atom

 ---------------------------------------------------------------------------
     #   Z sym  total        # sym  WBO       # sym  WBO       # sym  WBO
 ---------------------------------------------------------------------------
     1   8 O    1.949 --     2 C    1.016    21 H    0.812
     2   6 C    3.965 --     1 O    1.016     5 C    0.997     3 H    0.966
                             4 H    0.962
     3   1 H    0.997 --     2 C    0.966
     4   1 H    0.998 --     2 C    0.962
     5   6 C    3.917 --     2 C    0.997     6 H    0.949     7 H    0.940
                             8 N    0.928
     6   1 H    0.987 --     5 C    0.949
     7   1 H    0.985 --     5 C    0.940
     8   7 N    3.821 --    17 C    0.962     9 C    0.962    13 C    0.951
                             5 C    0.928
     9   6 C    3.932 --    11 H    0.978    10 H    0.977    12 H    0.964
                             8 N    0.962
    10   1 H    0.991 --     9 C    0.977
    11   1 H    0.994 --     9 C    0.978
    12   1 H    0.986 --     9 C    0.964
    13   6 C    3.913 --    16 H    0.978    14 H    0.963    15 H    0.955
                             8 N    0.951
    14   1 H    0.986 --    13 C    0.963
    15   1 H    0.984 --    13 C    0.955
    16   1 H    0.994 --    13 C    0.978
    17   6 C    3.933 --    19 H    0.977    18 H    0.974    20 H    0.971
                             8 N    0.962
    18   1 H    0.991 --    17 C    0.974
    19   1 H    0.992 --    17 C    0.977
    20   1 H    0.987 --    17 C    0.971
    21   1 H    0.890 --     1 O    0.812
    22   6 C    3.959 --    23 O    1.489    27 N    1.265    24 N    1.194
    23   8 O    1.877 --    22 C    1.489    27 N    0.146    24 N    0.130
    24   7 N    3.307 --    22 C    1.194    26 H    0.947    25 H    0.945
                            23 O    0.130
    25   1 H    0.962 --    24 N    0.945
    26   1 H    0.966 --    24 N    0.947
    27   7 N    3.355 --    22 C    1.265    28 H    0.915    29 H    0.899
                            23 O    0.146
    28   1 H    0.956 --    27 N    0.915
    29   1 H    0.951 --    27 N    0.899
    30   6 C    3.960 --    31 O    1.431    35 N    1.289    32 N    1.230
    31   8 O    1.903 --    30 C    1.431    35 N    0.136    32 N    0.122
    32   7 N    3.335 --    30 C    1.230    34 H    0.946    33 H    0.927
                            31 O    0.122
    33   1 H    0.952 --    32 N    0.927
    34   1 H    0.965 --    32 N    0.946
    35   7 N    3.368 --    30 C    1.289    36 H    0.946    37 H    0.859
                            31 O    0.136
    36   1 H    0.966 --    35 N    0.946
    37   1 H    0.936 --    35 N    0.859
    38   6 C    3.960 --    39 O    1.495    40 N    1.239    43 N    1.216
    39   8 O    1.921 --    38 C    1.495    40 N    0.143    43 N    0.133
    40   7 N    3.338 --    38 C    1.239    42 H    0.948    41 H    0.897
                            39 O    0.143
    41   1 H    0.947 --    40 N    0.897
    42   1 H    0.967 --    40 N    0.948
    43   7 N    3.330 --    38 C    1.216    44 H    0.947    45 H    0.941
                            39 O    0.133
    44   1 H    0.965 --    43 N    0.947
    45   1 H    0.958 --    43 N    0.941
    46   6 C    3.959 --    47 O    1.522    51 N    1.230    48 N    1.200
    47   8 O    1.893 --    46 C    1.522    51 N    0.146    48 N    0.137
    48   7 N    3.315 --    46 C    1.200    50 H    0.948    49 H    0.943
                            47 O    0.137
    49   1 H    0.960 --    48 N    0.943
    50   1 H    0.967 --    48 N    0.948
    51   7 N    3.328 --    46 C    1.230    52 H    0.950    53 H    0.894
                            47 O    0.146
    52   1 H    0.970 --    51 N    0.950
    53   1 H    0.946 --    51 N    0.894
 ---------------------------------------------------------------------------

Topologies differ in total number of bonds
Writing topology from bond orders to xtbtopo.mol

molecular dipole:
                 x           y           z       tot (Debye)
 q only:        0.430      -0.879       0.288
   full:        0.711      -0.359      -0.317       2.179
molecular quadrupole (traceless):
                xx          xy          yy          xz          yz          zz
 q only:       18.146      15.311      -8.023     -10.112     -10.343     -10.123
  q+dip:       24.431      17.753     -11.406     -11.151      -8.483     -13.025
   full:       24.971      17.911     -11.197     -10.814      -7.986     -13.774

           -------------------------------------------------
          |               Frequency Printout                |
           -------------------------------------------------
 projected vibrational frequencies (cm⁻¹)
eigval :       -0.00    -0.00    -0.00     0.00     0.00     0.00
eigval :       12.47    15.43    26.21    34.04    39.40    45.04
eigval :       49.44    51.91    58.76    60.46    65.65    68.10
eigval :       71.08    82.36    90.38   104.35   112.93   124.03
eigval :      134.69   135.76   149.45   153.25   167.32   180.13
eigval :      196.94   236.60   245.13   255.04   270.97   290.73
eigval :      300.27   317.67   321.98   331.74   338.05   348.62
eigval :      377.96   393.69   425.54   440.85   459.26   462.13
eigval :      464.30   471.37   477.14   481.05   483.54   485.35
eigval :      490.74   520.17   542.19   546.56   550.78   561.14
eigval :      562.93   579.08   622.03   661.72   676.04   678.01
eigval :      683.29   687.38   695.26   762.82   781.96   826.77
eigval :      900.79   923.47   942.45   958.51   962.85   978.40
eigval :      995.87  1003.87  1007.26  1011.14  1012.64  1022.90
eigval :     1028.98  1033.02  1035.82  1074.64  1081.41  1085.24
eigval :     1086.42  1091.57  1100.79  1125.99  1167.82  1221.62
eigval :     1244.13  1271.19  1316.58  1333.21  1351.99  1354.72
eigval :     1362.09  1364.53  1378.68  1385.53  1404.90  1410.61
eigval :     1425.96  1436.92  1439.43  1441.73  1446.67  1454.92
eigval :     1455.52  1461.94  1465.10  1468.98  1473.93  1484.21
eigval :     1488.10  1500.85  1506.33  1513.16  1531.22  1642.35
eigval :     1684.11  1700.03  1709.85  2888.03  2968.20  2977.31
eigval :     2989.14  3029.86  3038.16  3040.88  3041.99  3043.92
eigval :     3048.37  3049.19  3055.86  3058.61  3102.51  3143.52
eigval :     3320.10  3343.96  3384.70  3438.86  3465.20  3497.14
eigval :     3497.33  3498.53  3532.33  3533.51  3542.89  3547.80
eigval :     3563.04  3563.34  3564.65
 reduced masses (amu)
   1: 12.64   2: 12.82   3: 12.33   4: 11.97   5: 12.82   6: 12.52   7: 12.21   8: 12.10
   9: 11.11  10: 11.04  11: 12.41  12: 12.62  13: 12.32  14: 12.48  15: 12.67  16: 12.46
  17: 12.04  18: 12.91  19: 12.56  20: 12.91  21: 12.92  22: 12.35  23: 12.79  24: 13.07
  25: 12.31  26: 13.04  27: 13.14  28: 12.84  29: 13.68  30: 12.48  31:  8.51  32:  1.94
  33:  9.84  34:  8.75  35:  2.60  36:  3.78  37:  7.35  38:  5.96  39:  3.22  40:  2.53
  41:  3.47  42:  3.91  43:  7.52  44:  3.26  45:  8.82  46:  3.40  47:  8.41  48:  5.39
  49:  6.25  50:  5.97  51:  5.54  52:  6.91  53:  7.49  54:  1.87  55:  8.83  56:  1.75
  57: 10.81  58: 10.81  59: 10.68  60:  8.44  61:  5.07  62: 12.02  63:  2.30  64:  5.84
  65: 11.65  66: 10.54  67: 10.06  68:  6.30  69:  3.76  70:  9.23  71:  1.75  72:  1.84
  73:  6.99  74:  8.39  75:  4.98  76:  5.00  77:  4.92  78:  4.52  79:  7.42  80:  9.08
  81:  8.10  82:  8.77  83:  7.29  84:  6.02  85:  8.33  86:  8.34  87:  3.10  88: 10.17
  89:  9.29  90:  8.86  91:  8.90  92:  6.50  93:  4.31  94:  8.86  95:  3.03  96:  5.08
  97:  7.05  98:  8.27  99:  6.13 100:  3.11 101:  4.87 102:  4.83 103:  5.33 104:  3.56
 105:  4.55 106:  4.63 107:  2.57 108:  2.56 109:  2.31 110:  1.86 111:  2.02 112:  3.37
 113:  3.26 114:  1.91 115:  1.96 116:  2.04 117:  1.85 118:  2.93 119:  2.36 120:  1.75
 121:  1.72 122:  7.93 123:  8.72 124:  9.28 125: 10.31 126: 12.20 127: 12.69 128: 12.60
 129: 12.76 130:  1.76 131:  1.91 132:  1.58 133:  1.71 134:  1.77 135:  1.70 136:  1.93
 137:  1.70 138:  1.68 139:  1.52 140:  1.64 141:  1.93 142:  1.70 143:  1.92 144:  1.83
 145:  1.74 146:  1.73 147:  1.60 148:  2.06 149:  1.53 150:  1.45 151:  1.45 152:  1.45
 153:  1.93 154:  1.90 155:  1.96 156:  2.10 157:  2.18 158:  2.18 159:  2.18
 IR intensities (km·mol⁻¹)
   1:  2.07   2:  1.04   3:  1.84   4:  0.86   5:  2.67   6:  0.24   7:  0.92   8:  0.14
   9:  1.11  10:  1.69  11:  1.24  12:  0.20  13:  1.62  14:  2.92  15:  1.65  16:  4.95
  17:  1.03  18:  6.61  19:  5.14  20:  1.17  21:  4.29  22: 17.32  23: 18.57  24:  3.41
  25:  8.17  26: 21.49  27:  7.21  28: 44.95  29:  8.27  30: 37.87  31: 10.79  32: 53.32
  33: 18.92  34:  4.93  35:127.52  36:  0.76  37:  2.72  38:  7.04  39:124.96  40:130.73
  41: 10.18  42:274.31  43:  0.64  44:291.14  45:  4.31  46:273.89  47:  0.30  48: 10.99
  49: 20.77  50: 11.29  51:  4.23  52: 15.19  53: 13.78  54:  9.72  55: 17.66  56: 34.26
  57: 43.70  58: 92.71  59: 25.93  60: 12.77  61:184.67  62: 62.63  63: 20.34  64: 31.48
  65:100.72  66:  2.87  67: 78.24  68:181.51  69:113.12  70:  4.52  71:346.29  72:288.62
  73:  8.19  74:  7.30  75:  9.42  76:  6.77  77:  0.38  78:  7.65  79: 23.67  80: 15.01
  81: 12.37  82:  8.25  83: 22.89  84: 29.96  85: 19.24  86: 17.35  87:  0.43  88: 11.56
  89:  0.64  90:  4.65  91:  3.66  92: 17.31  93: 18.81  94: 39.62  95: 10.36  96:  5.89
  97:  2.99  98:  4.97  99:  5.56 100: 12.28 101: 95.25 102:118.91 103: 79.47 104:100.46
 105:  1.84 106: 68.59 107: 21.75 108:  8.42 109: 36.20 110:  4.04 111: 13.05 112:  6.00
 113: 18.38 114: 12.74 115:  7.13 116:  9.66 117:  6.72 118: 21.79 119: 29.65 120: 80.73
 121: 23.42 122:776.72 123: 70.39 124:****** 125:358.34 126:691.76 127:793.49 128:865.42
 129:686.77 130: 34.73 131: 75.39 132: 54.67 133: 14.97 134: 54.02 135: 11.83 136:  9.04
 137: 11.80 138:  6.46 139: 17.25 140:  8.46 141:  6.09 142:  3.67 143:****** 144:649.62
 145:705.22 146:351.75 147:547.00 148:227.09 149: 48.35 150: 17.86 151: 19.70 152: 21.65
 153: 10.80 154: 11.46 155: 20.87 156: 32.07 157: 13.69 158:  8.85 159: 18.31
 Raman intensities (amu)
Molecule has no symmetry elements
It seems to be the C1 point group
   1:  0.00   2:  0.00   3:  0.00   4:  0.00   5:  0.00   6:  0.00   7:  0.00   8:  0.00
   9:  0.00  10:  0.00  11:  0.00  12:  0.00  13:  0.00  14:  0.00  15:  0.00  16:  0.00
  17:  0.00  18:  0.00  19:  0.00  20:  0.00  21:  0.00  22:  0.00  23:  0.00  24:  0.00
  25:  0.00  26:  0.00  27:  0.00  28:  0.00  29:  0.00  30:  0.00  31:  0.00  32:  0.00
  33:  0.00  34:  0.00  35:  0.00  36:  0.00  37:  0.00  38:  0.00  39:  0.00  40:  0.00
  41:  0.00  42:  0.00  43:  0.00  44:  0.00  45:  0.00  46:  0.00  47:  0.00  48:  0.00
  49:  0.00  50:  0.00  51:  0.00  52:  0.00  53:  0.00  54:  0.00  55:  0.00  56:  0.00
  57:  0.00  58:  0.00  59:  0.00  60:  0.00  61:  0.00  62:  0.00  63:  0.00  64:  0.00
  65:  0.00  66:  0.00  67:  0.00  68:  0.00  69:  0.00  70:  0.00  71:  0.00  72:  0.00
  73:  0.00  74:  0.00  75:  0.00  76:  0.00  77:  0.00  78:  0.00  79:  0.00  80:  0.00
  81:  0.00  82:  0.00  83:  0.00  84:  0.00  85:  0.00  86:  0.00  87:  0.00  88:  0.00
  89:  0.00  90:  0.00  91:  0.00  92:  0.00  93:  0.00  94:  0.00  95:  0.00  96:  0.00
  97:  0.00  98:  0.00  99:  0.00 100:  0.00 101:  0.00 102:  0.00 103:  0.00 104:  0.00
 105:  0.00 106:  0.00 107:  0.00 108:  0.00 109:  0.00 110:  0.00 111:  0.00 112:  0.00
 113:  0.00 114:  0.00 115:  0.00 116:  0.00 117:  0.00 118:  0.00 119:  0.00 120:  0.00
 121:  0.00 122:  0.00 123:  0.00 124:  0.00 125:  0.00 126:  0.00 127:  0.00 128:  0.00
 129:  0.00 130:  0.00 131:  0.00 132:  0.00 133:  0.00 134:  0.00 135:  0.00 136:  0.00
 137:  0.00 138:  0.00 139:  0.00 140:  0.00 141:  0.00 142:  0.00 143:  0.00 144:  0.00
 145:  0.00 146:  0.00 147:  0.00 148:  0.00 149:  0.00 150:  0.00 151:  0.00 152:  0.00
 153:  0.00 154:  0.00 155:  0.00 156:  0.00 157:  0.00 158:  0.00 159:  0.00
 output can be read by thermo (or use thermo option).
 writing <g98.out> molden fake output.
 recommended (thermochemical) frequency scaling factor: 1.0
           -------------------------------------------------
          |             Thermodynamic Functions             |
           -------------------------------------------------

c1  symmetry found (for desy threshold:  0.10E+00) used in thermo

          ...................................................
          :                      SETUP                      :
          :.................................................:
          :  # frequencies                         153      :
          :  # imaginary freq.                       0      :
          :  linear?                             false      :
          :  only rotor calc.                    false      :
          :  symmetry                               c1      :
          :  rotational number                       1      :
          :  scaling factor                  1.0000000      :
          :  rotor cutoff                   50.0000000 cm⁻¹ :
          :  imag. cutoff                  -20.0000000 cm⁻¹ :
          :.................................................:

    mode    ω/cm⁻¹     T·S(HO)/kcal·mol⁻¹    T·S(FR)/kcal·mol⁻¹   T·S(vib)
   ------------------------------------------------------------------------
       1     12.47    -2.25762 (  0.39%)    -1.46777 ( 99.61%)    -1.47081
       2     15.43    -2.13150 (  0.90%)    -1.40470 ( 99.10%)    -1.41124
       3     26.21    -1.81803 (  7.02%)    -1.24788 ( 92.98%)    -1.28788
       4     34.04    -1.66328 ( 17.69%)    -1.17038 ( 82.31%)    -1.25757
       5     39.40    -1.57698 ( 27.82%)    -1.12712 ( 72.18%)    -1.25227
       6     45.04    -1.49798 ( 39.69%)    -1.08749 ( 60.31%)    -1.25043
       7     49.44    -1.44289 ( 48.88%)    -1.05983 ( 51.12%)    -1.24708
       8     51.91    -1.41425 ( 53.73%)    -1.04544 ( 46.27%)    -1.24362
       9     58.76    -1.34119 ( 65.61%)    -1.00870 ( 34.39%)    -1.22683
      10     60.46    -1.32443 ( 68.13%)    -1.00026 ( 31.87%)    -1.22112
      11     65.65    -1.27599 ( 74.82%)    -0.97586 ( 25.18%)    -1.20043
      12     68.10    -1.25444 ( 77.49%)    -0.96498 ( 22.51%)    -1.18928
      13     71.08    -1.22935 ( 80.33%)    -0.95232 ( 19.67%)    -1.17486
      14     82.36    -1.14305 ( 88.04%)    -0.90868 ( 11.96%)    -1.11502
      15     90.38    -1.08880 ( 91.44%)    -0.88116 (  8.56%)    -1.07101
      16    104.35    -1.00517 ( 94.99%)    -0.83858 (  5.01%)    -0.99683
      17    112.93    -0.95944 ( 96.30%)    -0.81518 (  3.70%)    -0.95410
      18    124.03    -0.90537 ( 97.43%)    -0.78741 (  2.57%)    -0.90234
      19    134.69    -0.85805 ( 98.14%)    -0.76297 (  1.86%)    -0.85628
      20    135.76    -0.85354 ( 98.19%)    -0.76063 (  1.81%)    -0.85186
      21    149.45    -0.79881 ( 98.76%)    -0.73217 (  1.24%)    -0.79798
      22    153.25    -0.78457 ( 98.88%)    -0.72473 (  1.12%)    -0.78390
      23    167.32    -0.73504 ( 99.21%)    -0.69871 (  0.79%)    -0.73475
      24    180.13    -0.69382 ( 99.41%)    -0.67686 (  0.59%)    -0.69372
      25    196.94    -0.64444 ( 99.59%)    -0.65043 (  0.41%)    -0.64447
      26    236.60    -0.54511 ( 99.80%)    -0.59608 (  0.20%)    -0.54521
      27    245.13    -0.52634 ( 99.83%)    -0.58559 (  0.17%)    -0.52644
      28    255.04    -0.50551 ( 99.85%)    -0.57385 (  0.15%)    -0.50561
      29    270.97    -0.47406 ( 99.88%)    -0.55590 (  0.12%)    -0.47416
      30    290.73    -0.43819 ( 99.91%)    -0.53504 (  0.09%)    -0.43827
   ------------------------------------------------------------------------

   temp. (K)  partition function   enthalpy   heat capacity  entropy
                                   cal/mol     cal/K/mol   cal/K/mol   J/K/mol
 298.15  VIB  0.174E+17            19178.963    104.592    125.686
         ROT  0.137E+08              888.752      2.981     35.635
         INT  0.238E+24            20067.715    107.573    161.322
         TR   0.618E+28             1481.254      4.968     43.384
         TOT                       21548.9689   112.5413   204.7062   856.4908

       T/K    H(0)-H(T)+PV         H(T)/Eh          T*S/Eh         G(T)/Eh
   ------------------------------------------------------------------------
    298.15    0.343405E-01    0.473729E+00    0.972625E-01    0.376467E+00
   ------------------------------------------------------------------------

         :::::::::::::::::::::::::::::::::::::::::::::::::::::
         ::                  THERMODYNAMIC                  ::
         :::::::::::::::::::::::::::::::::::::::::::::::::::::
         :: total free energy         -80.558953052344 Eh   ::
         ::.................................................::
         :: total energy              -80.935419567522 Eh   ::
         :: zero point energy           0.439388570943 Eh   ::
         :: G(RRHO) w/o ZPVE           -0.062922055765 Eh   ::
         :: G(RRHO) contrib.            0.376466515178 Eh   ::
         :::::::::::::::::::::::::::::::::::::::::::::::::::::

           -------------------------------------------------
          | TOTAL ENERGY              -80.935419567522 Eh   |
          | TOTAL ENTHALPY            -80.461690528807 Eh   |
          | TOTAL FREE ENERGY         -80.558953052344 Eh   |
          | GRADIENT NORM               0.000102898865 Eh/α |
          | HOMO-LUMO GAP               5.513086419509 eV   |
           -------------------------------------------------

------------------------------------------------------------------------
 * finished run on 2024/01/10 at 18:25:41.937     
------------------------------------------------------------------------
 total:
 * wall-time:     0 d,  0 h,  0 min, 14.420 sec
 *  cpu-time:     0 d,  0 h,  0 min, 14.356 sec
 * ratio c/w:     0.996 speedup
 SCF:
 * wall-time:     0 d,  0 h,  0 min,  0.093 sec
 *  cpu-time:     0 d,  0 h,  0 min,  0.059 sec
 * ratio c/w:     0.634 speedup
 analytical hessian:
 * wall-time:     0 d,  0 h,  0 min, 14.301 sec
 *  cpu-time:     0 d,  0 h,  0 min, 14.270 sec
 * ratio c/w:     0.998 speedup

