      -----------------------------------------------------------      
     |                   =====================                   |     
     |                           x T B                           |     
     |                   =====================                   |     
     |                         S. Grimme                         |     
     |          Mulliken Center for Theoretical Chemistry        |     
     |                    University of Bonn                     |     
      -----------------------------------------------------------      

   * xtb version 6.6.1 (unknown-commit) compiled by '@Linux' on 12/27/2023

   xtb is free software: you can redistribute it and/or modify it under
   the terms of the GNU Lesser General Public License as published by
   the Free Software Foundation, either version 3 of the License, or
   (at your option) any later version.
   
   xtb is distributed in the hope that it will be useful,
   but WITHOUT ANY WARRANTY; without even the implied warranty of
   MERCHANTABILITY or FITNESS FOR A PARTICULAR PURPOSE.  See the
   GNU Lesser General Public License for more details.
   
   Cite this work as:
   * C. Bannwarth, E. Caldeweyher, S. Ehlert, A. Hansen, P. Pracht,
     J. Seibert, S. Spicher, S. Grimme, WIREs Comput. Mol. Sci., 2020, 11,
     e01493. DOI: 10.1002/wcms.1493
   
   for GFN2-xTB:
   * C. Bannwarth, S. Ehlert and S. Grimme., J. Chem. Theory Comput., 2019,
     15, 1652-1671. DOI: 10.1021/acs.jctc.8b01176
   for GFN1-xTB:
   * S. Grimme, C. Bannwarth, P. Shushkov, J. Chem. Theory Comput., 2017,
     13, 1989-2009. DOI: 10.1021/acs.jctc.7b00118
   for GFN0-xTB:
   * P. Pracht, E. Caldeweyher, S. Ehlert, S. Grimme, ChemRxiv, 2019, preprint.
     DOI: 10.26434/chemrxiv.8326202.v1
   for GFN-FF:
   * S. Spicher and S. Grimme, Angew. Chem. Int. Ed., 2020, 59, 15665-15673.
     DOI: 10.1002/anie.202004239
   
   for ALPB and GBSA implicit solvation:
   * S. Ehlert, M. Stahn, S. Spicher, S. Grimme, J. Chem. Theory Comput.,
     2021, 17, 4250-4261. DOI: 10.1021/acs.jctc.1c00471
   
   for DFT-D4:
   * E. Caldeweyher, C. Bannwarth and S. Grimme, J. Chem. Phys., 2017,
     147, 034112. DOI: 10.1063/1.4993215
   * E. Caldeweyher, S. Ehlert, A. Hansen, H. Neugebauer, S. Spicher,
     C. Bannwarth and S. Grimme, J. Chem. Phys., 2019, 150, 154122.
     DOI: 10.1063/1.5090222
   * E. Caldeweyher, J.-M. Mewes, S. Ehlert and S. Grimme, Phys. Chem. Chem. Phys.
     2020, 22, 8499-8512. DOI: 10.1039/D0CP00502A
   
   for sTDA-xTB:
   * S. Grimme and C. Bannwarth, J. Chem. Phys., 2016, 145, 054103.
     DOI: 10.1063/1.4959605
   
   in the mass-spec context:
   * V. Asgeirsson, C. Bauer and S. Grimme, Chem. Sci., 2017, 8, 4879.
     DOI: 10.1039/c7sc00601b
   * J. Koopman and S. Grimme, ACS Omega 2019, 4, 12, 15120-15133.
     DOI: 10.1021/acsomega.9b02011
   
   for metadynamics refer to:
   * S. Grimme, J. Chem. Theory Comput., 2019, 155, 2847-2862
     DOI: 10.1021/acs.jctc.9b00143
   
   for SPH calculations refer to:
   * S. Spicher and S. Grimme, J. Chem. Theory Comput., 2021, 17, 1701-1714
     DOI: 10.1021/acs.jctc.0c01306
   
   with help from (in alphabetical order)
   P. Atkinson, C. Bannwarth, F. Bohle, G. Brandenburg, E. Caldeweyher
   M. Checinski, S. Dohm, S. Ehlert, S. Ehrlich, I. Gerasimov, C. Hölzer
   A. Katbashev, J. Koopman, C. Lavigne, S. Lehtola, F. März, M. Müller,
   F. Musil, H. Neugebauer, J. Pisarek, C. Plett, P. Pracht, F. Pultar,
   J. Seibert, P. Shushkov, S. Spicher, M. Stahn, M. Steiner, T. Strunk,
   J. Stückrath, T. Rose, and J. Unsleber
   
 * started run on 2024/01/10 at 18:31:47.971     

           -------------------------------------------------
          |                Calculation Setup                |
           -------------------------------------------------

          program call               : xtb struc.xyz --gfn2 --hess
          hostname                   : swaroop
          coordinate file            : struc.xyz
          omp threads                :                     1

   ID    Z sym.   atoms
    1    8 O      1, 23, 31, 39, 47
    2    6 C      2, 5, 9, 13, 17, 22, 30, 38, 46
    3    1 H      3, 4, 6, 7, 10-12, 14-16, 18-21, 25, 26, 28, 29, 33, 34,
                  36, 37, 41, 42, 44, 45, 49, 50, 52, 53
    4    7 N      8, 24, 27, 32, 35, 40, 43, 48, 51

molecular fragmentation (1/2 indicates fragments):
11111111111111111111122222222222222222222222222222222
# atoms in fragment 1/2:    21    32
 fragment masses (1/2) :      104.17      240.22
CMA distance (Bohr)    :   3.283
constraining FC (au)   :  0.0500

           -------------------------------------------------
          |                 G F N 2 - x T B                 |
           -------------------------------------------------

        Reference                      10.1021/acs.jctc.8b01176
      * Hamiltonian:
        H0-scaling (s, p, d)           1.850000    2.230000    2.230000
        zeta-weighting                 0.500000
      * Dispersion:
        s8                             2.700000
        a1                             0.520000
        a2                             5.000000
        s9                             5.000000
      * Repulsion:
        kExp                           1.500000    1.000000
        rExp                           1.000000
      * Coulomb:
        alpha                          2.000000
        third order                    shell-resolved
        anisotropic                    true
        a3                             3.000000
        a5                             4.000000
        cn-shift                       1.200000
        cn-exp                         4.000000
        max-rad                        5.000000


          ...................................................
          :                      SETUP                      :
          :.................................................:
          :  # basis functions                 122          :
          :  # atomic orbitals                 122          :
          :  # shells                           76          :
          :  # electrons                       140          :
          :  max. iterations                   250          :
          :  Hamiltonian                  GFN2-xTB          :
          :  restarted?                      false          :
          :  GBSA solvation                  false          :
          :  PC potential                    false          :
          :  electronic temp.          300.0000000     K    :
          :  accuracy                    1.0000000          :
          :  -> integral cutoff          0.2500000E+02      :
          :  -> integral neglect         0.1000000E-07      :
          :  -> SCF convergence          0.1000000E-05 Eh   :
          :  -> wf. convergence          0.1000000E-03 e    :
          :  Broyden damping             0.4000000          :
          ...................................................

 iter      E             dE          RMSdq      gap      omega  full diag
   1    -81.5451765 -0.815452E+02  0.435E+00    5.10       0.0  T
   2    -81.8377390 -0.292563E+00  0.239E+00    5.67       1.0  T
   3    -81.8433580 -0.561897E-02  0.118E+00    5.25       1.0  T
   4    -81.8446436 -0.128566E-02  0.225E-01    5.20       1.0  T
   5    -81.8454068 -0.763130E-03  0.907E-02    5.11       1.0  T
   6    -81.8454304 -0.236014E-04  0.273E-02    5.14       1.0  T
   7    -81.8454362 -0.580759E-05  0.741E-03    5.13       1.9  T
   8    -81.8454364 -0.205327E-06  0.273E-03    5.13       5.0  T
   9    -81.8454364 -0.289760E-07  0.964E-04    5.13      14.2  T
  10    -81.8454364 -0.759182E-08  0.178E-04    5.13      77.2  T

   *** convergence criteria satisfied after 10 iterations ***

         #    Occupation            Energy/Eh            Energy/eV
      -------------------------------------------------------------
         1        2.0000           -0.8067764             -21.9535
       ...           ...                  ...                  ...
        64        2.0000           -0.5000078             -13.6059
        65        2.0000           -0.4983506             -13.5608
        66        2.0000           -0.4938070             -13.4372
        67        2.0000           -0.4897991             -13.3281
        68        2.0000           -0.4858017             -13.2193
        69        2.0000           -0.4814462             -13.1008
        70        2.0000           -0.4748549             -12.9215 (HOMO)
        71                         -0.2863503              -7.7920 (LUMO)
        72                         -0.2721963              -7.4068
        73                         -0.2678240              -7.2879
        74                         -0.2500234              -6.8035
        75                         -0.1432577              -3.8982
       ...                                ...                  ...
       122                          0.5727682              15.5858
      -------------------------------------------------------------
                  HL-Gap            0.1885046 Eh            5.1295 eV
             Fermi-level           -0.3806026 Eh          -10.3567 eV

 SCC (total)                   0 d,  0 h,  0 min,  0.096 sec
 SCC setup                      ...        0 min,  0.000 sec (  0.306%)
 Dispersion                     ...        0 min,  0.001 sec (  0.620%)
 classical contributions        ...        0 min,  0.000 sec (  0.192%)
 integral evaluation            ...        0 min,  0.008 sec (  8.299%)
 iterations                     ...        0 min,  0.058 sec ( 60.979%)
 molecular gradient             ...        0 min,  0.028 sec ( 29.331%)
 printout                       ...        0 min,  0.000 sec (  0.261%)

         :::::::::::::::::::::::::::::::::::::::::::::::::::::
         ::                     SUMMARY                     ::
         :::::::::::::::::::::::::::::::::::::::::::::::::::::
         :: total energy             -80.931593550679 Eh    ::
         :: gradient norm              0.000142454282 Eh/a0 ::
         :: HOMO-LUMO gap              5.129471775083 eV    ::
         ::.................................................::
         :: SCC energy               -81.845436425253 Eh    ::
         :: -> isotropic ES            0.291374620947 Eh    ::
         :: -> anisotropic ES         -0.030235722362 Eh    ::
         :: -> anisotropic XC          0.021452305673 Eh    ::
         :: -> dispersion             -0.044691011789 Eh    ::
         :: repulsion energy           0.912658420279 Eh    ::
         :: add. restraining           0.000000000000 Eh    ::
         :: total charge               1.000000000000 e     ::
         :::::::::::::::::::::::::::::::::::::::::::::::::::::

           ------------------------------------------------- 
          |                Numerical Hessian                |
           ------------------------------------------------- 
step length          :   0.00500
SCC accuracy         :   0.30000
Hessian scale factor :   1.00000
frozen atoms in %    :   0.00000    0
RMS gradient         :   0.00014
estimated CPU  time      0.24 min
estimated wall time      0.24 min

writing file <hessian>.

 projected vibrational frequencies (cm⁻¹)
eigval :       -0.00    -0.00    -0.00     0.00     0.00     0.00
eigval :       18.42    26.97    28.83    34.41    39.55    45.21
eigval :       50.42    57.73    61.14    65.13    67.77    74.65
eigval :       80.15    89.05    95.39   102.66   106.73   119.93
eigval :      123.86   130.82   141.85   147.53   151.77   158.38
eigval :      189.70   223.43   236.84   260.96   264.80   291.64
eigval :      309.48   323.80   334.37   340.64   356.44   375.16
eigval :      383.79   390.81   408.43   435.51   461.82   465.64
eigval :      467.83   469.53   471.78   474.98   478.45   480.90
eigval :      483.09   490.45   526.87   531.78   539.99   540.39
eigval :      543.12   554.71   574.42   635.99   640.35   662.50
eigval :      675.48   677.00   680.25   706.92   760.41   815.77
eigval :      908.65   929.73   952.01   958.70   965.17   969.10
eigval :      991.28   998.11  1002.63  1007.33  1015.45  1021.15
eigval :     1024.12  1037.76  1048.08  1082.53  1084.86  1088.27
eigval :     1091.71  1103.73  1113.16  1124.94  1189.84  1227.95
eigval :     1248.78  1273.93  1321.89  1329.47  1344.87  1348.43
eigval :     1351.27  1364.84  1367.61  1380.00  1404.23  1406.08
eigval :     1416.03  1437.15  1442.35  1452.61  1453.50  1456.44
eigval :     1458.69  1462.84  1463.15  1469.72  1474.08  1478.44
eigval :     1487.41  1489.88  1497.29  1503.97  1515.65  1681.21
eigval :     1707.26  1722.21  1729.44  2957.65  2994.12  3004.52
eigval :     3013.15  3027.56  3033.01  3038.89  3041.85  3043.07
eigval :     3051.33  3052.02  3063.45  3067.55  3186.79  3233.14
eigval :     3359.22  3374.80  3381.69  3491.88  3493.92  3494.07
eigval :     3498.94  3501.88  3529.83  3531.17  3537.09  3555.84
eigval :     3557.67  3565.56  3566.89
           -------------------------------------------------
          |                Property Printout                |
           -------------------------------------------------

    * Orbital Energies and Occupations

         #    Occupation            Energy/Eh            Energy/eV
      -------------------------------------------------------------
         1        2.0000           -0.8067733             -21.9534
       ...           ...                  ...                  ...
        58        2.0000           -0.5235853             -14.2475
        59        2.0000           -0.5176144             -14.0850
        60        2.0000           -0.5129540             -13.9582
        61        2.0000           -0.5068170             -13.7912
        62        2.0000           -0.5040167             -13.7150
        63        2.0000           -0.5036645             -13.7054
        64        2.0000           -0.5000080             -13.6059
        65        2.0000           -0.4983516             -13.5608
        66        2.0000           -0.4938080             -13.4372
        67        2.0000           -0.4898001             -13.3281
        68        2.0000           -0.4858042             -13.2194
        69        2.0000           -0.4814487             -13.1009
        70        2.0000           -0.4748576             -12.9215 (HOMO)
        71                         -0.2863473              -7.7919 (LUMO)
        72                         -0.2721991              -7.4069
        73                         -0.2678250              -7.2879
        74                         -0.2500265              -6.8036
        75                         -0.1432575              -3.8982
        76                         -0.1223983              -3.3306
        77                         -0.0916476              -2.4939
        78                         -0.0847225              -2.3054
        79                         -0.0778229              -2.1177
        80                         -0.0703240              -1.9136
        81                         -0.0659099              -1.7935
       ...                                ...                  ...
       122                          0.5727656              15.5857
      -------------------------------------------------------------
                  HL-Gap            0.1885103 Eh            5.1296 eV
             Fermi-level           -0.3806025 Eh          -10.3567 eV

     #   Z          covCN         q      C6AA      α(0)
     1   8 O        1.653    -0.480    22.477     6.400
     2   6 C        3.673     0.060    19.796     6.376
     3   1 H        0.925     0.076     2.016     2.221
     4   1 H        0.924     0.060     2.203     2.321
     5   6 C        3.769    -0.070    21.874     6.665
     6   1 H        0.924     0.108     1.713     2.047
     7   1 H        0.924     0.115     1.656     2.012
     8   7 N        3.623     0.156    18.612     6.407
     9   6 C        3.721    -0.125    23.011     6.851
    10   1 H        0.924     0.126     1.563     1.955
    11   1 H        0.925     0.120     1.609     1.984
    12   1 H        0.925     0.074     2.041     2.234
    13   6 C        3.724    -0.112    22.752     6.811
    14   1 H        0.925     0.073     2.049     2.238
    15   1 H        0.925     0.108     1.711     2.046
    16   1 H        0.925     0.118     1.626     1.994
    17   6 C        3.739    -0.105    22.588     6.781
    18   1 H        0.925     0.115     1.655     2.012
    19   1 H        0.925     0.097     1.811     2.105
    20   1 H        0.925     0.084     1.940     2.178
    21   1 H        0.803     0.331     0.635     1.252
    22   6 C        2.675     0.343    21.169     7.529
    23   8 O        0.860    -0.511    24.034     6.573
    24   7 N        2.641    -0.339    28.737     7.962
    25   1 H        0.859     0.237     0.935     1.515
    26   1 H        0.860     0.173     1.256     1.756
    27   7 N        2.643    -0.288    27.430     7.778
    28   1 H        0.861     0.184     1.191     1.710
    29   1 H        0.860     0.203     1.091     1.636
    30   6 C        2.675     0.345    21.136     7.523
    31   8 O        0.860    -0.523    24.291     6.608
    32   7 N        2.644    -0.301    27.763     7.826
    33   1 H        0.860     0.232     0.958     1.533
    34   1 H        0.860     0.177     1.231     1.738
    35   7 N        2.645    -0.295    27.600     7.803
    36   1 H        0.860     0.183     1.197     1.714
    37   1 H        0.860     0.198     1.118     1.656
    38   6 C        2.675     0.343    21.170     7.529
    39   8 O        0.860    -0.525    24.345     6.615
    40   7 N        2.645    -0.291    27.511     7.790
    41   1 H        0.860     0.224     0.991     1.560
    42   1 H        0.861     0.186     1.178     1.700
    43   7 N        2.646    -0.282    27.284     7.758
    44   1 H        0.861     0.191     1.155     1.683
    45   1 H        0.860     0.205     1.081     1.629
    46   6 C        2.675     0.343    21.175     7.530
    47   8 O        0.860    -0.518    24.179     6.593
    48   7 N        2.644    -0.306    27.879     7.842
    49   1 H        0.860     0.227     0.980     1.550
    50   1 H        0.860     0.174     1.251     1.752
    51   7 N        2.645    -0.296    27.625     7.806
    52   1 H        0.860     0.179     1.219     1.730
    53   1 H        0.860     0.198     1.117     1.656

 Mol. C6AA /au·bohr⁶  :      21776.191307
 Mol. C8AA /au·bohr⁸  :     454030.326837
 Mol. α(0) /au        :        220.471975


Wiberg/Mayer (AO) data.
largest (>0.10) Wiberg bond orders for each atom

 ---------------------------------------------------------------------------
     #   Z sym  total        # sym  WBO       # sym  WBO       # sym  WBO
 ---------------------------------------------------------------------------
     1   8 O    1.977 --     2 C    0.997    21 H    0.820
     2   6 C    3.951 --     5 C    0.997     1 O    0.997     4 H    0.966
                             3 H    0.952
     3   1 H    0.994 --     2 C    0.952
     4   1 H    0.996 --     2 C    0.966
     5   6 C    3.925 --     2 C    0.997     6 H    0.955     7 H    0.952
                             8 N    0.929
     6   1 H    0.988 --     5 C    0.955
     7   1 H    0.987 --     5 C    0.952
     8   7 N    3.821 --    17 C    0.960    13 C    0.959     9 C    0.954
                             5 C    0.929
     9   6 C    3.913 --    12 H    0.979    11 H    0.955     8 N    0.954
                            10 H    0.954
    10   1 H    0.984 --     9 C    0.954
    11   1 H    0.985 --     9 C    0.955
    12   1 H    0.994 --     9 C    0.979
    13   6 C    3.925 --    14 H    0.979    15 H    0.963     8 N    0.959
                            16 H    0.958
    14   1 H    0.995 --    13 C    0.979
    15   1 H    0.988 --    13 C    0.963
    16   1 H    0.986 --    13 C    0.958
    17   6 C    3.931 --    20 H    0.977    19 H    0.976    18 H    0.970
                             8 N    0.960
    18   1 H    0.987 --    17 C    0.970
    19   1 H    0.991 --    17 C    0.976
    20   1 H    0.993 --    17 C    0.977
    21   1 H    0.891 --     1 O    0.820
    22   6 C    3.959 --    23 O    1.556    27 N    1.218    24 N    1.173
    23   8 O    1.915 --    22 C    1.556    27 N    0.151    24 N    0.134
    24   7 N    3.273 --    22 C    1.173    26 H    0.950    25 H    0.874
                            23 O    0.134
    25   1 H    0.944 --    24 N    0.874
    26   1 H    0.970 --    24 N    0.950
    27   7 N    3.337 --    22 C    1.218    28 H    0.947    29 H    0.942
                            23 O    0.151
    28   1 H    0.966 --    27 N    0.947
    29   1 H    0.959 --    27 N    0.942
    30   6 C    3.959 --    31 O    1.517    32 N    1.234    35 N    1.197
    31   8 O    1.909 --    30 C    1.517    32 N    0.144    35 N    0.135
    32   7 N    3.330 --    30 C    1.234    34 H    0.949    33 H    0.898
                            31 O    0.144
    33   1 H    0.946 --    32 N    0.898
    34   1 H    0.968 --    32 N    0.949
    35   7 N    3.310 --    30 C    1.197    36 H    0.947    37 H    0.944
                            31 O    0.135
    36   1 H    0.966 --    35 N    0.947
    37   1 H    0.961 --    35 N    0.944
    38   6 C    3.960 --    39 O    1.480    40 N    1.245    43 N    1.225
    39   8 O    1.921 --    38 C    1.480    40 N    0.139    43 N    0.133
    40   7 N    3.346 --    38 C    1.245    42 H    0.946    41 H    0.906
                            39 O    0.139
    41   1 H    0.950 --    40 N    0.906
    42   1 H    0.965 --    40 N    0.946
    43   7 N    3.338 --    38 C    1.225    44 H    0.945    45 H    0.941
                            39 O    0.133
    44   1 H    0.963 --    43 N    0.945
    45   1 H    0.958 --    43 N    0.941
    46   6 C    3.959 --    47 O    1.545    48 N    1.217    51 N    1.190
    47   8 O    1.906 --    46 C    1.545    48 N    0.148    51 N    0.139
    48   7 N    3.318 --    46 C    1.217    50 H    0.951    49 H    0.905
                            47 O    0.148
    49   1 H    0.949 --    48 N    0.905
    50   1 H    0.970 --    48 N    0.951
    51   7 N    3.304 --    46 C    1.190    52 H    0.948    53 H    0.944
                            47 O    0.139
    52   1 H    0.968 --    51 N    0.948
    53   1 H    0.961 --    51 N    0.944
 ---------------------------------------------------------------------------

Topologies differ in total number of bonds
Writing topology from bond orders to xtbtopo.mol

molecular dipole:
                 x           y           z       tot (Debye)
 q only:        1.757       0.786       0.003
   full:        2.005       1.371      -0.316       6.225
molecular quadrupole (traceless):
                xx          xy          yy          xz          yz          zz
 q only:       27.463      -9.346       2.893     -19.482      13.213     -30.356
  q+dip:       32.638     -12.407       3.673     -23.177      19.876     -36.312
   full:       32.635     -12.127       3.033     -23.278      19.387     -35.668

           -------------------------------------------------
          |               Frequency Printout                |
           -------------------------------------------------
 projected vibrational frequencies (cm⁻¹)
eigval :       -0.00    -0.00    -0.00     0.00     0.00     0.00
eigval :       18.42    26.97    28.83    34.41    39.55    45.21
eigval :       50.42    57.73    61.14    65.13    67.77    74.65
eigval :       80.15    89.05    95.39   102.66   106.73   119.93
eigval :      123.86   130.82   141.85   147.53   151.77   158.38
eigval :      189.70   223.43   236.84   260.96   264.80   291.64
eigval :      309.48   323.80   334.37   340.64   356.44   375.16
eigval :      383.79   390.81   408.43   435.51   461.82   465.64
eigval :      467.83   469.53   471.78   474.98   478.45   480.90
eigval :      483.09   490.45   526.87   531.78   539.99   540.39
eigval :      543.12   554.71   574.42   635.99   640.35   662.50
eigval :      675.48   677.00   680.25   706.92   760.41   815.77
eigval :      908.65   929.73   952.01   958.70   965.17   969.10
eigval :      991.28   998.11  1002.63  1007.33  1015.45  1021.15
eigval :     1024.12  1037.76  1048.08  1082.53  1084.86  1088.27
eigval :     1091.71  1103.73  1113.16  1124.94  1189.84  1227.95
eigval :     1248.78  1273.93  1321.89  1329.47  1344.87  1348.43
eigval :     1351.27  1364.84  1367.61  1380.00  1404.23  1406.08
eigval :     1416.03  1437.15  1442.35  1452.61  1453.50  1456.44
eigval :     1458.69  1462.84  1463.15  1469.72  1474.08  1478.44
eigval :     1487.41  1489.88  1497.29  1503.97  1515.65  1681.21
eigval :     1707.26  1722.21  1729.44  2957.65  2994.12  3004.52
eigval :     3013.15  3027.56  3033.01  3038.89  3041.85  3043.07
eigval :     3051.33  3052.02  3063.45  3067.55  3186.79  3233.14
eigval :     3359.22  3374.80  3381.69  3491.88  3493.92  3494.07
eigval :     3498.94  3501.88  3529.83  3531.17  3537.09  3555.84
eigval :     3557.67  3565.56  3566.89
 reduced masses (amu)
   1: 12.76   2: 12.61   3: 12.62   4: 12.34   5: 12.65   6: 12.42   7: 12.16   8: 12.27
   9: 11.93  10: 12.44  11: 12.22  12: 12.53  13: 12.35  14: 12.24  15: 12.30  16: 12.32
  17: 12.23  18: 12.85  19: 13.56  20: 13.15  21: 13.01  22: 13.19  23: 12.54  24: 12.26
  25: 12.74  26: 12.55  27: 11.63  28: 12.26  29: 11.55  30: 10.27  31: 12.29  32:  2.83
  33:  2.69  34: 12.76  35:  5.21  36:  5.38  37:  6.60  38:  2.90  39:  2.94  40:  3.66
  41:  2.44  42:  7.78  43:  3.62  44:  3.66  45:  3.42  46:  8.66  47:  7.77  48:  3.44
  49:  3.73  50:  5.54  51:  5.24  52:  8.17  53:  7.57  54:  6.30  55:  7.97  56:  2.34
  57:  3.98  58:  8.26  59: 10.94  60: 11.37  61: 11.03  62: 10.91  63:  1.97  64:  2.54
  65:  2.03  66:  9.21  67: 11.46  68: 11.85  69: 11.46  70:  4.63  71:  9.31  72:  3.49
  73:  8.46  74:  7.12  75:  5.17  76:  5.88  77:  4.84  78:  4.83  79:  7.56  80:  9.34
  81:  8.25  82:  9.31  83:  7.46  84:  7.95  85:  7.19  86:  3.18  87:  7.41  88: 10.12
  89:  9.45  90:  8.78  91:  8.69  92:  6.53  93:  5.05  94:  5.94  95:  3.56  96:  5.88
  97:  6.14  98:  7.96  99:  5.01 100:  4.32 101:  5.22 102:  5.10 103:  6.34 104:  5.66
 105:  4.63 106:  3.27 107:  2.42 108:  2.11 109:  2.51 110:  2.34 111:  1.85 112:  2.62
 113:  2.21 114:  2.52 115:  2.38 116:  2.67 117:  2.89 118:  2.54 119:  1.87 120:  1.65
 121:  2.07 122:  6.69 123:  6.70 124:  8.05 125:  9.40 126: 12.72 127: 12.78 128: 12.83
 129: 12.81 130:  1.77 131:  1.64 132:  1.82 133:  1.77 134:  1.75 135:  1.70 136:  1.83
 137:  1.88 138:  1.42 139:  1.84 140:  1.78 141:  1.70 142:  1.68 143:  1.86 144:  1.83
 145:  1.70 146:  1.70 147:  1.68 148:  1.45 149:  1.85 150:  1.46 151:  1.47 152:  1.45
 153:  1.97 154:  1.96 155:  1.96 156:  2.17 157:  2.17 158:  2.19 159:  2.18
 IR intensities (km·mol⁻¹)
   1:  2.74   2:  2.04   3:  2.06   4:  0.54   5:  2.23   6:  0.03   7:  0.15   8:  0.71
   9:  3.41  10:  2.87  11:  2.82  12:  4.13  13:  0.40  14:  3.38  15:  2.60  16:  0.67
  17:  1.95  18:  2.12  19:  5.79  20:  3.46  21: 10.89  22:  6.57  23:  3.88  24:  8.93
  25: 12.78  26: 12.76  27:  6.59  28: 27.51  29: 19.06  30:  3.93  31: 30.76  32:151.19
  33:135.23  34:  3.35  35:  3.43  36:  5.54  37:  9.48  38: 63.96  39: 70.05  40: 17.83
  41:  5.18  42: 11.35  43:207.59  44:121.23  45:600.86  46: 11.28  47:  1.45  48: 21.19
  49: 11.70  50:  6.79  51:  4.84  52: 49.16  53:  8.68  54:  9.00  55: 19.03  56: 74.63
  57: 33.09  58:  8.95  59: 36.79  60: 13.12  61: 26.10  62: 14.05  63: 47.74  64: 50.41
  65:156.18  66: 23.95  67: 10.37  68: 84.69  69: 54.08  70:444.95  71:  4.33  72:328.74
  73:  3.65  74: 13.43  75:  2.09  76:  1.72  77:  0.63  78:  0.31  79: 29.52  80:  8.05
  81:  5.09  82:  8.50  83: 39.85  84: 15.83  85:  8.81  86:  2.25  87:  8.20  88:  1.34
  89: 52.14  90:  7.13  91:  0.45  92: 20.06  93: 13.87  94: 30.43  95: 11.93  96: 20.28
  97: 17.39  98:  8.29  99:  8.24 100: 13.65 101:124.45 102:204.34 103: 98.08 104: 75.37
 105: 78.17 106: 40.79 107: 29.66 108:  4.44 109:  6.05 110: 17.74 111: 26.35 112: 15.07
 113:  3.06 114: 16.36 115: 18.17 116: 15.24 117: 38.69 118: 14.68 119: 37.36 120: 10.34
 121: 73.59 122:541.79 123:576.19 124:418.55 125:362.90 126:746.45 127:848.37 128:847.83
 129:713.70 130: 28.40 131:  1.72 132:  7.17 133:  8.86 134: 73.82 135: 31.27 136:  2.89
 137:  8.03 138: 16.30 139:  6.27 140:  9.59 141: 11.33 142: 38.03 143:606.28 144:712.40
 145:668.96 146:511.88 147:273.57 148: 16.42 149:  4.13 150: 16.21 151: 30.49 152: 23.01
 153: 16.08 154: 16.79 155: 19.65 156: 10.18 157: 10.35 158: 14.80 159: 19.27
 Raman intensities (amu)
Molecule has no symmetry elements
It seems to be the C1 point group
   1:  0.00   2:  0.00   3:  0.00   4:  0.00   5:  0.00   6:  0.00   7:  0.00   8:  0.00
   9:  0.00  10:  0.00  11:  0.00  12:  0.00  13:  0.00  14:  0.00  15:  0.00  16:  0.00
  17:  0.00  18:  0.00  19:  0.00  20:  0.00  21:  0.00  22:  0.00  23:  0.00  24:  0.00
  25:  0.00  26:  0.00  27:  0.00  28:  0.00  29:  0.00  30:  0.00  31:  0.00  32:  0.00
  33:  0.00  34:  0.00  35:  0.00  36:  0.00  37:  0.00  38:  0.00  39:  0.00  40:  0.00
  41:  0.00  42:  0.00  43:  0.00  44:  0.00  45:  0.00  46:  0.00  47:  0.00  48:  0.00
  49:  0.00  50:  0.00  51:  0.00  52:  0.00  53:  0.00  54:  0.00  55:  0.00  56:  0.00
  57:  0.00  58:  0.00  59:  0.00  60:  0.00  61:  0.00  62:  0.00  63:  0.00  64:  0.00
  65:  0.00  66:  0.00  67:  0.00  68:  0.00  69:  0.00  70:  0.00  71:  0.00  72:  0.00
  73:  0.00  74:  0.00  75:  0.00  76:  0.00  77:  0.00  78:  0.00  79:  0.00  80:  0.00
  81:  0.00  82:  0.00  83:  0.00  84:  0.00  85:  0.00  86:  0.00  87:  0.00  88:  0.00
  89:  0.00  90:  0.00  91:  0.00  92:  0.00  93:  0.00  94:  0.00  95:  0.00  96:  0.00
  97:  0.00  98:  0.00  99:  0.00 100:  0.00 101:  0.00 102:  0.00 103:  0.00 104:  0.00
 105:  0.00 106:  0.00 107:  0.00 108:  0.00 109:  0.00 110:  0.00 111:  0.00 112:  0.00
 113:  0.00 114:  0.00 115:  0.00 116:  0.00 117:  0.00 118:  0.00 119:  0.00 120:  0.00
 121:  0.00 122:  0.00 123:  0.00 124:  0.00 125:  0.00 126:  0.00 127:  0.00 128:  0.00
 129:  0.00 130:  0.00 131:  0.00 132:  0.00 133:  0.00 134:  0.00 135:  0.00 136:  0.00
 137:  0.00 138:  0.00 139:  0.00 140:  0.00 141:  0.00 142:  0.00 143:  0.00 144:  0.00
 145:  0.00 146:  0.00 147:  0.00 148:  0.00 149:  0.00 150:  0.00 151:  0.00 152:  0.00
 153:  0.00 154:  0.00 155:  0.00 156:  0.00 157:  0.00 158:  0.00 159:  0.00
 output can be read by thermo (or use thermo option).
 writing <g98.out> molden fake output.
 recommended (thermochemical) frequency scaling factor: 1.0
           -------------------------------------------------
          |             Thermodynamic Functions             |
           -------------------------------------------------

c1  symmetry found (for desy threshold:  0.10E+00) used in thermo

          ...................................................
          :                      SETUP                      :
          :.................................................:
          :  # frequencies                         153      :
          :  # imaginary freq.                       0      :
          :  linear?                             false      :
          :  only rotor calc.                    false      :
          :  symmetry                               c1      :
          :  rotational number                       1      :
          :  scaling factor                  1.0000000      :
          :  rotor cutoff                   50.0000000 cm⁻¹ :
          :  imag. cutoff                  -20.0000000 cm⁻¹ :
          :.................................................:

    mode    ω/cm⁻¹     T·S(HO)/kcal·mol⁻¹    T·S(FR)/kcal·mol⁻¹   T·S(vib)
   ------------------------------------------------------------------------
       1     18.42    -2.02668 (  1.81%)    -1.35228 ( 98.19%)    -1.36448
       2     26.97    -1.80104 (  7.80%)    -1.23937 ( 92.20%)    -1.28320
       3     28.83    -1.76151 (  9.96%)    -1.21958 ( 90.04%)    -1.27354
       4     34.41    -1.65687 ( 18.33%)    -1.16717 ( 81.67%)    -1.25693
       5     39.55    -1.57469 ( 28.13%)    -1.12598 ( 71.87%)    -1.25221
       6     45.21    -1.49567 ( 40.07%)    -1.08633 ( 59.93%)    -1.25035
       7     50.42    -1.43140 ( 50.83%)    -1.05406 ( 49.17%)    -1.24587
       8     57.73    -1.35164 ( 63.99%)    -1.01396 ( 36.01%)    -1.23003
       9     61.14    -1.31780 ( 69.10%)    -0.99692 ( 30.90%)    -1.21865
      10     65.13    -1.28066 ( 74.22%)    -0.97821 ( 25.78%)    -1.20269
      11     67.77    -1.25729 ( 77.15%)    -0.96642 ( 22.85%)    -1.19082
      12     74.65    -1.20061 ( 83.24%)    -0.93781 ( 16.76%)    -1.15658
      13     80.15    -1.15895 ( 86.85%)    -0.91673 ( 13.15%)    -1.12709
      14     89.05    -1.09743 ( 90.96%)    -0.88554 (  9.04%)    -1.07827
      15     95.39    -1.05736 ( 92.98%)    -0.86518 (  7.02%)    -1.04387
      16    102.66    -1.01468 ( 94.67%)    -0.84343 (  5.33%)    -1.00556
      17    106.73    -0.99211 ( 95.40%)    -0.83191 (  4.60%)    -0.98475
      18    119.93    -0.92472 ( 97.07%)    -0.79737 (  2.93%)    -0.92099
      19    123.86    -0.90615 ( 97.41%)    -0.78781 (  2.59%)    -0.90308
      20    130.82    -0.87475 ( 97.91%)    -0.77161 (  2.09%)    -0.87260
      21    141.85    -0.82847 ( 98.48%)    -0.74762 (  1.52%)    -0.82724
      22    147.53    -0.80617 ( 98.70%)    -0.73601 (  1.30%)    -0.80525
      23    151.77    -0.79008 ( 98.84%)    -0.72761 (  1.16%)    -0.78935
      24    158.38    -0.76596 ( 99.02%)    -0.71498 (  0.98%)    -0.76545
      25    189.70    -0.66509 ( 99.52%)    -0.66152 (  0.48%)    -0.66507
      26    223.43    -0.57577 ( 99.75%)    -0.61305 (  0.25%)    -0.57586
      27    236.84    -0.54457 ( 99.80%)    -0.59578 (  0.20%)    -0.54467
      28    260.96    -0.49355 ( 99.87%)    -0.56706 (  0.13%)    -0.49365
      29    264.80    -0.48596 ( 99.87%)    -0.56272 (  0.13%)    -0.48605
      30    291.64    -0.43662 ( 99.91%)    -0.53412 (  0.09%)    -0.43670
   ------------------------------------------------------------------------

   temp. (K)  partition function   enthalpy   heat capacity  entropy
                                   cal/mol     cal/K/mol   cal/K/mol   J/K/mol
 298.15  VIB  0.604E+16            19288.204    105.822    125.760
         ROT  0.134E+08              888.752      2.981     35.592
         INT  0.809E+23            20176.956    108.803    161.352
         TR   0.618E+28             1481.254      4.968     43.384
         TOT                       21658.2102   113.7707   204.7366   856.6181

       T/K    H(0)-H(T)+PV         H(T)/Eh          T*S/Eh         G(T)/Eh
   ------------------------------------------------------------------------
    298.15    0.345146E-01    0.474383E+00    0.972770E-01    0.377106E+00
   ------------------------------------------------------------------------

         :::::::::::::::::::::::::::::::::::::::::::::::::::::
         ::                  THERMODYNAMIC                  ::
         :::::::::::::::::::::::::::::::::::::::::::::::::::::
         :: total free energy         -80.554487158774 Eh   ::
         ::.................................................::
         :: total energy              -80.931593551098 Eh   ::
         :: zero point energy           0.439868824043 Eh   ::
         :: G(RRHO) w/o ZPVE           -0.062762431719 Eh   ::
         :: G(RRHO) contrib.            0.377106392324 Eh   ::
         :::::::::::::::::::::::::::::::::::::::::::::::::::::

           -------------------------------------------------
          | TOTAL ENERGY              -80.931593551098 Eh   |
          | TOTAL ENTHALPY            -80.457210172170 Eh   |
          | TOTAL FREE ENERGY         -80.554487158774 Eh   |
          | GRADIENT NORM               0.000142019088 Eh/α |
          | HOMO-LUMO GAP               5.129625449811 eV   |
           -------------------------------------------------

------------------------------------------------------------------------
 * finished run on 2024/01/10 at 18:32:02.571     
------------------------------------------------------------------------
 total:
 * wall-time:     0 d,  0 h,  0 min, 14.601 sec
 *  cpu-time:     0 d,  0 h,  0 min, 14.538 sec
 * ratio c/w:     0.996 speedup
 SCF:
 * wall-time:     0 d,  0 h,  0 min,  0.096 sec
 *  cpu-time:     0 d,  0 h,  0 min,  0.057 sec
 * ratio c/w:     0.599 speedup
 analytical hessian:
 * wall-time:     0 d,  0 h,  0 min, 14.478 sec
 *  cpu-time:     0 d,  0 h,  0 min, 14.453 sec
 * ratio c/w:     0.998 speedup

