      -----------------------------------------------------------      
     |                   =====================                   |     
     |                           x T B                           |     
     |                   =====================                   |     
     |                         S. Grimme                         |     
     |          Mulliken Center for Theoretical Chemistry        |     
     |                    University of Bonn                     |     
      -----------------------------------------------------------      

   * xtb version 6.6.1 (unknown-commit) compiled by '@Linux' on 12/27/2023

   xtb is free software: you can redistribute it and/or modify it under
   the terms of the GNU Lesser General Public License as published by
   the Free Software Foundation, either version 3 of the License, or
   (at your option) any later version.
   
   xtb is distributed in the hope that it will be useful,
   but WITHOUT ANY WARRANTY; without even the implied warranty of
   MERCHANTABILITY or FITNESS FOR A PARTICULAR PURPOSE.  See the
   GNU Lesser General Public License for more details.
   
   Cite this work as:
   * C. Bannwarth, E. Caldeweyher, S. Ehlert, A. Hansen, P. Pracht,
     J. Seibert, S. Spicher, S. Grimme, WIREs Comput. Mol. Sci., 2020, 11,
     e01493. DOI: 10.1002/wcms.1493
   
   for GFN2-xTB:
   * C. Bannwarth, S. Ehlert and S. Grimme., J. Chem. Theory Comput., 2019,
     15, 1652-1671. DOI: 10.1021/acs.jctc.8b01176
   for GFN1-xTB:
   * S. Grimme, C. Bannwarth, P. Shushkov, J. Chem. Theory Comput., 2017,
     13, 1989-2009. DOI: 10.1021/acs.jctc.7b00118
   for GFN0-xTB:
   * P. Pracht, E. Caldeweyher, S. Ehlert, S. Grimme, ChemRxiv, 2019, preprint.
     DOI: 10.26434/chemrxiv.8326202.v1
   for GFN-FF:
   * S. Spicher and S. Grimme, Angew. Chem. Int. Ed., 2020, 59, 15665-15673.
     DOI: 10.1002/anie.202004239
   
   for ALPB and GBSA implicit solvation:
   * S. Ehlert, M. Stahn, S. Spicher, S. Grimme, J. Chem. Theory Comput.,
     2021, 17, 4250-4261. DOI: 10.1021/acs.jctc.1c00471
   
   for DFT-D4:
   * E. Caldeweyher, C. Bannwarth and S. Grimme, J. Chem. Phys., 2017,
     147, 034112. DOI: 10.1063/1.4993215
   * E. Caldeweyher, S. Ehlert, A. Hansen, H. Neugebauer, S. Spicher,
     C. Bannwarth and S. Grimme, J. Chem. Phys., 2019, 150, 154122.
     DOI: 10.1063/1.5090222
   * E. Caldeweyher, J.-M. Mewes, S. Ehlert and S. Grimme, Phys. Chem. Chem. Phys.
     2020, 22, 8499-8512. DOI: 10.1039/D0CP00502A
   
   for sTDA-xTB:
   * S. Grimme and C. Bannwarth, J. Chem. Phys., 2016, 145, 054103.
     DOI: 10.1063/1.4959605
   
   in the mass-spec context:
   * V. Asgeirsson, C. Bauer and S. Grimme, Chem. Sci., 2017, 8, 4879.
     DOI: 10.1039/c7sc00601b
   * J. Koopman and S. Grimme, ACS Omega 2019, 4, 12, 15120-15133.
     DOI: 10.1021/acsomega.9b02011
   
   for metadynamics refer to:
   * S. Grimme, J. Chem. Theory Comput., 2019, 155, 2847-2862
     DOI: 10.1021/acs.jctc.9b00143
   
   for SPH calculations refer to:
   * S. Spicher and S. Grimme, J. Chem. Theory Comput., 2021, 17, 1701-1714
     DOI: 10.1021/acs.jctc.0c01306
   
   with help from (in alphabetical order)
   P. Atkinson, C. Bannwarth, F. Bohle, G. Brandenburg, E. Caldeweyher
   M. Checinski, S. Dohm, S. Ehlert, S. Ehrlich, I. Gerasimov, C. Hölzer
   A. Katbashev, J. Koopman, C. Lavigne, S. Lehtola, F. März, M. Müller,
   F. Musil, H. Neugebauer, J. Pisarek, C. Plett, P. Pracht, F. Pultar,
   J. Seibert, P. Shushkov, S. Spicher, M. Stahn, M. Steiner, T. Strunk,
   J. Stückrath, T. Rose, and J. Unsleber
   
 * started run on 2024/01/10 at 15:38:38.741     

           -------------------------------------------------
          |                Calculation Setup                |
           -------------------------------------------------

          program call               : xtb struc.xyz --gfn2 --hess
          hostname                   : swaroop
          coordinate file            : struc.xyz
          omp threads                :                     1

   ID    Z sym.   atoms
    1    8 O      1, 23, 31, 39, 47
    2    6 C      2, 5, 9, 13, 17, 22, 30, 38, 46
    3    1 H      3, 4, 6, 7, 10-12, 14-16, 18-21, 25, 26, 28, 29, 33, 34,
                  36, 37, 41, 42, 44, 45, 49, 50, 52, 53
    4    7 N      8, 24, 27, 32, 35, 40, 43, 48, 51

molecular fragmentation (1/2 indicates fragments):
11111111111111111111122222222222222222222222222222222
# atoms in fragment 1/2:    21    32
 fragment masses (1/2) :      104.17      240.22
CMA distance (Bohr)    :   7.572
constraining FC (au)   :  0.0500

           -------------------------------------------------
          |                 G F N 2 - x T B                 |
           -------------------------------------------------

        Reference                      10.1021/acs.jctc.8b01176
      * Hamiltonian:
        H0-scaling (s, p, d)           1.850000    2.230000    2.230000
        zeta-weighting                 0.500000
      * Dispersion:
        s8                             2.700000
        a1                             0.520000
        a2                             5.000000
        s9                             5.000000
      * Repulsion:
        kExp                           1.500000    1.000000
        rExp                           1.000000
      * Coulomb:
        alpha                          2.000000
        third order                    shell-resolved
        anisotropic                    true
        a3                             3.000000
        a5                             4.000000
        cn-shift                       1.200000
        cn-exp                         4.000000
        max-rad                        5.000000


          ...................................................
          :                      SETUP                      :
          :.................................................:
          :  # basis functions                 122          :
          :  # atomic orbitals                 122          :
          :  # shells                           76          :
          :  # electrons                       140          :
          :  max. iterations                   250          :
          :  Hamiltonian                  GFN2-xTB          :
          :  restarted?                      false          :
          :  GBSA solvation                  false          :
          :  PC potential                    false          :
          :  electronic temp.          300.0000000     K    :
          :  accuracy                    1.0000000          :
          :  -> integral cutoff          0.2500000E+02      :
          :  -> integral neglect         0.1000000E-07      :
          :  -> SCF convergence          0.1000000E-05 Eh   :
          :  -> wf. convergence          0.1000000E-03 e    :
          :  Broyden damping             0.4000000          :
          ...................................................

 iter      E             dE          RMSdq      gap      omega  full diag
   1    -81.5490005 -0.815490E+02  0.434E+00    4.88       0.0  T
   2    -81.8351941 -0.286194E+00  0.236E+00    5.85       1.0  T
   3    -81.8407516 -0.555747E-02  0.115E+00    5.61       1.0  T
   4    -81.8420774 -0.132583E-02  0.236E-01    5.70       1.0  T
   5    -81.8429300 -0.852561E-03  0.920E-02    5.62       1.0  T
   6    -81.8429543 -0.242860E-04  0.265E-02    5.63       1.0  T
   7    -81.8429591 -0.479999E-05  0.763E-03    5.62       1.8  T
   8    -81.8429594 -0.286290E-06  0.311E-03    5.62       4.4  T
   9    -81.8429594 -0.453796E-07  0.122E-03    5.62      11.3  T
  10    -81.8429594 -0.786393E-08  0.201E-04    5.62      68.4  T
  11    -81.8429594 -0.500506E-09  0.904E-05    5.62     151.9  T

   *** convergence criteria satisfied after 11 iterations ***

         #    Occupation            Energy/Eh            Energy/eV
      -------------------------------------------------------------
         1        2.0000           -0.7967613             -21.6810
       ...           ...                  ...                  ...
        64        2.0000           -0.4999266             -13.6037
        65        2.0000           -0.4930413             -13.4163
        66        2.0000           -0.4918531             -13.3840
        67        2.0000           -0.4903198             -13.3423
        68        2.0000           -0.4894981             -13.3199
        69        2.0000           -0.4869424             -13.2504
        70        2.0000           -0.4820432             -13.1171 (HOMO)
        71                         -0.2755301              -7.4976 (LUMO)
        72                         -0.2734881              -7.4420
        73                         -0.2713678              -7.3843
        74                         -0.2551773              -6.9437
        75                         -0.1519174              -4.1339
       ...                                ...                  ...
       122                          0.5653298              15.3834
      -------------------------------------------------------------
                  HL-Gap            0.2065131 Eh            5.6195 eV
             Fermi-level           -0.3787866 Eh          -10.3073 eV

 SCC (total)                   0 d,  0 h,  0 min,  0.090 sec
 SCC setup                      ...        0 min,  0.000 sec (  0.323%)
 Dispersion                     ...        0 min,  0.001 sec (  0.640%)
 classical contributions        ...        0 min,  0.000 sec (  0.200%)
 integral evaluation            ...        0 min,  0.008 sec (  8.543%)
 iterations                     ...        0 min,  0.054 sec ( 59.448%)
 molecular gradient             ...        0 min,  0.028 sec ( 30.530%)
 printout                       ...        0 min,  0.000 sec (  0.303%)

         :::::::::::::::::::::::::::::::::::::::::::::::::::::
         ::                     SUMMARY                     ::
         :::::::::::::::::::::::::::::::::::::::::::::::::::::
         :: total energy             -80.933156571570 Eh    ::
         :: gradient norm              0.000193854186 Eh/a0 ::
         :: HOMO-LUMO gap              5.619506981978 eV    ::
         ::.................................................::
         :: SCC energy               -81.842959413998 Eh    ::
         :: -> isotropic ES            0.294042321202 Eh    ::
         :: -> anisotropic ES         -0.029880640083 Eh    ::
         :: -> anisotropic XC          0.021308612542 Eh    ::
         :: -> dispersion             -0.042967808991 Eh    ::
         :: repulsion energy           0.908866677111 Eh    ::
         :: add. restraining           0.000000000000 Eh    ::
         :: total charge               1.000000000000 e     ::
         :::::::::::::::::::::::::::::::::::::::::::::::::::::

           ------------------------------------------------- 
          |                Numerical Hessian                |
           ------------------------------------------------- 
step length          :   0.00500
SCC accuracy         :   0.30000
Hessian scale factor :   1.00000
frozen atoms in %    :   0.00000    0
RMS gradient         :   0.00019
estimated CPU  time      0.24 min
estimated wall time      0.25 min

writing file <hessian>.

 projected vibrational frequencies (cm⁻¹)
eigval :       -0.00    -0.00    -0.00     0.00     0.00     0.00
eigval :       12.97    15.41    28.37    32.97    40.26    43.88
eigval :       47.26    53.90    56.25    60.79    62.30    72.08
eigval :       74.99    80.75    87.46    96.18    99.83   106.82
eigval :      114.29   132.05   144.51   151.71   167.77   188.88
eigval :      192.02   236.47   249.43   259.52   260.07   263.48
eigval :      291.49   300.80   317.64   336.62   357.50   374.48
eigval :      377.37   412.44   431.61   432.29   459.94   469.20
eigval :      469.41   471.63   477.07   482.35   483.70   489.27
eigval :      494.99   542.23   544.05   550.93   559.58   563.46
eigval :      569.32   584.83   647.02   647.84   650.84   670.56
eigval :      676.23   684.18   711.84   755.06   763.68   802.46
eigval :      901.76   924.89   956.05   961.20   961.52   995.48
eigval :      997.10  1003.24  1003.85  1011.79  1013.77  1021.67
eigval :     1024.57  1033.28  1034.28  1081.90  1083.80  1086.69
eigval :     1093.19  1103.27  1114.26  1128.88  1167.21  1222.42
eigval :     1244.34  1271.06  1314.21  1326.92  1350.45  1354.48
eigval :     1358.02  1361.87  1366.43  1404.18  1405.31  1413.78
eigval :     1423.48  1437.65  1439.30  1453.52  1454.02  1457.24
eigval :     1457.67  1460.72  1467.10  1470.56  1481.02  1484.54
eigval :     1489.90  1499.10  1501.56  1507.17  1520.73  1669.58
eigval :     1699.52  1711.99  1726.59  2882.41  2976.51  2984.88
eigval :     3002.02  3030.06  3037.69  3040.72  3043.40  3043.94
eigval :     3047.95  3049.80  3056.01  3059.61  3105.62  3302.86
eigval :     3331.19  3361.15  3366.44  3403.51  3451.39  3488.88
eigval :     3496.32  3498.68  3505.81  3534.16  3535.18  3540.39
eigval :     3557.94  3560.25  3564.55
           -------------------------------------------------
          |                Property Printout                |
           -------------------------------------------------

    * Orbital Energies and Occupations

         #    Occupation            Energy/Eh            Energy/eV
      -------------------------------------------------------------
         1        2.0000           -0.7967613             -21.6810
       ...           ...                  ...                  ...
        58        2.0000           -0.5127391             -13.9523
        59        2.0000           -0.5112999             -13.9132
        60        2.0000           -0.5101147             -13.8809
        61        2.0000           -0.5074375             -13.8081
        62        2.0000           -0.5047201             -13.7341
        63        2.0000           -0.5017970             -13.6546
        64        2.0000           -0.4999268             -13.6037
        65        2.0000           -0.4930406             -13.4163
        66        2.0000           -0.4918539             -13.3840
        67        2.0000           -0.4903203             -13.3423
        68        2.0000           -0.4894988             -13.3199
        69        2.0000           -0.4869432             -13.2504
        70        2.0000           -0.4820440             -13.1171 (HOMO)
        71                         -0.2755304              -7.4976 (LUMO)
        72                         -0.2734882              -7.4420
        73                         -0.2713679              -7.3843
        74                         -0.2551781              -6.9437
        75                         -0.1519172              -4.1339
        76                         -0.1123420              -3.0570
        77                         -0.0944534              -2.5702
        78                         -0.0863988              -2.3510
        79                         -0.0802873              -2.1847
        80                         -0.0748777              -2.0375
        81                         -0.0680390              -1.8514
       ...                                ...                  ...
       122                          0.5653295              15.3834
      -------------------------------------------------------------
                  HL-Gap            0.2065136 Eh            5.6195 eV
             Fermi-level           -0.3787872 Eh          -10.3073 eV

     #   Z          covCN         q      C6AA      α(0)
     1   8 O        1.653    -0.484    22.554     6.411
     2   6 C        3.673     0.074    19.567     6.339
     3   1 H        0.924     0.054     2.274     2.358
     4   1 H        0.923     0.045     2.385     2.415
     5   6 C        3.767    -0.076    21.983     6.682
     6   1 H        0.924     0.110     1.693     2.035
     7   1 H        0.924     0.120     1.616     1.988
     8   7 N        3.623     0.157    18.595     6.405
     9   6 C        3.720    -0.101    22.553     6.783
    10   1 H        0.925     0.101     1.776     2.084
    11   1 H        0.925     0.077     2.005     2.214
    12   1 H        0.925     0.113     1.669     2.020
    13   6 C        3.735    -0.119    22.870     6.825
    14   1 H        0.925     0.114     1.661     2.015
    15   1 H        0.925     0.127     1.554     1.950
    16   1 H        0.925     0.077     2.013     2.219
    17   6 C        3.725    -0.104    22.588     6.786
    18   1 H        0.925     0.120     1.616     1.988
    19   1 H        0.925     0.092     1.857     2.131
    20   1 H        0.925     0.085     1.923     2.169
    21   1 H        0.802     0.331     0.635     1.252
    22   6 C        2.675     0.343    21.173     7.530
    23   8 O        0.860    -0.527    24.396     6.622
    24   7 N        2.645    -0.291    27.516     7.791
    25   1 H        0.860     0.200     1.106     1.647
    26   1 H        0.861     0.181     1.209     1.722
    27   7 N        2.644    -0.304    27.841     7.837
    28   1 H        0.861     0.174     1.249     1.751
    29   1 H        0.860     0.232     0.958     1.533
    30   6 C        2.675     0.345    21.146     7.525
    31   8 O        0.860    -0.516    24.132     6.586
    32   7 N        2.645    -0.287    27.405     7.775
    33   1 H        0.860     0.203     1.090     1.635
    34   1 H        0.861     0.187     1.173     1.696
    35   7 N        2.645    -0.296    27.628     7.806
    36   1 H        0.861     0.185     1.188     1.708
    37   1 H        0.860     0.212     1.048     1.604
    38   6 C        2.675     0.341    21.199     7.534
    39   8 O        0.860    -0.532    24.501     6.636
    40   7 N        2.646    -0.288    27.439     7.780
    41   1 H        0.860     0.215     1.034     1.593
    42   1 H        0.861     0.187     1.174     1.697
    43   7 N        2.645    -0.288    27.429     7.778
    44   1 H        0.861     0.184     1.189     1.708
    45   1 H        0.860     0.241     0.920     1.503
    46   6 C        2.675     0.341    21.201     7.535
    47   8 O        0.859    -0.528    24.414     6.625
    48   7 N        2.644    -0.327    28.424     7.918
    49   1 H        0.860     0.187     1.175     1.698
    50   1 H        0.860     0.185     1.187     1.707
    51   7 N        2.644    -0.321    28.273     7.897
    52   1 H        0.860     0.220     1.010     1.574
    53   1 H        0.860     0.229     0.970     1.543

 Mol. C6AA /au·bohr⁶  :      21794.506584
 Mol. C8AA /au·bohr⁸  :     454322.532923
 Mol. α(0) /au        :        220.562305


Wiberg/Mayer (AO) data.
largest (>0.10) Wiberg bond orders for each atom

 ---------------------------------------------------------------------------
     #   Z sym  total        # sym  WBO       # sym  WBO       # sym  WBO
 ---------------------------------------------------------------------------
     1   8 O    1.938 --     2 C    1.018    21 H    0.808
     2   6 C    3.966 --     1 O    1.018     5 C    0.998     3 H    0.966
                             4 H    0.960
     3   1 H    0.997 --     2 C    0.966
     4   1 H    0.998 --     2 C    0.960
     5   6 C    3.920 --     2 C    0.998     6 H    0.954     7 H    0.945
                             8 N    0.928
     6   1 H    0.988 --     5 C    0.954
     7   1 H    0.986 --     5 C    0.945
     8   7 N    3.822 --    17 C    0.962     9 C    0.961    13 C    0.952
                             5 C    0.928
     9   6 C    3.931 --    11 H    0.978    10 H    0.974    12 H    0.966
                             8 N    0.961
    10   1 H    0.990 --     9 C    0.974
    11   1 H    0.994 --     9 C    0.978
    12   1 H    0.987 --     9 C    0.966
    13   6 C    3.915 --    16 H    0.978    14 H    0.964    15 H    0.955
                             8 N    0.952
    14   1 H    0.987 --    13 C    0.964
    15   1 H    0.984 --    13 C    0.955
    16   1 H    0.994 --    13 C    0.978
    17   6 C    3.931 --    20 H    0.977    19 H    0.974    18 H    0.969
                             8 N    0.962
    18   1 H    0.986 --    17 C    0.969
    19   1 H    0.991 --    17 C    0.974
    20   1 H    0.993 --    17 C    0.977
    21   1 H    0.890 --     1 O    0.808
    22   6 C    3.959 --    23 O    1.524    27 N    1.226    24 N    1.202
    23   8 O    1.894 --    22 C    1.524    27 N    0.146    24 N    0.138
    24   7 N    3.317 --    22 C    1.202    26 H    0.948    25 H    0.943
                            23 O    0.138
    25   1 H    0.960 --    24 N    0.943
    26   1 H    0.967 --    24 N    0.948
    27   7 N    3.326 --    22 C    1.226    28 H    0.951    29 H    0.900
                            23 O    0.146
    28   1 H    0.970 --    27 N    0.951
    29   1 H    0.946 --    27 N    0.900
    30   6 C    3.959 --    31 O    1.514    35 N    1.224    32 N    1.212
    31   8 O    1.923 --    30 C    1.514    35 N    0.143    32 N    0.137
    32   7 N    3.325 --    30 C    1.212    34 H    0.946    33 H    0.942
                            31 O    0.137
    33   1 H    0.959 --    32 N    0.942
    34   1 H    0.965 --    32 N    0.946
    35   7 N    3.332 --    30 C    1.224    36 H    0.947    37 H    0.916
                            31 O    0.143
    36   1 H    0.966 --    35 N    0.947
    37   1 H    0.955 --    35 N    0.916
    38   6 C    3.960 --    39 O    1.463    43 N    1.263    40 N    1.227
    39   8 O    1.918 --    38 C    1.463    43 N    0.137    40 N    0.130
    40   7 N    3.336 --    38 C    1.227    42 H    0.946    41 H    0.933
                            39 O    0.130
    41   1 H    0.954 --    40 N    0.933
    42   1 H    0.965 --    40 N    0.946
    43   7 N    3.357 --    38 C    1.263    44 H    0.947    45 H    0.894
                            39 O    0.137
    44   1 H    0.966 --    43 N    0.947
    45   1 H    0.942 --    43 N    0.894
    46   6 C    3.958 --    47 O    1.533    51 N    1.282    48 N    1.127
    47   8 O    1.905 --    46 C    1.533    51 N    0.157    48 N    0.119
    48   7 N    3.249 --    46 C    1.127    49 H    0.948    50 H    0.944
                            47 O    0.119
    49   1 H    0.965 --    48 N    0.948
    50   1 H    0.966 --    48 N    0.944
    51   7 N    3.346 --    46 C    1.282    52 H    0.893    53 H    0.884
                            47 O    0.157
    52   1 H    0.951 --    51 N    0.893
    53   1 H    0.948 --    51 N    0.884
 ---------------------------------------------------------------------------

Topologies differ in total number of bonds
Writing topology from bond orders to xtbtopo.mol

molecular dipole:
                 x           y           z       tot (Debye)
 q only:       -0.524      -0.020       1.431
   full:       -0.760       0.956       1.615       5.146
molecular quadrupole (traceless):
                xx          xy          yy          xz          yz          zz
 q only:       27.585     -13.901       3.039     -10.264      16.163     -30.624
  q+dip:       34.423     -13.638       1.050     -12.267      18.686     -35.473
   full:       34.377     -13.256       0.788     -12.289      18.251     -35.165

           -------------------------------------------------
          |               Frequency Printout                |
           -------------------------------------------------
 projected vibrational frequencies (cm⁻¹)
eigval :       -0.00    -0.00    -0.00     0.00     0.00     0.00
eigval :       12.97    15.41    28.37    32.97    40.26    43.88
eigval :       47.26    53.90    56.25    60.79    62.30    72.08
eigval :       74.99    80.75    87.46    96.18    99.83   106.82
eigval :      114.29   132.05   144.51   151.71   167.77   188.88
eigval :      192.02   236.47   249.43   259.52   260.07   263.48
eigval :      291.49   300.80   317.64   336.62   357.50   374.48
eigval :      377.37   412.44   431.61   432.29   459.94   469.20
eigval :      469.41   471.63   477.07   482.35   483.70   489.27
eigval :      494.99   542.23   544.05   550.93   559.58   563.46
eigval :      569.32   584.83   647.02   647.84   650.84   670.56
eigval :      676.23   684.18   711.84   755.06   763.68   802.46
eigval :      901.76   924.89   956.05   961.20   961.52   995.48
eigval :      997.10  1003.24  1003.85  1011.79  1013.77  1021.67
eigval :     1024.57  1033.28  1034.28  1081.90  1083.80  1086.69
eigval :     1093.19  1103.27  1114.26  1128.88  1167.21  1222.42
eigval :     1244.34  1271.06  1314.21  1326.92  1350.45  1354.48
eigval :     1358.02  1361.87  1366.43  1404.18  1405.31  1413.78
eigval :     1423.48  1437.65  1439.30  1453.52  1454.02  1457.24
eigval :     1457.67  1460.72  1467.10  1470.56  1481.02  1484.54
eigval :     1489.90  1499.10  1501.56  1507.17  1520.73  1669.58
eigval :     1699.52  1711.99  1726.59  2882.41  2976.51  2984.88
eigval :     3002.02  3030.06  3037.69  3040.72  3043.40  3043.94
eigval :     3047.95  3049.80  3056.01  3059.61  3105.62  3302.86
eigval :     3331.19  3361.15  3366.44  3403.51  3451.39  3488.88
eigval :     3496.32  3498.68  3505.81  3534.16  3535.18  3540.39
eigval :     3557.94  3560.25  3564.55
 reduced masses (amu)
   1: 12.27   2: 12.74   3: 12.34   4: 12.43   5: 12.53   6: 12.88   7: 12.09   8: 11.89
   9: 12.03  10: 12.38  11: 12.26  12: 12.42  13: 10.61  14: 12.13  15: 12.45  16: 12.85
  17: 13.03  18: 13.15  19: 12.85  20: 13.03  21: 12.69  22: 11.28  23: 12.95  24: 12.58
  25: 12.12  26: 13.13  27: 13.33  28: 12.52  29: 12.88  30: 11.95  31:  8.68  32: 11.61
  33:  2.62  34:  2.83  35:  5.12  36:  3.36  37:  5.94  38:  4.03  39:  6.56  40:  4.73
  41:  3.71  42:  3.78  43:  7.23  44:  3.14  45:  8.38  46:  2.77  47:  8.48  48:  6.48
  49:  5.81  50:  6.36  51:  4.04  52:  7.06  53:  8.12  54:  8.73  55:  1.60  56: 11.27
  57: 11.29  58:  7.32  59:  7.73  60:  8.42  61:  8.61  62:  4.83  63:  4.29  64:  4.83
  65:  3.28  66: 11.31  67: 11.70  68:  8.23  69:  8.84  70:  3.50  71:  8.74  72:  2.55
  73:  6.89  74:  8.53  75:  4.99  76:  4.91  77:  4.94  78:  8.76  79:  7.48  80:  9.01
  81:  9.13  82:  8.18  83:  7.68  84:  5.82  85:  6.79  86:  5.97  87:  3.04  88:  9.82
  89:  9.48  90:  8.97  91:  6.31  92:  4.44  93:  6.70  94:  9.06  95:  3.00  96:  5.17
  97:  7.04  98:  8.23  99:  6.08 100:  3.31 101:  4.92 102:  4.97 103:  6.62 104:  5.53
 105:  6.60 106:  3.01 107:  2.69 108:  2.66 109:  2.18 110:  1.80 111:  2.24 112:  2.50
 113:  2.76 114:  2.96 115:  1.96 116:  2.01 117:  1.82 118:  2.09 119:  3.65 120:  1.75
 121:  1.76 122:  6.11 123:  7.81 124:  7.24 125:  9.59 126: 12.60 127: 12.76 128: 12.78
 129: 12.71 130:  1.76 131:  1.68 132:  1.77 133:  1.73 134:  1.77 135:  1.69 136:  1.82
 137:  1.90 138:  1.60 139:  1.66 140:  1.54 141:  1.90 142:  1.69 143:  1.91 144:  1.70
 145:  1.94 146:  1.71 147:  1.77 148:  1.66 149:  1.48 150:  1.47 151:  1.45 152:  1.45
 153:  2.14 154:  1.95 155:  1.96 156:  2.00 157:  2.17 158:  2.18 159:  2.18
 IR intensities (km·mol⁻¹)
   1:  0.28   2:  2.42   3:  0.84   4:  2.11   5:  0.68   6:  2.96   7:  0.54   8:  0.15
   9:  2.79  10:  3.66  11:  1.08  12:  3.88  13:  1.98  14:  0.03  15:  4.00  16:  1.00
  17:  0.12  18:  0.91  19:  6.37  20:  1.15  21:  6.39  22:  4.48  23: 19.42  24: 20.26
  25: 18.77  26: 17.18  27:  4.77  28: 34.68  29: 28.37  30:  4.96  31:  2.80  32: 19.64
  33:100.26  34:  9.90  35: 14.32  36:107.17  37:  0.20  38:  3.17  39:  1.39  40:  1.41
  41:262.26  42:236.14  43: 37.24  44:339.80  45:  5.31  46: 98.42  47:  2.08  48:  3.89
  49: 16.94  50:  9.74  51:  8.21  52:  7.29  53:  6.26  54: 27.12  55:  0.21  56: 14.02
  57: 42.54  58: 38.90  59: 59.60  60: 29.27  61: 35.47  62: 65.22  63:136.16  64: 58.77
  65: 89.35  66: 18.35  67: 22.75  68: 46.66  69:169.32  70:252.04  71: 61.45  72:585.12
  73:  4.26  74: 10.92  75:  3.71  76:  1.16  77:  0.11  78: 28.73  79: 19.50  80:  1.69
  81: 15.98  82: 37.16  83:  3.68  84:  9.69  85: 25.71  86: 22.11  87:  0.44  88:  0.55
  89:  0.22  90:  3.53  91: 16.81  92: 14.19  93:  2.10  94: 44.47  95:  4.34  96:  5.89
  97:  1.73  98:  2.98  99:  5.68 100:  4.63 101: 54.98 102: 86.55 103:114.09 104: 37.07
 105:137.84 106: 79.06 107: 29.64 108: 44.64 109: 19.83 110:  7.13 111: 18.99 112: 16.70
 113:  6.27 114:  4.63 115:  9.30 116: 12.71 117:  2.03 118: 20.32 119: 60.35 120:101.70
 121:  4.52 122: 68.54 123:884.18 124:474.25 125:552.56 126:****** 127:905.52 128:691.18
 129:650.08 130: 37.96 131: 66.89 132: 42.87 133:  4.09 134: 56.79 135:  5.70 136:  2.25
 137: 15.94 138: 15.08 139: 20.18 140:  5.53 141:  4.11 142:  4.32 143:926.05 144:563.62
 145:290.20 146:350.38 147:788.00 148:306.75 149: 10.24 150: 36.41 151: 19.59 152: 20.49
 153:  6.56 154: 17.78 155: 13.95 156: 23.61 157: 23.20 158: 19.43 159: 11.66
 Raman intensities (amu)
Molecule has no symmetry elements
It seems to be the C1 point group
   1:  0.00   2:  0.00   3:  0.00   4:  0.00   5:  0.00   6:  0.00   7:  0.00   8:  0.00
   9:  0.00  10:  0.00  11:  0.00  12:  0.00  13:  0.00  14:  0.00  15:  0.00  16:  0.00
  17:  0.00  18:  0.00  19:  0.00  20:  0.00  21:  0.00  22:  0.00  23:  0.00  24:  0.00
  25:  0.00  26:  0.00  27:  0.00  28:  0.00  29:  0.00  30:  0.00  31:  0.00  32:  0.00
  33:  0.00  34:  0.00  35:  0.00  36:  0.00  37:  0.00  38:  0.00  39:  0.00  40:  0.00
  41:  0.00  42:  0.00  43:  0.00  44:  0.00  45:  0.00  46:  0.00  47:  0.00  48:  0.00
  49:  0.00  50:  0.00  51:  0.00  52:  0.00  53:  0.00  54:  0.00  55:  0.00  56:  0.00
  57:  0.00  58:  0.00  59:  0.00  60:  0.00  61:  0.00  62:  0.00  63:  0.00  64:  0.00
  65:  0.00  66:  0.00  67:  0.00  68:  0.00  69:  0.00  70:  0.00  71:  0.00  72:  0.00
  73:  0.00  74:  0.00  75:  0.00  76:  0.00  77:  0.00  78:  0.00  79:  0.00  80:  0.00
  81:  0.00  82:  0.00  83:  0.00  84:  0.00  85:  0.00  86:  0.00  87:  0.00  88:  0.00
  89:  0.00  90:  0.00  91:  0.00  92:  0.00  93:  0.00  94:  0.00  95:  0.00  96:  0.00
  97:  0.00  98:  0.00  99:  0.00 100:  0.00 101:  0.00 102:  0.00 103:  0.00 104:  0.00
 105:  0.00 106:  0.00 107:  0.00 108:  0.00 109:  0.00 110:  0.00 111:  0.00 112:  0.00
 113:  0.00 114:  0.00 115:  0.00 116:  0.00 117:  0.00 118:  0.00 119:  0.00 120:  0.00
 121:  0.00 122:  0.00 123:  0.00 124:  0.00 125:  0.00 126:  0.00 127:  0.00 128:  0.00
 129:  0.00 130:  0.00 131:  0.00 132:  0.00 133:  0.00 134:  0.00 135:  0.00 136:  0.00
 137:  0.00 138:  0.00 139:  0.00 140:  0.00 141:  0.00 142:  0.00 143:  0.00 144:  0.00
 145:  0.00 146:  0.00 147:  0.00 148:  0.00 149:  0.00 150:  0.00 151:  0.00 152:  0.00
 153:  0.00 154:  0.00 155:  0.00 156:  0.00 157:  0.00 158:  0.00 159:  0.00
 output can be read by thermo (or use thermo option).
 writing <g98.out> molden fake output.
 recommended (thermochemical) frequency scaling factor: 1.0
           -------------------------------------------------
          |             Thermodynamic Functions             |
           -------------------------------------------------

c1  symmetry found (for desy threshold:  0.10E+00) used in thermo

          ...................................................
          :                      SETUP                      :
          :.................................................:
          :  # frequencies                         153      :
          :  # imaginary freq.                       0      :
          :  linear?                             false      :
          :  only rotor calc.                    false      :
          :  symmetry                               c1      :
          :  rotational number                       1      :
          :  scaling factor                  1.0000000      :
          :  rotor cutoff                   50.0000000 cm⁻¹ :
          :  imag. cutoff                  -20.0000000 cm⁻¹ :
          :.................................................:

    mode    ω/cm⁻¹     T·S(HO)/kcal·mol⁻¹    T·S(FR)/kcal·mol⁻¹   T·S(vib)
   ------------------------------------------------------------------------
       1     12.97    -2.23459 (  0.45%)    -1.45626 ( 99.55%)    -1.45976
       2     15.41    -2.13246 (  0.89%)    -1.40519 ( 99.11%)    -1.41169
       3     28.37    -1.77107 (  9.39%)    -1.22437 ( 90.61%)    -1.27572
       4     32.97    -1.68218 ( 15.90%)    -1.17985 ( 84.10%)    -1.25974
       5     40.26    -1.56423 ( 29.59%)    -1.12073 ( 70.41%)    -1.25195
       6     43.88    -1.51331 ( 37.24%)    -1.09519 ( 62.76%)    -1.25088
       7     47.26    -1.46956 ( 44.39%)    -1.07322 ( 55.61%)    -1.24914
       8     53.90    -1.39201 ( 57.46%)    -1.03427 ( 42.54%)    -1.23982
       9     56.25    -1.36685 ( 61.57%)    -1.02161 ( 38.43%)    -1.23418
      10     60.79    -1.32126 ( 68.60%)    -0.99867 ( 31.40%)    -1.21995
      11     62.30    -1.30676 ( 70.68%)    -0.99136 ( 29.32%)    -1.21428
      12     72.08    -1.22117 ( 81.20%)    -0.94819 ( 18.80%)    -1.16984
      13     74.99    -1.19797 ( 83.49%)    -0.93647 ( 16.51%)    -1.15481
      14     80.75    -1.15457 ( 87.19%)    -0.91452 ( 12.81%)    -1.12381
      15     87.46    -1.10795 ( 90.35%)    -0.89089 (  9.65%)    -1.08700
      16     96.18    -1.05258 ( 93.19%)    -0.86275 (  6.81%)    -1.03966
      17     99.83    -1.03087 ( 94.08%)    -0.85169 (  5.92%)    -1.02026
      18    106.82    -0.99161 ( 95.42%)    -0.83165 (  4.58%)    -0.98429
      19    114.29    -0.95250 ( 96.47%)    -0.81163 (  3.53%)    -0.94753
      20    132.05    -0.86940 ( 97.99%)    -0.76884 (  2.01%)    -0.86737
      21    144.51    -0.81789 ( 98.59%)    -0.74212 (  1.41%)    -0.81682
      22    151.71    -0.79030 ( 98.83%)    -0.72773 (  1.17%)    -0.78957
      23    167.77    -0.73353 ( 99.22%)    -0.69792 (  0.78%)    -0.73326
      24    188.88    -0.66750 ( 99.51%)    -0.66282 (  0.49%)    -0.66748
      25    192.02    -0.65838 ( 99.54%)    -0.65792 (  0.46%)    -0.65837
      26    236.47    -0.54541 ( 99.80%)    -0.59625 (  0.20%)    -0.54551
      27    249.43    -0.51717 ( 99.84%)    -0.58044 (  0.16%)    -0.51727
      28    259.52    -0.49641 ( 99.86%)    -0.56869 (  0.14%)    -0.49651
      29    260.07    -0.49531 ( 99.86%)    -0.56806 (  0.14%)    -0.49541
      30    263.48    -0.48854 ( 99.87%)    -0.56420 (  0.13%)    -0.48864
      31    291.49    -0.43688 ( 99.91%)    -0.53428 (  0.09%)    -0.43696
   ------------------------------------------------------------------------

   temp. (K)  partition function   enthalpy   heat capacity  entropy
                                   cal/mol     cal/K/mol   cal/K/mol   J/K/mol
 298.15  VIB  0.254E+17            19234.313    104.378    126.591
         ROT  0.148E+08              888.752      2.981     35.788
         INT  0.376E+24            20123.065    107.359    162.380
         TR   0.618E+28             1481.254      4.968     43.384
         TOT                       21604.3190   112.3270   205.7643   860.9177

       T/K    H(0)-H(T)+PV         H(T)/Eh          T*S/Eh         G(T)/Eh
   ------------------------------------------------------------------------
    298.15    0.344287E-01    0.474243E+00    0.977652E-01    0.376477E+00
   ------------------------------------------------------------------------

         :::::::::::::::::::::::::::::::::::::::::::::::::::::
         ::                  THERMODYNAMIC                  ::
         :::::::::::::::::::::::::::::::::::::::::::::::::::::
         :: total free energy         -80.556679266475 Eh   ::
         ::.................................................::
         :: total energy              -80.933156571606 Eh   ::
         :: zero point energy           0.439813870835 Eh   ::
         :: G(RRHO) w/o ZPVE           -0.063336565703 Eh   ::
         :: G(RRHO) contrib.            0.376477305131 Eh   ::
         :::::::::::::::::::::::::::::::::::::::::::::::::::::

           -------------------------------------------------
          | TOTAL ENERGY              -80.933156571606 Eh   |
          | TOTAL ENTHALPY            -80.458914027037 Eh   |
          | TOTAL FREE ENERGY         -80.556679266475 Eh   |
          | GRADIENT NORM               0.000193796608 Eh/α |
          | HOMO-LUMO GAP               5.619520232006 eV   |
           -------------------------------------------------

------------------------------------------------------------------------
 * finished run on 2024/01/10 at 15:38:53.870     
------------------------------------------------------------------------
 total:
 * wall-time:     0 d,  0 h,  0 min, 15.129 sec
 *  cpu-time:     0 d,  0 h,  0 min, 14.599 sec
 * ratio c/w:     0.965 speedup
 SCF:
 * wall-time:     0 d,  0 h,  0 min,  0.090 sec
 *  cpu-time:     0 d,  0 h,  0 min,  0.059 sec
 * ratio c/w:     0.656 speedup
 analytical hessian:
 * wall-time:     0 d,  0 h,  0 min, 15.013 sec
 *  cpu-time:     0 d,  0 h,  0 min, 14.513 sec
 * ratio c/w:     0.967 speedup

