      -----------------------------------------------------------      
     |                   =====================                   |     
     |                           x T B                           |     
     |                   =====================                   |     
     |                         S. Grimme                         |     
     |          Mulliken Center for Theoretical Chemistry        |     
     |                    University of Bonn                     |     
      -----------------------------------------------------------      

   * xtb version 6.6.1 (unknown-commit) compiled by '@Linux' on 12/27/2023

   xtb is free software: you can redistribute it and/or modify it under
   the terms of the GNU Lesser General Public License as published by
   the Free Software Foundation, either version 3 of the License, or
   (at your option) any later version.
   
   xtb is distributed in the hope that it will be useful,
   but WITHOUT ANY WARRANTY; without even the implied warranty of
   MERCHANTABILITY or FITNESS FOR A PARTICULAR PURPOSE.  See the
   GNU Lesser General Public License for more details.
   
   Cite this work as:
   * C. Bannwarth, E. Caldeweyher, S. Ehlert, A. Hansen, P. Pracht,
     J. Seibert, S. Spicher, S. Grimme, WIREs Comput. Mol. Sci., 2020, 11,
     e01493. DOI: 10.1002/wcms.1493
   
   for GFN2-xTB:
   * C. Bannwarth, S. Ehlert and S. Grimme., J. Chem. Theory Comput., 2019,
     15, 1652-1671. DOI: 10.1021/acs.jctc.8b01176
   for GFN1-xTB:
   * S. Grimme, C. Bannwarth, P. Shushkov, J. Chem. Theory Comput., 2017,
     13, 1989-2009. DOI: 10.1021/acs.jctc.7b00118
   for GFN0-xTB:
   * P. Pracht, E. Caldeweyher, S. Ehlert, S. Grimme, ChemRxiv, 2019, preprint.
     DOI: 10.26434/chemrxiv.8326202.v1
   for GFN-FF:
   * S. Spicher and S. Grimme, Angew. Chem. Int. Ed., 2020, 59, 15665-15673.
     DOI: 10.1002/anie.202004239
   
   for ALPB and GBSA implicit solvation:
   * S. Ehlert, M. Stahn, S. Spicher, S. Grimme, J. Chem. Theory Comput.,
     2021, 17, 4250-4261. DOI: 10.1021/acs.jctc.1c00471
   
   for DFT-D4:
   * E. Caldeweyher, C. Bannwarth and S. Grimme, J. Chem. Phys., 2017,
     147, 034112. DOI: 10.1063/1.4993215
   * E. Caldeweyher, S. Ehlert, A. Hansen, H. Neugebauer, S. Spicher,
     C. Bannwarth and S. Grimme, J. Chem. Phys., 2019, 150, 154122.
     DOI: 10.1063/1.5090222
   * E. Caldeweyher, J.-M. Mewes, S. Ehlert and S. Grimme, Phys. Chem. Chem. Phys.
     2020, 22, 8499-8512. DOI: 10.1039/D0CP00502A
   
   for sTDA-xTB:
   * S. Grimme and C. Bannwarth, J. Chem. Phys., 2016, 145, 054103.
     DOI: 10.1063/1.4959605
   
   in the mass-spec context:
   * V. Asgeirsson, C. Bauer and S. Grimme, Chem. Sci., 2017, 8, 4879.
     DOI: 10.1039/c7sc00601b
   * J. Koopman and S. Grimme, ACS Omega 2019, 4, 12, 15120-15133.
     DOI: 10.1021/acsomega.9b02011
   
   for metadynamics refer to:
   * S. Grimme, J. Chem. Theory Comput., 2019, 155, 2847-2862
     DOI: 10.1021/acs.jctc.9b00143
   
   for SPH calculations refer to:
   * S. Spicher and S. Grimme, J. Chem. Theory Comput., 2021, 17, 1701-1714
     DOI: 10.1021/acs.jctc.0c01306
   
   with help from (in alphabetical order)
   P. Atkinson, C. Bannwarth, F. Bohle, G. Brandenburg, E. Caldeweyher
   M. Checinski, S. Dohm, S. Ehlert, S. Ehrlich, I. Gerasimov, C. Hölzer
   A. Katbashev, J. Koopman, C. Lavigne, S. Lehtola, F. März, M. Müller,
   F. Musil, H. Neugebauer, J. Pisarek, C. Plett, P. Pracht, F. Pultar,
   J. Seibert, P. Shushkov, S. Spicher, M. Stahn, M. Steiner, T. Strunk,
   J. Stückrath, T. Rose, and J. Unsleber
   
 * started run on 2024/01/10 at 18:30:35.395     

           -------------------------------------------------
          |                Calculation Setup                |
           -------------------------------------------------

          program call               : xtb struc.xyz --gfn2 --hess
          hostname                   : swaroop
          coordinate file            : struc.xyz
          omp threads                :                     1

   ID    Z sym.   atoms
    1    8 O      1, 23, 31, 39, 47
    2    6 C      2, 5, 9, 13, 17, 22, 30, 38, 46
    3    1 H      3, 4, 6, 7, 10-12, 14-16, 18-21, 25, 26, 28, 29, 33, 34,
                  36, 37, 41, 42, 44, 45, 49, 50, 52, 53
    4    7 N      8, 24, 27, 32, 35, 40, 43, 48, 51

molecular fragmentation (1/2 indicates fragments):
11111111111111111111122222222222222222222222222222222
# atoms in fragment 1/2:    21    32
 fragment masses (1/2) :      104.17      240.22
CMA distance (Bohr)    :   7.709
constraining FC (au)   :  0.0500

           -------------------------------------------------
          |                 G F N 2 - x T B                 |
           -------------------------------------------------

        Reference                      10.1021/acs.jctc.8b01176
      * Hamiltonian:
        H0-scaling (s, p, d)           1.850000    2.230000    2.230000
        zeta-weighting                 0.500000
      * Dispersion:
        s8                             2.700000
        a1                             0.520000
        a2                             5.000000
        s9                             5.000000
      * Repulsion:
        kExp                           1.500000    1.000000
        rExp                           1.000000
      * Coulomb:
        alpha                          2.000000
        third order                    shell-resolved
        anisotropic                    true
        a3                             3.000000
        a5                             4.000000
        cn-shift                       1.200000
        cn-exp                         4.000000
        max-rad                        5.000000


          ...................................................
          :                      SETUP                      :
          :.................................................:
          :  # basis functions                 122          :
          :  # atomic orbitals                 122          :
          :  # shells                           76          :
          :  # electrons                       140          :
          :  max. iterations                   250          :
          :  Hamiltonian                  GFN2-xTB          :
          :  restarted?                      false          :
          :  GBSA solvation                  false          :
          :  PC potential                    false          :
          :  electronic temp.          300.0000000     K    :
          :  accuracy                    1.0000000          :
          :  -> integral cutoff          0.2500000E+02      :
          :  -> integral neglect         0.1000000E-07      :
          :  -> SCF convergence          0.1000000E-05 Eh   :
          :  -> wf. convergence          0.1000000E-03 e    :
          :  Broyden damping             0.4000000          :
          ...................................................

 iter      E             dE          RMSdq      gap      omega  full diag
   1    -81.5462341 -0.815462E+02  0.435E+00    5.12       0.0  T
   2    -81.8370288 -0.290795E+00  0.237E+00    5.91       1.0  T
   3    -81.8428852 -0.585639E-02  0.116E+00    5.66       1.0  T
   4    -81.8442905 -0.140529E-02  0.240E-01    5.75       1.0  T
   5    -81.8451693 -0.878854E-03  0.924E-02    5.65       1.0  T
   6    -81.8451947 -0.253645E-04  0.276E-02    5.65       1.0  T
   7    -81.8451996 -0.492514E-05  0.761E-03    5.65       1.8  T
   8    -81.8451999 -0.293928E-06  0.291E-03    5.65       4.7  T
   9    -81.8451999 -0.225217E-07  0.103E-03    5.65      13.3  T
  10    -81.8451999 -0.549740E-08  0.197E-04    5.65      69.7  T
  11    -81.8451999 -0.535280E-09  0.901E-05    5.65     152.5  T

   *** convergence criteria satisfied after 11 iterations ***

         #    Occupation            Energy/Eh            Energy/eV
      -------------------------------------------------------------
         1        2.0000           -0.7937158             -21.5981
       ...           ...                  ...                  ...
        64        2.0000           -0.4927544             -13.4085
        65        2.0000           -0.4926537             -13.4058
        66        2.0000           -0.4888944             -13.3035
        67        2.0000           -0.4856050             -13.2140
        68        2.0000           -0.4853902             -13.2081
        69        2.0000           -0.4813265             -13.0976
        70        2.0000           -0.4747595             -12.9189 (HOMO)
        71                         -0.2672809              -7.2731 (LUMO)
        72                         -0.2616715              -7.1204
        73                         -0.2597864              -7.0691
        74                         -0.2497216              -6.7953
        75                         -0.1502112              -4.0875
       ...                                ...                  ...
       122                          0.5707839              15.5318
      -------------------------------------------------------------
                  HL-Gap            0.2074787 Eh            5.6458 eV
             Fermi-level           -0.3710202 Eh          -10.0960 eV

 SCC (total)                   0 d,  0 h,  0 min,  0.097 sec
 SCC setup                      ...        0 min,  0.000 sec (  0.303%)
 Dispersion                     ...        0 min,  0.001 sec (  0.623%)
 classical contributions        ...        0 min,  0.000 sec (  0.196%)
 integral evaluation            ...        0 min,  0.007 sec (  7.691%)
 iterations                     ...        0 min,  0.061 sec ( 63.556%)
 molecular gradient             ...        0 min,  0.026 sec ( 27.354%)
 printout                       ...        0 min,  0.000 sec (  0.264%)

         :::::::::::::::::::::::::::::::::::::::::::::::::::::
         ::                     SUMMARY                     ::
         :::::::::::::::::::::::::::::::::::::::::::::::::::::
         :: total energy             -80.931582094316 Eh    ::
         :: gradient norm              0.000175474193 Eh/a0 ::
         :: HOMO-LUMO gap              5.645781710124 eV    ::
         ::.................................................::
         :: SCC energy               -81.845199940312 Eh    ::
         :: -> isotropic ES            0.291923028440 Eh    ::
         :: -> anisotropic ES         -0.028591408207 Eh    ::
         :: -> anisotropic XC          0.020527137665 Eh    ::
         :: -> dispersion             -0.040658253046 Eh    ::
         :: repulsion energy           0.913110201542 Eh    ::
         :: add. restraining           0.000000000000 Eh    ::
         :: total charge               1.000000000000 e     ::
         :::::::::::::::::::::::::::::::::::::::::::::::::::::

           ------------------------------------------------- 
          |                Numerical Hessian                |
           ------------------------------------------------- 
step length          :   0.00500
SCC accuracy         :   0.30000
Hessian scale factor :   1.00000
frozen atoms in %    :   0.00000    0
RMS gradient         :   0.00018
estimated CPU  time      0.23 min
estimated wall time      0.23 min

writing file <hessian>.

 projected vibrational frequencies (cm⁻¹)
eigval :       -0.00    -0.00    -0.00    -0.00     0.00     0.00
eigval :        4.60     7.29    15.46    20.24    23.41    30.04
eigval :       31.42    39.16    42.77    43.43    51.34    59.01
eigval :       64.35    68.32    76.38    89.35   105.33   110.04
eigval :      117.81   123.74   129.14   135.93   149.50   175.85
eigval :      196.67   229.81   243.73   245.24   261.45   287.39
eigval :      293.87   309.37   317.75   350.83   354.05   357.27
eigval :      374.07   377.10   404.73   432.75   444.79   457.98
eigval :      463.21   469.38   470.63   473.88   477.90   481.21
eigval :      484.32   502.52   516.20   533.75   543.18   548.01
eigval :      566.53   572.73   586.38   644.32   645.72   670.62
eigval :      675.95   677.76   681.94   745.86   766.30   845.42
eigval :      898.84   928.10   949.90   962.47   964.43   997.44
eigval :      998.58   999.45  1000.75  1008.84  1010.93  1029.10
eigval :     1033.05  1038.42  1042.44  1083.51  1086.61  1089.77
eigval :     1099.67  1104.45  1114.09  1135.16  1169.86  1228.39
eigval :     1250.85  1277.73  1308.44  1334.19  1344.38  1347.61
eigval :     1353.64  1355.49  1366.83  1402.20  1406.63  1411.16
eigval :     1428.01  1432.43  1440.20  1446.48  1449.45  1453.45
eigval :     1457.55  1460.31  1461.78  1469.26  1472.73  1484.65
eigval :     1493.36  1497.99  1498.88  1505.48  1534.00  1658.04
eigval :     1705.47  1718.75  1721.71  2869.82  2967.77  2986.36
eigval :     2988.99  3001.89  3008.66  3036.23  3038.28  3043.36
eigval :     3044.97  3046.63  3055.25  3057.72  3067.90  3180.81
eigval :     3370.47  3378.26  3430.12  3495.47  3496.55  3500.37
eigval :     3500.67  3522.26  3530.58  3531.16  3557.07  3559.67
eigval :     3560.94  3565.20  3566.11
           -------------------------------------------------
          |                Property Printout                |
           -------------------------------------------------

    * Orbital Energies and Occupations

         #    Occupation            Energy/Eh            Energy/eV
      -------------------------------------------------------------
         1        2.0000           -0.7937159             -21.5981
       ...           ...                  ...                  ...
        58        2.0000           -0.5060090             -13.7692
        59        2.0000           -0.5010619             -13.6346
        60        2.0000           -0.4995891             -13.5945
        61        2.0000           -0.4994028             -13.5894
        62        2.0000           -0.4987673             -13.5722
        63        2.0000           -0.4956777             -13.4881
        64        2.0000           -0.4927547             -13.4085
        65        2.0000           -0.4926538             -13.4058
        66        2.0000           -0.4888947             -13.3035
        67        2.0000           -0.4856054             -13.2140
        68        2.0000           -0.4853904             -13.2081
        69        2.0000           -0.4813269             -13.0976
        70        2.0000           -0.4747601             -12.9189 (HOMO)
        71                         -0.2672814              -7.2731 (LUMO)
        72                         -0.2616718              -7.1205
        73                         -0.2597867              -7.0692
        74                         -0.2497215              -6.7953
        75                         -0.1502112              -4.0875
        76                         -0.1023959              -2.7863
        77                         -0.0928489              -2.5265
        78                         -0.0805776              -2.1926
        79                         -0.0737417              -2.0066
        80                         -0.0704005              -1.9157
        81                         -0.0679934              -1.8502
       ...                                ...                  ...
       122                          0.5707839              15.5318
      -------------------------------------------------------------
                  HL-Gap            0.2074787 Eh            5.6458 eV
             Fermi-level           -0.3710207 Eh          -10.0960 eV

     #   Z          covCN         q      C6AA      α(0)
     1   8 O        1.652    -0.482    22.504     6.404
     2   6 C        3.673     0.077    19.515     6.331
     3   1 H        0.924     0.053     2.283     2.363
     4   1 H        0.923     0.041     2.434     2.440
     5   6 C        3.763    -0.055    21.609     6.626
     6   1 H        0.924     0.103     1.760     2.075
     7   1 H        0.924     0.070     2.084     2.258
     8   7 N        3.623     0.157    18.593     6.404
     9   6 C        3.727    -0.124    22.995     6.846
    10   1 H        0.925     0.118     1.632     1.998
    11   1 H        0.925     0.103     1.755     2.071
    12   1 H        0.925     0.120     1.614     1.987
    13   6 C        3.735    -0.122    22.936     6.835
    14   1 H        0.925     0.115     1.658     2.013
    15   1 H        0.925     0.072     2.069     2.249
    16   1 H        0.924     0.134     1.505     1.919
    17   6 C        3.724    -0.098    22.491     6.772
    18   1 H        0.925     0.097     1.811     2.104
    19   1 H        0.925     0.109     1.702     2.040
    20   1 H        0.925     0.081     1.969     2.194
    21   1 H        0.801     0.339     0.616     1.233
    22   6 C        2.675     0.347    21.104     7.517
    23   8 O        0.860    -0.513    24.076     6.579
    24   7 N        2.645    -0.288    27.439     7.780
    25   1 H        0.860     0.201     1.103     1.645
    26   1 H        0.861     0.188     1.171     1.695
    27   7 N        2.646    -0.287    27.401     7.774
    28   1 H        0.861     0.188     1.170     1.695
    29   1 H        0.860     0.202     1.097     1.640
    30   6 C        2.675     0.343    21.180     7.531
    31   8 O        0.861    -0.533    24.523     6.639
    32   7 N        2.645    -0.298    27.667     7.812
    33   1 H        0.860     0.195     1.129     1.665
    34   1 H        0.861     0.180     1.214     1.726
    35   7 N        2.644    -0.312    28.028     7.863
    36   1 H        0.861     0.172     1.263     1.761
    37   1 H        0.859     0.243     0.913     1.497
    38   6 C        2.675     0.338    21.257     7.544
    39   8 O        0.860    -0.542    24.734     6.668
    40   7 N        2.650    -0.296    27.618     7.805
    41   1 H        0.860     0.209     1.062     1.614
    42   1 H        0.860     0.227     0.978     1.549
    43   7 N        2.650    -0.292    27.518     7.791
    44   1 H        0.860     0.226     0.983     1.553
    45   1 H        0.861     0.191     1.154     1.683
    46   6 C        2.675     0.343    21.172     7.529
    47   8 O        0.860    -0.519    24.204     6.596
    48   7 N        2.645    -0.293    27.564     7.797
    49   1 H        0.860     0.199     1.112     1.652
    50   1 H        0.861     0.179     1.218     1.729
    51   7 N        2.644    -0.306    27.875     7.841
    52   1 H        0.860     0.173     1.254     1.754
    53   1 H        0.860     0.230     0.967     1.541

 Mol. C6AA /au·bohr⁶  :      21806.430185
 Mol. C8AA /au·bohr⁸  :     454376.897210
 Mol. α(0) /au        :        220.630609


Wiberg/Mayer (AO) data.
largest (>0.10) Wiberg bond orders for each atom

 ---------------------------------------------------------------------------
     #   Z sym  total        # sym  WBO       # sym  WBO       # sym  WBO
 ---------------------------------------------------------------------------
     1   8 O    1.941 --     2 C    1.027    21 H    0.793
     2   6 C    3.968 --     1 O    1.027     5 C    0.990     3 H    0.967
                             4 H    0.960
     3   1 H    0.997 --     2 C    0.967
     4   1 H    0.998 --     2 C    0.960
     5   6 C    3.944 --     2 C    0.990     7 H    0.970     6 H    0.962
                             8 N    0.942
     6   1 H    0.989 --     5 C    0.962
     7   1 H    0.995 --     5 C    0.970
     8   7 N    3.821 --    17 C    0.964    13 C    0.952     9 C    0.946
                             5 C    0.942
     9   6 C    3.902 --    11 H    0.969    12 H    0.960    10 H    0.959
                             8 N    0.946
    10   1 H    0.986 --     9 C    0.959
    11   1 H    0.989 --     9 C    0.969
    12   1 H    0.986 --     9 C    0.960
    13   6 C    3.912 --    15 H    0.980    14 H    0.962     8 N    0.952
                            16 H    0.948
    14   1 H    0.987 --    13 C    0.962
    15   1 H    0.995 --    13 C    0.980
    16   1 H    0.982 --    13 C    0.948
    17   6 C    3.936 --    20 H    0.979    18 H    0.974    19 H    0.972
                             8 N    0.964
    18   1 H    0.991 --    17 C    0.974
    19   1 H    0.988 --    17 C    0.972
    20   1 H    0.993 --    17 C    0.979
    21   1 H    0.885 --     1 O    0.793
    22   6 C    3.959 --    23 O    1.531    27 N    1.211    24 N    1.209
    23   8 O    1.921 --    22 C    1.531    24 N    0.143    27 N    0.142
    24   7 N    3.323 --    22 C    1.209    26 H    0.946    25 H    0.943
                            23 O    0.143
    25   1 H    0.960 --    24 N    0.943
    26   1 H    0.964 --    24 N    0.946
    27   7 N    3.324 --    22 C    1.211    28 H    0.946    29 H    0.942
                            23 O    0.142
    28   1 H    0.964 --    27 N    0.946
    29   1 H    0.959 --    27 N    0.942
    30   6 C    3.959 --    31 O    1.508    35 N    1.249    32 N    1.193
    31   8 O    1.891 --    30 C    1.508    35 N    0.146    32 N    0.134
    32   7 N    3.308 --    30 C    1.193    34 H    0.949    33 H    0.945
                            31 O    0.134
    33   1 H    0.962 --    32 N    0.945
    34   1 H    0.967 --    32 N    0.949
    35   7 N    3.336 --    30 C    1.249    36 H    0.951    37 H    0.867
                            31 O    0.146
    36   1 H    0.970 --    35 N    0.951
    37   1 H    0.941 --    35 N    0.867
    38   6 C    3.961 --    39 O    1.442    40 N    1.267    43 N    1.246
    39   8 O    1.920 --    38 C    1.442    40 N    0.133    43 N    0.128
    40   7 N    3.357 --    38 C    1.267    41 H    0.933    42 H    0.902
                            39 O    0.133
    41   1 H    0.956 --    40 N    0.933
    42   1 H    0.948 --    40 N    0.902
    43   7 N    3.344 --    38 C    1.246    45 H    0.944    44 H    0.912
                            39 O    0.128
    44   1 H    0.949 --    43 N    0.912
    45   1 H    0.964 --    43 N    0.944
    46   6 C    3.959 --    47 O    1.537    51 N    1.219    48 N    1.196
    47   8 O    1.905 --    46 C    1.537    51 N    0.146    48 N    0.139
    48   7 N    3.311 --    46 C    1.196    50 H    0.949    49 H    0.943
                            47 O    0.139
    49   1 H    0.960 --    48 N    0.943
    50   1 H    0.968 --    48 N    0.949
    51   7 N    3.319 --    46 C    1.219    52 H    0.951    53 H    0.904
                            47 O    0.146
    52   1 H    0.970 --    51 N    0.951
    53   1 H    0.947 --    51 N    0.904
 ---------------------------------------------------------------------------

Topologies differ in total number of bonds
Writing topology from bond orders to xtbtopo.mol

molecular dipole:
                 x           y           z       tot (Debye)
 q only:        0.885       0.303      -0.217
   full:        1.443       0.883      -0.773       4.727
molecular quadrupole (traceless):
                xx          xy          yy          xz          yz          zz
 q only:       37.055     -28.515     -28.288     -49.752       0.204      -8.768
  q+dip:       42.004     -35.144     -30.390     -53.495       1.166     -11.614
   full:       41.489     -35.156     -30.731     -53.558       1.784     -10.758

           -------------------------------------------------
          |               Frequency Printout                |
           -------------------------------------------------
 projected vibrational frequencies (cm⁻¹)
eigval :       -0.00    -0.00    -0.00    -0.00     0.00     0.00
eigval :        4.60     7.29    15.46    20.24    23.41    30.04
eigval :       31.42    39.16    42.77    43.43    51.34    59.01
eigval :       64.35    68.32    76.38    89.35   105.33   110.04
eigval :      117.81   123.74   129.14   135.93   149.50   175.85
eigval :      196.67   229.81   243.73   245.24   261.45   287.39
eigval :      293.87   309.37   317.75   350.83   354.05   357.27
eigval :      374.07   377.10   404.73   432.75   444.79   457.98
eigval :      463.21   469.38   470.63   473.88   477.90   481.21
eigval :      484.32   502.52   516.20   533.75   543.18   548.01
eigval :      566.53   572.73   586.38   644.32   645.72   670.62
eigval :      675.95   677.76   681.94   745.86   766.30   845.42
eigval :      898.84   928.10   949.90   962.47   964.43   997.44
eigval :      998.58   999.45  1000.75  1008.84  1010.93  1029.10
eigval :     1033.05  1038.42  1042.44  1083.51  1086.61  1089.77
eigval :     1099.67  1104.45  1114.09  1135.16  1169.86  1228.39
eigval :     1250.85  1277.73  1308.44  1334.19  1344.38  1347.61
eigval :     1353.64  1355.49  1366.83  1402.20  1406.63  1411.16
eigval :     1428.01  1432.43  1440.20  1446.48  1449.45  1453.45
eigval :     1457.55  1460.31  1461.78  1469.26  1472.73  1484.65
eigval :     1493.36  1497.99  1498.88  1505.48  1534.00  1658.04
eigval :     1705.47  1718.75  1721.71  2869.82  2967.77  2986.36
eigval :     2988.99  3001.89  3008.66  3036.23  3038.28  3043.36
eigval :     3044.97  3046.63  3055.25  3057.72  3067.90  3180.81
eigval :     3370.47  3378.26  3430.12  3495.47  3496.55  3500.37
eigval :     3500.67  3522.26  3530.58  3531.16  3557.07  3559.67
eigval :     3560.94  3565.20  3566.11
 reduced masses (amu)
   1: 12.53   2: 12.52   3: 12.19   4: 12.72   5: 12.53   6: 12.64   7: 12.08   8: 11.70
   9: 12.04  10: 12.41  11: 11.91  12: 11.82  13: 12.29  14: 12.28  15: 12.07  16: 13.31
  17: 13.30  18: 12.65  19: 12.41  20: 12.10  21: 12.71  22: 13.31  23: 12.96  24: 12.51
  25: 12.46  26: 12.26  27: 12.74  28: 12.77  29: 12.27  30: 12.64  31:  9.02  32:  3.57
  33:  5.00  34:  8.62  35:  6.30  36:  3.73  37:  2.69  38:  5.43  39:  6.17  40:  6.27
  41:  3.85  42:  3.04  43:  6.30  44:  3.34  45:  3.15  46:  8.79  47:  1.59  48:  8.59
  49:  7.57  50:  3.33  51:  6.26  52:  4.30  53:  5.16  54:  6.51  55:  7.17  56:  3.48
  57:  8.59  58:  9.81  59: 11.24  60: 11.44  61:  8.54  62: 10.52  63:  2.83  64:  3.02
  65:  4.61  66: 11.58  67: 11.56  68: 11.71  69:  8.74  70:  1.61  71:  9.37  72:  2.11
  73:  6.96  74:  8.27  75:  5.17  76:  4.90  77:  4.90  78:  8.27  79:  6.13  80:  8.77
  81:  7.46  82:  7.51  83:  9.10  84:  8.06  85:  8.46  86:  3.92  87:  4.79  88:  9.65
  89:  8.87  90:  8.83  91:  6.51  92:  5.16  93:  7.96  94:  8.62  95:  2.91  96:  5.74
  97:  6.44  98:  7.98  99:  6.39 100:  3.17 101:  3.90 102:  4.55 103:  6.22 104:  5.90
 105:  5.73 106:  2.54 107:  2.60 108:  2.71 109:  1.95 110:  1.95 111:  2.18 112:  1.66
 113:  3.10 114:  1.87 115:  3.03 116:  2.86 117:  2.84 118:  1.77 119:  1.72 120:  2.09
 121:  1.88 122:  8.11 123:  7.08 124:  8.52 125: 10.29 126: 12.53 127: 12.74 128: 12.81
 129: 12.81 130:  1.75 131:  1.69 132:  1.85 133:  1.66 134:  1.90 135:  1.77 136:  1.76
 137:  1.75 138:  1.70 139:  1.71 140:  1.59 141:  1.72 142:  1.76 143:  1.83 144:  1.80
 145:  1.65 146:  1.69 147:  1.62 148:  1.45 149:  1.44 150:  1.45 151:  1.46 152:  2.02
 153:  1.96 154:  1.90 155:  2.04 156:  2.19 157:  2.18 158:  2.18 159:  2.18
 IR intensities (km·mol⁻¹)
   1:  1.40   2:  1.79   3:  0.99   4:  1.91   5:  1.87   6:  1.07   7:  0.25   8:  0.67
   9:  2.29  10:  4.28  11:  0.90  12:  0.13  13:  0.10  14:  2.39  15:  1.76  16:  3.19
  17:  0.22  18:  2.14  19:  2.99  20:  7.25  21:  0.82  22:  9.47  23:  1.96  24: 14.36
  25:  4.21  26:  5.65  27: 10.01  28: 17.70  29: 26.19  30: 10.95  31:  8.28  32:122.68
  33:  6.65  34: 23.69  35:  2.34  36: 18.93  37:133.78  38:  2.64  39:  0.35  40: 22.87
  41:423.59  42: 12.51  43: 25.67  44:198.71  45:277.36  46:  1.22  47:  5.97  48:  5.51
  49: 16.74  50:  3.02  51: 14.37  52:198.10  53:123.64  54:  3.14  55: 67.13  56:123.59
  57: 83.18  58: 53.63  59: 32.59  60: 37.62  61: 18.24  62: 40.22  63:  7.68  64: 90.54
  65:126.00  66: 26.23  67: 14.72  68:110.53  69:113.36  70:160.79  71:  3.37  72:231.73
  73:  2.84  74:  4.28  75:  1.62  76:  0.12  77:  0.08  78:  1.98  79:  8.12  80:  9.74
  81: 26.10  82: 26.92  83: 22.94  84: 14.12  85:  7.45  86:  2.33  87: 16.95  88:  0.50
  89:  5.33  90:  0.47  91: 13.49  92: 18.74  93:  0.71  94: 55.99  95: 15.26  96:  5.22
  97:  8.74  98:  6.63  99:  1.29 100:  8.12 101: 53.09 102: 25.04 103:121.62 104: 63.93
 105:112.66 106:  3.37 107: 13.57 108:122.73 109: 13.78 110:  9.97 111: 14.08 112:  1.79
 113: 32.26 114: 13.39 115: 11.70 116: 42.46 117: 17.60 118: 25.44 119: 16.59 120: 55.42
 121: 23.86 122:278.34 123:679.10 124:677.67 125:521.10 126:****** 127:875.07 128:668.05
 129:485.79 130: 44.80 131:302.84 132:126.95 133:216.23 134:576.68 135: 79.40 136: 21.41
 137: 28.72 138: 36.12 139: 10.29 140: 18.43 141:  8.00 142: 23.90 143: 17.94 144:******
 145:194.26 146:388.18 147:345.41 148: 18.44 149: 40.67 150: 15.89 151:  5.81 152: 97.79
 153: 14.10 154:  8.91 155: 45.51 156: 14.82 157: 10.80 158: 18.77 159:  9.99
 Raman intensities (amu)
Molecule has no symmetry elements
It seems to be the C1 point group
   1:  0.00   2:  0.00   3:  0.00   4:  0.00   5:  0.00   6:  0.00   7:  0.00   8:  0.00
   9:  0.00  10:  0.00  11:  0.00  12:  0.00  13:  0.00  14:  0.00  15:  0.00  16:  0.00
  17:  0.00  18:  0.00  19:  0.00  20:  0.00  21:  0.00  22:  0.00  23:  0.00  24:  0.00
  25:  0.00  26:  0.00  27:  0.00  28:  0.00  29:  0.00  30:  0.00  31:  0.00  32:  0.00
  33:  0.00  34:  0.00  35:  0.00  36:  0.00  37:  0.00  38:  0.00  39:  0.00  40:  0.00
  41:  0.00  42:  0.00  43:  0.00  44:  0.00  45:  0.00  46:  0.00  47:  0.00  48:  0.00
  49:  0.00  50:  0.00  51:  0.00  52:  0.00  53:  0.00  54:  0.00  55:  0.00  56:  0.00
  57:  0.00  58:  0.00  59:  0.00  60:  0.00  61:  0.00  62:  0.00  63:  0.00  64:  0.00
  65:  0.00  66:  0.00  67:  0.00  68:  0.00  69:  0.00  70:  0.00  71:  0.00  72:  0.00
  73:  0.00  74:  0.00  75:  0.00  76:  0.00  77:  0.00  78:  0.00  79:  0.00  80:  0.00
  81:  0.00  82:  0.00  83:  0.00  84:  0.00  85:  0.00  86:  0.00  87:  0.00  88:  0.00
  89:  0.00  90:  0.00  91:  0.00  92:  0.00  93:  0.00  94:  0.00  95:  0.00  96:  0.00
  97:  0.00  98:  0.00  99:  0.00 100:  0.00 101:  0.00 102:  0.00 103:  0.00 104:  0.00
 105:  0.00 106:  0.00 107:  0.00 108:  0.00 109:  0.00 110:  0.00 111:  0.00 112:  0.00
 113:  0.00 114:  0.00 115:  0.00 116:  0.00 117:  0.00 118:  0.00 119:  0.00 120:  0.00
 121:  0.00 122:  0.00 123:  0.00 124:  0.00 125:  0.00 126:  0.00 127:  0.00 128:  0.00
 129:  0.00 130:  0.00 131:  0.00 132:  0.00 133:  0.00 134:  0.00 135:  0.00 136:  0.00
 137:  0.00 138:  0.00 139:  0.00 140:  0.00 141:  0.00 142:  0.00 143:  0.00 144:  0.00
 145:  0.00 146:  0.00 147:  0.00 148:  0.00 149:  0.00 150:  0.00 151:  0.00 152:  0.00
 153:  0.00 154:  0.00 155:  0.00 156:  0.00 157:  0.00 158:  0.00 159:  0.00
 output can be read by thermo (or use thermo option).
 writing <g98.out> molden fake output.
 recommended (thermochemical) frequency scaling factor: 1.0
           -------------------------------------------------
          |             Thermodynamic Functions             |
           -------------------------------------------------

c1  symmetry found (for desy threshold:  0.10E+00) used in thermo

          ...................................................
          :                      SETUP                      :
          :.................................................:
          :  # frequencies                         153      :
          :  # imaginary freq.                       0      :
          :  linear?                             false      :
          :  only rotor calc.                    false      :
          :  symmetry                               c1      :
          :  rotational number                       1      :
          :  scaling factor                  1.0000000      :
          :  rotor cutoff                   50.0000000 cm⁻¹ :
          :  imag. cutoff                  -20.0000000 cm⁻¹ :
          :.................................................:

    mode    ω/cm⁻¹     T·S(HO)/kcal·mol⁻¹    T·S(FR)/kcal·mol⁻¹   T·S(vib)
   ------------------------------------------------------------------------
       1      4.60    -2.84901 (  0.01%)    -1.76338 ( 99.99%)    -1.76346
       2      7.29    -2.57586 (  0.05%)    -1.62689 ( 99.95%)    -1.62731
       3     15.46    -2.13048 (  0.91%)    -1.40422 ( 99.09%)    -1.41080
       4     20.24    -1.97090 (  2.62%)    -1.32440 ( 97.38%)    -1.34131
       5     23.41    -1.88482 (  4.58%)    -1.28133 ( 95.42%)    -1.30899
       6     30.04    -1.73731 ( 11.52%)    -1.20748 ( 88.48%)    -1.26853
       7     31.42    -1.71070 ( 13.49%)    -1.19415 ( 86.51%)    -1.26383
       8     39.16    -1.58055 ( 27.34%)    -1.12893 ( 72.66%)    -1.25239
       9     42.77    -1.52841 ( 34.88%)    -1.10277 ( 65.12%)    -1.25122
      10     43.43    -1.51945 ( 36.27%)    -1.09827 ( 63.73%)    -1.25103
      11     51.34    -1.42069 ( 52.65%)    -1.04869 ( 47.35%)    -1.24453
      12     59.01    -1.33869 ( 65.99%)    -1.00744 ( 34.01%)    -1.22603
      13     64.35    -1.28771 ( 73.29%)    -0.98177 ( 26.71%)    -1.20600
      14     68.32    -1.25262 ( 77.70%)    -0.96407 ( 22.30%)    -1.18828
      15     76.38    -1.18717 ( 84.49%)    -0.93102 ( 15.51%)    -1.14743
      16     89.35    -1.09549 ( 91.07%)    -0.88457 (  8.93%)    -1.07665
      17    105.33    -0.99979 ( 95.17%)    -0.83583 (  4.83%)    -0.99186
      18    110.04    -0.97443 ( 95.91%)    -0.82287 (  4.09%)    -0.96824
      19    117.81    -0.93500 ( 96.86%)    -0.80265 (  3.14%)    -0.93084
      20    123.74    -0.90673 ( 97.40%)    -0.78811 (  2.60%)    -0.90365
      21    129.14    -0.88218 ( 97.80%)    -0.77545 (  2.20%)    -0.87983
      22    135.93    -0.85280 ( 98.20%)    -0.76026 (  1.80%)    -0.85114
      23    149.50    -0.79863 ( 98.76%)    -0.73208 (  1.24%)    -0.79781
      24    175.85    -0.70721 ( 99.35%)    -0.68398 (  0.65%)    -0.70706
      25    196.67    -0.64521 ( 99.58%)    -0.65084 (  0.42%)    -0.64523
      26    229.81    -0.56066 ( 99.78%)    -0.60471 (  0.22%)    -0.56075
      27    243.73    -0.52935 ( 99.82%)    -0.58728 (  0.18%)    -0.52946
      28    245.24    -0.52609 ( 99.83%)    -0.58545 (  0.17%)    -0.52619
      29    261.45    -0.49255 ( 99.87%)    -0.56649 (  0.13%)    -0.49265
      30    287.39    -0.44403 ( 99.91%)    -0.53847 (  0.09%)    -0.44411
      31    293.87    -0.43278 ( 99.92%)    -0.53187 (  0.08%)    -0.43286
   ------------------------------------------------------------------------

   temp. (K)  partition function   enthalpy   heat capacity  entropy
                                   cal/mol     cal/K/mol   cal/K/mol   J/K/mol
 298.15  VIB  0.101E+20            19708.110    102.681    132.048
         ROT  0.198E+08              888.752      2.981     36.371
         INT  0.201E+27            20596.862    105.662    168.419
         TR   0.618E+28             1481.254      4.968     43.384
         TOT                       22078.1161   110.6302   211.8036   886.1863

       T/K    H(0)-H(T)+PV         H(T)/Eh          T*S/Eh         G(T)/Eh
   ------------------------------------------------------------------------
    298.15    0.351837E-01    0.473912E+00    0.100635E+00    0.373277E+00
   ------------------------------------------------------------------------

         :::::::::::::::::::::::::::::::::::::::::::::::::::::
         ::                  THERMODYNAMIC                  ::
         :::::::::::::::::::::::::::::::::::::::::::::::::::::
         :: total free energy         -80.558305040863 Eh   ::
         ::.................................................::
         :: total energy              -80.931582094349 Eh   ::
         :: zero point energy           0.438728060113 Eh   ::
         :: G(RRHO) w/o ZPVE           -0.065451006627 Eh   ::
         :: G(RRHO) contrib.            0.373277053486 Eh   ::
         :::::::::::::::::::::::::::::::::::::::::::::::::::::

           -------------------------------------------------
          | TOTAL ENERGY              -80.931582094349 Eh   |
          | TOTAL ENTHALPY            -80.457670316689 Eh   |
          | TOTAL FREE ENERGY         -80.558305040863 Eh   |
          | GRADIENT NORM               0.000175377884 Eh/α |
          | HOMO-LUMO GAP               5.645783390102 eV   |
           -------------------------------------------------

------------------------------------------------------------------------
 * finished run on 2024/01/10 at 18:30:49.259     
------------------------------------------------------------------------
 total:
 * wall-time:     0 d,  0 h,  0 min, 13.864 sec
 *  cpu-time:     0 d,  0 h,  0 min, 13.799 sec
 * ratio c/w:     0.995 speedup
 SCF:
 * wall-time:     0 d,  0 h,  0 min,  0.097 sec
 *  cpu-time:     0 d,  0 h,  0 min,  0.057 sec
 * ratio c/w:     0.593 speedup
 analytical hessian:
 * wall-time:     0 d,  0 h,  0 min, 13.741 sec
 *  cpu-time:     0 d,  0 h,  0 min, 13.715 sec
 * ratio c/w:     0.998 speedup

