      -----------------------------------------------------------      
     |                   =====================                   |     
     |                           x T B                           |     
     |                   =====================                   |     
     |                         S. Grimme                         |     
     |          Mulliken Center for Theoretical Chemistry        |     
     |                    University of Bonn                     |     
      -----------------------------------------------------------      

   * xtb version 6.6.1 (unknown-commit) compiled by '@Linux' on 12/27/2023

   xtb is free software: you can redistribute it and/or modify it under
   the terms of the GNU Lesser General Public License as published by
   the Free Software Foundation, either version 3 of the License, or
   (at your option) any later version.
   
   xtb is distributed in the hope that it will be useful,
   but WITHOUT ANY WARRANTY; without even the implied warranty of
   MERCHANTABILITY or FITNESS FOR A PARTICULAR PURPOSE.  See the
   GNU Lesser General Public License for more details.
   
   Cite this work as:
   * C. Bannwarth, E. Caldeweyher, S. Ehlert, A. Hansen, P. Pracht,
     J. Seibert, S. Spicher, S. Grimme, WIREs Comput. Mol. Sci., 2020, 11,
     e01493. DOI: 10.1002/wcms.1493
   
   for GFN2-xTB:
   * C. Bannwarth, S. Ehlert and S. Grimme., J. Chem. Theory Comput., 2019,
     15, 1652-1671. DOI: 10.1021/acs.jctc.8b01176
   for GFN1-xTB:
   * S. Grimme, C. Bannwarth, P. Shushkov, J. Chem. Theory Comput., 2017,
     13, 1989-2009. DOI: 10.1021/acs.jctc.7b00118
   for GFN0-xTB:
   * P. Pracht, E. Caldeweyher, S. Ehlert, S. Grimme, ChemRxiv, 2019, preprint.
     DOI: 10.26434/chemrxiv.8326202.v1
   for GFN-FF:
   * S. Spicher and S. Grimme, Angew. Chem. Int. Ed., 2020, 59, 15665-15673.
     DOI: 10.1002/anie.202004239
   
   for ALPB and GBSA implicit solvation:
   * S. Ehlert, M. Stahn, S. Spicher, S. Grimme, J. Chem. Theory Comput.,
     2021, 17, 4250-4261. DOI: 10.1021/acs.jctc.1c00471
   
   for DFT-D4:
   * E. Caldeweyher, C. Bannwarth and S. Grimme, J. Chem. Phys., 2017,
     147, 034112. DOI: 10.1063/1.4993215
   * E. Caldeweyher, S. Ehlert, A. Hansen, H. Neugebauer, S. Spicher,
     C. Bannwarth and S. Grimme, J. Chem. Phys., 2019, 150, 154122.
     DOI: 10.1063/1.5090222
   * E. Caldeweyher, J.-M. Mewes, S. Ehlert and S. Grimme, Phys. Chem. Chem. Phys.
     2020, 22, 8499-8512. DOI: 10.1039/D0CP00502A
   
   for sTDA-xTB:
   * S. Grimme and C. Bannwarth, J. Chem. Phys., 2016, 145, 054103.
     DOI: 10.1063/1.4959605
   
   in the mass-spec context:
   * V. Asgeirsson, C. Bauer and S. Grimme, Chem. Sci., 2017, 8, 4879.
     DOI: 10.1039/c7sc00601b
   * J. Koopman and S. Grimme, ACS Omega 2019, 4, 12, 15120-15133.
     DOI: 10.1021/acsomega.9b02011
   
   for metadynamics refer to:
   * S. Grimme, J. Chem. Theory Comput., 2019, 155, 2847-2862
     DOI: 10.1021/acs.jctc.9b00143
   
   for SPH calculations refer to:
   * S. Spicher and S. Grimme, J. Chem. Theory Comput., 2021, 17, 1701-1714
     DOI: 10.1021/acs.jctc.0c01306
   
   with help from (in alphabetical order)
   P. Atkinson, C. Bannwarth, F. Bohle, G. Brandenburg, E. Caldeweyher
   M. Checinski, S. Dohm, S. Ehlert, S. Ehrlich, I. Gerasimov, C. Hölzer
   A. Katbashev, J. Koopman, C. Lavigne, S. Lehtola, F. März, M. Müller,
   F. Musil, H. Neugebauer, J. Pisarek, C. Plett, P. Pracht, F. Pultar,
   J. Seibert, P. Shushkov, S. Spicher, M. Stahn, M. Steiner, T. Strunk,
   J. Stückrath, T. Rose, and J. Unsleber
   
 * started run on 2024/01/10 at 18:27:39.580     

           -------------------------------------------------
          |                Calculation Setup                |
           -------------------------------------------------

          program call               : xtb struc.xyz --gfn2 --hess
          hostname                   : swaroop
          coordinate file            : struc.xyz
          omp threads                :                     1

   ID    Z sym.   atoms
    1    8 O      1, 23, 31, 39, 47
    2    6 C      2, 5, 9, 13, 17, 22, 30, 38, 46
    3    1 H      3, 4, 6, 7, 10-12, 14-16, 18-21, 25, 26, 28, 29, 33, 34,
                  36, 37, 41, 42, 44, 45, 49, 50, 52, 53
    4    7 N      8, 24, 27, 32, 35, 40, 43, 48, 51

molecular fragmentation (1/2 indicates fragments):
11111111111111111111122222222222222222222222222222222
# atoms in fragment 1/2:    21    32
 fragment masses (1/2) :      104.17      240.22
CMA distance (Bohr)    :   3.470
constraining FC (au)   :  0.0500

           -------------------------------------------------
          |                 G F N 2 - x T B                 |
           -------------------------------------------------

        Reference                      10.1021/acs.jctc.8b01176
      * Hamiltonian:
        H0-scaling (s, p, d)           1.850000    2.230000    2.230000
        zeta-weighting                 0.500000
      * Dispersion:
        s8                             2.700000
        a1                             0.520000
        a2                             5.000000
        s9                             5.000000
      * Repulsion:
        kExp                           1.500000    1.000000
        rExp                           1.000000
      * Coulomb:
        alpha                          2.000000
        third order                    shell-resolved
        anisotropic                    true
        a3                             3.000000
        a5                             4.000000
        cn-shift                       1.200000
        cn-exp                         4.000000
        max-rad                        5.000000


          ...................................................
          :                      SETUP                      :
          :.................................................:
          :  # basis functions                 122          :
          :  # atomic orbitals                 122          :
          :  # shells                           76          :
          :  # electrons                       140          :
          :  max. iterations                   250          :
          :  Hamiltonian                  GFN2-xTB          :
          :  restarted?                      false          :
          :  GBSA solvation                  false          :
          :  PC potential                    false          :
          :  electronic temp.          300.0000000     K    :
          :  accuracy                    1.0000000          :
          :  -> integral cutoff          0.2500000E+02      :
          :  -> integral neglect         0.1000000E-07      :
          :  -> SCF convergence          0.1000000E-05 Eh   :
          :  -> wf. convergence          0.1000000E-03 e    :
          :  Broyden damping             0.4000000          :
          ...................................................

 iter      E             dE          RMSdq      gap      omega  full diag
   1    -81.5537201 -0.815537E+02  0.436E+00    5.18       0.0  T
   2    -81.8382539 -0.284534E+00  0.238E+00    6.03       1.0  T
   3    -81.8440087 -0.575484E-02  0.115E+00    5.83       1.0  T
   4    -81.8454363 -0.142762E-02  0.244E-01    5.95       1.0  T
   5    -81.8463519 -0.915596E-03  0.927E-02    5.87       1.0  T
   6    -81.8463773 -0.253924E-04  0.262E-02    5.87       1.0  T
   7    -81.8463816 -0.430589E-05  0.770E-03    5.86       1.8  T
   8    -81.8463819 -0.284220E-06  0.266E-03    5.86       5.2  T
   9    -81.8463819 -0.137305E-07  0.866E-04    5.86      15.9  T
  10    -81.8463819 -0.468417E-08  0.180E-04    5.86      76.1  T

   *** convergence criteria satisfied after 10 iterations ***

         #    Occupation            Energy/Eh            Energy/eV
      -------------------------------------------------------------
         1        2.0000           -0.7946239             -21.6228
       ...           ...                  ...                  ...
        64        2.0000           -0.4946164             -13.4592
        65        2.0000           -0.4940856             -13.4448
        66        2.0000           -0.4932086             -13.4209
        67        2.0000           -0.4904271             -13.3452
        68        2.0000           -0.4884266             -13.2908
        69        2.0000           -0.4845629             -13.1856
        70        2.0000           -0.4836681             -13.1613 (HOMO)
        71                         -0.2683237              -7.3015 (LUMO)
        72                         -0.2651961              -7.2164
        73                         -0.2622936              -7.1374
        74                         -0.2587053              -7.0397
        75                         -0.1513122              -4.1174
       ...                                ...                  ...
       122                          0.5550809              15.1045
      -------------------------------------------------------------
                  HL-Gap            0.2153444 Eh            5.8598 eV
             Fermi-level           -0.3759959 Eh          -10.2314 eV

 SCC (total)                   0 d,  0 h,  0 min,  0.097 sec
 SCC setup                      ...        0 min,  0.000 sec (  0.300%)
 Dispersion                     ...        0 min,  0.001 sec (  0.604%)
 classical contributions        ...        0 min,  0.000 sec (  0.188%)
 integral evaluation            ...        0 min,  0.008 sec (  8.027%)
 iterations                     ...        0 min,  0.060 sec ( 62.053%)
 molecular gradient             ...        0 min,  0.028 sec ( 28.561%)
 printout                       ...        0 min,  0.000 sec (  0.255%)

         :::::::::::::::::::::::::::::::::::::::::::::::::::::
         ::                     SUMMARY                     ::
         :::::::::::::::::::::::::::::::::::::::::::::::::::::
         :: total energy             -80.934396611703 Eh    ::
         :: gradient norm              0.000048908990 Eh/a0 ::
         :: HOMO-LUMO gap              5.859819831620 eV    ::
         ::.................................................::
         :: SCC energy               -81.846381938675 Eh    ::
         :: -> isotropic ES            0.292481255505 Eh    ::
         :: -> anisotropic ES         -0.028389866215 Eh    ::
         :: -> anisotropic XC          0.019975434350 Eh    ::
         :: -> dispersion             -0.044760961230 Eh    ::
         :: repulsion energy           0.910958376870 Eh    ::
         :: add. restraining           0.000000000000 Eh    ::
         :: total charge               1.000000000000 e     ::
         :::::::::::::::::::::::::::::::::::::::::::::::::::::

           ------------------------------------------------- 
          |                Numerical Hessian                |
           ------------------------------------------------- 
step length          :   0.00500
SCC accuracy         :   0.30000
Hessian scale factor :   1.00000
frozen atoms in %    :   0.00000    0
RMS gradient         :   0.00005
estimated CPU  time      0.24 min
estimated wall time      0.24 min

writing file <hessian>.

 projected vibrational frequencies (cm⁻¹)
eigval :       -0.00    -0.00     0.00     0.00     0.00     0.00
eigval :      -12.21    17.64    19.86    33.69    39.79    40.44
eigval :       44.88    45.71    49.04    57.04    57.85    69.93
eigval :       74.32    90.67    94.21    97.80   101.06   117.11
eigval :      120.15   123.96   146.91   150.07   163.99   169.93
eigval :      175.51   204.18   219.05   231.09   282.08   300.51
eigval :      310.83   321.79   324.50   343.12   362.52   376.15
eigval :      379.40   403.55   417.41   423.92   442.71   454.96
eigval :      463.25   465.03   469.85   471.19   478.12   486.97
eigval :      492.20   503.18   507.40   529.30   550.84   555.35
eigval :      564.46   575.12   598.14   648.88   669.05   674.29
eigval :      678.09   683.08   704.27   745.04   769.85   782.38
eigval :      883.95   928.86   945.15   964.34   970.76   990.85
eigval :      995.14  1006.22  1013.60  1020.21  1024.15  1029.43
eigval :     1034.64  1042.78  1053.21  1080.97  1088.29  1089.16
eigval :     1097.43  1099.67  1120.88  1137.44  1187.12  1234.08
eigval :     1261.68  1283.92  1303.04  1317.11  1340.92  1351.01
eigval :     1352.60  1366.68  1372.12  1390.10  1399.14  1403.77
eigval :     1429.45  1436.08  1441.64  1444.09  1448.95  1450.98
eigval :     1455.76  1456.21  1456.59  1471.47  1474.70  1477.88
eigval :     1493.40  1498.16  1508.37  1514.86  1521.37  1648.18
eigval :     1677.61  1697.58  1724.45  2867.32  2950.94  2992.47
eigval :     3008.34  3029.49  3035.24  3039.03  3041.68  3043.28
eigval :     3049.70  3060.75  3063.43  3067.79  3140.26  3176.02
eigval :     3241.64  3292.78  3315.65  3495.04  3500.61  3501.16
eigval :     3505.47  3520.50  3533.27  3539.20  3542.23  3559.43
eigval :     3565.65  3568.27  3571.12
           -------------------------------------------------
          |                Property Printout                |
           -------------------------------------------------

    * Orbital Energies and Occupations

         #    Occupation            Energy/Eh            Energy/eV
      -------------------------------------------------------------
         1        2.0000           -0.7946244             -21.6228
       ...           ...                  ...                  ...
        58        2.0000           -0.5060102             -13.7692
        59        2.0000           -0.5028251             -13.6826
        60        2.0000           -0.5019505             -13.6588
        61        2.0000           -0.4992253             -13.5846
        62        2.0000           -0.4985606             -13.5665
        63        2.0000           -0.4973991             -13.5349
        64        2.0000           -0.4946166             -13.4592
        65        2.0000           -0.4940853             -13.4447
        66        2.0000           -0.4932091             -13.4209
        67        2.0000           -0.4904275             -13.3452
        68        2.0000           -0.4884268             -13.2908
        69        2.0000           -0.4845630             -13.1856
        70        2.0000           -0.4836681             -13.1613 (HOMO)
        71                         -0.2683263              -7.3015 (LUMO)
        72                         -0.2651973              -7.2164
        73                         -0.2622936              -7.1374
        74                         -0.2587050              -7.0397
        75                         -0.1513127              -4.1174
        76                         -0.0991427              -2.6978
        77                         -0.0982970              -2.6748
        78                         -0.0814742              -2.2170
        79                         -0.0790472              -2.1510
        80                         -0.0736741              -2.0048
        81                         -0.0666907              -1.8147
       ...                                ...                  ...
       122                          0.5550810              15.1045
      -------------------------------------------------------------
                  HL-Gap            0.2153418 Eh            5.8597 eV
             Fermi-level           -0.3759972 Eh          -10.2314 eV

     #   Z          covCN         q      C6AA      α(0)
     1   8 O        1.654    -0.472    22.294     6.374
     2   6 C        3.672     0.077    19.530     6.334
     3   1 H        0.923     0.033     2.543     2.494
     4   1 H        0.924     0.055     2.255     2.348
     5   6 C        3.763    -0.053    21.570     6.620
     6   1 H        0.924     0.120     1.615     1.987
     7   1 H        0.924     0.069     2.098     2.265
     8   7 N        3.624     0.160    18.548     6.397
     9   6 C        3.732    -0.122    22.928     6.835
    10   1 H        0.925     0.106     1.732     2.058
    11   1 H        0.925     0.112     1.677     2.025
    12   1 H        0.925     0.115     1.652     2.010
    13   6 C        3.735    -0.116    22.803     6.815
    14   1 H        0.925     0.116     1.650     2.008
    15   1 H        0.925     0.075     2.033     2.230
    16   1 H        0.925     0.121     1.608     1.983
    17   6 C        3.723    -0.107    22.655     6.797
    18   1 H        0.925     0.078     2.004     2.214
    19   1 H        0.925     0.103     1.762     2.076
    20   1 H        0.925     0.122     1.595     1.975
    21   1 H        0.803     0.339     0.616     1.233
    22   6 C        2.675     0.340    21.222     7.538
    23   8 O        0.861    -0.541    24.711     6.665
    24   7 N        2.644    -0.294    27.591     7.801
    25   1 H        0.860     0.198     1.118     1.656
    26   1 H        0.860     0.182     1.200     1.716
    27   7 N        2.644    -0.308    27.933     7.849
    28   1 H        0.861     0.177     1.230     1.737
    29   1 H        0.859     0.246     0.900     1.486
    30   6 C        2.675     0.346    21.127     7.521
    31   8 O        0.860    -0.522    24.276     6.606
    32   7 N        2.646    -0.289    27.444     7.780
    33   1 H        0.860     0.199     1.110     1.650
    34   1 H        0.861     0.186     1.178     1.700
    35   7 N        2.646    -0.289    27.451     7.781
    36   1 H        0.861     0.186     1.178     1.700
    37   1 H        0.860     0.199     1.110     1.651
    38   6 C        2.675     0.345    21.135     7.523
    39   8 O        0.860    -0.529    24.443     6.629
    40   7 N        2.644    -0.306    27.871     7.841
    41   1 H        0.860     0.232     0.958     1.533
    42   1 H        0.861     0.177     1.233     1.739
    43   7 N        2.643    -0.302    27.786     7.829
    44   1 H        0.860     0.178     1.225     1.734
    45   1 H        0.860     0.237     0.936     1.515
    46   6 C        2.675     0.343    21.182     7.531
    47   8 O        0.861    -0.530    24.448     6.629
    48   7 N        2.644    -0.287    27.397     7.774
    49   1 H        0.860     0.204     1.087     1.633
    50   1 H        0.861     0.184     1.192     1.710
    51   7 N        2.643    -0.314    28.076     7.869
    52   1 H        0.861     0.176     1.238     1.743
    53   1 H        0.859     0.245     0.904     1.489

 Mol. C6AA /au·bohr⁶  :      21809.095279
 Mol. C8AA /au·bohr⁸  :     454467.093755
 Mol. α(0) /au        :        220.638454


Wiberg/Mayer (AO) data.
largest (>0.10) Wiberg bond orders for each atom

 ---------------------------------------------------------------------------
     #   Z sym  total        # sym  WBO       # sym  WBO       # sym  WBO
 ---------------------------------------------------------------------------
     1   8 O    1.937 --     2 C    1.015    21 H    0.823
     2   6 C    3.967 --     1 O    1.015     5 C    0.998     3 H    0.964
                             4 H    0.964
     3   1 H    0.999 --     2 C    0.964
     4   1 H    0.997 --     2 C    0.964
     5   6 C    3.938 --     2 C    0.998     7 H    0.970     6 H    0.952
                             8 N    0.939
     6   1 H    0.986 --     5 C    0.952
     7   1 H    0.995 --     5 C    0.970
     8   7 N    3.823 --    17 C    0.960    13 C    0.956     9 C    0.951
                             5 C    0.939
     9   6 C    3.912 --    10 H    0.970    11 H    0.966    12 H    0.965
                             8 N    0.951
    10   1 H    0.989 --     9 C    0.970
    11   1 H    0.987 --     9 C    0.966
    12   1 H    0.987 --     9 C    0.965
    13   6 C    3.921 --    15 H    0.979    16 H    0.963    14 H    0.963
                             8 N    0.956
    14   1 H    0.987 --    13 C    0.963
    15   1 H    0.994 --    13 C    0.979
    16   1 H    0.985 --    13 C    0.963
    17   6 C    3.927 --    18 H    0.979    19 H    0.974    20 H    0.961
                             8 N    0.960
    18   1 H    0.994 --    17 C    0.979
    19   1 H    0.989 --    17 C    0.974
    20   1 H    0.985 --    17 C    0.961
    21   1 H    0.885 --     1 O    0.823
    22   6 C    3.960 --    23 O    1.486    27 N    1.264    24 N    1.199
    23   8 O    1.883 --    22 C    1.486    27 N    0.147    24 N    0.128
    24   7 N    3.312 --    22 C    1.199    26 H    0.948    25 H    0.944
                            23 O    0.128
    25   1 H    0.961 --    24 N    0.944
    26   1 H    0.966 --    24 N    0.948
    27   7 N    3.349 --    22 C    1.264    28 H    0.949    29 H    0.863
                            23 O    0.147
    28   1 H    0.968 --    27 N    0.949
    29   1 H    0.940 --    27 N    0.863
    30   6 C    3.959 --    31 O    1.537    32 N    1.208    35 N    1.208
    31   8 O    1.894 --    30 C    1.537    35 N    0.143    32 N    0.143
    32   7 N    3.323 --    30 C    1.208    34 H    0.946    33 H    0.943
                            31 O    0.143
    33   1 H    0.960 --    32 N    0.943
    34   1 H    0.965 --    32 N    0.946
    35   7 N    3.324 --    30 C    1.208    36 H    0.947    37 H    0.943
                            31 O    0.143
    36   1 H    0.965 --    35 N    0.947
    37   1 H    0.960 --    35 N    0.943
    38   6 C    3.959 --    39 O    1.461    43 N    1.243    40 N    1.243
    39   8 O    1.935 --    38 C    1.461    40 N    0.133    43 N    0.128
    40   7 N    3.337 --    38 C    1.243    42 H    0.949    41 H    0.885
                            39 O    0.133
    41   1 H    0.946 --    40 N    0.885
    42   1 H    0.968 --    40 N    0.949
    43   7 N    3.325 --    38 C    1.243    44 H    0.949    45 H    0.882
                            39 O    0.128
    44   1 H    0.968 --    43 N    0.949
    45   1 H    0.944 --    43 N    0.882
    46   6 C    3.960 --    47 O    1.481    51 N    1.250    48 N    1.216
    47   8 O    1.909 --    46 C    1.481    51 N    0.142    48 N    0.130
    48   7 N    3.331 --    46 C    1.216    50 H    0.947    49 H    0.942
                            47 O    0.130
    49   1 H    0.958 --    48 N    0.942
    50   1 H    0.966 --    48 N    0.947
    51   7 N    3.333 --    46 C    1.250    52 H    0.949    53 H    0.865
                            47 O    0.142
    52   1 H    0.969 --    51 N    0.949
    53   1 H    0.940 --    51 N    0.865
 ---------------------------------------------------------------------------

Topologies differ in total number of bonds
Writing topology from bond orders to xtbtopo.mol

molecular dipole:
                 x           y           z       tot (Debye)
 q only:        1.662      -0.152       1.439
   full:        1.675      -0.345       1.239       5.367
molecular quadrupole (traceless):
                xx          xy          yy          xz          yz          zz
 q only:       15.807      31.362      -2.531      29.584      26.673     -13.276
  q+dip:       20.716      37.805      -2.932      33.050      32.728     -17.784
   full:       20.280      37.435      -2.835      33.068      32.291     -17.445

           -------------------------------------------------
          |               Frequency Printout                |
           -------------------------------------------------
 projected vibrational frequencies (cm⁻¹)
eigval :       -0.00    -0.00     0.00     0.00     0.00     0.00
eigval :      -12.21    17.64    19.86    33.69    39.79    40.44
eigval :       44.88    45.71    49.04    57.04    57.85    69.93
eigval :       74.32    90.67    94.21    97.80   101.06   117.11
eigval :      120.15   123.96   146.91   150.07   163.99   169.93
eigval :      175.51   204.18   219.05   231.09   282.08   300.51
eigval :      310.83   321.79   324.50   343.12   362.52   376.15
eigval :      379.40   403.55   417.41   423.92   442.71   454.96
eigval :      463.25   465.03   469.85   471.19   478.12   486.97
eigval :      492.20   503.18   507.40   529.30   550.84   555.35
eigval :      564.46   575.12   598.14   648.88   669.05   674.29
eigval :      678.09   683.08   704.27   745.04   769.85   782.38
eigval :      883.95   928.86   945.15   964.34   970.76   990.85
eigval :      995.14  1006.22  1013.60  1020.21  1024.15  1029.43
eigval :     1034.64  1042.78  1053.21  1080.97  1088.29  1089.16
eigval :     1097.43  1099.67  1120.88  1137.44  1187.12  1234.08
eigval :     1261.68  1283.92  1303.04  1317.11  1340.92  1351.01
eigval :     1352.60  1366.68  1372.12  1390.10  1399.14  1403.77
eigval :     1429.45  1436.08  1441.64  1444.09  1448.95  1450.98
eigval :     1455.76  1456.21  1456.59  1471.47  1474.70  1477.88
eigval :     1493.40  1498.16  1508.37  1514.86  1521.37  1648.18
eigval :     1677.61  1697.58  1724.45  2867.32  2950.94  2992.47
eigval :     3008.34  3029.49  3035.24  3039.03  3041.68  3043.28
eigval :     3049.70  3060.75  3063.43  3067.79  3140.26  3176.02
eigval :     3241.64  3292.78  3315.65  3495.04  3500.61  3501.16
eigval :     3505.47  3520.50  3533.27  3539.20  3542.23  3559.43
eigval :     3565.65  3568.27  3571.12
 reduced masses (amu)
   1: 12.70   2: 12.68   3: 12.54   4: 12.58   5: 12.36   6: 12.81   7: 11.01   8: 12.08
   9: 11.91  10: 12.04  11: 12.25  12: 12.58  13: 12.63  14: 11.67  15: 12.33  16: 11.92
  17: 12.67  18: 13.26  19: 12.10  20: 13.01  21: 13.29  22: 13.39  23: 12.69  24: 10.85
  25: 13.14  26: 12.80  27: 13.24  28: 13.20  29:  3.95  30: 12.71  31: 12.70  32:  2.46
  33: 12.33  34:  9.82  35:  6.28  36:  7.87  37:  2.15  38:  5.44  39:  3.85  40:  2.71
  41:  5.43  42:  1.85  43:  5.05  44:  3.36  45:  3.20  46:  8.35  47:  1.47  48:  8.44
  49:  6.80  50:  7.86  51:  7.87  52:  6.44  53:  6.41  54:  3.32  55:  1.80  56:  3.11
  57:  8.92  58:  9.76  59: 11.01  60: 11.51  61:  8.49  62: 11.12  63:  4.11  64:  4.01
  65: 10.62  66: 11.96  67: 11.31  68:  9.56  69:  2.52  70:  1.66  71:  8.90  72:  2.60
  73:  6.63  74:  8.56  75:  5.26  76:  5.14  77:  4.77  78:  4.45  79:  8.73  80:  7.61
  81:  7.71  82:  9.54  83:  9.48  84:  7.38  85: 10.18  86:  3.37  87:  4.77  88:  9.79
  89:  8.33  90:  8.29  91:  7.66  92:  6.91  93:  5.57  94:  7.72  95:  4.40  96:  4.84
  97:  5.11  98:  7.80  99:  6.34 100:  3.11 101:  4.17 102:  4.83 103:  5.91 104:  4.12
 105:  4.90 106:  4.56 107:  2.56 108:  2.58 109:  2.44 110:  1.79 111:  1.87 112:  3.22
 113:  2.31 114:  2.63 115:  3.38 116:  2.01 117:  2.95 118:  1.69 119:  1.63 120:  1.61
 121:  1.75 122:  8.19 123:  9.39 124:  9.28 125:  9.25 126: 12.09 127: 12.58 128: 12.64
 129: 12.84 130:  1.78 131:  1.64 132:  1.76 133:  1.75 134:  1.66 135:  1.61 136:  1.69
 137:  1.88 138:  1.56 139:  1.81 140:  1.81 141:  1.64 142:  1.94 143:  1.81 144:  1.81
 145:  1.89 146:  1.74 147:  1.77 148:  1.45 149:  1.44 150:  1.44 151:  1.46 152:  1.91
 153:  1.90 154:  1.90 155:  1.93 156:  2.17 157:  2.19 158:  2.19 159:  2.18
 IR intensities (km·mol⁻¹)
   1:  0.77   2:  2.55   3:  2.68   4:  1.26   5:  0.76   6:  1.21   7:  0.02   8:  1.29
   9:  2.73  10:  0.44  11:  0.88  12:  1.13  13:  1.15  14:  0.56  15:  2.06  16:  0.40
  17:  2.71  18:  5.86  19:  2.65  20:  6.58  21:  7.80  22:  1.91  23:  6.80  24:  5.71
  25: 26.89  26: 10.42  27: 33.33  28:  9.66  29:  5.59  30:  5.11  31: 13.13  32:159.59
  33: 87.46  34:  9.05  35:  3.51  36:  1.61  37: 84.10  38:103.25  39:429.84  40: 63.44
  41:  9.91  42:  2.47  43:  1.93  44: 16.44  45:487.66  46:  4.09  47:  3.54  48:  2.42
  49:  5.61  50:  1.04  51: 29.01  52: 42.31  53: 34.56  54:167.27  55:  8.01  56: 33.85
  57: 59.59  58: 32.11  59: 21.92  60: 15.71  61: 25.25  62: 77.08  63:233.90  64: 71.93
  65: 13.98  66: 35.53  67: 49.44  68: 90.77  69: 38.65  70: 36.77  71: 18.43  72:552.73
  73:  2.74  74:  8.76  75:  1.68  76:  7.72  77:  4.74  78:  4.15  79:  0.11  80: 20.49
  81: 22.89  82:  1.62  83:  4.45  84: 27.61  85:  3.87  86:  2.73  87:  3.87  88:  1.80
  89:  1.04  90:  1.95  91:  2.14  92: 19.59  93:  1.00  94: 29.82  95: 18.14  96:  5.43
  97:  0.85  98: 14.63  99:  5.00 100: 95.13 101:  3.44 102:317.53 103: 97.08 104: 36.73
 105: 17.00 106:  2.69 107: 25.08 108: 13.67 109:  1.98 110:  0.66 111:  2.50 112:  5.29
 113:  8.96 114: 17.05 115:  5.10 116: 13.63 117:  0.49 118: 12.61 119: 18.86 120: 20.10
 121:  9.58 122:479.60 123:943.06 124: 46.10 125:537.07 126:232.36 127:124.95 128:******
 129:646.87 130: 58.90 131: 14.36 132: 15.06 133:  5.76 134: 24.65 135:  8.99 136:  0.73
 137:  0.40 138: 28.25 139: 32.71 140:  2.20 141: 13.80 142:  3.50 143:****** 144:216.80
 145:428.81 146:****** 147:469.00 148: 17.25 149: 22.45 150: 38.10 151:  8.79 152: 11.71
 153: 12.78 154: 15.75 155: 20.43 156: 13.16 157: 13.58 158: 16.44 159: 11.68
 Raman intensities (amu)
Molecule has no symmetry elements
It seems to be the C1 point group
   1:  0.00   2:  0.00   3:  0.00   4:  0.00   5:  0.00   6:  0.00   7:  0.00   8:  0.00
   9:  0.00  10:  0.00  11:  0.00  12:  0.00  13:  0.00  14:  0.00  15:  0.00  16:  0.00
  17:  0.00  18:  0.00  19:  0.00  20:  0.00  21:  0.00  22:  0.00  23:  0.00  24:  0.00
  25:  0.00  26:  0.00  27:  0.00  28:  0.00  29:  0.00  30:  0.00  31:  0.00  32:  0.00
  33:  0.00  34:  0.00  35:  0.00  36:  0.00  37:  0.00  38:  0.00  39:  0.00  40:  0.00
  41:  0.00  42:  0.00  43:  0.00  44:  0.00  45:  0.00  46:  0.00  47:  0.00  48:  0.00
  49:  0.00  50:  0.00  51:  0.00  52:  0.00  53:  0.00  54:  0.00  55:  0.00  56:  0.00
  57:  0.00  58:  0.00  59:  0.00  60:  0.00  61:  0.00  62:  0.00  63:  0.00  64:  0.00
  65:  0.00  66:  0.00  67:  0.00  68:  0.00  69:  0.00  70:  0.00  71:  0.00  72:  0.00
  73:  0.00  74:  0.00  75:  0.00  76:  0.00  77:  0.00  78:  0.00  79:  0.00  80:  0.00
  81:  0.00  82:  0.00  83:  0.00  84:  0.00  85:  0.00  86:  0.00  87:  0.00  88:  0.00
  89:  0.00  90:  0.00  91:  0.00  92:  0.00  93:  0.00  94:  0.00  95:  0.00  96:  0.00
  97:  0.00  98:  0.00  99:  0.00 100:  0.00 101:  0.00 102:  0.00 103:  0.00 104:  0.00
 105:  0.00 106:  0.00 107:  0.00 108:  0.00 109:  0.00 110:  0.00 111:  0.00 112:  0.00
 113:  0.00 114:  0.00 115:  0.00 116:  0.00 117:  0.00 118:  0.00 119:  0.00 120:  0.00
 121:  0.00 122:  0.00 123:  0.00 124:  0.00 125:  0.00 126:  0.00 127:  0.00 128:  0.00
 129:  0.00 130:  0.00 131:  0.00 132:  0.00 133:  0.00 134:  0.00 135:  0.00 136:  0.00
 137:  0.00 138:  0.00 139:  0.00 140:  0.00 141:  0.00 142:  0.00 143:  0.00 144:  0.00
 145:  0.00 146:  0.00 147:  0.00 148:  0.00 149:  0.00 150:  0.00 151:  0.00 152:  0.00
 153:  0.00 154:  0.00 155:  0.00 156:  0.00 157:  0.00 158:  0.00 159:  0.00
 output can be read by thermo (or use thermo option).
 writing <g98.out> molden fake output.
 recommended (thermochemical) frequency scaling factor: 1.0
           -------------------------------------------------
          |             Thermodynamic Functions             |
           -------------------------------------------------

c1  symmetry found (for desy threshold:  0.10E+00) used in thermo
 inverting freq            1   12.212912263556518     

          ...................................................
          :                      SETUP                      :
          :.................................................:
          :  # frequencies                         153      :
          :  # imaginary freq.                       0      :
          :  linear?                             false      :
          :  only rotor calc.                    false      :
          :  symmetry                               c1      :
          :  rotational number                       1      :
          :  scaling factor                  1.0000000      :
          :  rotor cutoff                   50.0000000 cm⁻¹ :
          :  imag. cutoff                  -20.0000000 cm⁻¹ :
          :.................................................:

    mode    ω/cm⁻¹     T·S(HO)/kcal·mol⁻¹    T·S(FR)/kcal·mol⁻¹   T·S(vib)
   ------------------------------------------------------------------------
       1     12.21    -2.27008 (  0.35%)    -1.47401 ( 99.65%)    -1.47683
       2     17.64    -2.05231 (  1.53%)    -1.36511 ( 98.47%)    -1.37559
       3     19.86    -1.98221 (  2.43%)    -1.33005 ( 97.57%)    -1.34588
       4     33.69    -1.66937 ( 17.10%)    -1.17344 ( 82.90%)    -1.25823
       5     39.79    -1.57112 ( 28.62%)    -1.12419 ( 71.38%)    -1.25212
       6     40.44    -1.56156 ( 29.96%)    -1.11940 ( 70.04%)    -1.25189
       7     44.88    -1.50004 ( 39.36%)    -1.08853 ( 60.64%)    -1.25050
       8     45.71    -1.48917 ( 41.13%)    -1.08307 ( 58.87%)    -1.25011
       9     49.04    -1.44773 ( 48.06%)    -1.06226 ( 51.94%)    -1.24753
      10     57.04    -1.35873 ( 62.87%)    -1.01753 ( 37.13%)    -1.23204
      11     57.85    -1.35042 ( 64.18%)    -1.01334 ( 35.82%)    -1.22967
      12     69.93    -1.23889 ( 79.28%)    -0.95714 ( 20.72%)    -1.18052
      13     74.32    -1.20318 ( 83.00%)    -0.93911 ( 17.00%)    -1.15829
      14     90.67    -1.08689 ( 91.54%)    -0.88020 (  8.46%)    -1.06940
      15     94.21    -1.06463 ( 92.65%)    -0.86888 (  7.35%)    -1.05024
      16     97.80    -1.04283 ( 93.61%)    -0.85779 (  6.39%)    -1.03100
      17    101.06    -1.02378 ( 94.35%)    -0.84808 (  5.65%)    -1.01385
      18    117.11    -0.93844 ( 96.78%)    -0.80441 (  3.22%)    -0.93413
      19    120.15    -0.92365 ( 97.09%)    -0.79682 (  2.91%)    -0.91996
      20    123.96    -0.90567 ( 97.42%)    -0.78757 (  2.58%)    -0.90263
      21    146.91    -0.80855 ( 98.68%)    -0.73725 (  1.32%)    -0.80760
      22    150.07    -0.79645 ( 98.78%)    -0.73095 (  1.22%)    -0.79566
      23    163.99    -0.74635 ( 99.14%)    -0.70467 (  0.86%)    -0.74599
      24    169.93    -0.72638 ( 99.26%)    -0.69414 (  0.74%)    -0.72614
      25    175.51    -0.70830 ( 99.35%)    -0.68456 (  0.65%)    -0.70815
      26    204.18    -0.62465 ( 99.64%)    -0.63974 (  0.36%)    -0.62471
      27    219.05    -0.58644 ( 99.73%)    -0.61891 (  0.27%)    -0.58653
      28    231.09    -0.55767 ( 99.78%)    -0.60306 (  0.22%)    -0.55776
      29    282.08    -0.45349 ( 99.90%)    -0.54400 (  0.10%)    -0.45358
   ------------------------------------------------------------------------

   temp. (K)  partition function   enthalpy   heat capacity  entropy
                                   cal/mol     cal/K/mol   cal/K/mol   J/K/mol
 298.15  VIB  0.591E+17            19398.766    104.346    127.547
         ROT  0.157E+08              888.752      2.981     35.904
         INT  0.926E+24            20287.518    107.327    163.451
         TR   0.618E+28             1481.254      4.968     43.384
         TOT                       21768.7721   112.2954   206.8357   865.4005

       T/K    H(0)-H(T)+PV         H(T)/Eh          T*S/Eh         G(T)/Eh
   ------------------------------------------------------------------------
    298.15    0.346907E-01    0.473700E+00    0.982743E-01    0.375426E+00
   ------------------------------------------------------------------------

         :::::::::::::::::::::::::::::::::::::::::::::::::::::
         ::                  THERMODYNAMIC                  ::
         :::::::::::::::::::::::::::::::::::::::::::::::::::::
         :: total free energy         -80.558970730830 Eh   ::
         ::.................................................::
         :: total energy              -80.934396611959 Eh   ::
         :: zero point energy           0.439009440718 Eh   ::
         :: G(RRHO) w/o ZPVE           -0.063583559588 Eh   ::
         :: G(RRHO) contrib.            0.375425881130 Eh   ::
         :::::::::::::::::::::::::::::::::::::::::::::::::::::
imag cut-off (cm-1) :    5.00
 found            1  significant imaginary frequency
 writing imag mode distorted coords to xtbhess.xyz
 for further optimization.

           -------------------------------------------------
          | TOTAL ENERGY              -80.934396611959 Eh   |
          | TOTAL ENTHALPY            -80.460696424788 Eh   |
          | TOTAL FREE ENERGY         -80.558970730830 Eh   |
          | GRADIENT NORM               0.000048779907 Eh/α |
          | HOMO-LUMO GAP               5.859747904045 eV   |
           -------------------------------------------------

------------------------------------------------------------------------
 * finished run on 2024/01/10 at 18:27:53.991     
------------------------------------------------------------------------
 total:
 * wall-time:     0 d,  0 h,  0 min, 14.410 sec
 *  cpu-time:     0 d,  0 h,  0 min, 14.345 sec
 * ratio c/w:     0.995 speedup
 SCF:
 * wall-time:     0 d,  0 h,  0 min,  0.097 sec
 *  cpu-time:     0 d,  0 h,  0 min,  0.057 sec
 * ratio c/w:     0.588 speedup
 analytical hessian:
 * wall-time:     0 d,  0 h,  0 min, 14.286 sec
 *  cpu-time:     0 d,  0 h,  0 min, 14.261 sec
 * ratio c/w:     0.998 speedup

