      -----------------------------------------------------------      
     |                   =====================                   |     
     |                           x T B                           |     
     |                   =====================                   |     
     |                         S. Grimme                         |     
     |          Mulliken Center for Theoretical Chemistry        |     
     |                    University of Bonn                     |     
      -----------------------------------------------------------      

   * xtb version 6.6.1 (unknown-commit) compiled by '@Linux' on 12/27/2023

   xtb is free software: you can redistribute it and/or modify it under
   the terms of the GNU Lesser General Public License as published by
   the Free Software Foundation, either version 3 of the License, or
   (at your option) any later version.
   
   xtb is distributed in the hope that it will be useful,
   but WITHOUT ANY WARRANTY; without even the implied warranty of
   MERCHANTABILITY or FITNESS FOR A PARTICULAR PURPOSE.  See the
   GNU Lesser General Public License for more details.
   
   Cite this work as:
   * C. Bannwarth, E. Caldeweyher, S. Ehlert, A. Hansen, P. Pracht,
     J. Seibert, S. Spicher, S. Grimme, WIREs Comput. Mol. Sci., 2020, 11,
     e01493. DOI: 10.1002/wcms.1493
   
   for GFN2-xTB:
   * C. Bannwarth, S. Ehlert and S. Grimme., J. Chem. Theory Comput., 2019,
     15, 1652-1671. DOI: 10.1021/acs.jctc.8b01176
   for GFN1-xTB:
   * S. Grimme, C. Bannwarth, P. Shushkov, J. Chem. Theory Comput., 2017,
     13, 1989-2009. DOI: 10.1021/acs.jctc.7b00118
   for GFN0-xTB:
   * P. Pracht, E. Caldeweyher, S. Ehlert, S. Grimme, ChemRxiv, 2019, preprint.
     DOI: 10.26434/chemrxiv.8326202.v1
   for GFN-FF:
   * S. Spicher and S. Grimme, Angew. Chem. Int. Ed., 2020, 59, 15665-15673.
     DOI: 10.1002/anie.202004239
   
   for ALPB and GBSA implicit solvation:
   * S. Ehlert, M. Stahn, S. Spicher, S. Grimme, J. Chem. Theory Comput.,
     2021, 17, 4250-4261. DOI: 10.1021/acs.jctc.1c00471
   
   for DFT-D4:
   * E. Caldeweyher, C. Bannwarth and S. Grimme, J. Chem. Phys., 2017,
     147, 034112. DOI: 10.1063/1.4993215
   * E. Caldeweyher, S. Ehlert, A. Hansen, H. Neugebauer, S. Spicher,
     C. Bannwarth and S. Grimme, J. Chem. Phys., 2019, 150, 154122.
     DOI: 10.1063/1.5090222
   * E. Caldeweyher, J.-M. Mewes, S. Ehlert and S. Grimme, Phys. Chem. Chem. Phys.
     2020, 22, 8499-8512. DOI: 10.1039/D0CP00502A
   
   for sTDA-xTB:
   * S. Grimme and C. Bannwarth, J. Chem. Phys., 2016, 145, 054103.
     DOI: 10.1063/1.4959605
   
   in the mass-spec context:
   * V. Asgeirsson, C. Bauer and S. Grimme, Chem. Sci., 2017, 8, 4879.
     DOI: 10.1039/c7sc00601b
   * J. Koopman and S. Grimme, ACS Omega 2019, 4, 12, 15120-15133.
     DOI: 10.1021/acsomega.9b02011
   
   for metadynamics refer to:
   * S. Grimme, J. Chem. Theory Comput., 2019, 155, 2847-2862
     DOI: 10.1021/acs.jctc.9b00143
   
   for SPH calculations refer to:
   * S. Spicher and S. Grimme, J. Chem. Theory Comput., 2021, 17, 1701-1714
     DOI: 10.1021/acs.jctc.0c01306
   
   with help from (in alphabetical order)
   P. Atkinson, C. Bannwarth, F. Bohle, G. Brandenburg, E. Caldeweyher
   M. Checinski, S. Dohm, S. Ehlert, S. Ehrlich, I. Gerasimov, C. Hölzer
   A. Katbashev, J. Koopman, C. Lavigne, S. Lehtola, F. März, M. Müller,
   F. Musil, H. Neugebauer, J. Pisarek, C. Plett, P. Pracht, F. Pultar,
   J. Seibert, P. Shushkov, S. Spicher, M. Stahn, M. Steiner, T. Strunk,
   J. Stückrath, T. Rose, and J. Unsleber
   
 * started run on 2024/01/10 at 18:31:31.068     

           -------------------------------------------------
          |                Calculation Setup                |
           -------------------------------------------------

          program call               : xtb struc.xyz --gfn2 --hess
          hostname                   : swaroop
          coordinate file            : struc.xyz
          omp threads                :                     1

   ID    Z sym.   atoms
    1    8 O      1, 23, 31, 39, 47
    2    6 C      2, 5, 9, 13, 17, 22, 30, 38, 46
    3    1 H      3, 4, 6, 7, 10-12, 14-16, 18-21, 25, 26, 28, 29, 33, 34,
                  36, 37, 41, 42, 44, 45, 49, 50, 52, 53
    4    7 N      8, 24, 27, 32, 35, 40, 43, 48, 51

molecular fragmentation (1/2 indicates fragments):
11111111111111111111122222222222222222222222222222222
# atoms in fragment 1/2:    21    32
 fragment masses (1/2) :      104.17      240.22
CMA distance (Bohr)    :   7.106
constraining FC (au)   :  0.0500

           -------------------------------------------------
          |                 G F N 2 - x T B                 |
           -------------------------------------------------

        Reference                      10.1021/acs.jctc.8b01176
      * Hamiltonian:
        H0-scaling (s, p, d)           1.850000    2.230000    2.230000
        zeta-weighting                 0.500000
      * Dispersion:
        s8                             2.700000
        a1                             0.520000
        a2                             5.000000
        s9                             5.000000
      * Repulsion:
        kExp                           1.500000    1.000000
        rExp                           1.000000
      * Coulomb:
        alpha                          2.000000
        third order                    shell-resolved
        anisotropic                    true
        a3                             3.000000
        a5                             4.000000
        cn-shift                       1.200000
        cn-exp                         4.000000
        max-rad                        5.000000


          ...................................................
          :                      SETUP                      :
          :.................................................:
          :  # basis functions                 122          :
          :  # atomic orbitals                 122          :
          :  # shells                           76          :
          :  # electrons                       140          :
          :  max. iterations                   250          :
          :  Hamiltonian                  GFN2-xTB          :
          :  restarted?                      false          :
          :  GBSA solvation                  false          :
          :  PC potential                    false          :
          :  electronic temp.          300.0000000     K    :
          :  accuracy                    1.0000000          :
          :  -> integral cutoff          0.2500000E+02      :
          :  -> integral neglect         0.1000000E-07      :
          :  -> SCF convergence          0.1000000E-05 Eh   :
          :  -> wf. convergence          0.1000000E-03 e    :
          :  Broyden damping             0.4000000          :
          ...................................................

 iter      E             dE          RMSdq      gap      omega  full diag
   1    -81.5584644 -0.815585E+02  0.431E+00    5.09       0.0  T
   2    -81.8378371 -0.279373E+00  0.233E+00    6.03       1.0  T
   3    -81.8434556 -0.561853E-02  0.113E+00    5.83       1.0  T
   4    -81.8448810 -0.142533E-02  0.241E-01    5.91       1.0  T
   5    -81.8457996 -0.918608E-03  0.916E-02    5.84       1.0  T
   6    -81.8458237 -0.241560E-04  0.255E-02    5.87       1.0  T
   7    -81.8458279 -0.419978E-05  0.753E-03    5.86       1.8  T
   8    -81.8458282 -0.277148E-06  0.270E-03    5.86       5.1  T
   9    -81.8458282 -0.205689E-07  0.954E-04    5.86      14.4  T
  10    -81.8458282 -0.492700E-08  0.191E-04    5.86      71.9  T

   *** convergence criteria satisfied after 10 iterations ***

         #    Occupation            Energy/Eh            Energy/eV
      -------------------------------------------------------------
         1        2.0000           -0.7969170             -21.6852
       ...           ...                  ...                  ...
        64        2.0000           -0.4947506             -13.4628
        65        2.0000           -0.4925047             -13.4017
        66        2.0000           -0.4911528             -13.3649
        67        2.0000           -0.4900914             -13.3361
        68        2.0000           -0.4880731             -13.2811
        69        2.0000           -0.4860661             -13.2265
        70        2.0000           -0.4840317             -13.1712 (HOMO)
        71                         -0.2686258              -7.3097 (LUMO)
        72                         -0.2636827              -7.1752
        73                         -0.2617480              -7.1225
        74                         -0.2573904              -7.0040
        75                         -0.1535478              -4.1782
       ...                                ...                  ...
       122                          0.5657294              15.3943
      -------------------------------------------------------------
                  HL-Gap            0.2154059 Eh            5.8615 eV
             Fermi-level           -0.3763287 Eh          -10.2404 eV

 SCC (total)                   0 d,  0 h,  0 min,  0.076 sec
 SCC setup                      ...        0 min,  0.000 sec (  0.375%)
 Dispersion                     ...        0 min,  0.001 sec (  0.771%)
 classical contributions        ...        0 min,  0.000 sec (  0.237%)
 integral evaluation            ...        0 min,  0.008 sec ( 10.736%)
 iterations                     ...        0 min,  0.038 sec ( 50.050%)
 molecular gradient             ...        0 min,  0.028 sec ( 37.488%)
 printout                       ...        0 min,  0.000 sec (  0.327%)

         :::::::::::::::::::::::::::::::::::::::::::::::::::::
         ::                     SUMMARY                     ::
         :::::::::::::::::::::::::::::::::::::::::::::::::::::
         :: total energy             -80.932505681706 Eh    ::
         :: gradient norm              0.000069678606 Eh/a0 ::
         :: HOMO-LUMO gap              5.861491886368 eV    ::
         ::.................................................::
         :: SCC energy               -81.845828218683 Eh    ::
         :: -> isotropic ES            0.292912570583 Eh    ::
         :: -> anisotropic ES         -0.028418193806 Eh    ::
         :: -> anisotropic XC          0.020816609713 Eh    ::
         :: -> dispersion             -0.045373110499 Eh    ::
         :: repulsion energy           0.911556307050 Eh    ::
         :: add. restraining           0.000000000000 Eh    ::
         :: total charge               1.000000000000 e     ::
         :::::::::::::::::::::::::::::::::::::::::::::::::::::

           ------------------------------------------------- 
          |                Numerical Hessian                |
           ------------------------------------------------- 
step length          :   0.00500
SCC accuracy         :   0.30000
Hessian scale factor :   1.00000
frozen atoms in %    :   0.00000    0
RMS gradient         :   0.00007
estimated CPU  time      0.24 min
estimated wall time      0.24 min

writing file <hessian>.

 projected vibrational frequencies (cm⁻¹)
eigval :       -0.00    -0.00    -0.00     0.00     0.00     0.00
eigval :       14.38    18.83    30.95    34.03    34.72    40.46
eigval :       43.02    45.90    47.90    55.63    59.06    66.04
eigval :       71.39    73.51    85.21    99.11   101.87   110.09
eigval :      118.47   123.38   132.11   146.03   172.25   184.58
eigval :      191.41   210.28   219.94   223.19   268.45   286.16
eigval :      295.97   302.92   311.19   344.80   368.43   374.40
eigval :      407.13   420.60   422.63   425.01   438.65   455.89
eigval :      462.19   463.48   469.83   470.92   475.50   480.01
eigval :      482.75   483.39   501.09   506.54   538.55   545.33
eigval :      558.56   564.64   580.10   663.26   670.89   673.13
eigval :      676.33   676.63   724.02   756.60   770.84   788.79
eigval :      889.97   927.61   960.16   964.66   968.39   994.64
eigval :     1002.88  1009.45  1011.29  1014.36  1019.11  1020.91
eigval :     1027.67  1035.28  1055.02  1086.87  1087.67  1092.59
eigval :     1093.49  1099.87  1119.82  1129.69  1188.83  1206.93
eigval :     1247.76  1255.56  1274.98  1320.23  1353.11  1355.70
eigval :     1360.54  1368.03  1373.42  1391.59  1400.24  1405.51
eigval :     1414.42  1430.60  1444.73  1451.30  1453.61  1456.29
eigval :     1458.91  1459.68  1467.35  1471.64  1474.70  1481.51
eigval :     1497.41  1501.32  1504.83  1510.83  1515.35  1654.52
eigval :     1697.14  1700.09  1719.01  2895.48  2927.89  2994.30
eigval :     3017.39  3022.40  3040.34  3043.47  3044.20  3046.45
eigval :     3050.61  3053.12  3062.16  3073.68  3147.56  3204.27
eigval :     3240.76  3378.06  3458.99  3484.91  3498.19  3502.37
eigval :     3502.50  3524.26  3531.09  3536.69  3548.24  3563.19
eigval :     3568.89  3569.10  3574.98
           -------------------------------------------------
          |                Property Printout                |
           -------------------------------------------------

    * Orbital Energies and Occupations

         #    Occupation            Energy/Eh            Energy/eV
      -------------------------------------------------------------
         1        2.0000           -0.7969167             -21.6852
       ...           ...                  ...                  ...
        58        2.0000           -0.5157644             -14.0347
        59        2.0000           -0.5045207             -13.7287
        60        2.0000           -0.5018127             -13.6550
        61        2.0000           -0.5011084             -13.6359
        62        2.0000           -0.4977813             -13.5453
        63        2.0000           -0.4957906             -13.4912
        64        2.0000           -0.4947536             -13.4629
        65        2.0000           -0.4925057             -13.4018
        66        2.0000           -0.4911535             -13.3650
        67        2.0000           -0.4900918             -13.3361
        68        2.0000           -0.4880747             -13.2812
        69        2.0000           -0.4860676             -13.2266
        70        2.0000           -0.4840344             -13.1712 (HOMO)
        71                         -0.2686267              -7.3097 (LUMO)
        72                         -0.2636833              -7.1752
        73                         -0.2617484              -7.1225
        74                         -0.2573955              -7.0041
        75                         -0.1535471              -4.1782
        76                         -0.1017320              -2.7683
        77                         -0.0892508              -2.4286
        78                         -0.0835017              -2.2722
        79                         -0.0784086              -2.1336
        80                         -0.0748003              -2.0354
        81                         -0.0657326              -1.7887
       ...                                ...                  ...
       122                          0.5657287              15.3943
      -------------------------------------------------------------
                  HL-Gap            0.2154077 Eh            5.8615 eV
             Fermi-level           -0.3763305 Eh          -10.2405 eV

     #   Z          covCN         q      C6AA      α(0)
     1   8 O        1.655    -0.441    21.671     6.284
     2   6 C        3.672     0.073    19.582     6.342
     3   1 H        0.924     0.047     2.352     2.398
     4   1 H        0.924     0.048     2.341     2.393
     5   6 C        3.770    -0.068    21.845     6.661
     6   1 H        0.924     0.122     1.595     1.975
     7   1 H        0.924     0.121     1.603     1.980
     8   7 N        3.624     0.163    18.507     6.389
     9   6 C        3.724    -0.110    22.719     6.806
    10   1 H        0.925     0.113     1.671     2.022
    11   1 H        0.925     0.078     1.997     2.210
    12   1 H        0.925     0.116     1.647     2.007
    13   6 C        3.736    -0.117    22.829     6.818
    14   1 H        0.925     0.122     1.596     1.976
    15   1 H        0.925     0.115     1.655     2.012
    16   1 H        0.925     0.083     1.949     2.183
    17   6 C        3.721    -0.109    22.711     6.806
    18   1 H        0.925     0.094     1.838     2.120
    19   1 H        0.925     0.081     1.967     2.193
    20   1 H        0.924     0.128     1.549     1.946
    21   1 H        0.805     0.300     0.720     1.333
    22   6 C        2.675     0.341    21.211     7.536
    23   8 O        0.860    -0.540    24.695     6.663
    24   7 N        2.645    -0.303    27.794     7.830
    25   1 H        0.860     0.240     0.925     1.507
    26   1 H        0.860     0.178     1.224     1.733
    27   7 N        2.645    -0.292    27.524     7.792
    28   1 H        0.861     0.183     1.196     1.713
    29   1 H        0.860     0.198     1.116     1.655
    30   6 C        2.675     0.342    21.195     7.534
    31   8 O        0.861    -0.535    24.562     6.645
    32   7 N        2.645    -0.291    27.505     7.789
    33   1 H        0.860     0.197     1.119     1.657
    34   1 H        0.861     0.184     1.193     1.711
    35   7 N        2.644    -0.303    27.807     7.832
    36   1 H        0.861     0.179     1.218     1.729
    37   1 H        0.859     0.248     0.893     1.480
    38   6 C        2.675     0.343    21.175     7.530
    39   8 O        0.860    -0.539    24.658     6.658
    40   7 N        2.645    -0.298    27.683     7.814
    41   1 H        0.860     0.191     1.152     1.682
    42   1 H        0.861     0.180     1.212     1.725
    43   7 N        2.644    -0.315    28.096     7.872
    44   1 H        0.860     0.175     1.241     1.745
    45   1 H        0.860     0.240     0.923     1.505
    46   6 C        2.675     0.341    21.207     7.536
    47   8 O        0.860    -0.516    24.132     6.586
    48   7 N        2.644    -0.314    28.085     7.871
    49   1 H        0.859     0.241     0.919     1.502
    50   1 H        0.860     0.202     1.096     1.640
    51   7 N        2.644    -0.301    27.743     7.823
    52   1 H        0.860     0.183     1.195     1.712
    53   1 H        0.860     0.198     1.114     1.654

 Mol. C6AA /au·bohr⁶  :      21784.514873
 Mol. C8AA /au·bohr⁸  :     454199.890941
 Mol. α(0) /au        :        220.512724


Wiberg/Mayer (AO) data.
largest (>0.10) Wiberg bond orders for each atom

 ---------------------------------------------------------------------------
     #   Z sym  total        # sym  WBO       # sym  WBO       # sym  WBO
 ---------------------------------------------------------------------------
     1   8 O    1.956 --     2 C    0.997    21 H    0.894
     2   6 C    3.958 --     5 C    1.007     1 O    0.997     4 H    0.967
                             3 H    0.966
     3   1 H    0.998 --     2 C    0.966
     4   1 H    0.997 --     2 C    0.967
     5   6 C    3.929 --     2 C    1.007     6 H    0.955     7 H    0.950
                             8 N    0.937
     6   1 H    0.985 --     5 C    0.955
     7   1 H    0.985 --     5 C    0.950
     8   7 N    3.824 --    17 C    0.960     9 C    0.958    13 C    0.954
                             5 C    0.937
     9   6 C    3.924 --    11 H    0.979    12 H    0.966    10 H    0.964
                             8 N    0.958
    10   1 H    0.987 --     9 C    0.964
    11   1 H    0.994 --     9 C    0.979
    12   1 H    0.987 --     9 C    0.966
    13   6 C    3.917 --    16 H    0.978    15 H    0.966    14 H    0.962
                             8 N    0.954
    14   1 H    0.985 --    13 C    0.962
    15   1 H    0.987 --    13 C    0.966
    16   1 H    0.993 --    13 C    0.978
    17   6 C    3.926 --    19 H    0.978    18 H    0.975     8 N    0.960
                            20 H    0.957
    18   1 H    0.991 --    17 C    0.975
    19   1 H    0.993 --    17 C    0.978
    20   1 H    0.984 --    17 C    0.957
    21   1 H    0.909 --     1 O    0.894
    22   6 C    3.959 --    23 O    1.505    24 N    1.239    27 N    1.205
    23   8 O    1.872 --    22 C    1.505    24 N    0.144    27 N    0.137
    24   7 N    3.334 --    22 C    1.239    26 H    0.949    25 H    0.895
                            23 O    0.144
    25   1 H    0.943 --    24 N    0.895
    26   1 H    0.968 --    24 N    0.949
    27   7 N    3.322 --    22 C    1.205    28 H    0.948    29 H    0.944
                            23 O    0.137
    28   1 H    0.966 --    27 N    0.948
    29   1 H    0.961 --    27 N    0.944
    30   6 C    3.960 --    31 O    1.475    35 N    1.270    32 N    1.204
    31   8 O    1.910 --    30 C    1.475    35 N    0.145    32 N    0.129
    32   7 N    3.318 --    30 C    1.204    34 H    0.947    33 H    0.944
                            31 O    0.129
    33   1 H    0.961 --    32 N    0.944
    34   1 H    0.966 --    32 N    0.947
    35   7 N    3.353 --    30 C    1.270    36 H    0.948    37 H    0.863
                            31 O    0.145
    36   1 H    0.967 --    35 N    0.948
    37   1 H    0.939 --    35 N    0.863
    38   6 C    3.959 --    39 O    1.521    43 N    1.241    40 N    1.189
    39   8 O    1.879 --    38 C    1.521    43 N    0.146    40 N    0.136
    40   7 N    3.304 --    38 C    1.189    42 H    0.949    41 H    0.946
                            39 O    0.136
    41   1 H    0.963 --    40 N    0.946
    42   1 H    0.967 --    40 N    0.949
    43   7 N    3.325 --    38 C    1.241    44 H    0.949    45 H    0.870
                            39 O    0.146
    44   1 H    0.969 --    43 N    0.949
    45   1 H    0.942 --    43 N    0.870
    46   6 C    3.959 --    47 O    1.485    48 N    1.273    51 N    1.189
    47   8 O    1.952 --    46 C    1.485    48 N    0.143    51 N    0.124
    48   7 N    3.342 --    46 C    1.273    50 H    0.923    49 H    0.865
                            47 O    0.143
    49   1 H    0.942 --    48 N    0.865
    50   1 H    0.959 --    48 N    0.923
    51   7 N    3.297 --    46 C    1.189    52 H    0.947    53 H    0.942
                            47 O    0.124
    52   1 H    0.966 --    51 N    0.947
    53   1 H    0.960 --    51 N    0.942
 ---------------------------------------------------------------------------

Topologies differ in total number of bonds
Writing topology from bond orders to xtbtopo.mol

molecular dipole:
                 x           y           z       tot (Debye)
 q only:        0.468      -1.098      -0.616
   full:        0.297      -0.702      -0.452       2.252
molecular quadrupole (traceless):
                xx          xy          yy          xz          yz          zz
 q only:       10.683       9.542       0.141      17.451      -9.064     -10.825
  q+dip:       15.517      14.130      -2.715      22.484     -13.483     -12.802
   full:       15.113      13.884      -1.984      22.008     -13.154     -13.129

           -------------------------------------------------
          |               Frequency Printout                |
           -------------------------------------------------
 projected vibrational frequencies (cm⁻¹)
eigval :       -0.00    -0.00    -0.00     0.00     0.00     0.00
eigval :       14.38    18.83    30.95    34.03    34.72    40.46
eigval :       43.02    45.90    47.90    55.63    59.06    66.04
eigval :       71.39    73.51    85.21    99.11   101.87   110.09
eigval :      118.47   123.38   132.11   146.03   172.25   184.58
eigval :      191.41   210.28   219.94   223.19   268.45   286.16
eigval :      295.97   302.92   311.19   344.80   368.43   374.40
eigval :      407.13   420.60   422.63   425.01   438.65   455.89
eigval :      462.19   463.48   469.83   470.92   475.50   480.01
eigval :      482.75   483.39   501.09   506.54   538.55   545.33
eigval :      558.56   564.64   580.10   663.26   670.89   673.13
eigval :      676.33   676.63   724.02   756.60   770.84   788.79
eigval :      889.97   927.61   960.16   964.66   968.39   994.64
eigval :     1002.88  1009.45  1011.29  1014.36  1019.11  1020.91
eigval :     1027.67  1035.28  1055.02  1086.87  1087.67  1092.59
eigval :     1093.49  1099.87  1119.82  1129.69  1188.83  1206.93
eigval :     1247.76  1255.56  1274.98  1320.23  1353.11  1355.70
eigval :     1360.54  1368.03  1373.42  1391.59  1400.24  1405.51
eigval :     1414.42  1430.60  1444.73  1451.30  1453.61  1456.29
eigval :     1458.91  1459.68  1467.35  1471.64  1474.70  1481.51
eigval :     1497.41  1501.32  1504.83  1510.83  1515.35  1654.52
eigval :     1697.14  1700.09  1719.01  2895.48  2927.89  2994.30
eigval :     3017.39  3022.40  3040.34  3043.47  3044.20  3046.45
eigval :     3050.61  3053.12  3062.16  3073.68  3147.56  3204.27
eigval :     3240.76  3378.06  3458.99  3484.91  3498.19  3502.37
eigval :     3502.50  3524.26  3531.09  3536.69  3548.24  3563.19
eigval :     3568.89  3569.10  3574.98
 reduced masses (amu)
   1: 12.66   2: 12.49   3: 12.80   4: 12.58   5: 12.32   6: 12.58   7: 12.43   8: 12.31
   9: 12.30  10: 12.33  11: 12.53  12: 12.55  13: 12.66  14: 12.39  15: 13.04  16: 12.69
  17: 12.38  18: 12.57  19: 12.02  20: 12.25  21: 12.99  22: 11.25  23: 12.75  24: 12.60
  25: 12.93  26: 13.03  27: 12.58  28: 12.53  29: 12.68  30: 12.41  31:  9.58  32: 12.20
  33:  2.45  34:  3.29  35:  4.93  36:  7.09  37:  3.02  38:  2.78  39:  7.24  40:  2.26
  41:  7.59  42:  1.97  43:  3.19  44:  6.07  45:  5.42  46:  2.40  47:  2.81  48:  8.09
  49:  6.36  50:  4.53  51:  6.06  52:  2.50  53:  6.62  54:  6.08  55:  3.86  56:  7.04
  57:  9.16  58:  2.96  59: 11.27  60: 11.26  61: 11.59  62:  8.54  63: 11.64  64:  8.73
  65: 10.95  66:  6.22  67: 10.83  68: 11.61  69:  2.32  70:  2.02  71:  9.15  72:  2.73
  73:  6.05  74:  8.87  75:  5.04  76:  4.89  77:  4.91  78:  4.59  79:  7.64  80:  8.71
  81:  9.12  82:  7.85  83:  9.25  84:  7.18  85: 10.07  86:  3.18  87:  4.88  88:  8.83
  89:  8.94  90:  6.98  91:  7.58  92:  7.42  93:  5.50  94:  8.34  95:  3.70  96:  2.89
  97:  7.12  98:  4.40  99:  8.37 100:  6.18 101:  4.24 102:  5.01 103:  5.79 104:  5.59
 105:  4.54 106:  4.90 107:  2.70 108:  2.68 109:  2.19 110:  2.45 111:  1.78 112:  3.17
 113:  1.65 114:  2.46 115:  2.74 116:  2.77 117:  1.72 118:  2.17 119:  2.33 120:  1.83
 121:  1.71 122:  8.05 123:  8.03 124:  8.63 125:  9.33 126: 12.50 127: 12.65 128: 12.68
 129: 12.69 130:  1.95 131:  1.48 132:  1.69 133:  1.82 134:  1.70 135:  1.68 136:  1.81
 137:  1.40 138:  1.97 139:  1.70 140:  1.88 141:  1.71 142:  1.75 143:  1.82 144:  1.80
 145:  1.79 146:  1.69 147:  1.88 148:  1.46 149:  1.45 150:  1.45 151:  1.45 152:  1.90
 153:  1.96 154:  1.89 155:  2.17 156:  2.17 157:  2.18 158:  2.18 159:  1.88
 IR intensities (km·mol⁻¹)
   1:  1.01   2:  0.86   3:  1.55   4:  1.94   5:  1.99   6:  1.39   7:  0.10   8:  0.41
   9:  0.83  10:  3.78  11:  0.91  12:  0.78  13:  3.08  14:  0.21  15:  1.12  16:  4.22
  17:  2.90  18:  0.94  19:  1.58  20:  5.39  21:  1.06  22: 12.14  23: 12.64  24: 12.11
  25: 15.43  26:  2.72  27:  2.90  28: 13.61  29:  7.15  30: 29.84  31:  3.44  32: 28.07
  33: 87.63  34:236.77  35: 15.30  36: 11.52  37:187.92  38:152.51  39:  3.70  40:  1.42
  41:  0.68  42:  0.27  43:105.81  44: 81.30  45: 58.25  46:146.88  47:339.98  48: 12.19
  49: 36.65  50: 22.55  51:  2.83  52: 13.01  53: 19.08  54: 75.07  55:  5.75  56: 72.83
  57: 57.33  58: 88.17  59: 16.55  60: 12.73  61: 13.92  62: 12.06  63: 55.98  64: 39.50
  65: 14.41  66:138.84  67:  1.71  68: 40.09  69: 14.93  70: 77.57  71:  0.51  72:789.01
  73:  3.15  74:  6.35  75:  1.56  76:  4.50  77:  0.50  78:  8.50  79: 22.63  80: 11.37
  81: 20.54  82: 12.28  83: 14.71  84: 17.97  85:  2.36  86:  1.36  87:  1.62  88:  3.02
  89:  1.02  90: 38.01  91: 13.63  92:  5.10  93:  7.09  94: 38.70  95:  0.77  96: 44.13
  97: 43.43  98: 13.97  99:  4.42 100:  9.85 101: 57.74 102:149.17 103:196.12 104: 56.03
 105: 18.13 106:  9.10 107: 23.87 108: 12.89 109:  5.78 110: 19.32 111:  0.49 112:  8.02
 113:  5.10 114: 16.11 115: 11.28 116:  2.87 117:  5.71 118: 15.66 119: 10.97 120: 26.99
 121:  7.47 122:538.94 123:377.62 124:738.08 125:428.15 126:121.29 127:512.83 128:******
 129:****** 130: 34.34 131: 30.20 132: 12.83 133:  3.99 134: 45.37 135: 14.39 136:  7.07
 137:  0.50 138:  0.69 139: 19.66 140: 26.69 141:  0.62 142:  2.56 143:409.76 144:******
 145:900.48 146:557.58 147:121.76 148: 15.67 149: 13.62 150: 16.00 151: 17.73 152: 13.14
 153: 22.09 154: 14.73 155: 12.36 156:  7.65 157: 13.17 158: 12.09 159: 23.96
 Raman intensities (amu)
Molecule has no symmetry elements
It seems to be the C1 point group
   1:  0.00   2:  0.00   3:  0.00   4:  0.00   5:  0.00   6:  0.00   7:  0.00   8:  0.00
   9:  0.00  10:  0.00  11:  0.00  12:  0.00  13:  0.00  14:  0.00  15:  0.00  16:  0.00
  17:  0.00  18:  0.00  19:  0.00  20:  0.00  21:  0.00  22:  0.00  23:  0.00  24:  0.00
  25:  0.00  26:  0.00  27:  0.00  28:  0.00  29:  0.00  30:  0.00  31:  0.00  32:  0.00
  33:  0.00  34:  0.00  35:  0.00  36:  0.00  37:  0.00  38:  0.00  39:  0.00  40:  0.00
  41:  0.00  42:  0.00  43:  0.00  44:  0.00  45:  0.00  46:  0.00  47:  0.00  48:  0.00
  49:  0.00  50:  0.00  51:  0.00  52:  0.00  53:  0.00  54:  0.00  55:  0.00  56:  0.00
  57:  0.00  58:  0.00  59:  0.00  60:  0.00  61:  0.00  62:  0.00  63:  0.00  64:  0.00
  65:  0.00  66:  0.00  67:  0.00  68:  0.00  69:  0.00  70:  0.00  71:  0.00  72:  0.00
  73:  0.00  74:  0.00  75:  0.00  76:  0.00  77:  0.00  78:  0.00  79:  0.00  80:  0.00
  81:  0.00  82:  0.00  83:  0.00  84:  0.00  85:  0.00  86:  0.00  87:  0.00  88:  0.00
  89:  0.00  90:  0.00  91:  0.00  92:  0.00  93:  0.00  94:  0.00  95:  0.00  96:  0.00
  97:  0.00  98:  0.00  99:  0.00 100:  0.00 101:  0.00 102:  0.00 103:  0.00 104:  0.00
 105:  0.00 106:  0.00 107:  0.00 108:  0.00 109:  0.00 110:  0.00 111:  0.00 112:  0.00
 113:  0.00 114:  0.00 115:  0.00 116:  0.00 117:  0.00 118:  0.00 119:  0.00 120:  0.00
 121:  0.00 122:  0.00 123:  0.00 124:  0.00 125:  0.00 126:  0.00 127:  0.00 128:  0.00
 129:  0.00 130:  0.00 131:  0.00 132:  0.00 133:  0.00 134:  0.00 135:  0.00 136:  0.00
 137:  0.00 138:  0.00 139:  0.00 140:  0.00 141:  0.00 142:  0.00 143:  0.00 144:  0.00
 145:  0.00 146:  0.00 147:  0.00 148:  0.00 149:  0.00 150:  0.00 151:  0.00 152:  0.00
 153:  0.00 154:  0.00 155:  0.00 156:  0.00 157:  0.00 158:  0.00 159:  0.00
 output can be read by thermo (or use thermo option).
 writing <g98.out> molden fake output.
 recommended (thermochemical) frequency scaling factor: 1.0
           -------------------------------------------------
          |             Thermodynamic Functions             |
           -------------------------------------------------

c1  symmetry found (for desy threshold:  0.10E+00) used in thermo

          ...................................................
          :                      SETUP                      :
          :.................................................:
          :  # frequencies                         153      :
          :  # imaginary freq.                       0      :
          :  linear?                             false      :
          :  only rotor calc.                    false      :
          :  symmetry                               c1      :
          :  rotational number                       1      :
          :  scaling factor                  1.0000000      :
          :  rotor cutoff                   50.0000000 cm⁻¹ :
          :  imag. cutoff                  -20.0000000 cm⁻¹ :
          :.................................................:

    mode    ω/cm⁻¹     T·S(HO)/kcal·mol⁻¹    T·S(FR)/kcal·mol⁻¹   T·S(vib)
   ------------------------------------------------------------------------
       1     14.38    -2.17344 (  0.68%)    -1.42566 ( 99.32%)    -1.43074
       2     18.83    -2.01370 (  1.97%)    -1.34578 ( 98.03%)    -1.35895
       3     30.95    -1.71959 ( 12.80%)    -1.19858 ( 87.20%)    -1.26529
       4     34.03    -1.66353 ( 17.66%)    -1.17050 ( 82.34%)    -1.25759
       5     34.72    -1.65167 ( 18.86%)    -1.16456 ( 81.14%)    -1.25644
       6     40.46    -1.56119 ( 30.02%)    -1.11920 ( 69.98%)    -1.25187
       7     43.02    -1.52495 ( 35.41%)    -1.10102 ( 64.59%)    -1.25114
       8     45.90    -1.48673 ( 41.53%)    -1.08184 ( 58.47%)    -1.25000
       9     47.90    -1.46167 ( 45.71%)    -1.06926 ( 54.29%)    -1.24863
      10     55.63    -1.37345 ( 60.51%)    -1.02492 ( 39.49%)    -1.23581
      11     59.06    -1.33818 ( 66.07%)    -1.00718 ( 33.93%)    -1.22586
      12     66.04    -1.27255 ( 75.26%)    -0.97412 ( 24.74%)    -1.19873
      13     71.39    -1.22681 ( 80.60%)    -0.95104 ( 19.40%)    -1.17332
      14     73.51    -1.20963 ( 82.37%)    -0.94236 ( 17.63%)    -1.16251
      15     85.21    -1.12315 ( 89.40%)    -0.89859 ( 10.60%)    -1.09935
      16     99.11    -1.03511 ( 93.92%)    -0.85385 (  6.08%)    -1.02409
      17    101.87    -1.01915 ( 94.51%)    -0.84571 (  5.49%)    -1.00964
      18    110.09    -0.97417 ( 95.92%)    -0.82273 (  4.08%)    -0.96799
      19    118.47    -0.93178 ( 96.92%)    -0.80099 (  3.08%)    -0.92776
      20    123.38    -0.90840 ( 97.37%)    -0.78897 (  2.63%)    -0.90527
      21    132.11    -0.86914 ( 97.99%)    -0.76871 (  2.01%)    -0.86712
      22    146.03    -0.81197 ( 98.64%)    -0.73904 (  1.36%)    -0.81098
      23    172.25    -0.71878 ( 99.29%)    -0.69012 (  0.71%)    -0.71858
      24    184.58    -0.68025 ( 99.46%)    -0.66963 (  0.54%)    -0.68019
      25    191.41    -0.66015 ( 99.54%)    -0.65887 (  0.46%)    -0.66015
      26    210.28    -0.60860 ( 99.68%)    -0.63102 (  0.32%)    -0.60867
      27    219.94    -0.58425 ( 99.73%)    -0.61771 (  0.27%)    -0.58434
      28    223.19    -0.57634 ( 99.75%)    -0.61336 (  0.25%)    -0.57643
      29    268.45    -0.47888 ( 99.88%)    -0.55867 (  0.12%)    -0.47898
      30    286.16    -0.44620 ( 99.91%)    -0.53974 (  0.09%)    -0.44629
      31    295.97    -0.42922 ( 99.92%)    -0.52976 (  0.08%)    -0.42930
   ------------------------------------------------------------------------

   temp. (K)  partition function   enthalpy   heat capacity  entropy
                                   cal/mol     cal/K/mol   cal/K/mol   J/K/mol
 298.15  VIB  0.579E+17            19491.086    104.361    128.091
         ROT  0.119E+08              888.752      2.981     35.362
         INT  0.691E+24            20379.838    107.341    163.453
         TR   0.618E+28             1481.254      4.968     43.384
         TOT                       21861.0918   112.3096   206.8370   865.4060

       T/K    H(0)-H(T)+PV         H(T)/Eh          T*S/Eh         G(T)/Eh
   ------------------------------------------------------------------------
    298.15    0.348379E-01    0.474169E+00    0.982749E-01    0.375894E+00
   ------------------------------------------------------------------------

         :::::::::::::::::::::::::::::::::::::::::::::::::::::
         ::                  THERMODYNAMIC                  ::
         :::::::::::::::::::::::::::::::::::::::::::::::::::::
         :: total free energy         -80.556612062131 Eh   ::
         ::.................................................::
         :: total energy              -80.932505682066 Eh   ::
         :: zero point energy           0.439330684193 Eh   ::
         :: G(RRHO) w/o ZPVE           -0.063437064258 Eh   ::
         :: G(RRHO) contrib.            0.375893619935 Eh   ::
         :::::::::::::::::::::::::::::::::::::::::::::::::::::

           -------------------------------------------------
          | TOTAL ENERGY              -80.932505682066 Eh   |
          | TOTAL ENTHALPY            -80.458337130574 Eh   |
          | TOTAL FREE ENERGY         -80.556612062131 Eh   |
          | GRADIENT NORM               0.000069728059 Eh/α |
          | HOMO-LUMO GAP               5.861542330624 eV   |
           -------------------------------------------------

------------------------------------------------------------------------
 * finished run on 2024/01/10 at 18:31:45.890     
------------------------------------------------------------------------
 total:
 * wall-time:     0 d,  0 h,  0 min, 14.822 sec
 *  cpu-time:     0 d,  0 h,  0 min, 14.757 sec
 * ratio c/w:     0.996 speedup
 SCF:
 * wall-time:     0 d,  0 h,  0 min,  0.076 sec
 *  cpu-time:     0 d,  0 h,  0 min,  0.058 sec
 * ratio c/w:     0.761 speedup
 analytical hessian:
 * wall-time:     0 d,  0 h,  0 min, 14.719 sec
 *  cpu-time:     0 d,  0 h,  0 min, 14.672 sec
 * ratio c/w:     0.997 speedup

