      -----------------------------------------------------------      
     |                   =====================                   |     
     |                           x T B                           |     
     |                   =====================                   |     
     |                         S. Grimme                         |     
     |          Mulliken Center for Theoretical Chemistry        |     
     |                    University of Bonn                     |     
      -----------------------------------------------------------      

   * xtb version 6.6.1 (unknown-commit) compiled by '@Linux' on 12/27/2023

   xtb is free software: you can redistribute it and/or modify it under
   the terms of the GNU Lesser General Public License as published by
   the Free Software Foundation, either version 3 of the License, or
   (at your option) any later version.
   
   xtb is distributed in the hope that it will be useful,
   but WITHOUT ANY WARRANTY; without even the implied warranty of
   MERCHANTABILITY or FITNESS FOR A PARTICULAR PURPOSE.  See the
   GNU Lesser General Public License for more details.
   
   Cite this work as:
   * C. Bannwarth, E. Caldeweyher, S. Ehlert, A. Hansen, P. Pracht,
     J. Seibert, S. Spicher, S. Grimme, WIREs Comput. Mol. Sci., 2020, 11,
     e01493. DOI: 10.1002/wcms.1493
   
   for GFN2-xTB:
   * C. Bannwarth, S. Ehlert and S. Grimme., J. Chem. Theory Comput., 2019,
     15, 1652-1671. DOI: 10.1021/acs.jctc.8b01176
   for GFN1-xTB:
   * S. Grimme, C. Bannwarth, P. Shushkov, J. Chem. Theory Comput., 2017,
     13, 1989-2009. DOI: 10.1021/acs.jctc.7b00118
   for GFN0-xTB:
   * P. Pracht, E. Caldeweyher, S. Ehlert, S. Grimme, ChemRxiv, 2019, preprint.
     DOI: 10.26434/chemrxiv.8326202.v1
   for GFN-FF:
   * S. Spicher and S. Grimme, Angew. Chem. Int. Ed., 2020, 59, 15665-15673.
     DOI: 10.1002/anie.202004239
   
   for ALPB and GBSA implicit solvation:
   * S. Ehlert, M. Stahn, S. Spicher, S. Grimme, J. Chem. Theory Comput.,
     2021, 17, 4250-4261. DOI: 10.1021/acs.jctc.1c00471
   
   for DFT-D4:
   * E. Caldeweyher, C. Bannwarth and S. Grimme, J. Chem. Phys., 2017,
     147, 034112. DOI: 10.1063/1.4993215
   * E. Caldeweyher, S. Ehlert, A. Hansen, H. Neugebauer, S. Spicher,
     C. Bannwarth and S. Grimme, J. Chem. Phys., 2019, 150, 154122.
     DOI: 10.1063/1.5090222
   * E. Caldeweyher, J.-M. Mewes, S. Ehlert and S. Grimme, Phys. Chem. Chem. Phys.
     2020, 22, 8499-8512. DOI: 10.1039/D0CP00502A
   
   for sTDA-xTB:
   * S. Grimme and C. Bannwarth, J. Chem. Phys., 2016, 145, 054103.
     DOI: 10.1063/1.4959605
   
   in the mass-spec context:
   * V. Asgeirsson, C. Bauer and S. Grimme, Chem. Sci., 2017, 8, 4879.
     DOI: 10.1039/c7sc00601b
   * J. Koopman and S. Grimme, ACS Omega 2019, 4, 12, 15120-15133.
     DOI: 10.1021/acsomega.9b02011
   
   for metadynamics refer to:
   * S. Grimme, J. Chem. Theory Comput., 2019, 155, 2847-2862
     DOI: 10.1021/acs.jctc.9b00143
   
   for SPH calculations refer to:
   * S. Spicher and S. Grimme, J. Chem. Theory Comput., 2021, 17, 1701-1714
     DOI: 10.1021/acs.jctc.0c01306
   
   with help from (in alphabetical order)
   P. Atkinson, C. Bannwarth, F. Bohle, G. Brandenburg, E. Caldeweyher
   M. Checinski, S. Dohm, S. Ehlert, S. Ehrlich, I. Gerasimov, C. Hölzer
   A. Katbashev, J. Koopman, C. Lavigne, S. Lehtola, F. März, M. Müller,
   F. Musil, H. Neugebauer, J. Pisarek, C. Plett, P. Pracht, F. Pultar,
   J. Seibert, P. Shushkov, S. Spicher, M. Stahn, M. Steiner, T. Strunk,
   J. Stückrath, T. Rose, and J. Unsleber
   
 * started run on 2024/01/10 at 15:37:43.123     

           -------------------------------------------------
          |                Calculation Setup                |
           -------------------------------------------------

          program call               : xtb struc.xyz --gfn2 --hess
          hostname                   : swaroop
          coordinate file            : struc.xyz
          omp threads                :                     1

   ID    Z sym.   atoms
    1    8 O      1, 23, 31, 39, 47
    2    6 C      2, 5, 9, 13, 17, 22, 30, 38, 46
    3    1 H      3, 4, 6, 7, 10-12, 14-16, 18-21, 25, 26, 28, 29, 33, 34,
                  36, 37, 41, 42, 44, 45, 49, 50, 52, 53
    4    7 N      8, 24, 27, 32, 35, 40, 43, 48, 51

molecular fragmentation (1/2 indicates fragments):
11111111111111111111122222222222222222222222222222222
# atoms in fragment 1/2:    21    32
 fragment masses (1/2) :      104.17      240.22
CMA distance (Bohr)    :   6.462
constraining FC (au)   :  0.0500

           -------------------------------------------------
          |                 G F N 2 - x T B                 |
           -------------------------------------------------

        Reference                      10.1021/acs.jctc.8b01176
      * Hamiltonian:
        H0-scaling (s, p, d)           1.850000    2.230000    2.230000
        zeta-weighting                 0.500000
      * Dispersion:
        s8                             2.700000
        a1                             0.520000
        a2                             5.000000
        s9                             5.000000
      * Repulsion:
        kExp                           1.500000    1.000000
        rExp                           1.000000
      * Coulomb:
        alpha                          2.000000
        third order                    shell-resolved
        anisotropic                    true
        a3                             3.000000
        a5                             4.000000
        cn-shift                       1.200000
        cn-exp                         4.000000
        max-rad                        5.000000


          ...................................................
          :                      SETUP                      :
          :.................................................:
          :  # basis functions                 122          :
          :  # atomic orbitals                 122          :
          :  # shells                           76          :
          :  # electrons                       140          :
          :  max. iterations                   250          :
          :  Hamiltonian                  GFN2-xTB          :
          :  restarted?                      false          :
          :  GBSA solvation                  false          :
          :  PC potential                    false          :
          :  electronic temp.          300.0000000     K    :
          :  accuracy                    1.0000000          :
          :  -> integral cutoff          0.2500000E+02      :
          :  -> integral neglect         0.1000000E-07      :
          :  -> SCF convergence          0.1000000E-05 Eh   :
          :  -> wf. convergence          0.1000000E-03 e    :
          :  Broyden damping             0.4000000          :
          ...................................................

 iter      E             dE          RMSdq      gap      omega  full diag
   1    -81.5457477 -0.815457E+02  0.433E+00    5.10       0.0  T
   2    -81.8392771 -0.293529E+00  0.236E+00    5.93       1.0  T
   3    -81.8450815 -0.580438E-02  0.117E+00    5.70       1.0  T
   4    -81.8464253 -0.134387E-02  0.239E-01    5.80       1.0  T
   5    -81.8473213 -0.895969E-03  0.925E-02    5.70       1.0  T
   6    -81.8473465 -0.252318E-04  0.270E-02    5.70       1.0  T
   7    -81.8473516 -0.503214E-05  0.758E-03    5.69       1.8  T
   8    -81.8473518 -0.273061E-06  0.283E-03    5.69       4.9  T
   9    -81.8473519 -0.207569E-07  0.981E-04    5.69      14.0  T
  10    -81.8473519 -0.644638E-08  0.200E-04    5.69      68.7  T

   *** convergence criteria satisfied after 10 iterations ***

         #    Occupation            Energy/Eh            Energy/eV
      -------------------------------------------------------------
         1        2.0000           -0.7823092             -21.2877
       ...           ...                  ...                  ...
        64        2.0000           -0.4889693             -13.3055
        65        2.0000           -0.4868374             -13.2475
        66        2.0000           -0.4838007             -13.1649
        67        2.0000           -0.4817374             -13.1087
        68        2.0000           -0.4771320             -12.9834
        69        2.0000           -0.4757645             -12.9462
        70        2.0000           -0.4720627             -12.8455 (HOMO)
        71                         -0.2628012              -7.1512 (LUMO)
        72                         -0.2615600              -7.1174
        73                         -0.2495198              -6.7898
        74                         -0.2463359              -6.7031
        75                         -0.1388280              -3.7777
       ...                                ...                  ...
       122                          0.5784901              15.7415
      -------------------------------------------------------------
                  HL-Gap            0.2092615 Eh            5.6943 eV
             Fermi-level           -0.3674319 Eh           -9.9983 eV

 SCC (total)                   0 d,  0 h,  0 min,  0.083 sec
 SCC setup                      ...        0 min,  0.000 sec (  0.346%)
 Dispersion                     ...        0 min,  0.001 sec (  0.697%)
 classical contributions        ...        0 min,  0.000 sec (  0.217%)
 integral evaluation            ...        0 min,  0.007 sec (  8.392%)
 iterations                     ...        0 min,  0.048 sec ( 58.327%)
 molecular gradient             ...        0 min,  0.026 sec ( 31.674%)
 printout                       ...        0 min,  0.000 sec (  0.331%)

         :::::::::::::::::::::::::::::::::::::::::::::::::::::
         ::                     SUMMARY                     ::
         :::::::::::::::::::::::::::::::::::::::::::::::::::::
         :: total energy             -80.931434426170 Eh    ::
         :: gradient norm              0.000073706711 Eh/a0 ::
         :: HOMO-LUMO gap              5.694296109902 eV    ::
         ::.................................................::
         :: SCC energy               -81.847351874418 Eh    ::
         :: -> isotropic ES            0.288901623007 Eh    ::
         :: -> anisotropic ES         -0.028261906386 Eh    ::
         :: -> anisotropic XC          0.020909730917 Eh    ::
         :: -> dispersion             -0.038453319891 Eh    ::
         :: repulsion energy           0.915721183376 Eh    ::
         :: add. restraining           0.000000000000 Eh    ::
         :: total charge               1.000000000000 e     ::
         :::::::::::::::::::::::::::::::::::::::::::::::::::::

           ------------------------------------------------- 
          |                Numerical Hessian                |
           ------------------------------------------------- 
step length          :   0.00500
SCC accuracy         :   0.30000
Hessian scale factor :   1.00000
frozen atoms in %    :   0.00000    0
RMS gradient         :   0.00007
estimated CPU  time      0.23 min
estimated wall time      0.23 min

writing file <hessian>.

 projected vibrational frequencies (cm⁻¹)
eigval :       -0.00    -0.00     0.00     0.00     0.00     0.00
eigval :       -9.03     4.50     7.95    15.45    17.27    20.65
eigval :       25.68    28.94    37.99    39.53    45.86    53.23
eigval :       59.87    64.91    74.37    77.49    88.02    97.13
eigval :      102.52   115.44   117.42   125.36   132.14   172.29
eigval :      183.27   194.81   251.98   256.34   273.84   278.05
eigval :      314.76   315.04   326.56   327.23   355.32   359.35
eigval :      372.39   381.43   398.37   428.54   443.92   444.91
eigval :      454.39   457.35   463.09   466.25   471.78   472.47
eigval :      483.54   500.65   501.43   511.10   530.70   533.60
eigval :      545.75   569.82   570.88   581.38   636.39   669.55
eigval :      674.24   676.00   679.10   721.87   769.53   859.56
eigval :      895.63   930.94   946.84   950.76   973.72   994.73
eigval :      995.41   996.98  1004.82  1011.38  1015.13  1028.85
eigval :     1031.41  1040.17  1045.16  1081.46  1083.73  1096.87
eigval :     1101.16  1107.64  1114.52  1136.81  1176.03  1230.75
eigval :     1252.41  1284.45  1310.68  1338.86  1343.84  1348.03
eigval :     1351.51  1353.85  1364.61  1397.79  1404.45  1405.48
eigval :     1428.66  1435.82  1442.40  1446.94  1451.24  1456.38
eigval :     1457.08  1457.59  1465.13  1471.64  1474.19  1479.19
eigval :     1494.18  1496.22  1496.51  1500.39  1529.37  1665.20
eigval :     1715.88  1725.00  1729.64  2882.24  2953.99  2967.12
eigval :     2985.32  2991.96  3037.24  3039.86  3041.15  3042.46
eigval :     3046.03  3052.67  3053.65  3058.75  3062.26  3233.63
eigval :     3393.13  3432.57  3495.00  3496.01  3499.88  3500.08
eigval :     3504.06  3523.87  3525.10  3559.13  3559.37  3559.64
eigval :     3564.49  3564.75  3569.96
           -------------------------------------------------
          |                Property Printout                |
           -------------------------------------------------

    * Orbital Energies and Occupations

         #    Occupation            Energy/Eh            Energy/eV
      -------------------------------------------------------------
         1        2.0000           -0.7823109             -21.2878
       ...           ...                  ...                  ...
        58        2.0000           -0.5010464             -13.6342
        59        2.0000           -0.4990269             -13.5792
        60        2.0000           -0.4967026             -13.5160
        61        2.0000           -0.4961946             -13.5021
        62        2.0000           -0.4929774             -13.4146
        63        2.0000           -0.4911144             -13.3639
        64        2.0000           -0.4889693             -13.3055
        65        2.0000           -0.4868368             -13.2475
        66        2.0000           -0.4838023             -13.1649
        67        2.0000           -0.4817375             -13.1087
        68        2.0000           -0.4771325             -12.9834
        69        2.0000           -0.4757652             -12.9462
        70        2.0000           -0.4720641             -12.8455 (HOMO)
        71                         -0.2628033              -7.1512 (LUMO)
        72                         -0.2615629              -7.1175
        73                         -0.2495174              -6.7897
        74                         -0.2463393              -6.7032
        75                         -0.1388273              -3.7777
        76                         -0.0934790              -2.5437
        77                         -0.0915017              -2.4899
        78                         -0.0782020              -2.1280
        79                         -0.0675833              -1.8390
        80                         -0.0615788              -1.6756
        81                         -0.0593600              -1.6153
       ...                                ...                  ...
       122                          0.5784892              15.7415
      -------------------------------------------------------------
                  HL-Gap            0.2092607 Eh            5.6943 eV
             Fermi-level           -0.3674337 Eh           -9.9984 eV

     #   Z          covCN         q      C6AA      α(0)
     1   8 O        1.652    -0.485    22.582     6.415
     2   6 C        3.673     0.078    19.503     6.329
     3   1 H        0.924     0.048     2.345     2.395
     4   1 H        0.923     0.039     2.456     2.451
     5   6 C        3.763    -0.063    21.763     6.650
     6   1 H        0.924     0.124     1.578     1.965
     7   1 H        0.924     0.068     2.108     2.271
     8   7 N        3.623     0.160    18.552     6.397
     9   6 C        3.736    -0.118    22.848     6.821
    10   1 H        0.925     0.125     1.576     1.963
    11   1 H        0.925     0.074     2.045     2.236
    12   1 H        0.925     0.118     1.632     1.998
    13   6 C        3.723    -0.105    22.617     6.791
    14   1 H        0.925     0.122     1.599     1.978
    15   1 H        0.925     0.076     2.018     2.222
    16   1 H        0.925     0.095     1.830     2.115
    17   6 C        3.730    -0.119    22.883     6.829
    18   1 H        0.925     0.107     1.721     2.051
    19   1 H        0.925     0.118     1.629     1.996
    20   1 H        0.925     0.106     1.736     2.060
    21   1 H        0.801     0.339     0.614     1.231
    22   6 C        2.675     0.347    21.104     7.517
    23   8 O        0.860    -0.511    24.029     6.572
    24   7 N        2.645    -0.288    27.433     7.779
    25   1 H        0.860     0.201     1.100     1.643
    26   1 H        0.861     0.187     1.176     1.698
    27   7 N        2.645    -0.289    27.457     7.782
    28   1 H        0.861     0.187     1.176     1.699
    29   1 H        0.860     0.200     1.104     1.646
    30   6 C        2.675     0.339    21.241     7.542
    31   8 O        0.860    -0.536    24.589     6.648
    32   7 N        2.650    -0.292    27.524     7.792
    33   1 H        0.861     0.190     1.157     1.685
    34   1 H        0.860     0.224     0.992     1.560
    35   7 N        2.650    -0.296    27.636     7.808
    36   1 H        0.860     0.223     0.994     1.562
    37   1 H        0.860     0.207     1.069     1.620
    38   6 C        2.675     0.346    21.125     7.521
    39   8 O        0.860    -0.518    24.187     6.594
    40   7 N        2.646    -0.290    27.477     7.785
    41   1 H        0.860     0.199     1.110     1.650
    42   1 H        0.861     0.185     1.186     1.706
    43   7 N        2.646    -0.290    27.474     7.785
    44   1 H        0.861     0.185     1.185     1.705
    45   1 H        0.860     0.199     1.111     1.651
    46   6 C        2.675     0.344    21.152     7.526
    47   8 O        0.860    -0.529    24.433     6.627
    48   7 N        2.644    -0.313    28.047     7.865
    49   1 H        0.860     0.240     0.924     1.505
    50   1 H        0.860     0.169     1.278     1.771
    51   7 N        2.644    -0.299    27.707     7.818
    52   1 H        0.860     0.177     1.230     1.737
    53   1 H        0.860     0.193     1.143     1.675

 Mol. C6AA /au·bohr⁶  :      21806.642280
 Mol. C8AA /au·bohr⁸  :     454280.376990
 Mol. α(0) /au        :        220.637596


Wiberg/Mayer (AO) data.
largest (>0.10) Wiberg bond orders for each atom

 ---------------------------------------------------------------------------
     #   Z sym  total        # sym  WBO       # sym  WBO       # sym  WBO
 ---------------------------------------------------------------------------
     1   8 O    1.942 --     2 C    1.026    21 H    0.791
     2   6 C    3.969 --     1 O    1.026     5 C    0.990     3 H    0.968
                             4 H    0.962
     3   1 H    0.997 --     2 C    0.968
     4   1 H    0.998 --     2 C    0.962
     5   6 C    3.935 --     2 C    0.990     7 H    0.970     6 H    0.947
                             8 N    0.938
     6   1 H    0.985 --     5 C    0.947
     7   1 H    0.995 --     5 C    0.970
     8   7 N    3.823 --    13 C    0.963     9 C    0.955    17 C    0.951
                             5 C    0.938
     9   6 C    3.919 --    11 H    0.980    12 H    0.963    10 H    0.962
                             8 N    0.955
    10   1 H    0.984 --     9 C    0.962
    11   1 H    0.995 --     9 C    0.980
    12   1 H    0.986 --     9 C    0.963
    13   6 C    3.932 --    15 H    0.980    16 H    0.974     8 N    0.963
                            14 H    0.961
    14   1 H    0.985 --    13 C    0.961
    15   1 H    0.994 --    13 C    0.980
    16   1 H    0.991 --    13 C    0.974
    17   6 C    3.911 --    20 H    0.969    18 H    0.967    19 H    0.964
                             8 N    0.951
    18   1 H    0.988 --    17 C    0.967
    19   1 H    0.986 --    17 C    0.964
    20   1 H    0.989 --    17 C    0.969
    21   1 H    0.885 --     1 O    0.791
    22   6 C    3.959 --    23 O    1.537    24 N    1.208    27 N    1.206
    23   8 O    1.923 --    22 C    1.537    27 N    0.143    24 N    0.143
    24   7 N    3.321 --    22 C    1.208    26 H    0.946    25 H    0.942
                            23 O    0.143
    25   1 H    0.960 --    24 N    0.942
    26   1 H    0.965 --    24 N    0.946
    27   7 N    3.321 --    22 C    1.206    28 H    0.946    29 H    0.943
                            23 O    0.143
    28   1 H    0.965 --    27 N    0.946
    29   1 H    0.960 --    27 N    0.943
    30   6 C    3.960 --    31 O    1.453    35 N    1.259    32 N    1.243
    31   8 O    1.928 --    30 C    1.453    35 N    0.134    32 N    0.130
    32   7 N    3.343 --    30 C    1.243    33 H    0.946    34 H    0.912
                            31 O    0.130
    33   1 H    0.964 --    32 N    0.946
    34   1 H    0.950 --    32 N    0.912
    35   7 N    3.352 --    30 C    1.259    37 H    0.934    36 H    0.907
                            31 O    0.134
    36   1 H    0.950 --    35 N    0.907
    37   1 H    0.957 --    35 N    0.934
    38   6 C    3.959 --    39 O    1.543    43 N    1.205    40 N    1.205
    39   8 O    1.899 --    38 C    1.543    43 N    0.144    40 N    0.144
    40   7 N    3.320 --    38 C    1.205    42 H    0.947    41 H    0.943
                            39 O    0.144
    41   1 H    0.960 --    40 N    0.943
    42   1 H    0.966 --    40 N    0.947
    43   7 N    3.320 --    38 C    1.205    44 H    0.947    45 H    0.943
                            39 O    0.144
    44   1 H    0.966 --    43 N    0.947
    45   1 H    0.960 --    43 N    0.943
    46   6 C    3.959 --    47 O    1.529    48 N    1.236    51 N    1.185
    47   8 O    1.892 --    46 C    1.529    48 N    0.148    51 N    0.135
    48   7 N    3.324 --    46 C    1.236    50 H    0.952    49 H    0.875
                            47 O    0.148
    49   1 H    0.942 --    48 N    0.875
    50   1 H    0.971 --    48 N    0.952
    51   7 N    3.298 --    46 C    1.185    52 H    0.949    53 H    0.946
                            47 O    0.135
    52   1 H    0.968 --    51 N    0.949
    53   1 H    0.963 --    51 N    0.946
 ---------------------------------------------------------------------------

Topologies differ in total number of bonds
Writing topology from bond orders to xtbtopo.mol

molecular dipole:
                 x           y           z       tot (Debye)
 q only:       -0.677       0.007      -0.599
   full:       -0.479       0.613      -0.530       2.392
molecular quadrupole (traceless):
                xx          xy          yy          xz          yz          zz
 q only:       41.720      79.838       0.501     -21.185     -20.236     -42.221
  q+dip:       48.752      90.037      -1.520     -24.371     -22.059     -47.232
   full:       48.590      89.499      -1.204     -24.128     -22.351     -47.386

           -------------------------------------------------
          |               Frequency Printout                |
           -------------------------------------------------
 projected vibrational frequencies (cm⁻¹)
eigval :       -0.00    -0.00     0.00     0.00     0.00     0.00
eigval :       -9.03     4.50     7.95    15.45    17.27    20.65
eigval :       25.68    28.94    37.99    39.53    45.86    53.23
eigval :       59.87    64.91    74.37    77.49    88.02    97.13
eigval :      102.52   115.44   117.42   125.36   132.14   172.29
eigval :      183.27   194.81   251.98   256.34   273.84   278.05
eigval :      314.76   315.04   326.56   327.23   355.32   359.35
eigval :      372.39   381.43   398.37   428.54   443.92   444.91
eigval :      454.39   457.35   463.09   466.25   471.78   472.47
eigval :      483.54   500.65   501.43   511.10   530.70   533.60
eigval :      545.75   569.82   570.88   581.38   636.39   669.55
eigval :      674.24   676.00   679.10   721.87   769.53   859.56
eigval :      895.63   930.94   946.84   950.76   973.72   994.73
eigval :      995.41   996.98  1004.82  1011.38  1015.13  1028.85
eigval :     1031.41  1040.17  1045.16  1081.46  1083.73  1096.87
eigval :     1101.16  1107.64  1114.52  1136.81  1176.03  1230.75
eigval :     1252.41  1284.45  1310.68  1338.86  1343.84  1348.03
eigval :     1351.51  1353.85  1364.61  1397.79  1404.45  1405.48
eigval :     1428.66  1435.82  1442.40  1446.94  1451.24  1456.38
eigval :     1457.08  1457.59  1465.13  1471.64  1474.19  1479.19
eigval :     1494.18  1496.22  1496.51  1500.39  1529.37  1665.20
eigval :     1715.88  1725.00  1729.64  2882.24  2953.99  2967.12
eigval :     2985.32  2991.96  3037.24  3039.86  3041.15  3042.46
eigval :     3046.03  3052.67  3053.65  3058.75  3062.26  3233.63
eigval :     3393.13  3432.57  3495.00  3496.01  3499.88  3500.08
eigval :     3504.06  3523.87  3525.10  3559.13  3559.37  3559.64
eigval :     3564.49  3564.75  3569.96
 reduced masses (amu)
   1: 12.52   2: 12.82   3: 12.79   4: 12.41   5: 12.40   6: 12.48   7: 10.99   8: 11.73
   9: 11.85  10: 12.00  11: 12.42  12: 11.94  13: 12.26  14: 12.14  15: 12.51  16: 12.29
  17: 13.21  18: 12.92  19: 12.58  20: 12.19  21: 12.65  22: 13.60  23: 14.13  24: 11.89
  25: 12.23  26: 12.01  27: 12.09  28: 12.44  29: 11.76  30: 12.48  31:  3.78  32: 10.43
  33:  3.64  34: 11.35  35:  4.40  36:  5.58  37:  4.67  38:  7.65  39:  3.84  40:  3.69
  41:  3.72  42:  4.92  43:  4.68  44:  3.14  45:  3.38  46:  8.61  47:  1.71  48:  1.71
  49:  8.30  50:  8.53  51:  3.34  52:  6.14  53:  4.51  54:  7.49  55:  8.51  56:  3.55
  57:  3.30  58:  8.59  59:  9.55  60:  9.71  61: 11.32  62:  9.21  63:  8.75  64:  3.92
  65:  3.97  66: 11.15  67: 11.99  68: 11.87  69:  9.98  70:  2.64  71:  9.33  72:  2.02
  73:  6.74  74:  8.49  75:  5.24  76:  5.16  77:  4.86  78:  8.81  79:  5.13  80:  8.85
  81:  7.63  82:  9.33  83:  7.92  84:  8.63  85:  8.40  86:  3.15  87:  4.95  88:  9.64
  89:  9.54  90:  7.83  91:  6.70  92:  5.31  93:  7.81  94:  8.70  95:  3.19  96:  5.04
  97:  6.17  98:  7.95  99:  6.62 100:  3.25 101:  3.94 102:  4.75 103:  5.90 104:  6.04
 105:  6.28 106:  2.60 107:  2.59 108:  2.70 109:  2.27 110:  1.94 111:  1.82 112:  3.08
 113:  1.67 114:  2.89 115:  1.99 116:  3.04 117:  2.86 118:  1.75 119:  1.64 120:  1.62
 121:  2.38 122:  7.68 123:  7.73 124:  7.74 125: 10.21 126: 12.57 127: 12.80 128: 12.83
 129: 12.85 130:  1.77 131:  1.70 132:  1.83 133:  1.75 134:  1.83 135:  1.52 136:  1.71
 137:  1.84 138:  1.35 139:  1.96 140:  1.75 141:  1.81 142:  1.82 143:  1.82 144:  1.77
 145:  1.61 146:  1.61 147:  1.45 148:  1.44 149:  1.46 150:  1.44 151:  1.46 152:  2.06
 153:  1.91 154:  2.15 155:  2.08 156:  2.17 157:  2.19 158:  2.18 159:  2.18
 IR intensities (km·mol⁻¹)
   1:  1.94   2:  1.36   3:  2.40   4:  0.35   5:  1.36   6:  1.43   7:  0.04   8:  0.16
   9:  1.28  10:  3.65  11:  2.89  12:  0.95  13:  3.58  14:  0.39  15:  2.09  16:  2.73
  17:  0.53  18:  2.16  19:  0.77  20:  4.25  21: 10.23  22:  2.83  23:  0.91  24:  3.22
  25: 15.44  26: 13.58  27: 10.32  28: 22.17  29:  7.63  30: 10.65  31: 14.14  32:  9.35
  33: 19.76  34:  8.48  35: 22.28  36:  4.22  37:112.57  38: 44.83  39: 86.82  40:403.42
  41:435.75  42: 14.38  43:  0.63  44:  4.05  45:162.32  46:  0.95  47:  5.05  48:  6.31
  49:  0.48  50:  4.00  51: 53.03  52:222.36  53:200.74  54: 16.34  55: 20.63  56:115.49
  57: 37.03  58: 94.96  59: 35.47  60: 55.24  61: 26.78  62: 32.28  63: 19.01  64: 10.10
  65: 78.38  66: 15.20  67: 31.57  68: 36.51  69:104.94  70:221.66  71:  4.11  72:279.10
  73:  1.53  74:  6.02  75:  1.43  76:  1.46  77:  0.13  78:  0.15  79:  9.52  80:  0.32
  81: 21.46  82: 24.24  83: 22.01  84: 15.52  85:  9.61  86:  1.36  87: 26.95  88:  2.19
  89:  0.80  90:  5.68  91: 12.81  92: 18.49  93:  0.96  94: 51.07  95: 15.68  96:  2.27
  97:  3.18  98: 19.66  99:  9.49 100:  5.65 101: 52.05 102: 18.39 103: 78.80 104: 68.46
 105:177.67 106:  1.19 107: 33.87 108:114.65 109:  3.85 110:  1.04 111:  0.42 112: 34.19
 113:  1.12 114:  8.77 115: 11.04 116: 14.27 117:  5.08 118: 11.18 119: 15.26 120: 19.39
 121: 21.81 122:147.30 123:595.44 124:759.20 125:537.60 126:****** 127:****** 128:430.88
 129:505.11 130: 38.63 131:509.70 132:204.43 133:559.72 134: 84.47 135:  7.23 136: 11.33
 137:  8.25 138: 20.02 139:  6.12 140: 29.24 141: 44.42 142: 10.33 143:  8.26 144:******
 145: 78.82 146:372.74 147: 13.06 148: 39.55 149:  4.68 150: 37.98 151:  7.43 152:106.70
 153:  9.92 154: 11.90 155: 45.47 156:  6.14 157: 13.54 158: 18.36 159: 10.82
 Raman intensities (amu)
Molecule has no symmetry elements
It seems to be the C1 point group
   1:  0.00   2:  0.00   3:  0.00   4:  0.00   5:  0.00   6:  0.00   7:  0.00   8:  0.00
   9:  0.00  10:  0.00  11:  0.00  12:  0.00  13:  0.00  14:  0.00  15:  0.00  16:  0.00
  17:  0.00  18:  0.00  19:  0.00  20:  0.00  21:  0.00  22:  0.00  23:  0.00  24:  0.00
  25:  0.00  26:  0.00  27:  0.00  28:  0.00  29:  0.00  30:  0.00  31:  0.00  32:  0.00
  33:  0.00  34:  0.00  35:  0.00  36:  0.00  37:  0.00  38:  0.00  39:  0.00  40:  0.00
  41:  0.00  42:  0.00  43:  0.00  44:  0.00  45:  0.00  46:  0.00  47:  0.00  48:  0.00
  49:  0.00  50:  0.00  51:  0.00  52:  0.00  53:  0.00  54:  0.00  55:  0.00  56:  0.00
  57:  0.00  58:  0.00  59:  0.00  60:  0.00  61:  0.00  62:  0.00  63:  0.00  64:  0.00
  65:  0.00  66:  0.00  67:  0.00  68:  0.00  69:  0.00  70:  0.00  71:  0.00  72:  0.00
  73:  0.00  74:  0.00  75:  0.00  76:  0.00  77:  0.00  78:  0.00  79:  0.00  80:  0.00
  81:  0.00  82:  0.00  83:  0.00  84:  0.00  85:  0.00  86:  0.00  87:  0.00  88:  0.00
  89:  0.00  90:  0.00  91:  0.00  92:  0.00  93:  0.00  94:  0.00  95:  0.00  96:  0.00
  97:  0.00  98:  0.00  99:  0.00 100:  0.00 101:  0.00 102:  0.00 103:  0.00 104:  0.00
 105:  0.00 106:  0.00 107:  0.00 108:  0.00 109:  0.00 110:  0.00 111:  0.00 112:  0.00
 113:  0.00 114:  0.00 115:  0.00 116:  0.00 117:  0.00 118:  0.00 119:  0.00 120:  0.00
 121:  0.00 122:  0.00 123:  0.00 124:  0.00 125:  0.00 126:  0.00 127:  0.00 128:  0.00
 129:  0.00 130:  0.00 131:  0.00 132:  0.00 133:  0.00 134:  0.00 135:  0.00 136:  0.00
 137:  0.00 138:  0.00 139:  0.00 140:  0.00 141:  0.00 142:  0.00 143:  0.00 144:  0.00
 145:  0.00 146:  0.00 147:  0.00 148:  0.00 149:  0.00 150:  0.00 151:  0.00 152:  0.00
 153:  0.00 154:  0.00 155:  0.00 156:  0.00 157:  0.00 158:  0.00 159:  0.00
 output can be read by thermo (or use thermo option).
 writing <g98.out> molden fake output.
 recommended (thermochemical) frequency scaling factor: 1.0
           -------------------------------------------------
          |             Thermodynamic Functions             |
           -------------------------------------------------

c1  symmetry found (for desy threshold:  0.10E+00) used in thermo
 inverting freq            1   9.0293572666470094     

          ...................................................
          :                      SETUP                      :
          :.................................................:
          :  # frequencies                         153      :
          :  # imaginary freq.                       0      :
          :  linear?                             false      :
          :  only rotor calc.                    false      :
          :  symmetry                               c1      :
          :  rotational number                       1      :
          :  scaling factor                  1.0000000      :
          :  rotor cutoff                   50.0000000 cm⁻¹ :
          :  imag. cutoff                  -20.0000000 cm⁻¹ :
          :.................................................:

    mode    ω/cm⁻¹     T·S(HO)/kcal·mol⁻¹    T·S(FR)/kcal·mol⁻¹   T·S(vib)
   ------------------------------------------------------------------------
       1      9.03    -2.44898 (  0.11%)    -1.56348 ( 99.89%)    -1.56442
       2      4.50    -2.86100 (  0.01%)    -1.76941 ( 99.99%)    -1.76948
       3      7.95    -2.52473 (  0.06%)    -1.60135 ( 99.94%)    -1.60194
       4     15.45    -2.13097 (  0.90%)    -1.40447 ( 99.10%)    -1.41103
       5     17.27    -2.06499 (  1.40%)    -1.37147 ( 98.60%)    -1.38120
       6     20.65    -1.95914 (  2.83%)    -1.31852 ( 97.17%)    -1.33662
       7     25.68    -1.83004 (  6.50%)    -1.25391 ( 93.50%)    -1.29139
       8     28.94    -1.75927 ( 10.09%)    -1.21848 ( 89.91%)    -1.27307
       9     37.99    -1.59847 ( 24.99%)    -1.13791 ( 75.01%)    -1.25303
      10     39.53    -1.57492 ( 28.10%)    -1.12610 ( 71.90%)    -1.25223
      11     45.86    -1.48727 ( 41.44%)    -1.08213 ( 58.56%)    -1.25004
      12     53.23    -1.39941 ( 56.23%)    -1.03799 ( 43.77%)    -1.24120
      13     59.87    -1.33022 ( 67.27%)    -1.00318 ( 32.73%)    -1.22318
      14     64.91    -1.28269 ( 73.96%)    -0.97924 ( 26.04%)    -1.20366
      15     74.37    -1.20277 ( 83.04%)    -0.93891 ( 16.96%)    -1.15802
      16     77.49    -1.17872 ( 85.23%)    -0.92675 ( 14.77%)    -1.14150
      17     88.02    -1.10424 ( 90.57%)    -0.88901 (  9.43%)    -1.08394
      18     97.13    -1.04683 ( 93.44%)    -0.85983 (  6.56%)    -1.03456
      19    102.52    -1.01544 ( 94.65%)    -0.84382 (  5.35%)    -1.00625
      20    115.44    -0.94672 ( 96.60%)    -0.80867 (  3.40%)    -0.94202
      21    117.42    -0.93688 ( 96.82%)    -0.80362 (  3.18%)    -0.93264
      22    125.36    -0.89923 ( 97.53%)    -0.78425 (  2.47%)    -0.89639
      23    132.14    -0.86900 ( 97.99%)    -0.76864 (  2.01%)    -0.86698
      24    172.29    -0.71863 ( 99.30%)    -0.69004 (  0.70%)    -0.71843
      25    183.27    -0.68420 ( 99.45%)    -0.67174 (  0.55%)    -0.68414
      26    194.81    -0.65045 ( 99.57%)    -0.65366 (  0.43%)    -0.65046
      27    251.98    -0.51184 ( 99.85%)    -0.57743 (  0.15%)    -0.51194
      28    256.34    -0.50286 ( 99.86%)    -0.57235 (  0.14%)    -0.50296
      29    273.84    -0.46865 ( 99.89%)    -0.55279 (  0.11%)    -0.46875
      30    278.05    -0.46083 ( 99.90%)    -0.54826 (  0.10%)    -0.46092
   ------------------------------------------------------------------------

   temp. (K)  partition function   enthalpy   heat capacity  entropy
                                   cal/mol     cal/K/mol   cal/K/mol   J/K/mol
 298.15  VIB  0.260E+21            20055.941    102.291    136.075
         ROT  0.242E+08              888.752      2.981     36.765
         INT  0.627E+28            20944.694    105.272    172.839
         TR   0.618E+28             1481.254      4.968     43.384
         TOT                       22425.9477   110.2405   216.2236   904.6795

       T/K    H(0)-H(T)+PV         H(T)/Eh          T*S/Eh         G(T)/Eh
   ------------------------------------------------------------------------
    298.15    0.357380E-01    0.474058E+00    0.102735E+00    0.371324E+00
   ------------------------------------------------------------------------

         :::::::::::::::::::::::::::::::::::::::::::::::::::::
         ::                  THERMODYNAMIC                  ::
         :::::::::::::::::::::::::::::::::::::::::::::::::::::
         :: total free energy         -80.560110906619 Eh   ::
         ::.................................................::
         :: total energy              -80.931434426770 Eh   ::
         :: zero point energy           0.438320304940 Eh   ::
         :: G(RRHO) w/o ZPVE           -0.066996784789 Eh   ::
         :: G(RRHO) contrib.            0.371323520151 Eh   ::
         :::::::::::::::::::::::::::::::::::::::::::::::::::::
imag cut-off (cm-1) :    5.00
 found            1  significant imaginary frequency
 writing imag mode distorted coords to xtbhess.xyz
 for further optimization.

           -------------------------------------------------
          | TOTAL ENERGY              -80.931434426770 Eh   |
          | TOTAL ENTHALPY            -80.457376099415 Eh   |
          | TOTAL FREE ENERGY         -80.560110906619 Eh   |
          | GRADIENT NORM               0.000073609293 Eh/α |
          | HOMO-LUMO GAP               5.694274672803 eV   |
           -------------------------------------------------

------------------------------------------------------------------------
 * finished run on 2024/01/10 at 15:37:56.861     
------------------------------------------------------------------------
 total:
 * wall-time:     0 d,  0 h,  0 min, 13.738 sec
 *  cpu-time:     0 d,  0 h,  0 min, 13.658 sec
 * ratio c/w:     0.994 speedup
 SCF:
 * wall-time:     0 d,  0 h,  0 min,  0.083 sec
 *  cpu-time:     0 d,  0 h,  0 min,  0.055 sec
 * ratio c/w:     0.657 speedup
 analytical hessian:
 * wall-time:     0 d,  0 h,  0 min, 13.628 sec
 *  cpu-time:     0 d,  0 h,  0 min, 13.577 sec
 * ratio c/w:     0.996 speedup

