 Entering Gaussian System
 *********************************************
 Gaussian 98:
 frequency output generated by the xtb code
 *********************************************
                         Standard orientation:
 --------------------------------------------------------------------
  Center     Atomic     Atomic              Coordinates (Angstroms)
  Number     Number      Type              X           Y           Z
 --------------------------------------------------------------------
    1          8             0        1.232512   -2.111255    0.062141
    2          6             0       -0.146531   -2.047992   -0.212989
    3          1             0       -0.412525   -1.082759   -0.650586
    4          1             0       -0.425680   -2.829754   -0.935117
    5          6             0       -0.997256   -2.290188    1.034749
    6          1             0       -0.857587   -3.314846    1.383040
    7          1             0       -2.034555   -2.135059    0.731479
    8          7             0       -0.734353   -1.382726    2.186553
    9          6             0        0.485951   -1.797752    2.896339
   10          1             0        0.343711   -2.777005    3.350344
   11          1             0        0.726001   -1.075311    3.673482
   12          1             0        1.308599   -1.848596    2.185421
   13          6             0       -1.895239   -1.459065    3.089137
   14          1             0       -2.079430   -2.490295    3.385004
   15          1             0       -2.768711   -1.071326    2.565310
   16          1             0       -1.712850   -0.861933    3.980227
   17          6             0       -0.587495    0.012348    1.742213
   18          1             0        0.336802    0.140073    1.187135
   19          1             0       -0.551831    0.673796    2.604179
   20          1             0       -1.442832    0.276365    1.120661
   21          1             0        1.711742   -1.758252   -0.722482
   22          6             0        3.550168   -2.040814   -2.382389
   23          8             0        2.602184   -1.290645   -2.141967
   24          7             0        4.372837   -1.828222   -3.428688
   25          1             0        4.214867   -1.031045   -4.018911
   26          1             0        5.152155   -2.426675   -3.631474
   27          7             0        3.810287   -3.119966   -1.617057
   28          1             0        4.592684   -3.723759   -1.789730
   29          1             0        3.227079   -3.298698   -0.817042
   30          6             0        0.754630    3.423783    1.709761
   31          8             0        1.435896    2.403314    1.631351
   32          7             0        0.996494    4.356975    2.670923
   33          1             0        1.847388    4.266316    3.197843
   34          1             0        0.563828    5.262490    2.639924
   35          7             0       -0.303422    3.646087    0.911211
   36          1             0       -0.812876    4.509525    0.947697
   37          1             0       -0.506435    2.987021    0.156236
   38          6             0        0.276218    1.168560   -1.533325
   39          8             0       -0.725239    1.784366   -1.141759
   40          7             0        0.270034    0.474654   -2.695899
   41          1             0       -0.567257    0.440794   -3.247839
   42          1             0        1.047196   -0.122121   -2.925949
   43          7             0        1.414957    1.124291   -0.831318
   44          1             0        2.198028    0.605285   -1.188994
   45          1             0        1.500980    1.638391    0.050216
   46          6             0       -3.989950    0.188491   -0.364704
   47          8             0       -3.336441   -0.433038    0.469020
   48          7             0       -5.345294    0.094696   -0.407483
   49          1             0       -5.795140   -0.583657    0.180747
   50          1             0       -5.880316    0.494860   -1.156358
   51          7             0       -3.422944    0.981738   -1.295564
   52          1             0       -4.001047    1.581015   -1.857632
   53          1             0       -2.441380    1.247433   -1.209242
 --------------------------------------------------------------------
     1 basis functions        1 primitive gaussians
     1 alpha electrons        1 beta electrons

 Harmonic frequencies (cm**-1), IR intensities (km*mol⁻¹),
 Raman scattering activities (A**4/amu), Raman depolarization ratios,
 reduced masses (AMU), force constants (mDyne/A) and normal coordinates:
                      1                      2                      3
                        a                      a                      a 
 Frequencies --    14.4381                16.2896                25.4092
 Red. masses --    12.1715                12.2875                12.2181
 Frc consts  --     0.0000                 0.0000                 0.0000
 IR Inten    --     0.3289                 2.5316                 1.9623
 Raman Activ --     0.0000                 0.0000                 0.0000
 Depolar     --     0.0000                 0.0000                 0.0000
 Atom AN      X      Y      Z        X      Y      Z        X      Y      Z
   1   8     0.04   0.17   0.10     0.08   0.01   0.02     0.04   0.22  -0.02
   2   6     0.04   0.08   0.08     0.08   0.04   0.01     0.03   0.16  -0.01
   3   1    -0.00   0.02   0.02     0.03   0.02   0.01     0.00   0.05   0.01
   4   1     0.02   0.02   0.03     0.02   0.02  -0.01     0.01   0.05  -0.01
   5   6     0.04   0.06   0.08     0.06   0.02  -0.01     0.04   0.10  -0.02
   6   1     0.03   0.02   0.03     0.01   0.00  -0.01     0.02   0.03  -0.01
   7   1     0.01  -0.01   0.02     0.02   0.01  -0.01     0.01   0.02  -0.00
   8   7    -0.03   0.12   0.06     0.06  -0.01   0.01    -0.00   0.08   0.00
   9   6    -0.00   0.21   0.08     0.05  -0.03   0.01     0.03   0.13  -0.02
  10   1     0.02   0.06   0.03     0.01  -0.01  -0.00     0.03   0.03  -0.01
  11   1    -0.02   0.07   0.02     0.01  -0.01   0.01    -0.00   0.04   0.00
  12   1     0.00   0.07   0.02     0.02  -0.00   0.01     0.01   0.06  -0.01
  13   6    -0.03   0.05   0.05     0.05  -0.03   0.00     0.01  -0.02   0.01
  14   1     0.01   0.01   0.02     0.01  -0.01  -0.01     0.02  -0.01  -0.01
  15   1    -0.01  -0.01   0.01     0.02  -0.00   0.00    -0.00  -0.01   0.01
  16   1    -0.02   0.02   0.01     0.01  -0.01   0.01    -0.00  -0.01   0.01
  17   6    -0.12   0.11   0.03     0.06   0.00   0.05    -0.09   0.10   0.04
  18   1    -0.03   0.05   0.01     0.02   0.00   0.01    -0.03   0.05   0.02
  19   1    -0.06   0.04   0.00     0.02  -0.01   0.02    -0.04   0.02   0.02
  20   1    -0.03   0.01  -0.00     0.02   0.01   0.02    -0.03   0.02   0.01
  21   1     0.01   0.03   0.02     0.03   0.01   0.01     0.01   0.04  -0.02
  22   6    -0.13  -0.02  -0.08    -0.08  -0.15  -0.11     0.05  -0.04  -0.01
  23   8    -0.09   0.03  -0.04     0.09   0.00   0.03     0.03  -0.04  -0.13
  24   7    -0.24  -0.13  -0.19    -0.14  -0.25  -0.17    -0.04  -0.26  -0.12
  25   1    -0.07  -0.04  -0.06    -0.01  -0.04  -0.02    -0.03  -0.11  -0.08
  26   1    -0.07  -0.04  -0.06    -0.07  -0.10  -0.07    -0.00  -0.07  -0.00
  27   7    -0.10   0.02  -0.04    -0.25  -0.29  -0.23     0.17   0.17   0.25
  28   1    -0.03  -0.00  -0.02    -0.10  -0.11  -0.09     0.05   0.04   0.09
  29   1    -0.00   0.03   0.01    -0.05  -0.06  -0.05     0.06   0.08   0.08
  30   6     0.12  -0.03   0.09    -0.20   0.11   0.05    -0.08  -0.18   0.04
  31   8     0.12  -0.05   0.06    -0.15   0.18   0.11     0.06  -0.10  -0.08
  32   7     0.20  -0.04   0.09    -0.36   0.14   0.07    -0.16  -0.23   0.09
  33   1     0.06  -0.02   0.01    -0.10   0.05   0.03    -0.03  -0.04   0.01
  34   1     0.06  -0.01   0.03    -0.11   0.03   0.01    -0.08  -0.08   0.05
  35   7     0.08  -0.02   0.17    -0.18   0.05  -0.02    -0.20  -0.32   0.15
  36   1     0.03  -0.00   0.05    -0.07   0.00  -0.01    -0.07  -0.10   0.05
  37   1     0.01  -0.00   0.04    -0.02   0.01  -0.01    -0.03  -0.07   0.02
  38   6    -0.01   0.05   0.06     0.12   0.04   0.04     0.07  -0.03  -0.11
  39   8    -0.00   0.02   0.15     0.09  -0.00  -0.02     0.04  -0.13  -0.07
  40   7    -0.05   0.09   0.04     0.28   0.12   0.00     0.13   0.08  -0.18
  41   1    -0.03   0.01   0.03     0.08   0.01  -0.01     0.02  -0.01  -0.03
  42   1    -0.02   0.02   0.00     0.08   0.02   0.03     0.03   0.01  -0.04
  43   7     0.03   0.06   0.00     0.06   0.03   0.17     0.08  -0.01  -0.12
  44   1     0.00   0.02  -0.01     0.04   0.04   0.05     0.03   0.02  -0.04
  45   1     0.02   0.00   0.01    -0.00   0.02   0.04     0.02  -0.01  -0.03
  46   6     0.02  -0.17  -0.18     0.07   0.01   0.00    -0.04   0.06   0.07
  47   8    -0.02  -0.12  -0.11     0.07   0.03   0.02    -0.07   0.04   0.06
  48   7     0.04  -0.31  -0.36     0.07   0.02   0.00    -0.06   0.18   0.13
  49   1     0.01  -0.09  -0.10     0.02   0.01   0.01    -0.02   0.06   0.04
  50   1     0.02  -0.10  -0.11     0.02   0.00  -0.00    -0.01   0.05   0.03
  51   7     0.07  -0.16  -0.14     0.08  -0.02  -0.02    -0.02   0.00   0.03
  52   1     0.02  -0.06  -0.06     0.02  -0.01  -0.01     0.00   0.01   0.01
  53   1     0.01  -0.02  -0.01     0.02  -0.01  -0.01     0.00  -0.02  -0.00
                      4                      5                      6
                        a                      a                      a 
 Frequencies --    28.1979                33.3213                37.1740
 Red. masses --    11.7795                11.8349                12.6884
 Frc consts  --     0.0000                 0.0000                 0.0000
 IR Inten    --     0.7082                 0.3743                 1.6774
 Raman Activ --     0.0000                 0.0000                 0.0000
 Depolar     --     0.0000                 0.0000                 0.0000
 Atom AN      X      Y      Z        X      Y      Z        X      Y      Z
   1   8    -0.04   0.12  -0.17    -0.00  -0.16   0.09     0.10   0.12   0.01
   2   6    -0.05   0.11  -0.07    -0.00  -0.11   0.08     0.08  -0.01  -0.00
   3   1    -0.02   0.04  -0.01     0.01  -0.04  -0.00     0.00  -0.01  -0.01
   4   1    -0.02   0.04  -0.02    -0.01  -0.05   0.04     0.04  -0.02   0.01
   5   6     0.02   0.06  -0.04    -0.01   0.03   0.11     0.09  -0.04   0.00
   6   1     0.02   0.02  -0.02    -0.02   0.02   0.05     0.04  -0.01   0.01
   7   1     0.00   0.01   0.01     0.00   0.02   0.03     0.03  -0.03  -0.00
   8   7     0.05   0.06  -0.03     0.06   0.12   0.03     0.06  -0.01  -0.02
   9   6     0.11   0.10  -0.11     0.02   0.08   0.07     0.06   0.05   0.01
  10   1     0.05   0.02  -0.04    -0.02   0.04   0.05     0.02   0.01   0.01
  11   1     0.03   0.03  -0.03     0.02   0.04  -0.00     0.01   0.02  -0.00
  12   1     0.02   0.04  -0.05     0.01  -0.01   0.02     0.02   0.02   0.01
  13   6     0.10  -0.03   0.03     0.05   0.28   0.03     0.05  -0.02  -0.03
  14   1     0.05  -0.01   0.01    -0.01   0.09   0.04     0.02  -0.01  -0.00
  15   1     0.02  -0.02   0.03     0.02   0.09  -0.00     0.01  -0.02  -0.01
  16   1     0.04  -0.01   0.01     0.03   0.10  -0.01     0.01   0.00  -0.01
  17   6    -0.05   0.07  -0.01     0.16   0.06  -0.09     0.02  -0.01  -0.04
  18   1    -0.02   0.04  -0.01     0.05  -0.02  -0.03     0.01   0.00  -0.01
  19   1    -0.01   0.01   0.00     0.06   0.04  -0.04    -0.00   0.00  -0.02
  20   1    -0.03   0.01   0.01     0.05   0.02  -0.03     0.01  -0.01  -0.02
  21   1    -0.02   0.05  -0.04     0.00  -0.05   0.02     0.02   0.04   0.00
  22   6    -0.00  -0.02   0.08    -0.02   0.01  -0.02    -0.02  -0.03   0.05
  23   8     0.09   0.15  -0.05    -0.06  -0.08   0.08     0.05   0.08  -0.01
  24   7     0.35  -0.00   0.37     0.01   0.23   0.05    -0.02  -0.22   0.02
  25   1     0.17   0.03   0.11    -0.00   0.08   0.05     0.02  -0.06  -0.01
  26   1     0.06  -0.05   0.12     0.01   0.07  -0.01    -0.01  -0.08   0.02
  27   7    -0.47  -0.23  -0.04    -0.01  -0.12  -0.21    -0.11   0.01   0.16
  28   1    -0.13  -0.08   0.04     0.01  -0.01  -0.07    -0.05  -0.02   0.05
  29   1    -0.18  -0.05  -0.05     0.00  -0.07  -0.06    -0.03   0.04   0.05
  30   6     0.03  -0.05   0.01    -0.07  -0.11   0.06    -0.02  -0.04   0.02
  31   8     0.07  -0.03  -0.05     0.11   0.02  -0.13    -0.13  -0.12   0.01
  32   7     0.07  -0.05  -0.02    -0.20  -0.23   0.21    -0.22  -0.29   0.32
  33   1     0.03  -0.01  -0.02    -0.04  -0.04   0.03    -0.08  -0.12   0.12
  34   1     0.01  -0.02   0.01    -0.09  -0.08   0.09     0.00  -0.05   0.07
  35   7    -0.05  -0.11   0.10    -0.17  -0.20   0.18     0.29   0.29  -0.29
  36   1    -0.01  -0.03   0.03    -0.08  -0.07   0.08     0.06   0.06  -0.02
  37   1    -0.01  -0.02   0.02    -0.02  -0.03   0.02     0.05   0.08  -0.07
  38   6    -0.01   0.03  -0.04    -0.05  -0.02  -0.06    -0.09   0.06  -0.07
  39   8    -0.03  -0.03   0.02    -0.00   0.07  -0.09    -0.05   0.18  -0.10
  40   7    -0.03   0.07  -0.06    -0.16  -0.20   0.04    -0.21  -0.12   0.04
  41   1    -0.01   0.03  -0.02    -0.04  -0.05   0.01    -0.04   0.01  -0.01
  42   1     0.00   0.04  -0.04    -0.04  -0.05   0.01    -0.04  -0.00  -0.02
  43   7     0.02   0.07  -0.10    -0.00   0.04  -0.15    -0.06   0.10  -0.13
  44   1     0.01   0.03  -0.04    -0.02  -0.02  -0.03    -0.03  -0.00  -0.02
  45   1     0.01   0.01  -0.02     0.01   0.02  -0.04    -0.01   0.02  -0.03
  46   6    -0.04  -0.07   0.04     0.08   0.07  -0.07     0.03  -0.00   0.00
  47   8    -0.07  -0.04   0.10     0.13   0.17  -0.05     0.10  -0.07  -0.10
  48   7    -0.04  -0.10   0.00     0.09   0.03  -0.05     0.03  -0.05   0.05
  49   1    -0.01  -0.02   0.01     0.03   0.01   0.00     0.02  -0.04  -0.00
  50   1    -0.01  -0.03  -0.00     0.02  -0.01  -0.02    -0.00  -0.00   0.03
  51   7    -0.03  -0.10   0.03     0.05   0.03  -0.14    -0.04   0.14   0.08
  52   1    -0.01  -0.04  -0.00     0.01  -0.01  -0.04    -0.02   0.04   0.04
  53   1    -0.01  -0.02   0.01     0.01   0.02  -0.04    -0.01   0.04   0.01
                      7                      8                      9
                        a                      a                      a 
 Frequencies --    38.8330                40.0779                49.8761
 Red. masses --    12.1289                12.1147                11.4429
 Frc consts  --     0.0000                 0.0000                 0.0000
 IR Inten    --     1.6123                 0.4105                 5.7883
 Raman Activ --     0.0000                 0.0000                 0.0000
 Depolar     --     0.0000                 0.0000                 0.0000
 Atom AN      X      Y      Z        X      Y      Z        X      Y      Z
   1   8    -0.25  -0.10  -0.24     0.06   0.01  -0.06     0.08   0.18   0.16
   2   6    -0.24   0.00  -0.08     0.05  -0.16  -0.08     0.09   0.17   0.05
   3   1    -0.06   0.01  -0.01    -0.01  -0.06  -0.05     0.03   0.06   0.04
   4   1    -0.10   0.01  -0.02     0.04  -0.07  -0.00     0.04   0.07  -0.02
   5   6    -0.13   0.03   0.00     0.05  -0.11  -0.06    -0.00   0.04  -0.04
   6   1    -0.05   0.00  -0.01     0.02  -0.03  -0.00    -0.02  -0.00  -0.05
   7   1    -0.04   0.04   0.03     0.02  -0.04  -0.02     0.01   0.04  -0.03
   8   7     0.08  -0.02   0.00     0.06  -0.06  -0.12    -0.03  -0.13   0.10
   9   6     0.10  -0.16  -0.13     0.02  -0.07  -0.05    -0.14  -0.34   0.16
  10   1     0.02  -0.05  -0.04    -0.01  -0.01  -0.00    -0.08  -0.11   0.00
  11   1     0.07  -0.06  -0.04     0.01  -0.01  -0.02    -0.04  -0.14   0.08
  12   1     0.01  -0.06  -0.06     0.01  -0.04  -0.01    -0.02  -0.09   0.07
  13   6     0.16   0.07   0.12     0.03   0.06  -0.14    -0.12  -0.12  -0.03
  14   1     0.03   0.02   0.03    -0.01   0.03  -0.02    -0.07  -0.04  -0.05
  15   1     0.04   0.05   0.06     0.02   0.02  -0.06    -0.01   0.01  -0.02
  16   1     0.09   0.01   0.03     0.01   0.03  -0.05    -0.04  -0.07   0.02
  17   6     0.17  -0.03   0.02     0.15  -0.09  -0.19     0.15  -0.08   0.27
  18   1     0.03  -0.03  -0.03     0.04  -0.05  -0.06     0.06  -0.03   0.11
  19   1     0.10  -0.01   0.01     0.05  -0.01  -0.07     0.04  -0.05   0.10
  20   1     0.03   0.02   0.04     0.05  -0.02  -0.06     0.07   0.02   0.06
  21   1    -0.07  -0.02  -0.07     0.01   0.02  -0.01     0.03   0.05   0.05
  22   6    -0.05  -0.01   0.03    -0.03  -0.05   0.08    -0.05   0.04   0.05
  23   8    -0.17  -0.08  -0.16     0.03   0.06  -0.01     0.02   0.13   0.11
  24   7    -0.03  -0.10   0.04    -0.06  -0.30   0.01    -0.08  -0.02   0.02
  25   1    -0.02  -0.06  -0.03     0.00  -0.09  -0.02    -0.01   0.01   0.01
  26   1     0.02  -0.01   0.05    -0.02  -0.09   0.03    -0.03  -0.02   0.00
  27   7     0.05   0.18   0.26    -0.07   0.06   0.26    -0.11   0.01   0.03
  28   1     0.02   0.05   0.10    -0.04  -0.01   0.08    -0.04  -0.01   0.00
  29   1    -0.01   0.05   0.06    -0.03   0.05   0.07    -0.02   0.02   0.02
  30   6    -0.02   0.06   0.03    -0.01   0.09   0.05     0.00  -0.05  -0.07
  31   8     0.02   0.10   0.00     0.08   0.17  -0.04    -0.02  -0.08  -0.10
  32   7    -0.12  -0.00   0.13     0.12   0.19  -0.09     0.11  -0.03  -0.13
  33   1    -0.03   0.00   0.04     0.06   0.08  -0.06     0.04  -0.01  -0.05
  34   1    -0.03  -0.00   0.03    -0.01   0.03   0.01     0.03  -0.01  -0.02
  35   7     0.04   0.10  -0.03    -0.26  -0.11   0.32    -0.07  -0.07   0.02
  36   1    -0.01   0.01   0.02    -0.06  -0.02   0.07    -0.00  -0.01  -0.00
  37   1     0.01   0.03  -0.01    -0.05  -0.02   0.07    -0.02  -0.01  -0.00
  38   6     0.01   0.04   0.01    -0.08   0.06   0.06    -0.07   0.07  -0.11
  39   8     0.02   0.07   0.01    -0.06   0.12   0.07    -0.07   0.09  -0.12
  40   7     0.02   0.09  -0.01    -0.18  -0.06   0.14    -0.10   0.05  -0.11
  41   1     0.01   0.03  -0.00    -0.04   0.02   0.02    -0.03   0.01  -0.03
  42   1    -0.00   0.01  -0.00    -0.03   0.01   0.01    -0.03   0.02  -0.03
  43   7    -0.02  -0.04   0.07    -0.06   0.08   0.01    -0.05   0.12  -0.17
  44   1    -0.00   0.00   0.01    -0.02   0.01   0.00    -0.02   0.01  -0.04
  45   1    -0.00   0.01   0.01    -0.00   0.03  -0.00    -0.02   0.01  -0.03
  46   6     0.07  -0.03  -0.00     0.04   0.02  -0.04     0.11   0.02  -0.02
  47   8     0.04   0.22   0.22     0.13  -0.08  -0.20     0.19   0.20   0.06
  48   7     0.10  -0.18  -0.16     0.04  -0.03   0.04     0.12  -0.05   0.04
  49   1     0.02  -0.01  -0.00     0.03  -0.04  -0.01     0.05   0.01   0.05
  50   1     0.04  -0.09  -0.07    -0.01   0.01   0.03     0.02  -0.05   0.00
  51   7     0.12  -0.20  -0.12    -0.06   0.20   0.05     0.06  -0.12  -0.18
  52   1     0.04  -0.10  -0.08    -0.03   0.07   0.05     0.00  -0.06  -0.06
  53   1     0.02  -0.02  -0.01    -0.01   0.05   0.00     0.01  -0.00  -0.05
                     10                     11                     12
                        a                      a                      a 
 Frequencies --    60.4611                68.1005                68.4316
 Red. masses --    12.6737                12.0091                12.4149
 Frc consts  --     0.0000                 0.0000                 0.0000
 IR Inten    --     1.5593                 6.0372                 2.4541
 Raman Activ --     0.0000                 0.0000                 0.0000
 Depolar     --     0.0000                 0.0000                 0.0000
 Atom AN      X      Y      Z        X      Y      Z        X      Y      Z
   1   8    -0.03  -0.05   0.02     0.02  -0.02   0.06    -0.00  -0.02  -0.08
   2   6    -0.03   0.04   0.07     0.04   0.04  -0.05     0.00   0.18  -0.05
   3   1    -0.00   0.02   0.04     0.04   0.01  -0.02     0.03   0.07   0.02
   4   1    -0.03   0.03   0.01     0.02   0.01  -0.02    -0.03   0.09  -0.04
   5   6     0.01  -0.00   0.09    -0.07   0.09  -0.11    -0.02   0.11  -0.08
   6   1     0.01  -0.00   0.02    -0.05   0.02  -0.03    -0.02   0.02  -0.05
   7   1    -0.00  -0.00   0.03    -0.01   0.05  -0.05    -0.00   0.05  -0.02
   8   7     0.02  -0.02   0.11    -0.07   0.05  -0.09    -0.02  -0.01   0.01
   9   6     0.07   0.02   0.04    -0.18  -0.12   0.02     0.04  -0.01  -0.10
  10   1     0.04   0.00   0.01    -0.10  -0.03  -0.00     0.04  -0.02  -0.06
  11   1     0.02   0.01   0.01    -0.05  -0.05   0.02     0.01  -0.03  -0.01
  12   1     0.01   0.02  -0.00    -0.03  -0.06   0.03     0.00   0.04  -0.04
  13   6     0.06  -0.10   0.15    -0.15   0.19  -0.18     0.03  -0.20   0.05
  14   1     0.03  -0.04   0.03    -0.08   0.06  -0.05     0.03  -0.07  -0.02
  15   1     0.01  -0.04   0.06    -0.02   0.08  -0.08    -0.01  -0.05   0.04
  16   1     0.02  -0.04   0.05    -0.05   0.05  -0.05     0.01  -0.09   0.04
  17   6    -0.07   0.00   0.14     0.16   0.03  -0.06    -0.14   0.06   0.17
  18   1    -0.03   0.02   0.04     0.06  -0.03  -0.01    -0.05   0.06   0.05
  19   1    -0.03  -0.01   0.04     0.06   0.01  -0.02    -0.05  -0.01   0.07
  20   1    -0.03  -0.01   0.04     0.06   0.05  -0.03    -0.05   0.02   0.06
  21   1    -0.01  -0.03  -0.00     0.03  -0.01   0.03     0.01  -0.01  -0.01
  22   6    -0.03  -0.04  -0.01     0.05  -0.03   0.02     0.16  -0.06  -0.05
  23   8    -0.14  -0.15  -0.08     0.08  -0.03   0.10     0.26  -0.01   0.03
  24   7     0.05   0.07   0.08    -0.01  -0.03  -0.03     0.09  -0.13  -0.14
  25   1    -0.01   0.01   0.01    -0.00   0.00   0.01     0.04  -0.02  -0.02
  26   1     0.02   0.03   0.02    -0.00  -0.01  -0.02     0.03  -0.03  -0.04
  27   7     0.02  -0.03   0.00     0.08  -0.07  -0.03     0.18  -0.09  -0.08
  28   1     0.03   0.02   0.02     0.01  -0.02  -0.03     0.02  -0.05  -0.05
  29   1    -0.00  -0.02  -0.01     0.03  -0.02  -0.00     0.05  -0.03  -0.02
  30   6    -0.04  -0.04  -0.03     0.08   0.03  -0.02    -0.02   0.05   0.00
  31   8    -0.06  -0.05  -0.04     0.23   0.13  -0.11     0.02   0.09  -0.06
  32   7     0.02  -0.00  -0.09    -0.08  -0.05   0.10     0.01   0.05   0.01
  33   1     0.01  -0.00  -0.03    -0.01   0.01   0.02     0.01   0.02  -0.01
  34   1    -0.00  -0.01  -0.02    -0.04  -0.02   0.03    -0.01   0.01   0.02
  35   7    -0.12  -0.08   0.04     0.10  -0.01  -0.05    -0.09   0.03   0.08
  36   1    -0.00  -0.00  -0.01    -0.02  -0.03   0.02    -0.02   0.01   0.03
  37   1    -0.01  -0.00  -0.01     0.03  -0.01  -0.01    -0.01   0.02   0.01
  38   6     0.01   0.06  -0.11     0.05   0.02  -0.02    -0.06  -0.05   0.05
  39   8     0.06   0.22  -0.23     0.01  -0.10   0.04     0.01   0.13  -0.03
  40   7     0.07   0.17  -0.18     0.10   0.11  -0.09    -0.25  -0.41   0.28
  41   1     0.03   0.07  -0.07     0.01  -0.01   0.00    -0.04  -0.04   0.03
  42   1    -0.01   0.00  -0.02     0.02   0.02  -0.01    -0.04  -0.06   0.03
  43   7    -0.11  -0.22   0.06     0.08   0.09  -0.07    -0.02   0.01  -0.01
  44   1    -0.03  -0.06   0.02     0.03   0.04  -0.03    -0.03  -0.04   0.02
  45   1    -0.02  -0.04   0.01     0.02   0.02  -0.02     0.01   0.02  -0.01
  46   6     0.06   0.04  -0.02    -0.12  -0.06   0.14    -0.04   0.08   0.01
  47   8     0.15  -0.02  -0.13    -0.11   0.03   0.22    -0.13   0.20   0.16
  48   7     0.09  -0.26  -0.17    -0.09  -0.40  -0.07    -0.03  -0.07  -0.21
  49   1     0.05  -0.13  -0.09    -0.01  -0.12  -0.03    -0.02  -0.00  -0.05
  50   1     0.01  -0.04  -0.02    -0.03  -0.10  -0.01     0.01  -0.03  -0.07
  51   7    -0.04   0.44   0.26    -0.17   0.14   0.31     0.01   0.09   0.06
  52   1    -0.03   0.11   0.08    -0.05   0.00   0.05     0.01  -0.00  -0.02
  53   1    -0.01   0.11   0.05    -0.05   0.04   0.08    -0.00   0.03   0.03
                     13                     14                     15
                        a                      a                      a 
 Frequencies --    74.7280                81.6565                87.9724
 Red. masses --    14.0540                13.1668                13.0974
 Frc consts  --     0.0000                 0.0000                 0.0000
 IR Inten    --     9.1781                 1.8813                 3.2098
 Raman Activ --     0.0000                 0.0000                 0.0000
 Depolar     --     0.0000                 0.0000                 0.0000
 Atom AN      X      Y      Z        X      Y      Z        X      Y      Z
   1   8     0.04   0.28   0.04    -0.18   0.35  -0.06     0.07   0.23   0.01
   2   6     0.03   0.09   0.02    -0.18   0.04   0.00     0.06   0.05  -0.02
   3   1    -0.02   0.02   0.01    -0.11  -0.01  -0.01    -0.01  -0.00  -0.03
   4   1     0.04   0.02   0.00    -0.02  -0.01   0.02     0.04  -0.01   0.01
   5   6     0.04  -0.03  -0.00    -0.07  -0.03   0.06     0.04   0.06  -0.02
   6   1     0.03  -0.01  -0.01     0.00  -0.01   0.01     0.01   0.02   0.00
   7   1     0.01  -0.02  -0.01    -0.03  -0.03   0.04     0.01   0.01  -0.01
   8   7    -0.04  -0.06   0.04    -0.04  -0.02   0.05     0.01   0.09  -0.04
   9   6    -0.07  -0.07   0.09    -0.07  -0.08   0.07    -0.06   0.03   0.06
  10   1    -0.02  -0.03   0.01    -0.04  -0.02   0.02    -0.04   0.02   0.02
  11   1    -0.04  -0.03   0.04    -0.01  -0.02   0.02    -0.02   0.01   0.01
  12   1    -0.01  -0.00   0.04    -0.02  -0.04   0.02    -0.01  -0.01   0.03
  13   6    -0.09  -0.11  -0.03    -0.05   0.10   0.04    -0.05   0.21  -0.11
  14   1    -0.03  -0.03  -0.02    -0.03   0.04   0.02    -0.04   0.07  -0.02
  15   1    -0.02  -0.03  -0.02    -0.00   0.04   0.00     0.00   0.07  -0.05
  16   1    -0.04  -0.04   0.00    -0.00   0.04   0.00    -0.02   0.07  -0.04
  17   6    -0.02  -0.03   0.10     0.08  -0.04   0.01     0.14   0.05  -0.07
  18   1    -0.00  -0.00   0.04     0.03  -0.04   0.00     0.05  -0.02  -0.02
  19   1    -0.02  -0.02   0.04     0.04  -0.00  -0.00     0.06   0.02  -0.03
  20   1     0.00  -0.01   0.02     0.03   0.00   0.00     0.05   0.03  -0.03
  21   1    -0.00   0.04  -0.01    -0.06   0.06  -0.04     0.01   0.01  -0.02
  22   6    -0.02  -0.04  -0.09    -0.03   0.05  -0.09     0.12  -0.12  -0.12
  23   8    -0.17  -0.16  -0.29    -0.08   0.02  -0.20     0.04  -0.22  -0.27
  24   7     0.17   0.07   0.08     0.06   0.07  -0.01     0.27  -0.07  -0.02
  25   1     0.02  -0.02  -0.02     0.01  -0.00  -0.03     0.05  -0.05  -0.04
  26   1     0.04   0.01   0.03     0.01   0.01  -0.00     0.06  -0.03  -0.00
  27   7    -0.05  -0.02  -0.05    -0.08   0.07  -0.05     0.12  -0.11  -0.10
  28   1     0.04   0.05   0.05     0.01   0.04   0.03     0.08   0.01   0.02
  29   1    -0.02   0.01  -0.01    -0.02   0.04  -0.01     0.04  -0.02  -0.02
  30   6     0.08   0.13  -0.04    -0.08  -0.05  -0.02    -0.06  -0.04   0.10
  31   8     0.35   0.34  -0.22    -0.18  -0.13   0.12    -0.28  -0.20   0.24
  32   7    -0.19   0.01   0.16    -0.03   0.04  -0.12     0.12   0.03  -0.02
  33   1    -0.03   0.04   0.02    -0.02   0.00  -0.02     0.02  -0.03   0.01
  34   1    -0.08  -0.01   0.05     0.00   0.02  -0.05     0.07   0.02  -0.02
  35   7     0.08   0.06  -0.05    -0.05  -0.06  -0.06    -0.02   0.05   0.08
  36   1    -0.07  -0.04   0.06     0.02   0.00  -0.06     0.05   0.05  -0.02
  37   1     0.02   0.01  -0.01    -0.00  -0.03  -0.01    -0.02   0.01   0.03
  38   6    -0.05  -0.11   0.09     0.14  -0.10   0.05    -0.11  -0.00   0.05
  39   8    -0.02  -0.11   0.15     0.14  -0.18   0.09    -0.10   0.06   0.00
  40   7    -0.09  -0.02   0.04     0.05  -0.32   0.18    -0.06   0.06   0.02
  41   1    -0.04  -0.02   0.03     0.01  -0.10   0.06     0.00   0.05  -0.03
  42   1    -0.04  -0.03   0.01     0.03  -0.05   0.03    -0.02   0.02   0.00
  43   7    -0.07  -0.26   0.12     0.27   0.22  -0.13    -0.19  -0.18   0.17
  44   1    -0.01  -0.02  -0.01     0.06   0.03  -0.01    -0.04  -0.03   0.04
  45   1     0.01  -0.02  -0.00     0.05   0.02  -0.01    -0.05  -0.04   0.04
  46   6     0.03   0.00  -0.06     0.08   0.00   0.02    -0.03   0.01   0.02
  47   8     0.07  -0.07  -0.15     0.09  -0.09  -0.04     0.06   0.17   0.07
  48   7     0.03   0.09   0.05     0.10  -0.07  -0.06    -0.02  -0.10   0.10
  49   1     0.01   0.01   0.00     0.03  -0.04  -0.04     0.01  -0.01   0.06
  50   1     0.00   0.03   0.02     0.03   0.01  -0.00    -0.03  -0.06   0.02
  51   7     0.01   0.02  -0.06     0.08   0.18   0.17    -0.12  -0.08  -0.11
  52   1    -0.00   0.02   0.01     0.03   0.05   0.05    -0.05  -0.04  -0.04
  53   1     0.01  -0.00  -0.02     0.03   0.03   0.04    -0.04   0.01  -0.03
                     16                     17                     18
                        a                      a                      a 
 Frequencies --    89.1488                97.1295               105.0126
 Red. masses --    13.4300                12.9861                13.1341
 Frc consts  --     0.0000                 0.0000                 0.0000
 IR Inten    --     3.1213                 2.2754                13.7736
 Raman Activ --     0.0000                 0.0000                 0.0000
 Depolar     --     0.0000                 0.0000                 0.0000
 Atom AN      X      Y      Z        X      Y      Z        X      Y      Z
   1   8     0.07  -0.11   0.05     0.03  -0.19  -0.05     0.27   0.07   0.14
   2   6     0.08   0.01   0.00     0.03   0.12   0.00     0.24  -0.15   0.02
   3   1     0.05   0.02   0.01     0.06   0.06   0.04     0.05  -0.07  -0.03
   4   1     0.02   0.02  -0.02    -0.04   0.08  -0.03     0.11  -0.08   0.03
   5   6     0.03  -0.00  -0.04     0.01   0.12  -0.02     0.16  -0.10  -0.01
   6   1     0.00  -0.00  -0.02    -0.02   0.02  -0.02     0.04  -0.03   0.01
   7   1     0.01   0.00  -0.02     0.01   0.07  -0.00     0.05  -0.03  -0.02
   8   7    -0.02  -0.03  -0.02     0.10   0.02   0.04     0.11  -0.08  -0.04
   9   6    -0.02  -0.00  -0.01     0.12  -0.05  -0.06     0.10  -0.00   0.02
  10   1     0.00  -0.01  -0.01     0.04  -0.02  -0.03     0.04  -0.00   0.01
  11   1    -0.02  -0.00   0.01     0.06  -0.03  -0.01     0.01   0.00   0.01
  12   1    -0.00   0.01   0.00     0.02  -0.01  -0.03     0.04   0.01   0.02
  13   6    -0.03  -0.10  -0.04     0.13  -0.03   0.08     0.08  -0.09  -0.06
  14   1     0.00  -0.04  -0.02     0.04  -0.02   0.00     0.03  -0.02  -0.01
  15   1    -0.01  -0.04  -0.01     0.03   0.01   0.05     0.02  -0.03  -0.02
  16   1    -0.02  -0.04  -0.00     0.05  -0.03   0.04     0.01  -0.02  -0.02
  17   6    -0.07  -0.00   0.03     0.07   0.06   0.14     0.06  -0.08  -0.09
  18   1    -0.01   0.02   0.02     0.03   0.04   0.06     0.01  -0.02  -0.04
  19   1    -0.04  -0.01   0.01     0.00  -0.00   0.05     0.02  -0.02  -0.03
  20   1    -0.02  -0.01   0.00     0.03   0.02   0.03     0.00  -0.03  -0.01
  21   1     0.03  -0.07  -0.01     0.02  -0.04  -0.00     0.05   0.02   0.03
  22   6    -0.03  -0.18  -0.01    -0.00  -0.04   0.03    -0.12   0.04   0.01
  23   8    -0.25  -0.44  -0.14    -0.02  -0.08   0.04    -0.20   0.00  -0.09
  24   7     0.09   0.03   0.13    -0.01  -0.02   0.03    -0.05   0.08   0.10
  25   1    -0.04  -0.03   0.00    -0.01  -0.00   0.01    -0.03  -0.00  -0.00
  26   1     0.04   0.03   0.03     0.01   0.00   0.01    -0.02   0.01   0.02
  27   7     0.14  -0.15   0.01     0.05  -0.03   0.04    -0.15   0.07   0.06
  28   1     0.10   0.03   0.04     0.01  -0.01  -0.00    -0.01   0.05   0.05
  29   1     0.04  -0.07  -0.00     0.01  -0.03   0.00    -0.04   0.03   0.02
  30   6    -0.05   0.08   0.03    -0.01  -0.02   0.00    -0.05  -0.03  -0.04
  31   8    -0.12   0.06  -0.04    -0.05  -0.05   0.08    -0.10  -0.07  -0.01
  32   7     0.06   0.05   0.05    -0.03   0.01  -0.02    -0.02  -0.02  -0.07
  33   1     0.02  -0.01   0.01    -0.01   0.01  -0.00    -0.01  -0.01  -0.02
  34   1     0.02   0.02   0.03     0.01   0.01  -0.03     0.00  -0.00  -0.03
  35   7    -0.09   0.16   0.11     0.06  -0.00  -0.08    -0.03  -0.01  -0.06
  36   1    -0.00   0.06   0.03    -0.00  -0.01  -0.01    -0.01  -0.00  -0.02
  37   1    -0.02   0.06   0.02    -0.01  -0.03   0.01    -0.02  -0.02  -0.00
  38   6     0.03   0.18  -0.05    -0.05  -0.07   0.10     0.01  -0.07   0.04
  39   8     0.03   0.13   0.05    -0.16  -0.37   0.32     0.02  -0.13   0.13
  40   7    -0.07   0.13  -0.02    -0.00   0.10  -0.01    -0.02  -0.00   0.00
  41   1    -0.05  -0.02   0.05    -0.05  -0.09   0.08    -0.02  -0.02   0.03
  42   1    -0.04   0.00   0.00    -0.01   0.01   0.01    -0.02  -0.01  -0.01
  43   7     0.16   0.42  -0.27     0.06   0.16  -0.06     0.04  -0.08   0.00
  44   1     0.02   0.07  -0.06     0.03   0.07  -0.04     0.02   0.00  -0.02
  45   1     0.03   0.07  -0.05     0.01   0.02  -0.00     0.01  -0.02   0.00
  46   6     0.01  -0.05   0.04    -0.08   0.09  -0.15    -0.09   0.17   0.02
  47   8    -0.07  -0.14   0.05     0.13   0.16  -0.30    -0.26   0.34   0.25
  48   7     0.00   0.07   0.02    -0.08  -0.07   0.03    -0.08   0.05  -0.34
  49   1    -0.02   0.02  -0.00     0.03  -0.05   0.01    -0.06   0.05  -0.08
  50   1     0.01   0.03   0.00    -0.06  -0.04   0.02     0.02   0.00  -0.12
  51   7     0.10  -0.10   0.05    -0.30   0.21  -0.20     0.05   0.12   0.06
  52   1     0.04  -0.01   0.02    -0.11   0.06  -0.02     0.04   0.00  -0.04
  53   1     0.02  -0.03   0.03    -0.08   0.05  -0.07     0.01   0.03   0.04
                     19                     20                     21
                        a                      a                      a 
 Frequencies --   119.9457               123.1574               130.6113
 Red. masses --    12.0769                12.6456                12.1560
 Frc consts  --     0.0000                 0.0000                 0.0000
 IR Inten    --     5.5169                15.0017                10.2918
 Raman Activ --     0.0000                 0.0000                 0.0000
 Depolar     --     0.0000                 0.0000                 0.0000
 Atom AN      X      Y      Z        X      Y      Z        X      Y      Z
   1   8     0.13  -0.26  -0.07    -0.03   0.19   0.05     0.11   0.01   0.03
   2   6     0.13   0.10  -0.09    -0.03  -0.11   0.01     0.11   0.20  -0.04
   3   1     0.10   0.06   0.01    -0.06  -0.05  -0.02     0.08   0.08   0.01
   4   1    -0.00   0.07  -0.06     0.03  -0.06   0.02     0.02   0.09  -0.03
   5   6     0.03   0.11  -0.17     0.02  -0.14   0.03     0.01   0.22  -0.11
   6   1     0.00   0.03  -0.05     0.03  -0.03   0.02    -0.05   0.05  -0.06
   7   1     0.02   0.03  -0.07    -0.00  -0.07   0.02     0.01   0.12  -0.04
   8   7    -0.10   0.11  -0.14    -0.01  -0.09  -0.01     0.13   0.07  -0.01
   9   6    -0.08   0.18  -0.10     0.04   0.04  -0.02     0.07  -0.16  -0.06
  10   1    -0.01   0.04  -0.04     0.04   0.01   0.00    -0.01  -0.06  -0.06
  11   1    -0.05   0.05  -0.02    -0.00   0.02  -0.01     0.04  -0.09   0.01
  12   1    -0.02   0.07  -0.02     0.01   0.03  -0.01     0.02  -0.05  -0.02
  13   6    -0.13  -0.06  -0.20     0.03  -0.15   0.03     0.12   0.11  -0.02
  14   1    -0.02  -0.03  -0.09     0.03  -0.04   0.01     0.01   0.03  -0.02
  15   1    -0.04  -0.02  -0.06    -0.00  -0.05   0.02     0.04   0.05  -0.00
  16   1    -0.07  -0.04  -0.04     0.01  -0.04   0.01     0.05   0.02   0.00
  17   6    -0.17   0.14  -0.02    -0.12  -0.09  -0.07     0.26   0.09   0.12
  18   1    -0.03   0.08   0.03    -0.05  -0.02  -0.04     0.08   0.01   0.04
  19   1    -0.10   0.02   0.01    -0.03  -0.02  -0.03     0.09   0.00   0.05
  20   1    -0.04   0.03  -0.03    -0.05  -0.05  -0.01     0.08   0.07   0.04
  21   1     0.04  -0.03   0.00    -0.02   0.02  -0.01     0.04  -0.01   0.01
  22   6    -0.14   0.04   0.02    -0.03  -0.03   0.00    -0.11   0.00   0.03
  23   8    -0.24  -0.00  -0.07    -0.09  -0.10  -0.01    -0.20  -0.06  -0.01
  24   7    -0.10   0.08   0.08    -0.01   0.05   0.04    -0.09   0.09   0.08
  25   1    -0.03   0.02   0.01    -0.04  -0.01  -0.01    -0.04   0.02   0.02
  26   1    -0.01   0.04   0.04    -0.02   0.01  -0.01    -0.01   0.04   0.02
  27   7    -0.13   0.11   0.10     0.00  -0.04  -0.02    -0.06   0.04   0.06
  28   1    -0.04   0.03   0.03     0.04   0.03   0.02    -0.01   0.02   0.02
  29   1    -0.06   0.01   0.00     0.02   0.00   0.01    -0.03  -0.01   0.00
  30   6    -0.01  -0.02   0.01     0.12  -0.01   0.06     0.03  -0.03   0.05
  31   8    -0.02  -0.04   0.08     0.26   0.06   0.21     0.04  -0.04   0.16
  32   7    -0.02   0.02  -0.04    -0.04   0.10   0.01    -0.01   0.04  -0.01
  33   1    -0.01   0.01   0.00    -0.02   0.06   0.02    -0.02   0.02   0.02
  34   1    -0.01   0.00  -0.02    -0.04   0.01  -0.03    -0.01   0.00  -0.02
  35   7     0.01  -0.05  -0.02     0.16  -0.17  -0.02     0.05  -0.10   0.01
  36   1     0.01  -0.01  -0.02     0.02  -0.06  -0.02     0.03  -0.01  -0.03
  37   1     0.01  -0.02  -0.01     0.06  -0.05  -0.01     0.03  -0.02  -0.01
  38   6     0.04  -0.08   0.05     0.04   0.10  -0.05     0.02  -0.01  -0.02
  39   8     0.06  -0.03  -0.01    -0.04   0.14  -0.31     0.05   0.15  -0.24
  40   7     0.03  -0.18   0.11     0.21  -0.14   0.09     0.06  -0.22   0.10
  41   1     0.01  -0.05   0.03     0.09  -0.04  -0.02     0.04  -0.03  -0.02
  42   1     0.01  -0.06   0.04     0.08  -0.03   0.07     0.02  -0.06   0.05
  43   7     0.03  -0.08   0.08    -0.01   0.29   0.05    -0.05  -0.05   0.11
  44   1     0.01  -0.03   0.03     0.00   0.05   0.06    -0.01  -0.03   0.05
  45   1     0.01  -0.01   0.01    -0.02   0.07   0.02    -0.01   0.01   0.02
  46   6     0.16  -0.01   0.09    -0.10   0.05  -0.02    -0.14  -0.10  -0.05
  47   8     0.30   0.11   0.11     0.03   0.25   0.01    -0.23  -0.32  -0.15
  48   7     0.19  -0.17   0.19    -0.10  -0.13   0.10    -0.17   0.12  -0.05
  49   1     0.08  -0.04   0.08     0.01  -0.02   0.07    -0.07   0.01  -0.05
  50   1     0.02  -0.06   0.07    -0.06  -0.07   0.03    -0.02   0.06  -0.02
  51   7     0.06  -0.02   0.02    -0.26  -0.01  -0.16    -0.05  -0.07   0.03
  52   1    -0.00  -0.03  -0.00    -0.09  -0.04  -0.06     0.00   0.02   0.03
  53   1     0.01   0.01  -0.01    -0.08   0.02  -0.07    -0.01  -0.04   0.01
                     22                     23                     24
                        a                      a                      a 
 Frequencies --   148.4455               163.9871               181.2008
 Red. masses --    12.7980                12.4333                12.9191
 Frc consts  --     0.0000                 0.0000                 0.0000
 IR Inten    --    12.3870                13.9216                11.9191
 Raman Activ --     0.0000                 0.0000                 0.0000
 Depolar     --     0.0000                 0.0000                 0.0000
 Atom AN      X      Y      Z        X      Y      Z        X      Y      Z
   1   8     0.10  -0.46  -0.13    -0.01   0.00  -0.01    -0.01   0.03   0.00
   2   6     0.05  -0.07   0.11    -0.00   0.01  -0.02    -0.00   0.01  -0.01
   3   1     0.06   0.01   0.07     0.00   0.00  -0.01    -0.01   0.00  -0.00
   4   1    -0.06   0.02   0.02    -0.00   0.00  -0.01     0.00   0.00  -0.00
   5   6     0.08  -0.04   0.15    -0.01   0.03  -0.02     0.00  -0.01  -0.01
   6   1     0.04  -0.01   0.05    -0.00   0.01  -0.01     0.01  -0.00  -0.00
   7   1     0.02  -0.03   0.03    -0.00   0.01  -0.01    -0.00  -0.01  -0.00
   8   7    -0.03  -0.00   0.16    -0.01   0.02  -0.02    -0.00  -0.00  -0.01
   9   6    -0.10  -0.01   0.27    -0.00   0.02  -0.02     0.00   0.01  -0.01
  10   1    -0.06   0.02   0.11    -0.00   0.01  -0.01     0.00   0.00   0.00
  11   1    -0.02   0.02   0.06     0.00   0.01  -0.01    -0.00   0.01  -0.00
  12   1    -0.02  -0.05   0.09    -0.00   0.00  -0.01     0.00   0.00  -0.00
  13   6    -0.14   0.05   0.02    -0.00   0.02  -0.02    -0.00  -0.02  -0.01
  14   1    -0.06   0.02   0.00     0.00   0.01  -0.00     0.00  -0.01  -0.01
  15   1    -0.02   0.02  -0.03    -0.00   0.00  -0.01    -0.00  -0.01  -0.00
  16   1    -0.07   0.01   0.01    -0.00   0.01  -0.01    -0.00  -0.01  -0.00
  17   6     0.02  -0.01   0.14     0.00   0.02  -0.01    -0.01  -0.00  -0.01
  18   1     0.03  -0.00   0.07     0.00   0.00  -0.00    -0.00   0.00   0.00
  19   1    -0.03   0.00   0.04     0.00   0.01  -0.00    -0.01  -0.00  -0.00
  20   1     0.03  -0.01   0.01    -0.00   0.01  -0.00    -0.00  -0.00  -0.00
  21   1    -0.00  -0.05  -0.02     0.00  -0.02  -0.01     0.00   0.00   0.00
  22   6     0.04   0.08  -0.16     0.03  -0.05   0.00     0.01  -0.01   0.02
  23   8     0.05   0.17  -0.39     0.03  -0.07   0.02     0.01  -0.01   0.04
  24   7     0.21  -0.14  -0.09     0.03  -0.03   0.00    -0.04  -0.03  -0.03
  25   1     0.12  -0.04  -0.05    -0.00  -0.01  -0.00     0.04   0.05   0.05
  26   1     0.07  -0.04   0.06     0.00  -0.01  -0.01     0.06   0.06   0.06
  27   7    -0.11   0.18   0.02     0.07  -0.06  -0.02     0.04   0.00   0.02
  28   1    -0.06   0.00   0.02     0.03  -0.00  -0.01    -0.04  -0.05  -0.06
  29   1    -0.09   0.05  -0.04     0.03  -0.02   0.00    -0.03  -0.05  -0.03
  30   6     0.03   0.00   0.02     0.02  -0.16  -0.10     0.06   0.09   0.24
  31   8     0.07   0.02   0.09     0.18  -0.11   0.15     0.06   0.09   0.45
  32   7    -0.05   0.05  -0.00    -0.24   0.02  -0.23    -0.08   0.30   0.12
  33   1    -0.02   0.03   0.01    -0.08   0.07  -0.03    -0.04   0.12   0.06
  34   1    -0.02   0.01  -0.02    -0.09  -0.01  -0.14    -0.02   0.08  -0.05
  35   7     0.05  -0.06  -0.01     0.13  -0.37  -0.28     0.13  -0.01   0.11
  36   1     0.01  -0.02  -0.02    -0.01  -0.12  -0.08     0.03  -0.01  -0.01
  37   1     0.02  -0.02  -0.01     0.03  -0.13  -0.05     0.04  -0.03   0.05
  38   6     0.02   0.06  -0.04    -0.13   0.15   0.13    -0.13  -0.15  -0.22
  39   8     0.00   0.06  -0.08    -0.18   0.13   0.17    -0.13  -0.25  -0.12
  40   7     0.02  -0.04   0.03    -0.20   0.20   0.13    -0.14  -0.05  -0.31
  41   1     0.03   0.03  -0.03    -0.05   0.08   0.03    -0.07  -0.07  -0.04
  42   1     0.03   0.03  -0.02    -0.05   0.07   0.00    -0.05  -0.03  -0.08
  43   7     0.03   0.11  -0.04    -0.13   0.18   0.11    -0.09  -0.09  -0.28
  44   1     0.01   0.03  -0.01    -0.05   0.03   0.03    -0.02  -0.01  -0.07
  45   1     0.00   0.02  -0.01    -0.03   0.02   0.05    -0.02  -0.03  -0.08
  46   6    -0.07   0.00  -0.02     0.10   0.00   0.03     0.08   0.02   0.02
  47   8    -0.10   0.01  -0.00     0.02  -0.08   0.05     0.02  -0.02   0.05
  48   7    -0.08   0.03  -0.04     0.11   0.09  -0.09     0.09   0.05  -0.09
  49   1    -0.03   0.01  -0.02     0.00   0.02  -0.04     0.00   0.02  -0.03
  50   1    -0.01   0.01  -0.02     0.06   0.04  -0.03     0.04   0.04  -0.02
  51   7    -0.06  -0.01  -0.02     0.21   0.01   0.10     0.14   0.04   0.09
  52   1    -0.01  -0.00  -0.01     0.07   0.01   0.03     0.05   0.01   0.01
  53   1    -0.01  -0.01  -0.00     0.05   0.01   0.05     0.04  -0.00   0.02
                     25                     26                     27
                        a                      a                      a 
 Frequencies --   183.2992               205.5272               212.4585
 Red. masses --     3.4545                12.2439                 9.0420
 Frc consts  --     0.0000                 0.0000                 0.0000
 IR Inten    --     5.1838                59.0317                 6.1976
 Raman Activ --     0.0000                 0.0000                 0.0000
 Depolar     --     0.0000                 0.0000                 0.0000
 Atom AN      X      Y      Z        X      Y      Z        X      Y      Z
   1   8     0.01  -0.12  -0.01     0.00   0.02   0.07    -0.10   0.02  -0.39
   2   6     0.00  -0.02   0.00     0.01  -0.04   0.01    -0.10   0.27  -0.09
   3   1     0.02  -0.00   0.00     0.00  -0.02  -0.02    -0.04   0.13   0.10
   4   1    -0.01  -0.00   0.00     0.02  -0.02   0.01    -0.10   0.16  -0.09
   5   6    -0.03   0.04  -0.01    -0.04   0.01  -0.01     0.29  -0.17   0.06
   6   1    -0.03   0.01  -0.00    -0.03   0.00  -0.00     0.26  -0.03  -0.00
   7   1    -0.01   0.03  -0.01    -0.01   0.02  -0.01     0.04  -0.19   0.08
   8   7    -0.01   0.02   0.00    -0.02  -0.01  -0.01     0.11  -0.05   0.03
   9   6    -0.01  -0.01  -0.03    -0.00  -0.02  -0.03     0.04   0.12   0.25
  10   1    -0.00  -0.01  -0.02     0.00  -0.01  -0.02    -0.02   0.10   0.20
  11   1     0.00  -0.01  -0.00    -0.00  -0.01  -0.00     0.03   0.13  -0.02
  12   1    -0.01  -0.00  -0.01    -0.00   0.00  -0.01     0.01  -0.08   0.08
  13   6     0.00   0.01   0.02     0.01  -0.02   0.02    -0.07  -0.04  -0.19
  14   1     0.00   0.00   0.00     0.01  -0.01   0.01    -0.05  -0.01  -0.09
  15   1    -0.00   0.00   0.01    -0.00  -0.00   0.02     0.02   0.01  -0.10
  16   1     0.00  -0.00   0.01     0.01  -0.01   0.01    -0.06  -0.03  -0.03
  17   6    -0.01   0.02   0.03    -0.02  -0.00   0.00     0.13  -0.06  -0.02
  18   1    -0.01   0.01   0.01    -0.01   0.00  -0.01     0.08  -0.01   0.07
  19   1    -0.00   0.00   0.01     0.00  -0.00   0.00    -0.05  -0.01  -0.01
  20   1    -0.00   0.01   0.01    -0.01   0.00   0.01     0.08  -0.04  -0.07
  21   1    -0.00  -0.03  -0.00     0.00  -0.00   0.02    -0.03   0.00  -0.10
  22   6     0.01   0.03   0.00     0.00   0.01   0.01    -0.02  -0.05   0.10
  23   8     0.07   0.10   0.03     0.01   0.03   0.03    -0.02  -0.07   0.20
  24   7     0.15   0.12   0.14    -0.01   0.01   0.00    -0.12   0.08   0.06
  25   1    -0.23  -0.24  -0.25    -0.01  -0.01  -0.01    -0.09   0.01   0.02
  26   1    -0.32  -0.32  -0.32    -0.02  -0.01  -0.02    -0.06   0.01  -0.05
  27   7    -0.16  -0.12  -0.13    -0.01  -0.00  -0.01     0.05  -0.10   0.01
  28   1     0.25   0.26   0.26     0.01   0.01   0.01     0.04   0.01   0.01
  29   1     0.21   0.22   0.20     0.01   0.01   0.01     0.05  -0.02   0.03
  30   6     0.01   0.02   0.04    -0.01  -0.01   0.02    -0.00  -0.00  -0.00
  31   8     0.01   0.02   0.07     0.00  -0.00   0.17    -0.00  -0.00   0.01
  32   7    -0.00   0.04   0.03    -0.17   0.13  -0.05    -0.01   0.01  -0.01
  33   1    -0.00   0.02   0.01    -0.05   0.08   0.01    -0.00   0.01  -0.00
  34   1     0.00   0.01  -0.00    -0.04   0.04  -0.09    -0.00   0.00  -0.01
  35   7     0.02   0.01   0.03     0.02  -0.10  -0.04    -0.00  -0.01  -0.00
  36   1     0.00   0.00   0.00     0.02  -0.02  -0.06     0.00  -0.00  -0.01
  37   1     0.00  -0.00   0.01     0.05  -0.03  -0.02     0.00  -0.00  -0.00
  38   6    -0.03  -0.03  -0.05     0.18   0.05  -0.01     0.01  -0.01   0.01
  39   8    -0.04  -0.05  -0.04     0.41   0.27   0.18     0.05   0.04   0.01
  40   7    -0.01  -0.02  -0.06    -0.30   0.08  -0.01    -0.03   0.01  -0.00
  41   1    -0.01  -0.03  -0.01    -0.08   0.19  -0.01    -0.03  -0.02   0.03
  42   1    -0.00  -0.01  -0.00    -0.11   0.03  -0.12    -0.03  -0.03   0.01
  43   7    -0.04  -0.02  -0.05     0.32  -0.28  -0.21     0.02  -0.06  -0.00
  44   1     0.00   0.02  -0.02     0.03  -0.15  -0.08    -0.00  -0.04   0.01
  45   1    -0.01   0.00  -0.02     0.13  -0.10  -0.05     0.01  -0.01  -0.00
  46   6     0.02  -0.00   0.00    -0.09  -0.02  -0.02    -0.04   0.01   0.01
  47   8     0.01  -0.02   0.00    -0.01   0.04  -0.05    -0.06   0.03   0.03
  48   7     0.03   0.01  -0.02    -0.10  -0.09   0.12    -0.05   0.02  -0.03
  49   1     0.00   0.00  -0.01     0.00  -0.02   0.06    -0.02   0.00  -0.02
  50   1     0.01   0.01  -0.00    -0.06  -0.04   0.05    -0.00  -0.01  -0.03
  51   7     0.04   0.01   0.03    -0.16  -0.07  -0.12    -0.03  -0.01  -0.02
  52   1     0.01   0.00   0.01    -0.05  -0.00  -0.01    -0.01   0.00  -0.00
  53   1     0.01  -0.00   0.00    -0.05   0.01  -0.01    -0.01   0.01   0.00
                     28                     29                     30
                        a                      a                      a 
 Frequencies --   248.8207               273.2835               295.8292
 Red. masses --     2.1436                 2.8742                 5.9531
 Frc consts  --     0.0000                 0.0000                 0.0000
 IR Inten    --     0.4202               196.1191                32.8280
 Raman Activ --     0.0000                 0.0000                 0.0000
 Depolar     --     0.0000                 0.0000                 0.0000
 Atom AN      X      Y      Z        X      Y      Z        X      Y      Z
   1   8    -0.07  -0.04  -0.14     0.01   0.00  -0.01    -0.01   0.09  -0.19
   2   6    -0.06  -0.04  -0.06     0.01  -0.03  -0.01    -0.03  -0.35  -0.11
   3   1    -0.03  -0.02  -0.02    -0.00  -0.02  -0.02    -0.07  -0.18  -0.17
   4   1    -0.03  -0.02   0.00     0.01  -0.02   0.01     0.02  -0.23   0.10
   5   6     0.07  -0.01   0.02     0.00   0.01  -0.00     0.01   0.12   0.02
   6   1     0.04   0.00   0.01    -0.00   0.00   0.00    -0.07   0.04   0.05
   7   1     0.01  -0.02   0.02     0.00  -0.00  -0.00     0.01   0.09  -0.00
   8   7     0.06   0.02   0.02    -0.01   0.01  -0.01     0.06   0.12   0.03
   9   6    -0.01   0.08   0.14    -0.01   0.01  -0.01     0.03   0.11   0.08
  10   1     0.16  -0.19  -0.37    -0.00   0.00  -0.01    -0.00   0.04   0.05
  11   1    -0.31  -0.23   0.37    -0.00  -0.00  -0.00     0.02   0.05   0.01
  12   1     0.13   0.49   0.16    -0.00   0.00  -0.00     0.01   0.01   0.02
  13   6    -0.02  -0.01  -0.08    -0.01  -0.01  -0.01    -0.06  -0.15  -0.14
  14   1     0.09   0.01   0.09    -0.02  -0.01  -0.03    -0.13  -0.09  -0.27
  15   1    -0.03  -0.14  -0.10     0.00   0.02   0.01     0.03   0.14   0.01
  16   1    -0.10   0.12  -0.09     0.01  -0.03   0.01     0.01  -0.25   0.10
  17   6     0.10   0.02   0.04    -0.00   0.02   0.02     0.10   0.18   0.27
  18   1    -0.03  -0.03  -0.09    -0.00   0.00  -0.00     0.03   0.06   0.07
  19   1     0.16  -0.01   0.02     0.01  -0.00   0.01     0.03   0.01   0.11
  20   1    -0.03   0.05   0.11    -0.00   0.01   0.01     0.04   0.09   0.08
  21   1    -0.02  -0.02  -0.04    -0.00  -0.00  -0.00    -0.03   0.01  -0.07
  22   6     0.00  -0.01   0.02    -0.01  -0.00   0.01    -0.01  -0.03   0.03
  23   8     0.00  -0.01   0.04    -0.01  -0.01   0.00    -0.02  -0.04   0.04
  24   7    -0.03   0.01   0.01    -0.01   0.00   0.00    -0.06   0.03   0.02
  25   1    -0.01   0.01   0.01    -0.00   0.00   0.00    -0.03   0.02   0.02
  26   1    -0.01   0.01  -0.01     0.00   0.01   0.00    -0.00   0.03  -0.01
  27   7     0.01  -0.02   0.00     0.00  -0.01  -0.00     0.02  -0.04   0.00
  28   1     0.00  -0.00  -0.00     0.01   0.01   0.01     0.01  -0.00  -0.00
  29   1     0.01  -0.00   0.00     0.01   0.00   0.00     0.01  -0.01   0.01
  30   6    -0.00  -0.00   0.00    -0.00   0.00   0.01    -0.01   0.00   0.00
  31   8    -0.00  -0.01   0.01    -0.00   0.00   0.01    -0.02   0.01  -0.02
  32   7    -0.00  -0.00  -0.00     0.01   0.01  -0.01    -0.02  -0.01   0.06
  33   1     0.00   0.00  -0.00    -0.00   0.00   0.00     0.05   0.02  -0.07
  34   1     0.00   0.00  -0.00    -0.01  -0.00   0.01     0.12   0.05  -0.10
  35   7     0.00  -0.00  -0.00     0.01   0.01  -0.00     0.01   0.02  -0.01
  36   1     0.00  -0.00  -0.00    -0.01  -0.01   0.01    -0.08  -0.05   0.08
  37   1     0.00  -0.00   0.00    -0.00  -0.00   0.00    -0.03  -0.01   0.02
  38   6    -0.00  -0.00   0.00     0.01  -0.00  -0.01     0.01  -0.00  -0.01
  39   8     0.00   0.00   0.00    -0.01  -0.03  -0.00    -0.03  -0.06  -0.00
  40   7    -0.00   0.01  -0.01    -0.01  -0.03   0.01     0.00  -0.05   0.04
  41   1    -0.01  -0.01   0.01     0.04   0.09  -0.07     0.10   0.21  -0.15
  42   1    -0.01  -0.01   0.01     0.03   0.05  -0.05     0.07   0.13  -0.10
  43   7     0.00  -0.00  -0.00     0.01   0.01  -0.01     0.01   0.04  -0.02
  44   1    -0.00  -0.00  -0.00    -0.00  -0.01   0.00    -0.02  -0.05   0.03
  45   1     0.00   0.00  -0.00    -0.01  -0.01   0.01    -0.02  -0.03   0.02
  46   6    -0.01   0.00  -0.01     0.02  -0.05  -0.02    -0.00  -0.01  -0.01
  47   8    -0.00   0.01  -0.01     0.02   0.02   0.02    -0.00  -0.03  -0.02
  48   7    -0.01   0.00  -0.00    -0.09   0.28   0.21     0.00  -0.02  -0.03
  49   1    -0.00  -0.00  -0.00     0.11  -0.33  -0.30    -0.02   0.04   0.03
  50   1    -0.00  -0.00  -0.00     0.16  -0.61  -0.45    -0.02   0.08   0.05
  51   7    -0.01   0.00  -0.01     0.01  -0.01  -0.00    -0.00   0.01   0.02
  52   1    -0.00   0.00  -0.00    -0.01   0.08   0.10     0.01  -0.01  -0.02
  53   1    -0.00   0.00  -0.00    -0.01   0.03   0.03     0.01  -0.02  -0.01
                     31                     32                     33
                        a                      a                      a 
 Frequencies --   298.5826               306.1426               308.7663
 Red. masses --     2.7042                 2.7339                 5.3433
 Frc consts  --     0.0000                 0.0000                 0.0000
 IR Inten    --   128.0419                80.7258                 4.4511
 Raman Activ --     0.0000                 0.0000                 0.0000
 Depolar     --     0.0000                 0.0000                 0.0000
 Atom AN      X      Y      Z        X      Y      Z        X      Y      Z
   1   8    -0.03   0.03  -0.03    -0.03   0.01   0.01     0.19   0.09  -0.35
   2   6    -0.03  -0.16  -0.03    -0.02  -0.09  -0.01     0.11  -0.14  -0.06
   3   1    -0.04  -0.07  -0.06    -0.02  -0.03  -0.02    -0.01  -0.08  -0.08
   4   1     0.01  -0.10   0.04     0.00  -0.05   0.02     0.03  -0.10   0.05
   5   6    -0.01   0.03   0.02    -0.02   0.00   0.01     0.07   0.07   0.00
   6   1    -0.03   0.01   0.03    -0.02   0.00   0.01    -0.02   0.02   0.02
   7   1    -0.00   0.03   0.01    -0.01   0.01   0.00     0.03   0.03  -0.04
   8   7     0.03   0.05  -0.00     0.01   0.02  -0.02    -0.08   0.04   0.07
   9   6     0.02   0.05   0.01     0.01   0.02  -0.01    -0.07  -0.10  -0.02
  10   1     0.01   0.01  -0.00     0.00   0.01  -0.01    -0.10   0.05   0.13
  11   1    -0.00   0.01   0.01    -0.00   0.01  -0.00     0.12   0.04  -0.11
  12   1     0.01   0.03   0.01     0.00   0.01   0.00    -0.08  -0.21  -0.06
  13   6    -0.02  -0.06  -0.07    -0.01  -0.03  -0.04    -0.09   0.04   0.06
  14   1    -0.08  -0.04  -0.16    -0.05  -0.02  -0.09     0.16   0.05   0.28
  15   1     0.03   0.11   0.02     0.01   0.07   0.01    -0.09  -0.27  -0.08
  16   1     0.02  -0.15   0.06     0.02  -0.09   0.04    -0.15   0.27  -0.13
  17   6     0.05   0.08   0.10     0.02   0.04   0.04    -0.09   0.07   0.20
  18   1     0.03   0.04   0.05     0.01   0.02   0.01    -0.14  -0.02  -0.14
  19   1    -0.01   0.00   0.04     0.00  -0.00   0.02     0.22  -0.02   0.08
  20   1     0.03   0.04   0.01     0.01   0.02   0.01    -0.14   0.10   0.25
  21   1    -0.01   0.01  -0.01     0.00   0.01   0.01     0.01   0.03  -0.11
  22   6     0.03   0.01  -0.00     0.04   0.03  -0.01     0.01  -0.02   0.05
  23   8     0.03   0.02   0.00     0.05   0.04  -0.01     0.01  -0.02   0.06
  24   7     0.00  -0.03  -0.02     0.02  -0.04  -0.03    -0.08   0.02   0.00
  25   1     0.02   0.01   0.01     0.03   0.01   0.01    -0.02   0.03   0.04
  26   1     0.03   0.01   0.02     0.04   0.01   0.03     0.02   0.05   0.01
  27   7    -0.02  -0.01  -0.01    -0.04   0.01  -0.01    -0.00  -0.06   0.00
  28   1     0.01   0.01   0.02     0.00   0.01   0.02     0.03   0.01   0.02
  29   1     0.01   0.02   0.01     0.00   0.03   0.01     0.02   0.01   0.02
  30   6     0.02   0.01  -0.01    -0.02  -0.03  -0.00     0.00  -0.00  -0.00
  31   8     0.03   0.00   0.03    -0.03  -0.03   0.00     0.00  -0.00  -0.00
  32   7     0.09   0.02  -0.17    -0.09  -0.02   0.10     0.01  -0.00  -0.01
  33   1    -0.16  -0.07   0.22     0.11   0.05  -0.16    -0.01  -0.00   0.01
  34   1    -0.38  -0.18   0.38     0.28   0.13  -0.30    -0.02  -0.01   0.02
  35   7    -0.06  -0.03   0.04     0.03  -0.01  -0.03    -0.01  -0.01   0.00
  36   1     0.26   0.17  -0.27    -0.15  -0.11   0.16     0.02   0.01  -0.02
  37   1     0.08   0.04  -0.06    -0.03  -0.02   0.02     0.01   0.00  -0.01
  38   6    -0.02  -0.02   0.03    -0.01   0.01   0.02    -0.00  -0.01   0.01
  39   8     0.03   0.06   0.00     0.07   0.18  -0.04     0.01   0.02  -0.00
  40   7     0.01   0.10  -0.07     0.06   0.13  -0.09     0.01   0.03  -0.03
  41   1    -0.13  -0.25   0.19    -0.20  -0.46   0.33    -0.04  -0.08   0.06
  42   1    -0.09  -0.15   0.11    -0.15  -0.28   0.23    -0.03  -0.05   0.03
  43   7    -0.01  -0.03   0.01    -0.01  -0.07   0.03     0.00  -0.00  -0.00
  44   1     0.01   0.03  -0.03     0.02   0.06  -0.05     0.00   0.00  -0.00
  45   1     0.02   0.03  -0.02     0.04   0.06  -0.05     0.01   0.00  -0.00
  46   6    -0.01  -0.00   0.01    -0.01  -0.01   0.01     0.00   0.01  -0.01
  47   8    -0.01  -0.01   0.00    -0.01  -0.01   0.01     0.01   0.01  -0.01
  48   7    -0.01   0.01   0.01    -0.02   0.03   0.03     0.00  -0.00   0.01
  49   1     0.00  -0.01  -0.01     0.01  -0.04  -0.03     0.01  -0.01   0.00
  50   1     0.00  -0.02  -0.01     0.01  -0.06  -0.05    -0.00  -0.01  -0.00
  51   7    -0.00  -0.02  -0.01    -0.00  -0.02  -0.01    -0.01   0.00  -0.01
  52   1    -0.00   0.02   0.02    -0.01   0.02   0.02    -0.00   0.01   0.00
  53   1    -0.01   0.02   0.02    -0.01   0.03   0.02    -0.00   0.00   0.00
                     34                     35                     36
                        a                      a                      a 
 Frequencies --   333.9834               342.2435               353.0297
 Red. masses --     7.7489                 4.2053                 5.2140
 Frc consts  --     0.0000                 0.0000                 0.0000
 IR Inten    --    27.9071               444.4877                 0.5122
 Raman Activ --     0.0000                 0.0000                 0.0000
 Depolar     --     0.0000                 0.0000                 0.0000
 Atom AN      X      Y      Z        X      Y      Z        X      Y      Z
   1   8     0.25   0.07  -0.34     0.07   0.05  -0.12    -0.09   0.02   0.13
   2   6     0.14  -0.03   0.05     0.04  -0.05  -0.00    -0.08  -0.13   0.09
   3   1     0.00  -0.01   0.02    -0.01  -0.03  -0.01    -0.05  -0.04   0.04
   4   1     0.02  -0.01   0.03     0.01  -0.03   0.02    -0.00  -0.04   0.02
   5   6     0.11  -0.09   0.08     0.04  -0.03   0.03     0.02  -0.15   0.10
   6   1     0.06  -0.02   0.04     0.02  -0.00   0.02     0.06  -0.02   0.07
   7   1     0.03  -0.07   0.00     0.01  -0.03   0.00    -0.01  -0.11   0.04
   8   7    -0.09   0.00   0.06    -0.03   0.01   0.02     0.04   0.03  -0.05
   9   6    -0.07  -0.22  -0.13    -0.02  -0.06  -0.04     0.16  -0.06  -0.29
  10   1    -0.00  -0.14  -0.20    -0.01  -0.03  -0.05     0.08  -0.03  -0.11
  11   1    -0.04  -0.18   0.08     0.00  -0.05   0.01     0.10  -0.04  -0.08
  12   1    -0.02   0.07  -0.05    -0.01   0.00  -0.02    -0.00   0.00  -0.14
  13   6    -0.02   0.31   0.19    -0.02   0.09   0.05    -0.10   0.07  -0.22
  14   1    -0.17   0.09  -0.03    -0.05   0.03  -0.01     0.08   0.05   0.12
  15   1     0.04   0.27   0.12     0.01   0.07   0.03    -0.04  -0.17  -0.20
  16   1     0.13  -0.03   0.10     0.03  -0.00   0.03    -0.17   0.21  -0.16
  17   6    -0.24  -0.00  -0.02    -0.08   0.01   0.03     0.07   0.14   0.27
  18   1    -0.00   0.07   0.12    -0.02   0.02   0.01     0.17   0.17   0.35
  19   1    -0.25   0.03  -0.02    -0.04   0.00   0.01    -0.31  -0.01   0.13
  20   1    -0.01  -0.09  -0.13    -0.02  -0.01   0.00     0.17   0.01  -0.14
  21   1     0.00   0.02  -0.13     0.01   0.07  -0.01    -0.03   0.01   0.03
  22   6     0.03  -0.01   0.07    -0.08  -0.10  -0.07     0.00   0.01  -0.01
  23   8     0.01  -0.02   0.05    -0.01  -0.03   0.00    -0.00   0.00  -0.01
  24   7    -0.11  -0.00  -0.03     0.15   0.17   0.17     0.02  -0.01  -0.01
  25   1    -0.00   0.06   0.07    -0.15  -0.12  -0.13     0.01  -0.01  -0.01
  26   1     0.07   0.11   0.06    -0.29  -0.27  -0.30     0.00  -0.01   0.01
  27   7    -0.03  -0.09  -0.02     0.19   0.16   0.18    -0.00   0.01  -0.01
  28   1     0.09   0.08   0.09    -0.34  -0.34  -0.34    -0.00   0.00  -0.00
  29   1     0.05   0.04   0.05    -0.15  -0.16  -0.15    -0.00   0.00  -0.00
  30   6     0.00   0.00   0.00     0.01  -0.00  -0.00    -0.00   0.00   0.00
  31   8     0.00   0.00  -0.00     0.01  -0.00   0.00    -0.00   0.00   0.00
  32   7    -0.00   0.00   0.00    -0.01  -0.00   0.00     0.00   0.00   0.00
  33   1     0.00   0.00  -0.00    -0.00   0.00   0.00     0.00  -0.00  -0.00
  34   1     0.01   0.00  -0.01     0.00   0.00  -0.01     0.01   0.00  -0.01
  35   7     0.00   0.00   0.00    -0.00  -0.01   0.00    -0.00   0.00  -0.00
  36   1    -0.00  -0.00   0.00     0.02   0.01  -0.02    -0.01  -0.00   0.01
  37   1    -0.00   0.00   0.00     0.01   0.00  -0.00     0.00   0.00  -0.00
  38   6     0.00  -0.01   0.00    -0.00   0.01   0.00    -0.00  -0.00   0.00
  39   8     0.00   0.00  -0.00     0.00   0.02  -0.01    -0.00   0.01  -0.01
  40   7     0.00   0.00  -0.00    -0.00   0.01  -0.01     0.01   0.01  -0.00
  41   1     0.00   0.01  -0.00    -0.02  -0.05   0.04     0.01   0.01  -0.01
  42   1    -0.00   0.00  -0.01    -0.01  -0.02   0.02     0.01   0.01  -0.00
  43   7     0.00   0.00   0.00    -0.00  -0.01  -0.00    -0.00   0.00  -0.00
  44   1    -0.01  -0.02   0.02     0.01   0.02  -0.01    -0.01  -0.01   0.01
  45   1    -0.01  -0.01   0.01     0.01   0.01  -0.01    -0.00   0.00  -0.00
  46   6    -0.00  -0.00   0.00    -0.00   0.00   0.00    -0.01   0.00   0.02
  47   8    -0.00   0.00   0.01    -0.00   0.00   0.00    -0.01   0.01   0.02
  48   7     0.00  -0.01  -0.00    -0.00   0.00   0.00    -0.01   0.01  -0.02
  49   1    -0.00   0.01   0.01     0.00  -0.01  -0.00    -0.01   0.01  -0.01
  50   1    -0.00   0.02   0.01     0.00  -0.01  -0.01     0.01  -0.00  -0.02
  51   7     0.00   0.00   0.01     0.00  -0.00  -0.01    -0.01  -0.01   0.00
  52   1     0.00  -0.01  -0.01    -0.00   0.01   0.01    -0.01  -0.00   0.00
  53   1     0.00   0.00  -0.00    -0.00   0.01   0.01    -0.00   0.00  -0.00
                     37                     38                     39
                        a                      a                      a 
 Frequencies --   358.3459               403.4863               421.9863
 Red. masses --     4.8218                 3.6695                 8.8225
 Frc consts  --     0.0000                 0.0000                 0.0000
 IR Inten    --     2.9582               245.5405                 1.8984
 Raman Activ --     0.0000                 0.0000                 0.0000
 Depolar     --     0.0000                 0.0000                 0.0000
 Atom AN      X      Y      Z        X      Y      Z        X      Y      Z
   1   8     0.01   0.05  -0.16    -0.01   0.00  -0.01    -0.20  -0.04   0.19
   2   6     0.02  -0.08  -0.16    -0.00  -0.01  -0.01    -0.07  -0.06  -0.19
   3   1     0.01  -0.06  -0.13    -0.00  -0.01  -0.01    -0.02  -0.02  -0.07
   4   1     0.01  -0.09   0.02    -0.00  -0.01   0.00     0.01  -0.03  -0.05
   5   6    -0.10   0.23  -0.13     0.00   0.01   0.00     0.17  -0.05  -0.09
   6   1    -0.17   0.04  -0.06    -0.00   0.00   0.00     0.15   0.01  -0.01
   7   1    -0.01   0.20  -0.06     0.00   0.00   0.00     0.02  -0.10   0.05
   8   7     0.04   0.01   0.03     0.01   0.01   0.00     0.25   0.08  -0.16
   9   6    -0.12   0.00   0.29    -0.01  -0.01   0.02    -0.07  -0.25   0.22
  10   1    -0.08   0.01   0.09    -0.01  -0.00   0.00    -0.18  -0.05   0.06
  11   1    -0.09   0.02   0.09    -0.00  -0.00   0.01    -0.04  -0.09   0.09
  12   1     0.02  -0.02   0.15     0.00  -0.01   0.01     0.05  -0.16   0.16
  13   6     0.16  -0.14   0.17     0.01   0.01  -0.00     0.29   0.13  -0.13
  14   1     0.20  -0.03   0.18     0.00   0.00   0.00     0.07   0.04  -0.02
  15   1    -0.03  -0.20   0.05     0.00  -0.00  -0.00     0.07   0.04  -0.02
  16   1     0.01   0.09  -0.03     0.00   0.00  -0.00     0.11   0.04  -0.05
  17   6     0.03  -0.04  -0.14    -0.01   0.01   0.00    -0.32   0.23   0.07
  18   1     0.17   0.03   0.24    -0.00   0.02   0.00    -0.16   0.22  -0.05
  19   1    -0.35   0.07  -0.08    -0.01  -0.00   0.01    -0.11   0.01   0.06
  20   1     0.17  -0.14  -0.32    -0.01  -0.01  -0.00    -0.18  -0.01   0.11
  21   1     0.00   0.01  -0.04    -0.00   0.02   0.01     0.01  -0.01   0.09
  22   6     0.00  -0.02   0.01    -0.00  -0.00   0.00    -0.02   0.03  -0.02
  23   8     0.01  -0.01   0.01     0.00  -0.00   0.00    -0.03   0.01   0.01
  24   7    -0.02   0.02   0.01    -0.00   0.01   0.00     0.03  -0.04   0.00
  25   1    -0.02   0.00   0.01    -0.00  -0.00  -0.00     0.04  -0.02  -0.01
  26   1    -0.01   0.00  -0.02    -0.01  -0.00  -0.01     0.00  -0.03   0.03
  27   7     0.01  -0.01   0.02     0.01  -0.00   0.00     0.01   0.02  -0.03
  28   1    -0.01  -0.02  -0.01    -0.01  -0.01  -0.01     0.02   0.02  -0.00
  29   1    -0.00  -0.01  -0.00    -0.00  -0.00  -0.00     0.00  -0.01  -0.01
  30   6     0.00   0.00  -0.00    -0.09  -0.08   0.11     0.00   0.00  -0.00
  31   8     0.00   0.00  -0.00    -0.07  -0.07   0.05     0.00   0.00   0.00
  32   7    -0.00  -0.00   0.00     0.16   0.10  -0.21    -0.01  -0.00   0.00
  33   1     0.00  -0.00  -0.00    -0.03   0.04   0.06    -0.00  -0.00   0.00
  34   1     0.01   0.00  -0.01    -0.32  -0.14   0.27     0.01   0.01  -0.01
  35   7    -0.00  -0.00   0.00     0.19   0.13  -0.15    -0.01  -0.01   0.00
  36   1     0.01   0.00  -0.01    -0.47  -0.30   0.50     0.02   0.01  -0.02
  37   1     0.00   0.00  -0.00    -0.07  -0.01   0.04    -0.00  -0.00   0.00
  38   6     0.00  -0.01   0.01     0.03   0.04  -0.03    -0.01  -0.00   0.01
  39   8     0.01   0.02  -0.01     0.03   0.03  -0.02    -0.01  -0.01   0.01
  40   7     0.01   0.01  -0.01    -0.02  -0.02  -0.00     0.01   0.00   0.01
  41   1    -0.02  -0.03   0.03    -0.01  -0.02   0.01     0.01   0.01  -0.01
  42   1    -0.01  -0.02   0.02    -0.01  -0.02   0.01     0.01   0.00   0.00
  43   7    -0.00  -0.01   0.00     0.01  -0.05   0.01     0.00  -0.00  -0.01
  44   1    -0.01  -0.02   0.01     0.04   0.08  -0.05    -0.01  -0.01  -0.00
  45   1    -0.00  -0.00   0.00     0.02   0.04  -0.03     0.01   0.00  -0.01
  46   6     0.00   0.01   0.01    -0.01  -0.01  -0.02     0.00   0.00  -0.01
  47   8    -0.00   0.01   0.02    -0.00  -0.01  -0.02    -0.01   0.00  -0.01
  48   7     0.00   0.00   0.01    -0.01   0.00   0.02     0.00  -0.00   0.01
  49   1     0.01  -0.01  -0.00     0.00  -0.01  -0.00     0.01  -0.00   0.01
  50   1     0.01  -0.03  -0.02    -0.01   0.01   0.02    -0.01  -0.01   0.01
  51   7     0.01  -0.01  -0.00     0.00   0.02   0.04     0.01   0.01   0.00
  52   1    -0.00   0.01   0.01     0.01  -0.08  -0.09     0.01  -0.01  -0.02
  53   1    -0.00   0.01   0.00     0.01  -0.01  -0.02     0.00  -0.00   0.00
                     40                     41                     42
                        a                      a                      a 
 Frequencies --   448.4446               456.4456               458.9383
 Red. masses --     3.4219                 7.0111                 8.2640
 Frc consts  --     0.0000                 0.0000                 0.0000
 IR Inten    --   184.1352                23.7974                 1.1571
 Raman Activ --     0.0000                 0.0000                 0.0000
 Depolar     --     0.0000                 0.0000                 0.0000
 Atom AN      X      Y      Z        X      Y      Z        X      Y      Z
   1   8     0.00  -0.01   0.02     0.02  -0.01   0.03     0.01  -0.01  -0.03
   2   6     0.01  -0.01  -0.04     0.03  -0.04  -0.09    -0.04   0.04   0.23
   3   1    -0.00  -0.00  -0.00    -0.00   0.00   0.01    -0.03  -0.00   0.05
   4   1     0.01   0.00  -0.02     0.04   0.01  -0.06    -0.05  -0.00   0.09
   5   6     0.03  -0.08  -0.03     0.05  -0.22  -0.10     0.11   0.12   0.28
   6   1     0.08  -0.01   0.01     0.17  -0.03   0.02     0.10   0.06   0.13
   7   1    -0.00  -0.10  -0.00    -0.01  -0.22  -0.01     0.02  -0.06   0.08
   8   7    -0.09   0.05  -0.08    -0.23   0.07  -0.21     0.01   0.34   0.04
   9   6    -0.13   0.03  -0.03    -0.32   0.13  -0.09    -0.12  -0.25  -0.10
  10   1    -0.05   0.01  -0.01    -0.09   0.05  -0.01    -0.16  -0.09  -0.11
  11   1    -0.04   0.01  -0.00    -0.12   0.05  -0.03     0.07  -0.17   0.04
  12   1    -0.03   0.00   0.01    -0.06   0.03   0.02    -0.05  -0.12  -0.04
  13   6     0.05  -0.02   0.09     0.14  -0.05   0.24    -0.01  -0.30  -0.05
  14   1     0.05  -0.01   0.02     0.12  -0.03   0.08     0.14  -0.14  -0.11
  15   1    -0.02  -0.01   0.08    -0.04  -0.03   0.20    -0.05  -0.17  -0.00
  16   1     0.06  -0.02   0.03     0.16  -0.03   0.06    -0.11  -0.14   0.04
  17   6     0.07   0.07   0.03     0.21   0.14   0.11     0.06   0.24  -0.33
  18   1     0.03   0.00   0.02     0.10  -0.01   0.09     0.02  -0.01  -0.11
  19   1     0.03  -0.01   0.03     0.08  -0.04   0.09     0.04   0.14  -0.15
  20   1     0.04   0.07   0.00     0.12   0.18   0.01     0.01   0.02  -0.11
  21   1     0.01   0.00   0.01     0.02   0.01   0.02    -0.03  -0.01  -0.03
  22   6    -0.01   0.00   0.00    -0.01   0.01  -0.00     0.01  -0.01   0.00
  23   8    -0.01   0.00   0.00    -0.01   0.00   0.00     0.02  -0.00  -0.00
  24   7     0.00  -0.01   0.00     0.01  -0.01   0.01    -0.00   0.02  -0.00
  25   1     0.00  -0.01  -0.00     0.01  -0.01  -0.00    -0.04  -0.01  -0.02
  26   1     0.01   0.00   0.01    -0.00  -0.01   0.01     0.02   0.03   0.00
  27   7     0.00  -0.00  -0.01     0.01   0.01  -0.01    -0.01  -0.01   0.01
  28   1     0.01   0.01   0.00     0.00   0.00  -0.01    -0.03  -0.03  -0.01
  29   1     0.00  -0.00  -0.00     0.00  -0.00  -0.00     0.01   0.03   0.02
  30   6    -0.02   0.00   0.01     0.00  -0.00  -0.00    -0.01   0.01  -0.00
  31   8    -0.02   0.01   0.01     0.00  -0.00   0.00    -0.00   0.01   0.01
  32   7     0.04   0.00  -0.01    -0.01  -0.00   0.00     0.01  -0.00  -0.00
  33   1     0.00  -0.02   0.00     0.01   0.01  -0.01    -0.02  -0.04   0.04
  34   1    -0.02  -0.01   0.04     0.00   0.00  -0.01     0.03   0.01  -0.00
  35   7     0.01  -0.00  -0.04    -0.01  -0.00   0.01    -0.01  -0.01  -0.01
  36   1    -0.07  -0.05   0.06     0.02   0.01  -0.02    -0.01  -0.01  -0.00
  37   1     0.01  -0.01  -0.01    -0.00   0.00   0.00     0.00  -0.00  -0.00
  38   6     0.01   0.01  -0.02    -0.01   0.00   0.01     0.00   0.01  -0.00
  39   8     0.00  -0.01  -0.01    -0.00   0.00   0.01    -0.00  -0.00   0.00
  40   7     0.00  -0.02   0.00     0.01   0.00   0.01    -0.01   0.00   0.01
  41   1     0.01   0.02  -0.01     0.01   0.00  -0.01    -0.00   0.00  -0.00
  42   1     0.01   0.01  -0.01     0.00  -0.00   0.01     0.00   0.01  -0.00
  43   7    -0.01  -0.00   0.02     0.01  -0.01  -0.01     0.00  -0.01   0.01
  44   1     0.01   0.02  -0.00     0.00  -0.00  -0.01     0.01   0.02  -0.01
  45   1    -0.00   0.01  -0.00     0.01  -0.00  -0.00     0.01   0.01  -0.01
  46   6     0.03   0.01   0.10     0.02  -0.06   0.06     0.01  -0.01   0.02
  47   8     0.01  -0.02   0.10     0.11  -0.01   0.02     0.02  -0.00   0.01
  48   7     0.08  -0.06  -0.15    -0.02   0.11  -0.05     0.01   0.02  -0.02
  49   1    -0.06   0.18   0.13    -0.06  -0.10  -0.20    -0.01  -0.00  -0.03
  50   1     0.05  -0.01  -0.05     0.06   0.16   0.01     0.02   0.02  -0.01
  51   7    -0.09  -0.12  -0.21    -0.12   0.01   0.06    -0.03   0.00   0.01
  52   1    -0.07   0.56   0.61    -0.06  -0.24  -0.20    -0.02  -0.04  -0.03
  53   1    -0.01  -0.06  -0.01    -0.05   0.06  -0.03    -0.01   0.01  -0.01
                     43                     44                     45
                        a                      a                      a 
 Frequencies --   462.1329               464.3695               466.0087
 Red. masses --     7.7340                 2.1205                 4.8411
 Frc consts  --     0.0000                 0.0000                 0.0000
 IR Inten    --    13.1250                 6.1607                20.2469
 Raman Activ --     0.0000                 0.0000                 0.0000
 Depolar     --     0.0000                 0.0000                 0.0000
 Atom AN      X      Y      Z        X      Y      Z        X      Y      Z
   1   8    -0.02  -0.02   0.06    -0.00  -0.01   0.01     0.02   0.02  -0.04
   2   6    -0.02  -0.00   0.01    -0.00   0.00  -0.00     0.01   0.00   0.02
   3   1     0.00   0.01   0.01     0.00   0.00   0.00    -0.00  -0.00  -0.00
   4   1    -0.00   0.01  -0.01     0.00   0.00  -0.01    -0.00  -0.01   0.02
   5   6    -0.01  -0.02  -0.00    -0.01  -0.01  -0.01     0.02   0.03   0.03
   6   1    -0.00  -0.00   0.00    -0.00  -0.00  -0.01     0.01   0.01   0.01
   7   1    -0.01  -0.01   0.00    -0.00   0.00  -0.00     0.01  -0.00   0.01
   8   7     0.02   0.00  -0.03     0.01  -0.01  -0.01    -0.01   0.04   0.02
   9   6    -0.01  -0.01   0.01     0.00   0.01   0.01    -0.01  -0.02  -0.02
  10   1    -0.01   0.00   0.01     0.00   0.00   0.01    -0.01  -0.01  -0.02
  11   1    -0.01  -0.00   0.00    -0.00   0.01  -0.00     0.01  -0.02   0.00
  12   1     0.01  -0.01   0.01     0.00   0.00   0.00    -0.01  -0.01  -0.01
  13   6     0.03  -0.00  -0.02     0.01   0.01  -0.01    -0.02  -0.03   0.01
  14   1     0.01  -0.00  -0.01    -0.00   0.01   0.00     0.01  -0.02  -0.01
  15   1     0.01  -0.00  -0.00     0.00   0.01  -0.00    -0.01  -0.02   0.00
  16   1     0.01  -0.00  -0.01     0.01   0.01  -0.00    -0.02  -0.02   0.01
  17   6    -0.01   0.02   0.00    -0.01  -0.00   0.01     0.01   0.01  -0.04
  18   1    -0.01   0.02  -0.01    -0.00   0.01   0.00     0.01  -0.01  -0.01
  19   1     0.00  -0.00   0.01    -0.00  -0.01   0.01     0.00   0.02  -0.02
  20   1    -0.01   0.01   0.01    -0.00  -0.00   0.01     0.01  -0.00  -0.02
  21   1     0.00   0.02   0.03    -0.01  -0.03  -0.01    -0.00  -0.01  -0.02
  22   6     0.21  -0.17  -0.07     0.03  -0.00   0.01    -0.12   0.09   0.02
  23   8     0.24  -0.17  -0.10     0.04   0.01  -0.00    -0.14   0.08   0.05
  24   7    -0.08   0.26  -0.22     0.04   0.07   0.04     0.02  -0.17   0.09
  25   1    -0.11   0.22   0.16    -0.33  -0.28  -0.30     0.24   0.04   0.08
  26   1    -0.04   0.12  -0.30     0.27   0.27   0.24    -0.12  -0.21   0.02
  27   7    -0.21  -0.03   0.29    -0.09  -0.06  -0.03     0.15   0.05  -0.13
  28   1    -0.04  -0.06   0.31    -0.22  -0.22  -0.20     0.14   0.15  -0.05
  29   1    -0.27   0.09  -0.05     0.23   0.23   0.23     0.01  -0.17  -0.10
  30   6     0.06  -0.07   0.02     0.05  -0.06   0.02     0.09  -0.11   0.04
  31   8     0.00  -0.10  -0.05    -0.01  -0.10  -0.06    -0.02  -0.18  -0.10
  32   7    -0.10   0.02  -0.01    -0.09   0.02   0.00    -0.16   0.02   0.02
  33   1     0.06   0.19  -0.11     0.10   0.22  -0.16     0.21   0.43  -0.33
  34   1    -0.14  -0.05  -0.05    -0.16  -0.06  -0.03    -0.31  -0.12  -0.04
  35   7     0.04   0.09   0.08     0.05   0.09   0.07     0.09   0.15   0.12
  36   1     0.07   0.06   0.02     0.07   0.06   0.01     0.13   0.10   0.01
  37   1    -0.03   0.04   0.02    -0.03   0.03   0.03    -0.06   0.05   0.05
  38   6    -0.06   0.03   0.01    -0.04   0.02   0.01    -0.04   0.00   0.01
  39   8    -0.05   0.04   0.06    -0.03   0.03   0.04    -0.02   0.03   0.04
  40   7     0.08  -0.00   0.03     0.06  -0.01   0.02     0.08  -0.01   0.02
  41   1     0.06  -0.02  -0.04     0.04  -0.02  -0.03     0.04  -0.05  -0.02
  42   1     0.04   0.00   0.06     0.03   0.01   0.04     0.04   0.01   0.04
  43   7    -0.01  -0.03  -0.08    -0.01  -0.03  -0.05    -0.01  -0.01  -0.05
  44   1    -0.03  -0.05  -0.03    -0.02  -0.02  -0.03    -0.04  -0.07   0.01
  45   1     0.03  -0.02  -0.02     0.02  -0.02  -0.01     0.01  -0.03  -0.00
  46   6     0.01  -0.01   0.01     0.00  -0.00   0.00     0.00  -0.00   0.00
  47   8     0.01  -0.01   0.01     0.00  -0.00   0.00    -0.00  -0.01   0.00
  48   7     0.01   0.01  -0.02     0.00   0.00  -0.01     0.01  -0.00  -0.01
  49   1    -0.01   0.01  -0.01    -0.00   0.01   0.01    -0.00   0.02   0.02
  50   1     0.01   0.01  -0.01     0.00  -0.00  -0.00     0.00  -0.01  -0.01
  51   7    -0.02  -0.01  -0.01    -0.00  -0.00  -0.00    -0.01   0.00  -0.01
  52   1    -0.01   0.01   0.02    -0.00   0.01   0.01    -0.01   0.02   0.02
  53   1    -0.01   0.00  -0.00    -0.00  -0.00  -0.00    -0.00  -0.00  -0.00
                     46                     47                     48
                        a                      a                      a 
 Frequencies --   473.1287               478.1006               486.0663
 Red. masses --     3.3611                 6.3313                 7.6683
 Frc consts  --     0.0000                 0.0000                 0.0000
 IR Inten    --     6.6980                17.2398                31.1782
 Raman Activ --     0.0000                 0.0000                 0.0000
 Depolar     --     0.0000                 0.0000                 0.0000
 Atom AN      X      Y      Z        X      Y      Z        X      Y      Z
   1   8    -0.01   0.00  -0.00    -0.01  -0.01   0.02    -0.01   0.01  -0.00
   2   6    -0.01   0.01   0.01    -0.00   0.00   0.00    -0.00   0.01  -0.00
   3   1     0.00  -0.00  -0.01     0.00   0.00   0.00     0.00  -0.00  -0.01
   4   1    -0.01  -0.01   0.01    -0.00   0.00  -0.00    -0.00  -0.01   0.01
   5   6    -0.02   0.07   0.01    -0.00  -0.00   0.00    -0.02   0.06  -0.00
   6   1    -0.06   0.01  -0.02     0.00   0.00   0.00    -0.06   0.00  -0.02
   7   1     0.00   0.07   0.00    -0.00  -0.00   0.00     0.00   0.07  -0.01
   8   7     0.07  -0.03   0.06     0.01   0.01  -0.01     0.05  -0.04   0.05
   9   6     0.10  -0.03   0.04    -0.00  -0.01   0.00     0.08  -0.02   0.03
  10   1     0.03  -0.01   0.01    -0.00  -0.00  -0.00     0.03  -0.01   0.01
  11   1     0.04  -0.01   0.01    -0.00  -0.00   0.00     0.03  -0.00   0.00
  12   1     0.02  -0.01  -0.00     0.00  -0.00   0.00     0.02  -0.00   0.00
  13   6    -0.05   0.03  -0.07     0.01  -0.00  -0.01    -0.04   0.03  -0.05
  14   1    -0.04   0.02  -0.02     0.00  -0.00  -0.00    -0.04   0.02  -0.01
  15   1     0.01   0.02  -0.06     0.00  -0.00  -0.00     0.01   0.02  -0.05
  16   1    -0.04   0.02  -0.02     0.00  -0.00  -0.00    -0.03   0.02  -0.02
  17   6    -0.09  -0.05  -0.03    -0.01   0.01  -0.00    -0.08  -0.05  -0.02
  18   1    -0.04   0.00  -0.03    -0.00   0.00   0.00    -0.04  -0.00  -0.03
  19   1    -0.03   0.01  -0.02    -0.00   0.00  -0.00    -0.02   0.00  -0.02
  20   1    -0.05  -0.06   0.00    -0.00  -0.00  -0.00    -0.04  -0.04   0.01
  21   1    -0.00  -0.01  -0.00    -0.00  -0.01   0.00    -0.00  -0.02  -0.01
  22   6    -0.01   0.01   0.00     0.03  -0.02  -0.01    -0.00   0.01  -0.00
  23   8    -0.01   0.01   0.00     0.04  -0.02  -0.02    -0.01   0.00   0.01
  24   7     0.00  -0.01   0.01    -0.00   0.04  -0.03     0.01  -0.01   0.00
  25   1     0.01  -0.01  -0.00    -0.03   0.01   0.00     0.01  -0.00  -0.00
  26   1    -0.00  -0.01   0.01     0.01   0.03  -0.03    -0.01  -0.01   0.00
  27   7     0.01   0.00  -0.01    -0.03  -0.01   0.04    -0.00   0.01  -0.01
  28   1     0.00   0.00  -0.01    -0.02  -0.02   0.03    -0.01  -0.00  -0.01
  29   1     0.01  -0.00  -0.00    -0.02   0.03   0.01     0.01   0.01   0.01
  30   6    -0.00   0.00   0.00    -0.15   0.15   0.04    -0.02   0.02  -0.00
  31   8    -0.01   0.00  -0.00    -0.13   0.18   0.10    -0.01   0.03   0.02
  32   7     0.01   0.00  -0.00     0.20  -0.11   0.24     0.03  -0.00   0.01
  33   1     0.00   0.00  -0.00     0.38   0.12  -0.43     0.01  -0.03   0.00
  34   1    -0.01  -0.00   0.01    -0.07  -0.08   0.29     0.01   0.00   0.03
  35   7     0.01   0.00  -0.01     0.00  -0.19  -0.26    -0.01  -0.02  -0.03
  36   1    -0.02  -0.01   0.02    -0.04  -0.07  -0.24    -0.02  -0.01  -0.01
[...]
  44   1     0.04  -0.03  -0.02     0.01  -0.01  -0.01    -0.11   0.07   0.05
  45   1     0.04   0.23   0.39     0.02   0.12   0.20     0.00   0.01   0.03
  46   6    -0.00  -0.01   0.01     0.00   0.01  -0.01    -0.00   0.00  -0.00
  47   8    -0.00   0.00  -0.00     0.00  -0.00   0.00     0.00  -0.00   0.00
  48   7     0.00   0.00  -0.00    -0.00  -0.00   0.00     0.00  -0.00   0.00
  49   1     0.00   0.00  -0.00    -0.00  -0.00   0.00     0.00   0.00  -0.00
  50   1     0.00  -0.00   0.00    -0.00   0.00  -0.00    -0.00   0.00  -0.00
  51   7    -0.11  -0.03  -0.01     0.20   0.07   0.00     0.00   0.00  -0.00
  52   1    -0.03   0.02  -0.03     0.07  -0.05   0.06     0.00  -0.00   0.00
  53   1     0.43   0.11   0.04    -0.82  -0.21  -0.07    -0.02  -0.01  -0.00
                    142                    143                    144
                        a                      a                      a 
 Frequencies --  3484.1824              3493.3978              3498.7708
 Red. masses --     1.4708                 1.4515                 1.4515
 Frc consts  --     0.0000                 0.0000                 0.0000
 IR Inten    --    71.0598                14.4222                15.9394
 Raman Activ --     0.0000                 0.0000                 0.0000
 Depolar     --     0.0000                 0.0000                 0.0000
 Atom AN      X      Y      Z        X      Y      Z        X      Y      Z
   1   8     0.00   0.00  -0.01     0.00  -0.00  -0.00    -0.00  -0.00   0.00
   2   6     0.00  -0.00   0.00    -0.00   0.00   0.00     0.00  -0.00   0.00
   3   1    -0.00   0.00  -0.00    -0.00   0.00   0.00     0.00   0.00  -0.00
   4   1    -0.00  -0.00  -0.00     0.00  -0.00  -0.00     0.00   0.00   0.00
   5   6    -0.00  -0.00   0.00    -0.00   0.00   0.00    -0.00   0.00  -0.00
   6   1     0.00   0.00  -0.00    -0.00  -0.00  -0.00    -0.00   0.00  -0.00
   7   1     0.00  -0.00   0.00     0.00  -0.00   0.00     0.00  -0.00   0.00
   8   7     0.00  -0.00   0.00     0.00  -0.00  -0.00     0.00  -0.00   0.00
   9   6    -0.00  -0.00   0.00    -0.00   0.00  -0.00    -0.00  -0.00   0.00
  10   1     0.00   0.00  -0.00    -0.00  -0.00   0.00    -0.00   0.00  -0.00
  11   1    -0.00   0.00   0.00    -0.00   0.00   0.00    -0.00   0.00   0.00
  12   1     0.00  -0.00  -0.00    -0.00   0.00  -0.00     0.00  -0.00  -0.00
  13   6    -0.00  -0.00  -0.00    -0.00   0.00  -0.00    -0.00   0.00  -0.00
  14   1     0.00   0.00  -0.00    -0.00  -0.00   0.00    -0.00   0.00  -0.00
  15   1     0.00  -0.00   0.00     0.00  -0.00   0.00     0.00  -0.00   0.00
  16   1     0.00   0.00   0.00     0.00   0.00  -0.00    -0.00  -0.00  -0.00
  17   6     0.00   0.00  -0.00    -0.00  -0.00  -0.00    -0.00   0.00  -0.00
  18   1    -0.00  -0.00   0.00     0.00   0.00  -0.00     0.00   0.00  -0.00
  19   1     0.00   0.00   0.00     0.00   0.00   0.00    -0.00  -0.00  -0.00
  20   1     0.00  -0.00   0.00     0.00   0.00   0.00     0.00  -0.00   0.00
  21   1    -0.01  -0.01   0.02     0.00   0.00  -0.00     0.00   0.00  -0.00
  22   6    -0.00   0.00  -0.00    -0.00   0.00   0.00     0.00  -0.00  -0.00
  23   8     0.00  -0.00  -0.00     0.00  -0.00  -0.00    -0.00   0.00   0.00
  24   7     0.02   0.00  -0.02     0.00  -0.00  -0.00    -0.00  -0.00   0.00
  25   1     0.02  -0.08   0.06    -0.00   0.00   0.00    -0.00   0.00  -0.00
  26   1    -0.08   0.07   0.02    -0.00   0.00   0.00     0.00  -0.00  -0.00
  27   7     0.01   0.12  -0.14     0.00   0.00  -0.00     0.00  -0.00   0.00
  28   1     0.43  -0.32  -0.11     0.00  -0.00  -0.00    -0.00   0.00   0.00
  29   1    -0.47  -0.14   0.63    -0.00  -0.00   0.00     0.00   0.00  -0.00
  30   6    -0.00   0.00   0.00     0.00   0.00  -0.00     0.00   0.00   0.00
  31   8     0.00  -0.00  -0.00     0.00  -0.00   0.00    -0.00   0.00  -0.00
  32   7     0.00  -0.00  -0.00     0.06   0.15   0.09    -0.00  -0.00  -0.00
  33   1     0.00  -0.00   0.00    -0.56   0.08  -0.35     0.00  -0.00   0.00
  34   1    -0.00   0.00  -0.00     0.33  -0.64   0.03    -0.00   0.00  -0.00
  35   7    -0.00   0.00  -0.00     0.00  -0.01  -0.00    -0.00   0.00  -0.00
  36   1     0.00  -0.00   0.00    -0.02   0.03   0.00     0.00  -0.00  -0.00
  37   1     0.00   0.00   0.00     0.00   0.01   0.01     0.00   0.00   0.00
  38   6    -0.00   0.00   0.00    -0.00   0.00   0.00     0.00   0.00   0.00
  39   8     0.00  -0.00  -0.00     0.00  -0.00  -0.00    -0.00  -0.00   0.00
  40   7     0.00  -0.01  -0.01    -0.00   0.00   0.00     0.00  -0.00   0.00
  41   1     0.02   0.00   0.01    -0.00  -0.00  -0.00    -0.00   0.00  -0.00
  42   1    -0.03   0.02   0.01     0.00  -0.00  -0.00    -0.00   0.00   0.00
  43   7    -0.01   0.01   0.01    -0.00   0.00  -0.00     0.00  -0.00  -0.00
  44   1     0.05  -0.03  -0.02     0.01  -0.01  -0.00    -0.00   0.00   0.00
  45   1    -0.00  -0.00  -0.00     0.00   0.00   0.01     0.00   0.00   0.00
  46   6     0.00  -0.00   0.00     0.00   0.00   0.00     0.00   0.00   0.00
  47   8    -0.00   0.00  -0.00    -0.00  -0.00  -0.00    -0.00   0.00  -0.00
  48   7     0.00   0.00   0.00     0.00   0.00   0.00     0.18   0.03   0.04
  49   1    -0.00  -0.00   0.00    -0.00  -0.00   0.00    -0.28  -0.44   0.40
  50   1    -0.00   0.00  -0.00    -0.00   0.00  -0.00    -0.38   0.31  -0.55
  51   7     0.00   0.00  -0.00    -0.00  -0.00  -0.00    -0.01   0.01  -0.01
  52   1     0.00  -0.00   0.00     0.00  -0.00   0.00     0.03  -0.03   0.03
  53   1    -0.00  -0.00  -0.00     0.00   0.00   0.00     0.01   0.00  -0.00
                    145                    146                    147
                        a                      a                      a 
 Frequencies --  3501.3534              3510.1337              3521.8106
 Red. masses --     1.4683                 1.8713                 1.8931
 Frc consts  --     0.0000                 0.0000                 0.0000
 IR Inten    --    32.7663               111.2070                10.8454
 Raman Activ --     0.0000                 0.0000                 0.0000
 Depolar     --     0.0000                 0.0000                 0.0000
 Atom AN      X      Y      Z        X      Y      Z        X      Y      Z
   1   8    -0.00  -0.00   0.00     0.00   0.00  -0.00     0.00   0.00  -0.00
   2   6    -0.00   0.00  -0.00    -0.00   0.00  -0.00    -0.00   0.00  -0.00
   3   1     0.00  -0.00   0.00     0.00  -0.00   0.00    -0.00  -0.00   0.00
   4   1     0.00   0.00   0.00    -0.00  -0.00  -0.00     0.00   0.00   0.00
   5   6     0.00   0.00  -0.00     0.00   0.00   0.00    -0.00   0.00  -0.00
   6   1    -0.00  -0.00   0.00    -0.00  -0.00   0.00     0.00  -0.00   0.00
   7   1     0.00  -0.00   0.00     0.00  -0.00   0.00     0.00   0.00  -0.00
   8   7     0.00  -0.00  -0.00     0.00  -0.00  -0.00     0.00   0.00  -0.00
   9   6    -0.00   0.00  -0.00     0.00   0.00  -0.00    -0.00  -0.00  -0.00
  10   1    -0.00  -0.00   0.00    -0.00  -0.00   0.00     0.00  -0.00   0.00
  11   1     0.00  -0.00  -0.00    -0.00  -0.00  -0.00    -0.00   0.00   0.00
  12   1     0.00   0.00  -0.00    -0.00   0.00   0.00    -0.00  -0.00   0.00
  13   6    -0.00   0.00  -0.00     0.00   0.00  -0.00    -0.00   0.00   0.00
  14   1    -0.00  -0.00   0.00    -0.00  -0.00   0.00     0.00   0.00  -0.00
  15   1     0.00  -0.00   0.00     0.00   0.00   0.00     0.00  -0.00  -0.00
  16   1    -0.00  -0.00  -0.00    -0.00   0.00  -0.00     0.00  -0.00  -0.00
  17   6    -0.00  -0.00   0.00    -0.00  -0.00   0.00     0.00   0.00   0.00
  18   1     0.00   0.00  -0.00     0.00   0.00  -0.00    -0.00  -0.00   0.00
  19   1    -0.00   0.00   0.00    -0.00   0.00   0.00     0.00  -0.00   0.00
  20   1    -0.00  -0.00   0.00    -0.00  -0.00  -0.00    -0.00   0.00  -0.00
  21   1     0.00   0.00  -0.01    -0.01  -0.01   0.02    -0.00  -0.00   0.00
  22   6     0.00  -0.00  -0.00     0.00  -0.00  -0.00     0.00  -0.00   0.00
  23   8    -0.00   0.00   0.00    -0.00   0.00   0.00    -0.00   0.00   0.00
  24   7     0.11   0.03  -0.14    -0.02  -0.00   0.02     0.00  -0.00  -0.00
  25   1     0.12  -0.54   0.39    -0.02   0.08  -0.06     0.00   0.00  -0.00
  26   1    -0.53   0.42   0.13     0.09  -0.07  -0.02    -0.00   0.00   0.00
  27   7    -0.01  -0.02   0.03    -0.00   0.01  -0.01    -0.00   0.00  -0.00
  28   1    -0.05   0.03   0.01     0.04  -0.03  -0.01     0.00  -0.00  -0.00
  29   1     0.07   0.02  -0.10    -0.04  -0.01   0.05    -0.00  -0.00   0.00
  30   6     0.00  -0.00  -0.00     0.00  -0.00  -0.00     0.00   0.00   0.00
  31   8    -0.00   0.00   0.00    -0.00   0.00   0.00     0.00  -0.00  -0.00
  32   7    -0.00   0.00   0.00    -0.00   0.00   0.00     0.00  -0.00   0.00
  33   1    -0.00   0.00  -0.00    -0.00   0.00  -0.00    -0.00   0.00  -0.00
  34   1     0.00  -0.00   0.00     0.01  -0.01   0.00    -0.00   0.00   0.00
  35   7     0.00  -0.00   0.00     0.00  -0.00   0.00    -0.00   0.00  -0.00
  36   1    -0.00   0.00   0.00    -0.01   0.01   0.00     0.01  -0.01  -0.00
  37   1    -0.00  -0.00  -0.00    -0.00  -0.00  -0.00     0.00   0.00   0.00
  38   6     0.00  -0.00  -0.00     0.01  -0.00  -0.00     0.00  -0.00  -0.00
  39   8    -0.00   0.00   0.00    -0.00   0.00   0.00    -0.00   0.00   0.00
  40   7    -0.00   0.00  -0.00    -0.01  -0.02  -0.03     0.00   0.00   0.00
  41   1    -0.00  -0.00  -0.00     0.10   0.00   0.07    -0.00  -0.00  -0.00
  42   1     0.00  -0.00  -0.00    -0.08   0.06   0.02     0.00  -0.00  -0.00
  43   7     0.03  -0.02  -0.02     0.19  -0.13  -0.10    -0.00   0.00   0.00
  44   1    -0.13   0.08   0.06    -0.73   0.48   0.33     0.01  -0.01  -0.00
  45   1     0.00   0.00   0.01     0.02   0.03   0.06    -0.00   0.00   0.00
  46   6     0.00  -0.00   0.00     0.00  -0.00   0.00     0.01  -0.00   0.00
  47   8    -0.00   0.00  -0.00    -0.00   0.00  -0.00    -0.00   0.00  -0.00
  48   7     0.00   0.00   0.00    -0.00   0.00  -0.00     0.01   0.01  -0.01
  49   1    -0.00  -0.00   0.00    -0.00  -0.00   0.00    -0.04  -0.05   0.05
  50   1    -0.00   0.00  -0.00     0.00  -0.00   0.00    -0.00   0.00  -0.00
  51   7    -0.00  -0.00   0.00     0.00  -0.00   0.00     0.16  -0.14   0.14
  52   1    -0.00   0.00  -0.00    -0.01   0.01  -0.01    -0.55   0.57  -0.54
  53   1     0.00   0.00   0.00     0.01   0.00   0.00    -0.08  -0.04   0.00
                    148                    149                    150
                        a                      a                      a 
 Frequencies --  3536.7627              3555.3117              3558.3547
 Red. masses --     1.9035                 2.1724                 2.1719
 Frc consts  --     0.0000                 0.0000                 0.0000
 IR Inten    --    12.5283                25.7014                 9.8835
 Raman Activ --     0.0000                 0.0000                 0.0000
 Depolar     --     0.0000                 0.0000                 0.0000
 Atom AN      X      Y      Z        X      Y      Z        X      Y      Z
   1   8    -0.00   0.00  -0.00    -0.00  -0.00   0.00    -0.00  -0.00  -0.00
   2   6     0.00   0.00   0.00    -0.00   0.00  -0.00     0.00   0.00   0.00
   3   1     0.00  -0.00   0.00     0.00  -0.00   0.00    -0.00  -0.00   0.00
   4   1    -0.00  -0.00  -0.00     0.00   0.00   0.00    -0.00  -0.00  -0.00
   5   6     0.00   0.00   0.00     0.00   0.00   0.00    -0.00   0.00   0.00
   6   1     0.00  -0.00  -0.00    -0.00  -0.00   0.00    -0.00  -0.00  -0.00
   7   1    -0.00  -0.00   0.00    -0.00   0.00  -0.00     0.00  -0.00   0.00
   8   7    -0.00  -0.00   0.00    -0.00   0.00   0.00    -0.00  -0.00   0.00
   9   6     0.00   0.00  -0.00     0.00   0.00  -0.00     0.00   0.00  -0.00
  10   1    -0.00  -0.00   0.00    -0.00  -0.00   0.00    -0.00  -0.00   0.00
  11   1    -0.00  -0.00  -0.00     0.00  -0.00  -0.00    -0.00   0.00  -0.00
  12   1    -0.00   0.00   0.00    -0.00   0.00   0.00    -0.00   0.00   0.00
  13   6     0.00   0.00  -0.00     0.00  -0.00   0.00     0.00   0.00  -0.00
  14   1    -0.00  -0.00   0.00    -0.00  -0.00   0.00    -0.00  -0.00   0.00
  15   1     0.00  -0.00   0.00    -0.00   0.00  -0.00     0.00  -0.00   0.00
  16   1    -0.00  -0.00  -0.00    -0.00  -0.00  -0.00     0.00  -0.00  -0.00
  17   6     0.00   0.00  -0.00     0.00   0.00   0.00    -0.00   0.00  -0.00
  18   1    -0.00   0.00   0.00     0.00   0.00  -0.00    -0.00   0.00   0.00
  19   1     0.00  -0.00  -0.00    -0.00  -0.00  -0.00     0.00  -0.00  -0.00
  20   1     0.00  -0.00   0.00    -0.00   0.00  -0.00     0.00  -0.00   0.00
  21   1     0.00  -0.00   0.00     0.00   0.00  -0.01     0.00   0.00   0.00
  22   6     0.00  -0.00   0.00    -0.01  -0.00   0.01    -0.00   0.00   0.00
  23   8    -0.00   0.00  -0.00     0.00  -0.00  -0.00     0.00  -0.00  -0.00
  24   7     0.00  -0.00  -0.00     0.04  -0.07   0.02     0.00  -0.00   0.00
  25   1     0.00   0.00  -0.00    -0.03   0.15  -0.12    -0.00   0.00  -0.00
  26   1    -0.00   0.00   0.00    -0.13   0.10   0.03    -0.00   0.00   0.00
  27   7     0.00  -0.00  -0.00    -0.23   0.10   0.14     0.00  -0.00  -0.00
  28   1    -0.00   0.00   0.00     0.60  -0.47  -0.13    -0.00   0.00   0.00
  29   1     0.00   0.00  -0.00     0.28   0.10  -0.41    -0.00  -0.00   0.00
  30   6    -0.00  -0.01  -0.00     0.00   0.00  -0.00     0.01  -0.01   0.00
  31   8    -0.00   0.00   0.00     0.00  -0.00   0.00    -0.00   0.00  -0.00
  32   7    -0.03   0.02  -0.02     0.00  -0.00   0.00     0.22  -0.17   0.10
  33   1     0.09  -0.01   0.06    -0.00   0.00  -0.00    -0.59   0.05  -0.37
  34   1     0.02  -0.05   0.00    -0.00   0.00  -0.00    -0.27   0.58  -0.01
  35   7     0.12  -0.23  -0.02     0.00  -0.00   0.00     0.01  -0.03  -0.00
  36   1    -0.49   0.82   0.04    -0.00   0.00  -0.00    -0.06   0.10   0.00
  37   1     0.03   0.04   0.07     0.00  -0.00  -0.00     0.00   0.01   0.01
  38   6     0.00  -0.00  -0.00     0.00  -0.00  -0.00     0.00  -0.00  -0.00
  39   8    -0.00   0.00   0.00    -0.00   0.00   0.00    -0.00   0.00   0.00
  40   7    -0.00   0.00   0.00     0.00  -0.00   0.00    -0.01   0.00  -0.00
  41   1     0.00   0.00   0.00    -0.01  -0.00  -0.01     0.03   0.00   0.02
  42   1     0.01  -0.00  -0.00    -0.00   0.00   0.00     0.01  -0.01  -0.00
  43   7    -0.00   0.00   0.00    -0.00   0.00   0.00     0.00  -0.00  -0.00
  44   1     0.01  -0.01  -0.00     0.00  -0.00  -0.00    -0.00   0.00   0.00
  45   1    -0.00   0.00   0.00    -0.00  -0.00  -0.00     0.00   0.00   0.01
  46   6     0.00  -0.00   0.00    -0.00   0.00  -0.00     0.00  -0.00   0.00
  47   8    -0.00   0.00  -0.00     0.00  -0.00   0.00    -0.00   0.00  -0.00
  48   7     0.00   0.00  -0.00     0.00  -0.00   0.00    -0.00   0.00  -0.00
  49   1    -0.00  -0.00   0.00     0.00   0.00  -0.00    -0.00  -0.00   0.00
  50   1    -0.00   0.00  -0.00    -0.00   0.00  -0.00     0.00  -0.00   0.00
  51   7     0.00  -0.00   0.00    -0.00   0.00  -0.00     0.00  -0.00   0.00
  52   1    -0.01   0.01  -0.01     0.00  -0.00   0.00    -0.00   0.00  -0.00
  53   1    -0.01  -0.00  -0.00     0.00   0.00  -0.00    -0.00  -0.00  -0.00
                    151                    152                    153
                        a                      a                      a 
 Frequencies --  3560.4660              3564.5697              3566.3262
 Red. masses --     2.1139                 2.1785                 2.1840
 Frc consts  --     0.0000                 0.0000                 0.0000
 IR Inten    --    42.3703                 8.9869                28.6690
 Raman Activ --     0.0000                 0.0000                 0.0000
 Depolar     --     0.0000                 0.0000                 0.0000
 Atom AN      X      Y      Z        X      Y      Z        X      Y      Z
   1   8    -0.00  -0.00   0.00    -0.00  -0.00   0.00     0.00   0.00  -0.00
   2   6     0.00  -0.00   0.00     0.00  -0.00   0.00     0.00   0.00   0.00
   3   1    -0.00   0.00  -0.00     0.00   0.00  -0.00    -0.00   0.00  -0.00
   4   1     0.00   0.00  -0.00    -0.00  -0.00  -0.00    -0.00  -0.00  -0.00
   5   6    -0.00  -0.00  -0.00    -0.00   0.00  -0.00     0.00  -0.00   0.00
   6   1     0.00   0.00  -0.00    -0.00   0.00  -0.00     0.00   0.00  -0.00
   7   1     0.00  -0.00   0.00     0.00  -0.00   0.00    -0.00   0.00  -0.00
   8   7     0.00   0.00  -0.00     0.00  -0.00   0.00     0.00  -0.00  -0.00
   9   6    -0.00  -0.00   0.00    -0.00  -0.00   0.00    -0.00  -0.00   0.00
  10   1     0.00   0.00  -0.00    -0.00   0.00  -0.00     0.00   0.00  -0.00
  11   1     0.00   0.00   0.00    -0.00  -0.00  -0.00    -0.00   0.00   0.00
  12   1     0.00  -0.00  -0.00     0.00   0.00  -0.00     0.00  -0.00  -0.00
  13   6    -0.00   0.00  -0.00    -0.00   0.00  -0.00     0.00  -0.00  -0.00
  14   1     0.00   0.00  -0.00    -0.00   0.00  -0.00     0.00   0.00  -0.00
  15   1     0.00  -0.00   0.00     0.00  -0.00   0.00    -0.00   0.00  -0.00
  16   1    -0.00  -0.00   0.00    -0.00   0.00  -0.00     0.00   0.00   0.00
  17   6     0.00   0.00  -0.00    -0.00   0.00  -0.00    -0.00  -0.00   0.00
  18   1    -0.00  -0.00   0.00    -0.00   0.00  -0.00     0.00  -0.00   0.00
  19   1     0.00   0.00   0.00    -0.00   0.00   0.00     0.00   0.00  -0.00
  20   1     0.00   0.00  -0.00     0.00   0.00   0.00    -0.00   0.00  -0.00
  21   1     0.00   0.00  -0.01     0.00   0.00  -0.00    -0.00  -0.00   0.01
  22   6    -0.00   0.00   0.00     0.00  -0.00   0.00     0.01  -0.01   0.00
  23   8     0.00  -0.00  -0.00    -0.00  -0.00   0.00    -0.00   0.00  -0.00
  24   7     0.01  -0.01   0.00     0.00  -0.00   0.00     0.16  -0.23   0.07
  25   1    -0.01   0.03  -0.02    -0.00   0.00  -0.00    -0.09   0.51  -0.39
  26   1    -0.04   0.03   0.01    -0.00   0.00   0.00    -0.50   0.38   0.14
  27   7     0.00  -0.00   0.00     0.00  -0.00  -0.00     0.06  -0.03  -0.04
  28   1    -0.00   0.00   0.00    -0.00   0.00   0.00    -0.16   0.13   0.03
  29   1     0.00   0.00  -0.01    -0.00  -0.00   0.00    -0.08  -0.03   0.11
  30   6    -0.00   0.00  -0.00    -0.00   0.00  -0.00     0.00  -0.00  -0.00
  31   8     0.00  -0.00  -0.00     0.00  -0.00   0.00    -0.00   0.00   0.00
  32   7    -0.01   0.01  -0.00    -0.00   0.00  -0.00     0.00  -0.00   0.00
  33   1     0.02  -0.00   0.02     0.00  -0.00   0.00    -0.00   0.00  -0.00
  34   1     0.01  -0.02   0.00     0.00  -0.00   0.00    -0.00   0.00  -0.00
  35   7    -0.00   0.00   0.00    -0.00   0.00   0.00    -0.00  -0.00  -0.00
  36   1     0.01  -0.01  -0.00     0.00  -0.00  -0.00     0.00  -0.00  -0.00
  37   1    -0.00  -0.00  -0.00    -0.00  -0.00  -0.00     0.00   0.00   0.00
  38   6    -0.01   0.00  -0.00    -0.00   0.00   0.00     0.00  -0.00  -0.00
  39   8     0.00  -0.00  -0.00     0.00  -0.00  -0.00    -0.00   0.00   0.00
  40   7    -0.27   0.05  -0.10    -0.00   0.00  -0.00     0.02  -0.00   0.00
  41   1     0.72   0.03   0.48     0.00   0.00   0.00    -0.04  -0.00  -0.03
  42   1     0.30  -0.24  -0.10     0.00  -0.00  -0.00    -0.02   0.02   0.01
  43   7    -0.01   0.01   0.01     0.00   0.00   0.00     0.00  -0.00  -0.00
  44   1     0.05  -0.03  -0.02     0.00  -0.00  -0.00    -0.01   0.01   0.01
  45   1    -0.00  -0.00  -0.00    -0.00  -0.00  -0.00     0.00   0.00   0.00
  46   6    -0.00  -0.00   0.00     0.00   0.01  -0.01     0.00  -0.00   0.00
  47   8    -0.00   0.00  -0.00    -0.00  -0.00   0.00     0.00   0.00  -0.00
  48   7     0.00  -0.00   0.00    -0.01   0.19  -0.23     0.00  -0.00   0.00
  49   1     0.00   0.00  -0.00    -0.33  -0.48   0.41     0.00   0.00  -0.00
  50   1    -0.00   0.00  -0.00     0.35  -0.25   0.47    -0.00   0.00  -0.00
  51   7    -0.00  -0.00  -0.00    -0.01   0.01  -0.01     0.00  -0.00   0.00
  52   1    -0.00   0.00  -0.00     0.03  -0.04   0.03    -0.00   0.00  -0.00
  53   1     0.01   0.00   0.00     0.01   0.00  -0.00    -0.00  -0.00  -0.00
