      -----------------------------------------------------------      
     |                   =====================                   |     
     |                           x T B                           |     
     |                   =====================                   |     
     |                         S. Grimme                         |     
     |          Mulliken Center for Theoretical Chemistry        |     
     |                    University of Bonn                     |     
      -----------------------------------------------------------      

   * xtb version 6.6.1 (unknown-commit) compiled by '@Linux' on 12/27/2023

   xtb is free software: you can redistribute it and/or modify it under
   the terms of the GNU Lesser General Public License as published by
   the Free Software Foundation, either version 3 of the License, or
   (at your option) any later version.
   
   xtb is distributed in the hope that it will be useful,
   but WITHOUT ANY WARRANTY; without even the implied warranty of
   MERCHANTABILITY or FITNESS FOR A PARTICULAR PURPOSE.  See the
   GNU Lesser General Public License for more details.
   
   Cite this work as:
   * C. Bannwarth, E. Caldeweyher, S. Ehlert, A. Hansen, P. Pracht,
     J. Seibert, S. Spicher, S. Grimme, WIREs Comput. Mol. Sci., 2020, 11,
     e01493. DOI: 10.1002/wcms.1493
   
   for GFN2-xTB:
   * C. Bannwarth, S. Ehlert and S. Grimme., J. Chem. Theory Comput., 2019,
     15, 1652-1671. DOI: 10.1021/acs.jctc.8b01176
   for GFN1-xTB:
   * S. Grimme, C. Bannwarth, P. Shushkov, J. Chem. Theory Comput., 2017,
     13, 1989-2009. DOI: 10.1021/acs.jctc.7b00118
   for GFN0-xTB:
   * P. Pracht, E. Caldeweyher, S. Ehlert, S. Grimme, ChemRxiv, 2019, preprint.
     DOI: 10.26434/chemrxiv.8326202.v1
   for GFN-FF:
   * S. Spicher and S. Grimme, Angew. Chem. Int. Ed., 2020, 59, 15665-15673.
     DOI: 10.1002/anie.202004239
   
   for ALPB and GBSA implicit solvation:
   * S. Ehlert, M. Stahn, S. Spicher, S. Grimme, J. Chem. Theory Comput.,
     2021, 17, 4250-4261. DOI: 10.1021/acs.jctc.1c00471
   
   for DFT-D4:
   * E. Caldeweyher, C. Bannwarth and S. Grimme, J. Chem. Phys., 2017,
     147, 034112. DOI: 10.1063/1.4993215
   * E. Caldeweyher, S. Ehlert, A. Hansen, H. Neugebauer, S. Spicher,
     C. Bannwarth and S. Grimme, J. Chem. Phys., 2019, 150, 154122.
     DOI: 10.1063/1.5090222
   * E. Caldeweyher, J.-M. Mewes, S. Ehlert and S. Grimme, Phys. Chem. Chem. Phys.
     2020, 22, 8499-8512. DOI: 10.1039/D0CP00502A
   
   for sTDA-xTB:
   * S. Grimme and C. Bannwarth, J. Chem. Phys., 2016, 145, 054103.
     DOI: 10.1063/1.4959605
   
   in the mass-spec context:
   * V. Asgeirsson, C. Bauer and S. Grimme, Chem. Sci., 2017, 8, 4879.
     DOI: 10.1039/c7sc00601b
   * J. Koopman and S. Grimme, ACS Omega 2019, 4, 12, 15120-15133.
     DOI: 10.1021/acsomega.9b02011
   
   for metadynamics refer to:
   * S. Grimme, J. Chem. Theory Comput., 2019, 155, 2847-2862
     DOI: 10.1021/acs.jctc.9b00143
   
   for SPH calculations refer to:
   * S. Spicher and S. Grimme, J. Chem. Theory Comput., 2021, 17, 1701-1714
     DOI: 10.1021/acs.jctc.0c01306
   
   with help from (in alphabetical order)
   P. Atkinson, C. Bannwarth, F. Bohle, G. Brandenburg, E. Caldeweyher
   M. Checinski, S. Dohm, S. Ehlert, S. Ehrlich, I. Gerasimov, C. Hölzer
   A. Katbashev, J. Koopman, C. Lavigne, S. Lehtola, F. März, M. Müller,
   F. Musil, H. Neugebauer, J. Pisarek, C. Plett, P. Pracht, F. Pultar,
   J. Seibert, P. Shushkov, S. Spicher, M. Stahn, M. Steiner, T. Strunk,
   J. Stückrath, T. Rose, and J. Unsleber
   
 * started run on 2024/01/10 at 18:32:28.020     

           -------------------------------------------------
          |                Calculation Setup                |
           -------------------------------------------------

          program call               : xtb struc.xyz --gfn2 --hess
          hostname                   : swaroop
          coordinate file            : struc.xyz
          omp threads                :                     1

   ID    Z sym.   atoms
    1    8 O      1, 23, 31, 39, 47
    2    6 C      2, 5, 9, 13, 17, 22, 30, 38, 46
    3    1 H      3, 4, 6, 7, 10-12, 14-16, 18-21, 25, 26, 28, 29, 33, 34,
                  36, 37, 41, 42, 44, 45, 49, 50, 52, 53
    4    7 N      8, 24, 27, 32, 35, 40, 43, 48, 51

molecular fragmentation (1/2 indicates fragments):
11111111111111111111122222222222222222222222222222222
# atoms in fragment 1/2:    21    32
 fragment masses (1/2) :      104.17      240.22
CMA distance (Bohr)    :   5.719
constraining FC (au)   :  0.0500

           -------------------------------------------------
          |                 G F N 2 - x T B                 |
           -------------------------------------------------

        Reference                      10.1021/acs.jctc.8b01176
      * Hamiltonian:
        H0-scaling (s, p, d)           1.850000    2.230000    2.230000
        zeta-weighting                 0.500000
      * Dispersion:
        s8                             2.700000
        a1                             0.520000
        a2                             5.000000
        s9                             5.000000
      * Repulsion:
        kExp                           1.500000    1.000000
        rExp                           1.000000
      * Coulomb:
        alpha                          2.000000
        third order                    shell-resolved
        anisotropic                    true
        a3                             3.000000
        a5                             4.000000
        cn-shift                       1.200000
        cn-exp                         4.000000
        max-rad                        5.000000


          ...................................................
          :                      SETUP                      :
          :.................................................:
          :  # basis functions                 122          :
          :  # atomic orbitals                 122          :
          :  # shells                           76          :
          :  # electrons                       140          :
          :  max. iterations                   250          :
          :  Hamiltonian                  GFN2-xTB          :
          :  restarted?                      false          :
          :  GBSA solvation                  false          :
          :  PC potential                    false          :
          :  electronic temp.          300.0000000     K    :
          :  accuracy                    1.0000000          :
          :  -> integral cutoff          0.2500000E+02      :
          :  -> integral neglect         0.1000000E-07      :
          :  -> SCF convergence          0.1000000E-05 Eh   :
          :  -> wf. convergence          0.1000000E-03 e    :
          :  Broyden damping             0.4000000          :
          ...................................................

 iter      E             dE          RMSdq      gap      omega  full diag
   1    -81.5466601 -0.815467E+02  0.433E+00    5.15       0.0  T
   2    -81.8398613 -0.293201E+00  0.236E+00    5.95       1.0  T
   3    -81.8457475 -0.588623E-02  0.117E+00    5.72       1.0  T
   4    -81.8471172 -0.136965E-02  0.246E-01    5.83       1.0  T
   5    -81.8480360 -0.918854E-03  0.928E-02    5.74       1.0  T
   6    -81.8480608 -0.247965E-04  0.268E-02    5.74       1.0  T
   7    -81.8480657 -0.489920E-05  0.754E-03    5.73       1.8  T
   8    -81.8480660 -0.243782E-06  0.275E-03    5.73       5.0  T
   9    -81.8480660 -0.258581E-07  0.906E-04    5.73      15.2  T
  10    -81.8480660 -0.505266E-08  0.183E-04    5.73      75.2  T

   *** convergence criteria satisfied after 10 iterations ***

         #    Occupation            Energy/Eh            Energy/eV
      -------------------------------------------------------------
         1        2.0000           -0.7909267             -21.5222
       ...           ...                  ...                  ...
        64        2.0000           -0.4911895             -13.3659
        65        2.0000           -0.4883604             -13.2890
        66        2.0000           -0.4854466             -13.2097
        67        2.0000           -0.4850976             -13.2002
        68        2.0000           -0.4804482             -13.0737
        69        2.0000           -0.4801771             -13.0663
        70        2.0000           -0.4756381             -12.9428 (HOMO)
        71                         -0.2649539              -7.2098 (LUMO)
        72                         -0.2601956              -7.0803
        73                         -0.2520154              -6.8577
        74                         -0.2486998              -6.7675
        75                         -0.1464873              -3.9861
       ...                                ...                  ...
       122                          0.5721097              15.5679
      -------------------------------------------------------------
                  HL-Gap            0.2106842 Eh            5.7330 eV
             Fermi-level           -0.3702960 Eh          -10.0763 eV

 SCC (total)                   0 d,  0 h,  0 min,  0.094 sec
 SCC setup                      ...        0 min,  0.000 sec (  0.306%)
 Dispersion                     ...        0 min,  0.001 sec (  0.626%)
 classical contributions        ...        0 min,  0.000 sec (  0.192%)
 integral evaluation            ...        0 min,  0.007 sec (  7.631%)
 iterations                     ...        0 min,  0.059 sec ( 62.930%)
 molecular gradient             ...        0 min,  0.026 sec ( 28.033%)
 printout                       ...        0 min,  0.000 sec (  0.269%)

         :::::::::::::::::::::::::::::::::::::::::::::::::::::
         ::                     SUMMARY                     ::
         :::::::::::::::::::::::::::::::::::::::::::::::::::::
         :: total energy             -80.932288415372 Eh    ::
         :: gradient norm              0.000126765759 Eh/a0 ::
         :: HOMO-LUMO gap              5.733009182727 eV    ::
         ::.................................................::
         :: SCC energy               -81.848065991180 Eh    ::
         :: -> isotropic ES            0.292007977742 Eh    ::
         :: -> anisotropic ES         -0.029673344636 Eh    ::
         :: -> anisotropic XC          0.020620793832 Eh    ::
         :: -> dispersion             -0.040661748303 Eh    ::
         :: repulsion energy           0.915324730812 Eh    ::
         :: add. restraining           0.000000000000 Eh    ::
         :: total charge               1.000000000000 e     ::
         :::::::::::::::::::::::::::::::::::::::::::::::::::::

           ------------------------------------------------- 
          |                Numerical Hessian                |
           ------------------------------------------------- 
step length          :   0.00500
SCC accuracy         :   0.30000
Hessian scale factor :   1.00000
frozen atoms in %    :   0.00000    0
RMS gradient         :   0.00013
estimated CPU  time      0.23 min
estimated wall time      0.23 min

writing file <hessian>.

 projected vibrational frequencies (cm⁻¹)
eigval :       -0.00    -0.00    -0.00     0.00     0.00     0.00
eigval :        9.13    11.14    12.90    20.34    25.98    30.04
eigval :       33.35    38.15    42.38    49.05    54.38    58.81
eigval :       61.77    74.69    77.74    89.08   100.48   108.81
eigval :      113.62   126.83   132.44   136.40   142.28   161.36
eigval :      198.45   239.50   244.39   250.22   266.18   271.35
eigval :      278.40   292.49   309.80   342.02   353.65   357.16
eigval :      367.44   383.94   390.17   439.35   444.46   447.07
eigval :      457.33   460.74   464.65   469.88   472.91   478.52
eigval :      486.87   501.19   508.35   533.64   542.19   545.52
eigval :      549.53   568.96   579.74   634.81   644.74   663.05
eigval :      672.75   676.55   679.38   679.60   766.31   820.82
eigval :      907.52   926.57   950.79   960.43   962.80   989.90
eigval :      997.11   999.78  1005.29  1008.07  1010.31  1024.59
eigval :     1027.99  1037.97  1041.51  1083.59  1085.53  1086.96
eigval :     1095.06  1108.88  1113.29  1134.56  1170.24  1230.47
eigval :     1254.02  1280.24  1312.41  1328.24  1343.57  1352.20
eigval :     1354.04  1359.26  1363.61  1396.27  1404.75  1405.77
eigval :     1427.07  1429.85  1442.74  1446.26  1449.48  1452.69
eigval :     1457.32  1458.72  1459.78  1468.91  1475.85  1480.28
eigval :     1491.65  1496.49  1500.32  1505.10  1526.82  1674.35
eigval :     1709.02  1716.97  1724.67  2868.64  2918.13  2969.26
eigval :     2987.03  2989.75  3023.77  3038.76  3040.08  3044.71
eigval :     3047.50  3051.99  3059.34  3060.71  3071.13  3355.25
eigval :     3366.21  3388.22  3441.40  3495.90  3497.59  3498.16
eigval :     3499.67  3535.45  3542.71  3548.84  3556.26  3559.19
eigval :     3562.75  3563.21  3564.69
           -------------------------------------------------
          |                Property Printout                |
           -------------------------------------------------

    * Orbital Energies and Occupations

         #    Occupation            Energy/Eh            Energy/eV
      -------------------------------------------------------------
         1        2.0000           -0.7909267             -21.5222
       ...           ...                  ...                  ...
        58        2.0000           -0.5032757             -13.6948
        59        2.0000           -0.4986324             -13.5685
        60        2.0000           -0.4979623             -13.5502
        61        2.0000           -0.4972667             -13.5313
        62        2.0000           -0.4947597             -13.4631
        63        2.0000           -0.4916402             -13.3782
        64        2.0000           -0.4911907             -13.3660
        65        2.0000           -0.4883614             -13.2890
        66        2.0000           -0.4854482             -13.2097
        67        2.0000           -0.4850988             -13.2002
        68        2.0000           -0.4804499             -13.0737
        69        2.0000           -0.4801781             -13.0663
        70        2.0000           -0.4756397             -12.9428 (HOMO)
        71                         -0.2649567              -7.2098 (LUMO)
        72                         -0.2601973              -7.0803
        73                         -0.2520151              -6.8577
        74                         -0.2487032              -6.7676
        75                         -0.1464872              -3.9861
        76                         -0.0958263              -2.6076
        77                         -0.0914815              -2.4893
        78                         -0.0807369              -2.1970
        79                         -0.0730562              -1.9880
        80                         -0.0693941              -1.8883
        81                         -0.0658237              -1.7912
       ...                                ...                  ...
       122                          0.5721081              15.5679
      -------------------------------------------------------------
                  HL-Gap            0.2106830 Eh            5.7330 eV
             Fermi-level           -0.3702982 Eh          -10.0763 eV

     #   Z          covCN         q      C6AA      α(0)
     1   8 O        1.651    -0.487    22.614     6.419
     2   6 C        3.673     0.076    19.541     6.335
     3   1 H        0.924     0.058     2.227     2.334
     4   1 H        0.923     0.042     2.421     2.433
     5   6 C        3.763    -0.058    21.653     6.633
     6   1 H        0.924     0.112     1.680     2.027
     7   1 H        0.924     0.069     2.099     2.266
     8   7 N        3.624     0.157    18.588     6.403
     9   6 C        3.736    -0.105    22.592     6.783
    10   1 H        0.925     0.081     1.971     2.196
    11   1 H        0.925     0.124     1.580     1.965
    12   1 H        0.925     0.090     1.882     2.145
    13   6 C        3.725    -0.119    22.898     6.833
    14   1 H        0.925     0.072     2.066     2.248
    15   1 H        0.925     0.117     1.634     1.999
    16   1 H        0.925     0.130     1.534     1.937
    17   6 C        3.727    -0.123    22.963     6.842
    18   1 H        0.925     0.103     1.758     2.073
    19   1 H        0.925     0.115     1.655     2.012
    20   1 H        0.925     0.122     1.598     1.977
    21   1 H        0.800     0.342     0.608     1.225
    22   6 C        2.675     0.340    21.222     7.538
    23   8 O        0.860    -0.551    24.941     6.696
    24   7 N        2.650    -0.292    27.539     7.794
    25   1 H        0.861     0.192     1.149     1.679
    26   1 H        0.860     0.225     0.988     1.557
    27   7 N        2.650    -0.296    27.635     7.807
    28   1 H        0.860     0.222     1.000     1.566
    29   1 H        0.861     0.196     1.128     1.663
    30   6 C        2.675     0.343    21.175     7.530
    31   8 O        0.860    -0.526    24.367     6.618
    32   7 N        2.645    -0.301    27.745     7.823
    33   1 H        0.860     0.234     0.948     1.525
    34   1 H        0.861     0.178     1.225     1.734
    35   7 N        2.645    -0.296    27.617     7.805
    36   1 H        0.861     0.182     1.204     1.719
    37   1 H        0.860     0.196     1.127     1.663
    38   6 C        2.675     0.343    21.174     7.530
    39   8 O        0.860    -0.525    24.350     6.616
    40   7 N        2.645    -0.294    27.578     7.799
    41   1 H        0.860     0.198     1.117     1.655
    42   1 H        0.861     0.179     1.219     1.730
    43   7 N        2.645    -0.304    27.827     7.834
    44   1 H        0.861     0.173     1.255     1.755
    45   1 H        0.860     0.233     0.952     1.529
    46   6 C        2.675     0.347    21.105     7.517
    47   8 O        0.860    -0.512    24.057     6.576
    48   7 N        2.645    -0.288    27.424     7.778
    49   1 H        0.860     0.201     1.098     1.642
    50   1 H        0.861     0.187     1.174     1.697
    51   7 N        2.645    -0.289    27.461     7.783
    52   1 H        0.861     0.187     1.175     1.698
    53   1 H        0.860     0.200     1.104     1.646

 Mol. C6AA /au·bohr⁶  :      21799.731817
 Mol. C8AA /au·bohr⁸  :     454282.854177
 Mol. α(0) /au        :        220.588870


Wiberg/Mayer (AO) data.
largest (>0.10) Wiberg bond orders for each atom

 ---------------------------------------------------------------------------
     #   Z sym  total        # sym  WBO       # sym  WBO       # sym  WBO
 ---------------------------------------------------------------------------
     1   8 O    1.950 --     2 C    1.017    21 H    0.780
     2   6 C    3.966 --     1 O    1.017     5 C    0.997     3 H    0.965
                             4 H    0.961
     3   1 H    0.997 --     2 C    0.965
     4   1 H    0.998 --     2 C    0.961
     5   6 C    3.943 --     2 C    0.997     7 H    0.970     6 H    0.953
                             8 N    0.942
     6   1 H    0.987 --     5 C    0.953
     7   1 H    0.995 --     5 C    0.970
     8   7 N    3.821 --     9 C    0.961    13 C    0.954    17 C    0.947
                             5 C    0.942
     9   6 C    3.932 --    10 H    0.979    12 H    0.977    11 H    0.966
                             8 N    0.961
    10   1 H    0.993 --     9 C    0.979
    11   1 H    0.984 --     9 C    0.966
    12   1 H    0.992 --     9 C    0.977
    13   6 C    3.914 --    14 H    0.980    15 H    0.960     8 N    0.954
                            16 H    0.952
    14   1 H    0.995 --    13 C    0.980
    15   1 H    0.986 --    13 C    0.960
    16   1 H    0.983 --    13 C    0.952
    17   6 C    3.905 --    18 H    0.970    19 H    0.961    20 H    0.959
                             8 N    0.947
    18   1 H    0.989 --    17 C    0.970
    19   1 H    0.987 --    17 C    0.961
    20   1 H    0.985 --    17 C    0.959
    21   1 H    0.883 --     1 O    0.780
    22   6 C    3.960 --    23 O    1.460    24 N    1.249    27 N    1.244
    23   8 O    1.888 --    22 C    1.460    27 N    0.135    24 N    0.132
    24   7 N    3.346 --    22 C    1.249    25 H    0.946    26 H    0.905
                            23 O    0.132
    25   1 H    0.963 --    24 N    0.946
    26   1 H    0.949 --    24 N    0.905
    27   7 N    3.345 --    22 C    1.244    29 H    0.942    28 H    0.915
                            23 O    0.135
    28   1 H    0.951 --    27 N    0.915
    29   1 H    0.962 --    27 N    0.942
    30   6 C    3.959 --    31 O    1.516    32 N    1.241    35 N    1.194
    31   8 O    1.899 --    30 C    1.516    32 N    0.147    35 N    0.135
    32   7 N    3.341 --    30 C    1.241    34 H    0.949    33 H    0.895
                            31 O    0.147
    33   1 H    0.945 --    32 N    0.895
    34   1 H    0.968 --    32 N    0.949
    35   7 N    3.307 --    30 C    1.194    36 H    0.948    37 H    0.945
                            31 O    0.135
    36   1 H    0.967 --    35 N    0.948
    37   1 H    0.961 --    35 N    0.945
    38   6 C    3.959 --    39 O    1.530    43 N    1.227    40 N    1.195
    39   8 O    1.895 --    38 C    1.530    43 N    0.148    40 N    0.138
    40   7 N    3.310 --    38 C    1.195    42 H    0.949    41 H    0.944
                            39 O    0.138
    41   1 H    0.961 --    40 N    0.944
    42   1 H    0.968 --    40 N    0.949
    43   7 N    3.328 --    38 C    1.227    44 H    0.951    45 H    0.900
                            39 O    0.148
    44   1 H    0.970 --    43 N    0.951
    45   1 H    0.946 --    43 N    0.900
    46   6 C    3.959 --    47 O    1.535    48 N    1.209    51 N    1.206
    47   8 O    1.921 --    46 C    1.535    51 N    0.143    48 N    0.142
    48   7 N    3.323 --    46 C    1.209    50 H    0.946    49 H    0.942
                            47 O    0.142
    49   1 H    0.959 --    48 N    0.942
    50   1 H    0.965 --    48 N    0.946
    51   7 N    3.321 --    46 C    1.206    52 H    0.946    53 H    0.943
                            47 O    0.143
    52   1 H    0.965 --    51 N    0.946
    53   1 H    0.960 --    51 N    0.943
 ---------------------------------------------------------------------------

Topologies differ in total number of bonds
Writing topology from bond orders to xtbtopo.mol

molecular dipole:
                 x           y           z       tot (Debye)
 q only:       -0.823       0.035       0.399
   full:       -1.431       0.399       0.567       4.041
molecular quadrupole (traceless):
                xx          xy          yy          xz          yz          zz
 q only:       74.952      29.702     -22.079     -28.894      -0.868     -52.874
  q+dip:       85.648      38.815     -24.428     -33.952      -1.240     -61.220
   full:       85.632      38.102     -24.541     -33.185      -1.631     -61.091

           -------------------------------------------------
          |               Frequency Printout                |
           -------------------------------------------------
 projected vibrational frequencies (cm⁻¹)
eigval :       -0.00    -0.00    -0.00     0.00     0.00     0.00
eigval :        9.13    11.14    12.90    20.34    25.98    30.04
eigval :       33.35    38.15    42.38    49.05    54.38    58.81
eigval :       61.77    74.69    77.74    89.08   100.48   108.81
eigval :      113.62   126.83   132.44   136.40   142.28   161.36
eigval :      198.45   239.50   244.39   250.22   266.18   271.35
eigval :      278.40   292.49   309.80   342.02   353.65   357.16
eigval :      367.44   383.94   390.17   439.35   444.46   447.07
eigval :      457.33   460.74   464.65   469.88   472.91   478.52
eigval :      486.87   501.19   508.35   533.64   542.19   545.52
eigval :      549.53   568.96   579.74   634.81   644.74   663.05
eigval :      672.75   676.55   679.38   679.60   766.31   820.82
eigval :      907.52   926.57   950.79   960.43   962.80   989.90
eigval :      997.11   999.78  1005.29  1008.07  1010.31  1024.59
eigval :     1027.99  1037.97  1041.51  1083.59  1085.53  1086.96
eigval :     1095.06  1108.88  1113.29  1134.56  1170.24  1230.47
eigval :     1254.02  1280.24  1312.41  1328.24  1343.57  1352.20
eigval :     1354.04  1359.26  1363.61  1396.27  1404.75  1405.77
eigval :     1427.07  1429.85  1442.74  1446.26  1449.48  1452.69
eigval :     1457.32  1458.72  1459.78  1468.91  1475.85  1480.28
eigval :     1491.65  1496.49  1500.32  1505.10  1526.82  1674.35
eigval :     1709.02  1716.97  1724.67  2868.64  2918.13  2969.26
eigval :     2987.03  2989.75  3023.77  3038.76  3040.08  3044.71
eigval :     3047.50  3051.99  3059.34  3060.71  3071.13  3355.25
eigval :     3366.21  3388.22  3441.40  3495.90  3497.59  3498.16
eigval :     3499.67  3535.45  3542.71  3548.84  3556.26  3559.19
eigval :     3562.75  3563.21  3564.69
 reduced masses (amu)
   1: 12.46   2: 12.72   3: 12.67   4: 12.47   5: 12.16   6: 12.82   7: 12.36   8: 11.50
   9: 11.77  10: 12.25  11: 12.33  12: 11.77  13: 12.07  14: 12.56  15: 13.22  16: 13.04
  17: 12.78  18: 12.06  19: 12.39  20: 12.77  21: 13.85  22: 12.46  23: 12.50  24: 12.46
  25: 12.73  26: 12.69  27: 12.10  28: 11.99  29: 12.51  30: 12.01  31: 10.80  32:  9.34
  33:  4.34  34:  3.67  35:  5.06  36:  2.76  37:  2.64  38:  6.22  39:  5.02  40:  1.93
  41:  3.77  42:  7.23  43:  4.19  44:  7.30  45:  3.23  46:  2.53  47:  8.54  48:  1.96
  49:  8.36  50:  2.13  51:  7.26  52:  4.32  53:  8.34  54:  7.01  55:  8.30  56:  3.52
  57:  8.88  58:  9.49  59: 11.40  60: 11.34  61: 11.06  62:  8.99  63:  1.58  64:  3.90
  65:  3.00  66:  1.78  67: 11.93  68: 11.95  69:  9.96  70: 10.09  71:  9.45  72:  1.93
  73:  7.54  74:  7.77  75:  5.16  76:  4.90  77:  4.89  78:  5.01  79:  8.89  80:  9.05
  81:  7.77  82:  9.08  83:  7.97  84:  8.85  85:  6.58  86:  5.63  87:  3.52  88:  9.54
  89:  9.10  90:  8.96  91:  6.71  92:  6.74  93:  6.86  94:  8.64  95:  3.04  96:  5.74
  97:  6.69  98:  8.07  99:  6.01 100:  3.02 101:  4.04 102:  5.39 103:  6.04 104:  4.81
 105:  5.85 106:  2.88 107:  2.57 108:  2.50 109:  2.29 110:  1.59 111:  2.24 112:  1.80
 113:  2.63 114:  2.25 115:  3.03 116:  2.87 117:  2.65 118:  2.02 119:  1.76 120:  1.68
 121:  1.85 122:  8.09 123:  7.55 124:  8.44 125: 10.09 126: 12.61 127: 12.72 128: 12.78
 129: 12.83 130:  1.75 131:  1.94 132:  1.68 133:  1.54 134:  1.95 135:  1.78 136:  1.91
 137:  1.46 138:  1.69 139:  1.71 140:  1.77 141:  1.57 142:  1.92 143:  1.79 144:  1.71
 145:  1.70 146:  1.65 147:  1.57 148:  1.44 149:  1.45 150:  1.45 151:  1.46 152:  1.95
 153:  1.96 154:  2.06 155:  2.03 156:  2.19 157:  2.17 158:  2.18 159:  2.18
 IR intensities (km·mol⁻¹)
   1:  0.84   2:  2.68   3:  2.02   4:  2.00   5:  0.32   6:  1.12   7:  1.04   8:  0.98
   9:  0.83  10:  1.70  11:  3.05  12:  0.39  13:  0.79  14:  0.55  15:  4.68  16:  0.92
  17:  1.46  18:  1.36  19:  5.17  20:  4.48  21:  2.96  22:  8.41  23:  6.26  24:  7.32
  25: 22.35  26:  6.14  27:  1.96  28:  6.65  29: 32.02  30:  9.53  31: 12.14  32: 10.71
  33:  8.78  34: 19.83  35: 24.38  36: 90.62  37: 23.47  38:  3.33  39:  2.70  40: 14.20
  41:403.28  42: 32.52  43: 51.03  44:  0.54  45:512.02  46:562.04  47: 25.28  48:  5.90
  49:  3.67  50: 25.83  51:  1.58  52: 16.03  53: 14.56  54:  7.63  55: 18.07  56: 67.01
  57: 62.97  58: 52.47  59: 44.84  60:  9.00  61: 23.51  62: 33.20  63:  1.13  64: 86.44
  65: 57.33  66:128.93  67: 52.58  68: 59.55  69: 13.88  70:148.53  71:  2.09  72:214.07
  73:  5.43  74:  7.59  75:  1.92  76:  0.30  77:  1.87  78:  6.69  79:  0.21  80: 15.83
  81: 16.47  82:  7.03  83: 25.57  84:  6.50  85: 18.56  86:  9.47  87:  2.65  88:  0.84
  89:  6.60  90:  0.19  91: 17.81  92: 11.53  93:  3.50  94: 57.13  95: 13.40  96:  6.99
  97:  4.08  98: 19.16  99:  1.30 100:  7.26 101: 30.35 102: 43.56 103: 97.85 104: 59.69
 105:146.81 106: 48.78 107: 56.00 108: 32.81 109: 28.16 110:  5.44 111: 11.21 112:  9.77
 113: 37.08 114:  0.88 115: 11.39 116: 17.19 117: 22.47 118: 12.54 119:  3.93 120: 31.38
 121: 58.68 122:374.16 123:564.30 124:491.69 125:624.25 126:****** 127:****** 128:575.74
 129:394.69 130: 73.45 131:****** 132:  2.18 133: 38.90 134: 23.35 135: 44.32 136:  5.09
 137: 10.03 138:  8.92 139: 19.00 140: 30.11 141:  8.81 142:  7.71 143: 31.86 144:501.69
 145:398.45 146:190.18 147:327.16 148: 40.73 149: 18.33 150: 15.39 151:  3.43 152: 12.59
 153: 20.44 154: 44.44 155: 47.67 156: 14.19 157: 14.51 158:  8.50 159: 18.35
 Raman intensities (amu)
Molecule has no symmetry elements
It seems to be the C1 point group
   1:  0.00   2:  0.00   3:  0.00   4:  0.00   5:  0.00   6:  0.00   7:  0.00   8:  0.00
   9:  0.00  10:  0.00  11:  0.00  12:  0.00  13:  0.00  14:  0.00  15:  0.00  16:  0.00
  17:  0.00  18:  0.00  19:  0.00  20:  0.00  21:  0.00  22:  0.00  23:  0.00  24:  0.00
  25:  0.00  26:  0.00  27:  0.00  28:  0.00  29:  0.00  30:  0.00  31:  0.00  32:  0.00
  33:  0.00  34:  0.00  35:  0.00  36:  0.00  37:  0.00  38:  0.00  39:  0.00  40:  0.00
  41:  0.00  42:  0.00  43:  0.00  44:  0.00  45:  0.00  46:  0.00  47:  0.00  48:  0.00
  49:  0.00  50:  0.00  51:  0.00  52:  0.00  53:  0.00  54:  0.00  55:  0.00  56:  0.00
  57:  0.00  58:  0.00  59:  0.00  60:  0.00  61:  0.00  62:  0.00  63:  0.00  64:  0.00
  65:  0.00  66:  0.00  67:  0.00  68:  0.00  69:  0.00  70:  0.00  71:  0.00  72:  0.00
  73:  0.00  74:  0.00  75:  0.00  76:  0.00  77:  0.00  78:  0.00  79:  0.00  80:  0.00
  81:  0.00  82:  0.00  83:  0.00  84:  0.00  85:  0.00  86:  0.00  87:  0.00  88:  0.00
  89:  0.00  90:  0.00  91:  0.00  92:  0.00  93:  0.00  94:  0.00  95:  0.00  96:  0.00
  97:  0.00  98:  0.00  99:  0.00 100:  0.00 101:  0.00 102:  0.00 103:  0.00 104:  0.00
 105:  0.00 106:  0.00 107:  0.00 108:  0.00 109:  0.00 110:  0.00 111:  0.00 112:  0.00
 113:  0.00 114:  0.00 115:  0.00 116:  0.00 117:  0.00 118:  0.00 119:  0.00 120:  0.00
 121:  0.00 122:  0.00 123:  0.00 124:  0.00 125:  0.00 126:  0.00 127:  0.00 128:  0.00
 129:  0.00 130:  0.00 131:  0.00 132:  0.00 133:  0.00 134:  0.00 135:  0.00 136:  0.00
 137:  0.00 138:  0.00 139:  0.00 140:  0.00 141:  0.00 142:  0.00 143:  0.00 144:  0.00
 145:  0.00 146:  0.00 147:  0.00 148:  0.00 149:  0.00 150:  0.00 151:  0.00 152:  0.00
 153:  0.00 154:  0.00 155:  0.00 156:  0.00 157:  0.00 158:  0.00 159:  0.00
 output can be read by thermo (or use thermo option).
 writing <g98.out> molden fake output.
 recommended (thermochemical) frequency scaling factor: 1.0
           -------------------------------------------------
          |             Thermodynamic Functions             |
           -------------------------------------------------

c1  symmetry found (for desy threshold:  0.10E+00) used in thermo

          ...................................................
          :                      SETUP                      :
          :.................................................:
          :  # frequencies                         153      :
          :  # imaginary freq.                       0      :
          :  linear?                             false      :
          :  only rotor calc.                    false      :
          :  symmetry                               c1      :
          :  rotational number                       1      :
          :  scaling factor                  1.0000000      :
          :  rotor cutoff                   50.0000000 cm⁻¹ :
          :  imag. cutoff                  -20.0000000 cm⁻¹ :
          :.................................................:

    mode    ω/cm⁻¹     T·S(HO)/kcal·mol⁻¹    T·S(FR)/kcal·mol⁻¹   T·S(vib)
   ------------------------------------------------------------------------
       1      9.13    -2.44248 (  0.11%)    -1.56023 ( 99.89%)    -1.56121
       2     11.14    -2.32449 (  0.25%)    -1.50124 ( 99.75%)    -1.50327
       3     12.90    -2.23770 (  0.44%)    -1.45784 ( 99.56%)    -1.46128
       4     20.34    -1.96794 (  2.67%)    -1.32292 ( 97.33%)    -1.34012
       5     25.98    -1.82307 (  6.80%)    -1.25042 ( 93.20%)    -1.28935
       6     30.04    -1.73726 ( 11.53%)    -1.20746 ( 88.47%)    -1.26853
       7     33.35    -1.67544 ( 16.52%)    -1.17649 ( 83.48%)    -1.25893
       8     38.15    -1.59596 ( 25.31%)    -1.13666 ( 74.69%)    -1.25292
       9     42.38    -1.53389 ( 34.04%)    -1.10552 ( 65.96%)    -1.25133
      10     49.05    -1.44759 ( 48.09%)    -1.06220 ( 51.91%)    -1.24752
      11     54.38    -1.38681 ( 58.32%)    -1.03165 ( 41.68%)    -1.23878
      12     58.81    -1.34073 ( 65.68%)    -1.00847 ( 34.32%)    -1.22669
      13     61.77    -1.31176 ( 69.97%)    -0.99389 ( 30.03%)    -1.21630
      14     74.69    -1.20027 ( 83.28%)    -0.93764 ( 16.72%)    -1.15635
      15     77.74    -1.17686 ( 85.39%)    -0.92581 ( 14.61%)    -1.14018
      16     89.08    -1.09723 ( 90.97%)    -0.88545 (  9.03%)    -1.07811
      17    100.48    -1.02715 ( 94.22%)    -0.84980 (  5.78%)    -1.01690
      18    108.81    -0.98095 ( 95.73%)    -0.82620 (  4.27%)    -0.97434
      19    113.62    -0.95588 ( 96.39%)    -0.81336 (  3.61%)    -0.95073
      20    126.83    -0.89255 ( 97.64%)    -0.78080 (  2.36%)    -0.88991
      21    132.44    -0.86772 ( 98.01%)    -0.76798 (  1.99%)    -0.86573
      22    136.40    -0.85084 ( 98.23%)    -0.75924 (  1.77%)    -0.84921
      23    142.28    -0.82676 ( 98.50%)    -0.74674 (  1.50%)    -0.82555
      24    161.36    -0.75544 ( 99.09%)    -0.70946 (  0.91%)    -0.75502
      25    198.45    -0.64025 ( 99.60%)    -0.64817 (  0.40%)    -0.64028
      26    239.50    -0.53862 ( 99.81%)    -0.59247 (  0.19%)    -0.53873
      27    244.39    -0.52792 ( 99.83%)    -0.58648 (  0.17%)    -0.52802
      28    250.22    -0.51552 ( 99.84%)    -0.57951 (  0.16%)    -0.51562
      29    266.18    -0.48326 ( 99.88%)    -0.56118 (  0.12%)    -0.48336
      30    271.35    -0.47334 ( 99.88%)    -0.55549 (  0.12%)    -0.47343
      31    278.40    -0.46020 ( 99.90%)    -0.54789 (  0.10%)    -0.46029
      32    292.49    -0.43515 ( 99.91%)    -0.53326 (  0.09%)    -0.43523
   ------------------------------------------------------------------------

   temp. (K)  partition function   enthalpy   heat capacity  entropy
                                   cal/mol     cal/K/mol   cal/K/mol   J/K/mol
 298.15  VIB  0.368E+19            19808.263    103.421    131.816
         ROT  0.212E+08              888.752      2.981     36.502
         INT  0.780E+26            20697.016    106.402    168.317
         TR   0.618E+28             1481.254      4.968     43.384
         TOT                       22178.2694   111.3703   211.7018   885.7603

       T/K    H(0)-H(T)+PV         H(T)/Eh          T*S/Eh         G(T)/Eh
   ------------------------------------------------------------------------
    298.15    0.353433E-01    0.473889E+00    0.100586E+00    0.373303E+00
   ------------------------------------------------------------------------

         :::::::::::::::::::::::::::::::::::::::::::::::::::::
         ::                  THERMODYNAMIC                  ::
         :::::::::::::::::::::::::::::::::::::::::::::::::::::
         :: total free energy         -80.558985358082 Eh   ::
         ::.................................................::
         :: total energy              -80.932288415721 Eh   ::
         :: zero point energy           0.438546084261 Eh   ::
         :: G(RRHO) w/o ZPVE           -0.065243026623 Eh   ::
         :: G(RRHO) contrib.            0.373303057638 Eh   ::
         :::::::::::::::::::::::::::::::::::::::::::::::::::::

           -------------------------------------------------
          | TOTAL ENERGY              -80.932288415721 Eh   |
          | TOTAL ENTHALPY            -80.458399009411 Eh   |
          | TOTAL FREE ENERGY         -80.558985358082 Eh   |
          | GRADIENT NORM               0.000126889766 Eh/α |
          | HOMO-LUMO GAP               5.732976336829 eV   |
           -------------------------------------------------

------------------------------------------------------------------------
 * finished run on 2024/01/10 at 18:32:41.824     
------------------------------------------------------------------------
 total:
 * wall-time:     0 d,  0 h,  0 min, 13.804 sec
 *  cpu-time:     0 d,  0 h,  0 min, 13.742 sec
 * ratio c/w:     0.995 speedup
 SCF:
 * wall-time:     0 d,  0 h,  0 min,  0.094 sec
 *  cpu-time:     0 d,  0 h,  0 min,  0.055 sec
 * ratio c/w:     0.583 speedup
 analytical hessian:
 * wall-time:     0 d,  0 h,  0 min, 13.683 sec
 *  cpu-time:     0 d,  0 h,  0 min, 13.660 sec
 * ratio c/w:     0.998 speedup

