 Entering Gaussian System
 *********************************************
 Gaussian 98:
 frequency output generated by the xtb code
 *********************************************
                         Standard orientation:
 --------------------------------------------------------------------
  Center     Atomic     Atomic              Coordinates (Angstroms)
  Number     Number      Type              X           Y           Z
 --------------------------------------------------------------------
    1          8             0        2.313180    0.562599   -1.545537
    2          6             0        1.151847    1.242913   -1.922535
    3          1             0        1.445774    2.282158   -2.100812
    4          1             0        0.739022    0.849522   -2.857691
    5          6             0        0.011343    1.190824   -0.885279
    6          1             0       -0.439707    0.196667   -0.863337
    7          1             0       -0.751255    1.899036   -1.214218
    8          7             0        0.407344    1.532008    0.507679
    9          6             0        1.042897    0.371354    1.156209
   10          1             0        0.325277   -0.445288    1.196705
   11          1             0        1.332467    0.657397    2.165795
   12          1             0        1.921011    0.072168    0.589199
   13          6             0       -0.800365    1.864357    1.281310
   14          1             0       -1.476427    1.010521    1.259971
   15          1             0       -1.294796    2.736643    0.859395
   16          1             0       -0.506555    2.077326    2.307874
   17          6             0        1.337285    2.670772    0.555225
   18          1             0        0.900872    3.533047    0.055161
   19          1             0        2.274381    2.401324    0.074042
   20          1             0        1.524574    2.910954    1.601537
   21          1             0        2.224673   -0.389094   -1.756744
   22          6             0        1.154390   -2.576270   -0.988521
   23          8             0        1.757301   -2.072606   -1.942681
   24          7             0        1.834203   -3.084910    0.072513
   25          1             0        2.822875   -3.228733   -0.046990
   26          1             0        1.364398   -3.669110    0.741535
   27          7             0       -0.184509   -2.616714   -0.936069
   28          1             0       -0.663119   -2.818143   -0.075490
   29          1             0       -0.699865   -2.074235   -1.632496
   30          6             0        1.597098    2.659711    4.792188
   31          8             0        1.229893    2.372010    3.661454
   32          7             0        1.361505    1.851617    5.854028
   33          1             0        0.784263    1.040988    5.720481
   34          1             0        1.571005    2.133189    6.794044
   35          7             0        2.266736    3.804558    5.066331
   36          1             0        2.650706    3.992383    5.974124
   37          1             0        2.550332    4.392732    4.303565
   38          6             0       -1.001902   -1.144652   -4.016182
   39          8             0       -1.457472   -1.023272   -2.873622
   40          7             0        0.279448   -1.469041   -4.237647
   41          1             0        0.873473   -1.726411   -3.443818
   42          1             0        0.621266   -1.643206   -5.165022
   43          7             0       -1.777841   -0.920746   -5.102609
   44          1             0       -1.423631   -0.996561   -6.038053
   45          1             0       -2.733529   -0.643382   -4.972019
   46          6             0       -3.095336   -1.232860    0.394160
   47          8             0       -1.942226   -0.984173    0.732834
   48          7             0       -4.029136   -1.627578    1.299475
   49          1             0       -3.788352   -1.605117    2.274191
   50          1             0       -4.998824   -1.716390    1.056727
   51          7             0       -3.519357   -1.119232   -0.881582
   52          1             0       -4.425440   -1.460942   -1.147359
   53          1             0       -2.831146   -0.996683   -1.616213
 --------------------------------------------------------------------
     1 basis functions        1 primitive gaussians
     1 alpha electrons        1 beta electrons

 Harmonic frequencies (cm**-1), IR intensities (km*mol⁻¹),
 Raman scattering activities (A**4/amu), Raman depolarization ratios,
 reduced masses (AMU), force constants (mDyne/A) and normal coordinates:
                      1                      2                      3
                        a                      a                      a 
 Frequencies --    -4.9591                14.7644                17.3936
 Red. masses --    11.0252                12.1440                11.8724
 Frc consts  --     0.0000                 0.0000                 0.0000
 IR Inten    --     0.0319                 0.4899                 1.4616
 Raman Activ --     0.0000                 0.0000                 0.0000
 Depolar     --     0.0000                 0.0000                 0.0000
 Atom AN      X      Y      Z        X      Y      Z        X      Y      Z
   1   8     0.02  -0.04   0.01     0.18  -0.16  -0.00     0.03   0.09  -0.10
   2   6     0.03  -0.02   0.00     0.21  -0.06  -0.04     0.03   0.07  -0.11
   3   1     0.01  -0.01  -0.00     0.08  -0.02  -0.00     0.01   0.02  -0.04
   4   1     0.01  -0.01  -0.00     0.06  -0.01  -0.02     0.01   0.02  -0.03
   5   6     0.02  -0.00  -0.01     0.17  -0.01  -0.08     0.02   0.10  -0.12
   6   1     0.00   0.00  -0.00     0.04   0.00  -0.03     0.00   0.03  -0.03
   7   1     0.01   0.00  -0.01     0.06   0.00  -0.03     0.01   0.03  -0.04
   8   7     0.02   0.00  -0.01     0.14  -0.02  -0.07     0.01   0.12  -0.13
   9   6    -0.00   0.00   0.01     0.07  -0.03  -0.03    -0.01   0.11  -0.10
  10   1    -0.00   0.00   0.00     0.01  -0.00  -0.01    -0.01   0.03  -0.03
  11   1    -0.00   0.00   0.00     0.01  -0.01  -0.01    -0.01   0.03  -0.03
  12   1    -0.00  -0.00   0.00     0.02  -0.02  -0.00    -0.00   0.02  -0.03
  13   6     0.01   0.02  -0.02     0.11   0.03  -0.12     0.01   0.13  -0.14
  14   1     0.00   0.01  -0.01     0.03   0.01  -0.04    -0.00   0.04  -0.04
  15   1     0.01   0.01  -0.01     0.04   0.01  -0.04     0.01   0.04  -0.04
  16   1     0.00   0.01  -0.00     0.02   0.01  -0.03     0.00   0.04  -0.04
  17   6     0.03  -0.01  -0.01     0.16  -0.05  -0.04     0.03   0.09  -0.12
  18   1     0.01  -0.00  -0.00     0.06  -0.01  -0.02     0.01   0.03  -0.04
  19   1     0.01  -0.01   0.00     0.05  -0.02   0.00     0.01   0.02  -0.03
  20   1     0.01  -0.00  -0.00     0.04  -0.01  -0.01     0.01   0.03  -0.04
  21   1     0.00  -0.01   0.00     0.03  -0.04  -0.01     0.00   0.02  -0.01
  22   6    -0.03  -0.02   0.02    -0.01  -0.08  -0.10     0.06   0.08   0.09
  23   8    -0.02  -0.03   0.02    -0.05  -0.09  -0.13     0.04   0.06   0.07
  24   7    -0.04  -0.03   0.03     0.02  -0.15  -0.16     0.10   0.14   0.10
  25   1    -0.01  -0.01   0.01     0.00  -0.05  -0.06     0.03   0.04   0.02
  26   1    -0.01  -0.01   0.01     0.01  -0.04  -0.04     0.03   0.04   0.04
  27   7    -0.03  -0.01   0.01    -0.01  -0.04  -0.03     0.07   0.07   0.14
  28   1    -0.01   0.00   0.00     0.01  -0.01  -0.00     0.02   0.02   0.04
  29   1    -0.01  -0.00   0.00    -0.01   0.00   0.00     0.01   0.01   0.03
  30   6     0.00  -0.01  -0.00    -0.20   0.06   0.01    -0.07  -0.20  -0.03
  31   8    -0.01   0.01  -0.00    -0.05   0.04  -0.04    -0.03   0.00  -0.11
  32   7     0.54  -0.30  -0.11    -0.33   0.08  -0.01    -0.18  -0.40  -0.19
  33   1     0.25  -0.15  -0.05    -0.07   0.01  -0.02    -0.06  -0.09  -0.10
  34   1     0.14  -0.10  -0.02    -0.12   0.03   0.00    -0.06  -0.15  -0.03
  35   7    -0.52   0.27   0.10    -0.30   0.10   0.08    -0.02  -0.31   0.21
  36   1    -0.13   0.08   0.02    -0.12   0.04   0.03    -0.02  -0.13   0.07
  37   1    -0.25   0.15   0.05    -0.06   0.03   0.03     0.01  -0.05   0.09
  38   6     0.01  -0.01  -0.00    -0.11   0.11   0.06    -0.02  -0.11   0.07
  39   8     0.00   0.00  -0.01    -0.06   0.09   0.10     0.01  -0.05   0.09
  40   7     0.01  -0.02   0.01    -0.14   0.08  -0.02    -0.02  -0.09   0.06
  41   1    -0.00  -0.01   0.00    -0.03   0.01  -0.01     0.00  -0.01   0.02
  42   1     0.00  -0.01   0.00    -0.05   0.03  -0.01    -0.01  -0.04   0.02
  43   7     0.02  -0.00  -0.01    -0.16   0.20   0.11    -0.07  -0.23   0.08
  44   1     0.01  -0.00  -0.00    -0.06   0.06   0.02    -0.02  -0.07   0.02
  45   1     0.01   0.00  -0.00    -0.04   0.06   0.05    -0.02  -0.06   0.02
  46   6    -0.01   0.04  -0.01     0.09  -0.02   0.12     0.01   0.08   0.06
  47   8    -0.01   0.03  -0.01     0.11  -0.01   0.07     0.01   0.12   0.04
  48   7    -0.02   0.07  -0.01     0.15  -0.08   0.17     0.02   0.12   0.10
  49   1    -0.01   0.02  -0.00     0.06  -0.03   0.04     0.01   0.05   0.02
  50   1    -0.01   0.02  -0.00     0.04  -0.02   0.06     0.00   0.03   0.03
  51   7    -0.01   0.04  -0.01     0.02   0.01   0.16    -0.00   0.01   0.06
  52   1    -0.00   0.01  -0.00     0.00  -0.00   0.05    -0.00  -0.00   0.02
  53   1    -0.00   0.01  -0.00    -0.01   0.01   0.03    -0.00  -0.01   0.01
                      4                      5                      6
                        a                      a                      a 
 Frequencies --    27.3510                31.9013                37.6667
 Red. masses --    12.1953                12.2888                12.5618
 Frc consts  --     0.0000                 0.0000                 0.0000
 IR Inten    --     2.1278                 3.2172                 0.8396
 Raman Activ --     0.0000                 0.0000                 0.0000
 Depolar     --     0.0000                 0.0000                 0.0000
 Atom AN      X      Y      Z        X      Y      Z        X      Y      Z
   1   8    -0.06   0.04  -0.06    -0.02   0.01  -0.14     0.20  -0.04   0.18
   2   6    -0.10  -0.00   0.03    -0.09  -0.07  -0.05     0.21  -0.01   0.07
   3   1    -0.04   0.00   0.00    -0.05  -0.02  -0.02     0.07  -0.01   0.02
   4   1    -0.05  -0.00   0.02    -0.03  -0.03  -0.01     0.08  -0.01   0.02
   5   6    -0.02  -0.04   0.12    -0.02  -0.14   0.02     0.15   0.03   0.00
   6   1    -0.00  -0.01   0.04     0.02  -0.05   0.02     0.04   0.01  -0.00
   7   1    -0.02  -0.01   0.05    -0.03  -0.06   0.01     0.05   0.01  -0.02
   8   7     0.07  -0.06   0.10     0.04  -0.08  -0.02     0.07   0.05   0.02
   9   6     0.13  -0.05   0.03     0.17  -0.01  -0.03     0.01   0.05   0.08
  10   1     0.04  -0.02   0.02     0.07  -0.02   0.01    -0.00   0.02   0.02
  11   1     0.05  -0.02   0.01     0.06   0.01  -0.01    -0.01   0.02   0.03
  12   1     0.03  -0.01  -0.01     0.05   0.02  -0.02     0.01   0.00   0.04
  13   6     0.11  -0.08   0.18     0.05  -0.16   0.05     0.03   0.08  -0.06
  14   1     0.04  -0.03   0.06     0.03  -0.06   0.03     0.00   0.03  -0.03
  15   1     0.02  -0.02   0.07    -0.01  -0.06   0.02     0.02   0.02  -0.03
  16   1     0.05  -0.03   0.05     0.03  -0.03   0.01    -0.01   0.03  -0.01
  17   6     0.05  -0.04   0.05    -0.06   0.00  -0.09     0.09   0.03   0.06
  18   1     0.00  -0.01   0.03    -0.05  -0.01  -0.03     0.04   0.01   0.01
  19   1     0.01  -0.00  -0.01    -0.02   0.02  -0.04     0.03   0.00   0.04
  20   1     0.03  -0.02   0.01    -0.01   0.01  -0.03     0.01   0.01   0.02
  21   1    -0.00   0.01  -0.03     0.00  -0.00  -0.02     0.04  -0.01   0.04
  22   6     0.05   0.05  -0.12    -0.10   0.08   0.06    -0.17   0.12  -0.00
  23   8     0.02   0.04  -0.17    -0.06  -0.01   0.05    -0.14   0.09   0.01
  24   7     0.09   0.08  -0.14    -0.15   0.37   0.25    -0.25   0.28   0.11
  25   1     0.02   0.02  -0.05    -0.03   0.12   0.10    -0.06   0.09   0.06
  26   1     0.03   0.02  -0.03    -0.04   0.11   0.07    -0.07   0.08   0.03
  27   7     0.05   0.05  -0.09    -0.10  -0.10  -0.07    -0.19   0.02  -0.13
  28   1     0.02   0.02  -0.02    -0.04   0.02  -0.02    -0.06   0.02  -0.03
  29   1     0.01   0.01  -0.02    -0.02  -0.06  -0.05    -0.04  -0.00  -0.05
  30   6    -0.04   0.03   0.13    -0.02  -0.01  -0.03     0.03   0.02   0.05
  31   8     0.15  -0.07   0.11     0.09   0.02  -0.08    -0.04   0.08   0.07
  32   7    -0.15   0.09   0.15    -0.12  -0.04  -0.08     0.07  -0.02   0.04
  33   1    -0.01   0.01   0.03    -0.02  -0.01  -0.04     0.00   0.00   0.01
  34   1    -0.07   0.04   0.04    -0.05  -0.02  -0.01     0.03  -0.01   0.01
  35   7    -0.16   0.09   0.16    -0.07  -0.01   0.06     0.08  -0.01   0.07
  36   1    -0.08   0.04   0.05    -0.04  -0.01   0.03     0.03  -0.01   0.01
  37   1    -0.02   0.01   0.04     0.00   0.00   0.03     0.01   0.00   0.02
  38   6    -0.07  -0.16  -0.11     0.03   0.02  -0.09    -0.08  -0.05  -0.13
  39   8    -0.02  -0.04  -0.11    -0.09  -0.17  -0.14    -0.14  -0.00  -0.17
  40   7    -0.06  -0.10  -0.14     0.03  -0.04  -0.02    -0.03   0.12  -0.07
  41   1    -0.01  -0.00  -0.04    -0.01  -0.02   0.00    -0.02   0.04  -0.01
  42   1    -0.03  -0.07  -0.04     0.04   0.05  -0.00    -0.01  -0.01  -0.01
  43   7    -0.17  -0.43  -0.10     0.19   0.35  -0.14    -0.11  -0.33  -0.18
  44   1    -0.05  -0.10  -0.03     0.05   0.05  -0.03    -0.00  -0.04  -0.04
  45   1    -0.04  -0.09  -0.02     0.03   0.03  -0.05    -0.02  -0.07  -0.06
  46   6     0.04   0.13  -0.02     0.07  -0.02   0.11     0.04  -0.10  -0.01
  47   8     0.08  -0.02  -0.02     0.13  -0.22   0.12     0.02   0.08  -0.05
  48   7    -0.02   0.32  -0.01     0.03   0.10   0.12     0.13  -0.26   0.02
  49   1    -0.00   0.06  -0.00     0.02  -0.01   0.03     0.04  -0.04   0.00
  50   1    -0.01   0.10  -0.00     0.01   0.05   0.03     0.04  -0.10   0.01
  51   7     0.05   0.18  -0.02     0.07   0.10   0.13    -0.01  -0.20  -0.00
  52   1    -0.00   0.08  -0.00     0.00   0.07   0.04     0.01  -0.09   0.01
  53   1     0.02   0.02  -0.01     0.02   0.01   0.03    -0.02  -0.02  -0.01
                      7                      8                      9
                        a                      a                      a 
 Frequencies --    38.6855                42.2535                43.8261
 Red. masses --    12.1802                12.7215                12.3872
 Frc consts  --     0.0000                 0.0000                 0.0000
 IR Inten    --     4.4043                 0.3293                 0.9505
 Raman Activ --     0.0000                 0.0000                 0.0000
 Depolar     --     0.0000                 0.0000                 0.0000
 Atom AN      X      Y      Z        X      Y      Z        X      Y      Z
   1   8     0.20   0.04   0.01    -0.09   0.14  -0.25    -0.04  -0.00  -0.11
   2   6     0.18   0.04  -0.02    -0.10   0.14  -0.11    -0.05   0.00  -0.04
   3   1     0.05   0.02   0.02    -0.03   0.04  -0.03    -0.01   0.00  -0.01
   4   1     0.07   0.03  -0.02    -0.05   0.05  -0.03    -0.03   0.00  -0.00
   5   6     0.12  -0.03  -0.09    -0.03   0.12  -0.02    -0.00   0.01   0.01
   6   1     0.04  -0.01  -0.06    -0.02   0.04  -0.02    -0.00   0.00   0.01
   7   1     0.04  -0.00  -0.03    -0.00   0.05   0.02    -0.00   0.00   0.01
   8   7     0.03  -0.13  -0.05     0.10  -0.00  -0.03     0.05   0.00  -0.00
   9   6    -0.03  -0.16  -0.06     0.05  -0.09  -0.14     0.11   0.02  -0.04
  10   1    -0.01  -0.04  -0.04    -0.00  -0.01  -0.05     0.04  -0.00   0.00
  11   1    -0.02  -0.06  -0.01     0.04  -0.05  -0.04     0.04   0.01  -0.01
  12   1    -0.00  -0.04  -0.01     0.00  -0.03  -0.06     0.03   0.01  -0.02
  13   6    -0.01  -0.15  -0.11     0.17   0.03   0.07     0.07  -0.04   0.05
  14   1    -0.00  -0.04  -0.05     0.03   0.03   0.01     0.02  -0.02   0.02
  15   1     0.00  -0.04  -0.03     0.06   0.03   0.05     0.01  -0.02   0.02
  16   1    -0.02  -0.06  -0.02     0.07  -0.02   0.02     0.03  -0.01   0.01
  17   6     0.04  -0.13   0.07     0.18  -0.08  -0.01     0.01   0.03  -0.03
  18   1     0.02  -0.03   0.03     0.06  -0.00   0.02    -0.01   0.01  -0.00
  19   1     0.02  -0.03   0.03     0.04  -0.03  -0.03     0.00   0.02  -0.02
  20   1    -0.01  -0.06   0.03     0.08  -0.05  -0.00     0.01   0.01  -0.01
  21   1     0.05   0.01  -0.01    -0.04   0.03  -0.04    -0.01  -0.00  -0.02
  22   6     0.08   0.16   0.05    -0.06   0.01   0.09    -0.04   0.05   0.06
  23   8     0.04   0.09  -0.03    -0.05   0.07   0.15    -0.02  -0.05   0.02
  24   7     0.14   0.36   0.11    -0.08  -0.03   0.09    -0.08   0.07   0.09
  25   1     0.04   0.10   0.03    -0.02  -0.00   0.03    -0.02  -0.01   0.02
  26   1     0.05   0.11   0.05    -0.02  -0.02   0.01    -0.03   0.04   0.03
  27   7     0.09   0.11   0.09    -0.06   0.00   0.07    -0.05   0.17   0.08
  28   1     0.03   0.06   0.04    -0.02  -0.03   0.01    -0.01   0.08   0.03
  29   1     0.01   0.01   0.02    -0.02   0.00   0.02     0.00   0.05   0.02
  30   6    -0.04  -0.08  -0.06     0.04  -0.05   0.03     0.03   0.02   0.00
  31   8    -0.11  -0.32   0.01     0.33  -0.29   0.01     0.17   0.02  -0.04
  32   7     0.07   0.08   0.09    -0.11   0.11   0.12    -0.05   0.00  -0.03
  33   1     0.03   0.01   0.07     0.02  -0.00   0.03     0.00  -0.01  -0.03
  34   1     0.04   0.07   0.01    -0.08   0.07   0.03    -0.04  -0.00  -0.00
  35   7    -0.07  -0.01  -0.31    -0.17   0.09  -0.00    -0.04   0.04   0.08
  36   1    -0.00   0.04  -0.10    -0.09   0.07   0.01    -0.03   0.01   0.03
  37   1    -0.04  -0.03  -0.11    -0.01  -0.01  -0.01     0.01   0.01   0.03
  38   6    -0.05   0.02   0.07     0.02   0.01   0.03     0.00   0.02   0.04
  39   8    -0.01   0.03   0.10    -0.04  -0.08   0.01     0.14   0.36   0.07
  40   7    -0.05   0.07   0.03     0.05   0.08   0.08    -0.09  -0.31  -0.01
  41   1    -0.01   0.02   0.00     0.00   0.02   0.03    -0.01  -0.06  -0.00
  42   1    -0.03   0.01   0.01     0.03   0.04   0.02    -0.05  -0.14  -0.00
  43   7    -0.11  -0.03   0.10     0.08   0.04   0.00    -0.06  -0.05   0.07
  44   1    -0.04  -0.00   0.02     0.03   0.02   0.00    -0.04  -0.06   0.02
  45   1    -0.03  -0.01   0.04     0.01  -0.01  -0.01     0.01   0.07   0.03
  46   6    -0.12  -0.01   0.00    -0.06  -0.03  -0.04    -0.02  -0.07  -0.06
  47   8    -0.11  -0.16   0.03    -0.12   0.26  -0.10    -0.07  -0.07   0.10
  48   7    -0.19   0.08  -0.03     0.02  -0.09   0.02    -0.03  -0.49  -0.25
  49   1    -0.05  -0.01  -0.01     0.00   0.05   0.00    -0.03  -0.19  -0.06
  50   1    -0.05   0.04  -0.01     0.01  -0.06   0.01    -0.00  -0.11  -0.09
  51   7    -0.10   0.09  -0.00    -0.09  -0.34  -0.06     0.04   0.30  -0.05
  52   1    -0.03   0.05  -0.01    -0.01  -0.14  -0.00     0.03   0.06  -0.05
  53   1    -0.02   0.01   0.01    -0.03  -0.07  -0.02     0.03   0.12   0.00
                     10                     11                     12
                        a                      a                      a 
 Frequencies --    49.8788                57.1501                61.5038
 Red. masses --    12.5504                12.3316                13.2900
 Frc consts  --     0.0000                 0.0000                 0.0000
 IR Inten    --     0.0682                 0.1192                 2.3682
 Raman Activ --     0.0000                 0.0000                 0.0000
 Depolar     --     0.0000                 0.0000                 0.0000
 Atom AN      X      Y      Z        X      Y      Z        X      Y      Z
   1   8    -0.04  -0.18   0.10     0.10  -0.02  -0.04     0.05  -0.01   0.04
   2   6    -0.01  -0.13   0.05     0.06  -0.05  -0.00     0.03  -0.04   0.02
   3   1     0.01  -0.04  -0.00     0.00  -0.01   0.00     0.00  -0.01   0.00
   4   1    -0.01  -0.05   0.02     0.02  -0.01  -0.00     0.01  -0.02   0.01
   5   6    -0.02  -0.03   0.05     0.08  -0.12   0.01     0.03  -0.05   0.02
   6   1    -0.02  -0.00   0.03     0.04  -0.04   0.01     0.01  -0.02   0.01
   7   1     0.01  -0.00   0.01     0.01  -0.05   0.00     0.00  -0.02   0.00
   8   7    -0.00   0.00   0.04     0.07  -0.07   0.00     0.03  -0.02   0.02
   9   6    -0.08  -0.01   0.09     0.23   0.03  -0.00     0.04  -0.01   0.04
  10   1    -0.04   0.01   0.04     0.10  -0.02   0.01     0.01  -0.00   0.01
  11   1    -0.02   0.00   0.02     0.07   0.02  -0.01     0.01   0.00   0.01
  12   1    -0.03  -0.03   0.03     0.07   0.03  -0.01     0.01  -0.00   0.01
  13   6     0.01   0.11   0.02     0.04  -0.22   0.03     0.03  -0.01   0.01
  14   1    -0.01   0.05   0.01     0.04  -0.09   0.01     0.01  -0.00   0.00
  15   1     0.02   0.04  -0.00    -0.02  -0.08   0.01     0.01  -0.00   0.00
  16   1     0.01   0.04   0.00     0.01  -0.05   0.01     0.01  -0.00   0.00
  17   6     0.07  -0.06  -0.00    -0.08   0.06  -0.04     0.03  -0.02  -0.01
  18   1     0.04  -0.01  -0.01    -0.06  -0.00  -0.02     0.01  -0.01  -0.01
  19   1     0.02  -0.04   0.00    -0.02   0.05  -0.01     0.01  -0.01  -0.00
  20   1     0.02  -0.01  -0.00    -0.03   0.03  -0.01     0.01   0.00  -0.00
  21   1     0.00  -0.04  -0.01     0.03  -0.01  -0.01     0.02  -0.00   0.01
  22   6     0.09   0.08  -0.05     0.01   0.01  -0.00     0.06  -0.03   0.02
  23   8     0.05  -0.15  -0.22     0.03  -0.03  -0.01    -0.04   0.06   0.00
  24   7     0.17   0.26  -0.01    -0.01  -0.11  -0.04     0.19   0.12   0.02
  25   1     0.04   0.04  -0.02    -0.01  -0.06  -0.02     0.06   0.07  -0.01
  26   1     0.05   0.11   0.04    -0.01  -0.02  -0.02     0.09   0.01   0.01
  27   7     0.11   0.21   0.08     0.01   0.18   0.06     0.08  -0.26   0.06
  28   1     0.04   0.11   0.04    -0.00   0.05   0.02     0.04  -0.10   0.02
  29   1     0.02   0.03   0.00     0.01   0.05   0.01    -0.01  -0.09   0.02
  30   6     0.03   0.04   0.05     0.05   0.09  -0.03     0.05   0.08   0.04
  31   8     0.06   0.10   0.03     0.15   0.25  -0.10     0.13   0.19   0.00
  32   7     0.00  -0.01   0.01    -0.04  -0.03  -0.15    -0.01  -0.01  -0.03
  33   1    -0.00   0.00  -0.01    -0.02   0.00  -0.08    -0.01   0.01  -0.03
  34   1    -0.01  -0.01   0.01    -0.03  -0.04  -0.03    -0.02  -0.02   0.00
  35   7     0.03   0.02   0.13     0.05   0.05   0.16     0.05   0.05   0.18
  36   1     0.00  -0.01   0.04    -0.00  -0.02   0.06     0.00  -0.01   0.06
  37   1     0.01   0.01   0.04     0.03   0.04   0.07     0.03   0.03   0.07
  38   6    -0.04  -0.02  -0.06     0.02   0.10   0.02    -0.10  -0.07   0.07
  39   8     0.03  -0.02  -0.04     0.00   0.10   0.02    -0.15  -0.43   0.09
  40   7    -0.14  -0.34  -0.14     0.09   0.34   0.04    -0.06   0.14   0.03
  41   1    -0.02  -0.09  -0.05     0.02   0.07   0.01    -0.01   0.02   0.00
  42   1    -0.04  -0.05  -0.05     0.02   0.06   0.01     0.00   0.11   0.00
  43   7    -0.02   0.32  -0.01    -0.03  -0.14   0.01    -0.10   0.12   0.11
  44   1    -0.04   0.02  -0.01     0.02   0.04   0.01    -0.03   0.05   0.02
  45   1    -0.00   0.09   0.01    -0.00  -0.02   0.00    -0.05  -0.06   0.04
  46   6    -0.07  -0.04  -0.03    -0.19  -0.09   0.02    -0.08   0.05  -0.18
  47   8    -0.13   0.15  -0.00    -0.24  -0.14   0.11    -0.09   0.10  -0.25
  48   7    -0.10   0.07  -0.01    -0.32   0.08  -0.02     0.01  -0.20  -0.19
  49   1    -0.04   0.07   0.00    -0.11   0.03  -0.00     0.01  -0.06  -0.05
  50   1    -0.02  -0.03  -0.02    -0.08   0.02  -0.03    -0.00  -0.03  -0.03
  51   7     0.01  -0.38  -0.08    -0.08  -0.25  -0.03    -0.21   0.28  -0.14
  52   1     0.01  -0.12  -0.02    -0.02  -0.05  -0.02    -0.04   0.03  -0.03
  53   1     0.00  -0.09  -0.02    -0.01  -0.06   0.00    -0.06   0.05  -0.04
                     13                     14                     15
                        a                      a                      a 
 Frequencies --    66.9098                78.3953                84.2145
 Red. masses --    11.8445                13.2927                11.7993
 Frc consts  --     0.0000                 0.0000                 0.0000
 IR Inten    --     1.1127                 3.7154                10.5364
 Raman Activ --     0.0000                 0.0000                 0.0000
 Depolar     --     0.0000                 0.0000                 0.0000
 Atom AN      X      Y      Z        X      Y      Z        X      Y      Z
   1   8    -0.16  -0.14   0.06    -0.12  -0.11  -0.01     0.05   0.25  -0.06
   2   6    -0.13  -0.13   0.00    -0.10  -0.07   0.00     0.01   0.16  -0.05
   3   1    -0.04  -0.04  -0.02    -0.02  -0.02  -0.00    -0.01   0.05   0.00
   4   1    -0.04  -0.05   0.01    -0.03  -0.02   0.00     0.02   0.05  -0.02
   5   6    -0.12  -0.04   0.02    -0.08  -0.03   0.02    -0.01   0.03  -0.07
   6   1    -0.05  -0.01   0.02    -0.03  -0.00   0.01    -0.00   0.01  -0.06
   7   1    -0.02  -0.00   0.01    -0.02  -0.00   0.01    -0.00   0.02   0.00
   8   7    -0.07  -0.04   0.01    -0.05  -0.05   0.01    -0.01  -0.14  -0.03
   9   6    -0.25  -0.11   0.06    -0.08  -0.07   0.00    -0.24  -0.28  -0.07
  10   1    -0.12   0.00   0.03    -0.03  -0.01   0.00    -0.11  -0.04  -0.04
  11   1    -0.05  -0.03   0.01    -0.02  -0.02  -0.00    -0.06  -0.11  -0.01
  12   1    -0.09  -0.09   0.02    -0.03  -0.03  -0.00    -0.08  -0.12  -0.01
  13   6    -0.00   0.21  -0.01    -0.02   0.01   0.03     0.02   0.03  -0.05
  14   1    -0.04   0.09   0.02    -0.01   0.01   0.01    -0.03   0.04  -0.02
  15   1     0.04   0.08  -0.01     0.00   0.01   0.01     0.04   0.03  -0.02
  16   1     0.01   0.06  -0.01     0.00   0.00   0.01     0.01   0.00  -0.01
  17   6     0.14  -0.19  -0.05     0.01  -0.08  -0.02     0.20  -0.30   0.08
  18   1     0.08  -0.04  -0.02     0.01  -0.02  -0.01     0.11  -0.06   0.03
  19   1     0.02  -0.11  -0.02    -0.00  -0.04  -0.01     0.05  -0.13   0.03
  20   1     0.06  -0.05  -0.02     0.01  -0.02  -0.01     0.06  -0.11   0.03
  21   1    -0.02  -0.03  -0.01    -0.03  -0.02  -0.01     0.02   0.06  -0.00
  22   6     0.06   0.02  -0.01    -0.04  -0.05   0.03    -0.01   0.04  -0.02
  23   8     0.07  -0.16  -0.11    -0.08  -0.12  -0.01     0.01   0.27   0.10
  24   7     0.06   0.07   0.01    -0.03   0.25   0.17    -0.03  -0.03  -0.05
  25   1     0.01  -0.01  -0.01     0.00   0.10   0.06    -0.00   0.02   0.00
  26   1     0.01   0.05   0.03     0.01   0.07   0.06    -0.01  -0.05  -0.04
  27   7     0.06   0.21   0.07    -0.05  -0.31  -0.06    -0.01  -0.12  -0.14
  28   1     0.02   0.09   0.03    -0.01  -0.04   0.00    -0.01  -0.08  -0.05
  29   1     0.02   0.03  -0.00    -0.01  -0.06  -0.00    -0.00  -0.02  -0.02
  30   6     0.02  -0.01  -0.06     0.01   0.02  -0.03     0.02   0.13   0.03
  31   8     0.13  -0.03  -0.10     0.06   0.06  -0.06    -0.02   0.34   0.00
  32   7    -0.05  -0.01  -0.08    -0.03  -0.01  -0.07     0.02  -0.01  -0.08
  33   1    -0.00  -0.01  -0.03    -0.01  -0.00  -0.03    -0.02   0.02  -0.05
  34   1    -0.03  -0.00  -0.02    -0.02  -0.01  -0.01     0.00  -0.04  -0.01
  35   7    -0.04   0.01  -0.02     0.00   0.02   0.03     0.10   0.06   0.19
  36   1    -0.03   0.01   0.00    -0.01  -0.00   0.01     0.03  -0.02   0.06
  37   1     0.01   0.00  -0.00     0.01   0.01   0.02     0.03   0.05   0.07
  38   6     0.06   0.05  -0.06     0.03   0.15   0.11     0.02  -0.03  -0.00
  39   8    -0.02  -0.08  -0.09     0.24   0.31   0.20     0.03   0.05  -0.01
  40   7     0.18   0.41  -0.02     0.03   0.23  -0.03    -0.02  -0.18   0.01
  41   1     0.03   0.06  -0.01     0.01   0.03  -0.02     0.00  -0.01   0.01
  42   1     0.05   0.09  -0.00    -0.04  -0.02  -0.01     0.00  -0.04   0.00
  43   7     0.06  -0.14  -0.10    -0.19  -0.13   0.23     0.04   0.02  -0.01
  44   1     0.05   0.04  -0.02    -0.06   0.07   0.05     0.00  -0.04  -0.00
  45   1     0.01  -0.05  -0.04    -0.02   0.07   0.10     0.01  -0.00  -0.01
  46   6     0.00   0.02   0.11     0.12  -0.02  -0.14    -0.04  -0.06   0.06
  47   8    -0.03   0.04   0.22     0.16  -0.06  -0.19    -0.03  -0.19   0.12
  48   7    -0.01  -0.17   0.02     0.10   0.18  -0.09    -0.12   0.03   0.02
  49   1    -0.01  -0.08   0.01     0.03   0.05  -0.03    -0.04  -0.01   0.01
  50   1     0.00  -0.05  -0.01     0.03   0.03  -0.02    -0.03   0.03  -0.01
  51   7     0.04   0.21   0.12     0.14  -0.16  -0.15     0.03  -0.02   0.05
  52   1     0.02   0.04   0.01     0.03  -0.02  -0.03    -0.00   0.03   0.00
  53   1     0.02   0.06   0.04     0.04  -0.03  -0.04     0.01  -0.01   0.02
                     16                     17                     18
                        a                      a                      a 
 Frequencies --    88.3243                94.5835               102.6485
 Red. masses --    13.7432                12.4158                12.7025
 Frc consts  --     0.0000                 0.0000                 0.0000
 IR Inten    --     3.5341                11.0979                 9.2490
 Raman Activ --     0.0000                 0.0000                 0.0000
 Depolar     --     0.0000                 0.0000                 0.0000
 Atom AN      X      Y      Z        X      Y      Z        X      Y      Z
   1   8    -0.12  -0.08  -0.34    -0.03  -0.14  -0.12     0.01  -0.02   0.02
   2   6    -0.10   0.03  -0.12     0.09   0.06  -0.13    -0.00  -0.07  -0.04
   3   1    -0.01   0.01  -0.02     0.07   0.01  -0.01    -0.01  -0.02  -0.02
   4   1    -0.06   0.04  -0.03     0.03   0.05  -0.05     0.01  -0.03  -0.01
   5   6    -0.00   0.02  -0.02     0.01   0.15  -0.21    -0.04  -0.08  -0.08
   6   1    -0.01   0.01  -0.01    -0.01   0.05  -0.07    -0.02  -0.02  -0.03
   7   1    -0.00   0.02   0.02     0.03   0.06  -0.08    -0.01  -0.02  -0.03
   8   7     0.11  -0.06  -0.03    -0.09   0.12  -0.18    -0.10  -0.09  -0.07
   9   6     0.14  -0.09  -0.13    -0.11   0.10  -0.16    -0.10  -0.08  -0.05
  10   1     0.04  -0.03  -0.04    -0.03   0.03  -0.06    -0.03  -0.02  -0.02
  11   1     0.05  -0.04  -0.03    -0.04   0.02  -0.04    -0.04  -0.02  -0.01
  12   1     0.03  -0.02  -0.05    -0.02   0.03  -0.04    -0.02  -0.02  -0.01
  13   6     0.15  -0.07   0.06    -0.14   0.05  -0.22    -0.11  -0.09  -0.10
  14   1     0.04  -0.02   0.02    -0.03   0.01  -0.07    -0.03  -0.03  -0.04
  15   1     0.04  -0.02   0.04    -0.04   0.01  -0.07    -0.03  -0.03  -0.03
  16   1     0.06  -0.03   0.02    -0.06   0.01  -0.06    -0.04  -0.03  -0.03
  17   6     0.12  -0.07  -0.02    -0.11   0.12  -0.05    -0.10  -0.08  -0.03
  18   1     0.04  -0.01   0.00    -0.03   0.04  -0.01    -0.03  -0.02  -0.01
  19   1     0.03  -0.02  -0.01    -0.02   0.05  -0.00    -0.03  -0.02  -0.01
  20   1     0.04  -0.02  -0.01    -0.05   0.02  -0.01    -0.03  -0.03  -0.01
  21   1    -0.05  -0.02  -0.08    -0.04  -0.03  -0.04     0.02  -0.01   0.00
  22   6    -0.00  -0.02   0.04    -0.02  -0.08  -0.02     0.06   0.07   0.03
  23   8    -0.01  -0.19  -0.05    -0.05  -0.18  -0.09     0.19  -0.06   0.04
  24   7     0.00   0.03   0.06     0.02   0.04   0.01    -0.06  -0.05   0.06
  25   1    -0.01  -0.02   0.00     0.01   0.02   0.00    -0.02  -0.06   0.02
  26   1    -0.00   0.03   0.04     0.01   0.03   0.03    -0.05   0.01   0.01
  27   7    -0.00   0.13   0.13    -0.02  -0.13   0.00     0.06   0.33   0.02
  28   1     0.00   0.07   0.04     0.00   0.00   0.01     0.00   0.11   0.00
  29   1     0.00   0.02   0.02    -0.00  -0.04  -0.01     0.03   0.09   0.00
  30   6    -0.14   0.07   0.13     0.11   0.02   0.24     0.06   0.03   0.07
  31   8    -0.56   0.24   0.24     0.21  -0.06   0.27     0.16   0.05   0.05
  32   7     0.14  -0.02   0.13     0.08   0.08   0.31     0.01   0.02   0.06
  33   1    -0.02   0.03   0.07     0.03   0.02   0.09     0.01   0.01   0.00
  34   1     0.10  -0.02   0.03    -0.01   0.05   0.08    -0.02   0.01   0.02
  35   7     0.11  -0.05   0.03     0.04   0.08   0.26     0.02   0.05   0.15
  36   1     0.09  -0.04  -0.01     0.02   0.02   0.07     0.00  -0.00   0.05
  37   1    -0.04   0.01   0.00     0.04  -0.00   0.06     0.03   0.01   0.05
  38   6     0.01   0.01  -0.00     0.04  -0.02  -0.03    -0.05   0.04   0.05
  39   8    -0.01  -0.04  -0.01     0.06  -0.08  -0.01    -0.19   0.17  -0.01
  40   7     0.04   0.12  -0.00     0.05   0.06  -0.07    -0.05  -0.03   0.21
  41   1     0.00   0.00  -0.00     0.01  -0.01  -0.02    -0.02  -0.00   0.07
  42   1     0.01   0.02   0.00     0.01   0.01  -0.02     0.01  -0.02   0.07
  43   7     0.00  -0.03  -0.01     0.01  -0.01  -0.00     0.08  -0.02  -0.05
  44   1     0.01   0.02  -0.00    -0.00   0.00  -0.00     0.05  -0.03  -0.00
  45   1     0.00  -0.01  -0.00    -0.00  -0.02   0.01     0.02   0.01  -0.05
  46   6     0.01   0.02  -0.02    -0.02  -0.07   0.06     0.04  -0.02  -0.10
  47   8     0.01   0.09  -0.05    -0.02  -0.21   0.15     0.16  -0.13  -0.42
  48   7     0.06  -0.05  -0.00    -0.13   0.02  -0.01     0.25   0.07   0.14
  49   1     0.02   0.00  -0.00    -0.05  -0.03   0.00     0.14  -0.01   0.02
  50   1     0.02  -0.01   0.01    -0.03   0.01  -0.02     0.05   0.02   0.11
  51   7    -0.02   0.02  -0.01     0.06   0.02   0.04    -0.26   0.03  -0.00
  52   1    -0.00  -0.01   0.00     0.01   0.03  -0.01    -0.09   0.03   0.05
  53   1    -0.01   0.01  -0.01     0.03  -0.01   0.02    -0.10   0.00  -0.03
                     19                     20                     21
                        a                      a                      a 
 Frequencies --   116.3660               126.8690               132.4233
 Red. masses --    10.6532                12.5455                12.5317
 Frc consts  --     0.0000                 0.0000                 0.0000
 IR Inten    --    17.9586                12.0416                 7.7994
 Raman Activ --     0.0000                 0.0000                 0.0000
 Depolar     --     0.0000                 0.0000                 0.0000
 Atom AN      X      Y      Z        X      Y      Z        X      Y      Z
   1   8     0.11   0.15  -0.02     0.07   0.06  -0.01     0.03  -0.04  -0.04
   2   6    -0.12  -0.27  -0.11     0.04   0.01  -0.01     0.07   0.07   0.02
   3   1    -0.12  -0.07  -0.10    -0.00   0.01   0.02     0.04   0.02   0.05
   4   1    -0.02  -0.17  -0.00     0.03   0.01  -0.01     0.03   0.07  -0.02
   5   6    -0.04  -0.37  -0.03     0.01  -0.12  -0.06     0.01  -0.03  -0.06
   6   1     0.05  -0.13   0.04     0.03  -0.05  -0.03     0.00  -0.01  -0.05
   7   1    -0.06  -0.17  -0.03    -0.01  -0.06  -0.02     0.01  -0.00  -0.02
   8   7    -0.01  -0.08  -0.12    -0.09  -0.13  -0.03    -0.11  -0.15  -0.00
   9   6     0.03   0.06   0.10    -0.07  -0.10  -0.00    -0.02  -0.14  -0.09
  10   1     0.01   0.02   0.08    -0.02  -0.03  -0.00     0.01  -0.05  -0.04
  11   1     0.01   0.07   0.01    -0.03  -0.02  -0.00    -0.01  -0.06  -0.02
  12   1     0.01  -0.01   0.04    -0.02  -0.03   0.01    -0.00  -0.01  -0.03
  13   6     0.02   0.08  -0.15    -0.12  -0.15  -0.08    -0.15  -0.30  -0.01
  14   1    -0.00   0.03  -0.01    -0.02  -0.05  -0.02    -0.02  -0.11  -0.02
  15   1     0.01   0.01  -0.08    -0.04  -0.05  -0.03    -0.07  -0.09   0.01
  16   1     0.01   0.06  -0.05    -0.05  -0.03  -0.02    -0.06  -0.09   0.00
  17   6    -0.02  -0.06  -0.35    -0.12  -0.09   0.02    -0.22  -0.05   0.15
  18   1    -0.02  -0.04  -0.13    -0.04  -0.03   0.00    -0.08  -0.02   0.06
  19   1    -0.01  -0.04  -0.10    -0.03  -0.01   0.02    -0.05   0.03   0.05
  20   1     0.01   0.03  -0.11    -0.05  -0.03   0.01    -0.09  -0.03   0.05
  21   1     0.09   0.02   0.03     0.01   0.01   0.02    -0.01  -0.00  -0.03
  22   6     0.02   0.05  -0.02    -0.10   0.07   0.16     0.01  -0.03  -0.09
  23   8     0.06   0.24   0.08    -0.28   0.14   0.12     0.03  -0.10  -0.12
  24   7    -0.01  -0.01  -0.04     0.06  -0.14  -0.03    -0.01   0.11  -0.01
  25   1     0.00   0.03   0.01     0.01  -0.05  -0.06     0.00   0.04   0.01
  26   1    -0.00  -0.03  -0.04     0.04  -0.05  -0.00     0.00   0.04   0.01
  27   7     0.02  -0.08  -0.14    -0.09   0.22   0.43     0.00  -0.09  -0.14
  28   1    -0.00  -0.08  -0.06    -0.01   0.04   0.12    -0.00  -0.04  -0.04
  29   1     0.00  -0.01  -0.02    -0.04   0.03   0.10     0.00  -0.02  -0.04
  30   6    -0.01  -0.03   0.13     0.03   0.01   0.01     0.02   0.03  -0.02
  31   8    -0.07  -0.08   0.18     0.07   0.02   0.01     0.06   0.06  -0.03
  32   7     0.08   0.02   0.20     0.01   0.00   0.01    -0.00  -0.01  -0.05
  33   1    -0.00   0.02   0.08    -0.00   0.01  -0.00    -0.01   0.01  -0.02
  34   1     0.01   0.04   0.05    -0.02   0.01   0.00    -0.02  -0.00  -0.01
  35   7     0.00  -0.01   0.06     0.00   0.02   0.05     0.01   0.03   0.04
  36   1     0.03  -0.00   0.00     0.01  -0.00   0.01     0.01  -0.01   0.01
  37   1     0.00  -0.02   0.00     0.02  -0.00   0.01     0.02   0.01   0.02
  38   6     0.02   0.05   0.02    -0.05  -0.00  -0.08     0.11  -0.00  -0.00
  39   8     0.06   0.14   0.04     0.00  -0.12  -0.06     0.16   0.05   0.01
  40   7     0.00   0.01   0.01    -0.05   0.06  -0.15     0.09  -0.06  -0.05
  41   1     0.01   0.02   0.00    -0.02   0.02  -0.04     0.03  -0.02  -0.02
  42   1    -0.01  -0.01   0.00    -0.01   0.04  -0.04     0.01  -0.04  -0.02
  43   7    -0.02  -0.01   0.04    -0.11   0.07  -0.03     0.06  -0.07   0.02
  44   1    -0.00   0.01   0.01    -0.05   0.02  -0.02     0.03   0.04   0.00
  45   1     0.01   0.03   0.02    -0.04  -0.01   0.01     0.04   0.05   0.01
  46   6    -0.04   0.07   0.04     0.19   0.05  -0.06    -0.04   0.19   0.11
  47   8    -0.09   0.22   0.08     0.17   0.13   0.08    -0.11   0.56   0.09
  48   7    -0.03  -0.04   0.01     0.13   0.06  -0.14     0.10  -0.08   0.15
  49   1    -0.02   0.02   0.00     0.01   0.03  -0.03     0.03   0.03   0.04
  50   1    -0.01  -0.02  -0.01     0.04  -0.01  -0.07     0.03  -0.06   0.05
  51   7     0.00  -0.01   0.02     0.34  -0.03  -0.10    -0.09   0.08   0.12
  52   1     0.01  -0.03  -0.00     0.09  -0.01  -0.04     0.01  -0.06   0.03
  53   1     0.00   0.02   0.01     0.10  -0.00  -0.02    -0.02   0.04   0.03
                     22                     23                     24
                        a                      a                      a 
 Frequencies --   161.6151               170.2550               180.8751
 Red. masses --    12.3178                11.7423                 9.9788
 Frc consts  --     0.0000                 0.0000                 0.0000
 IR Inten    --    20.8572                15.4768                25.9663
 Raman Activ --     0.0000                 0.0000                 0.0000
 Depolar     --     0.0000                 0.0000                 0.0000
 Atom AN      X      Y      Z        X      Y      Z        X      Y      Z
   1   8     0.02   0.04  -0.06     0.00   0.02   0.02    -0.10  -0.18   0.31
   2   6     0.02   0.05  -0.01     0.01   0.01  -0.00    -0.01  -0.16  -0.01
   3   1     0.01   0.02   0.02     0.00   0.00  -0.01     0.02  -0.06  -0.06
   4   1     0.00   0.03  -0.01     0.00  -0.00   0.00     0.02  -0.10   0.01
   5   6     0.01   0.00  -0.01    -0.00   0.04  -0.01    -0.09   0.15  -0.07
   6   1     0.01  -0.00  -0.01    -0.01   0.02  -0.01    -0.11   0.08  -0.03
   7   1    -0.00  -0.00  -0.00     0.01   0.02  -0.00     0.04   0.11  -0.02
   8   7    -0.02  -0.02   0.00     0.00   0.01  -0.00     0.01  -0.00  -0.08
   9   6    -0.02  -0.02  -0.01     0.00  -0.01  -0.04     0.06  -0.07  -0.24
  10   1    -0.01  -0.01  -0.00     0.00  -0.00  -0.02     0.03  -0.03  -0.10
  11   1    -0.01  -0.01  -0.00     0.00  -0.01  -0.01     0.02  -0.06  -0.06
  12   1    -0.01  -0.01  -0.00     0.00   0.00  -0.01     0.02   0.01  -0.08
  13   6    -0.04  -0.04  -0.01     0.01  -0.02   0.01     0.08  -0.10   0.08
  14   1    -0.01  -0.01  -0.00     0.00  -0.01   0.00     0.04  -0.04   0.04
  15   1    -0.01  -0.01  -0.01    -0.00  -0.00   0.01    -0.00  -0.03   0.05
  16   1    -0.01  -0.01  -0.00     0.00  -0.01   0.00     0.06  -0.04   0.02
  17   6    -0.04  -0.01   0.04    -0.00   0.01   0.02    -0.00   0.01  -0.07
  18   1    -0.01   0.00   0.02    -0.00   0.01   0.01    -0.02   0.01   0.00
  19   1    -0.01   0.01   0.02    -0.00   0.01   0.00    -0.01   0.02  -0.05
  20   1    -0.02  -0.01   0.02     0.00  -0.00   0.01     0.02  -0.01  -0.02
  21   1     0.02   0.01  -0.02     0.00   0.00   0.01    -0.01  -0.04   0.05
  22   6     0.11  -0.04  -0.05     0.20  -0.13   0.18    -0.02   0.04  -0.02
  23   8     0.36  -0.17   0.03     0.18  -0.07   0.24    -0.13   0.17  -0.04
  24   7    -0.18  -0.03   0.14     0.18  -0.10   0.24     0.15   0.08  -0.14
  25   1    -0.04  -0.04   0.11     0.05  -0.01   0.08     0.05   0.08  -0.06
  26   1    -0.11   0.02   0.02     0.05  -0.05   0.05     0.09   0.02  -0.01
  27   7     0.10   0.07  -0.29     0.18  -0.25   0.11    -0.02  -0.10   0.04
  28   1    -0.01   0.03  -0.09     0.04  -0.07   0.02     0.01  -0.06   0.01
  29   1     0.05   0.02  -0.09     0.05  -0.07   0.03    -0.03  -0.02   0.03
  30   6     0.00   0.00  -0.00    -0.00   0.00  -0.00    -0.02   0.01  -0.00
  31   8     0.00   0.00  -0.00    -0.00   0.01  -0.00    -0.04   0.02   0.01
  32   7     0.01  -0.00  -0.00     0.00  -0.00  -0.00     0.13  -0.08  -0.01
  33   1    -0.01   0.00  -0.00    -0.00   0.00  -0.00    -0.14   0.10   0.02
  34   1    -0.01   0.01   0.00    -0.00   0.00  -0.00    -0.19   0.12   0.01
  35   7    -0.00   0.01   0.00     0.00   0.00   0.00    -0.11   0.07   0.03
  36   1     0.01  -0.00  -0.00     0.00  -0.00  -0.00     0.17  -0.12  -0.05
  37   1     0.01  -0.00  -0.00     0.00  -0.00   0.00     0.13  -0.09  -0.02
  38   6    -0.18  -0.03   0.08    -0.17   0.14  -0.20    -0.03   0.03   0.07
  39   8    -0.29  -0.09   0.07    -0.18   0.23  -0.25    -0.21   0.15  -0.00
  40   7    -0.15   0.06   0.21    -0.17   0.03  -0.16    -0.02  -0.02   0.28
  41   1    -0.03   0.03   0.06    -0.07  -0.02  -0.04    -0.02   0.02   0.10
  42   1    -0.00   0.08   0.06    -0.06  -0.08  -0.03     0.03  -0.01   0.09
  43   7    -0.10   0.09   0.06    -0.15  -0.07  -0.29     0.17  -0.03  -0.09
  44   1    -0.07  -0.15   0.02     0.06   0.24  -0.06     0.08  -0.09  -0.00
  45   1    -0.08  -0.14   0.00     0.03   0.23  -0.10     0.03  -0.04  -0.09
  46   6     0.11   0.05  -0.04    -0.03   0.02   0.03     0.03   0.02  -0.00
  47   8     0.04   0.16   0.19    -0.04   0.05   0.05     0.01   0.05   0.08
  48   7    -0.04   0.02  -0.22    -0.03  -0.01   0.02    -0.02   0.00  -0.07
  49   1    -0.07   0.03  -0.04    -0.01  -0.00   0.01    -0.03   0.01  -0.01
  50   1     0.00  -0.01  -0.12    -0.01  -0.01   0.00    -0.00   0.00  -0.04
  51   7     0.33  -0.05  -0.11    -0.02   0.02   0.03     0.12  -0.03  -0.02
  52   1     0.10  -0.02  -0.05    -0.00  -0.00   0.00     0.03   0.01  -0.01
  53   1     0.10   0.00  -0.01    -0.01   0.01   0.01     0.03   0.02  -0.01
                     25                     26                     27
                        a                      a                      a 
 Frequencies --   182.6712               184.4755               187.7205
 Red. masses --    10.1464                 5.8685                 5.3537
 Frc consts  --     0.0000                 0.0000                 0.0000
 IR Inten    --    61.6522                 7.2829               133.8535
 Raman Activ --     0.0000                 0.0000                 0.0000
 Depolar     --     0.0000                 0.0000                 0.0000
 Atom AN      X      Y      Z        X      Y      Z        X      Y      Z
   1   8    -0.05  -0.02   0.24    -0.07  -0.10   0.26     0.02  -0.02  -0.13
   2   6    -0.02  -0.09  -0.00    -0.01  -0.14  -0.02     0.00   0.04   0.01
   3   1    -0.00  -0.03  -0.05     0.01  -0.05  -0.06     0.00   0.02   0.03
   4   1     0.01  -0.07   0.01     0.02  -0.09   0.01    -0.01   0.05  -0.01
   5   6    -0.07   0.12  -0.05    -0.08   0.11  -0.08     0.04  -0.07   0.04
   6   1    -0.07   0.06  -0.02    -0.09   0.06  -0.03     0.04  -0.03   0.01
   7   1     0.02   0.08  -0.01     0.03   0.09  -0.02    -0.01  -0.05   0.01
   8   7     0.01   0.01  -0.05    -0.01  -0.01  -0.09     0.00  -0.01   0.04
   9   6     0.04  -0.04  -0.17     0.04  -0.05  -0.21    -0.01   0.02   0.10
  10   1     0.02  -0.02  -0.08     0.02  -0.02  -0.09    -0.01   0.01   0.04
  11   1     0.00  -0.04  -0.04     0.00  -0.04  -0.05     0.00   0.02   0.02
  12   1     0.02   0.01  -0.05     0.02   0.01  -0.06    -0.01  -0.01   0.03
  13   6     0.06  -0.05   0.06     0.05  -0.09   0.05    -0.03   0.02  -0.02
  14   1     0.02  -0.02   0.02     0.03  -0.03   0.02    -0.01   0.01  -0.01
  15   1     0.00  -0.01   0.04    -0.01  -0.03   0.04     0.00   0.01  -0.02
  16   1     0.04  -0.02   0.01     0.04  -0.03   0.01    -0.02   0.01  -0.00
  17   6     0.01   0.01  -0.05    -0.02   0.00  -0.07    -0.00  -0.01   0.03
  18   1    -0.01   0.01   0.00    -0.02   0.01   0.01     0.01  -0.01  -0.01
  19   1    -0.01   0.01  -0.04    -0.02   0.02  -0.05     0.00  -0.01   0.02
  20   1     0.02  -0.01  -0.02     0.02  -0.02  -0.02    -0.01   0.01   0.01
  21   1     0.01  -0.01   0.07     0.01  -0.03   0.06    -0.01  -0.00  -0.03
  22   6     0.05   0.04   0.07     0.01   0.04   0.02     0.03  -0.08   0.06
  23   8     0.19   0.08   0.18     0.02   0.13   0.07    -0.07  -0.08   0.02
  24   7    -0.16  -0.10   0.15     0.01  -0.00  -0.00     0.14   0.01   0.04
  25   1    -0.04  -0.06   0.09     0.01   0.02   0.01     0.04   0.02  -0.01
  26   1    -0.09  -0.04  -0.00     0.00  -0.01  -0.01     0.07  -0.00   0.02
  27   7     0.05   0.12  -0.08     0.02   0.00  -0.02     0.02  -0.18   0.12
  28   1    -0.02   0.03  -0.04    -0.00  -0.02  -0.01     0.02  -0.02   0.05
  29   1     0.04   0.05  -0.03     0.01   0.01   0.00     0.00  -0.04   0.05
  30   6    -0.01   0.00  -0.01     0.00   0.01   0.03     0.00  -0.00  -0.01
  31   8    -0.02   0.01  -0.00    -0.01   0.02   0.03     0.01  -0.00  -0.01
  32   7     0.10  -0.06  -0.01    -0.21   0.14   0.04     0.00  -0.01  -0.01
  33   1    -0.12   0.08   0.01     0.26  -0.17  -0.02    -0.01   0.00  -0.00
  34   1    -0.16   0.10   0.01     0.36  -0.21  -0.01    -0.01   0.00  -0.00
  35   7    -0.10   0.07   0.02     0.22  -0.14  -0.02    -0.00   0.00  -0.00
  36   1     0.15  -0.11  -0.04    -0.31   0.22   0.09     0.00  -0.00  -0.00
  37   1     0.12  -0.08  -0.02    -0.25   0.18   0.05     0.00  -0.00  -0.00
  38   6     0.03  -0.04  -0.10    -0.01   0.00  -0.01    -0.03   0.04  -0.07
  39   8     0.27  -0.14  -0.01     0.02   0.03  -0.01     0.02   0.30  -0.10
  40   7     0.02   0.06  -0.38    -0.00   0.02  -0.02    -0.02   0.06  -0.04
  41   1     0.04   0.03  -0.13     0.01   0.03  -0.01     0.01   0.08  -0.01
  42   1    -0.02   0.06  -0.12     0.01   0.03  -0.01     0.03   0.09  -0.01
  43   7    -0.21   0.13   0.11    -0.01   0.05  -0.00     0.08   0.17  -0.13
  44   1    -0.18  -0.12  -0.00    -0.04  -0.12  -0.01    -0.15  -0.63  -0.04
  45   1    -0.09  -0.13   0.10    -0.03  -0.09   0.00    -0.12  -0.43  -0.07
  46   6    -0.03  -0.01   0.02     0.00   0.02   0.01    -0.04   0.01   0.02
  47   8    -0.02  -0.03  -0.05    -0.01   0.04   0.03    -0.04   0.04  -0.03
  48   7     0.02  -0.01   0.08    -0.00  -0.02  -0.01     0.01  -0.02   0.06
  49   1     0.03  -0.01   0.02    -0.01   0.02   0.00     0.01   0.00   0.01
  50   1    -0.00   0.00   0.04    -0.00   0.02  -0.00    -0.00   0.00   0.03
  51   7    -0.10   0.03   0.04     0.03  -0.00   0.00    -0.07  -0.03   0.03
  52   1    -0.02  -0.00   0.02     0.01  -0.00  -0.00    -0.03   0.02   0.01
  53   1    -0.02  -0.01   0.01     0.01   0.01   0.00    -0.03   0.03   0.01
                     28                     29                     30
                        a                      a                      a 
 Frequencies --   237.2944               263.7004               282.6227
 Red. masses --    13.8474                 2.8256                 7.4321
 Frc consts  --     0.0000                 0.0000                 0.0000
 IR Inten    --     4.3327               168.4901                 4.8788
 Raman Activ --     0.0000                 0.0000                 0.0000
 Depolar     --     0.0000                 0.0000                 0.0000
 Atom AN      X      Y      Z        X      Y      Z        X      Y      Z
   1   8     0.12   0.57   0.39    -0.02   0.01   0.03    -0.31  -0.18   0.24
   2   6    -0.03   0.15   0.02     0.00   0.04   0.01     0.07   0.37   0.16
   3   1    -0.08   0.06  -0.03     0.00   0.01   0.02     0.11   0.11   0.25
   4   1     0.06  -0.04   0.01     0.01   0.02  -0.00     0.08   0.29  -0.06
   5   6    -0.07  -0.01  -0.05    -0.01  -0.01  -0.01    -0.05  -0.11  -0.06
   6   1     0.01  -0.02  -0.02     0.01  -0.01  -0.01     0.09  -0.08  -0.05
   7   1    -0.04  -0.02   0.00    -0.01  -0.01  -0.00    -0.09  -0.10   0.01
   8   7     0.01  -0.03  -0.08    -0.01  -0.01  -0.01     0.02  -0.09  -0.10
   9   6     0.03  -0.03  -0.09    -0.00  -0.00   0.00     0.11   0.02   0.01
  10   1     0.01  -0.01  -0.04     0.00  -0.01  -0.00     0.01   0.03   0.13
  11   1    -0.00  -0.01  -0.02    -0.01   0.00   0.00     0.13   0.08  -0.05
  12   1     0.02   0.00  -0.01     0.00   0.00   0.00    -0.03  -0.06  -0.05
  13   6     0.09  -0.02   0.04     0.00   0.01  -0.00     0.07  -0.04  -0.04
  14   1     0.02  -0.01   0.03     0.00  -0.00   0.01    -0.02   0.02  -0.06
  15   1     0.01  -0.01   0.02    -0.00  -0.00  -0.01     0.07   0.04   0.03
  16   1     0.05  -0.00   0.00     0.00   0.01  -0.00     0.02  -0.08   0.00
  17   6     0.02  -0.03  -0.17    -0.01  -0.01  -0.01     0.01  -0.07  -0.28
  18   1    -0.01  -0.01  -0.05     0.00  -0.00  -0.01     0.08  -0.10  -0.28
  19   1    -0.00  -0.01  -0.06     0.00  -0.00   0.00     0.07  -0.11   0.11
  20   1     0.02   0.00  -0.05    -0.01   0.00  -0.00    -0.14   0.15  -0.09
  21   1     0.12   0.15   0.07    -0.01   0.00  -0.00    -0.15  -0.02  -0.02
  22   6    -0.04  -0.16  -0.06    -0.00  -0.01  -0.00     0.02   0.03   0.02
  23   8    -0.09  -0.45  -0.21    -0.01  -0.03  -0.02     0.03   0.07   0.04
  24   7    -0.01   0.03   0.03    -0.00   0.01   0.01     0.00  -0.01   0.00
  25   1    -0.02  -0.06  -0.02    -0.00  -0.01  -0.00     0.00   0.02   0.01
  26   1    -0.01   0.06   0.05    -0.00   0.01   0.01     0.00  -0.01  -0.00
  27   7    -0.06  -0.05   0.12     0.00   0.03   0.01     0.02   0.02  -0.03
  28   1     0.01   0.09   0.07    -0.01  -0.04  -0.01    -0.00  -0.01  -0.02
  29   1    -0.02  -0.03   0.02    -0.00  -0.00  -0.00     0.01   0.00  -0.01
  30   6    -0.01   0.00   0.01     0.01  -0.00  -0.00    -0.00  -0.01   0.01
  31   8    -0.01   0.00   0.01     0.01  -0.00  -0.00    -0.00  -0.01   0.01
  32   7     0.01   0.00   0.01    -0.01   0.01   0.00    -0.00   0.01   0.02
  33   1     0.00   0.00   0.01     0.01  -0.00   0.00     0.01  -0.01   0.01
  34   1     0.01   0.00   0.00     0.01  -0.00  -0.00     0.02  -0.00   0.00
  35   7     0.00  -0.00   0.01    -0.02   0.01   0.01    -0.00  -0.01   0.00
  36   1    -0.00   0.00   0.00     0.03  -0.02  -0.01    -0.00   0.00   0.00
  37   1    -0.01   0.00   0.00     0.02  -0.02  -0.00    -0.00  -0.00   0.00
  38   6    -0.00  -0.01   0.00     0.00   0.01  -0.01    -0.00   0.00  -0.00
  39   8    -0.00   0.00  -0.00     0.00   0.02  -0.00    -0.01  -0.00  -0.00
  40   7     0.01   0.02   0.01    -0.00   0.00  -0.00    -0.01  -0.02   0.00
  41   1    -0.01  -0.04   0.00    -0.00  -0.00   0.00     0.00   0.01  -0.00
  42   1    -0.01  -0.04   0.00    -0.00  -0.01   0.00     0.00   0.00   0.00
  43   7     0.02   0.01  -0.01     0.00  -0.00  -0.01    -0.01  -0.01  -0.00
  44   1     0.00  -0.03  -0.00     0.00   0.00  -0.00     0.00   0.01  -0.00
  45   1     0.00  -0.01  -0.01     0.00   0.01  -0.00     0.00   0.01  -0.00
  46   6    -0.00  -0.00  -0.00     0.01   0.05   0.01     0.00  -0.00  -0.00
  47   8    -0.00   0.00  -0.01     0.03  -0.04  -0.01    -0.00   0.01  -0.00
  48   7     0.00   0.01   0.00     0.03  -0.35  -0.02    -0.00   0.02  -0.00
  49   1     0.01  -0.02  -0.00    -0.08   0.46   0.01     0.00  -0.02  -0.00
  50   1     0.01  -0.04  -0.00    -0.10   0.76   0.08     0.01  -0.04  -0.00
  51   7    -0.01  -0.00  -0.00    -0.01   0.04   0.01    -0.00  -0.00  -0.00
  52   1    -0.00   0.00   0.00     0.06  -0.16   0.01    -0.00   0.00  -0.00
  53   1    -0.00   0.00  -0.00     0.02  -0.07   0.00    -0.00   0.00  -0.00
                     31                     32                     33
                        a                      a                      a 
 Frequencies --   303.7874               326.7205               329.4156
 Red. masses --     6.7982                 4.5697                 3.8453
 Frc consts  --     0.0000                 0.0000                 0.0000
 IR Inten    --     0.4440                48.5305               487.5414
 Raman Activ --     0.0000                 0.0000                 0.0000
 Depolar     --     0.0000                 0.0000                 0.0000
 Atom AN      X      Y      Z        X      Y      Z        X      Y      Z
   1   8    -0.32   0.01   0.18    -0.10   0.11   0.09    -0.05   0.05   0.03
   2   6    -0.14   0.10  -0.07    -0.16  -0.13  -0.11    -0.07  -0.05  -0.05
   3   1    -0.02   0.03  -0.00    -0.08  -0.04  -0.12    -0.03  -0.02  -0.05
   4   1    -0.02   0.04  -0.03    -0.05  -0.13   0.01    -0.02  -0.06   0.00
   5   6    -0.02   0.02  -0.04    -0.01   0.05   0.02    -0.00   0.03   0.01
   6   1     0.01  -0.00  -0.01    -0.03   0.03   0.04    -0.02   0.02   0.01
   7   1    -0.03  -0.00   0.03     0.00   0.03   0.03     0.01   0.02   0.01
   8   7     0.14  -0.04  -0.05     0.11   0.03  -0.01     0.06   0.00  -0.00
   9   6     0.16   0.11   0.19     0.14   0.05   0.03     0.06   0.02   0.02
  10   1     0.16  -0.08  -0.15    -0.01   0.06   0.16     0.01   0.01   0.02
  11   1    -0.22   0.02   0.13     0.18   0.07  -0.05     0.02   0.02   0.00
  12   1     0.22   0.19   0.24    -0.05  -0.08  -0.08     0.01  -0.01   0.00
  13   6    -0.06  -0.12  -0.34    -0.09  -0.11  -0.27    -0.03  -0.05  -0.10
  14   1     0.09  -0.12   0.00    -0.14   0.07  -0.40    -0.04   0.01  -0.13
  15   1    -0.12  -0.17  -0.25     0.17   0.16   0.09     0.05   0.04   0.01
  16   1    -0.09   0.16  -0.12    -0.15  -0.35   0.02    -0.06  -0.10   0.00
  17   6     0.21  -0.11   0.11     0.09   0.03   0.24     0.05  -0.00   0.09
  18   1     0.05   0.03   0.16     0.11  -0.01  -0.03     0.06  -0.01  -0.03
  19   1     0.02  -0.00  -0.06     0.08  -0.02   0.19     0.04  -0.02   0.09
  20   1     0.14  -0.15   0.04    -0.11   0.05   0.08    -0.06   0.03   0.03
  21   1    -0.10   0.00   0.05     0.03   0.02   0.02     0.01   0.01   0.01
  22   6     0.01   0.00  -0.00    -0.00  -0.01  -0.01    -0.00  -0.00  -0.01
  23   8     0.01   0.00  -0.00    -0.00  -0.02  -0.01    -0.00  -0.01  -0.01
  24   7     0.00   0.00   0.00    -0.01  -0.00  -0.00     0.01   0.01   0.01
  25   1     0.00   0.01   0.00    -0.00  -0.01  -0.00    -0.00  -0.01  -0.01
  26   1     0.00  -0.00   0.00    -0.01   0.01   0.00     0.00  -0.02  -0.02
  27   7     0.01   0.02  -0.01    -0.01  -0.02   0.00    -0.00  -0.01   0.00
  28   1    -0.00  -0.02  -0.01     0.01   0.03   0.01     0.00   0.01   0.01
  29   1     0.00   0.00  -0.00     0.00  -0.00   0.00    -0.00  -0.00   0.00
  30   6     0.00   0.01  -0.00    -0.03   0.03  -0.00     0.09  -0.05  -0.02
  31   8     0.02  -0.00  -0.00     0.01   0.01  -0.01     0.00  -0.02   0.00
  32   7     0.02  -0.01  -0.01     0.08  -0.05  -0.01    -0.24   0.15  -0.01
  33   1    -0.02   0.01  -0.00    -0.07   0.05  -0.00     0.21  -0.15  -0.02
  34   1    -0.04   0.02   0.00    -0.16   0.09   0.01     0.46  -0.26  -0.04
  35   7     0.02  -0.01  -0.00     0.08  -0.05  -0.02    -0.22   0.17   0.08
  36   1    -0.03   0.02   0.01    -0.15   0.09   0.04     0.43  -0.28  -0.12
  37   1    -0.01   0.01   0.00    -0.07   0.06   0.02     0.22  -0.16  -0.04
  38   6    -0.00   0.00   0.00    -0.00  -0.00   0.00    -0.00  -0.00   0.00
  39   8    -0.00   0.00  -0.00     0.00  -0.00   0.00    -0.00   0.00   0.00
  40   7    -0.00  -0.00   0.00     0.00   0.01  -0.00     0.00   0.00   0.00
  41   1     0.00   0.00  -0.00    -0.00  -0.01   0.00    -0.00  -0.00   0.00
  42   1     0.00   0.01  -0.00    -0.00  -0.01   0.00    -0.00  -0.00   0.00
  43   7    -0.00  -0.00  -0.00     0.00   0.01   0.00     0.00   0.00  -0.00
  44   1     0.00   0.00  -0.00    -0.00  -0.00   0.00     0.00  -0.00   0.00
  45   1     0.00   0.00  -0.00    -0.00  -0.00   0.00     0.00  -0.00  -0.00
  46   6    -0.00   0.01   0.00     0.00  -0.00   0.01    -0.00   0.00   0.00
  47   8    -0.01   0.02   0.01     0.00   0.00   0.01    -0.00   0.01   0.01
  48   7     0.00   0.00   0.00     0.00  -0.01   0.01    -0.00   0.01   0.00
  49   1     0.00  -0.01   0.00    -0.00   0.02   0.00    -0.00  -0.01   0.00
  50   1     0.00  -0.02  -0.00    -0.00   0.03   0.00     0.00  -0.03  -0.01
  51   7     0.00  -0.00   0.00     0.02   0.02   0.00     0.01  -0.00   0.00
  52   1     0.00   0.00  -0.00     0.01  -0.02  -0.00    -0.00   0.02  -0.00
  53   1     0.00   0.00   0.00     0.01  -0.01   0.00     0.00   0.01   0.00
                     34                     35                     36
                        a                      a                      a 
 Frequencies --   355.5779               382.0698               385.3495
 Red. masses --     6.0718                 2.0331                 3.6026
 Frc consts  --     0.0000                 0.0000                 0.0000
 IR Inten    --     5.4665                 0.7264                 1.8548
 Raman Activ --     0.0000                 0.0000                 0.0000
 Depolar     --     0.0000                 0.0000                 0.0000
 Atom AN      X      Y      Z        X      Y      Z        X      Y      Z
   1   8     0.06   0.05  -0.11    -0.01   0.03   0.04    -0.08  -0.04   0.06
   2   6     0.03  -0.03  -0.13    -0.04  -0.04   0.01     0.07   0.10  -0.11
   3   1     0.02  -0.03  -0.13    -0.02  -0.01  -0.02     0.04   0.02  -0.04
   4   1    -0.03  -0.08   0.01    -0.01  -0.04   0.01     0.02   0.03  -0.03
   5   6     0.03   0.34  -0.03    -0.02   0.03   0.02     0.07   0.11  -0.09
   6   1    -0.13   0.16  -0.07    -0.02   0.01   0.03     0.01   0.04  -0.06
   7   1     0.12   0.23   0.02     0.00   0.01  -0.01     0.03   0.06   0.01
   8   7    -0.00  -0.03   0.07    -0.01   0.07   0.00     0.05  -0.06  -0.03
   9   6    -0.13   0.05   0.33     0.07   0.04  -0.11    -0.09   0.03   0.30
  10   1    -0.03   0.01   0.07    -0.08   0.12   0.30    -0.13   0.11   0.33
  11   1    -0.12   0.07   0.11     0.37   0.10  -0.16     0.15   0.14  -0.00
  12   1     0.01  -0.01   0.19    -0.20  -0.20  -0.26    -0.15  -0.21   0.01
  13   6    -0.05  -0.28   0.13    -0.10  -0.04  -0.09     0.04  -0.17   0.00
  14   1     0.06  -0.14   0.07     0.15  -0.16   0.25    -0.01  -0.03  -0.08
  15   1    -0.11  -0.14   0.03    -0.25  -0.25  -0.26     0.03   0.00   0.08
  16   1    -0.01  -0.04   0.03    -0.02   0.34  -0.10     0.01  -0.15   0.02
  17   6     0.05  -0.07  -0.24     0.11  -0.03   0.15    -0.02  -0.00  -0.17
  18   1     0.12  -0.13  -0.34     0.11   0.00  -0.00    -0.20   0.09   0.28
  19   1     0.07  -0.17   0.12     0.05  -0.06   0.11    -0.15   0.13  -0.39
  20   1    -0.12   0.21  -0.10    -0.03   0.00   0.05     0.30  -0.21  -0.06
  21   1     0.01   0.00   0.02     0.03   0.02  -0.03    -0.04  -0.00  -0.00
  22   6    -0.00   0.00  -0.00    -0.00   0.01  -0.00     0.00   0.01   0.00
  23   8     0.00  -0.01  -0.01     0.00   0.01   0.00     0.01   0.02   0.01
  24   7    -0.00   0.00   0.00    -0.01  -0.00  -0.00    -0.00  -0.00  -0.00
  25   1    -0.00  -0.01  -0.01    -0.00  -0.01  -0.00    -0.00  -0.00  -0.00
  26   1    -0.00  -0.01  -0.01    -0.01  -0.01  -0.01    -0.00  -0.02  -0.02
  27   7    -0.00  -0.02  -0.01    -0.01  -0.04   0.00    -0.00  -0.03  -0.01
  28   1     0.00   0.02   0.01     0.01   0.07   0.03     0.01   0.08   0.02
  29   1     0.00   0.01   0.00     0.00   0.00   0.00     0.01   0.00  -0.00
  30   6    -0.00  -0.01  -0.00    -0.00  -0.01   0.01    -0.01   0.00   0.00
  31   8     0.01  -0.01  -0.00    -0.00  -0.01   0.01    -0.02   0.01   0.01
  32   7     0.02  -0.01   0.01    -0.00  -0.00   0.01    -0.01   0.00   0.00
  33   1    -0.01   0.01   0.01     0.00  -0.00  -0.00     0.01  -0.01   0.00
  34   1    -0.03   0.02   0.00     0.00  -0.00   0.00     0.02  -0.01  -0.00
  35   7     0.01  -0.02  -0.00    -0.01  -0.00  -0.01    -0.01   0.01   0.00
  36   1    -0.04   0.02   0.01     0.01   0.00  -0.01     0.05  -0.03  -0.02
  37   1    -0.01   0.01   0.00    -0.00  -0.01  -0.01    -0.01  -0.00  -0.01
  38   6     0.00  -0.00  -0.00    -0.00  -0.01   0.00    -0.00  -0.01   0.00
  39   8    -0.00  -0.01  -0.00    -0.00  -0.01   0.00    -0.00  -0.01   0.00
  40   7     0.00   0.00  -0.00     0.01   0.02  -0.00     0.00   0.01   0.00
  41   1     0.00  -0.00  -0.00    -0.00  -0.01  -0.00    -0.00  -0.00  -0.00
  42   1     0.00   0.01  -0.00    -0.01  -0.04   0.00    -0.01  -0.02   0.00
  43   7     0.00   0.00   0.00     0.01   0.01   0.00     0.00   0.00   0.00
  44   1     0.00   0.00  -0.00     0.00  -0.00   0.00     0.00  -0.00   0.00
  45   1     0.00   0.00   0.00     0.00  -0.00  -0.00     0.00  -0.00  -0.00
  46   6    -0.00   0.00  -0.00    -0.01   0.01  -0.01    -0.00   0.00  -0.01
  47   8    -0.00   0.01   0.00    -0.00   0.00  -0.01    -0.00   0.01  -0.00
  48   7     0.01  -0.01   0.00     0.01  -0.00  -0.00     0.01  -0.00   0.00
  49   1     0.00   0.01   0.00     0.01   0.00  -0.00     0.00   0.01   0.00
  50   1     0.00   0.01   0.01     0.00   0.01   0.01     0.00   0.00   0.00
  51   7     0.00   0.01  -0.00    -0.01  -0.00  -0.01     0.00   0.01  -0.00
  52   1     0.00  -0.00  -0.00    -0.00  -0.00   0.00     0.01  -0.01  -0.00
  53   1     0.00  -0.00  -0.00    -0.00  -0.00  -0.00     0.00  -0.00  -0.00
                     37                     38                     39
                        a                      a                      a 
 Frequencies --   415.2483               419.9485               424.5255
 Red. masses --     2.0521                 2.8917                 3.3195
 Frc consts  --     0.0000                 0.0000                 0.0000
 IR Inten    --    53.1164                92.4491               169.1846
 Raman Activ --     0.0000                 0.0000                 0.0000
 Depolar     --     0.0000                 0.0000                 0.0000
 Atom AN      X      Y      Z        X      Y      Z        X      Y      Z
   1   8     0.01  -0.02  -0.01    -0.02  -0.01   0.01     0.03  -0.03  -0.02
   2   6     0.01  -0.01   0.02    -0.00   0.00  -0.02     0.02   0.00   0.02
   3   1     0.00  -0.00   0.02     0.00   0.00  -0.00     0.01   0.00   0.02
   4   1     0.00   0.01   0.00     0.00   0.00  -0.01     0.01   0.01  -0.00
   5   6    -0.02  -0.00  -0.00     0.01  -0.01  -0.01    -0.02  -0.00  -0.01
   6   1    -0.02   0.01  -0.01     0.01  -0.01   0.00    -0.01   0.00  -0.01
   7   1     0.00   0.01  -0.01    -0.00  -0.01   0.00    -0.00   0.00  -0.01
   8   7    -0.03  -0.02  -0.00     0.02  -0.01  -0.01    -0.07  -0.00   0.01
   9   6     0.04   0.01  -0.02    -0.02  -0.03   0.01     0.05   0.06  -0.01
  10   1     0.04  -0.02  -0.03    -0.00  -0.01  -0.02     0.05  -0.02  -0.03
  11   1    -0.01  -0.01   0.00    -0.03  -0.02   0.01    -0.01   0.01   0.01
  12   1     0.03   0.04   0.01     0.01  -0.00   0.02     0.04   0.07   0.00
  13   6    -0.01   0.04   0.00     0.03   0.02  -0.00    -0.06   0.01   0.04
  14   1    -0.02   0.02   0.00     0.01   0.01   0.00    -0.03   0.01  -0.01
  15   1     0.01   0.02  -0.00     0.02   0.01   0.00    -0.00   0.02   0.03
  16   1     0.00   0.01   0.00     0.01   0.00  -0.00    -0.01  -0.02   0.02
  17   6    -0.02  -0.04   0.00    -0.03   0.03   0.02     0.03  -0.08  -0.01
  18   1     0.00  -0.01   0.00    -0.01  -0.00  -0.01     0.03  -0.01   0.00
  19   1    -0.00  -0.01   0.01     0.00   0.02   0.02    -0.01  -0.05  -0.01
  20   1    -0.01  -0.01   0.00    -0.03   0.02   0.01     0.03  -0.03  -0.00
  21   1     0.01  -0.00  -0.00     0.00   0.00  -0.02     0.02   0.00  -0.06
  22   6    -0.01   0.01  -0.02     0.00   0.02  -0.02     0.02   0.06   0.02
  23   8     0.02  -0.02  -0.01     0.03   0.00  -0.01     0.02   0.07   0.03
  24   7    -0.01   0.13   0.14    -0.02   0.07   0.08    -0.01  -0.08  -0.09
  25   1    -0.00   0.07  -0.08    -0.00   0.04  -0.04     0.01   0.01   0.04
  26   1     0.07  -0.57  -0.44     0.02  -0.30  -0.23    -0.03   0.16   0.12
  27   7    -0.04  -0.09  -0.02    -0.00  -0.02  -0.01    -0.01  -0.08  -0.03
  28   1     0.05   0.43   0.14     0.02   0.14   0.05     0.02   0.15   0.05
  29   1     0.03  -0.02  -0.04    -0.00  -0.00  -0.00     0.02   0.02   0.01
  30   6    -0.00  -0.00   0.00     0.00   0.00   0.00     0.00   0.00  -0.00
  31   8     0.00   0.00   0.00     0.00   0.00   0.00     0.00  -0.00   0.00
  32   7     0.00  -0.00   0.00     0.00  -0.00   0.00    -0.00   0.00  -0.00
  33   1     0.01  -0.00  -0.00     0.01  -0.00  -0.01    -0.01   0.00   0.00
  34   1    -0.02   0.01   0.00    -0.03   0.01   0.00     0.02  -0.01  -0.00
  35   7     0.00  -0.00  -0.00     0.01  -0.00  -0.01    -0.00   0.00   0.00
  36   1    -0.00   0.00  -0.00    -0.01   0.01   0.00     0.01  -0.00  -0.00
  37   1    -0.01   0.00  -0.00    -0.01   0.00  -0.00     0.00  -0.00   0.00
  38   6    -0.01   0.02   0.01    -0.02  -0.08   0.02    -0.05  -0.12   0.02
  39   8    -0.00   0.01   0.02    -0.03  -0.04   0.01    -0.04  -0.04   0.01
  40   7    -0.03  -0.03   0.02     0.05   0.12  -0.03     0.08   0.22  -0.04
  41   1     0.01   0.01  -0.00    -0.02  -0.02  -0.00    -0.04  -0.04   0.00
  42   1     0.03   0.10  -0.00    -0.13  -0.40   0.02    -0.23  -0.72   0.04
  43   7     0.02  -0.03  -0.01     0.04   0.07   0.02     0.06   0.14   0.01
  44   1     0.02  -0.01   0.00     0.02   0.03   0.01     0.01  -0.06   0.01
  45   1     0.01   0.01  -0.02    -0.01  -0.06  -0.00    -0.02  -0.07  -0.01
  46   6     0.02  -0.03   0.00    -0.05   0.08   0.01     0.03  -0.03   0.00
  47   8     0.01  -0.01   0.02    -0.03   0.06  -0.03     0.02  -0.01   0.02
  48   7    -0.00   0.06  -0.01     0.01  -0.14   0.01    -0.01   0.07  -0.02
  49   1     0.01  -0.04  -0.00    -0.01   0.09   0.01    -0.00  -0.05  -0.00
  50   1     0.00  -0.00  -0.01    -0.01   0.05   0.03     0.01  -0.01  -0.02
  51   7    -0.06   0.11  -0.00     0.14  -0.20  -0.00    -0.07   0.09   0.01
  52   1     0.14  -0.36  -0.03    -0.24   0.65   0.05     0.13  -0.35  -0.03
  53   1     0.02  -0.01   0.02    -0.02   0.01  -0.03     0.01   0.01   0.02
                     40                     41                     42
                        a                      a                      a 
 Frequencies --   427.7536               443.5108               450.0486
 Red. masses --     8.1092                 1.6005                 4.0073
 Frc consts  --     0.0000                 0.0000                 0.0000
 IR Inten    --    14.4906                13.6895               317.5519
 Raman Activ --     0.0000                 0.0000                 0.0000
 Depolar     --     0.0000                 0.0000                 0.0000
 Atom AN      X      Y      Z        X      Y      Z        X      Y      Z
   1   8     0.18  -0.03  -0.09    -0.01   0.00   0.01     0.01   0.02   0.01
   2   6     0.06  -0.00   0.19    -0.00  -0.00  -0.02    -0.01   0.00   0.02
   3   1     0.01   0.00   0.08    -0.00  -0.00  -0.01    -0.01   0.00  -0.00
   4   1     0.02   0.04   0.04     0.00  -0.00  -0.01    -0.00  -0.01   0.01
   5   6    -0.13   0.03   0.04     0.01  -0.01  -0.02     0.01   0.00   0.03
   6   1    -0.06   0.02   0.01     0.01  -0.01  -0.00     0.03  -0.01   0.03
   7   1    -0.00   0.02  -0.04    -0.01  -0.01  -0.00    -0.01  -0.02   0.00
   8   7    -0.29   0.11   0.04     0.01   0.00  -0.02     0.01   0.07   0.01
   9   6     0.16   0.29  -0.12    -0.02  -0.00   0.01    -0.05   0.02  -0.02
  10   1     0.15   0.00  -0.00    -0.01   0.00  -0.00    -0.04   0.02   0.02
  11   1     0.08   0.10  -0.05    -0.01   0.00   0.00     0.02   0.00  -0.02
  12   1     0.05   0.19  -0.09    -0.00  -0.01   0.01    -0.04  -0.03  -0.03
  13   6    -0.32  -0.05   0.09     0.02  -0.01   0.01    -0.03  -0.07  -0.00
  14   1    -0.09  -0.01  -0.08     0.01  -0.00   0.01     0.02  -0.04  -0.02
  15   1    -0.07   0.04   0.11    -0.00  -0.01   0.00    -0.03  -0.03   0.01
  16   1    -0.10  -0.13   0.05     0.01   0.00   0.00    -0.02  -0.03   0.01
  17   6     0.22  -0.31  -0.13    -0.01   0.02   0.02     0.07   0.03  -0.04
  18   1     0.16   0.01   0.05     0.00  -0.00  -0.01     0.02   0.02   0.00
  19   1    -0.03  -0.22  -0.14     0.01   0.01   0.03     0.00  -0.01  -0.03
  20   1     0.21  -0.17  -0.05    -0.02   0.01   0.01     0.04   0.00  -0.01
  21   1     0.04  -0.01  -0.02    -0.00   0.00   0.00    -0.01   0.00   0.02
  22   6    -0.00  -0.01  -0.00    -0.00  -0.01   0.00    -0.06  -0.12   0.01
  23   8    -0.00  -0.01  -0.01    -0.01  -0.01  -0.00    -0.05  -0.16   0.01
  24   7    -0.00   0.00   0.01     0.01   0.01   0.01     0.06   0.14   0.14
  25   1    -0.00  -0.00  -0.00     0.00   0.00  -0.01     0.02   0.13  -0.06
  26   1    -0.00  -0.01  -0.01     0.01  -0.01  -0.01     0.13  -0.31  -0.18
  27   7     0.00   0.00   0.01     0.00   0.03  -0.00     0.01   0.31  -0.02
  28   1    -0.00  -0.01  -0.00    -0.01  -0.07  -0.03    -0.09  -0.64  -0.23
  29   1    -0.00  -0.01  -0.00    -0.00   0.01   0.00    -0.04   0.09   0.03
  30   6    -0.01   0.00  -0.00     0.02   0.01   0.06    -0.01  -0.01  -0.01
  31   8    -0.01   0.00  -0.00     0.02   0.01   0.06    -0.00  -0.00  -0.01
  32   7    -0.00   0.01   0.01    -0.13   0.01   0.02     0.02   0.00   0.00
  33   1     0.03  -0.01   0.00     0.38  -0.27  -0.17    -0.03   0.02   0.02
  34   1    -0.02   0.01   0.00    -0.44   0.12   0.06     0.04  -0.00  -0.01
  35   7     0.00  -0.01   0.01     0.11  -0.01  -0.05    -0.01  -0.00   0.01
  36   1     0.04  -0.03  -0.01     0.43  -0.15  -0.15    -0.04   0.01   0.02
  37   1    -0.03   0.02   0.01    -0.46   0.22  -0.02     0.04  -0.02   0.00
  38   6     0.01   0.02  -0.00    -0.00  -0.00  -0.00     0.01  -0.02  -0.02
  39   8     0.01   0.00  -0.00    -0.00   0.00  -0.00    -0.01   0.00  -0.04
  40   7    -0.01  -0.04   0.00     0.00   0.01  -0.00     0.05   0.05   0.01
  41   1     0.00   0.01   0.00    -0.00   0.00   0.00    -0.01   0.01   0.02
  42   1     0.04   0.11  -0.01    -0.01  -0.03   0.00    -0.04  -0.21   0.02
  43   7    -0.01  -0.02  -0.00     0.00   0.00   0.00    -0.02   0.05   0.02
  44   1    -0.00   0.02  -0.00    -0.00  -0.01  -0.00    -0.04  -0.02  -0.01
  45   1     0.00   0.01   0.00    -0.00  -0.00   0.00    -0.01  -0.03   0.03
  46   6    -0.01   0.01   0.00     0.01  -0.00   0.00     0.05  -0.02   0.01
  47   8    -0.01   0.02  -0.01     0.01  -0.01   0.00     0.04  -0.03   0.00
  48   7     0.00  -0.03   0.01    -0.00   0.01  -0.01    -0.02   0.06  -0.03
  49   1    -0.00   0.03   0.00    -0.00  -0.01  -0.00     0.00  -0.10  -0.01
  50   1    -0.00   0.01   0.01     0.00  -0.01  -0.01    -0.00   0.01  -0.02
  51   7     0.04  -0.04  -0.00    -0.01   0.01   0.00    -0.04   0.01   0.02
  52   1    -0.06   0.16   0.01     0.01  -0.03   0.00     0.05  -0.15   0.00
  53   1     0.00  -0.01  -0.01    -0.00   0.00   0.00    -0.02   0.04   0.01
                     43                     44                     45
                        a                      a                      a 
 Frequencies --   454.8969               461.4313               462.3848
 Red. masses --     8.3823                 7.9785                 8.2821
 Frc consts  --     0.0000                 0.0000                 0.0000
 IR Inten    --     2.5130                43.6245                 8.9587
 Raman Activ --     0.0000                 0.0000                 0.0000
 Depolar     --     0.0000                 0.0000                 0.0000
 Atom AN      X      Y      Z        X      Y      Z        X      Y      Z
   1   8     0.02   0.00  -0.03    -0.03   0.00   0.03    -0.05  -0.04   0.04
   2   6    -0.03   0.01   0.12    -0.00  -0.01  -0.08    -0.00  -0.02  -0.08
   3   1    -0.01   0.00   0.03    -0.01   0.00  -0.01    -0.01  -0.00  -0.01
   4   1    -0.03   0.01   0.04     0.02  -0.01  -0.03     0.02  -0.00  -0.03
   5   6     0.02   0.07   0.15     0.03  -0.12  -0.07     0.04  -0.16  -0.07
   6   1    -0.05   0.04   0.02     0.11  -0.08   0.03     0.15  -0.11   0.05
   7   1     0.04   0.06   0.05    -0.07  -0.13  -0.04    -0.09  -0.17  -0.05
   8   7     0.07  -0.04   0.12    -0.00   0.16  -0.09     0.00   0.23  -0.12
   9   6     0.05  -0.14  -0.03    -0.17   0.11  -0.04    -0.24   0.15  -0.05
  10   1    -0.00  -0.03  -0.03    -0.07   0.05  -0.04    -0.11   0.07  -0.05
  11   1     0.03  -0.08  -0.00    -0.08   0.02   0.00    -0.11   0.02   0.00
  12   1    -0.00  -0.03  -0.03    -0.03   0.01   0.03    -0.05  -0.00   0.03
  13   6    -0.06   0.03  -0.13     0.05  -0.14   0.12     0.05  -0.21   0.15
  14   1    -0.02   0.01  -0.06     0.06  -0.08   0.02     0.08  -0.11   0.02
  15   1     0.01  -0.00  -0.10    -0.06  -0.04   0.11    -0.09  -0.07   0.15
  16   1    -0.08   0.04  -0.03     0.05  -0.08   0.03     0.06  -0.12   0.04
  17   6    -0.03   0.04  -0.11     0.13   0.08   0.08     0.19   0.11   0.08
  18   1    -0.07  -0.02  -0.03     0.09   0.05   0.02     0.13   0.07   0.03
  19   1    -0.02   0.03  -0.07     0.05  -0.01   0.05     0.06  -0.01   0.06
  20   1     0.04   0.05  -0.05     0.01  -0.01   0.04     0.02  -0.01   0.04
  21   1     0.00   0.00  -0.02    -0.01  -0.00   0.02    -0.00  -0.00  -0.01
  22   6     0.01   0.01  -0.00    -0.10  -0.05   0.11     0.10   0.06  -0.10
  23   8    -0.00   0.01  -0.01     0.03  -0.08   0.18    -0.01   0.10  -0.15
  24   7    -0.01  -0.00   0.00     0.18  -0.04  -0.11    -0.17   0.01   0.07
  25   1    -0.00  -0.02   0.00     0.07   0.18  -0.08    -0.05  -0.12   0.10
  26   1    -0.01   0.01   0.00     0.18   0.03   0.10    -0.17  -0.02  -0.08
  27   7     0.00  -0.01   0.00    -0.14   0.03  -0.16     0.12  -0.07   0.15
  28   1     0.01   0.01   0.01    -0.10   0.23  -0.02     0.10  -0.07   0.06
  29   1     0.00   0.00   0.01     0.05   0.01  -0.11    -0.04  -0.04   0.08
  30   6    -0.08  -0.07  -0.26    -0.02  -0.01  -0.06    -0.02  -0.01  -0.07
  31   8    -0.09  -0.07  -0.29    -0.02  -0.02  -0.07    -0.03  -0.02  -0.07
  32   7     0.16   0.32   0.09     0.04   0.08   0.01     0.04   0.08   0.01
  33   1     0.16  -0.03   0.23     0.03  -0.00   0.05     0.03   0.00   0.06
  34   1     0.05   0.30  -0.04     0.02   0.07  -0.01     0.02   0.07  -0.01
  35   7    -0.04  -0.23   0.29    -0.01  -0.05   0.07    -0.01  -0.05   0.07
  36   1    -0.02  -0.28   0.13    -0.01  -0.07   0.03    -0.02  -0.06   0.04
  37   1    -0.02   0.15   0.24     0.00   0.03   0.06     0.02   0.03   0.06
  38   6    -0.00  -0.00   0.01     0.07  -0.02  -0.12    -0.07   0.03   0.11
  39   8    -0.00  -0.00   0.01    -0.02   0.01  -0.18     0.02  -0.01   0.17
  40   7    -0.00   0.01  -0.01     0.12  -0.04   0.16    -0.12   0.03  -0.13
  41   1     0.00   0.00  -0.00    -0.03  -0.00   0.10     0.02   0.00  -0.08
  42   1    -0.01  -0.02  -0.00     0.11  -0.02   0.08    -0.09   0.04  -0.06
  43   7     0.01   0.00  -0.00    -0.17   0.04   0.07     0.16  -0.04  -0.07
  44   1     0.01   0.00   0.00    -0.17   0.06  -0.03     0.16  -0.05   0.03
  45   1    -0.00  -0.01  -0.01    -0.03   0.01   0.16     0.03  -0.01  -0.15
  46   6    -0.00  -0.00   0.00    -0.10  -0.00  -0.05    -0.01   0.00  -0.01
  47   8    -0.00  -0.00   0.00    -0.12  -0.01   0.02    -0.01   0.00   0.00
  48   7     0.00  -0.00   0.00     0.06  -0.01   0.11     0.01   0.01   0.00
  49   1    -0.00   0.01   0.00     0.14  -0.03   0.00     0.02  -0.02  -0.00
  50   1     0.00  -0.01   0.00    -0.01   0.04   0.14    -0.00   0.00   0.01
  51   7     0.01   0.00  -0.00     0.10   0.02  -0.11     0.01   0.00  -0.01
  52   1     0.00  -0.00  -0.00     0.04   0.02  -0.09     0.02  -0.04  -0.01
  53   1     0.00  -0.00   0.00     0.07   0.01   0.01     0.01   0.02   0.01
                     46                     47                     48
                        a                      a                      a 
 Frequencies --   469.1260               474.4662               479.9647
 Red. masses --     6.5653                 6.5064                 1.9540
 Frc consts  --     0.0000                 0.0000                 0.0000
 IR Inten    --    15.0806                 9.0028                 0.9430
 Raman Activ --     0.0000                 0.0000                 0.0000
 Depolar     --     0.0000                 0.0000                 0.0000
 Atom AN      X      Y      Z        X      Y      Z        X      Y      Z
   1   8    -0.02   0.01   0.03     0.02  -0.01  -0.03    -0.00  -0.01   0.00
   2   6     0.03  -0.01  -0.14    -0.06   0.01   0.21     0.01   0.00  -0.01
   3   1     0.01  -0.00  -0.04    -0.03   0.00   0.06     0.00   0.00  -0.00
   4   1     0.03  -0.01  -0.05    -0.05   0.02   0.07     0.00  -0.00  -0.00
   5   6    -0.02  -0.04  -0.16     0.06  -0.01   0.25    -0.00   0.01  -0.01
   6   1     0.02  -0.02  -0.05     0.04  -0.02   0.11    -0.01   0.00  -0.01
   7   1    -0.02  -0.03  -0.04    -0.01  -0.04   0.05     0.00   0.01  -0.00
   8   7    -0.08  -0.02  -0.10     0.14   0.17   0.11    -0.01  -0.02   0.00
   9   6     0.01   0.11   0.06    -0.17  -0.13  -0.14     0.02   0.00   0.01
  10   1     0.03   0.01   0.06    -0.11   0.02  -0.14     0.01  -0.01   0.01
  11   1     0.00   0.09   0.00    -0.06  -0.15  -0.00     0.01   0.01   0.00
  12   1     0.01   0.03   0.03    -0.06  -0.06  -0.04     0.01   0.01   0.00
  13   6     0.07   0.02   0.12    -0.10  -0.17  -0.14     0.00   0.02   0.01
  14   1     0.00   0.02   0.08     0.04  -0.10  -0.14    -0.01   0.01   0.01
  15   1     0.01   0.02   0.07    -0.07  -0.08  -0.05     0.01   0.01  -0.00
  16   1     0.09  -0.00   0.02    -0.13  -0.07  -0.01     0.01   0.01  -0.00
  17   6    -0.03  -0.08   0.14     0.16   0.20  -0.21    -0.02  -0.02   0.01
  18   1     0.04   0.00   0.04     0.00   0.03  -0.06    -0.01  -0.01   0.00
  19   1     0.01  -0.02   0.08     0.01   0.04  -0.12    -0.00  -0.00   0.01
  20   1    -0.06  -0.05   0.06     0.11   0.09  -0.08    -0.01  -0.00   0.00
  21   1    -0.01  -0.00   0.03     0.00   0.00  -0.03     0.01   0.00  -0.02
  22   6    -0.04  -0.01   0.03    -0.01   0.00   0.02     0.02   0.02  -0.02
  23   8     0.01  -0.04   0.06     0.01   0.00   0.03    -0.00   0.03  -0.03
  24   7     0.05  -0.00  -0.02     0.02  -0.02  -0.03    -0.04  -0.00   0.01
  25   1     0.02   0.05  -0.03     0.01   0.04  -0.00    -0.01   0.00   0.03
  26   1     0.06  -0.01   0.02     0.02   0.01   0.02    -0.03  -0.02  -0.03
  27   7    -0.05   0.02  -0.05    -0.03  -0.02  -0.03     0.03  -0.00   0.03
  28   1    -0.03   0.03  -0.01    -0.01   0.11   0.02     0.02  -0.05   0.00
  29   1     0.01   0.02  -0.02     0.02  -0.00  -0.02    -0.01  -0.01   0.02
  30   6    -0.02  -0.01  -0.06     0.02   0.02   0.07    -0.00  -0.00  -0.00
  31   8    -0.03  -0.02  -0.07     0.03   0.02   0.08    -0.00  -0.00  -0.00
  32   7     0.04   0.08   0.01    -0.05  -0.09  -0.01     0.00   0.00   0.00
  33   1     0.03   0.00   0.05    -0.03  -0.00  -0.06     0.00  -0.00   0.00
  34   1     0.01   0.07  -0.01    -0.02  -0.08   0.02     0.00   0.00  -0.00
  35   7    -0.01  -0.05   0.07     0.02   0.06  -0.07    -0.00  -0.00   0.00
  36   1    -0.03  -0.06   0.04     0.02   0.08  -0.04    -0.00  -0.00   0.00
[...]
  44   1     0.00   0.00  -0.00     0.00  -0.00  -0.01     0.00  -0.00  -0.00
  45   1    -0.01   0.00   0.00    -0.02   0.01   0.00    -0.00   0.00   0.00
  46   6    -0.00   0.00  -0.00     0.00   0.00   0.01    -0.00  -0.00   0.00
  47   8     0.00  -0.00   0.00    -0.01  -0.00  -0.00     0.00  -0.00  -0.00
  48   7     0.00  -0.00   0.00     0.00   0.00  -0.00    -0.00  -0.00   0.00
  49   1    -0.00   0.00   0.00    -0.00  -0.00  -0.01    -0.00  -0.00  -0.00
  50   1    -0.00   0.00  -0.00     0.01   0.00   0.00     0.00   0.00   0.00
  51   7     0.01   0.00  -0.01    -0.12  -0.02   0.19     0.00   0.00   0.00
  52   1     0.01   0.00   0.00    -0.19  -0.06  -0.04    -0.00  -0.00  -0.00
  53   1    -0.05  -0.01   0.05     0.65   0.13  -0.68     0.00   0.00  -0.00
                    142                    143                    144
                        a                      a                      a 
 Frequencies --  3499.3586              3500.2708              3504.3714
 Red. masses --     1.4513                 1.4391                 1.4628
 Frc consts  --     0.0000                 0.0000                 0.0000
 IR Inten    --    15.3685                40.3894                 7.7784
 Raman Activ --     0.0000                 0.0000                 0.0000
 Depolar     --     0.0000                 0.0000                 0.0000
 Atom AN      X      Y      Z        X      Y      Z        X      Y      Z
   1   8    -0.00  -0.00  -0.00     0.00   0.00   0.00     0.00  -0.00  -0.00
   2   6     0.00   0.00  -0.00    -0.00  -0.00   0.00    -0.00  -0.00   0.00
   3   1    -0.00  -0.00   0.00     0.00   0.00  -0.00    -0.00   0.00  -0.00
   4   1     0.00  -0.00   0.00     0.00   0.00   0.00     0.00   0.00   0.00
   5   6    -0.00  -0.00   0.00     0.00  -0.00   0.00     0.00  -0.00   0.00
   6   1     0.00   0.00  -0.00     0.00   0.00   0.00     0.00   0.00  -0.00
   7   1     0.00  -0.00  -0.00    -0.00   0.00  -0.00    -0.00   0.00  -0.00
   8   7    -0.00  -0.00  -0.00     0.00   0.00   0.00     0.00   0.00   0.00
   9   6    -0.00  -0.00  -0.00     0.00  -0.00   0.00    -0.00  -0.00  -0.00
  10   1     0.00   0.00   0.00     0.00   0.00   0.00    -0.00  -0.00  -0.00
  11   1    -0.00  -0.00   0.00    -0.00  -0.00  -0.00     0.00   0.00   0.00
  12   1     0.00   0.00  -0.00    -0.00  -0.00   0.00    -0.00  -0.00   0.00
  13   6    -0.00  -0.00  -0.00    -0.00  -0.00   0.00    -0.00  -0.00  -0.00
  14   1     0.00   0.00   0.00     0.00   0.00   0.00     0.00   0.00  -0.00
  15   1    -0.00  -0.00  -0.00    -0.00   0.00  -0.00    -0.00   0.00  -0.00
  16   1    -0.00  -0.00   0.00    -0.00  -0.00  -0.00     0.00   0.00   0.00
  17   6    -0.00  -0.00  -0.00    -0.00  -0.00  -0.00    -0.00  -0.00  -0.00
  18   1    -0.00   0.00  -0.00    -0.00   0.00  -0.00    -0.00   0.00  -0.00
  19   1    -0.00  -0.00   0.00     0.00  -0.00  -0.00     0.00  -0.00  -0.00
  20   1     0.00   0.00   0.00    -0.00  -0.00   0.00     0.00  -0.00   0.00
  21   1     0.00   0.00   0.00    -0.00  -0.00  -0.00     0.00   0.00   0.00
  22   6     0.00   0.00  -0.00    -0.00  -0.00   0.00     0.00   0.00   0.00
  23   8    -0.00  -0.00   0.00     0.00   0.00  -0.00     0.00  -0.00  -0.00
  24   7    -0.00   0.00  -0.00    -0.00   0.00  -0.00     0.00  -0.00   0.00
  25   1     0.01  -0.00  -0.00     0.00  -0.00  -0.00    -0.00   0.00   0.00
  26   1    -0.00  -0.00   0.00    -0.00  -0.00   0.00     0.00   0.00  -0.00
  27   7     0.00   0.00  -0.01    -0.00  -0.00   0.00     0.00  -0.00  -0.00
  28   1    -0.02  -0.01   0.03     0.00   0.00  -0.00    -0.00  -0.00   0.00
  29   1     0.00  -0.00   0.00     0.00  -0.00   0.00    -0.00   0.00  -0.00
  30   6    -0.00  -0.00   0.00     0.00   0.00  -0.00     0.00   0.00   0.00
  31   8    -0.00  -0.00  -0.00     0.00   0.00  -0.00    -0.00  -0.00  -0.00
  32   7    -0.00  -0.01   0.01     0.04   0.06  -0.11    -0.04  -0.06   0.10
  33   1     0.02   0.03   0.01    -0.27  -0.38  -0.07     0.25   0.37   0.07
  34   1    -0.01  -0.01  -0.04     0.12   0.16   0.50    -0.11  -0.14  -0.45
  35   7    -0.01  -0.01  -0.00     0.08   0.09   0.03     0.09   0.10   0.03
  36   1     0.01   0.01   0.03    -0.18  -0.09  -0.46    -0.19  -0.09  -0.48
  37   1     0.01   0.02  -0.03    -0.12  -0.25   0.34    -0.13  -0.28   0.38
  38   6     0.00  -0.00  -0.00    -0.00  -0.00   0.00    -0.00   0.00  -0.00
  39   8    -0.00  -0.00   0.00    -0.00   0.00  -0.00    -0.00   0.00   0.00
  40   7     0.00  -0.00  -0.00    -0.00   0.00  -0.00    -0.00   0.00   0.00
  41   1    -0.00   0.00  -0.00     0.00  -0.00   0.00    -0.00   0.00  -0.00
  42   1    -0.00   0.00   0.00     0.00  -0.00  -0.00     0.00  -0.00  -0.00
  43   7     0.00  -0.00   0.00    -0.00   0.00  -0.00    -0.00   0.00  -0.00
  44   1     0.00  -0.00  -0.00    -0.00   0.00   0.00    -0.01   0.00   0.02
  45   1    -0.00   0.00   0.00     0.00  -0.00  -0.00     0.02  -0.01  -0.00
  46   6     0.00  -0.00  -0.00     0.00  -0.00   0.00     0.00   0.00  -0.00
  47   8    -0.00  -0.00  -0.00    -0.00  -0.00  -0.00    -0.00  -0.00   0.00
  48   7     0.14   0.02  -0.12     0.01   0.00  -0.01    -0.00  -0.00   0.00
  49   1     0.17   0.01   0.63     0.01   0.00   0.05    -0.00  -0.00  -0.00
  50   1    -0.70  -0.07  -0.19    -0.06  -0.01  -0.02     0.00   0.00   0.00
  51   7    -0.01  -0.00   0.00    -0.00  -0.00   0.00    -0.00  -0.00   0.00
  52   1     0.04   0.01   0.01     0.00   0.00   0.00     0.00   0.00   0.00
  53   1     0.01   0.00  -0.02     0.00   0.00  -0.00     0.00   0.00  -0.00
                    145                    146                    147
                        a                      a                      a 
 Frequencies --  3504.7070              3512.5254              3529.2654
 Red. masses --     1.4493                 1.8888                 1.9613
 Frc consts  --     0.0000                 0.0000                 0.0000
 IR Inten    --    19.6646                31.6628                21.0085
 Raman Activ --     0.0000                 0.0000                 0.0000
 Depolar     --     0.0000                 0.0000                 0.0000
 Atom AN      X      Y      Z        X      Y      Z        X      Y      Z
   1   8    -0.00   0.00  -0.00    -0.00  -0.00  -0.00    -0.00  -0.00  -0.00
   2   6     0.00   0.00   0.00    -0.00  -0.00  -0.00     0.00   0.00   0.00
   3   1    -0.00  -0.00  -0.00    -0.00  -0.00   0.00     0.00   0.00  -0.00
   4   1     0.00   0.00   0.00     0.00  -0.00   0.00     0.00   0.00  -0.00
   5   6    -0.00  -0.00   0.00    -0.00  -0.00   0.00    -0.00   0.00  -0.00
   6   1     0.00   0.00   0.00     0.00   0.00  -0.00    -0.00  -0.00   0.00
   7   1    -0.00   0.00   0.00     0.00  -0.00   0.00     0.00  -0.00   0.00
   8   7     0.00  -0.00  -0.00     0.00   0.00  -0.00    -0.00  -0.00  -0.00
   9   6     0.00  -0.00  -0.00     0.00   0.00   0.00     0.00  -0.00  -0.00
  10   1    -0.00  -0.00  -0.00    -0.00   0.00   0.00    -0.00   0.00  -0.00
  11   1     0.00   0.00   0.00    -0.00  -0.00  -0.00    -0.00   0.00  -0.00
  12   1    -0.00  -0.00   0.00     0.00   0.00  -0.00    -0.00   0.00   0.00
  13   6    -0.00   0.00  -0.00     0.00   0.00   0.00    -0.00   0.00   0.00
  14   1    -0.00  -0.00   0.00    -0.00  -0.00   0.00    -0.00  -0.00  -0.00
  15   1    -0.00  -0.00   0.00     0.00  -0.00  -0.00     0.00  -0.00   0.00
  16   1     0.00   0.00   0.00    -0.00  -0.00  -0.00     0.00   0.00  -0.00
  17   6    -0.00  -0.00  -0.00    -0.00  -0.00  -0.00    -0.00  -0.00   0.00
  18   1    -0.00   0.00   0.00    -0.00  -0.00   0.00    -0.00   0.00  -0.00
  19   1     0.00  -0.00  -0.00     0.00  -0.00  -0.00     0.00  -0.00   0.00
  20   1     0.00   0.00   0.00    -0.00  -0.00   0.00    -0.00   0.00   0.00
  21   1     0.00  -0.00   0.00     0.00   0.00   0.00     0.00  -0.00   0.00
  22   6     0.00  -0.00   0.00    -0.00   0.00  -0.01    -0.00  -0.00   0.00
  23   8    -0.00   0.00  -0.00    -0.00  -0.00   0.00    -0.00   0.00  -0.00
  24   7     0.00  -0.00  -0.00    -0.02  -0.00   0.01     0.00   0.00  -0.00
  25   1    -0.00   0.00   0.00     0.08  -0.01  -0.01    -0.00   0.00   0.00
  26   1     0.00   0.00  -0.00     0.01   0.01  -0.01    -0.00  -0.00   0.00
  27   7    -0.01  -0.00   0.01     0.11   0.06  -0.22    -0.00   0.00  -0.00
  28   1     0.02   0.01  -0.03    -0.46  -0.20   0.82    -0.00   0.00   0.00
  29   1     0.00  -0.00   0.01     0.05  -0.04   0.04     0.00  -0.00   0.01
  30   6     0.00   0.00   0.00    -0.00  -0.00   0.00    -0.00  -0.00   0.00
  31   8    -0.00  -0.00  -0.00     0.00   0.00  -0.00     0.00   0.00  -0.00
  32   7    -0.00  -0.00   0.00    -0.00   0.00  -0.00    -0.00  -0.00   0.00
  33   1     0.01   0.01   0.00    -0.00  -0.00  -0.00     0.00   0.00   0.00
  34   1    -0.00  -0.00  -0.01     0.00   0.00   0.00    -0.00  -0.00  -0.00
  35   7     0.00   0.00   0.00     0.00   0.00   0.00     0.00   0.00   0.00
  36   1    -0.01  -0.00  -0.01    -0.00  -0.00  -0.00    -0.00  -0.00  -0.00
  37   1    -0.00  -0.01   0.01    -0.00  -0.00   0.00    -0.00  -0.00   0.00
  38   6     0.00  -0.00   0.00     0.00  -0.00  -0.00     0.00  -0.00  -0.00
  39   8     0.00  -0.00  -0.00    -0.00  -0.00   0.00    -0.00   0.00   0.00
  40   7     0.00  -0.00  -0.02     0.00  -0.00  -0.00    -0.00   0.00   0.00
  41   1     0.01  -0.00   0.01     0.00  -0.00   0.00     0.00  -0.00   0.00
  42   1    -0.02   0.01   0.05    -0.00   0.00   0.01     0.00  -0.00  -0.01
  43   7     0.09  -0.03   0.15     0.00  -0.00   0.01    -0.00  -0.00   0.00
  44   1     0.27  -0.06  -0.68     0.01  -0.00  -0.02     0.01  -0.00  -0.02
  45   1    -0.62   0.18   0.10    -0.02   0.00   0.00    -0.01   0.00   0.00
  46   6    -0.00  -0.00  -0.00     0.00  -0.00   0.00     0.01   0.00  -0.00
  47   8     0.00   0.00   0.00    -0.00   0.00  -0.00    -0.00  -0.00   0.00
  48   7    -0.00  -0.00   0.00    -0.01  -0.00   0.00    -0.01  -0.00  -0.02
  49   1    -0.00  -0.00  -0.00    -0.00  -0.00  -0.02     0.02   0.00   0.08
  50   1     0.00   0.00   0.00     0.03   0.00   0.01     0.02   0.00   0.00
  51   7    -0.00  -0.00  -0.00     0.00   0.00  -0.00     0.25   0.09   0.03
  52   1     0.02   0.01   0.00     0.00   0.00   0.00    -0.85  -0.31  -0.25
  53   1    -0.01  -0.00   0.01    -0.01  -0.00   0.01    -0.11  -0.01   0.14
                    148                    149                    150
                        a                      a                      a 
 Frequencies --  3533.5588              3546.1196              3564.6100
 Red. masses --     1.8908                 2.1721                 2.1899
 Frc consts  --     0.0000                 0.0000                 0.0000
 IR Inten    --    15.9998                15.2135                13.0352
 Raman Activ --     0.0000                 0.0000                 0.0000
 Depolar     --     0.0000                 0.0000                 0.0000
 Atom AN      X      Y      Z        X      Y      Z        X      Y      Z
   1   8     0.00   0.00   0.00     0.00   0.00   0.00     0.00   0.00   0.00
   2   6     0.00   0.00   0.00     0.00  -0.00   0.00    -0.00  -0.00   0.00
   3   1    -0.00  -0.00  -0.00    -0.00   0.00  -0.00     0.00   0.00  -0.00
   4   1    -0.00  -0.00  -0.00    -0.00  -0.00  -0.00    -0.00  -0.00  -0.00
   5   6     0.00   0.00   0.00    -0.00  -0.00   0.00     0.00   0.00   0.00
   6   1    -0.00  -0.00   0.00     0.00   0.00  -0.00    -0.00  -0.00   0.00
   7   1    -0.00   0.00  -0.00    -0.00  -0.00   0.00    -0.00   0.00   0.00
   8   7    -0.00  -0.00  -0.00    -0.00  -0.00   0.00     0.00   0.00   0.00
   9   6     0.00   0.00   0.00    -0.00  -0.00   0.00     0.00   0.00   0.00
  10   1    -0.00  -0.00  -0.00     0.00   0.00   0.00    -0.00  -0.00   0.00
  11   1    -0.00  -0.00  -0.00    -0.00  -0.00   0.00    -0.00  -0.00  -0.00
  12   1     0.00  -0.00  -0.00     0.00  -0.00  -0.00    -0.00   0.00   0.00
  13   6     0.00  -0.00   0.00     0.00   0.00  -0.00     0.00   0.00   0.00
  14   1    -0.00  -0.00   0.00    -0.00  -0.00   0.00    -0.00  -0.00   0.00
  15   1    -0.00   0.00  -0.00    -0.00  -0.00   0.00     0.00  -0.00   0.00
  16   1    -0.00  -0.00  -0.00    -0.00  -0.00   0.00    -0.00   0.00  -0.00
  17   6     0.00   0.00   0.00     0.00  -0.00  -0.00    -0.00  -0.00  -0.00
  18   1    -0.00   0.00  -0.00    -0.00  -0.00   0.00    -0.00   0.00  -0.00
  19   1     0.00  -0.00  -0.00    -0.00  -0.00  -0.00     0.00  -0.00  -0.00
  20   1    -0.00  -0.00  -0.00    -0.00   0.00   0.00     0.00   0.00   0.00
  21   1    -0.00  -0.00  -0.00    -0.00  -0.00  -0.00    -0.00  -0.00  -0.00
  22   6     0.00   0.00  -0.00     0.01   0.00  -0.00    -0.00  -0.00   0.00
  23   8    -0.00  -0.00   0.00    -0.00  -0.00   0.00     0.00   0.00  -0.00
  24   7    -0.00  -0.00   0.00     0.25   0.08  -0.14     0.00   0.00  -0.00
  25   1     0.01  -0.00  -0.00    -0.64   0.10   0.07    -0.00   0.00   0.00
  26   1     0.01   0.01  -0.01    -0.31  -0.40   0.46    -0.00  -0.00   0.00
  27   7    -0.00  -0.00   0.00     0.01   0.00  -0.02     0.00   0.00  -0.00
  28   1     0.01   0.00  -0.01    -0.03  -0.01   0.06    -0.00  -0.00   0.00
  29   1    -0.00  -0.00   0.00     0.00  -0.00   0.00     0.00  -0.00   0.00
  30   6    -0.00  -0.00  -0.00    -0.00  -0.00   0.00     0.00   0.01  -0.00
  31   8     0.00   0.00   0.00     0.00   0.00  -0.00    -0.00  -0.00   0.00
  32   7    -0.00  -0.00  -0.00    -0.00  -0.00  -0.00     0.09   0.13   0.12
  33   1     0.00   0.00   0.00     0.00   0.00   0.00    -0.27  -0.38  -0.05
  34   1     0.00   0.00   0.00     0.00   0.00   0.00    -0.08  -0.11  -0.38
  35   7    -0.00   0.00  -0.00     0.00   0.00   0.00    -0.01   0.06  -0.22
  36   1     0.00   0.00   0.00    -0.00  -0.00  -0.00     0.19   0.09   0.43
  37   1    -0.00  -0.00   0.00    -0.00  -0.00   0.00    -0.16  -0.32   0.41
  38   6    -0.00  -0.00  -0.01     0.00  -0.00  -0.00    -0.00  -0.00   0.00
  39   8    -0.00   0.00   0.00    -0.00  -0.00   0.00     0.00   0.00  -0.00
  40   7     0.08  -0.04  -0.24     0.00  -0.00  -0.01    -0.00   0.00  -0.00
  41   1     0.05  -0.02   0.04     0.00  -0.00   0.01     0.00  -0.00   0.00
  42   1    -0.33   0.16   0.89    -0.01   0.00   0.01    -0.00  -0.00   0.00
  43   7    -0.02   0.01   0.00    -0.00   0.00   0.00    -0.00   0.00   0.00
  44   1    -0.00   0.00   0.00     0.00  -0.00  -0.00     0.00  -0.00  -0.00
  45   1     0.08  -0.02  -0.01     0.00  -0.00  -0.00     0.00  -0.00  -0.00
  46   6     0.00   0.00   0.00    -0.00  -0.00   0.00     0.00   0.00   0.00
  47   8    -0.00   0.00  -0.00     0.00   0.00  -0.00    -0.00   0.00  -0.00
  48   7    -0.00  -0.00  -0.00     0.00   0.00   0.00     0.01   0.00   0.01
  49   1     0.00   0.00   0.00    -0.00  -0.00  -0.00    -0.01  -0.00  -0.04
  50   1     0.00   0.00   0.00    -0.00  -0.00  -0.00    -0.04  -0.00  -0.01
  51   7     0.00   0.00  -0.00    -0.00  -0.00  -0.00     0.00   0.00  -0.00
  52   1    -0.01  -0.00  -0.00     0.00   0.00   0.00    -0.00  -0.00  -0.00
  53   1    -0.00  -0.00   0.00    -0.00   0.00  -0.00    -0.00  -0.00   0.00
                    151                    152                    153
                        a                      a                      a 
 Frequencies --  3565.4775              3570.1361              3572.1092
 Red. masses --     2.1790                 2.1766                 2.1849
 Frc consts  --     0.0000                 0.0000                 0.0000
 IR Inten    --     9.5839                11.4020                15.2058
 Raman Activ --     0.0000                 0.0000                 0.0000
 Depolar     --     0.0000                 0.0000                 0.0000
 Atom AN      X      Y      Z        X      Y      Z        X      Y      Z
   1   8    -0.00   0.00   0.00    -0.00   0.00   0.00     0.00  -0.00  -0.00
   2   6     0.00  -0.00  -0.00     0.00   0.00  -0.00    -0.00  -0.00  -0.00
   3   1    -0.00  -0.00   0.00     0.00   0.00  -0.00     0.00   0.00  -0.00
   4   1    -0.00  -0.00   0.00     0.00   0.00   0.00    -0.00   0.00   0.00
   5   6    -0.00  -0.00   0.00    -0.00   0.00  -0.00    -0.00   0.00  -0.00
   6   1     0.00   0.00  -0.00    -0.00  -0.00   0.00    -0.00   0.00  -0.00
   7   1    -0.00  -0.00  -0.00     0.00  -0.00   0.00     0.00  -0.00   0.00
   8   7    -0.00  -0.00   0.00    -0.00  -0.00  -0.00     0.00   0.00   0.00
   9   6    -0.00  -0.00  -0.00     0.00   0.00   0.00    -0.00  -0.00  -0.00
  10   1     0.00   0.00   0.00    -0.00  -0.00   0.00     0.00   0.00  -0.00
  11   1     0.00  -0.00   0.00    -0.00  -0.00  -0.00     0.00   0.00   0.00
  12   1    -0.00  -0.00  -0.00     0.00  -0.00   0.00    -0.00   0.00   0.00
  13   6    -0.00  -0.00  -0.00     0.00   0.00   0.00    -0.00  -0.00  -0.00
  14   1     0.00   0.00   0.00    -0.00  -0.00   0.00     0.00   0.00  -0.00
  15   1    -0.00  -0.00   0.00    -0.00   0.00   0.00     0.00  -0.00   0.00
  16   1    -0.00  -0.00   0.00    -0.00  -0.00  -0.00     0.00   0.00   0.00
  17   6    -0.00   0.00  -0.00     0.00   0.00   0.00     0.00  -0.00   0.00
  18   1    -0.00  -0.00  -0.00     0.00  -0.00   0.00     0.00  -0.00  -0.00
  19   1    -0.00  -0.00  -0.00     0.00   0.00   0.00    -0.00   0.00   0.00
  20   1     0.00   0.00   0.00    -0.00   0.00  -0.00     0.00   0.00   0.00
  21   1     0.00  -0.00  -0.00    -0.00  -0.00  -0.00    -0.00   0.00   0.00
  22   6     0.00  -0.00   0.00    -0.00  -0.00   0.00    -0.00  -0.00   0.00
  23   8    -0.00  -0.00   0.00     0.00   0.00  -0.00     0.00   0.00  -0.00
  24   7     0.00   0.00  -0.00     0.00   0.00  -0.00    -0.00  -0.00   0.00
  25   1    -0.00   0.00   0.00    -0.00   0.00   0.00     0.00  -0.00  -0.00
  26   1    -0.00  -0.00   0.00    -0.00  -0.00   0.00     0.00   0.00  -0.00
  27   7    -0.00  -0.00   0.00     0.00   0.00  -0.00     0.00  -0.00   0.00
  28   1     0.00   0.00  -0.01    -0.00  -0.00   0.00     0.00   0.00  -0.00
  29   1    -0.00   0.00  -0.00     0.00  -0.00   0.00    -0.00   0.00  -0.00
  30   6     0.00   0.00  -0.00     0.00   0.00   0.01    -0.00  -0.00  -0.00
  31   8    -0.00  -0.00  -0.00    -0.00  -0.00  -0.00     0.00   0.00   0.00
  32   7     0.00   0.01   0.00     0.11   0.15   0.14    -0.00  -0.00  -0.00
  33   1    -0.01  -0.02  -0.00    -0.31  -0.43  -0.06     0.00   0.00   0.00
  34   1    -0.00  -0.00  -0.01    -0.10  -0.13  -0.46     0.00   0.00   0.00
  35   7    -0.00   0.00  -0.02     0.01  -0.05   0.19    -0.00   0.00  -0.00
  36   1     0.01   0.01   0.03    -0.17  -0.09  -0.38     0.00   0.00   0.00
  37   1    -0.01  -0.02   0.03     0.13   0.27  -0.34    -0.00  -0.00   0.00
  38   6     0.00  -0.00   0.00    -0.00   0.00   0.00    -0.01   0.00   0.01
  39   8     0.00   0.00  -0.00     0.00   0.00  -0.00     0.00  -0.00  -0.00
  40   7     0.00  -0.00   0.00     0.00   0.00  -0.00    -0.00   0.00   0.01
  41   1    -0.00   0.00  -0.00     0.00  -0.00   0.00    -0.00   0.00  -0.00
  42   1    -0.00  -0.00   0.00    -0.00   0.00   0.00     0.02  -0.01  -0.06
  43   7     0.00  -0.00  -0.00    -0.00   0.00   0.00    -0.23   0.06   0.18
  44   1    -0.00   0.00   0.01     0.00  -0.00  -0.00     0.21  -0.05  -0.59
  45   1    -0.01   0.00   0.00     0.00  -0.00  -0.00     0.68  -0.20  -0.08
  46   6    -0.01  -0.00  -0.01    -0.00  -0.00  -0.00    -0.00  -0.00  -0.00
  47   8     0.00  -0.00   0.00     0.00   0.00  -0.00    -0.00  -0.00   0.00
  48   7    -0.20  -0.02  -0.22    -0.00  -0.00  -0.00    -0.00  -0.00  -0.00
  49   1     0.16   0.01   0.69     0.00   0.00   0.01     0.00   0.00   0.01
  50   1     0.62   0.06   0.14     0.01   0.00   0.00     0.01   0.00   0.00
  51   7    -0.02  -0.01  -0.00    -0.00  -0.00  -0.00    -0.00  -0.00   0.00
  52   1     0.06   0.02   0.02     0.00   0.00   0.00     0.01   0.00   0.00
  53   1     0.01   0.00  -0.01    -0.00  -0.00  -0.00     0.01   0.00  -0.01
