 Entering Gaussian System
 *********************************************
 Gaussian 98:
 frequency output generated by the xtb code
 *********************************************
                         Standard orientation:
 --------------------------------------------------------------------
  Center     Atomic     Atomic              Coordinates (Angstroms)
  Number     Number      Type              X           Y           Z
 --------------------------------------------------------------------
    1          8             0       -0.502511    0.872930   -1.311059
    2          6             0        0.457434    1.055025   -0.290362
    3          1             0        1.178712    0.238118   -0.282831
    4          1             0        0.993335    1.976032   -0.540240
    5          6             0       -0.159058    1.277394    1.096412
    6          1             0       -1.088612    1.837450    0.971577
    7          1             0        0.555413    1.859471    1.680966
    8          7             0       -0.487588    0.069644    1.906194
    9          6             0       -1.389497   -0.835163    1.181257
   10          1             0       -2.275214   -0.277420    0.877633
   11          1             0       -1.687781   -1.654094    1.833182
   12          1             0       -0.892150   -1.250033    0.308189
   13          6             0       -1.178607    0.551956    3.114379
   14          1             0       -1.424259   -0.285904    3.764126
   15          1             0       -2.097992    1.059634    2.825340
   16          1             0       -0.533344    1.241745    3.654299
   17          6             0        0.731986   -0.651019    2.302983
   18          1             0        0.482583   -1.428960    3.020813
   19          1             0        1.437862    0.052442    2.745094
   20          1             0        1.206655   -1.107323    1.436833
   21          1             0       -0.615394   -0.082569   -1.497564
   22          6             0        2.785892   -2.124104   -1.078553
   23          8             0        2.497841   -1.376944   -0.148735
   24          7             0        4.073839   -2.472253   -1.334111
   25          1             0        4.767130   -2.240770   -0.644455
   26          1             0        4.298803   -3.199478   -1.988942
   27          7             0        1.854051   -2.642897   -1.904825
   28          1             0        2.129660   -3.134130   -2.735931
   29          1             0        0.898203   -2.309360   -1.847105
   30          6             0        3.653250    1.768513    1.955408
   31          8             0        2.543369    1.765925    2.468893
   32          7             0        4.090713    0.781124    1.138396
   33          1             0        3.449419    0.069051    0.810708
   34          1             0        4.948837    0.896437    0.629922
   35          7             0        4.532747    2.785315    2.167668
   36          1             0        5.499292    2.705407    1.907448
   37          1             0        4.301454    3.449937    2.885389
   38          6             0       -3.810854    1.914964   -0.259117
   39          8             0       -3.329086    1.526373    0.794269
   40          7             0       -5.031121    2.493062   -0.322469
   41          1             0       -5.549394    2.612739    0.529531
   42          1             0       -5.431574    2.828924   -1.178883
   43          7             0       -3.176506    1.715386   -1.456576
   44          1             0       -3.478041    2.263027   -2.246233
   45          1             0       -2.165185    1.566221   -1.397689
   46          6             0       -1.998914   -2.077735   -2.362890
   47          8             0       -0.932009   -1.763466   -1.829314
   48          7             0       -2.155905   -3.280102   -2.956541
   49          1             0       -1.405045   -3.945526   -2.912900
   50          1             0       -3.030364   -3.574105   -3.351056
   51          7             0       -3.063301   -1.254655   -2.378173
   52          1             0       -3.909668   -1.512949   -2.851695
   53          1             0       -2.996479   -0.317669   -2.001123
 --------------------------------------------------------------------
     1 basis functions        1 primitive gaussians
     1 alpha electrons        1 beta electrons

 Harmonic frequencies (cm**-1), IR intensities (km*mol⁻¹),
 Raman scattering activities (A**4/amu), Raman depolarization ratios,
 reduced masses (AMU), force constants (mDyne/A) and normal coordinates:
                      1                      2                      3
                        a                      a                      a 
 Frequencies --    18.1256                26.4661                28.2893
 Red. masses --    12.1521                12.3147                11.9187
 Frc consts  --     0.0000                 0.0000                 0.0000
 IR Inten    --     0.1326                 0.4968                 3.4781
 Raman Activ --     0.0000                 0.0000                 0.0000
 Depolar     --     0.0000                 0.0000                 0.0000
 Atom AN      X      Y      Z        X      Y      Z        X      Y      Z
   1   8     0.03   0.09   0.08     0.05   0.14   0.06    -0.15   0.02  -0.11
   2   6     0.01   0.04   0.09     0.02   0.09   0.08    -0.05   0.06  -0.17
   3   1     0.00   0.01   0.02    -0.00   0.02   0.03    -0.01   0.02  -0.06
   4   1     0.01   0.01   0.04     0.01   0.02   0.03    -0.03   0.02  -0.07
   5   6    -0.02  -0.00   0.08    -0.02   0.10   0.06     0.04   0.08  -0.13
   6   1    -0.01  -0.01   0.02    -0.01   0.02   0.01     0.01   0.03  -0.02
   7   1    -0.01   0.00   0.03    -0.01   0.03   0.02     0.03   0.02  -0.05
   8   7     0.01  -0.03   0.06    -0.02   0.11   0.07     0.07   0.10  -0.11
   9   6     0.07  -0.06   0.01     0.04   0.06   0.04     0.02   0.09  -0.05
  10   1     0.01  -0.03  -0.00     0.01   0.01   0.00     0.00   0.03  -0.00
  11   1     0.03  -0.03  -0.01     0.02   0.02   0.01     0.01   0.03  -0.01
  12   1     0.03  -0.00   0.00     0.02   0.02   0.02    -0.01   0.02  -0.02
  13   6    -0.06  -0.08   0.04    -0.08   0.09   0.03     0.13   0.12  -0.08
  14   1    -0.01  -0.03   0.00    -0.02   0.03   0.01     0.05   0.04  -0.01
  15   1    -0.02  -0.03   0.00    -0.02   0.02  -0.00     0.03   0.03  -0.01
  16   1    -0.03  -0.02   0.02    -0.04   0.03   0.01     0.05   0.04  -0.04
  17   6     0.03   0.02   0.08    -0.01   0.14   0.12     0.07   0.09  -0.15
  18   1     0.01   0.01   0.03    -0.00   0.05   0.04     0.03   0.02  -0.05
  19   1    -0.00   0.01   0.02    -0.01   0.05   0.02     0.02   0.02  -0.04
  20   1     0.02   0.01   0.03    -0.00   0.03   0.04     0.02   0.03  -0.05
  21   1     0.01   0.02   0.01     0.00   0.04   0.01    -0.03   0.00  -0.03
  22   6    -0.06  -0.14   0.15    -0.08   0.07   0.00    -0.00  -0.08   0.02
  23   8    -0.07  -0.05   0.08    -0.13  -0.04   0.09     0.07   0.16  -0.15
  24   7    -0.07  -0.29   0.29    -0.07   0.12  -0.00    -0.04  -0.26   0.10
  25   1    -0.03  -0.07   0.08    -0.03   0.01   0.01    -0.00  -0.04   0.00
  26   1    -0.02  -0.10   0.10    -0.01   0.05  -0.02    -0.03  -0.11   0.06
  27   7    -0.05  -0.15   0.14    -0.06   0.17  -0.09    -0.06  -0.19   0.15
  28   1    -0.01  -0.07   0.05    -0.01   0.07  -0.04    -0.03  -0.11   0.07
  29   1    -0.01  -0.01   0.01    -0.02   0.04  -0.02    -0.01  -0.02   0.02
  30   6    -0.01   0.08  -0.17     0.16  -0.13  -0.04     0.08   0.03   0.14
  31   8     0.04   0.05  -0.09     0.14   0.05  -0.14     0.03   0.11   0.01
  32   7    -0.02   0.05  -0.15     0.11  -0.25   0.06     0.08   0.07   0.10
  33   1    -0.01   0.00  -0.02     0.01  -0.05   0.01     0.01   0.04  -0.01
  34   1    -0.02   0.02  -0.07     0.04  -0.10   0.03     0.04   0.00   0.06
  35   7    -0.06   0.15  -0.33     0.30  -0.25  -0.03     0.18  -0.10   0.38
  36   1    -0.02   0.05  -0.11     0.08  -0.11   0.01     0.05  -0.04   0.12
  37   1    -0.01   0.05  -0.09     0.09  -0.04  -0.03     0.04  -0.03   0.11
  38   6    -0.02  -0.07   0.08    -0.09  -0.17  -0.08    -0.11  -0.04   0.10
  39   8    -0.03  -0.14   0.07    -0.10  -0.08  -0.06    -0.02   0.06   0.10
  40   7    -0.04  -0.11   0.10    -0.19  -0.38  -0.17    -0.16  -0.12   0.16
  41   1    -0.02  -0.05   0.03    -0.06  -0.10  -0.05    -0.03  -0.02   0.05
  42   1    -0.01  -0.02   0.03    -0.05  -0.11  -0.05    -0.06  -0.05   0.04
  43   7     0.01   0.05   0.08    -0.02  -0.13  -0.06    -0.19  -0.08   0.07
  44   1     0.00   0.03   0.03    -0.01  -0.05  -0.02    -0.07  -0.04   0.02
  45   1     0.00   0.02   0.02    -0.00  -0.00  -0.00    -0.05  -0.01   0.00
  46   6     0.07   0.14  -0.15     0.01   0.07   0.01     0.00  -0.02  -0.08
  47   8     0.05   0.11  -0.07    -0.02   0.15   0.02    -0.02  -0.01  -0.06
  48   7     0.12   0.20  -0.28     0.08   0.05   0.04     0.06   0.01  -0.17
  49   1     0.03   0.05  -0.08     0.03   0.02   0.02     0.02   0.01  -0.06
  50   1     0.04   0.06  -0.09     0.03  -0.00   0.01     0.02   0.00  -0.05
  51   7     0.08   0.15  -0.16    -0.03   0.02  -0.03    -0.04  -0.07  -0.04
  52   1     0.03   0.05  -0.06    -0.00  -0.01  -0.01    -0.00  -0.02  -0.02
  53   1     0.01   0.03  -0.02    -0.02   0.01  -0.01    -0.02  -0.02   0.00
                      4                      5                      6
                        a                      a                      a 
 Frequencies --    34.0585                39.8936                45.0134
 Red. masses --    12.4503                12.2283                12.5361
 Frc consts  --     0.0000                 0.0000                 0.0000
 IR Inten    --     2.7941                 2.9894                 4.1961
 Raman Activ --     0.0000                 0.0000                 0.0000
 Depolar     --     0.0000                 0.0000                 0.0000
 Atom AN      X      Y      Z        X      Y      Z        X      Y      Z
   1   8    -0.13  -0.15   0.04    -0.05   0.16  -0.05    -0.09  -0.14  -0.06
   2   6    -0.09  -0.05  -0.01    -0.04   0.09  -0.03    -0.07  -0.08  -0.07
   3   1    -0.02  -0.01   0.01    -0.01   0.03  -0.02    -0.02  -0.02  -0.01
   4   1    -0.03  -0.02  -0.02    -0.01   0.03   0.00    -0.02  -0.02  -0.03
   5   6    -0.05   0.03  -0.00    -0.05   0.03  -0.03    -0.07  -0.05  -0.07
   6   1    -0.01   0.02  -0.00    -0.01   0.01  -0.00    -0.03  -0.03  -0.03
   7   1    -0.00   0.01  -0.01    -0.01  -0.00   0.00    -0.03   0.01  -0.03
   8   7    -0.09   0.07   0.05    -0.08  -0.02  -0.11     0.00  -0.03  -0.02
   9   6    -0.14   0.08   0.10    -0.02   0.01  -0.19     0.14  -0.17  -0.02
  10   1    -0.03   0.03   0.03    -0.01   0.00  -0.06     0.03  -0.08  -0.03
  11   1    -0.05   0.04   0.04    -0.01  -0.01  -0.07     0.06  -0.05   0.00
  12   1    -0.05   0.01   0.03     0.01   0.02  -0.06     0.07  -0.05   0.01
  13   6    -0.03   0.14   0.05    -0.14  -0.09  -0.11    -0.12  -0.03  -0.09
  14   1    -0.01   0.05   0.02    -0.05  -0.04  -0.05    -0.02  -0.01  -0.01
  15   1    -0.00   0.05   0.02    -0.04  -0.03  -0.04    -0.05  -0.05  -0.05
  16   1     0.01   0.04   0.00    -0.05  -0.03  -0.01    -0.07   0.02  -0.03
  17   6    -0.10   0.03   0.04    -0.08  -0.02  -0.08     0.06   0.13   0.10
  18   1    -0.03   0.02   0.02    -0.03  -0.01  -0.03     0.03   0.04   0.04
  19   1    -0.02   0.00  -0.00    -0.03  -0.01  -0.01    -0.01   0.07   0.02
  20   1    -0.04  -0.01   0.01    -0.01   0.01  -0.02     0.04   0.03   0.04
  21   1    -0.02  -0.04   0.02     0.02   0.04  -0.05    -0.02  -0.04  -0.01
  22   6     0.03   0.06   0.03     0.08  -0.00   0.04     0.03   0.05   0.06
  23   8    -0.06  -0.04   0.09    -0.05   0.04  -0.03    -0.01   0.01   0.10
  24   7     0.07   0.22   0.02     0.12  -0.09   0.31     0.04   0.11   0.07
  25   1     0.01   0.06   0.02    -0.00  -0.03   0.12     0.01   0.03   0.02
  26   1     0.04   0.07  -0.00     0.06  -0.03   0.10     0.02   0.04   0.01
  27   7     0.10   0.04  -0.03     0.22   0.05  -0.13     0.06   0.07   0.03
  28   1     0.04   0.03  -0.01     0.09   0.01  -0.02     0.02   0.02   0.01
  29   1     0.02  -0.02   0.00     0.06   0.03  -0.08     0.01   0.00   0.01
  30   6     0.03  -0.09  -0.09     0.00  -0.09  -0.07     0.06   0.06  -0.01
  31   8     0.02  -0.04  -0.12     0.00  -0.10  -0.09    -0.05   0.29  -0.26
  32   7     0.02  -0.17  -0.02     0.01  -0.12  -0.05     0.09  -0.09   0.19
  33   1    -0.00  -0.04   0.00    -0.00  -0.03  -0.02     0.01  -0.00   0.03
  34   1     0.01  -0.06  -0.01    -0.00  -0.03  -0.02     0.05  -0.07   0.09
  35   7     0.05  -0.11  -0.15     0.01  -0.10  -0.08     0.17  -0.05   0.06
  36   1     0.01  -0.04  -0.03     0.00  -0.03  -0.02     0.06  -0.06   0.07
  37   1     0.02  -0.02  -0.05     0.00  -0.03  -0.02     0.03   0.02  -0.02
  38   6    -0.04   0.11   0.10    -0.07   0.06   0.07     0.01  -0.01   0.04
  39   8    -0.03   0.21   0.14    -0.08   0.02   0.06    -0.06  -0.37  -0.05
  40   7     0.02   0.27   0.12    -0.06   0.11   0.11     0.10   0.19   0.19
  41   1     0.02   0.10   0.03    -0.01   0.02   0.03     0.02  -0.01   0.05
  42   1    -0.01   0.04   0.02    -0.02   0.04   0.03     0.03   0.10   0.07
  43   7    -0.13  -0.08   0.10    -0.09   0.09   0.06     0.01   0.23   0.01
  44   1    -0.03  -0.04   0.02    -0.03   0.02   0.02     0.02   0.11   0.03
  45   1    -0.04  -0.04   0.02    -0.03   0.02   0.01    -0.00   0.02  -0.01
  46   6     0.12  -0.12  -0.09     0.10   0.00   0.07    -0.07  -0.03  -0.06
  47   8     0.05  -0.18   0.10     0.24   0.15  -0.27    -0.06  -0.14  -0.06
  48   7     0.29  -0.03  -0.36     0.03  -0.07   0.25    -0.22  -0.05   0.02
  49   1     0.08  -0.00  -0.08     0.04   0.01   0.01    -0.08  -0.04   0.01
  50   1     0.09  -0.01  -0.12    -0.01  -0.04   0.12    -0.06   0.01  -0.00
  51   7     0.09  -0.19  -0.09     0.02  -0.10   0.33     0.02   0.10  -0.15
  52   1     0.05  -0.04  -0.07    -0.02  -0.06   0.16    -0.00   0.04  -0.03
  53   1     0.00  -0.06   0.01     0.01  -0.01   0.05     0.03   0.02  -0.04
                      7                      8                      9
                        a                      a                      a 
 Frequencies --    50.9250                58.0677                61.2910
 Red. masses --    12.3465                12.2113                12.3339
 Frc consts  --     0.0000                 0.0000                 0.0000
 IR Inten    --     0.4118                 3.1846                 2.4239
 Raman Activ --     0.0000                 0.0000                 0.0000
 Depolar     --     0.0000                 0.0000                 0.0000
 Atom AN      X      Y      Z        X      Y      Z        X      Y      Z
   1   8     0.09  -0.05  -0.08    -0.04  -0.03  -0.07    -0.05  -0.10  -0.01
   2   6     0.09  -0.11  -0.07     0.03  -0.09  -0.11    -0.04  -0.04  -0.02
   3   1     0.01  -0.05  -0.01    -0.01  -0.05  -0.03    -0.00  -0.00  -0.00
   4   1     0.05  -0.05  -0.03     0.03  -0.04  -0.05    -0.02  -0.01  -0.01
   5   6     0.10  -0.02  -0.09     0.10  -0.00  -0.10    -0.03  -0.04  -0.02
   6   1     0.03   0.00  -0.03     0.04   0.02  -0.02    -0.01  -0.01  -0.00
   7   1     0.03  -0.00  -0.03     0.05  -0.02  -0.04    -0.00  -0.01  -0.01
   8   7     0.06   0.03  -0.03     0.02   0.05  -0.06    -0.04  -0.03  -0.02
   9   6     0.09  -0.01  -0.02    -0.06   0.09  -0.01    -0.12   0.01   0.03
  10   1     0.02  -0.01  -0.02    -0.01   0.04  -0.00    -0.03   0.02   0.02
  11   1     0.02   0.00  -0.00    -0.03   0.04   0.01    -0.04   0.01   0.01
  12   1     0.03  -0.01   0.00    -0.03   0.01  -0.00    -0.05  -0.00   0.00
  13   6    -0.00   0.11  -0.09     0.08   0.15  -0.06     0.05  -0.01   0.02
  14   1    -0.01   0.04  -0.01     0.01   0.05  -0.01     0.01  -0.00   0.01
  15   1     0.00   0.03  -0.05     0.03   0.06  -0.02     0.02   0.01   0.02
  16   1    -0.01   0.04  -0.03     0.04   0.03  -0.03     0.03  -0.01  -0.00
  17   6     0.03   0.05   0.08    -0.04  -0.04  -0.04    -0.04  -0.08  -0.09
  18   1    -0.00   0.03   0.03    -0.03  -0.01  -0.01    -0.01  -0.03  -0.03
  19   1     0.00   0.02   0.02     0.00  -0.02  -0.01    -0.00  -0.03  -0.03
  20   1     0.02  -0.00   0.04    -0.02  -0.02  -0.01    -0.03  -0.02  -0.03
  21   1     0.00  -0.01  -0.02    -0.02  -0.01  -0.02    -0.01  -0.03   0.00
  22   6    -0.00  -0.02   0.02     0.09  -0.02   0.02     0.15   0.03   0.07
  23   8    -0.01  -0.19   0.15     0.08  -0.14   0.11     0.20   0.11   0.04
  24   7    -0.01  -0.11   0.09     0.09  -0.06   0.05     0.17   0.13  -0.02
  25   1    -0.02  -0.09   0.05     0.02  -0.05   0.03     0.06   0.07  -0.03
  26   1    -0.00   0.00  -0.01     0.02   0.00  -0.01     0.05   0.02   0.01
  27   7     0.04   0.27  -0.20     0.12   0.15  -0.12     0.13  -0.14   0.23
  28   1     0.02   0.09  -0.06     0.03   0.05  -0.04     0.02  -0.05   0.07
  29   1     0.01   0.07  -0.05     0.03   0.03  -0.02     0.03  -0.05   0.07
  30   6    -0.06   0.07   0.07    -0.05  -0.04   0.04     0.05  -0.06  -0.05
  31   8    -0.07   0.15   0.09    -0.03  -0.07   0.11     0.02  -0.13  -0.14
  32   7    -0.07  -0.04   0.21    -0.01  -0.13   0.17     0.22  -0.12   0.10
  33   1    -0.02  -0.02   0.07     0.00  -0.05   0.06     0.07  -0.04   0.01
  34   1    -0.02  -0.03   0.05    -0.01  -0.03   0.03     0.06  -0.01   0.03
  35   7    -0.07   0.10  -0.06    -0.14   0.07  -0.17    -0.06   0.05  -0.10
  36   1    -0.02   0.02  -0.01    -0.04   0.03  -0.05    -0.01   0.03   0.00
  37   1    -0.02   0.05  -0.04    -0.04   0.04  -0.06    -0.05   0.02  -0.04
  38   6     0.09  -0.05   0.03    -0.05   0.02   0.11    -0.06   0.02  -0.06
  39   8     0.16   0.06   0.06     0.06   0.17   0.13    -0.07   0.06  -0.06
  40   7     0.08  -0.08   0.03    -0.19  -0.25   0.13    -0.18  -0.21  -0.12
  41   1     0.04   0.01   0.01    -0.04  -0.07   0.04    -0.06  -0.07  -0.04
  42   1     0.02  -0.04   0.00    -0.06  -0.08   0.04    -0.03  -0.03  -0.03
  43   7     0.04  -0.19   0.03    -0.05   0.10   0.11     0.03   0.19  -0.03
  44   1    -0.00  -0.08  -0.01    -0.03   0.02   0.03     0.00   0.04  -0.01
  45   1     0.01  -0.04  -0.00    -0.01   0.04   0.02     0.01   0.06  -0.00
  46   6    -0.13   0.01  -0.04     0.00   0.01  -0.05    -0.07   0.07   0.06
  47   8    -0.10   0.01  -0.15    -0.00  -0.04  -0.00    -0.01  -0.13   0.06
  48   7    -0.09   0.13  -0.31    -0.14  -0.11   0.24    -0.21   0.23  -0.21
  49   1    -0.01   0.05  -0.13    -0.06  -0.05   0.10    -0.08   0.04  -0.09
  50   1    -0.04   0.02  -0.04    -0.03  -0.00   0.03    -0.08   0.10  -0.04
  51   7    -0.25  -0.12   0.33     0.16   0.20  -0.40    -0.03   0.15   0.34
  52   1    -0.07  -0.02   0.08     0.03   0.05  -0.09    -0.01   0.09   0.07
  53   1    -0.07  -0.04   0.10     0.05   0.05  -0.11     0.03   0.03   0.10
                     10                     11                     12
                        a                      a                      a 
 Frequencies --    64.6015                67.9773                74.6749
 Red. masses --    12.3055                12.2349                12.8681
 Frc consts  --     0.0000                 0.0000                 0.0000
 IR Inten    --     0.9182                 1.9422                 2.2575
 Raman Activ --     0.0000                 0.0000                 0.0000
 Depolar     --     0.0000                 0.0000                 0.0000
 Atom AN      X      Y      Z        X      Y      Z        X      Y      Z
   1   8     0.08   0.15  -0.03     0.11   0.04  -0.09     0.04   0.04  -0.01
   2   6     0.01   0.12   0.03     0.09  -0.02  -0.05     0.02   0.02   0.01
   3   1     0.02   0.04   0.00     0.01  -0.02  -0.01     0.01   0.01   0.00
   4   1    -0.01   0.05   0.03     0.05  -0.02  -0.01     0.00   0.01   0.01
   5   6    -0.06   0.03   0.01     0.06   0.02  -0.07     0.02  -0.02   0.02
   6   1    -0.03  -0.01   0.00     0.03   0.02  -0.03     0.01   0.01   0.01
   7   1    -0.03   0.02   0.02     0.02   0.00  -0.02     0.01  -0.02   0.01
   8   7    -0.01  -0.02  -0.04    -0.02   0.05  -0.08    -0.05  -0.05  -0.05
   9   6    -0.00  -0.01  -0.06     0.08   0.01  -0.14     0.01  -0.03  -0.14
  10   1    -0.01  -0.01   0.00     0.02  -0.01  -0.06     0.01  -0.00  -0.05
  11   1     0.01  -0.02  -0.03     0.02   0.00  -0.05    -0.01  -0.01  -0.05
  12   1    -0.00   0.02  -0.03     0.05   0.01  -0.03     0.02   0.00  -0.04
  13   6     0.01  -0.10   0.00    -0.16   0.08  -0.17    -0.14  -0.10  -0.08
  14   1     0.01  -0.04  -0.01    -0.06   0.03  -0.05    -0.05  -0.03  -0.04
  15   1     0.00  -0.03   0.01    -0.04   0.01  -0.08    -0.04  -0.03  -0.04
  16   1     0.00  -0.04   0.01    -0.07   0.03  -0.04    -0.05  -0.03  -0.00
  17   6     0.02  -0.01  -0.10    -0.06   0.07   0.09    -0.07  -0.05   0.02
  18   1     0.02  -0.01  -0.03    -0.04   0.03   0.03    -0.03  -0.03  -0.01
  19   1     0.01  -0.00  -0.03    -0.03   0.02   0.04    -0.03  -0.02   0.03
  20   1     0.00   0.01  -0.04     0.01   0.01   0.04     0.00  -0.00   0.01
  21   1     0.02   0.04  -0.01     0.03   0.01  -0.04     0.00   0.01  -0.01
  22   6    -0.04  -0.04  -0.07    -0.07  -0.05   0.03     0.01   0.14   0.15
  23   8     0.08   0.03  -0.10    -0.17  -0.14   0.07     0.08   0.22   0.14
  24   7    -0.08  -0.05  -0.23    -0.00   0.38  -0.20    -0.01   0.14   0.10
  25   1     0.01   0.00  -0.09     0.00   0.15  -0.07     0.01   0.05   0.01
  26   1    -0.04  -0.03  -0.05     0.03   0.11  -0.05    -0.01   0.03   0.03
  27   7    -0.15  -0.15   0.10    -0.06  -0.41   0.22    -0.05   0.09   0.26
  28   1    -0.06  -0.04   0.02    -0.00  -0.06   0.03    -0.02   0.01   0.07
  29   1    -0.03  -0.02   0.03    -0.02  -0.12   0.05    -0.01   0.03   0.06
  30   6    -0.05   0.00   0.04    -0.07  -0.01   0.02     0.15  -0.03  -0.02
  31   8    -0.14   0.14  -0.14    -0.05   0.05   0.10     0.19  -0.24   0.01
  32   7     0.15  -0.31   0.51    -0.20   0.01  -0.07     0.29   0.04  -0.05
  33   1     0.04  -0.07   0.11    -0.06   0.00  -0.00     0.09   0.00  -0.01
  34   1     0.05  -0.09   0.14    -0.06  -0.01  -0.02     0.06   0.06  -0.03
  35   7    -0.15   0.14  -0.21     0.01  -0.08   0.01     0.01   0.11  -0.04
  36   1    -0.03   0.02   0.00    -0.00  -0.03  -0.02     0.01   0.06  -0.01
  37   1    -0.08   0.10  -0.12     0.03  -0.02   0.01    -0.02   0.01   0.00
  38   6     0.02  -0.00   0.04     0.07  -0.01   0.10     0.05  -0.03   0.04
  39   8    -0.01   0.01   0.06     0.14   0.07   0.12     0.10   0.13   0.09
  40   7     0.07   0.11   0.02     0.00  -0.17   0.12     0.10   0.06   0.01
  41   1     0.02   0.04   0.00     0.01  -0.04   0.04     0.04   0.06   0.01
  42   1     0.02   0.01   0.00    -0.00  -0.04   0.03     0.01  -0.03  -0.01
  43   7    -0.00  -0.11   0.04     0.08   0.02   0.11    -0.04  -0.31   0.03
  44   1     0.00  -0.03   0.01     0.01  -0.01   0.03    -0.01  -0.11  -0.01
  45   1     0.00  -0.02   0.01     0.02   0.02   0.02    -0.01  -0.07   0.01
  46   6     0.06   0.02   0.03     0.05   0.02  -0.03    -0.16  -0.02  -0.11
  47   8     0.03   0.15   0.03     0.12   0.02  -0.15    -0.18   0.06  -0.18
  48   7     0.17  -0.02   0.09    -0.02   0.01   0.01    -0.16  -0.10   0.04
  49   1     0.06   0.01   0.03    -0.00   0.00  -0.02    -0.03  -0.01   0.00
  50   1     0.06  -0.03   0.02    -0.02   0.01   0.02    -0.03  -0.04  -0.00
  51   7    -0.01  -0.07  -0.01     0.06   0.03   0.08    -0.19  -0.05  -0.22
  52   1     0.00  -0.04   0.00     0.00   0.01   0.04    -0.05  -0.04  -0.04
  53   1    -0.02  -0.01  -0.01     0.03   0.01   0.01    -0.07  -0.01  -0.06
                     13                     14                     15
                        a                      a                      a 
 Frequencies --    80.0968                89.1230                95.6010
 Red. masses --    13.5488                13.1645                13.0011
 Frc consts  --     0.0000                 0.0000                 0.0000
 IR Inten    --     5.6542                 3.5899                10.9038
 Raman Activ --     0.0000                 0.0000                 0.0000
 Depolar     --     0.0000                 0.0000                 0.0000
 Atom AN      X      Y      Z        X      Y      Z        X      Y      Z
   1   8    -0.19   0.03   0.06    -0.05  -0.10   0.07     0.14  -0.10  -0.04
   2   6    -0.03  -0.00  -0.07    -0.07   0.13   0.05     0.08   0.05  -0.02
   3   1    -0.02  -0.01  -0.04     0.03   0.08   0.01     0.04   0.03   0.01
   4   1    -0.01  -0.01  -0.04    -0.08   0.07   0.01     0.00   0.02  -0.01
   5   6     0.14   0.03   0.00    -0.06   0.02   0.07     0.03   0.07  -0.04
   6   1     0.05   0.03   0.02    -0.03  -0.02   0.03     0.01   0.02  -0.02
   7   1     0.07  -0.01  -0.01    -0.03   0.02   0.02     0.00   0.03  -0.01
   8   7     0.12   0.04   0.01     0.05  -0.04   0.04     0.03   0.10  -0.02
   9   6     0.12   0.04  -0.01     0.06  -0.04   0.03    -0.04   0.11   0.04
  10   1     0.04   0.02  -0.02     0.02  -0.01   0.01    -0.02   0.03   0.04
  11   1     0.02   0.02   0.00     0.02  -0.02   0.01     0.00   0.03   0.02
  12   1     0.05  -0.00   0.01     0.02  -0.01   0.01    -0.03   0.03  -0.00
  13   6     0.09   0.06  -0.01     0.09  -0.13   0.10     0.11   0.13   0.02
  14   1     0.03   0.02   0.01     0.04  -0.05   0.02     0.04   0.04   0.01
  15   1     0.02   0.00  -0.01     0.02  -0.04   0.05     0.03   0.04   0.02
  16   1     0.02   0.03  -0.01     0.03  -0.05   0.03     0.05   0.04  -0.01
  17   6     0.09   0.02   0.04     0.10  -0.00  -0.05     0.02   0.05  -0.07
  18   1     0.01  -0.00  -0.00     0.05  -0.01  -0.02     0.01   0.02  -0.01
  19   1     0.02  -0.00   0.03     0.03   0.00  -0.02     0.02   0.01  -0.03
  20   1     0.04   0.02   0.01     0.02   0.01  -0.03    -0.02   0.00  -0.02
  21   1    -0.04   0.01   0.00     0.02  -0.03   0.03     0.06  -0.03  -0.01
  22   6    -0.05   0.02   0.02    -0.10   0.11  -0.04     0.01   0.02  -0.05
  23   8    -0.08   0.02   0.01    -0.31   0.31  -0.25    -0.10   0.12  -0.16
  24   7    -0.03   0.11  -0.01    -0.05   0.11   0.27     0.05   0.05   0.10
  25   1    -0.01   0.04  -0.01    -0.05   0.08   0.09    -0.01   0.05   0.03
  26   1    -0.00   0.03   0.00     0.03   0.00   0.12     0.04   0.00   0.05
  27   7    -0.04  -0.07   0.06     0.05  -0.06  -0.10     0.09  -0.09  -0.06
  28   1    -0.01  -0.01   0.01     0.05  -0.07   0.02     0.04  -0.05   0.01
  29   1    -0.01  -0.02   0.01     0.00  -0.03  -0.06     0.02  -0.04  -0.04
  30   6     0.07  -0.06   0.13    -0.04  -0.01   0.02    -0.02  -0.04   0.04
  31   8     0.24  -0.17   0.48    -0.03   0.11   0.06     0.02  -0.04   0.15
  32   7     0.01  -0.10   0.14    -0.10  -0.14   0.13    -0.07  -0.06   0.04
  33   1    -0.01  -0.03   0.07    -0.06  -0.00   0.02    -0.03  -0.01   0.01
  34   1    -0.05   0.01  -0.04    -0.05  -0.03   0.00    -0.04  -0.01  -0.02
  35   7    -0.01   0.10  -0.24     0.02  -0.04  -0.10    -0.03  -0.02  -0.07
  36   1    -0.02   0.04  -0.12     0.00  -0.04  -0.03    -0.01  -0.00  -0.04
  37   1     0.03   0.03  -0.05     0.02   0.01  -0.04     0.01  -0.00  -0.02
  38   6    -0.10  -0.00  -0.11     0.14   0.04  -0.04    -0.06  -0.14   0.08
  39   8    -0.08  -0.25  -0.23     0.33   0.24  -0.05    -0.42  -0.27   0.21
  40   7    -0.06   0.13   0.07     0.05  -0.17   0.01     0.11   0.18  -0.21
  41   1    -0.01  -0.02   0.03     0.04  -0.02   0.02    -0.04   0.05  -0.09
  42   1    -0.04   0.06   0.04    -0.01  -0.06   0.01     0.08   0.03  -0.09
  43   7    -0.19   0.19  -0.18     0.05  -0.01  -0.08     0.17  -0.28   0.22
  44   1    -0.05   0.09  -0.02    -0.01  -0.03  -0.03     0.10  -0.07   0.04
  45   1    -0.05   0.03  -0.06     0.02   0.01  -0.04     0.04  -0.09   0.10
  46   6    -0.00  -0.04  -0.03    -0.02  -0.07  -0.04    -0.03   0.03  -0.03
  47   8     0.00   0.03  -0.10     0.01  -0.18  -0.06     0.02  -0.07  -0.09
  48   7     0.05  -0.04  -0.05    -0.15  -0.06  -0.04    -0.18   0.03   0.00
  49   1     0.02  -0.00  -0.02    -0.06  -0.04  -0.02    -0.06  -0.01  -0.02
  50   1     0.01  -0.03   0.01    -0.05   0.01  -0.01    -0.06   0.04  -0.00
  51   7    -0.06  -0.12   0.04     0.05   0.03  -0.03     0.04   0.13  -0.03
  52   1    -0.02  -0.04   0.02     0.01   0.03  -0.01    -0.00   0.04   0.02
  53   1    -0.02  -0.03   0.00     0.04   0.01  -0.01     0.02   0.03   0.01
                     16                     17                     18
                        a                      a                      a 
 Frequencies --   102.7768               106.7707               119.8733
 Red. masses --    13.2232                12.5315                12.2565
 Frc consts  --     0.0000                 0.0000                 0.0000
 IR Inten    --     6.4086                 3.8007                 9.0053
 Raman Activ --     0.0000                 0.0000                 0.0000
 Depolar     --     0.0000                 0.0000                 0.0000
 Atom AN      X      Y      Z        X      Y      Z        X      Y      Z
   1   8    -0.14   0.05   0.15     0.00   0.14  -0.18     0.14   0.02   0.00
   2   6    -0.05  -0.07   0.08     0.00   0.02  -0.14     0.09  -0.02   0.03
   3   1    -0.04  -0.04   0.01    -0.01  -0.00  -0.05     0.02  -0.01   0.02
   4   1     0.01  -0.03   0.02     0.01   0.01  -0.03     0.04  -0.01   0.01
   5   6     0.03  -0.04   0.11     0.03  -0.04  -0.12     0.07   0.00   0.02
   6   1     0.01  -0.01   0.04     0.00  -0.02  -0.02     0.02   0.00   0.00
   7   1     0.01  -0.01   0.02     0.01  -0.01  -0.04     0.02  -0.00   0.00
   8   7     0.08  -0.05   0.12     0.11  -0.04  -0.09     0.05   0.02   0.04
   9   6     0.01   0.01   0.13    -0.01  -0.02   0.03    -0.09   0.11   0.10
  10   1     0.00   0.01   0.06    -0.01  -0.00   0.04    -0.02   0.06   0.06
  11   1     0.01  -0.01   0.03     0.02  -0.01   0.02    -0.02   0.03   0.03
  12   1    -0.02   0.02   0.02    -0.04  -0.00  -0.01    -0.06   0.04   0.01
  13   6     0.18  -0.07   0.18     0.27  -0.00  -0.00     0.22   0.08   0.11
  14   1     0.05  -0.02   0.05     0.09   0.00   0.01     0.06   0.03   0.04
  15   1     0.05  -0.00   0.08     0.08   0.01   0.03     0.07   0.05   0.06
  16   1     0.07  -0.03   0.05     0.11  -0.01  -0.02     0.10   0.00   0.02
  17   6     0.10  -0.06   0.02     0.10  -0.09  -0.19     0.01  -0.10  -0.05
  18   1     0.04  -0.02   0.02     0.04  -0.02  -0.05    -0.00  -0.02  -0.01
  19   1     0.04  -0.02  -0.01     0.05  -0.03  -0.07     0.03  -0.05  -0.03
  20   1     0.01  -0.02  -0.00     0.00  -0.03  -0.06    -0.03  -0.04  -0.02
  21   1    -0.02   0.02  -0.02    -0.04   0.03  -0.02     0.03   0.01  -0.02
  22   6     0.11  -0.10   0.03     0.01   0.10   0.17    -0.12   0.05   0.06
  23   8     0.06  -0.23   0.11    -0.00   0.08   0.22    -0.14   0.03   0.09
  24   7     0.16   0.08  -0.05     0.01   0.16   0.16    -0.12   0.09   0.06
  25   1     0.04   0.02  -0.01     0.00   0.05   0.04    -0.04   0.02   0.02
  26   1     0.06   0.04  -0.03     0.01   0.06   0.03    -0.03   0.03   0.01
  27   7     0.14  -0.19   0.05    -0.01   0.11   0.20    -0.12   0.05   0.06
  28   1     0.05  -0.00  -0.01    -0.01   0.03   0.05    -0.02   0.03   0.01
  29   1     0.04  -0.04  -0.00    -0.00   0.03   0.06    -0.03   0.02   0.00
  30   6    -0.02   0.07  -0.02    -0.15  -0.12  -0.07    -0.02  -0.00  -0.05
  31   8    -0.06   0.22  -0.09    -0.18  -0.05  -0.09    -0.10  -0.05  -0.21
  32   7    -0.10   0.02   0.01    -0.24  -0.12  -0.12     0.10   0.02  -0.01
  33   1    -0.03   0.01   0.01    -0.07  -0.03  -0.03     0.04   0.01  -0.02
  34   1    -0.01  -0.03   0.03    -0.05  -0.05  -0.01     0.04   0.01   0.02
  35   7     0.09  -0.04   0.03    -0.08  -0.21  -0.02    -0.09   0.02   0.10
  36   1     0.02  -0.04   0.01    -0.02  -0.07  -0.01    -0.02   0.02   0.06
  37   1     0.03   0.01  -0.01    -0.01  -0.06  -0.00    -0.06   0.00   0.02
  38   6    -0.09   0.03  -0.07     0.04  -0.09  -0.02     0.05   0.06   0.04
  39   8    -0.05   0.18  -0.06     0.10  -0.18  -0.08    -0.07  -0.09   0.04
  40   7    -0.05   0.13  -0.10     0.11   0.05   0.10    -0.05  -0.14  -0.03
  41   1    -0.01   0.07  -0.03     0.04   0.00   0.04    -0.03  -0.06  -0.02
  42   1    -0.03  -0.02  -0.04     0.01   0.01   0.04     0.04   0.05   0.00
  43   7    -0.18  -0.19  -0.10    -0.06  -0.13  -0.08     0.22   0.37   0.10
  44   1    -0.05  -0.07  -0.04    -0.03  -0.02  -0.01     0.08   0.13   0.04
  45   1    -0.05  -0.03  -0.02    -0.01  -0.02  -0.04     0.05   0.05   0.04
  46   6    -0.04   0.07  -0.14    -0.02   0.11   0.08    -0.01  -0.13  -0.14
  47   8     0.05   0.18  -0.41    -0.09   0.16   0.20     0.01   0.04  -0.34
  48   7    -0.15  -0.02   0.07     0.10   0.12   0.05     0.04  -0.20  -0.05
  49   1    -0.02   0.01  -0.03     0.03   0.04   0.04     0.04  -0.03  -0.04
  50   1    -0.04  -0.01   0.03     0.04   0.02  -0.00     0.01  -0.09   0.02
  51   7    -0.07   0.05  -0.09    -0.06   0.06  -0.01    -0.12  -0.27  -0.03
  52   1    -0.05  -0.02   0.05    -0.00   0.00  -0.02    -0.04  -0.09   0.02
  53   1    -0.03   0.02  -0.03    -0.04   0.02   0.01    -0.02  -0.06  -0.04
                     19                     20                     21
                        a                      a                      a 
 Frequencies --   123.7133               130.8774               141.6208
 Red. masses --    12.7463                12.5722                11.5674
 Frc consts  --     0.0000                 0.0000                 0.0000
 IR Inten    --    12.7971                12.7088                 6.6592
 Raman Activ --     0.0000                 0.0000                 0.0000
 Depolar     --     0.0000                 0.0000                 0.0000
 Atom AN      X      Y      Z        X      Y      Z        X      Y      Z
   1   8     0.04  -0.02  -0.08     0.14   0.07   0.03    -0.07  -0.08   0.18
   2   6     0.03  -0.01  -0.07     0.04   0.15   0.09     0.11  -0.07  -0.00
   3   1     0.02   0.00  -0.03     0.04   0.07   0.03     0.02  -0.03  -0.02
   4   1    -0.00   0.01  -0.01    -0.02   0.06   0.03     0.03  -0.03  -0.03
   5   6     0.05  -0.11  -0.05    -0.06   0.07   0.06     0.31  -0.02   0.07
   6   1     0.01  -0.03   0.00    -0.03   0.01   0.01     0.11   0.04   0.05
   7   1     0.02  -0.04  -0.01    -0.04   0.03   0.03     0.13  -0.04   0.01
   8   7     0.07  -0.17  -0.14    -0.02   0.01  -0.02     0.20  -0.01   0.04
   9   6     0.03  -0.09  -0.17     0.03   0.02  -0.09     0.30   0.01  -0.12
  10   1     0.01  -0.01  -0.03     0.00   0.00  -0.02     0.11   0.01  -0.10
  11   1     0.01  -0.04  -0.06     0.01  -0.01  -0.04     0.03   0.02  -0.04
  12   1     0.00  -0.02  -0.06     0.01   0.02  -0.03     0.13  -0.02   0.00
  13   6     0.10  -0.27  -0.07    -0.07  -0.11   0.00    -0.01  -0.00  -0.09
  14   1     0.03  -0.09  -0.04    -0.02  -0.05  -0.02    -0.01   0.01  -0.02
  15   1     0.03  -0.07   0.00    -0.02  -0.04   0.00    -0.01  -0.03  -0.07
  16   1     0.03  -0.09  -0.00    -0.03  -0.04   0.02    -0.04   0.03  -0.01
  17   6     0.08  -0.17  -0.19     0.03   0.06  -0.05     0.11  -0.04   0.23
  18   1     0.03  -0.05  -0.06     0.02   0.01  -0.01    -0.02  -0.04   0.02
  19   1     0.03  -0.05  -0.06     0.00   0.03  -0.02    -0.00  -0.03   0.14
  20   1     0.02  -0.04  -0.06     0.01   0.02  -0.02     0.09   0.03   0.08
  21   1     0.01  -0.01  -0.01     0.02   0.02   0.03    -0.00  -0.02   0.02
  22   6    -0.14  -0.01   0.09     0.19   0.02   0.02    -0.03   0.10   0.00
  23   8    -0.21  -0.16   0.21     0.34   0.09   0.01     0.10   0.23  -0.04
  24   7    -0.12   0.11   0.08     0.15  -0.10  -0.07    -0.09  -0.06  -0.03
  25   1    -0.04   0.01   0.04     0.07  -0.02  -0.05    -0.00  -0.01  -0.03
  26   1    -0.01   0.06  -0.00     0.01  -0.03  -0.02    -0.05  -0.03  -0.01
  27   7    -0.10   0.08  -0.01     0.09   0.05   0.13    -0.12   0.15   0.10
  28   1    -0.01   0.05  -0.02    -0.01  -0.01   0.04    -0.06  -0.01   0.05
  29   1    -0.03  -0.00   0.01     0.03   0.02   0.05    -0.03   0.04   0.03
  30   6     0.11   0.13   0.04    -0.07  -0.03   0.00    -0.14  -0.08  -0.08
  31   8     0.14   0.21   0.09     0.00   0.17   0.19    -0.20  -0.06  -0.18
  32   7     0.03   0.09   0.05    -0.33  -0.08  -0.06    -0.09  -0.09  -0.04
  33   1    -0.01   0.03   0.04    -0.10  -0.03   0.01    -0.02  -0.02  -0.03
  34   1     0.00   0.00   0.00    -0.09  -0.06  -0.02    -0.01  -0.03   0.02
  35   7     0.19   0.09  -0.03     0.14  -0.17  -0.16    -0.15  -0.11   0.02
  36   1     0.05   0.00  -0.02     0.02  -0.10  -0.08    -0.03  -0.03   0.03
  37   1     0.07   0.03  -0.01     0.10  -0.03  -0.04    -0.06  -0.03  -0.00
  38   6    -0.12   0.11   0.02    -0.01   0.08   0.03    -0.11   0.06  -0.01
  39   8    -0.25   0.21   0.11    -0.08   0.07   0.07    -0.16   0.15   0.03
  40   7    -0.15   0.05  -0.18    -0.07  -0.05  -0.06    -0.11   0.08  -0.12
  41   1    -0.07   0.04  -0.07    -0.03  -0.01  -0.02    -0.05   0.04  -0.04
  42   1    -0.00   0.01  -0.07     0.01   0.02  -0.02    -0.02  -0.01  -0.05
  43   7     0.00   0.05   0.10     0.11   0.20   0.09    -0.08  -0.03   0.02
  44   1     0.02  -0.00   0.01     0.04   0.06   0.02    -0.01  -0.02  -0.01
  45   1    -0.00   0.01   0.05     0.02   0.03   0.03    -0.02   0.00   0.02
  46   6     0.04  -0.03   0.06    -0.12  -0.11  -0.04     0.06  -0.03   0.00
  47   8     0.01  -0.09   0.17    -0.21  -0.05   0.04     0.09  -0.10  -0.02
  48   7     0.05   0.01  -0.01    -0.01  -0.11  -0.09    -0.02  -0.01  -0.01
  49   1     0.01  -0.01   0.01    -0.00  -0.02   0.00    -0.01  -0.01  -0.02
  50   1     0.02   0.01  -0.02     0.00  -0.05  -0.02    -0.01   0.02  -0.01
  51   7     0.07   0.01   0.04    -0.20  -0.19  -0.09     0.11   0.03   0.04
  52   1     0.03   0.02  -0.01    -0.03  -0.05  -0.06     0.02   0.02   0.02
  53   1     0.02  -0.00   0.02    -0.06  -0.05  -0.03     0.04   0.00   0.02
                     22                     23                     24
                        a                      a                      a 
 Frequencies --   147.4317               152.0855               158.2534
 Red. masses --    12.2811                11.5179                10.2890
 Frc consts  --     0.0000                 0.0000                 0.0000
 IR Inten    --    26.8221                18.4467                 4.2691
 Raman Activ --     0.0000                 0.0000                 0.0000
 Depolar     --     0.0000                 0.0000                 0.0000
 Atom AN      X      Y      Z        X      Y      Z        X      Y      Z
   1   8     0.11   0.13   0.12    -0.01  -0.11   0.06     0.03   0.03  -0.21
   2   6     0.10   0.25   0.07    -0.08   0.32   0.04    -0.09  -0.01  -0.07
   3   1     0.06   0.10   0.02     0.06   0.16   0.03    -0.03  -0.01  -0.00
   4   1    -0.01   0.09   0.02    -0.12   0.14  -0.01    -0.01  -0.01  -0.00
   5   6     0.12   0.15   0.09    -0.15   0.19   0.03    -0.24  -0.02  -0.12
   6   1     0.04   0.05   0.04    -0.07   0.02   0.01    -0.12  -0.09  -0.07
   7   1     0.04   0.03   0.04    -0.07   0.07   0.02    -0.13   0.08  -0.04
   8   7     0.11   0.08  -0.03     0.01   0.11  -0.05     0.09  -0.00   0.04
   9   6     0.16   0.13  -0.16     0.04   0.09  -0.06     0.25  -0.28   0.18
  10   1     0.06   0.05  -0.08     0.00   0.01  -0.01     0.01  -0.16   0.08
  11   1     0.01   0.04  -0.06     0.03   0.02  -0.02     0.17  -0.11   0.06
  12   1     0.07   0.03  -0.03     0.01   0.03  -0.02     0.07  -0.04   0.03
  13   6     0.02  -0.05  -0.03     0.06  -0.06   0.05     0.03  -0.01   0.02
  14   1     0.01  -0.03  -0.03     0.04  -0.04  -0.01     0.04   0.00   0.02
  15   1     0.00  -0.02  -0.01     0.00  -0.02   0.05    -0.01  -0.04   0.00
  16   1    -0.01  -0.02   0.02     0.02  -0.03   0.03    -0.01   0.03  -0.01
  17   6     0.06   0.02  -0.02     0.08   0.15  -0.18     0.25   0.29   0.09
  18   1    -0.00  -0.02  -0.04     0.05   0.04  -0.04     0.13   0.13   0.09
  19   1     0.01  -0.01   0.03     0.03   0.05  -0.07     0.06   0.15  -0.05
  20   1     0.03   0.03  -0.01     0.00   0.04  -0.06     0.06   0.04   0.04
  21   1     0.02   0.03   0.06     0.07  -0.04   0.03    -0.02   0.01  -0.04
  22   6     0.04  -0.13  -0.02    -0.05  -0.03   0.09     0.01  -0.02   0.00
  23   8    -0.17  -0.27   0.01     0.10  -0.20   0.29    -0.03  -0.05   0.01
  24   7     0.14   0.10   0.09    -0.11  -0.06  -0.14     0.02   0.02   0.01
  25   1    -0.00   0.03   0.06    -0.00  -0.07  -0.05    -0.00   0.01   0.01
  26   1     0.09   0.04   0.02    -0.07   0.01  -0.08     0.01   0.01   0.00
  27   7     0.20  -0.19  -0.16    -0.15   0.19   0.08     0.03  -0.05  -0.02
  28   1     0.09  -0.01  -0.05    -0.06   0.07   0.00     0.02   0.01  -0.01
  29   1     0.04  -0.08  -0.04    -0.04   0.03   0.05     0.01  -0.01  -0.01
  30   6    -0.03  -0.02  -0.03    -0.02  -0.06   0.00    -0.02  -0.11   0.01
  31   8    -0.10  -0.13  -0.17    -0.01  -0.12   0.03    -0.01  -0.28   0.05
  32   7     0.13   0.03  -0.01    -0.01   0.01  -0.07     0.08  -0.03  -0.03
  33   1     0.05  -0.00  -0.01     0.02  -0.03   0.01     0.03  -0.02  -0.02
  34   1     0.05   0.02   0.02     0.01  -0.01   0.01     0.01   0.03  -0.02
  35   7    -0.16   0.05   0.13    -0.07  -0.02   0.02    -0.17  -0.01   0.05
  36   1    -0.03   0.05   0.06    -0.02   0.01  -0.00    -0.04   0.05   0.00
  37   1    -0.09   0.00   0.03    -0.02  -0.02   0.01    -0.07  -0.02   0.02
  38   6    -0.05  -0.01  -0.01     0.01  -0.05  -0.01    -0.04   0.11   0.02
  39   8    -0.03  -0.04  -0.04     0.06  -0.05  -0.03    -0.09   0.23   0.08
  40   7    -0.03   0.05   0.06     0.05   0.02   0.06    -0.09   0.01  -0.13
  41   1    -0.01  -0.02   0.02     0.02  -0.01   0.02    -0.04   0.04  -0.05
  42   1    -0.04  -0.02   0.02    -0.01  -0.03   0.01     0.01   0.01  -0.05
  43   7    -0.09   0.02  -0.04    -0.04  -0.08  -0.03     0.04   0.08   0.07
  44   1    -0.03   0.02  -0.00    -0.02  -0.03  -0.01     0.02   0.00   0.01
  45   1    -0.03   0.01  -0.01    -0.01  -0.02  -0.02     0.01   0.01   0.02
  46   6    -0.12  -0.05   0.05     0.09  -0.08  -0.05    -0.02   0.02  -0.01
  47   8    -0.23  -0.10   0.25     0.20  -0.23  -0.18    -0.04   0.09  -0.02
  48   7    -0.05  -0.00  -0.09    -0.17  -0.05  -0.04     0.06  -0.00   0.02
  49   1    -0.04  -0.02   0.04    -0.06  -0.04  -0.07     0.03   0.01   0.01
  50   1    -0.01  -0.01  -0.01    -0.06   0.04  -0.01     0.02  -0.02   0.01
  51   7    -0.14  -0.06  -0.08     0.21   0.07   0.08    -0.06  -0.03  -0.03
  52   1    -0.01   0.00  -0.09     0.03   0.05   0.06    -0.01  -0.02  -0.01
  53   1    -0.05  -0.02  -0.02     0.09   0.01   0.03    -0.03  -0.01  -0.01
                     25                     26                     27
                        a                      a                      a 
 Frequencies --   189.3030               221.1102               235.5526
 Red. masses --    12.2590                 2.8760                 2.6779
 Frc consts  --     0.0000                 0.0000                 0.0000
 IR Inten    --    31.8472               165.4049               121.9160
 Raman Activ --     0.0000                 0.0000                 0.0000
 Depolar     --     0.0000                 0.0000                 0.0000
 Atom AN      X      Y      Z        X      Y      Z        X      Y      Z
   1   8     0.56   0.17  -0.16    -0.07  -0.01   0.00    -0.03   0.01   0.01
   2   6     0.28  -0.06   0.11    -0.04  -0.02  -0.02    -0.02   0.01  -0.01
   3   1     0.05  -0.05   0.06    -0.01  -0.01  -0.01    -0.00   0.00  -0.01
   4   1     0.13  -0.03   0.09    -0.01  -0.01  -0.01    -0.01   0.00  -0.00
   5   6    -0.04  -0.07  -0.02    -0.01  -0.01  -0.01     0.00   0.00  -0.00
   6   1    -0.03  -0.06  -0.07    -0.00   0.00   0.01     0.00   0.00   0.00
   7   1    -0.07   0.02   0.02     0.00  -0.01  -0.01     0.00  -0.00  -0.00
   8   7    -0.03  -0.04   0.04    -0.01  -0.01  -0.00     0.00   0.00  -0.01
   9   6    -0.05  -0.06   0.10    -0.01  -0.01   0.00     0.01  -0.01  -0.01
  10   1    -0.04  -0.03   0.08     0.00  -0.00  -0.01     0.00  -0.00   0.00
  11   1     0.04  -0.04   0.02    -0.01   0.00   0.01     0.00  -0.00  -0.00
  12   1    -0.04   0.02  -0.01     0.00  -0.01   0.01    -0.00  -0.00  -0.00
  13   6     0.01   0.03   0.04     0.00  -0.00   0.00    -0.01  -0.00  -0.01
  14   1    -0.04   0.01   0.00     0.00   0.00   0.00    -0.01  -0.00  -0.01
  15   1     0.03   0.05   0.01     0.00   0.00   0.00     0.00   0.01  -0.01
  16   1     0.03  -0.02   0.02     0.00  -0.00  -0.00    -0.00  -0.00   0.00
  17   6    -0.02  -0.02   0.06    -0.00  -0.01  -0.01    -0.00   0.00  -0.00
  18   1     0.01   0.04   0.07     0.00  -0.00  -0.00    -0.00  -0.00  -0.00
  19   1     0.02   0.01  -0.05    -0.00  -0.00   0.00    -0.00  -0.00   0.00
  20   1    -0.04  -0.06   0.03     0.00   0.00  -0.00     0.00   0.00  -0.00
  21   1     0.11   0.05  -0.05    -0.02  -0.00  -0.00    -0.02   0.00   0.01
  22   6    -0.02   0.04  -0.02    -0.00   0.01   0.00     0.00  -0.01  -0.00
  23   8    -0.00   0.10  -0.06     0.01   0.01   0.01    -0.01  -0.01  -0.01
  24   7    -0.03  -0.02   0.02    -0.01  -0.01  -0.00     0.01   0.01  -0.00
  25   1    -0.01   0.01  -0.00     0.00  -0.00  -0.00    -0.00   0.00   0.00
  26   1    -0.01  -0.01   0.01    -0.01   0.00  -0.01     0.01  -0.00   0.01
  27   7    -0.03   0.03   0.00    -0.01  -0.00   0.02     0.01   0.00  -0.02
  28   1    -0.01  -0.02   0.02    -0.00   0.02  -0.01     0.00  -0.02   0.01
  29   1    -0.01  -0.00   0.00     0.00   0.02  -0.01    -0.00  -0.01   0.01
  30   6     0.00   0.01   0.00     0.00   0.00  -0.00    -0.00   0.00  -0.00
  31   8     0.01   0.02   0.01     0.00   0.01   0.00    -0.00   0.00  -0.00
  32   7    -0.01  -0.00   0.01    -0.00  -0.00   0.00     0.00  -0.00   0.00
  33   1    -0.01   0.01  -0.01    -0.00   0.00   0.00    -0.00   0.00  -0.00
  34   1    -0.01   0.00  -0.01    -0.00  -0.00  -0.00    -0.00   0.00  -0.00
  35   7     0.02  -0.01  -0.01     0.01  -0.00  -0.00    -0.00  -0.00   0.00
  36   1     0.00  -0.01  -0.00     0.00  -0.00  -0.01    -0.00   0.00   0.00
  37   1     0.01  -0.00  -0.00     0.00   0.00  -0.00    -0.00   0.00  -0.00
  38   6    -0.17   0.02  -0.03    -0.01  -0.07   0.01     0.01  -0.03  -0.00
  39   8    -0.03   0.03  -0.11     0.01   0.03   0.04     0.01   0.00   0.01
  40   7    -0.13   0.15   0.18     0.15   0.24   0.00     0.10   0.14  -0.00
  41   1    -0.03  -0.03   0.06    -0.17  -0.32  -0.07    -0.11  -0.23  -0.05
  42   1    -0.13  -0.08   0.05    -0.26  -0.59  -0.12    -0.17  -0.39  -0.08
  43   7    -0.32  -0.02  -0.12     0.06   0.03   0.01     0.06   0.07   0.01
  44   1    -0.11  -0.00  -0.02     0.05   0.09   0.05     0.03   0.05   0.02
  45   1    -0.08   0.03  -0.06     0.02   0.04   0.03     0.02   0.03   0.01
  46   6     0.02  -0.08  -0.02     0.00   0.00  -0.00    -0.01   0.00  -0.02
  47   8     0.05  -0.18  -0.02     0.01   0.03  -0.05    -0.04   0.00   0.05
  48   7    -0.13  -0.05  -0.05     0.06   0.05  -0.14    -0.06  -0.09   0.25
  49   1    -0.06  -0.04  -0.04    -0.08  -0.08   0.24     0.15   0.14  -0.38
  50   1    -0.05   0.03  -0.02    -0.10  -0.13   0.32     0.18   0.19  -0.53
  51   7     0.09   0.01   0.02    -0.04  -0.04   0.10    -0.00   0.00  -0.07
  52   1     0.02   0.03   0.00     0.08   0.08  -0.18    -0.09  -0.09   0.20
  53   1     0.04  -0.00   0.02     0.06   0.05  -0.14    -0.06  -0.06   0.13
                     28                     29                     30
                        a                      a                      a 
 Frequencies --   260.8309               264.8063               291.5515
 Red. masses --    12.7502                 5.2051                 5.4013
 Frc consts  --     0.0000                 0.0000                 0.0000
 IR Inten    --     3.1148                 3.4141                 5.2413
 Raman Activ --     0.0000                 0.0000                 0.0000
 Depolar     --     0.0000                 0.0000                 0.0000
 Atom AN      X      Y      Z        X      Y      Z        X      Y      Z
   1   8     0.21  -0.68   0.19    -0.16   0.12   0.13    -0.12   0.03   0.14
   2   6     0.14  -0.08   0.08    -0.01  -0.31   0.09     0.02   0.32  -0.06
   3   1     0.11   0.05   0.09    -0.14  -0.21   0.05     0.11   0.18  -0.07
   4   1    -0.04   0.01  -0.03     0.16  -0.19  -0.00    -0.13   0.17  -0.01
   5   6    -0.02   0.04  -0.03    -0.01   0.09   0.01     0.11  -0.06   0.01
   6   1    -0.02  -0.02  -0.05    -0.00   0.02  -0.04     0.04  -0.00   0.02
   7   1    -0.04   0.04   0.01    -0.02   0.05  -0.00     0.04  -0.05   0.03
   8   7    -0.00   0.04  -0.07     0.00   0.11  -0.02     0.03  -0.11  -0.06
   9   6     0.00   0.03  -0.07     0.05   0.20  -0.19     0.01  -0.24   0.13
  10   1     0.02   0.01  -0.05    -0.03   0.04   0.06    -0.07  -0.13   0.15
  11   1    -0.03   0.03  -0.01     0.10  -0.04  -0.14     0.15  -0.12   0.04
  12   1     0.01  -0.02   0.00    -0.01   0.18  -0.13    -0.05   0.01  -0.03
  13   6    -0.01  -0.03  -0.05    -0.02  -0.15   0.05    -0.02   0.21  -0.20
  14   1    -0.04  -0.02  -0.05    -0.21  -0.11  -0.14    -0.29   0.08  -0.14
  15   1     0.02   0.03  -0.02     0.10   0.16   0.03     0.14   0.29  -0.12
  16   1     0.01  -0.05   0.02     0.08  -0.25   0.18     0.10  -0.13   0.05
  17   6     0.04   0.07  -0.13     0.07   0.16  -0.08    -0.06  -0.19   0.09
  18   1     0.04   0.08   0.04     0.08   0.21   0.17    -0.02   0.11   0.20
  19   1     0.05   0.04  -0.13     0.11   0.11  -0.26     0.08  -0.03  -0.16
  20   1    -0.05  -0.05  -0.03    -0.11  -0.15   0.01    -0.13  -0.24   0.06
  21   1     0.10  -0.19   0.09    -0.06   0.05  -0.05     0.02  -0.00   0.05
  22   6    -0.01   0.02  -0.00    -0.01   0.02  -0.00     0.01   0.00   0.00
  23   8    -0.02   0.03  -0.02    -0.00   0.04  -0.02     0.01  -0.01   0.00
  24   7    -0.01   0.02   0.03    -0.01   0.00   0.01     0.01  -0.01  -0.03
  25   1    -0.01   0.01   0.01    -0.00   0.01   0.00     0.00  -0.02   0.00
  26   1     0.00  -0.00   0.02    -0.00  -0.00   0.01    -0.01  -0.02   0.01
  27   7    -0.01  -0.03   0.02    -0.01   0.02   0.00     0.01  -0.01   0.00
  28   1     0.00   0.03  -0.02    -0.01  -0.02   0.01     0.01   0.02  -0.01
  29   1     0.01   0.03  -0.01    -0.01  -0.01   0.01     0.01   0.00  -0.00
  30   6    -0.01  -0.01  -0.01    -0.00  -0.01  -0.00     0.01   0.02  -0.00
  31   8    -0.01  -0.00  -0.01    -0.01  -0.02  -0.01     0.00   0.02  -0.01
  32   7    -0.01  -0.01  -0.00    -0.00  -0.01   0.00    -0.01   0.01  -0.00
  33   1    -0.00  -0.00  -0.00    -0.00  -0.00  -0.00     0.00  -0.01   0.01
  34   1    -0.00   0.00  -0.00     0.01  -0.01   0.01     0.02  -0.03   0.03
  35   7    -0.01  -0.01   0.01    -0.04  -0.00   0.03     0.01   0.00   0.02
  36   1    -0.01   0.00  -0.01    -0.01   0.03  -0.01    -0.00   0.02  -0.03
  37   1    -0.01  -0.00  -0.00    -0.02   0.00  -0.00    -0.00   0.02  -0.01
  38   6    -0.06   0.03  -0.01     0.04  -0.02  -0.00     0.00   0.00   0.00
  39   8    -0.00   0.02  -0.05     0.02  -0.04   0.01    -0.00   0.00   0.00
  40   7    -0.08   0.02   0.10     0.05  -0.01  -0.01    -0.00  -0.00  -0.03
  41   1    -0.00  -0.01   0.04     0.01  -0.01  -0.01    -0.00   0.01  -0.01
  42   1    -0.06  -0.01   0.04     0.02   0.01  -0.00     0.01   0.01  -0.01
  43   7    -0.10   0.04  -0.04     0.05  -0.01   0.01     0.01   0.01   0.01
  44   1    -0.00   0.04  -0.00     0.01  -0.00   0.00     0.01   0.01   0.00
  45   1    -0.03  -0.04  -0.01     0.01   0.01   0.01    -0.00  -0.01   0.01
  46   6    -0.04   0.16  -0.00     0.00  -0.04   0.02    -0.00  -0.00  -0.01
  47   8    -0.03   0.25  -0.05    -0.01  -0.07   0.06    -0.00  -0.00  -0.01
  48   7     0.16   0.09   0.13    -0.02  -0.01  -0.04    -0.01  -0.01  -0.01
  49   1     0.09   0.07   0.05    -0.02  -0.02   0.01    -0.00  -0.00   0.00
  50   1     0.07  -0.03   0.03    -0.01   0.00   0.00    -0.01  -0.01   0.01
  51   7    -0.14   0.03  -0.01     0.04   0.00  -0.00    -0.00  -0.01  -0.00
  52   1    -0.02  -0.02  -0.01     0.00   0.00   0.01     0.00   0.00  -0.00
  53   1    -0.05   0.02  -0.04     0.01  -0.01   0.02     0.00  -0.00  -0.00
                     31                     32                     33
                        a                      a                      a 
 Frequencies --   309.3914               328.2906               334.9515
 Red. masses --     6.6379                 2.8746                 2.9463
 Frc consts  --     0.0000                 0.0000                 0.0000
 IR Inten    --     7.9413                53.9062                77.0932
 Raman Activ --     0.0000                 0.0000                 0.0000
 Depolar     --     0.0000                 0.0000                 0.0000
 Atom AN      X      Y      Z        X      Y      Z        X      Y      Z
   1   8    -0.08   0.17   0.37    -0.03   0.02   0.14    -0.02  -0.01   0.12
   2   6     0.14  -0.07   0.16     0.05  -0.02   0.05     0.07  -0.04   0.03
   3   1    -0.02  -0.07   0.03    -0.01  -0.02   0.01     0.01  -0.02   0.00
   4   1     0.11  -0.06   0.03     0.03  -0.02   0.00     0.03  -0.02  -0.00
   5   6     0.05   0.01   0.04    -0.01   0.03  -0.01     0.03   0.02  -0.01
   6   1     0.02   0.01  -0.02    -0.01  -0.01  -0.03     0.02   0.01  -0.02
   7   1    -0.01  -0.01   0.04    -0.03   0.02   0.01     0.01  -0.00   0.01
   8   7    -0.03  -0.04  -0.12    -0.00   0.02  -0.04    -0.03   0.03  -0.04
   9   6    -0.07  -0.16   0.07     0.02  -0.06   0.03    -0.02  -0.09   0.09
  10   1    -0.01  -0.06  -0.02    -0.03  -0.05   0.06    -0.08  -0.09   0.14
  11   1    -0.03   0.01   0.09     0.08  -0.05   0.01     0.14  -0.09   0.01
  12   1    -0.03  -0.12   0.05    -0.02   0.02  -0.02    -0.06   0.06  -0.04
  13   6    -0.07   0.12  -0.21    -0.00   0.06  -0.06    -0.05   0.03  -0.05
  14   1     0.23   0.10   0.12    -0.03   0.02  -0.02    -0.09  -0.00  -0.06
  15   1    -0.16  -0.23  -0.09     0.02   0.04  -0.03     0.03   0.08  -0.02
  16   1    -0.14   0.29  -0.24     0.01   0.00  -0.01     0.01  -0.05   0.03
  17   6     0.07   0.03  -0.29     0.01   0.01  -0.09     0.01   0.07  -0.13
  18   1     0.10   0.12   0.07    -0.00  -0.03  -0.07    -0.01  -0.13  -0.20
  19   1     0.10   0.05  -0.28    -0.01  -0.01   0.02    -0.07  -0.02   0.14
  20   1    -0.11  -0.13  -0.08     0.02   0.04  -0.04     0.10   0.20  -0.08
  21   1    -0.03   0.05   0.06    -0.00   0.01   0.01     0.02   0.00   0.00
  22   6    -0.01   0.01   0.00     0.00  -0.02   0.00    -0.00  -0.02  -0.02
  23   8    -0.01   0.01   0.00     0.01  -0.03   0.02    -0.00  -0.02  -0.01
  24   7    -0.01   0.01   0.02    -0.01  -0.02   0.02    -0.08  -0.15   0.19
  25   1    -0.00   0.01   0.01     0.01   0.03  -0.02     0.09   0.21  -0.15
  26   1     0.01   0.01   0.00     0.02   0.06  -0.06     0.15   0.42  -0.39
  27   7    -0.01   0.01   0.01    -0.00   0.03  -0.01     0.01   0.08  -0.06
  28   1    -0.00  -0.01   0.01    -0.01  -0.05   0.03    -0.05  -0.30   0.16
  29   1    -0.00   0.00  -0.00    -0.01  -0.01   0.01    -0.02  -0.07   0.03
  30   6     0.01  -0.01  -0.00    -0.04  -0.01   0.01     0.01  -0.01   0.00
  31   8     0.00  -0.00  -0.00    -0.03  -0.02   0.01     0.01   0.00   0.00
  32   7    -0.02   0.00  -0.01     0.06  -0.05   0.07    -0.02   0.03  -0.03
  33   1     0.00  -0.01   0.01    -0.04   0.06  -0.05     0.02  -0.03   0.02
  34   1     0.03  -0.04   0.04    -0.19   0.24  -0.28     0.08  -0.08   0.11
  35   7    -0.02  -0.01   0.03    -0.03   0.17  -0.23     0.00  -0.03   0.04
  36   1    -0.02   0.05  -0.06     0.14  -0.42   0.60    -0.03   0.10  -0.13
  37   1    -0.02   0.02  -0.02     0.04  -0.18   0.18    -0.01   0.04  -0.05
  38   6     0.01   0.00   0.00     0.00   0.00   0.00     0.00   0.00  -0.00
  39   8     0.02   0.02   0.00     0.00   0.00   0.00     0.01   0.01  -0.01
  40   7     0.01  -0.00  -0.02     0.00   0.00  -0.01    -0.00  -0.00   0.00
  41   1     0.00   0.01  -0.01    -0.00   0.00  -0.00     0.00   0.00   0.00
  42   1     0.01  -0.00  -0.01     0.00  -0.00  -0.00    -0.00  -0.00   0.00
  43   7     0.01  -0.01   0.00     0.00  -0.00   0.00    -0.01   0.00  -0.01
  44   1     0.00  -0.00   0.00     0.00   0.00   0.00     0.01   0.01   0.00
  45   1     0.00   0.02   0.01    -0.00   0.00   0.00    -0.00  -0.01   0.00
  46   6     0.01  -0.03  -0.00     0.00  -0.00  -0.00    -0.00   0.01  -0.00
  47   8     0.00  -0.03   0.00     0.00  -0.00  -0.00     0.00   0.02  -0.01
  48   7    -0.04  -0.02  -0.02    -0.00  -0.00  -0.00     0.02   0.00   0.01
  49   1    -0.02  -0.02  -0.01    -0.00  -0.00   0.00     0.00   0.00   0.01
  50   1    -0.02   0.01  -0.01    -0.00  -0.00   0.00     0.00  -0.01   0.01
  51   7     0.02  -0.02   0.00     0.00  -0.00   0.00    -0.01  -0.00  -0.00
  52   1     0.00   0.00  -0.00     0.00   0.00  -0.01    -0.00  -0.00  -0.00
  53   1     0.01  -0.01   0.00     0.00  -0.00  -0.00    -0.01  -0.00   0.00
                     34                     35                     36
                        a                      a                      a 
 Frequencies --   340.7582               356.4444               375.1829
 Red. masses --     3.5842                 2.4348                 7.7841
 Frc consts  --     0.0000                 0.0000                 0.0000
 IR Inten    --    19.1227                 5.0547                 9.6298
 Raman Activ --     0.0000                 0.0000                 0.0000
 Depolar     --     0.0000                 0.0000                 0.0000
 Atom AN      X      Y      Z        X      Y      Z        X      Y      Z
   1   8     0.02  -0.01  -0.18     0.00  -0.14  -0.10     0.02  -0.00  -0.15
   2   6    -0.11   0.09  -0.05    -0.05   0.03  -0.05     0.07   0.06  -0.19
   3   1     0.00   0.05  -0.01     0.02   0.04  -0.01     0.06   0.05  -0.10
   4   1    -0.07   0.05   0.00    -0.05   0.03  -0.02    -0.04   0.05  -0.05
   5   6    -0.06  -0.04   0.01     0.09   0.03   0.04     0.34  -0.04   0.02
   6   1    -0.03  -0.03   0.04     0.04   0.04   0.06     0.17   0.12   0.08
   7   1    -0.01   0.00  -0.02     0.07  -0.03  -0.01     0.21  -0.12  -0.01
   8   7     0.04  -0.05   0.06     0.02   0.04   0.06     0.02   0.01   0.05
   9   6     0.02   0.12  -0.12     0.04   0.13  -0.06    -0.25   0.07   0.30
  10   1     0.11   0.12  -0.20    -0.17  -0.06   0.35    -0.05   0.07   0.11
  11   1    -0.19   0.12  -0.02     0.36  -0.22  -0.19    -0.10   0.08   0.15
  12   1     0.08  -0.08   0.06    -0.12   0.39  -0.26    -0.15  -0.06   0.08
  13   6     0.06  -0.03   0.07    -0.05  -0.04   0.06    -0.27  -0.30   0.02
  14   1     0.10   0.01   0.07     0.22   0.00   0.12    -0.08  -0.15  -0.07
  15   1    -0.03  -0.09   0.03    -0.14  -0.24   0.03    -0.08  -0.11  -0.02
  16   1    -0.01   0.06  -0.04    -0.13   0.19  -0.10    -0.16  -0.09   0.10
  17   6    -0.02  -0.12   0.20    -0.08  -0.11   0.09     0.17   0.23  -0.03
  18   1     0.00   0.18   0.29    -0.04   0.02   0.08     0.14   0.09   0.05
  19   1     0.10   0.02  -0.20     0.02  -0.05  -0.03     0.05   0.12  -0.09
  20   1    -0.14  -0.29   0.12    -0.07  -0.10   0.04     0.01   0.04  -0.02
  21   1     0.01  -0.01  -0.01     0.05  -0.03  -0.07    -0.01  -0.01   0.00
  22   6     0.02   0.00  -0.02     0.00   0.00   0.00    -0.01  -0.01  -0.00
  23   8     0.01  -0.00  -0.01    -0.00   0.00  -0.00    -0.01  -0.01   0.00
  24   7    -0.05  -0.15   0.11     0.00  -0.01  -0.01    -0.00   0.01   0.01
  25   1     0.08   0.14  -0.13     0.00  -0.00  -0.01    -0.00  -0.00   0.01
  26   1     0.10   0.31  -0.31    -0.01  -0.01   0.00     0.01   0.01  -0.00
  27   7     0.02   0.04  -0.04     0.01   0.01  -0.01    -0.00  -0.00  -0.01
  28   1    -0.03  -0.21   0.11     0.00  -0.01   0.00    -0.00  -0.01   0.00
  29   1    -0.01  -0.04   0.01    -0.00  -0.01   0.01    -0.00  -0.00   0.00
  30   6     0.01   0.00   0.01     0.00   0.01   0.00     0.01  -0.03  -0.01
  31   8     0.01  -0.00   0.01     0.00   0.00  -0.00     0.01  -0.01  -0.00
  32   7    -0.00   0.00   0.00    -0.01   0.00   0.00    -0.03  -0.02  -0.03
  33   1    -0.00  -0.00   0.00    -0.00  -0.00   0.00    -0.00  -0.01  -0.00
  34   1    -0.01   0.01  -0.01     0.00  -0.01   0.00     0.01  -0.03   0.02
  35   7    -0.00   0.05  -0.03     0.00   0.01  -0.00    -0.06   0.03  -0.01
  36   1     0.02  -0.06   0.10     0.00  -0.01   0.02     0.01  -0.04   0.12
  37   1    -0.00  -0.02   0.03    -0.00  -0.00   0.00    -0.05  -0.03   0.02
  38   6    -0.00  -0.00   0.00     0.01   0.01  -0.02    -0.00  -0.00  -0.00
  39   8    -0.01  -0.01   0.01     0.01   0.01  -0.02    -0.00  -0.00  -0.01
  40   7     0.00  -0.00   0.01    -0.00  -0.00   0.01    -0.00   0.00   0.01
  41   1     0.00  -0.00   0.00     0.00  -0.01   0.01     0.00  -0.00   0.00
  42   1    -0.00   0.00   0.00    -0.02  -0.02   0.00    -0.00  -0.00   0.00
  43   7     0.01  -0.00   0.01    -0.01   0.02  -0.02    -0.01  -0.00  -0.01
  44   1    -0.00  -0.01  -0.00     0.01   0.02  -0.00     0.00   0.00  -0.00
  45   1     0.00  -0.00  -0.01    -0.01  -0.02  -0.01    -0.00  -0.00  -0.00
  46   6     0.01   0.02  -0.00    -0.03   0.01   0.02     0.01   0.00  -0.01
  47   8     0.01   0.02  -0.01    -0.02   0.00   0.01     0.01   0.01  -0.02
  48   7     0.01   0.01   0.02     0.04   0.02  -0.01    -0.00  -0.00   0.00
  49   1     0.01   0.01  -0.01     0.01   0.01   0.03     0.00   0.00  -0.01
  50   1     0.01   0.00  -0.01     0.01  -0.02   0.03    -0.00  -0.00   0.00
  51   7    -0.02  -0.00   0.01    -0.00   0.03  -0.03    -0.00  -0.00   0.01
  52   1     0.01   0.00  -0.02    -0.03  -0.02   0.05     0.00   0.00  -0.01
  53   1    -0.00   0.01  -0.02    -0.01  -0.01   0.03     0.00   0.00  -0.00
                     37                     38                     39
                        a                      a                      a 
 Frequencies --   384.3053               392.8461               409.9265
 Red. masses --     3.5933                 3.6580                 3.4044
 Frc consts  --     0.0000                 0.0000                 0.0000
 IR Inten    --   210.6539               121.7096               597.6231
 Raman Activ --     0.0000                 0.0000                 0.0000
 Depolar     --     0.0000                 0.0000                 0.0000
 Atom AN      X      Y      Z        X      Y      Z        X      Y      Z
   1   8     0.01  -0.01   0.01     0.00   0.00   0.00    -0.01  -0.01   0.03
   2   6     0.01   0.01   0.00    -0.01  -0.02   0.02     0.02   0.00  -0.00
   3   1     0.01   0.01   0.00    -0.01  -0.01   0.01     0.01   0.01  -0.01
   4   1    -0.01   0.01   0.00     0.01  -0.02   0.01    -0.00   0.01   0.01
   5   6    -0.01  -0.01  -0.01    -0.02   0.01  -0.00    -0.03  -0.03  -0.02
   6   1    -0.01  -0.01  -0.01    -0.01  -0.00  -0.00    -0.02  -0.02  -0.02
   7   1    -0.01   0.00   0.00    -0.01   0.01  -0.00    -0.02   0.00  -0.00
   8   7     0.00  -0.01  -0.00    -0.01   0.01  -0.00    -0.01  -0.03  -0.00
   9   6    -0.01  -0.01   0.01     0.03  -0.02  -0.03    -0.01  -0.01  -0.02
  10   1     0.02   0.02  -0.03     0.00  -0.02  -0.01     0.01   0.01  -0.03
  11   1    -0.05   0.03   0.02     0.02  -0.01  -0.02    -0.03   0.01  -0.01
  12   1     0.01  -0.04   0.03     0.02   0.01  -0.01     0.01  -0.01   0.00
  13   6    -0.01   0.00  -0.01     0.03   0.02   0.01     0.03   0.01   0.00
  14   1    -0.02   0.00  -0.01     0.01   0.01   0.01     0.01   0.01   0.01
  15   1     0.01   0.01  -0.01     0.01   0.01   0.01     0.01   0.01   0.01
  16   1     0.00  -0.01   0.00     0.02   0.00  -0.00     0.02  -0.00  -0.01
  17   6     0.01   0.00  -0.00    -0.03  -0.01  -0.00    -0.00   0.01   0.03
  18   1     0.01  -0.00  -0.00    -0.02  -0.02  -0.02     0.00   0.00   0.01
  19   1    -0.00   0.00   0.00    -0.01  -0.01   0.01    -0.01   0.01   0.01
  20   1     0.01   0.01  -0.00    -0.00   0.01  -0.01     0.01   0.01   0.01
  21   1     0.01   0.00  -0.02    -0.01   0.00   0.01     0.04   0.00  -0.03
  22   6     0.00   0.03  -0.02    -0.01   0.06  -0.03    -0.02  -0.09   0.04
  23   8     0.02   0.03  -0.01     0.00   0.06  -0.02    -0.05  -0.08   0.02
  24   7    -0.03  -0.05   0.05    -0.04  -0.05   0.06     0.09   0.17  -0.16
  25   1     0.02   0.02  -0.02     0.01   0.03  -0.02    -0.06  -0.09   0.09
  26   1     0.01   0.07  -0.07    -0.00   0.03  -0.03    -0.04  -0.23   0.23
  27   7    -0.01  -0.09   0.03     0.00  -0.13   0.03     0.02   0.24  -0.09
  28   1     0.03   0.18  -0.10     0.05   0.27  -0.16    -0.07  -0.61   0.36
  29   1     0.01   0.04  -0.02     0.02   0.02  -0.02    -0.03  -0.05  -0.01
  30   6     0.00  -0.00   0.01     0.06  -0.06   0.07     0.03  -0.02   0.02
  31   8     0.00  -0.01   0.00     0.05  -0.08   0.05     0.03  -0.03   0.02
  32   7    -0.01   0.01  -0.01    -0.17   0.15  -0.17    -0.07   0.06  -0.06
  33   1     0.01  -0.01   0.00     0.05  -0.07   0.02     0.01  -0.01  -0.02
  34   1     0.02  -0.02   0.03     0.34  -0.38   0.52     0.15  -0.17   0.23
  35   7     0.00   0.01  -0.02    -0.02   0.15  -0.18    -0.01   0.07  -0.07
  36   1     0.01  -0.02   0.03     0.08  -0.16   0.31     0.03  -0.06   0.12
  37   1    -0.00  -0.00   0.00    -0.03  -0.05   0.03    -0.01  -0.02   0.02
  38   6     0.01   0.02  -0.00    -0.00  -0.00   0.00     0.00   0.01  -0.01
  39   8     0.00  -0.01  -0.01    -0.00   0.00   0.00    -0.00   0.00  -0.00
  40   7     0.01   0.02   0.00    -0.00  -0.00  -0.00    -0.00   0.00   0.01
  41   1    -0.02  -0.04  -0.01     0.00   0.01   0.00    -0.00  -0.01   0.00
  42   1    -0.03  -0.07  -0.01     0.00   0.01   0.00    -0.02  -0.02   0.00
  43   7     0.01   0.04   0.02    -0.00  -0.01  -0.00     0.00   0.01   0.00
  44   1    -0.03  -0.05  -0.02     0.00   0.01   0.00     0.01   0.00  -0.00
  45   1     0.00   0.01  -0.02    -0.00   0.00   0.00     0.00  -0.01   0.00
  46   6    -0.06  -0.06   0.12     0.01   0.00  -0.02    -0.01   0.02   0.03
  47   8    -0.03  -0.01   0.04     0.00  -0.01  -0.00    -0.00   0.01   0.01
  48   7     0.07   0.06  -0.20    -0.02  -0.01   0.03     0.04   0.03  -0.04
  49   1    -0.04  -0.04   0.11     0.01   0.01  -0.02     0.00   0.00   0.03
  50   1    -0.07  -0.10   0.23     0.02   0.02  -0.06    -0.02  -0.04   0.10
  51   7     0.13   0.13  -0.27    -0.02  -0.01   0.04     0.00   0.02  -0.07
  52   1    -0.27  -0.28   0.65     0.04   0.05  -0.10    -0.06  -0.08   0.14
  53   1    -0.08  -0.07   0.19     0.02   0.01  -0.03    -0.03  -0.01   0.02
                     40                     41                     42
                        a                      a                      a 
 Frequencies --   435.4713               461.8322               465.4331
 Red. masses --     8.6609                 7.7232                 3.3356
 Frc consts  --     0.0000                 0.0000                 0.0000
 IR Inten    --    11.3737                 1.2429                22.5008
 Raman Activ --     0.0000                 0.0000                 0.0000
 Depolar     --     0.0000                 0.0000                 0.0000
 Atom AN      X      Y      Z        X      Y      Z        X      Y      Z
   1   8    -0.09   0.04   0.26    -0.03   0.01  -0.02    -0.01   0.00   0.00
   2   6     0.17   0.07  -0.03    -0.08  -0.01   0.05    -0.00  -0.01   0.00
   3   1     0.07   0.04  -0.04    -0.01   0.01   0.01    -0.01  -0.01   0.00
   4   1    -0.00   0.05  -0.00    -0.03   0.01   0.03     0.01  -0.01  -0.00
   5   6    -0.05  -0.15  -0.14    -0.16  -0.09   0.01    -0.03  -0.00  -0.02
   6   1    -0.05  -0.12  -0.11    -0.12  -0.16  -0.04    -0.03  -0.03  -0.02
   7   1    -0.11   0.02   0.00    -0.14   0.10  -0.01    -0.03   0.03  -0.01
   8   7     0.00  -0.19  -0.21     0.28  -0.10   0.13     0.07  -0.00   0.01
   9   6    -0.34   0.07  -0.15    -0.03   0.27   0.09    -0.01   0.06   0.04
  10   1    -0.09   0.10   0.08     0.03   0.17   0.10     0.00   0.03   0.03
  11   1    -0.09  -0.01  -0.07    -0.06   0.06  -0.02    -0.00   0.02   0.01
  12   1    -0.20   0.05  -0.12    -0.09   0.09  -0.02    -0.03   0.02  -0.00
  13   6     0.24  -0.11  -0.13    -0.19   0.08  -0.20    -0.04  -0.01  -0.05
  14   1     0.13  -0.02   0.00    -0.15   0.06  -0.05    -0.03  -0.00  -0.02
  15   1     0.04  -0.04   0.03    -0.02   0.00  -0.21    -0.01  -0.01  -0.04
  16   1     0.10  -0.02  -0.10    -0.14   0.06   0.00    -0.04   0.01   0.00
  17   6     0.07   0.24   0.34     0.30  -0.19  -0.02     0.06  -0.05  -0.00
  18   1     0.02   0.08   0.11     0.09  -0.09  -0.05     0.01  -0.02  -0.01
  19   1    -0.11   0.17   0.15     0.09  -0.07   0.02     0.02  -0.02   0.01
  20   1     0.18   0.08   0.18     0.07  -0.01  -0.04     0.01  -0.00  -0.01
  21   1     0.02   0.01   0.02     0.01   0.01  -0.03    -0.01   0.00   0.00
  22   6    -0.00   0.00  -0.00    -0.01  -0.05  -0.04     0.02   0.10   0.06
  23   8    -0.00   0.01  -0.00     0.05  -0.06  -0.02    -0.11   0.11   0.02
  24   7    -0.01  -0.02   0.01     0.02   0.02   0.06    -0.01   0.03  -0.11
  25   1     0.01   0.01  -0.02    -0.01   0.19  -0.03    -0.05  -0.60   0.22
  26   1     0.00   0.01  -0.02     0.07  -0.05   0.10    -0.13   0.20  -0.29
  27   7     0.01  -0.02  -0.01    -0.08   0.04  -0.02     0.12  -0.10   0.07
  28   1     0.01   0.05  -0.03    -0.05   0.04  -0.03     0.07  -0.06   0.05
  29   1     0.00  -0.01   0.01    -0.02  -0.00   0.05     0.04   0.03  -0.09
  30   6    -0.00  -0.02  -0.00    -0.05   0.01   0.03    -0.05   0.02   0.02
  31   8     0.00   0.00   0.01    -0.06  -0.03   0.01    -0.07  -0.04  -0.01
  32   7     0.02  -0.00  -0.01     0.05   0.06   0.02     0.05   0.05   0.05
  33   1     0.01  -0.01  -0.00     0.03   0.01  -0.03     0.02   0.03  -0.05
  34   1    -0.00   0.01  -0.01     0.04   0.02   0.06     0.04   0.01   0.06
  35   7    -0.01  -0.01   0.00     0.03  -0.03  -0.06     0.02  -0.00  -0.06
  36   1    -0.00   0.00   0.00    -0.01  -0.05  -0.08    -0.02  -0.04  -0.11
  37   1    -0.01  -0.00  -0.00     0.10  -0.04   0.04     0.15  -0.10   0.12
  38   6     0.01  -0.00  -0.02    -0.02   0.02  -0.11    -0.02   0.01  -0.06
  39   8    -0.01  -0.00  -0.01    -0.09   0.04  -0.07    -0.05   0.04  -0.04
  40   7     0.01  -0.01   0.02    -0.03   0.01   0.13    -0.03  -0.01   0.08
  41   1     0.02  -0.01   0.02     0.06  -0.08   0.09     0.06   0.02   0.06
  42   1    -0.01   0.00   0.01    -0.09   0.03   0.09    -0.06  -0.01   0.04
  43   7     0.03  -0.01  -0.00     0.16  -0.06   0.02     0.07  -0.05  -0.01
  44   1     0.01  -0.01  -0.00     0.05  -0.09  -0.05     0.11   0.06   0.01
  45   1     0.01  -0.01   0.01     0.04  -0.02   0.05     0.01  -0.06   0.05
  46   6    -0.00  -0.01  -0.00    -0.01  -0.01  -0.01     0.07   0.02   0.02
  47   8    -0.01  -0.00   0.01    -0.02   0.00  -0.01     0.07   0.03   0.03
  48   7    -0.00  -0.01   0.00     0.01  -0.02   0.01    -0.07   0.06  -0.02
  49   1    -0.00  -0.00   0.00     0.04   0.03  -0.06    -0.14  -0.11   0.14
  50   1     0.00   0.00  -0.01    -0.01  -0.04   0.04     0.00   0.14  -0.14
  51   7     0.00   0.00   0.01     0.02   0.02   0.01    -0.03  -0.11  -0.01
  52   1     0.01   0.02  -0.02     0.02   0.05  -0.04    -0.01  -0.11   0.04
  53   1     0.01  -0.00   0.01     0.01  -0.01   0.05    -0.04   0.02  -0.11
                     43                     44                     45
                        a                      a                      a 
 Frequencies --   467.9532               469.5489               472.1952
 Red. masses --     3.9824                 5.6169                 5.0534
 Frc consts  --     0.0000                 0.0000                 0.0000
 IR Inten    --     8.5756                 7.2362                 4.9458
 Raman Activ --     0.0000                 0.0000                 0.0000
 Depolar     --     0.0000                 0.0000                 0.0000
 Atom AN      X      Y      Z        X      Y      Z        X      Y      Z
   1   8    -0.00  -0.00  -0.02    -0.02  -0.01   0.05    -0.01  -0.02   0.01
   2   6    -0.03  -0.01   0.01     0.09   0.02  -0.07     0.01  -0.00  -0.01
   3   1    -0.00   0.00  -0.00     0.01  -0.01  -0.00    -0.00  -0.01   0.00
   4   1    -0.01   0.00   0.01     0.04  -0.01  -0.04     0.01  -0.01  -0.01
   5   6     0.00  -0.03   0.03     0.02   0.11  -0.10    -0.00   0.02  -0.03
   6   1     0.01   0.01   0.02    -0.00   0.01  -0.05    -0.01  -0.00  -0.01
   7   1     0.02  -0.02   0.00    -0.02   0.05  -0.02    -0.01   0.01  -0.01
   8   7    -0.02  -0.02   0.01     0.02   0.11  -0.07     0.01   0.02  -0.02
   9   6     0.00  -0.01  -0.03     0.02  -0.02   0.09     0.01  -0.00   0.02
  10   1    -0.00  -0.01  -0.01    -0.01  -0.03   0.01    -0.00  -0.01   0.00
  11   1     0.00  -0.01  -0.02     0.03   0.02   0.07     0.01   0.00   0.01
  12   1     0.01   0.01  -0.01    -0.00  -0.04   0.04     0.00  -0.01   0.01
  13   6     0.01   0.03   0.01     0.02  -0.13   0.02     0.01  -0.03  -0.00
  14   1    -0.01   0.02   0.01     0.05  -0.08  -0.03     0.01  -0.02  -0.01
  15   1     0.01   0.02   0.00    -0.02  -0.06   0.04    -0.00  -0.01   0.01
  16   1     0.01   0.01  -0.01    -0.01  -0.04   0.03    -0.00  -0.01   0.00
  17   6     0.01   0.01  -0.01    -0.10  -0.03   0.05    -0.02  -0.02   0.00
  18   1     0.02  -0.00  -0.01    -0.08   0.03   0.04    -0.02  -0.00  -0.00
  19   1    -0.00   0.01  -0.01    -0.01  -0.03   0.00    -0.00  -0.01   0.01
  20   1     0.00   0.01  -0.01    -0.03  -0.06   0.04    -0.01  -0.01   0.00
  21   1     0.01  -0.00  -0.01    -0.00  -0.00   0.02     0.01  -0.00  -0.01
  22   6    -0.02  -0.02   0.00    -0.03  -0.03  -0.00    -0.01   0.05   0.07
  23   8     0.03  -0.03   0.03     0.05  -0.04   0.02    -0.07   0.06   0.05
  24   7    -0.03  -0.04   0.02    -0.03  -0.02   0.03    -0.07  -0.06  -0.07
  25   1     0.04   0.29  -0.15     0.03   0.26  -0.12     0.05  -0.02  -0.08
  26   1     0.02  -0.11   0.13     0.04  -0.09   0.12    -0.09  -0.03  -0.03
  27   7    -0.01   0.04  -0.04    -0.02   0.03  -0.05     0.11  -0.02  -0.02
  28   1     0.00   0.03  -0.02    -0.00   0.02  -0.02     0.08   0.02  -0.00
  29   1    -0.01  -0.03   0.02    -0.01  -0.03   0.01     0.02  -0.05  -0.02
  30   6     0.05  -0.02  -0.02    -0.15   0.06   0.07     0.01  -0.00  -0.00
  31   8     0.07   0.04   0.01    -0.20  -0.10  -0.02     0.02   0.00  -0.00
  32   7    -0.05  -0.05  -0.05     0.15   0.16   0.11    -0.01  -0.01  -0.01
  33   1    -0.02  -0.03   0.04     0.09   0.05  -0.08    -0.01  -0.01   0.02
  34   1    -0.04  -0.01  -0.06     0.10   0.08   0.14    -0.01  -0.00  -0.02
  35   7    -0.02   0.00   0.07     0.07  -0.05  -0.18     0.00  -0.00   0.02
  36   1     0.02   0.05   0.11    -0.05  -0.14  -0.28     0.01   0.01   0.03
  37   1    -0.15   0.10  -0.12     0.37  -0.21   0.25    -0.04   0.04  -0.04
  38   6    -0.03   0.01  -0.08     0.02  -0.02   0.08    -0.00   0.03  -0.03
  39   8    -0.07   0.06  -0.06     0.07  -0.03   0.06    -0.02   0.01  -0.03
  40   7    -0.06  -0.02   0.11     0.03  -0.02  -0.10    -0.03  -0.01   0.04
  41   1     0.11   0.08   0.09    -0.03   0.08  -0.06     0.03   0.01   0.03
  42   1    -0.10  -0.04   0.06     0.07  -0.04  -0.07    -0.05  -0.03   0.02
  43   7     0.10  -0.07  -0.03    -0.12   0.05  -0.02     0.05  -0.01   0.00
  44   1     0.22   0.16   0.04    -0.02   0.10   0.05     0.09   0.05   0.01
  45   1     0.01  -0.12   0.10    -0.03  -0.01  -0.04     0.00  -0.08   0.03
  46   6     0.14   0.05   0.04     0.07   0.02   0.02     0.15   0.04   0.13
  47   8     0.15   0.08   0.05     0.07   0.04   0.03     0.17   0.06   0.14
  48   7    -0.13   0.13  -0.04    -0.07   0.06  -0.01    -0.22   0.15   0.03
  49   1    -0.26  -0.20   0.26    -0.08  -0.05   0.03     0.05   0.12  -0.52
  50   1    -0.01   0.27  -0.24    -0.03   0.09  -0.03    -0.22   0.01   0.40
  51   7    -0.05  -0.21  -0.02    -0.02  -0.09  -0.03    -0.02  -0.20  -0.22
  52   1    -0.02  -0.23   0.10     0.00  -0.09   0.02     0.09  -0.14  -0.19
  53   1    -0.07   0.04  -0.23    -0.05  -0.00  -0.06    -0.21  -0.11   0.10
                     46                     47                     48
                        a                      a                      a 
 Frequencies --   475.0690               478.5668               480.8909
 Red. masses --     8.1848                 7.5329                 6.2964
 Frc consts  --     0.0000                 0.0000                 0.0000
 IR Inten    --    50.3659                 9.6735                 9.7081
 Raman Activ --     0.0000                 0.0000                 0.0000
 Depolar     --     0.0000                 0.0000                 0.0000
 Atom AN      X      Y      Z        X      Y      Z        X      Y      Z
   1   8     0.02  -0.04   0.01     0.02  -0.02  -0.04     0.05  -0.01  -0.06
   2   6    -0.00  -0.01   0.03    -0.05  -0.00   0.02    -0.09  -0.03   0.08
   3   1     0.02   0.01   0.01     0.02   0.02  -0.01     0.00   0.02  -0.01
   4   1    -0.02   0.01   0.02    -0.04   0.02   0.03    -0.06   0.02   0.06
   5   6    -0.09  -0.07  -0.01     0.04  -0.09   0.08     0.02  -0.16   0.13
   6   1    -0.07  -0.10  -0.05     0.05   0.04   0.06     0.04   0.01   0.08
   7   1    -0.09   0.06  -0.00     0.06  -0.08   0.01     0.05  -0.09   0.02
   8   7     0.12  -0.06   0.07    -0.10  -0.07   0.03    -0.06  -0.14   0.08
   9   6    -0.04   0.16   0.02    -0.02  -0.05  -0.11    -0.05   0.01  -0.13
  10   1     0.01   0.10   0.05    -0.00  -0.01  -0.04     0.00   0.04  -0.02
  11   1    -0.04   0.03  -0.03    -0.01  -0.04  -0.07    -0.04  -0.03  -0.09
  12   1    -0.05   0.07  -0.03     0.03   0.02  -0.03     0.00   0.05  -0.05
  13   6    -0.09   0.04  -0.09     0.03   0.08   0.06    -0.01   0.15   0.00
  14   1    -0.07   0.03  -0.02     0.00   0.05   0.05    -0.05   0.09   0.05
  15   1    -0.01  -0.00  -0.10     0.02   0.05   0.03     0.03   0.08  -0.04
  16   1    -0.07   0.03  -0.00     0.05   0.02  -0.02     0.03   0.04  -0.04
  17   6     0.15  -0.09  -0.00     0.01   0.10  -0.02     0.13   0.10  -0.07
  18   1     0.04  -0.05  -0.03     0.05   0.02   0.01     0.12  -0.01  -0.03
  19   1     0.04  -0.03   0.02    -0.02   0.06  -0.03     0.00   0.07  -0.03
  20   1     0.04   0.01  -0.02     0.01   0.04  -0.01     0.04   0.08  -0.05
  21   1     0.02  -0.01  -0.00     0.00  -0.00  -0.01     0.02  -0.00  -0.03
  22   6     0.00  -0.00  -0.02     0.03  -0.13  -0.21    -0.01   0.06   0.13
  23   8     0.00  -0.00  -0.02     0.15  -0.14  -0.19    -0.09   0.07   0.12
  24   7     0.02   0.02   0.02     0.20   0.15   0.20    -0.12  -0.10  -0.11
  25   1    -0.02  -0.07   0.06    -0.14  -0.06   0.29     0.09   0.09  -0.20
  26   1     0.01   0.03  -0.02     0.24   0.13   0.01    -0.13  -0.09   0.01
  27   7    -0.03   0.00   0.02    -0.34   0.05   0.09     0.20  -0.01  -0.05
  28   1    -0.03  -0.00   0.00    -0.24   0.05  -0.05     0.14   0.01   0.01
  29   1    -0.00   0.02   0.01    -0.05   0.12   0.14     0.02  -0.08  -0.05
  30   6     0.04  -0.02  -0.01     0.03   0.01  -0.04     0.08   0.03  -0.09
  31   8     0.06   0.03   0.02     0.04   0.02  -0.03     0.10   0.01  -0.09
  32   7    -0.04  -0.03  -0.04    -0.03  -0.08   0.03    -0.09  -0.17   0.05
  33   1    -0.02  -0.02   0.02    -0.05   0.03  -0.04    -0.11   0.04  -0.01
  34   1    -0.02  -0.02  -0.03     0.00  -0.06   0.02    -0.03  -0.12  -0.02
  35   7    -0.01  -0.00   0.05    -0.06   0.10   0.01    -0.10   0.19   0.04
  36   1     0.02   0.03   0.10    -0.03   0.06  -0.07    -0.05   0.13  -0.13
[...]
  44   1    -0.00  -0.00  -0.00    -0.00  -0.00   0.00    -0.00   0.00  -0.00
  45   1     0.06  -0.00   0.00     0.09  -0.01   0.01     0.00  -0.00  -0.00
  46   6    -0.01  -0.00  -0.01    -0.00   0.01   0.00    -0.00  -0.00  -0.00
  47   8     0.01   0.00   0.00     0.00   0.00   0.00     0.00   0.00   0.00
  48   7     0.00  -0.00   0.00    -0.00   0.00  -0.00     0.00  -0.00   0.00
  49   1    -0.01   0.01  -0.00     0.02  -0.02   0.00    -0.01   0.00  -0.00
  50   1     0.00   0.00   0.00    -0.02  -0.00  -0.01     0.00   0.00   0.00
  51   7    -0.01   0.09   0.03    -0.02   0.20   0.06     0.00  -0.01  -0.00
  52   1     0.07   0.03   0.04     0.14   0.06   0.08    -0.01  -0.00  -0.00
  53   1    -0.03  -0.37  -0.15    -0.07  -0.79  -0.32     0.00   0.04   0.02
                    142                    143                    144
                        a                      a                      a 
 Frequencies --  3491.7055              3493.3209              3493.9901
 Red. masses --     1.4537                 1.8623                 1.4554
 Frc consts  --     0.0000                 0.0000                 0.0000
 IR Inten    --    16.3777                 3.5525                16.8747
 Raman Activ --     0.0000                 0.0000                 0.0000
 Depolar     --     0.0000                 0.0000                 0.0000
 Atom AN      X      Y      Z        X      Y      Z        X      Y      Z
   1   8    -0.00  -0.00  -0.00     0.00   0.00  -0.00    -0.00   0.00   0.00
   2   6     0.00  -0.00   0.00    -0.00   0.00   0.00    -0.00   0.00  -0.00
   3   1    -0.00   0.00   0.00    -0.00  -0.00  -0.00     0.00  -0.00   0.00
   4   1     0.00   0.00   0.00    -0.00  -0.00  -0.00     0.00   0.00  -0.00
   5   6    -0.00  -0.00  -0.00    -0.00  -0.00  -0.00     0.00   0.00   0.00
   6   1    -0.00  -0.00  -0.00    -0.00  -0.00  -0.00     0.00  -0.00   0.00
   7   1     0.00   0.00   0.00     0.00   0.00   0.00    -0.00  -0.00  -0.00
   8   7     0.00  -0.00  -0.00    -0.00   0.00  -0.00     0.00   0.00   0.00
   9   6    -0.00   0.00  -0.00     0.00  -0.00  -0.00    -0.00   0.00   0.00
  10   1     0.00  -0.00   0.00    -0.00   0.00  -0.00     0.00  -0.00   0.00
  11   1    -0.00  -0.00   0.00     0.00   0.00  -0.00    -0.00  -0.00   0.00
  12   1    -0.00   0.00   0.00    -0.00   0.00   0.00     0.00  -0.00  -0.00
  13   6    -0.00   0.00  -0.00     0.00  -0.00  -0.00    -0.00   0.00  -0.00
  14   1    -0.00  -0.00   0.00     0.00   0.00  -0.00    -0.00  -0.00   0.00
  15   1    -0.00  -0.00  -0.00    -0.00  -0.00  -0.00     0.00  -0.00   0.00
  16   1     0.00  -0.00  -0.00     0.00  -0.00   0.00    -0.00   0.00  -0.00
  17   6    -0.00  -0.00  -0.00     0.00   0.00  -0.00    -0.00   0.00   0.00
  18   1    -0.00  -0.00   0.00     0.00   0.00  -0.00    -0.00  -0.00   0.00
  19   1     0.00   0.00   0.00    -0.00  -0.00   0.00    -0.00  -0.00  -0.00
  20   1    -0.00   0.00   0.00    -0.00  -0.00   0.00     0.00  -0.00  -0.00
  21   1     0.00   0.00   0.00    -0.00  -0.00  -0.00     0.00   0.00   0.00
  22   6     0.00   0.00   0.00     0.00  -0.00  -0.00     0.00  -0.00   0.00
  23   8    -0.00  -0.00  -0.00    -0.00   0.00   0.00    -0.00   0.00   0.00
  24   7     0.00  -0.00  -0.00     0.00  -0.00  -0.00     0.16  -0.09  -0.01
  25   1    -0.01  -0.00  -0.01    -0.01  -0.00  -0.01    -0.45  -0.17  -0.46
  26   1    -0.00   0.01   0.01    -0.00   0.01   0.01    -0.15   0.52   0.48
  27   7    -0.00   0.00   0.00    -0.00   0.00   0.00    -0.01   0.00   0.01
  28   1     0.00   0.00  -0.00     0.00  -0.00  -0.00     0.01  -0.01  -0.03
  29   1     0.00  -0.00  -0.00     0.00  -0.00  -0.00     0.02  -0.00  -0.00
  30   6     0.00  -0.00   0.00    -0.00   0.00   0.00    -0.00   0.00   0.00
  31   8    -0.00   0.00   0.00     0.00  -0.00  -0.00     0.00  -0.00  -0.00
  32   7    -0.01  -0.01   0.00     0.00   0.00  -0.00     0.00   0.00   0.00
  33   1     0.01   0.01   0.01    -0.00  -0.00  -0.00    -0.01  -0.01  -0.01
  34   1     0.02   0.00  -0.01    -0.00  -0.00   0.00     0.01   0.00  -0.01
  35   7     0.14   0.10   0.07    -0.00  -0.00  -0.00    -0.00  -0.00  -0.00
  36   1    -0.69   0.07   0.21     0.01  -0.00  -0.00     0.01  -0.00  -0.00
  37   1     0.17  -0.44  -0.47    -0.00   0.00   0.00    -0.00   0.01   0.01
  38   6     0.00  -0.00   0.00     0.00  -0.01   0.00    -0.00   0.00  -0.00
  39   8    -0.00   0.00  -0.00    -0.00   0.00  -0.00     0.00  -0.00   0.00
  40   7    -0.00   0.00  -0.00    -0.03   0.02  -0.01     0.00  -0.00   0.00
  41   1    -0.00   0.00   0.00     0.06  -0.01  -0.10    -0.00   0.00   0.00
  42   1     0.00  -0.00   0.00     0.07  -0.06   0.15    -0.00   0.00  -0.00
  43   7     0.00  -0.00   0.00     0.10  -0.13   0.19    -0.00   0.00  -0.00
  44   1    -0.00   0.00  -0.01    -0.29   0.50  -0.74     0.01  -0.01   0.02
  45   1     0.00  -0.00   0.00    -0.08  -0.00   0.01     0.00  -0.00  -0.00
  46   6     0.00   0.00   0.00    -0.00  -0.00   0.00     0.00  -0.00   0.00
  47   8    -0.00  -0.00  -0.00     0.00   0.00  -0.00    -0.00   0.00   0.00
  48   7     0.00  -0.00  -0.00     0.00   0.00   0.00    -0.00  -0.00  -0.00
  49   1    -0.00   0.00  -0.00     0.00  -0.00   0.00    -0.00   0.00  -0.00
  50   1     0.00   0.00   0.00    -0.00  -0.00  -0.00     0.00   0.00   0.00
  51   7    -0.00  -0.00  -0.00    -0.00   0.00  -0.00    -0.00   0.00   0.00
  52   1     0.00   0.00  -0.00     0.01   0.00   0.01    -0.00  -0.00  -0.00
  53   1     0.00   0.00   0.00     0.00  -0.01  -0.00    -0.00  -0.00  -0.00
                    145                    146                    147
                        a                      a                      a 
 Frequencies --  3498.6719              3501.5929              3530.2219
 Red. masses --     1.4647                 1.4529                 1.9690
 Frc consts  --     0.0000                 0.0000                 0.0000
 IR Inten    --    30.2278                23.2122                16.8951
 Raman Activ --     0.0000                 0.0000                 0.0000
 Depolar     --     0.0000                 0.0000                 0.0000
 Atom AN      X      Y      Z        X      Y      Z        X      Y      Z
   1   8     0.00  -0.00   0.00     0.00   0.00   0.00    -0.00  -0.00  -0.00
   2   6    -0.00  -0.00  -0.00    -0.00  -0.00  -0.00     0.00  -0.00   0.00
   3   1    -0.00   0.00   0.00    -0.00   0.00  -0.00    -0.00   0.00   0.00
   4   1     0.00   0.00   0.00     0.00   0.00  -0.00    -0.00  -0.00   0.00
   5   6     0.00  -0.00   0.00     0.00   0.00   0.00     0.00  -0.00   0.00
   6   1    -0.00   0.00  -0.00     0.00  -0.00   0.00    -0.00  -0.00  -0.00
   7   1    -0.00  -0.00  -0.00    -0.00   0.00  -0.00     0.00  -0.00  -0.00
   8   7    -0.00  -0.00   0.00    -0.00   0.00   0.00     0.00  -0.00  -0.00
   9   6     0.00  -0.00   0.00    -0.00   0.00   0.00     0.00  -0.00  -0.00
  10   1    -0.00   0.00  -0.00     0.00  -0.00   0.00    -0.00   0.00  -0.00
  11   1    -0.00  -0.00   0.00    -0.00   0.00   0.00    -0.00  -0.00   0.00
  12   1     0.00  -0.00  -0.00     0.00  -0.00  -0.00    -0.00   0.00   0.00
  13   6     0.00  -0.00   0.00    -0.00   0.00  -0.00     0.00   0.00   0.00
  14   1     0.00  -0.00   0.00    -0.00   0.00  -0.00     0.00  -0.00   0.00
  15   1    -0.00   0.00  -0.00     0.00  -0.00   0.00    -0.00   0.00  -0.00
  16   1     0.00   0.00   0.00     0.00   0.00   0.00    -0.00  -0.00  -0.00
  17   6     0.00   0.00  -0.00     0.00   0.00  -0.00     0.00  -0.00  -0.00
  18   1    -0.00  -0.00   0.00    -0.00  -0.00   0.00    -0.00  -0.00  -0.00
  19   1    -0.00  -0.00  -0.00    -0.00  -0.00   0.00     0.00   0.00  -0.00
  20   1    -0.00   0.00   0.00    -0.00   0.00   0.00    -0.00   0.00   0.00
  21   1     0.00   0.00   0.00    -0.00  -0.01  -0.00     0.00   0.00   0.00
  22   6    -0.00   0.00   0.00     0.00   0.00   0.00    -0.00  -0.00  -0.00
  23   8     0.00  -0.00  -0.00     0.00  -0.00  -0.00    -0.00   0.00   0.00
  24   7    -0.00   0.00  -0.00    -0.00   0.00  -0.00    -0.00   0.00  -0.00
  25   1     0.00   0.00   0.00     0.00   0.00   0.00     0.01   0.00   0.01
  26   1     0.00  -0.00  -0.00     0.00  -0.00  -0.00     0.00  -0.00  -0.00
  27   7     0.00  -0.00   0.00     0.00   0.00   0.00    -0.02   0.03   0.04
  28   1     0.00  -0.00  -0.00     0.01  -0.01  -0.01     0.05  -0.09  -0.16
  29   1    -0.00   0.00   0.00    -0.02   0.01   0.00     0.03  -0.01   0.00
  30   6    -0.00  -0.00  -0.00    -0.00   0.00   0.00    -0.01  -0.01   0.00
  31   8     0.00   0.00   0.00     0.00   0.00  -0.00     0.00   0.00  -0.00
  32   7     0.00   0.00   0.00     0.00  -0.00  -0.00    -0.24  -0.06   0.10
  33   1    -0.00  -0.00  -0.00     0.00   0.00   0.00     0.10   0.13   0.07
  34   1     0.00   0.00  -0.00    -0.00  -0.00   0.00     0.79   0.10  -0.46
  35   7     0.00   0.00   0.00     0.00  -0.00  -0.00     0.02  -0.02  -0.02
  36   1    -0.00   0.00   0.00    -0.00   0.00   0.00    -0.05   0.00   0.01
  37   1     0.00  -0.00  -0.00    -0.00   0.00   0.00    -0.02   0.06   0.07
  38   6    -0.00   0.00  -0.00     0.00  -0.00   0.00    -0.00   0.00   0.00
  39   8     0.00  -0.00   0.00    -0.00   0.00  -0.00    -0.00  -0.00  -0.00
  40   7    -0.16   0.08  -0.00     0.00  -0.00  -0.00     0.00  -0.00  -0.00
  41   1     0.34  -0.07  -0.58    -0.00   0.00   0.00    -0.00   0.00   0.00
  42   1     0.26  -0.22   0.59    -0.00   0.00  -0.00     0.00   0.00   0.00
  43   7    -0.02   0.03  -0.04     0.00  -0.00   0.00     0.00  -0.00   0.00
  44   1     0.06  -0.11   0.16    -0.00   0.00  -0.00    -0.00   0.00  -0.00
  45   1     0.01   0.00  -0.00     0.00  -0.00   0.00    -0.00   0.00   0.00
  46   6    -0.00   0.00   0.00    -0.00  -0.00  -0.00    -0.00  -0.00  -0.00
  47   8    -0.00  -0.00  -0.00     0.00   0.00   0.00     0.00   0.00   0.00
  48   7    -0.00  -0.00  -0.00    -0.03  -0.17  -0.07     0.00   0.00   0.00
  49   1    -0.00   0.00  -0.00    -0.51   0.43  -0.03     0.00  -0.00  -0.00
  50   1     0.00   0.00   0.00     0.63   0.19   0.28    -0.00  -0.00  -0.00
  51   7     0.00  -0.00   0.00     0.01   0.01   0.01     0.00  -0.00   0.00
  52   1    -0.01  -0.00  -0.01    -0.04  -0.01  -0.02    -0.00  -0.00  -0.00
  53   1     0.00   0.01   0.00    -0.00  -0.03  -0.01     0.00   0.00   0.00
                    148                    149                    150
                        a                      a                      a 
 Frequencies --  3530.9463              3536.4806              3556.0293
 Red. masses --     1.9633                 1.9595                 2.1723
 Frc consts  --     0.0000                 0.0000                 0.0000
 IR Inten    --    15.8106                19.8045                10.3428
 Raman Activ --     0.0000                 0.0000                 0.0000
 Depolar     --     0.0000                 0.0000                 0.0000
 Atom AN      X      Y      Z        X      Y      Z        X      Y      Z
   1   8     0.00   0.00   0.00    -0.00  -0.00  -0.00     0.00   0.00   0.00
   2   6    -0.00  -0.00  -0.00     0.00  -0.00   0.00    -0.00   0.00  -0.00
   3   1    -0.00   0.00   0.00    -0.00   0.00   0.00     0.00  -0.00  -0.00
   4   1     0.00  -0.00   0.00     0.00   0.00   0.00     0.00   0.00  -0.00
   5   6     0.00   0.00   0.00    -0.00   0.00  -0.00     0.00   0.00   0.00
   6   1     0.00  -0.00  -0.00     0.00  -0.00   0.00    -0.00   0.00   0.00
   7   1     0.00  -0.00   0.00     0.00   0.00   0.00    -0.00  -0.00  -0.00
   8   7    -0.00   0.00   0.00    -0.00   0.00   0.00     0.00   0.00   0.00
   9   6    -0.00   0.00   0.00    -0.00   0.00  -0.00     0.00  -0.00   0.00
  10   1     0.00  -0.00  -0.00     0.00  -0.00   0.00    -0.00   0.00  -0.00
  11   1    -0.00  -0.00  -0.00     0.00   0.00  -0.00     0.00   0.00  -0.00
  12   1    -0.00  -0.00  -0.00    -0.00   0.00  -0.00     0.00  -0.00  -0.00
  13   6     0.00   0.00   0.00    -0.00   0.00  -0.00    -0.00  -0.00   0.00
  14   1    -0.00  -0.00  -0.00    -0.00   0.00  -0.00     0.00   0.00  -0.00
  15   1     0.00  -0.00  -0.00     0.00  -0.00   0.00    -0.00   0.00   0.00
  16   1     0.00   0.00   0.00     0.00   0.00   0.00    -0.00   0.00   0.00
  17   6     0.00  -0.00  -0.00    -0.00  -0.00   0.00     0.00   0.00   0.00
  18   1    -0.00  -0.00   0.00     0.00   0.00  -0.00     0.00   0.00   0.00
  19   1     0.00   0.00  -0.00     0.00   0.00   0.00    -0.00  -0.00  -0.00
  20   1    -0.00   0.00   0.00     0.00  -0.00  -0.00     0.00  -0.00  -0.00
  21   1    -0.00  -0.01  -0.00    -0.00   0.00  -0.00    -0.00  -0.00  -0.00
  22   6     0.01  -0.00  -0.00     0.00  -0.00  -0.00    -0.00  -0.00  -0.00
  23   8    -0.00   0.00   0.00    -0.00   0.00   0.00     0.00  -0.00  -0.00
  24   7     0.01   0.01   0.02     0.00   0.00   0.00    -0.01  -0.01  -0.02
  25   1    -0.07  -0.02  -0.06    -0.00  -0.00  -0.00     0.04   0.01   0.03
  26   1     0.01  -0.03  -0.03     0.00  -0.00  -0.00    -0.01   0.03   0.03
  27   7     0.11  -0.13  -0.20     0.00  -0.00  -0.00     0.00  -0.00  -0.00
  28   1    -0.25   0.46   0.76    -0.00   0.00   0.01    -0.00   0.00   0.00
  29   1    -0.16   0.05  -0.01    -0.00   0.00   0.00    -0.00   0.00  -0.00
  30   6    -0.00  -0.00   0.00     0.00   0.00  -0.00     0.01  -0.01  -0.01
  31   8     0.00   0.00  -0.00    -0.00   0.00   0.00    -0.00   0.00   0.00
  32   7    -0.05  -0.01   0.02     0.00   0.00  -0.00     0.03   0.01  -0.01
  33   1     0.02   0.03   0.02    -0.00  -0.00  -0.00    -0.01  -0.02  -0.01
  34   1     0.16   0.02  -0.09    -0.00  -0.00   0.00    -0.09  -0.01   0.05
  35   7     0.00  -0.00  -0.00    -0.00   0.00   0.00     0.20  -0.13  -0.17
  36   1    -0.01   0.00   0.00     0.00  -0.00  -0.00    -0.62   0.04   0.16
  37   1    -0.00   0.01   0.01     0.00  -0.00  -0.00    -0.15   0.47   0.49
  38   6     0.00  -0.00  -0.00    -0.00  -0.00   0.00    -0.00   0.00  -0.00
  39   8     0.00   0.00   0.00    -0.00   0.00  -0.00     0.00  -0.00   0.00
  40   7    -0.00   0.00  -0.00     0.00  -0.00  -0.00     0.00  -0.00   0.00
  41   1     0.00  -0.00  -0.00    -0.01   0.00   0.01     0.00  -0.00  -0.00
  42   1     0.00  -0.00   0.00    -0.00   0.00  -0.00    -0.00   0.00  -0.00
  43   7     0.00   0.00   0.00    -0.00  -0.00   0.00     0.00  -0.00   0.00
  44   1     0.00  -0.00   0.00    -0.00   0.01  -0.01    -0.00   0.00  -0.00
  45   1    -0.00  -0.00  -0.00     0.01  -0.00   0.00    -0.00   0.00  -0.00
  46   6     0.00   0.00   0.00     0.00   0.01   0.01     0.00  -0.00  -0.00
  47   8    -0.00  -0.00  -0.00    -0.00  -0.00  -0.00    -0.00   0.00   0.00
  48   7    -0.00  -0.00  -0.00    -0.02   0.02  -0.00    -0.00   0.00  -0.00
  49   1    -0.00   0.00   0.00     0.07  -0.06   0.00     0.00  -0.00   0.00
  50   1     0.01   0.00   0.01     0.02   0.01   0.01     0.00   0.00   0.00
  51   7    -0.00   0.00  -0.00     0.21   0.10   0.13     0.00   0.00   0.00
  52   1     0.01   0.00   0.00    -0.80  -0.24  -0.44    -0.00  -0.00  -0.00
  53   1    -0.00  -0.00  -0.00     0.00  -0.16  -0.06    -0.00  -0.00  -0.00
                    151                    152                    153
                        a                      a                      a 
 Frequencies --  3557.3957              3565.1255              3566.2893
 Red. masses --     2.1733                 2.1883                 2.1843
 Frc consts  --     0.0000                 0.0000                 0.0000
 IR Inten    --    10.1468                14.9522                19.2366
 Raman Activ --     0.0000                 0.0000                 0.0000
 Depolar     --     0.0000                 0.0000                 0.0000
 Atom AN      X      Y      Z        X      Y      Z        X      Y      Z
   1   8    -0.00  -0.00  -0.00     0.00  -0.00   0.00     0.00   0.00   0.00
   2   6    -0.00   0.00   0.00    -0.00   0.00  -0.00     0.00  -0.00  -0.00
   3   1     0.00  -0.00   0.00     0.00  -0.00   0.00    -0.00   0.00  -0.00
   4   1    -0.00   0.00  -0.00    -0.00  -0.00   0.00     0.00   0.00   0.00
   5   6     0.00   0.00   0.00    -0.00   0.00  -0.00    -0.00   0.00   0.00
   6   1    -0.00   0.00   0.00     0.00  -0.00  -0.00     0.00  -0.00   0.00
   7   1    -0.00  -0.00  -0.00    -0.00   0.00   0.00    -0.00   0.00   0.00
   8   7    -0.00   0.00   0.00     0.00  -0.00  -0.00    -0.00   0.00   0.00
   9   6     0.00  -0.00  -0.00    -0.00   0.00  -0.00    -0.00   0.00   0.00
  10   1    -0.00   0.00   0.00     0.00  -0.00   0.00     0.00  -0.00   0.00
  11   1     0.00   0.00   0.00    -0.00  -0.00   0.00    -0.00   0.00  -0.00
  12   1     0.00   0.00   0.00    -0.00   0.00  -0.00     0.00  -0.00  -0.00
  13   6    -0.00   0.00  -0.00    -0.00   0.00  -0.00     0.00   0.00  -0.00
  14   1     0.00   0.00   0.00    -0.00   0.00   0.00    -0.00   0.00  -0.00
  15   1    -0.00   0.00   0.00     0.00  -0.00   0.00     0.00  -0.00   0.00
  16   1    -0.00  -0.00  -0.00    -0.00   0.00   0.00     0.00   0.00   0.00
  17   6    -0.00   0.00   0.00    -0.00  -0.00   0.00     0.00  -0.00  -0.00
  18   1    -0.00   0.00   0.00    -0.00   0.00   0.00    -0.00   0.00  -0.00
  19   1    -0.00  -0.00  -0.00     0.00   0.00   0.00    -0.00   0.00   0.00
  20   1     0.00  -0.00  -0.00     0.00  -0.00  -0.00    -0.00   0.00   0.00
  21   1     0.00   0.00   0.00     0.00   0.00  -0.00    -0.00  -0.01  -0.00
  22   6     0.00   0.01   0.01     0.00  -0.00  -0.00     0.00   0.00   0.00
  23   8    -0.00  -0.00  -0.00    -0.00   0.00   0.00     0.00  -0.00  -0.00
  24   7     0.09   0.16   0.23    -0.00  -0.00  -0.00    -0.00  -0.00  -0.00
  25   1    -0.49  -0.15  -0.47     0.00   0.00   0.00     0.00   0.00   0.00
  26   1     0.15  -0.46  -0.42    -0.00   0.00   0.00    -0.00   0.00   0.00
  27   7    -0.01   0.01   0.02     0.00  -0.00  -0.00     0.00  -0.00  -0.00
  28   1     0.03  -0.05  -0.08    -0.00   0.00   0.00    -0.00   0.00   0.01
  29   1     0.02  -0.01   0.00    -0.00   0.00  -0.00    -0.01   0.00   0.00
  30   6     0.00  -0.00  -0.00     0.00   0.00  -0.00    -0.00   0.00   0.00
  31   8     0.00   0.00   0.00    -0.00  -0.00   0.00     0.00  -0.00  -0.00
  32   7     0.01   0.00  -0.00     0.00   0.00  -0.00    -0.00  -0.00   0.00
  33   1    -0.01  -0.01  -0.00     0.00   0.00  -0.00     0.00   0.00   0.00
  34   1    -0.02  -0.00   0.01    -0.00  -0.00   0.00     0.00   0.00  -0.00
  35   7     0.01  -0.01  -0.01     0.00  -0.00  -0.00     0.00  -0.00  -0.00
  36   1    -0.04   0.00   0.01    -0.00   0.00   0.00    -0.00   0.00   0.00
  37   1    -0.01   0.03   0.03    -0.00   0.00   0.00    -0.00   0.00   0.00
  38   6     0.00  -0.00   0.00     0.00   0.00  -0.01    -0.00  -0.00   0.00
  39   8    -0.00   0.00  -0.00    -0.00  -0.00   0.00    -0.00   0.00  -0.00
  40   7     0.00   0.00  -0.00     0.02   0.04  -0.30    -0.00  -0.00   0.01
  41   1    -0.00   0.00   0.00    -0.36   0.09   0.58     0.01  -0.00  -0.02
  42   1     0.00  -0.00   0.00     0.27  -0.22   0.56    -0.01   0.01  -0.02
  43   7    -0.00   0.00  -0.00    -0.00   0.00  -0.01    -0.00  -0.00   0.00
  44   1     0.00  -0.00   0.00     0.01  -0.02   0.03    -0.00   0.00  -0.00
  45   1     0.00  -0.00   0.00     0.00  -0.00  -0.00     0.00  -0.00   0.00
  46   6    -0.00  -0.00  -0.00     0.00  -0.00   0.00     0.01  -0.00   0.00
  47   8     0.00   0.00   0.00    -0.00   0.00   0.00    -0.00   0.00  -0.00
  48   7     0.00  -0.00   0.00     0.01  -0.00   0.00     0.28  -0.07   0.07
  49   1    -0.00   0.00  -0.00    -0.02   0.01  -0.00    -0.51   0.47  -0.02
  50   1    -0.01  -0.00  -0.00    -0.02  -0.01  -0.01    -0.56  -0.20  -0.26
  51   7     0.00  -0.00  -0.00    -0.00  -0.00  -0.00     0.02   0.01   0.01
  52   1     0.00   0.00   0.00     0.00   0.00   0.00    -0.07  -0.02  -0.04
  53   1     0.00   0.00   0.00    -0.00   0.00   0.00     0.00  -0.02  -0.01
