 Entering Gaussian System
 *********************************************
 Gaussian 98:
 frequency output generated by the xtb code
 *********************************************
                         Standard orientation:
 --------------------------------------------------------------------
  Center     Atomic     Atomic              Coordinates (Angstroms)
  Number     Number      Type              X           Y           Z
 --------------------------------------------------------------------
    1          8             0       -1.486839    0.040298   -0.407251
    2          6             0       -0.125993    0.151412   -0.765295
    3          1             0        0.074721   -0.650042   -1.479637
    4          1             0        0.050791    1.108865   -1.273223
    5          6             0        0.862435    0.101188    0.400399
    6          1             0        0.681414    0.930049    1.089857
    7          1             0        1.858389    0.190391   -0.037493
    8          7             0        0.861053   -1.139143    1.225492
    9          6             0       -0.352355   -1.201293    2.054439
   10          1             0       -0.389830   -0.314637    2.686925
   11          1             0       -0.327862   -2.091156    2.680137
   12          1             0       -1.232652   -1.233207    1.417186
   13          6             0        2.039602   -1.063840    2.105806
   14          1             0        1.974328   -0.158179    2.706842
   15          1             0        2.939590   -1.043485    1.494432
   16          1             0        2.068889   -1.930838    2.762478
   17          6             0        0.972597   -2.344758    0.393183
   18          1             0        1.083034   -3.220437    1.028918
   19          1             0        1.850305   -2.241836   -0.246338
   20          1             0        0.093567   -2.468561   -0.232183
   21          1             0       -1.711122    0.792504    0.190295
   22          6             0        3.624574   -1.306125   -2.212463
   23          8             0        3.332082   -1.091741   -1.042543
   24          7             0        4.826423   -0.925995   -2.724409
   25          1             0        5.524139   -0.601789   -2.078051
   26          1             0        5.139291   -1.247355   -3.622582
   27          7             0        2.787622   -1.920368   -3.076860
   28          1             0        3.018112   -1.982269   -4.051839
   29          1             0        1.830424   -2.112656   -2.813990
   30          6             0        0.311566    2.593919    3.635561
   31          8             0        0.644915    1.503946    3.188042
   32          7             0        0.919444    3.134377    4.723289
   33          1             0        1.732585    2.671917    5.088743
   34          1             0        0.746557    4.078966    5.014528
   35          7             0       -0.680110    3.326144    3.084811
   36          1             0       -1.002294    4.168429    3.524656
   37          1             0       -1.234734    2.917953    2.340043
   38          6             0       -1.248082   -2.783808   -2.831466
   39          8             0       -0.090475   -2.461862   -2.600462
   40          7             0       -2.290157   -2.295738   -2.111839
   41          1             0       -2.123387   -1.511546   -1.496103
   42          1             0       -3.235248   -2.458292   -2.409288
   43          7             0       -1.567663   -3.661866   -3.814523
   44          1             0       -2.493896   -4.036973   -3.909432
   45          1             0       -0.816795   -4.147509   -4.272599
   46          6             0       -3.209426    2.768217    0.270776
   47          8             0       -2.296710    2.262562    0.922978
   48          7             0       -3.846018    3.886073    0.681016
   49          1             0       -3.612020    4.278817    1.574811
   50          1             0       -4.626587    4.271159    0.181882
   51          7             0       -3.620068    2.238188   -0.899856
   52          1             0       -4.345352    2.654576   -1.453578
   53          1             0       -3.145297    1.421263   -1.247560
 --------------------------------------------------------------------
     1 basis functions        1 primitive gaussians
     1 alpha electrons        1 beta electrons

 Harmonic frequencies (cm**-1), IR intensities (km*mol⁻¹),
 Raman scattering activities (A**4/amu), Raman depolarization ratios,
 reduced masses (AMU), force constants (mDyne/A) and normal coordinates:
                      1                      2                      3
                        a                      a                      a 
 Frequencies --     4.3376                21.2904                23.0686
 Red. masses --    12.0527                12.0205                11.9136
 Frc consts  --     0.0000                 0.0000                 0.0000
 IR Inten    --     0.2230                 1.7185                 1.7510
 Raman Activ --     0.0000                 0.0000                 0.0000
 Depolar     --     0.0000                 0.0000                 0.0000
 Atom AN      X      Y      Z        X      Y      Z        X      Y      Z
   1   8    -0.01  -0.06   0.08     0.11   0.10  -0.04     0.14   0.02   0.02
   2   6    -0.02  -0.03   0.04     0.10   0.07  -0.05     0.14  -0.06   0.07
   3   1    -0.01  -0.01   0.01     0.02   0.01  -0.01     0.04  -0.03   0.03
   4   1    -0.01  -0.01   0.01     0.03   0.02  -0.02     0.06  -0.02   0.01
   5   6     0.01  -0.00   0.01     0.10   0.09  -0.05     0.09  -0.07   0.11
   6   1    -0.00  -0.00   0.01     0.03   0.03  -0.02     0.02  -0.02   0.03
   7   1    -0.00   0.01  -0.00     0.03   0.02  -0.02     0.03  -0.02   0.04
   8   7     0.07  -0.01   0.01     0.11   0.11  -0.03     0.06  -0.08   0.11
   9   6     0.08  -0.06   0.02     0.09   0.11  -0.04    -0.01  -0.12  -0.01
  10   1     0.01  -0.02   0.01     0.02   0.04  -0.02    -0.03  -0.04  -0.00
  11   1     0.03  -0.02   0.00     0.03   0.04  -0.00    -0.01  -0.04  -0.01
  12   1     0.02  -0.03   0.01     0.03   0.03  -0.01     0.01  -0.04  -0.03
  13   6     0.07   0.05   0.01     0.09   0.13  -0.02    -0.03  -0.04   0.21
  14   1     0.01   0.01   0.00     0.02   0.04  -0.01    -0.03  -0.02   0.06
  15   1     0.02   0.03   0.00     0.03   0.04  -0.00     0.01   0.00   0.09
  16   1     0.03   0.01   0.00     0.03   0.04   0.00    -0.01  -0.02   0.06
  17   6     0.12   0.00   0.01     0.12   0.09   0.00     0.18  -0.07   0.10
  18   1     0.05   0.00   0.00     0.03   0.03   0.01     0.05  -0.02   0.03
  19   1     0.03   0.01  -0.00     0.04   0.02   0.00     0.07  -0.01   0.05
  20   1     0.04  -0.01   0.00     0.04   0.02  -0.00     0.07  -0.03   0.00
  21   1    -0.00  -0.01   0.02     0.03   0.03  -0.01     0.04   0.02  -0.01
  22   6    -0.06   0.11  -0.12     0.06  -0.20  -0.09    -0.04   0.05  -0.03
  23   8    -0.01   0.12  -0.12     0.09  -0.02  -0.14     0.07   0.06  -0.01
  24   7    -0.12   0.17  -0.20     0.08  -0.38  -0.16    -0.13   0.16  -0.17
  25   1    -0.03   0.06  -0.07     0.03  -0.08  -0.06    -0.02   0.06  -0.07
  26   1    -0.04   0.05  -0.06     0.01  -0.14  -0.03    -0.05   0.04  -0.05
  27   7    -0.09   0.07  -0.07     0.02  -0.31   0.00    -0.09  -0.02   0.06
  28   1    -0.04   0.02  -0.02     0.00  -0.12   0.00    -0.05  -0.01   0.01
  29   1    -0.02   0.01  -0.00     0.00  -0.05   0.01    -0.01  -0.03   0.04
  30   6    -0.12  -0.09   0.12    -0.12   0.02   0.09    -0.01   0.00  -0.03
  31   8    -0.05  -0.04   0.04     0.03   0.14  -0.06    -0.16  -0.11   0.11
  32   7    -0.23  -0.18   0.22    -0.22  -0.05   0.18    -0.02   0.00  -0.03
  33   1    -0.06  -0.05   0.06    -0.04   0.01   0.03    -0.04  -0.03   0.03
  34   1    -0.07  -0.06   0.08    -0.09  -0.03   0.08     0.03   0.02  -0.03
  35   7    -0.12  -0.08   0.13    -0.24  -0.06   0.21     0.18   0.12  -0.21
  36   1    -0.06  -0.05   0.06    -0.10  -0.04   0.09     0.08   0.06  -0.09
  37   1    -0.02  -0.01   0.02    -0.04  -0.01   0.03     0.04   0.04  -0.05
  38   6    -0.05  -0.08   0.11    -0.03   0.07   0.01    -0.07   0.08   0.01
  39   8    -0.05  -0.07   0.09    -0.02  -0.03   0.08    -0.04  -0.19   0.25
  40   7    -0.04  -0.09   0.15    -0.03   0.18  -0.04    -0.09   0.28  -0.15
  41   1    -0.01  -0.02   0.04     0.00   0.04  -0.01    -0.00   0.05  -0.01
  42   1    -0.01  -0.03   0.05    -0.01   0.07  -0.02    -0.02   0.12  -0.08
  43   7    -0.07  -0.10   0.14    -0.07   0.12  -0.01    -0.09   0.21  -0.10
  44   1    -0.02  -0.03   0.05    -0.03   0.05  -0.02    -0.04   0.11  -0.07
  45   1    -0.02  -0.03   0.03    -0.02   0.01   0.01    -0.03   0.02   0.01
  46   6     0.15   0.09  -0.16    -0.06  -0.04   0.03    -0.02  -0.05  -0.07
  47   8     0.05   0.04  -0.05    -0.02   0.02   0.01     0.10   0.09  -0.13
  48   7     0.26   0.20  -0.30    -0.16  -0.11   0.07    -0.11  -0.09  -0.09
  49   1     0.07   0.07  -0.09    -0.04  -0.02   0.02    -0.02  -0.01  -0.03
  50   1     0.10   0.07  -0.11    -0.05  -0.04   0.02    -0.06  -0.06  -0.01
  51   7     0.22   0.07  -0.17    -0.03  -0.04   0.02    -0.08  -0.18   0.00
  52   1     0.08   0.03  -0.07    -0.02  -0.02   0.01    -0.04  -0.07   0.00
  53   1     0.04  -0.01  -0.02     0.01   0.00  -0.00     0.00  -0.03  -0.00
                      4                      5                      6
                        a                      a                      a 
 Frequencies --    26.5003                28.8490                33.2913
 Red. masses --    11.9154                11.9318                12.3564
 Frc consts  --     0.0000                 0.0000                 0.0000
 IR Inten    --     2.2862                 1.0162                 2.6123
 Raman Activ --     0.0000                 0.0000                 0.0000
 Depolar     --     0.0000                 0.0000                 0.0000
 Atom AN      X      Y      Z        X      Y      Z        X      Y      Z
   1   8    -0.15  -0.23   0.24     0.05  -0.02   0.01     0.05   0.06   0.13
   2   6    -0.16  -0.09   0.10     0.05   0.00   0.04     0.03   0.08   0.08
   3   1    -0.04  -0.02   0.03     0.02   0.01   0.01     0.00   0.04   0.00
   4   1    -0.08  -0.02   0.02     0.01   0.00   0.02     0.00   0.03   0.04
   5   6    -0.07  -0.01   0.03     0.03  -0.01   0.06     0.06  -0.00   0.05
   6   1    -0.02   0.00   0.01     0.01  -0.01   0.02     0.03  -0.01   0.03
   7   1    -0.03   0.01  -0.01     0.01  -0.01   0.02     0.01  -0.00   0.01
   8   7     0.05   0.01   0.07     0.00  -0.02   0.05     0.05  -0.05  -0.01
   9   6     0.13   0.01   0.20    -0.00  -0.01   0.04     0.07  -0.05   0.02
  10   1     0.05   0.01   0.05    -0.00  -0.00   0.01     0.03  -0.02   0.02
  11   1     0.07   0.01   0.07    -0.00  -0.00   0.01     0.02  -0.02  -0.00
  12   1     0.02  -0.01   0.08     0.00  -0.00   0.01     0.01  -0.00   0.01
  13   6     0.14   0.07  -0.06    -0.00  -0.04   0.06     0.07  -0.11  -0.03
  14   1     0.05   0.03  -0.03     0.00  -0.01   0.02     0.03  -0.04   0.00
  15   1     0.02   0.02  -0.05     0.00  -0.01   0.02     0.02  -0.03  -0.02
  16   1     0.06   0.03  -0.01    -0.01  -0.01   0.02     0.02  -0.04  -0.02
  17   6    -0.02  -0.01   0.09    -0.00  -0.01   0.04    -0.01  -0.01  -0.07
  18   1     0.02   0.00   0.03    -0.01  -0.01   0.01    -0.01  -0.01  -0.03
  19   1    -0.02  -0.00   0.00     0.00  -0.01   0.01    -0.00  -0.00  -0.02
  20   1    -0.02  -0.01   0.05    -0.00   0.00   0.01    -0.01   0.02  -0.02
  21   1    -0.04  -0.06   0.06     0.00  -0.02   0.02     0.01   0.02   0.03
  22   6    -0.04  -0.03   0.03    -0.05   0.02  -0.01     0.07  -0.01   0.02
  23   8    -0.08   0.01   0.02    -0.03  -0.01   0.01     0.06  -0.07   0.03
  24   7    -0.03  -0.06   0.04    -0.07   0.06  -0.03     0.15  -0.17   0.10
  25   1    -0.01  -0.01   0.01    -0.02   0.01  -0.01     0.05  -0.08   0.04
  26   1    -0.00  -0.02   0.02    -0.02   0.02  -0.01     0.04  -0.03   0.02
  27   7    -0.04  -0.05   0.03    -0.06   0.03  -0.00     0.01   0.20  -0.06
  28   1    -0.00  -0.02   0.01    -0.02   0.01  -0.00     0.01   0.06  -0.02
  29   1    -0.01  -0.01   0.01    -0.01   0.00   0.00    -0.01   0.08  -0.03
  30   6     0.04   0.07  -0.01     0.02   0.02  -0.03     0.03  -0.05  -0.02
  31   8     0.15   0.13  -0.04     0.04   0.02   0.00     0.02  -0.07   0.01
  32   7     0.04   0.13  -0.04     0.16   0.17  -0.18     0.01  -0.05  -0.01
  33   1     0.03   0.06  -0.03     0.06   0.07  -0.07    -0.00  -0.02   0.01
  34   1    -0.01   0.03  -0.01     0.02   0.04  -0.05     0.01  -0.01  -0.01
  35   7    -0.07  -0.03   0.06    -0.14  -0.11   0.08     0.07  -0.02  -0.06
  36   1    -0.05  -0.03   0.03    -0.03  -0.02   0.01     0.02  -0.01  -0.02
  37   1    -0.02  -0.02   0.03    -0.05  -0.05   0.04     0.01  -0.00  -0.01
  38   6    -0.00   0.08  -0.14    -0.04   0.05   0.02    -0.08   0.16   0.08
  39   8    -0.02   0.00   0.04    -0.04   0.02   0.04    -0.08   0.33  -0.17
  40   7    -0.06   0.01  -0.19    -0.04   0.07   0.02     0.01  -0.01   0.35
  41   1    -0.03  -0.03  -0.00    -0.00   0.01   0.01     0.01   0.00   0.08
  42   1    -0.01   0.02  -0.08    -0.01   0.03   0.00    -0.01  -0.02   0.14
  43   7     0.07   0.28  -0.35    -0.06   0.09  -0.01    -0.20   0.19   0.10
  44   1     0.02   0.08  -0.13    -0.02   0.03  -0.01    -0.05   0.02   0.08
  45   1     0.03   0.08  -0.09    -0.02   0.02  -0.00    -0.06   0.08  -0.03
  46   6     0.02  -0.07  -0.02     0.03  -0.08  -0.04    -0.09  -0.07  -0.13
  47   8    -0.09  -0.13   0.10    -0.16  -0.20   0.15    -0.09   0.08  -0.04
  48   7     0.19   0.09  -0.23    -0.20  -0.25   0.05    -0.18  -0.05  -0.31
  49   1     0.06   0.06  -0.08    -0.15  -0.13   0.07    -0.06   0.02  -0.09
  50   1     0.07   0.04  -0.09    -0.01  -0.05  -0.03    -0.05  -0.05  -0.10
  51   7    -0.01  -0.20   0.04     0.51   0.22  -0.35    -0.04  -0.27  -0.07
  52   1     0.02  -0.05  -0.01     0.16   0.07  -0.12    -0.00  -0.09  -0.05
  53   1    -0.03  -0.09   0.05     0.17   0.08  -0.09     0.02  -0.07   0.01
                      7                      8                      9
                        a                      a                      a 
 Frequencies --    41.6410                48.0261                51.9114
 Red. masses --    12.6163                12.5000                12.7733
 Frc consts  --     0.0000                 0.0000                 0.0000
 IR Inten    --     4.7060                 1.7377                 0.4100
 Raman Activ --     0.0000                 0.0000                 0.0000
 Depolar     --     0.0000                 0.0000                 0.0000
 Atom AN      X      Y      Z        X      Y      Z        X      Y      Z
   1   8    -0.15  -0.08   0.12    -0.01   0.06  -0.02    -0.07  -0.11   0.01
   2   6    -0.14   0.03   0.08    -0.01   0.01  -0.01    -0.08  -0.10  -0.07
   3   1    -0.03   0.02   0.01    -0.01   0.00  -0.01    -0.03  -0.04  -0.01
   4   1    -0.06   0.02   0.03     0.01   0.00  -0.00    -0.03  -0.04  -0.04
   5   6    -0.11   0.05   0.06    -0.00  -0.02  -0.02    -0.01  -0.03  -0.12
   6   1    -0.05  -0.00   0.03    -0.01  -0.01   0.00    -0.00  -0.00  -0.04
   7   1    -0.04   0.05   0.01    -0.00   0.00  -0.00    -0.01  -0.00  -0.05
   8   7     0.01   0.00  -0.01     0.02  -0.05  -0.06     0.09  -0.00  -0.08
   9   6     0.02  -0.17  -0.02    -0.04  -0.14  -0.14     0.10  -0.04  -0.05
  10   1    -0.02  -0.06   0.01    -0.04  -0.04  -0.04     0.01  -0.00  -0.03
  11   1     0.03  -0.06  -0.02    -0.01  -0.04  -0.04     0.05  -0.00  -0.00
  12   1     0.01  -0.06  -0.01     0.00  -0.05  -0.06     0.03  -0.04  -0.01
  13   6     0.00   0.08  -0.00    -0.05   0.00   0.03     0.10   0.11  -0.10
  14   1    -0.03   0.01   0.02    -0.04  -0.01   0.02     0.01   0.04  -0.04
  15   1     0.00   0.06   0.00    -0.00   0.03   0.03     0.02   0.05  -0.04
  16   1     0.03   0.01  -0.02    -0.01  -0.01  -0.00     0.05   0.04  -0.02
  17   6     0.14   0.06  -0.08     0.16  -0.02  -0.07     0.14  -0.03  -0.02
  18   1     0.07   0.01  -0.04     0.03  -0.01  -0.02     0.04  -0.00   0.01
  19   1     0.04   0.06  -0.02     0.06   0.01   0.01     0.05  -0.01   0.01
  20   1     0.05   0.00  -0.02     0.07  -0.01  -0.05     0.05  -0.02  -0.02
  21   1    -0.05  -0.03   0.03     0.00   0.01  -0.00    -0.01  -0.02  -0.00
  22   6     0.05  -0.02  -0.07     0.10   0.05   0.07     0.10   0.08   0.14
  23   8    -0.03   0.35  -0.17     0.17   0.19   0.06     0.22   0.04   0.20
  24   7     0.12  -0.24  -0.09     0.10  -0.03  -0.01     0.18  -0.18   0.14
  25   1     0.02  -0.02  -0.04     0.04   0.01  -0.02     0.07  -0.09   0.03
  26   1     0.04  -0.13   0.01     0.02  -0.03   0.00     0.01  -0.03   0.02
  27   7     0.10  -0.26   0.05     0.07  -0.01   0.16    -0.10   0.42   0.11
  28   1     0.04  -0.13   0.02     0.01  -0.03   0.04    -0.03   0.07   0.03
  29   1     0.01  -0.02   0.00     0.02   0.01   0.05    -0.02   0.10   0.05
  30   6    -0.04  -0.03  -0.01    -0.03  -0.08  -0.05    -0.04   0.01  -0.09
  31   8    -0.25  -0.18   0.20    -0.13  -0.11  -0.10    -0.01   0.06  -0.17
  32   7    -0.03   0.01  -0.03     0.35   0.05  -0.34    -0.17  -0.11   0.04
  33   1    -0.04  -0.03   0.03     0.11   0.02  -0.13    -0.05  -0.03   0.01
  34   1     0.04   0.03  -0.05     0.08  -0.00  -0.06    -0.03  -0.03   0.01
  35   7     0.19   0.12  -0.24    -0.30  -0.22   0.27     0.05   0.10  -0.15
  36   1     0.08   0.06  -0.09    -0.02  -0.02   0.05    -0.01  -0.00  -0.01
  37   1     0.03   0.02  -0.04    -0.09  -0.05   0.08     0.01   0.03  -0.04
  38   6     0.03   0.02   0.01    -0.05   0.00   0.06    -0.15  -0.06   0.01
  39   8     0.02   0.12  -0.02    -0.04  -0.07   0.10    -0.16  -0.20   0.10
  40   7     0.02  -0.12   0.09    -0.05   0.09   0.00    -0.16  -0.01  -0.04
  41   1    -0.01  -0.04   0.03    -0.01   0.02  -0.00    -0.04  -0.02   0.01
  42   1     0.01  -0.05   0.03    -0.01   0.03  -0.01    -0.04   0.02  -0.02
  43   7     0.08   0.06  -0.04    -0.07  -0.01   0.08    -0.18   0.02  -0.07
  44   1     0.03  -0.00  -0.01    -0.02   0.01   0.01    -0.06   0.03  -0.03
  45   1     0.03   0.04  -0.03    -0.02  -0.02   0.03    -0.05  -0.01  -0.01
  46   6    -0.02   0.05   0.04    -0.05   0.06   0.00     0.03   0.01   0.05
  47   8    -0.12  -0.05   0.10    -0.10   0.03   0.03     0.03  -0.06   0.01
  48   7    -0.00   0.05   0.08     0.11   0.20  -0.10     0.01  -0.05   0.18
  49   1    -0.03  -0.02   0.04     0.04   0.06  -0.03     0.01  -0.03   0.05
  50   1     0.01   0.03   0.01     0.02   0.05  -0.02     0.02   0.01   0.05
  51   7     0.08   0.18  -0.05    -0.17  -0.02   0.08     0.07   0.15  -0.03
  52   1     0.03   0.06  -0.02    -0.02   0.02   0.00     0.00   0.04   0.02
  53   1     0.01   0.04  -0.01    -0.05  -0.01   0.03     0.00   0.04  -0.02
                     10                     11                     12
                        a                      a                      a 
 Frequencies --    57.8649                58.8226                61.2556
 Red. masses --    12.4596                12.2403                13.0216
 Frc consts  --     0.0000                 0.0000                 0.0000
 IR Inten    --     0.0730                 6.9492                 1.1487
 Raman Activ --     0.0000                 0.0000                 0.0000
 Depolar     --     0.0000                 0.0000                 0.0000
 Atom AN      X      Y      Z        X      Y      Z        X      Y      Z
   1   8     0.07  -0.03  -0.00     0.12  -0.06  -0.13     0.06   0.04  -0.21
   2   6     0.08  -0.02   0.06     0.12  -0.05  -0.05     0.07   0.10  -0.11
   3   1     0.03  -0.01   0.02     0.04  -0.02  -0.01     0.04   0.04  -0.04
   4   1     0.03  -0.01   0.02     0.04  -0.02  -0.01     0.02   0.04  -0.02
   5   6     0.03  -0.02   0.10     0.06  -0.04  -0.00    -0.01   0.09  -0.04
   6   1     0.00  -0.01   0.03     0.01  -0.01  -0.01    -0.02   0.03  -0.01
   7   1     0.01  -0.01   0.04     0.02  -0.02   0.01     0.00   0.03   0.01
   8   7    -0.00  -0.03   0.10    -0.00  -0.03   0.02    -0.08   0.09  -0.06
   9   6    -0.05  -0.04   0.03    -0.05   0.00  -0.05    -0.11   0.08  -0.11
  10   1    -0.03  -0.01   0.01    -0.02   0.01  -0.02    -0.05   0.03  -0.04
  11   1    -0.02  -0.01   0.01    -0.02   0.01  -0.00    -0.04   0.03  -0.03
  12   1    -0.00  -0.01  -0.01    -0.00  -0.01  -0.03    -0.02   0.02  -0.04
  13   6    -0.06  -0.02   0.17    -0.06  -0.02   0.09    -0.12   0.06   0.01
  14   1    -0.03  -0.01   0.05    -0.02  -0.00   0.02    -0.04   0.01   0.01
  15   1    -0.01  -0.00   0.07    -0.00  -0.01   0.04    -0.03   0.02   0.02
  16   1    -0.03  -0.01   0.05    -0.03  -0.00   0.03    -0.05   0.01  -0.00
  17   6     0.06  -0.01   0.08     0.04  -0.04   0.05    -0.05   0.10  -0.07
  18   1     0.03  -0.00   0.02    -0.00  -0.01   0.02    -0.03   0.02  -0.02
  19   1     0.02   0.01   0.02     0.02  -0.02   0.03    -0.00   0.03  -0.00
  20   1     0.02  -0.01   0.02     0.02  -0.01   0.00    -0.00   0.04  -0.04
  21   1     0.01  -0.01  -0.00     0.02  -0.02  -0.03     0.01  -0.03  -0.01
  22   6    -0.03  -0.04  -0.18     0.02  -0.03  -0.00    -0.01   0.05   0.04
  23   8    -0.03  -0.18  -0.18     0.04  -0.10   0.01    -0.04   0.19   0.02
  24   7     0.11  -0.32  -0.06    -0.04   0.15  -0.04     0.02  -0.04   0.05
  25   1     0.04  -0.16   0.01    -0.01   0.05  -0.01     0.00   0.00   0.01
  26   1     0.01  -0.06  -0.03    -0.01   0.05  -0.01     0.01  -0.03   0.02
  27   7    -0.19   0.41  -0.35     0.08  -0.13   0.01    -0.00   0.01   0.08
  28   1    -0.03   0.10  -0.09     0.01  -0.01  -0.00     0.01  -0.03   0.03
  29   1    -0.05   0.10  -0.09     0.02  -0.04   0.00    -0.00   0.01   0.02
  30   6    -0.10   0.06   0.02    -0.12   0.07  -0.07     0.00   0.04   0.04
  31   8    -0.17   0.01   0.14    -0.10   0.09  -0.07    -0.04   0.00   0.11
  32   7    -0.03   0.20  -0.09    -0.14   0.11  -0.09    -0.03   0.05   0.06
  33   1    -0.01   0.06  -0.01    -0.03   0.04  -0.02    -0.01   0.01   0.03
  34   1    -0.01   0.06  -0.04    -0.04   0.03  -0.03     0.01   0.02  -0.01
  35   7    -0.14   0.02  -0.00    -0.16   0.03  -0.07     0.10   0.09  -0.06
  36   1    -0.02   0.03  -0.03    -0.05   0.01  -0.02     0.01   0.01  -0.01
  37   1    -0.04  -0.01   0.01    -0.04  -0.00  -0.02     0.01  -0.00   0.01
  38   6     0.08  -0.00  -0.01    -0.02   0.03   0.02    -0.09   0.02  -0.02
  39   8     0.08   0.03   0.02     0.01  -0.01  -0.12    -0.09   0.03  -0.08
  40   7     0.05   0.03  -0.08     0.10  -0.26   0.41    -0.07   0.14  -0.06
  41   1     0.01   0.01  -0.02     0.04  -0.07   0.11    -0.01   0.05  -0.03
  42   1     0.02  -0.00  -0.02     0.02  -0.04   0.12    -0.02   0.03  -0.00
  43   7     0.14  -0.07   0.04    -0.20   0.34  -0.21    -0.13  -0.10   0.11
  44   1     0.04  -0.02   0.00    -0.05   0.08  -0.02    -0.04  -0.02   0.04
  45   1     0.05  -0.02   0.03    -0.07   0.13  -0.12    -0.04  -0.04   0.04
  46   6     0.02   0.00   0.05     0.07  -0.02   0.06     0.14  -0.25   0.07
  47   8    -0.02  -0.09   0.04     0.08  -0.16  -0.03     0.01  -0.36   0.23
  48   7     0.15   0.09   0.04     0.24   0.03   0.16     0.31  -0.10  -0.12
  49   1     0.04   0.00   0.02     0.08  -0.02   0.05     0.06  -0.03  -0.02
  50   1     0.03   0.03   0.03     0.05   0.03   0.07     0.09  -0.03  -0.04
  51   7    -0.07   0.02   0.07    -0.07   0.06   0.08     0.15  -0.35   0.11
  52   1     0.01   0.04   0.01    -0.00   0.05   0.03     0.10  -0.05  -0.02
  53   1    -0.03   0.01   0.01    -0.04   0.02  -0.01     0.05  -0.10   0.04
                     13                     14                     15
                        a                      a                      a 
 Frequencies --    67.6298                73.7238                82.8423
 Red. masses --    13.3231                12.6200                13.8134
 Frc consts  --     0.0000                 0.0000                 0.0000
 IR Inten    --     0.7396                 6.7530                 5.7055
 Raman Activ --     0.0000                 0.0000                 0.0000
 Depolar     --     0.0000                 0.0000                 0.0000
 Atom AN      X      Y      Z        X      Y      Z        X      Y      Z
   1   8    -0.05  -0.00  -0.09    -0.08   0.16   0.07     0.04   0.12  -0.17
   2   6    -0.04  -0.04  -0.07    -0.07   0.02  -0.01     0.06   0.11  -0.07
   3   1    -0.01  -0.03  -0.00    -0.05  -0.00   0.00     0.03   0.04  -0.02
   4   1    -0.01  -0.02  -0.04    -0.01  -0.00  -0.01     0.03   0.04  -0.01
   5   6    -0.08   0.06  -0.03    -0.03  -0.03  -0.05     0.02   0.07  -0.03
   6   1    -0.04   0.02  -0.02     0.01  -0.00  -0.02     0.01   0.02  -0.01
   7   1    -0.02   0.02  -0.00    -0.01  -0.03  -0.02     0.01   0.01  -0.00
   8   7    -0.06   0.09   0.01    -0.08  -0.01  -0.02    -0.05   0.07  -0.05
   9   6    -0.08   0.08  -0.02    -0.13  -0.02  -0.11    -0.06   0.11  -0.06
  10   1    -0.03   0.02  -0.01    -0.07   0.01  -0.06    -0.00   0.02  -0.01
  11   1    -0.02   0.02  -0.00    -0.04   0.01  -0.01    -0.04   0.02  -0.03
  12   1    -0.02   0.02  -0.01    -0.02  -0.04  -0.05    -0.02   0.05  -0.02
  13   6    -0.08   0.15   0.04    -0.15   0.05   0.07    -0.05  -0.01  -0.03
  14   1    -0.04   0.04   0.01    -0.06   0.02   0.01     0.00  -0.01  -0.01
  15   1    -0.02   0.05   0.02    -0.03   0.02   0.04    -0.01  -0.02  -0.01
  16   1    -0.02   0.05   0.02    -0.05   0.02   0.03    -0.03  -0.01  -0.01
  17   6    -0.00   0.06   0.05     0.03  -0.03   0.02    -0.09   0.06  -0.04
  18   1     0.01   0.03   0.02    -0.00  -0.00   0.01    -0.04   0.02  -0.01
  19   1    -0.00   0.03   0.01     0.03  -0.01   0.03    -0.02   0.01  -0.01
  20   1    -0.00  -0.00   0.02     0.03  -0.02  -0.02    -0.02   0.03  -0.02
  21   1     0.00   0.01  -0.03     0.02   0.02   0.05    -0.01   0.02  -0.03
  22   6    -0.05   0.06  -0.00     0.02  -0.04  -0.05    -0.04   0.02  -0.00
  23   8    -0.13   0.22  -0.05     0.08  -0.15  -0.02    -0.02   0.06  -0.01
  24   7     0.05  -0.16   0.07    -0.01   0.00  -0.09    -0.02  -0.09  -0.02
  25   1     0.01  -0.04   0.02     0.01  -0.02  -0.03     0.00  -0.03  -0.01
  26   1     0.02  -0.06   0.03    -0.01   0.02  -0.03    -0.01  -0.03  -0.01
  27   7    -0.07   0.13  -0.03    -0.02   0.02  -0.06    -0.12   0.12  -0.00
  28   1     0.01  -0.02   0.00    -0.02   0.03  -0.02    -0.02  -0.01   0.00
  29   1    -0.02   0.04  -0.01    -0.00  -0.00  -0.00    -0.02   0.01   0.02
  30   6     0.06  -0.01   0.15    -0.01   0.06  -0.07     0.13  -0.11   0.02
  31   8    -0.03  -0.06   0.21    -0.18   0.13  -0.35     0.26  -0.12   0.08
  32   7     0.23   0.05   0.04     0.10  -0.26   0.03    -0.00  -0.06   0.07
  33   1     0.05  -0.00   0.02     0.03  -0.11  -0.05     0.01   0.01   0.03
  34   1     0.05   0.01   0.03     0.07  -0.07   0.05    -0.01  -0.01  -0.01
  35   7    -0.01  -0.05   0.26     0.06   0.31   0.11     0.16  -0.17  -0.11
  36   1     0.06   0.04   0.02     0.02   0.05   0.10    -0.00  -0.07  -0.02
  37   1     0.02   0.01   0.04    -0.02   0.11   0.04     0.03  -0.07  -0.01
  38   6    -0.02  -0.10  -0.04     0.08  -0.03   0.03     0.09  -0.06   0.14
  39   8    -0.02  -0.15  -0.01     0.06  -0.02   0.14     0.12  -0.27   0.38
  40   7    -0.01  -0.27   0.09     0.03  -0.17   0.06     0.08  -0.11   0.16
  41   1    -0.00  -0.08   0.03    -0.01  -0.05   0.02     0.02  -0.04   0.06
  42   1    -0.00  -0.05   0.01     0.01  -0.04  -0.01     0.03   0.03  -0.01
  43   7    -0.04   0.09  -0.21     0.17   0.08  -0.10     0.11   0.21  -0.10
  44   1    -0.01   0.02  -0.06     0.05   0.01  -0.05     0.02   0.08  -0.06
  45   1    -0.01   0.04  -0.08     0.06   0.04  -0.03     0.03   0.05  -0.02
  46   6     0.11  -0.02  -0.09     0.02  -0.01   0.10    -0.14   0.00  -0.02
  47   8     0.35   0.20  -0.24    -0.04   0.10   0.30    -0.32  -0.14   0.07
  48   7    -0.10  -0.19   0.00    -0.09   0.00  -0.10    -0.00   0.13  -0.11
  49   1     0.00  -0.02  -0.02    -0.06   0.03  -0.03    -0.03   0.00  -0.01
  50   1    -0.05  -0.08   0.01    -0.01  -0.02  -0.07     0.00   0.04  -0.03
  51   7     0.08  -0.12  -0.05     0.22  -0.14   0.10    -0.14   0.06  -0.06
  52   1    -0.04  -0.09   0.03     0.07  -0.07  -0.01     0.02   0.07  -0.05
  53   1     0.04  -0.02  -0.02     0.08  -0.05   0.07    -0.04   0.02  -0.02
                     16                     17                     18
                        a                      a                      a 
 Frequencies --    88.7317                97.7438               101.5980
 Red. masses --    13.7350                13.2991                12.4806
 Frc consts  --     0.0000                 0.0000                 0.0000
 IR Inten    --    15.1849                 7.0500                16.5288
 Raman Activ --     0.0000                 0.0000                 0.0000
 Depolar     --     0.0000                 0.0000                 0.0000
 Atom AN      X      Y      Z        X      Y      Z        X      Y      Z
   1   8     0.05  -0.01   0.03    -0.04  -0.12  -0.04    -0.10  -0.02   0.04
   2   6     0.06  -0.07   0.06    -0.04   0.03  -0.03    -0.11  -0.00  -0.05
   3   1     0.02  -0.03   0.02     0.01   0.02  -0.02    -0.03  -0.00  -0.01
   4   1     0.03  -0.03   0.01    -0.03   0.02   0.01    -0.05  -0.00  -0.02
   5   6     0.01  -0.08   0.09    -0.05   0.03  -0.02    -0.07   0.04  -0.09
   6   1     0.00  -0.02   0.03    -0.02   0.00  -0.00    -0.02   0.01  -0.03
   7   1     0.01  -0.03   0.03    -0.02   0.02  -0.00    -0.03   0.02  -0.04
   8   7    -0.03  -0.10   0.08    -0.03   0.01  -0.04    -0.01   0.05  -0.09
   9   6    -0.05  -0.08   0.05    -0.00  -0.00   0.00     0.09   0.07   0.06
  10   1    -0.01  -0.02   0.01     0.00  -0.00  -0.00     0.05   0.02   0.02
  11   1    -0.03  -0.02   0.01     0.01  -0.00   0.00     0.05   0.02   0.02
  12   1    -0.01  -0.01   0.01    -0.01  -0.00   0.01     0.00   0.02   0.05
  13   6    -0.05  -0.13   0.10     0.01  -0.01  -0.09     0.10   0.04  -0.23
  14   1    -0.01  -0.03   0.02     0.01  -0.00  -0.02     0.05   0.01  -0.07
  15   1    -0.01  -0.05   0.03    -0.01  -0.00  -0.04     0.01   0.01  -0.10
  16   1    -0.03  -0.04   0.03     0.01  -0.00  -0.03     0.05   0.02  -0.06
  17   6    -0.04  -0.08   0.05    -0.07   0.02  -0.05    -0.14   0.02  -0.06
  18   1     0.01  -0.03   0.01    -0.02   0.00  -0.02    -0.02   0.01  -0.01
  19   1    -0.03  -0.01  -0.01    -0.02   0.00  -0.02    -0.07  -0.00  -0.06
  20   1    -0.02  -0.03   0.03    -0.02   0.01  -0.01    -0.07   0.00   0.02
  21   1     0.02   0.00  -0.00    -0.02  -0.03  -0.01    -0.01  -0.01   0.02
  22   6    -0.06   0.13  -0.05    -0.12  -0.00   0.05     0.06  -0.04  -0.05
  23   8    -0.38   0.45  -0.18    -0.03   0.06   0.08    -0.12  -0.21  -0.08
  24   7     0.11  -0.10   0.19    -0.15  -0.10  -0.05     0.10   0.12   0.15
  25   1    -0.02   0.02   0.08    -0.02  -0.03  -0.03    -0.01   0.03   0.08
  26   1     0.08  -0.07   0.09    -0.06  -0.05  -0.02     0.07   0.07   0.04
  27   7     0.09   0.02  -0.12    -0.23   0.01   0.14     0.21  -0.01  -0.23
  28   1     0.09  -0.08  -0.01    -0.08   0.00   0.03     0.09   0.01  -0.05
  29   1     0.01   0.02  -0.07    -0.06   0.03   0.05     0.06  -0.04  -0.08
  30   6     0.03   0.02  -0.14    -0.05  -0.07  -0.12    -0.11  -0.04   0.01
  31   8     0.17   0.15  -0.37    -0.04  -0.05  -0.20    -0.32  -0.14   0.10
  32   7    -0.07  -0.14  -0.00    -0.03  -0.12  -0.12     0.05  -0.02  -0.10
  33   1     0.01  -0.02  -0.04    -0.01  -0.03  -0.04    -0.02  -0.04  -0.01
  34   1    -0.03  -0.05   0.03    -0.02  -0.04  -0.01     0.04   0.00  -0.03
  35   7    -0.03   0.03  -0.03    -0.09  -0.09  -0.06    -0.05   0.05   0.00
  36   1    -0.05  -0.04   0.05    -0.01  -0.02  -0.02     0.04   0.05  -0.03
  37   1    -0.00   0.02  -0.02    -0.01  -0.01  -0.04    -0.02   0.02   0.01
  38   6     0.04   0.01   0.03     0.09   0.18   0.16     0.05   0.03   0.14
  39   8     0.09  -0.14  -0.01     0.06   0.35   0.28     0.13  -0.27   0.23
  40   7     0.11   0.15   0.04     0.00   0.09   0.08     0.11   0.26   0.08
  41   1     0.05   0.04   0.01    -0.03   0.02   0.03     0.05   0.05   0.04
  42   1     0.02   0.07   0.01     0.01  -0.01   0.01     0.03   0.11   0.01
  43   7    -0.10   0.02   0.06     0.31   0.14   0.16    -0.11   0.14   0.11
  44   1    -0.04   0.04   0.03     0.10   0.01   0.01    -0.05   0.09   0.02
  45   1    -0.05  -0.02   0.01     0.11   0.07   0.06    -0.06  -0.02   0.04
  46   6     0.01   0.01   0.01     0.13  -0.07  -0.04     0.05  -0.03   0.01
  47   8     0.04   0.02  -0.01     0.27  -0.05  -0.20     0.08  -0.01   0.01
  48   7    -0.01  -0.02   0.05     0.12  -0.15   0.12     0.03  -0.05   0.02
  49   1     0.01   0.00   0.00     0.08  -0.04   0.02     0.02  -0.00  -0.00
  50   1     0.00   0.00   0.01     0.02  -0.03   0.06     0.01  -0.01  -0.00
  51   7    -0.00   0.01   0.01     0.01  -0.05  -0.01     0.08  -0.03   0.01
  52   1    -0.01  -0.00   0.01    -0.03  -0.02   0.03    -0.00  -0.03   0.02
  53   1     0.00   0.01   0.00     0.00  -0.00  -0.03     0.01  -0.02   0.02
                     19                     20                     21
                        a                      a                      a 
 Frequencies --   108.6127               113.9896               134.0813
 Red. masses --    12.4049                11.4938                12.5016
 Frc consts  --     0.0000                 0.0000                 0.0000
 IR Inten    --     7.2702                24.6642                 9.2752
 Raman Activ --     0.0000                 0.0000                 0.0000
 Depolar     --     0.0000                 0.0000                 0.0000
 Atom AN      X      Y      Z        X      Y      Z        X      Y      Z
   1   8    -0.21  -0.14   0.01    -0.02   0.08   0.07    -0.12  -0.11   0.01
   2   6    -0.19  -0.11  -0.01    -0.03   0.10   0.04    -0.12  -0.05  -0.02
   3   1    -0.05  -0.04   0.00    -0.02   0.05  -0.02    -0.02  -0.01  -0.01
   4   1    -0.06  -0.03  -0.01    -0.01   0.05   0.05    -0.05  -0.01  -0.01
   5   6    -0.17  -0.04  -0.03    -0.00  -0.08   0.01    -0.10  -0.03  -0.04
   6   1    -0.04  -0.00  -0.02     0.02  -0.04   0.03    -0.04  -0.01  -0.01
   7   1    -0.05  -0.01  -0.01    -0.00  -0.02   0.00    -0.03   0.01  -0.01
   8   7    -0.15  -0.00   0.03    -0.05  -0.20  -0.15    -0.03  -0.05  -0.07
   9   6    -0.21  -0.07  -0.08    -0.02  -0.19  -0.10    -0.04  -0.15  -0.08
  10   1    -0.09  -0.02  -0.03     0.02  -0.07  -0.00    -0.03  -0.05  -0.02
  11   1    -0.06  -0.01  -0.02    -0.02  -0.07  -0.05     0.01  -0.05  -0.03
  12   1    -0.04  -0.04  -0.05    -0.01  -0.02  -0.02    -0.01  -0.06  -0.03
  13   6    -0.23   0.12   0.14    -0.02  -0.36  -0.17    -0.05   0.05  -0.04
  14   1    -0.10   0.04   0.03     0.02  -0.12  -0.02    -0.04   0.01  -0.01
  15   1    -0.05   0.04   0.07    -0.01  -0.10  -0.06    -0.01   0.04  -0.01
  16   1    -0.07   0.04   0.05    -0.01  -0.13  -0.08     0.00   0.02  -0.01
  17   6     0.07  -0.01   0.07    -0.14  -0.09  -0.29     0.10  -0.03  -0.07
  18   1     0.03   0.00   0.03    -0.06  -0.05  -0.12     0.05  -0.01  -0.02
  19   1     0.04   0.02   0.04    -0.04  -0.02  -0.08     0.03   0.01  -0.01
  20   1     0.04  -0.03  -0.01    -0.04   0.01  -0.09     0.04  -0.03  -0.02
  21   1    -0.05  -0.02  -0.01     0.00   0.02   0.03    -0.04  -0.02  -0.01
  22   6     0.19  -0.01  -0.10     0.06   0.04  -0.01    -0.10  -0.04   0.06
  23   8     0.18  -0.13  -0.11     0.10   0.10  -0.02     0.05  -0.04   0.12
  24   7     0.19   0.11  -0.08     0.05  -0.02  -0.07    -0.16  -0.09  -0.09
  25   1     0.05   0.02  -0.01     0.02   0.01  -0.03    -0.01  -0.04  -0.05
  26   1     0.06   0.04  -0.02     0.00  -0.01  -0.02    -0.08  -0.02  -0.04
  27   7     0.25  -0.02  -0.16     0.02   0.01   0.04    -0.24   0.05   0.14
  28   1     0.06   0.03  -0.05    -0.00  -0.01   0.01    -0.08  -0.01   0.04
  29   1     0.07  -0.00  -0.04     0.01   0.01   0.02    -0.05  -0.01   0.05
  30   6     0.13   0.02   0.03    -0.03   0.18   0.08     0.06   0.09   0.09
  31   8     0.33   0.09   0.01     0.08   0.22   0.15     0.04   0.12   0.05
  32   7    -0.02   0.06   0.10    -0.14   0.33   0.09     0.07   0.05   0.12
  33   1     0.01   0.05   0.03    -0.02   0.12   0.03     0.02   0.01   0.02
  34   1    -0.04   0.01   0.02    -0.05   0.09  -0.01     0.03   0.01   0.03
  35   7     0.06  -0.10   0.00    -0.09   0.09   0.04     0.06   0.13   0.12
  36   1    -0.03  -0.05   0.01    -0.05   0.02   0.01     0.00   0.02   0.05
  37   1     0.04  -0.04  -0.01    -0.01   0.01   0.01     0.01   0.03   0.04
  38   6    -0.05   0.10   0.10    -0.00  -0.05   0.05     0.18   0.04  -0.04
  39   8    -0.06   0.12   0.14    -0.02  -0.10   0.19     0.31  -0.14  -0.27
  40   7    -0.09   0.13   0.03    -0.05  -0.07   0.00     0.40   0.25   0.09
  41   1    -0.04   0.03   0.02    -0.02  -0.02   0.01     0.14   0.06   0.02
  42   1    -0.02   0.02   0.00    -0.01  -0.00  -0.03     0.09   0.08   0.08
  43   7    -0.00   0.07   0.12     0.07   0.02  -0.03    -0.12   0.03   0.08
  44   1    -0.00   0.02   0.02     0.02   0.01  -0.04    -0.06   0.06   0.06
  45   1     0.00   0.02   0.04     0.03   0.01   0.01    -0.08  -0.03  -0.01
  46   6     0.01  -0.04  -0.06     0.06   0.02   0.03    -0.03  -0.02  -0.04
  47   8     0.04  -0.07  -0.12     0.13   0.11   0.02    -0.06  -0.07  -0.06
  48   7     0.01  -0.08   0.03    -0.02  -0.04   0.02    -0.02  -0.03  -0.01
  49   1     0.04  -0.01  -0.01     0.01   0.02  -0.01     0.02   0.00  -0.02
  50   1     0.02   0.01   0.00     0.00  -0.01  -0.01     0.02   0.03  -0.02
  51   7    -0.03   0.01  -0.07     0.09  -0.05   0.05    -0.04   0.04  -0.08
  52   1    -0.04  -0.01   0.01    -0.01  -0.05   0.03    -0.04   0.00   0.00
  53   1    -0.03  -0.01  -0.02     0.03  -0.02   0.03    -0.04  -0.01  -0.02
                     22                     23                     24
                        a                      a                      a 
 Frequencies --   137.3890               144.5839               153.1930
 Red. masses --    11.6338                11.5641                10.2555
 Frc consts  --     0.0000                 0.0000                 0.0000
 IR Inten    --    33.6679                17.1428                 8.3976
 Raman Activ --     0.0000                 0.0000                 0.0000
 Depolar     --     0.0000                 0.0000                 0.0000
 Atom AN      X      Y      Z        X      Y      Z        X      Y      Z
   1   8    -0.02  -0.04   0.18     0.08  -0.24  -0.14    -0.03   0.02   0.01
   2   6    -0.03   0.21   0.18     0.08  -0.03   0.00    -0.03  -0.26  -0.12
   3   1     0.03   0.10   0.02     0.06   0.01  -0.01    -0.06  -0.12  -0.00
   4   1    -0.05   0.09   0.10     0.01   0.01   0.02     0.02  -0.11  -0.09
   5   6    -0.06   0.17   0.21    -0.00   0.00   0.08     0.08  -0.23  -0.22
   6   1    -0.03   0.04   0.07    -0.03  -0.01   0.02     0.08  -0.02  -0.10
   7   1    -0.01   0.06   0.07     0.01   0.02   0.04     0.01  -0.14  -0.10
   8   7    -0.13   0.12   0.13    -0.02  -0.03   0.04    -0.07  -0.08   0.02
   9   6    -0.08   0.11   0.19     0.03   0.02   0.12    -0.03   0.28   0.10
  10   1     0.00   0.02   0.07     0.03   0.00   0.04     0.04   0.12  -0.03
  11   1    -0.02   0.02   0.04     0.01  -0.00   0.03    -0.03   0.12   0.09
  12   1    -0.03   0.05   0.07    -0.00   0.03   0.05    -0.02   0.07   0.05
  13   6    -0.07  -0.08   0.07     0.04  -0.13  -0.04    -0.01  -0.07  -0.05
  14   1     0.01  -0.03   0.04     0.04  -0.04  -0.01     0.03   0.00  -0.04
  15   1    -0.03  -0.04   0.01     0.00  -0.06  -0.03    -0.01  -0.06  -0.03
  16   1    -0.04  -0.04   0.00     0.01  -0.04  -0.01    -0.01   0.00   0.02
  17   6    -0.24   0.21  -0.03    -0.15   0.01  -0.03    -0.24  -0.23   0.23
  18   1    -0.07   0.04  -0.05    -0.04  -0.01  -0.02    -0.09  -0.04   0.11
  19   1    -0.08   0.07  -0.02    -0.06  -0.00  -0.03    -0.08  -0.13   0.05
  20   1    -0.08   0.10   0.00    -0.06   0.03   0.01    -0.08  -0.07   0.08
  21   1    -0.04  -0.01   0.04    -0.03  -0.06  -0.05     0.04   0.02  -0.00
  22   6     0.13   0.02  -0.04     0.08   0.03  -0.03     0.09   0.10  -0.04
  23   8     0.32   0.03  -0.01     0.10   0.06  -0.04     0.21   0.27  -0.05
  24   7     0.07  -0.02  -0.25     0.07   0.01  -0.08     0.07  -0.05  -0.23
  25   1     0.05  -0.02  -0.10     0.03   0.00  -0.03     0.05  -0.01  -0.10
  26   1    -0.02  -0.03  -0.08     0.01  -0.01  -0.02    -0.01  -0.06  -0.06
  27   7     0.00   0.05   0.06     0.07   0.00  -0.01    -0.01   0.04   0.10
  28   1    -0.03   0.00   0.01     0.01   0.00  -0.00    -0.02  -0.02   0.02
  29   1     0.01   0.00   0.04     0.02   0.01   0.00    -0.00   0.04   0.04
  30   6    -0.02  -0.07  -0.10     0.03   0.11   0.11    -0.04  -0.02   0.03
  31   8     0.00  -0.07  -0.15    -0.18   0.14  -0.06    -0.09  -0.08   0.11
  32   7    -0.02  -0.11  -0.10     0.21  -0.13   0.14    -0.02   0.04  -0.01
  33   1    -0.01  -0.03  -0.03     0.04  -0.09   0.00    -0.01   0.01   0.01
  34   1    -0.01  -0.04  -0.01     0.10  -0.04   0.08     0.01   0.02  -0.02
  35   7    -0.04  -0.09  -0.08     0.09   0.32   0.26    -0.00  -0.02  -0.03
  36   1    -0.01  -0.02  -0.02     0.05   0.09   0.09     0.01   0.01  -0.02
  37   1    -0.00  -0.02  -0.03     0.01   0.11   0.07    -0.01  -0.01   0.00
  38   6     0.02  -0.09  -0.07    -0.05   0.01   0.03     0.04   0.06   0.00
  39   8     0.06  -0.22  -0.12    -0.08   0.05   0.09     0.06   0.08  -0.07
  40   7     0.09   0.00  -0.02    -0.10  -0.03  -0.01     0.07   0.07   0.03
  41   1     0.05  -0.00  -0.01    -0.03  -0.01   0.00     0.01   0.02   0.00
  42   1     0.02   0.03   0.00    -0.02  -0.01  -0.01     0.02   0.00   0.02
  43   7    -0.13  -0.06  -0.07     0.02   0.01   0.01     0.01   0.02   0.05
  44   1    -0.05   0.00   0.01     0.01  -0.01  -0.00     0.00   0.01   0.01
  45   1    -0.06  -0.04  -0.02     0.02   0.01   0.02    -0.00   0.01  -0.00
  46   6     0.05  -0.02  -0.01    -0.07  -0.06  -0.11    -0.02   0.02   0.04
  47   8     0.10   0.00  -0.05    -0.12  -0.21  -0.20    -0.05   0.04   0.09
  48   7     0.02  -0.07   0.06     0.09   0.02  -0.04    -0.04   0.03  -0.02
  49   1     0.05   0.02  -0.01    -0.06  -0.12   0.06    -0.01   0.03  -0.01
  50   1     0.04   0.02  -0.01    -0.07  -0.07   0.09     0.01   0.02  -0.03
  51   7     0.04  -0.01  -0.01    -0.25   0.06  -0.13     0.05   0.00   0.03
  52   1    -0.04  -0.04   0.04     0.06   0.15  -0.09    -0.00  -0.02   0.01
  53   1    -0.02  -0.03   0.01    -0.01   0.09  -0.13     0.00  -0.02   0.03
                     25                     26                     27
                        a                      a                      a 
 Frequencies --   168.7940               191.2417               245.2451
 Red. masses --     4.2170                10.2616                 2.4071
 Frc consts  --     0.0000                 0.0000                 0.0000
 IR Inten    --     6.6595                 3.3205               101.3652
 Raman Activ --     0.0000                 0.0000                 0.0000
 Depolar     --     0.0000                 0.0000                 0.0000
 Atom AN      X      Y      Z        X      Y      Z        X      Y      Z
   1   8    -0.10   0.06   0.02    -0.09   0.28  -0.50     0.02  -0.06   0.02
   2   6    -0.08  -0.02   0.01     0.04  -0.14  -0.09     0.01  -0.03  -0.01
   3   1    -0.03  -0.01   0.01     0.02  -0.10   0.04     0.01  -0.01   0.00
   4   1    -0.01  -0.01  -0.01     0.10  -0.08  -0.08    -0.01  -0.01  -0.01
   5   6    -0.07  -0.01   0.00    -0.28   0.00   0.18     0.01   0.02  -0.01
   6   1    -0.02  -0.00   0.00    -0.19  -0.03   0.06    -0.01   0.01  -0.01
   7   1    -0.02   0.00  -0.00    -0.06   0.09   0.12     0.00   0.01  -0.00
   8   7    -0.03  -0.01   0.01    -0.04  -0.06   0.13    -0.00   0.03   0.00
   9   6    -0.01  -0.04   0.03     0.08  -0.23   0.27    -0.01   0.02  -0.00
  10   1    -0.00  -0.01   0.01     0.07  -0.13   0.18    -0.00  -0.00   0.01
  11   1     0.01  -0.01   0.01     0.01  -0.14  -0.02    -0.00  -0.00  -0.01
  12   1    -0.01  -0.02   0.02    -0.00   0.04   0.11    -0.00   0.01  -0.00
  13   6    -0.01   0.05  -0.02     0.10   0.05  -0.08    -0.01   0.01   0.01
  14   1    -0.00   0.02  -0.01     0.06   0.04  -0.06    -0.00  -0.00   0.01
  15   1    -0.01   0.02  -0.01     0.00  -0.01  -0.07    -0.00   0.01   0.00
  16   1     0.01   0.02  -0.00     0.06   0.04   0.01    -0.00  -0.00  -0.00
  17   6     0.00  -0.01   0.01    -0.02  -0.01   0.05    -0.01   0.03  -0.01
  18   1     0.02   0.00   0.01     0.13   0.00  -0.00     0.01   0.01  -0.01
  19   1    -0.01   0.01  -0.00    -0.07   0.07  -0.07    -0.01   0.01  -0.01
  20   1    -0.00  -0.02   0.01    -0.06  -0.07   0.11    -0.01   0.01   0.00
  21   1    -0.01   0.00   0.03     0.01   0.05  -0.09     0.00  -0.01  -0.00
  22   6     0.01  -0.01   0.00     0.04  -0.00  -0.01     0.00  -0.00   0.00
  23   8     0.04  -0.01   0.01     0.10  -0.02   0.01     0.00  -0.01   0.00
  24   7    -0.00  -0.00  -0.03     0.02  -0.01  -0.08    -0.00   0.01   0.00
  25   1     0.01  -0.00  -0.01     0.02  -0.01  -0.03     0.00  -0.00   0.00
  26   1    -0.01  -0.00  -0.01    -0.01  -0.01  -0.02     0.00   0.00   0.00
  27   7    -0.01   0.01   0.01     0.01   0.01   0.02    -0.00   0.00  -0.00
  28   1    -0.01  -0.00   0.00    -0.01   0.02   0.00     0.00  -0.00   0.00
  29   1    -0.00  -0.00   0.01     0.00   0.01   0.01     0.00  -0.00  -0.00
  30   6    -0.00  -0.02  -0.04     0.00   0.00  -0.02     0.00  -0.03  -0.02
  31   8     0.09  -0.01  -0.03     0.03   0.01  -0.03    -0.04  -0.05   0.02
  32   7    -0.08   0.03  -0.03    -0.02   0.00  -0.00    -0.16  -0.08   0.19
  33   1    -0.03   0.01   0.02     0.01   0.01  -0.02     0.23   0.17  -0.30
  34   1    -0.07  -0.01   0.02     0.01   0.01  -0.02     0.45   0.25  -0.50
  35   7    -0.06  -0.12  -0.04    -0.00   0.00  -0.02     0.05   0.04  -0.06
  36   1     0.05   0.04  -0.09    -0.02  -0.02   0.02    -0.24  -0.22   0.25
  37   1     0.02  -0.00  -0.05    -0.01  -0.01   0.01    -0.08  -0.08   0.10
  38   6     0.03  -0.01  -0.01    -0.01   0.02   0.00     0.00   0.00   0.00
  39   8     0.05  -0.05  -0.04    -0.01   0.04  -0.01     0.00  -0.00   0.00
  40   7     0.06   0.03   0.00    -0.01  -0.01   0.03     0.00   0.01  -0.00
  41   1     0.01   0.01   0.00    -0.01   0.02  -0.03    -0.00  -0.00   0.00
  42   1     0.01   0.00   0.01     0.00   0.01  -0.02    -0.00  -0.01   0.01
  43   7    -0.03   0.00   0.00    -0.00   0.02   0.01    -0.00   0.00   0.00
  44   1    -0.01   0.01   0.01     0.00  -0.00   0.01    -0.00   0.00  -0.00
  45   1    -0.02  -0.01  -0.00     0.00   0.01   0.00    -0.00   0.00  -0.00
  46   6     0.05   0.03   0.03     0.01   0.01   0.03     0.03   0.03  -0.01
  47   8     0.11   0.13   0.03    -0.00   0.05   0.09     0.06   0.06  -0.03
  48   7     0.13   0.17  -0.12    -0.05  -0.00  -0.01    -0.03   0.00  -0.00
  49   1    -0.28  -0.24   0.18     0.02   0.06  -0.04    -0.01   0.00  -0.00
  50   1    -0.32  -0.32   0.23     0.04   0.04  -0.06    -0.03  -0.03   0.02
  51   7    -0.07  -0.17   0.16     0.07  -0.03   0.04    -0.03  -0.03   0.04
  52   1     0.32   0.23  -0.20    -0.02  -0.05   0.03     0.07   0.06  -0.04
  53   1     0.24   0.18  -0.12     0.00  -0.03   0.04     0.05   0.04  -0.03
                     28                     29                     30
                        a                      a                      a 
 Frequencies --   248.4172               266.4786               305.4871
 Red. masses --    12.6758                 4.2349                 2.7766
 Frc consts  --     0.0000                 0.0000                 0.0000
 IR Inten    --     3.1125                 2.9924                97.7384
 Raman Activ --     0.0000                 0.0000                 0.0000
 Depolar     --     0.0000                 0.0000                 0.0000
 Atom AN      X      Y      Z        X      Y      Z        X      Y      Z
   1   8     0.22  -0.62  -0.11     0.03   0.08   0.29     0.01  -0.02   0.02
   2   6     0.18  -0.20  -0.13    -0.00  -0.22   0.03    -0.00   0.02   0.01
   3   1     0.11  -0.06  -0.02    -0.05  -0.15   0.09     0.00   0.01  -0.01
   4   1    -0.02  -0.05  -0.05     0.01  -0.13  -0.11    -0.01   0.01   0.01
   5   6    -0.01   0.09   0.01     0.06   0.05  -0.03     0.01  -0.01  -0.01
   6   1    -0.08   0.02  -0.01    -0.01   0.02  -0.02     0.01  -0.00  -0.00
   7   1     0.02   0.07   0.06     0.02   0.03   0.00     0.00  -0.01  -0.01
   8   7    -0.05   0.08  -0.03     0.03   0.07  -0.04    -0.00  -0.01  -0.01
   9   6    -0.05  -0.02  -0.02    -0.06   0.11  -0.17    -0.01  -0.02  -0.02
  10   1    -0.04   0.00  -0.02     0.12  -0.10   0.14    -0.02   0.01  -0.03
  11   1     0.03   0.01   0.01    -0.18  -0.12  -0.25     0.01   0.01   0.02
  12   1    -0.02  -0.06   0.00    -0.01   0.32  -0.07    -0.00  -0.04  -0.01
  13   6    -0.08  -0.00   0.00    -0.04  -0.07   0.04    -0.00   0.02  -0.01
  14   1    -0.02   0.00   0.00     0.09   0.06  -0.10     0.00   0.02  -0.02
  15   1    -0.02  -0.02   0.01     0.01  -0.21   0.03    -0.00  -0.01  -0.00
  16   1    -0.04  -0.00   0.00    -0.15   0.06   0.13    -0.01   0.02   0.01
  17   6    -0.07   0.15  -0.15     0.04   0.11  -0.12    -0.01  -0.03   0.01
  18   1     0.05   0.03  -0.07     0.33   0.06  -0.05     0.05   0.00   0.01
  19   1    -0.06   0.09  -0.09    -0.15   0.18  -0.24    -0.03   0.01  -0.03
  20   1    -0.05   0.02   0.01    -0.13  -0.13   0.19    -0.03  -0.03   0.05
  21   1     0.02  -0.17  -0.03     0.04   0.08   0.01    -0.00  -0.01   0.01
  22   6     0.00  -0.01   0.01    -0.00  -0.00   0.02    -0.00   0.01   0.00
  23   8     0.02  -0.02   0.02     0.01  -0.01   0.03     0.00   0.01   0.01
  24   7    -0.01  -0.00  -0.00    -0.01  -0.00   0.02     0.00  -0.04   0.01
  25   1    -0.00   0.00  -0.00    -0.00   0.01   0.00    -0.00   0.03  -0.02
  26   1    -0.01   0.01  -0.01    -0.01   0.02  -0.00    -0.03   0.06  -0.03
  27   7    -0.01   0.01   0.01    -0.02  -0.00   0.03    -0.00  -0.01   0.01
  28   1     0.00  -0.01   0.01    -0.00  -0.00   0.01    -0.01   0.01   0.00
  29   1    -0.00  -0.01   0.00    -0.01   0.00   0.00    -0.00   0.01   0.00
  30   6    -0.00  -0.01  -0.01    -0.01  -0.00   0.00     0.00  -0.00   0.00
  31   8     0.04  -0.01   0.01    -0.02  -0.00  -0.00     0.00  -0.00   0.00
  32   7    -0.01   0.03  -0.03     0.01  -0.00  -0.01    -0.00   0.00   0.00
  33   1    -0.03   0.00   0.03    -0.01  -0.01   0.01     0.00   0.00  -0.00
  34   1    -0.06  -0.02   0.04    -0.01  -0.01   0.02     0.00   0.00  -0.01
  35   7    -0.01  -0.04  -0.01    -0.00   0.02   0.00     0.00  -0.00  -0.00
  36   1     0.03   0.01  -0.03     0.00   0.01  -0.00    -0.00  -0.00   0.00
  37   1     0.00   0.00  -0.01    -0.00   0.00   0.00    -0.00  -0.00   0.00
  38   6    -0.00   0.03   0.02    -0.00   0.00   0.00     0.03  -0.01   0.03
  39   8     0.00   0.02   0.03    -0.00   0.01   0.01     0.01   0.01   0.02
  40   7    -0.00   0.04   0.01    -0.02  -0.00  -0.01    -0.01  -0.05   0.05
  41   1     0.01   0.00   0.01    -0.01  -0.01   0.01     0.01   0.06  -0.08
  42   1    -0.00   0.00   0.01    -0.00  -0.01   0.01     0.03   0.21  -0.22
  43   7    -0.00   0.02   0.04     0.01   0.00   0.00    -0.07   0.22  -0.27
  44   1    -0.00   0.01   0.00     0.00   0.00  -0.01     0.14  -0.51   0.57
  45   1    -0.00   0.01   0.00     0.01   0.01  -0.00     0.03  -0.22   0.29
  46   6    -0.01   0.14   0.13    -0.01  -0.04  -0.02     0.00   0.00   0.00
  47   8    -0.01   0.23   0.18    -0.02  -0.07  -0.03     0.00   0.00   0.00
  48   7    -0.20   0.14  -0.08     0.06  -0.02   0.01    -0.00   0.00  -0.00
  49   1    -0.09   0.10  -0.04     0.01  -0.04   0.02    -0.00   0.00  -0.00
  50   1    -0.04  -0.01  -0.08    -0.01  -0.01   0.03    -0.00  -0.00  -0.00
  51   7     0.11   0.00   0.15    -0.02   0.01  -0.04     0.00  -0.00   0.00
  52   1     0.02  -0.04   0.02    -0.00   0.01  -0.01     0.00   0.00  -0.00
  53   1     0.04  -0.00   0.07    -0.02  -0.01  -0.01     0.00   0.00   0.00
                     31                     32                     33
                        a                      a                      a 
 Frequencies --   306.9892               315.3514               318.2035
 Red. masses --     2.6601                 5.6201                 5.1494
 Frc consts  --     0.0000                 0.0000                 0.0000
 IR Inten    --    93.4585                18.0003                59.6123
 Raman Activ --     0.0000                 0.0000                 0.0000
 Depolar     --     0.0000                 0.0000                 0.0000
 Atom AN      X      Y      Z        X      Y      Z        X      Y      Z
   1   8     0.05  -0.00   0.05     0.21   0.20   0.22     0.15   0.04   0.14
   2   6     0.03   0.00  -0.00     0.12  -0.09  -0.04     0.08   0.08  -0.01
   3   1     0.00  -0.01   0.01    -0.01  -0.09   0.04     0.01   0.03  -0.01
   4   1     0.01  -0.00  -0.01     0.06  -0.07  -0.09     0.02   0.03   0.01
   5   6     0.01   0.02   0.00     0.03   0.01  -0.02     0.04  -0.02  -0.02
   6   1    -0.01  -0.00   0.00    -0.00   0.01  -0.02     0.02  -0.00  -0.01
   7   1     0.01   0.02   0.01     0.02  -0.01   0.02     0.02  -0.03   0.01
   8   7    -0.00   0.00  -0.02    -0.11   0.01  -0.02    -0.09  -0.02  -0.03
   9   6    -0.01  -0.05  -0.03    -0.04  -0.19   0.07    -0.04  -0.17   0.02
  10   1    -0.02  -0.01  -0.01    -0.18   0.07  -0.16    -0.07  -0.02  -0.04
  11   1     0.01  -0.01  -0.01     0.19   0.09   0.21     0.07  -0.01   0.05
  12   1    -0.00  -0.02  -0.01    -0.02  -0.37   0.04    -0.02  -0.15   0.02
  13   6    -0.01   0.05  -0.03    -0.08   0.15  -0.07    -0.05   0.19  -0.09
  14   1    -0.01   0.02  -0.01    -0.09   0.00   0.03     0.00   0.11  -0.11
  15   1    -0.00   0.02  -0.01    -0.04   0.15  -0.04    -0.02  -0.01  -0.04
  16   1     0.01   0.02  -0.00     0.07   0.01  -0.07    -0.01   0.12   0.06
  17   6    -0.03  -0.02   0.00    -0.15   0.05  -0.08    -0.11  -0.07   0.03
  18   1     0.01   0.00   0.01     0.15   0.03  -0.04     0.06   0.00   0.02
  19   1    -0.02  -0.01  -0.02    -0.15   0.10  -0.16    -0.09   0.00  -0.07
  20   1    -0.02  -0.02   0.02    -0.14  -0.07   0.12    -0.08  -0.07   0.09
  21   1     0.01   0.00   0.01     0.10   0.07   0.04     0.03   0.00   0.04
  22   6    -0.01   0.00   0.03     0.01  -0.00   0.01     0.01   0.00  -0.00
  23   8    -0.02  -0.01   0.02     0.02  -0.00   0.01     0.01   0.01  -0.00
  24   7    -0.06   0.28  -0.14     0.00  -0.02   0.00     0.01  -0.01  -0.00
  25   1     0.05  -0.33   0.11     0.00   0.02  -0.01     0.00   0.02  -0.01
  26   1     0.19  -0.68   0.29    -0.02   0.05  -0.03    -0.01   0.04  -0.02
  27   7     0.04  -0.09   0.02    -0.00   0.01   0.01     0.00   0.01   0.01
  28   1    -0.12   0.36  -0.05     0.01  -0.02   0.01     0.01  -0.04   0.01
  29   1    -0.03   0.10  -0.02    -0.00  -0.00   0.00     0.00  -0.01   0.00
  30   6     0.00   0.00   0.00     0.03   0.01  -0.01    -0.03  -0.03   0.04
  31   8     0.00   0.00  -0.00     0.02   0.02  -0.01    -0.01  -0.03   0.04
  32   7    -0.00   0.00   0.00    -0.03  -0.02   0.06     0.09   0.06  -0.11
  33   1     0.00   0.00   0.00     0.03   0.02  -0.03    -0.05  -0.03   0.07
  34   1    -0.00   0.00  -0.00     0.06   0.03  -0.06    -0.13  -0.06   0.13
  35   7     0.00  -0.00   0.00    -0.02  -0.04   0.04     0.08   0.08  -0.08
  36   1     0.01   0.00  -0.00     0.08   0.07  -0.08    -0.19  -0.17   0.19
  37   1     0.00   0.00  -0.00     0.02   0.02  -0.02    -0.04  -0.05   0.05
  38   6     0.00  -0.02   0.00    -0.01   0.00  -0.01    -0.01  -0.01  -0.01
  39   8     0.00  -0.03   0.01    -0.02   0.01   0.00    -0.01  -0.00   0.00
  40   7     0.00  -0.00  -0.00    -0.02  -0.02   0.01    -0.01  -0.01  -0.01
  41   1     0.00   0.00  -0.00    -0.00   0.00  -0.01    -0.00  -0.01   0.01
  42   1     0.00   0.02  -0.01    -0.00   0.01  -0.02    -0.01  -0.02   0.02
  43   7    -0.01   0.01  -0.03     0.03  -0.03   0.01     0.01  -0.02   0.00
  44   1     0.00  -0.03   0.03    -0.00   0.03  -0.05    -0.01   0.03  -0.04
  45   1    -0.00  -0.02   0.02     0.01   0.02  -0.02     0.00   0.01  -0.02
  46   6    -0.00   0.00  -0.00    -0.06  -0.07  -0.02     0.07   0.06  -0.07
  47   8    -0.00  -0.00  -0.00    -0.05  -0.07  -0.05     0.03   0.02  -0.04
  48   7    -0.00  -0.00   0.00     0.13   0.05  -0.02    -0.13  -0.15   0.12
  49   1     0.00   0.00  -0.00    -0.03  -0.10   0.06     0.14   0.12  -0.09
  50   1     0.01   0.01  -0.00    -0.08  -0.08   0.11     0.19   0.19  -0.14
  51   7    -0.01  -0.00   0.00     0.03   0.07  -0.11    -0.17  -0.11   0.08
  52   1     0.01   0.01  -0.01    -0.16  -0.12   0.09     0.30   0.27  -0.22
  53   1     0.00   0.00  -0.00    -0.08  -0.06   0.04     0.12   0.12  -0.10
                     34                     35                     36
                        a                      a                      a 
 Frequencies --   322.3581               343.2426               360.8377
 Red. masses --     5.6749                 4.0323                 3.3147
 Frc consts  --     0.0000                 0.0000                 0.0000
 IR Inten    --    16.2596                 9.0152               551.5411
 Raman Activ --     0.0000                 0.0000                 0.0000
 Depolar     --     0.0000                 0.0000                 0.0000
 Atom AN      X      Y      Z        X      Y      Z        X      Y      Z
   1   8     0.17  -0.13   0.07    -0.18  -0.04  -0.23     0.02  -0.03  -0.01
   2   6     0.08   0.27  -0.03    -0.10   0.20   0.08     0.01   0.06   0.02
   3   1     0.05   0.16  -0.09     0.01   0.11  -0.03     0.01   0.03  -0.01
   4   1    -0.03   0.15   0.10    -0.04   0.11   0.11    -0.00   0.03   0.03
   5   6     0.03  -0.04  -0.03    -0.01  -0.02   0.05     0.03  -0.02  -0.01
   6   1     0.02  -0.03   0.01     0.04  -0.01   0.03     0.03  -0.01   0.01
   7   1     0.02  -0.03   0.01    -0.01  -0.01  -0.01     0.00  -0.02  -0.01
   8   7    -0.09  -0.06  -0.05     0.07  -0.05   0.01    -0.00  -0.02  -0.01
   9   6    -0.04  -0.21   0.01     0.02   0.14  -0.05    -0.02   0.01  -0.04
  10   1     0.05  -0.15   0.13    -0.11   0.19  -0.23     0.02  -0.03   0.03
  11   1    -0.06  -0.16  -0.14     0.09   0.20   0.22    -0.05  -0.03  -0.06
  12   1    -0.03   0.09   0.01     0.03  -0.23  -0.03    -0.00   0.07  -0.02
  13   6    -0.04   0.29  -0.13     0.05  -0.17   0.05     0.01   0.05  -0.02
  14   1     0.08   0.24  -0.27     0.17   0.08  -0.16    -0.07  -0.04   0.07
  15   1    -0.01  -0.17  -0.05     0.03  -0.34   0.02    -0.01   0.14  -0.01
  16   1    -0.10   0.26   0.20    -0.17   0.08   0.20     0.08  -0.04  -0.08
  17   6    -0.10  -0.20   0.15     0.16  -0.06   0.02    -0.02  -0.06   0.05
  18   1    -0.09  -0.03   0.09     0.30   0.01   0.00     0.09   0.00   0.03
  19   1    -0.01  -0.12   0.07    -0.08   0.10  -0.15    -0.06   0.01  -0.05
  20   1    -0.01  -0.04   0.01    -0.05  -0.16   0.16    -0.05  -0.07   0.09
  21   1     0.01  -0.04   0.02    -0.09  -0.06  -0.01    -0.02  -0.03   0.02
  22   6     0.01   0.01  -0.01     0.00  -0.00   0.00     0.01  -0.01   0.00
  23   8     0.00   0.02  -0.01     0.01  -0.00   0.01     0.01  -0.01   0.00
  24   7     0.02  -0.02  -0.01    -0.00   0.02  -0.00    -0.00   0.02  -0.01
  25   1     0.00   0.02  -0.02     0.00  -0.01   0.01     0.00  -0.01   0.00
  26   1    -0.01   0.03  -0.02     0.01  -0.04   0.02     0.00   0.00  -0.00
  27   7     0.01   0.01  -0.00    -0.00   0.00   0.01    -0.01   0.03   0.00
  28   1     0.01  -0.02   0.00    -0.00  -0.00   0.00     0.03  -0.07   0.01
  29   1     0.01  -0.00   0.00    -0.00   0.00   0.00     0.00  -0.01   0.00
  30   6     0.01   0.01  -0.01     0.00  -0.00   0.00     0.06   0.06  -0.06
  31   8     0.00   0.01  -0.01    -0.01  -0.01   0.01     0.02   0.05  -0.06
  32   7    -0.03  -0.02   0.05    -0.02  -0.00   0.02    -0.12  -0.08   0.16
  33   1     0.02   0.01  -0.03     0.01   0.00  -0.01     0.06   0.03  -0.09
  34   1     0.06   0.03  -0.06     0.04   0.02  -0.04     0.18   0.08  -0.16
  35   7    -0.02  -0.03   0.03    -0.01  -0.02   0.01    -0.13  -0.15   0.13
  36   1     0.07   0.06  -0.07     0.04   0.03  -0.04     0.40   0.34  -0.39
  37   1     0.02   0.01  -0.02     0.01   0.01  -0.01     0.03   0.05  -0.06
  38   6    -0.01  -0.01  -0.01    -0.00   0.00  -0.01    -0.00  -0.00   0.00
  39   8    -0.02   0.00   0.01    -0.00  -0.00  -0.00    -0.00  -0.00   0.00
  40   7    -0.00  -0.00  -0.01    -0.01  -0.02   0.00    -0.00   0.01  -0.02
  41   1     0.02  -0.01   0.01     0.00   0.01  -0.01    -0.01  -0.01   0.01
  42   1    -0.00   0.01   0.00     0.00   0.02  -0.02    -0.00  -0.03   0.03
  43   7    -0.00  -0.02   0.01    -0.01  -0.03   0.03    -0.01   0.00  -0.01
  44   1    -0.01   0.02  -0.03    -0.02   0.06  -0.05    -0.00  -0.00   0.00
  45   1    -0.00   0.01  -0.02    -0.02   0.01  -0.03    -0.00  -0.00   0.00
  46   6    -0.03  -0.01   0.03     0.01   0.01   0.01     0.03   0.03  -0.02
  47   8    -0.01   0.00   0.01     0.02   0.02   0.01    -0.01  -0.00   0.02
  48   7     0.04   0.08  -0.05    -0.02   0.00  -0.01    -0.10  -0.09   0.07
  49   1    -0.07  -0.05   0.04    -0.01   0.01  -0.01     0.06   0.07  -0.05
  50   1    -0.09  -0.08   0.06     0.00   0.00  -0.02     0.21   0.21  -0.17
  51   7     0.08   0.06  -0.03     0.01  -0.00   0.02    -0.09  -0.07   0.06
  52   1    -0.14  -0.12   0.10    -0.01  -0.01   0.01     0.18   0.14  -0.12
  53   1    -0.05  -0.05   0.05     0.01   0.00  -0.00     0.06   0.05  -0.04
                     37                     38                     39
                        a                      a                      a 
 Frequencies --   363.2372               368.2634               393.4267
 Red. masses --     6.2226                 4.7746                 3.4971
 Frc consts  --     0.0000                 0.0000                 0.0000
 IR Inten    --    25.1756                35.7588               160.7667
 Raman Activ --     0.0000                 0.0000                 0.0000
 Depolar     --     0.0000                 0.0000                 0.0000
 Atom AN      X      Y      Z        X      Y      Z        X      Y      Z
   1   8    -0.02   0.10   0.02    -0.06  -0.08  -0.14     0.01  -0.01  -0.02
   2   6    -0.05  -0.09  -0.15    -0.07   0.24  -0.08    -0.00   0.05  -0.02
   3   1    -0.06  -0.03  -0.05    -0.01   0.16  -0.13    -0.00   0.02  -0.02
   4   1     0.01  -0.04  -0.06    -0.05   0.15   0.11    -0.01   0.03   0.01
   5   6     0.05  -0.11  -0.20     0.14  -0.18  -0.21     0.00  -0.01  -0.01
   6   1     0.06   0.01  -0.10     0.18  -0.01  -0.07     0.01  -0.00  -0.00
   7   1     0.01  -0.11  -0.08     0.02  -0.17  -0.14     0.00  -0.01  -0.00
   8   7    -0.01   0.02   0.01     0.01  -0.06   0.00    -0.01  -0.01  -0.01
   9   6     0.20  -0.10   0.31     0.13  -0.02   0.18     0.01   0.01   0.02
  10   1     0.09  -0.02   0.08     0.14  -0.06   0.14     0.01   0.01   0.00
  11   1     0.15  -0.02   0.10     0.01  -0.07  -0.04     0.01   0.01   0.01
  12   1    -0.00  -0.07   0.18    -0.01   0.12   0.10    -0.00   0.01   0.02
  13   6    -0.17  -0.01   0.22    -0.13   0.07   0.20    -0.03   0.00   0.01
  14   1     0.02   0.11  -0.09    -0.20  -0.08   0.20    -0.03  -0.01   0.02
  15   1     0.01  -0.22   0.14    -0.01   0.25   0.11    -0.00   0.03   0.01
  16   1    -0.23   0.11   0.22     0.06  -0.08  -0.08     0.00  -0.01  -0.01
  17   6     0.02   0.23  -0.27    -0.01  -0.02  -0.05     0.01  -0.02   0.00
  18   1    -0.15  -0.01  -0.15     0.25   0.00  -0.05     0.06   0.00   0.00
  19   1     0.09   0.06   0.03    -0.14   0.11  -0.19    -0.02   0.01  -0.03
  20   1     0.07   0.19  -0.20    -0.12  -0.10   0.17    -0.02  -0.04   0.03
  21   1     0.03   0.03   0.02    -0.05  -0.05  -0.00    -0.01  -0.01  -0.00
  22   6    -0.02  -0.01  -0.01     0.01  -0.02   0.00    -0.04   0.11  -0.01
  23   8    -0.01   0.00  -0.00     0.01  -0.01   0.01    -0.00   0.09   0.01
  24   7    -0.01   0.02   0.03    -0.01   0.04   0.00     0.03  -0.21   0.09
  25   1    -0.01  -0.00   0.02    -0.00  -0.01   0.02     0.01   0.05  -0.04
  26   1     0.02  -0.03   0.03     0.02  -0.04   0.03    -0.12   0.25  -0.13
  27   7    -0.02  -0.00  -0.00    -0.02   0.02   0.01     0.11  -0.25  -0.00
  28   1    -0.00  -0.01   0.00     0.02  -0.06   0.01    -0.26   0.68  -0.12
  29   1    -0.00  -0.00   0.00    -0.00  -0.01   0.00    -0.01   0.10  -0.00
  30   6     0.01   0.01  -0.01    -0.02  -0.01   0.01     0.00   0.00  -0.00
  31   8    -0.00   0.01  -0.00    -0.01  -0.01   0.01     0.00   0.00  -0.00
  32   7    -0.02  -0.02   0.04     0.03   0.01  -0.04    -0.00  -0.00   0.00
  33   1     0.01   0.00  -0.02    -0.01  -0.01   0.01     0.00   0.00  -0.00
  34   1     0.05   0.02  -0.04    -0.05  -0.03   0.05     0.01   0.00  -0.01
  35   7    -0.03  -0.04   0.03     0.03   0.04  -0.03    -0.00  -0.01   0.00
  36   1     0.10   0.08  -0.10    -0.10  -0.08   0.09     0.01   0.01  -0.01
  37   1     0.01   0.01  -0.01    -0.00  -0.01   0.01    -0.00  -0.00  -0.00
  38   6    -0.00  -0.01   0.02     0.00   0.00   0.00    -0.00  -0.06   0.03
  39   8     0.01  -0.01   0.01    -0.00   0.00   0.01    -0.01  -0.05   0.05
  40   7     0.01   0.03  -0.01    -0.01  -0.01  -0.00     0.05   0.11  -0.09
  41   1    -0.01  -0.01   0.02     0.00  -0.00  -0.00    -0.01  -0.02   0.04
  42   1    -0.00  -0.06   0.05     0.00   0.03  -0.03    -0.02  -0.26   0.25
  43   7     0.01   0.03  -0.02    -0.01  -0.01   0.02    -0.02   0.03  -0.07
  44   1     0.02  -0.04   0.04    -0.01   0.03  -0.02     0.00  -0.02   0.01
  45   1     0.01  -0.01   0.03    -0.01   0.00  -0.01     0.00  -0.04   0.04
  46   6     0.00  -0.00  -0.02     0.00   0.01   0.02     0.00   0.00   0.00
  47   8    -0.01  -0.01  -0.01     0.02   0.01   0.00     0.00   0.00   0.01
  48   7    -0.01  -0.03   0.03     0.00   0.03  -0.03    -0.01  -0.00  -0.00
  49   1     0.03   0.01  -0.01    -0.03  -0.00   0.00    -0.00   0.00  -0.00
  50   1     0.06   0.06  -0.03    -0.06  -0.06   0.03     0.01   0.00  -0.01
  51   7    -0.04  -0.02  -0.00     0.03   0.02   0.00    -0.00   0.00   0.01
  52   1     0.05   0.05  -0.04    -0.05  -0.04   0.04     0.00   0.01  -0.00
  53   1     0.01   0.01  -0.01    -0.01  -0.01   0.01     0.00   0.00  -0.00
                     40                     41                     42
                        a                      a                      a 
 Frequencies --   405.7718               427.3578               457.6696
 Red. masses --     3.2822                 8.6554                 2.9889
 Frc consts  --     0.0000                 0.0000                 0.0000
 IR Inten    --   509.6290                 8.8886                 8.4852
 Raman Activ --     0.0000                 0.0000                 0.0000
 Depolar     --     0.0000                 0.0000                 0.0000
 Atom AN      X      Y      Z        X      Y      Z        X      Y      Z
   1   8    -0.03  -0.01   0.00     0.20  -0.01   0.16    -0.00   0.02  -0.00
   2   6    -0.02  -0.04   0.02     0.07   0.09  -0.13     0.02  -0.04   0.08
   3   1    -0.01  -0.02   0.01     0.02   0.03  -0.04    -0.00  -0.00   0.01
   4   1    -0.01  -0.01  -0.01    -0.00   0.03  -0.03     0.03  -0.01   0.04
   5   6     0.03  -0.00  -0.02    -0.15   0.02  -0.02     0.03  -0.12   0.05
   6   1     0.02   0.01  -0.01    -0.11  -0.02   0.01     0.05  -0.02   0.00
   7   1     0.00  -0.01  -0.02    -0.01   0.05   0.07     0.00  -0.07  -0.01
   8   7     0.05   0.02  -0.00    -0.29  -0.06  -0.12    -0.05  -0.08   0.07
   9   6     0.04  -0.02  -0.02    -0.07   0.20   0.29    -0.10   0.06   0.02
  10   1     0.01  -0.02   0.02     0.12   0.07   0.07    -0.01   0.03  -0.01
  11   1     0.01  -0.02  -0.03    -0.00   0.07   0.10    -0.07   0.03   0.02
  12   1     0.01   0.01  -0.01    -0.09   0.11   0.18    -0.02   0.04  -0.01
  13   6     0.01   0.03   0.06    -0.22  -0.14  -0.24     0.04   0.09  -0.07
  14   1    -0.01   0.01   0.01    -0.03  -0.06  -0.03     0.01   0.04  -0.04
  15   1     0.01  -0.00   0.03    -0.08  -0.02  -0.09    -0.01   0.04  -0.06
  16   1    -0.01   0.01   0.02    -0.04  -0.07  -0.10     0.06   0.04   0.00
  17   6    -0.05   0.03  -0.03     0.39  -0.10   0.01     0.03   0.05  -0.10
  18   1    -0.06  -0.00  -0.02     0.19   0.01   0.04     0.01  -0.02  -0.07
  19   1    -0.00  -0.02   0.00     0.16   0.09   0.08     0.02   0.06  -0.01
  20   1    -0.01   0.05  -0.02     0.20  -0.18  -0.08     0.02   0.04  -0.05
  21   1    -0.00  -0.02   0.02     0.06   0.01   0.03    -0.01   0.00  -0.00
  22   6    -0.02   0.05   0.00    -0.01  -0.01  -0.02    -0.00  -0.02  -0.04
  23   8    -0.01   0.04   0.01     0.01  -0.00  -0.02     0.04  -0.00  -0.04
  24   7     0.01  -0.10   0.03     0.00   0.01   0.03     0.02   0.01   0.05
  25   1     0.01   0.02  -0.02    -0.02   0.01   0.03    -0.05   0.08   0.03
  26   1    -0.06   0.11  -0.06     0.03  -0.00   0.02     0.07  -0.01   0.04
  27   7     0.05  -0.10  -0.00    -0.03  -0.01  -0.00    -0.06  -0.01   0.01
  28   1    -0.12   0.32  -0.06    -0.03   0.02  -0.01    -0.05   0.02  -0.01
  29   1     0.00   0.02   0.01    -0.00  -0.01   0.01    -0.01  -0.01   0.03
  30   6     0.00   0.00  -0.00    -0.01   0.01  -0.00    -0.01  -0.01  -0.00
  31   8    -0.00   0.00  -0.00     0.00   0.01   0.01     0.00  -0.01   0.00
  32   7    -0.01  -0.01   0.01     0.01  -0.02  -0.00     0.00   0.01  -0.02
  33   1     0.00   0.00  -0.01     0.00  -0.01  -0.01    -0.04  -0.03   0.04
  34   1     0.02   0.01  -0.01     0.01  -0.01   0.01     0.02   0.01  -0.02
  35   7    -0.01  -0.01   0.01    -0.01  -0.00  -0.01     0.00   0.01   0.00
  36   1     0.03   0.03  -0.03    -0.01  -0.00  -0.00    -0.05  -0.04   0.05
  37   1    -0.00  -0.00  -0.00    -0.00  -0.01  -0.00     0.02   0.01  -0.02
  38   6     0.03   0.06  -0.05    -0.02   0.00  -0.01    -0.01   0.00  -0.00
  39   8     0.04   0.03  -0.07    -0.02   0.01  -0.02    -0.00  -0.01  -0.01
  40   7    -0.06  -0.21   0.18    -0.01  -0.01   0.03     0.00   0.00   0.02
  41   1     0.04   0.03  -0.06     0.04  -0.03   0.03     0.00   0.00  -0.00
  42   1     0.04   0.57  -0.51     0.00   0.12  -0.07     0.00   0.02  -0.01
  43   7     0.02  -0.09   0.16     0.03  -0.03   0.01     0.01  -0.00  -0.00
  44   1    -0.06   0.18  -0.14     0.01  -0.01  -0.01     0.01  -0.00  -0.01
  45   1    -0.03   0.04  -0.07     0.02   0.03  -0.02     0.01   0.01   0.00
  46   6     0.00   0.01  -0.00    -0.01   0.00  -0.01     0.09  -0.02   0.04
  47   8     0.00  -0.00  -0.01    -0.02   0.00  -0.01     0.11  -0.04   0.01
  48   7    -0.02  -0.01   0.01     0.01   0.00   0.02     0.02   0.00  -0.12
  49   1     0.01   0.01  -0.01     0.02  -0.00   0.00    -0.47  -0.27   0.21
  50   1     0.02   0.02  -0.02    -0.00   0.01   0.02     0.30   0.19  -0.34
  51   7    -0.01  -0.01   0.01    -0.00  -0.01  -0.01    -0.13   0.04   0.10
  52   1     0.05   0.04  -0.04     0.02   0.01  -0.03    -0.22  -0.09   0.19
  53   1     0.01  -0.00   0.01    -0.00  -0.01   0.02     0.13   0.20  -0.19
                     43                     44                     45
                        a                      a                      a 
 Frequencies --   460.1243               462.1547               464.5509
 Red. masses --     6.3477                 7.6708                 6.1276
 Frc consts  --     0.0000                 0.0000                 0.0000
 IR Inten    --     5.4817                23.6552                 5.7659
 Raman Activ --     0.0000                 0.0000                 0.0000
 Depolar     --     0.0000                 0.0000                 0.0000
 Atom AN      X      Y      Z        X      Y      Z        X      Y      Z
   1   8    -0.02  -0.01  -0.07    -0.01  -0.04  -0.04    -0.00  -0.03  -0.02
   2   6     0.05  -0.08   0.17     0.02  -0.03   0.05    -0.03   0.03  -0.09
   3   1     0.01   0.01   0.01     0.01   0.00   0.00    -0.01   0.01  -0.03
   4   1     0.05  -0.00   0.10     0.01   0.00   0.03    -0.02   0.01  -0.02
   5   6     0.06  -0.27   0.12    -0.01  -0.06   0.06     0.05   0.05  -0.11
   6   1     0.10  -0.04   0.01    -0.01  -0.02   0.03     0.07   0.05  -0.06
   7   1     0.00  -0.15  -0.02    -0.00   0.01   0.02     0.01  -0.06  -0.06
   8   7    -0.07  -0.17   0.16     0.02  -0.08  -0.01    -0.04   0.15   0.09
   9   6    -0.20   0.12   0.01     0.01   0.07  -0.02    -0.09  -0.14   0.01
  10   1    -0.03   0.06  -0.03     0.03   0.03  -0.02    -0.09  -0.07   0.04
  11   1    -0.15   0.05   0.03    -0.03   0.03   0.01     0.01  -0.07  -0.04
  12   1    -0.03   0.07  -0.04     0.00   0.04  -0.01    -0.01  -0.06  -0.02
  13   6     0.12   0.19  -0.11    -0.00   0.08   0.01     0.08  -0.14  -0.04
  14   1     0.02   0.09  -0.08    -0.03   0.03  -0.02     0.10  -0.06   0.03
  15   1    -0.02   0.08  -0.11     0.00   0.04   0.01    -0.00  -0.07  -0.05
  16   1     0.15   0.10   0.02     0.02   0.04   0.02     0.00  -0.07  -0.05
  17   6     0.03   0.10  -0.21    -0.01  -0.03  -0.09     0.01   0.12   0.18
  18   1     0.01  -0.04  -0.16    -0.01  -0.02  -0.05     0.02   0.05   0.07
  19   1     0.02   0.12  -0.03    -0.00   0.00  -0.02     0.00   0.03   0.05
  20   1     0.03   0.09  -0.09    -0.01   0.02  -0.03     0.01   0.00   0.05
  21   1    -0.01  -0.00  -0.02    -0.01  -0.02   0.01     0.00  -0.02   0.01
  22   6    -0.00  -0.05  -0.10    -0.00   0.01   0.02     0.01  -0.05  -0.10
  23   8     0.10  -0.00  -0.08    -0.02   0.00   0.02     0.11  -0.01  -0.09
  24   7     0.05   0.01   0.11    -0.02  -0.00  -0.02     0.06  -0.02   0.10
  25   1    -0.13   0.22   0.08     0.03  -0.04  -0.02    -0.18   0.37   0.05
  26   1     0.17  -0.04   0.10    -0.04   0.00  -0.02     0.21  -0.09   0.13
  27   7    -0.14  -0.02   0.02     0.03   0.01  -0.01    -0.16   0.00   0.02
  28   1    -0.12   0.04  -0.02     0.03  -0.00   0.00    -0.13   0.06  -0.02
  29   1    -0.02  -0.03   0.07     0.00   0.00  -0.02    -0.01  -0.05   0.09
  30   6    -0.01   0.04   0.00    -0.03   0.09   0.01     0.04  -0.11  -0.00
  31   8     0.01   0.04   0.02     0.04   0.09   0.07    -0.04  -0.11  -0.08
  32   7     0.03  -0.03   0.01     0.09  -0.06   0.00    -0.10   0.08  -0.01
  33   1    -0.04  -0.08   0.03    -0.12  -0.21   0.09     0.13   0.24  -0.08
  34   1     0.08   0.01  -0.01     0.19   0.02  -0.00    -0.22  -0.01   0.00
  35   7    -0.04  -0.03  -0.03    -0.09  -0.04  -0.08     0.11   0.07   0.11
  36   1    -0.01   0.01  -0.04    -0.11  -0.05  -0.01     0.09   0.03   0.05
  37   1     0.01  -0.02  -0.01     0.03  -0.03  -0.05    -0.03   0.06   0.05
  38   6    -0.03  -0.01  -0.01     0.04   0.01   0.00     0.03   0.00  -0.01
  39   8    -0.03  -0.01  -0.01     0.04   0.03   0.03     0.02   0.03   0.01
  40   7     0.02   0.03   0.04    -0.01  -0.04  -0.04     0.00  -0.02  -0.03
  41   1     0.03   0.02  -0.01    -0.03  -0.01  -0.01    -0.01  -0.01  -0.00
  42   1    -0.00   0.02   0.03     0.01  -0.04  -0.02     0.00  -0.02  -0.01
  43   7     0.03  -0.01  -0.02    -0.05   0.02   0.02    -0.03   0.01   0.01
  44   1     0.02  -0.02  -0.02    -0.03   0.05   0.03    -0.02   0.01   0.03
  45   1     0.03   0.01   0.01    -0.04  -0.05   0.02    -0.03  -0.01  -0.02
  46   6    -0.00  -0.01   0.02    -0.19   0.12  -0.14    -0.09   0.05  -0.08
  47   8    -0.00  -0.02   0.02    -0.21   0.16  -0.13    -0.10   0.08  -0.06
  48   7    -0.04  -0.02  -0.01     0.11   0.15   0.29     0.06   0.06   0.14
  49   1     0.19   0.17  -0.13     0.08  -0.21   0.18     0.04  -0.11   0.08
  50   1    -0.16  -0.15   0.12     0.09   0.26   0.15     0.05   0.12   0.08
  51   7     0.04   0.05  -0.02     0.16  -0.31  -0.08     0.06  -0.14  -0.05
  52   1     0.09   0.08  -0.05     0.02  -0.26  -0.13     0.01  -0.11  -0.06
  53   1    -0.09  -0.07   0.06     0.23  -0.03   0.11     0.09  -0.02   0.04
                     46                     47                     48
                        a                      a                      a 
 Frequencies --   467.4900               468.2859               472.0666
 Red. masses --     6.0516                 4.7041                 5.0983
 Frc consts  --     0.0000                 0.0000                 0.0000
 IR Inten    --    13.1594                18.1678                18.4228
 Raman Activ --     0.0000                 0.0000                 0.0000
 Depolar     --     0.0000                 0.0000                 0.0000
 Atom AN      X      Y      Z        X      Y      Z        X      Y      Z
   1   8     0.03   0.00   0.00     0.02   0.02   0.03    -0.01  -0.02  -0.03
   2   6     0.03  -0.03   0.04    -0.02   0.03  -0.08    -0.02   0.01  -0.04
   3   1    -0.00   0.01  -0.00    -0.01  -0.01  -0.00    -0.02   0.02  -0.03
   4   1     0.02   0.00   0.03    -0.02  -0.00  -0.05    -0.01   0.01   0.01
   5   6     0.02  -0.11   0.03    -0.00   0.10  -0.07     0.09  -0.06  -0.10
   6   1     0.04  -0.01  -0.00    -0.01   0.03  -0.02     0.13   0.04  -0.07
   7   1     0.00  -0.06  -0.00     0.00   0.03  -0.01     0.01  -0.14  -0.08
   8   7    -0.07  -0.06   0.06    -0.00   0.10  -0.03    -0.10   0.11   0.17
   9   6    -0.10   0.05   0.04     0.03  -0.09   0.00    -0.19  -0.12   0.05
  10   1    -0.01   0.03  -0.00    -0.02  -0.04   0.02    -0.11  -0.06   0.05
  11   1    -0.06   0.02   0.02     0.05  -0.04  -0.02    -0.05  -0.06  -0.03
  12   1    -0.02   0.03   0.00     0.00  -0.05   0.01    -0.03  -0.04  -0.03
  13   6     0.03   0.06  -0.08    -0.02  -0.10   0.01     0.12  -0.09  -0.10
  14   1     0.02   0.03  -0.04     0.02  -0.05   0.03     0.13  -0.04  -0.00
  15   1    -0.02   0.02  -0.06    -0.00  -0.04   0.01    -0.02  -0.06  -0.11
  16   1     0.05   0.03  -0.00    -0.04  -0.05  -0.03     0.05  -0.05  -0.06
  17   6     0.07   0.05  -0.08    -0.00   0.00   0.12     0.07   0.20   0.12
  18   1     0.02  -0.01  -0.06    -0.00   0.03   0.07     0.04   0.04   0.01
  19   1     0.03   0.06   0.00    -0.00  -0.03   0.03     0.03   0.10   0.05
  20   1     0.04   0.03  -0.05    -0.00  -0.03   0.04     0.04   0.03   0.01
  21   1     0.01   0.00   0.00     0.01   0.01   0.00     0.00  -0.01   0.01
  22   6    -0.02   0.02   0.03     0.00  -0.03  -0.03     0.00   0.04  -0.03
  23   8    -0.05   0.01   0.03     0.05  -0.01  -0.02    -0.05   0.02  -0.04
  24   7    -0.03   0.02  -0.03     0.01  -0.04   0.02     0.03   0.10   0.03
  25   1     0.09  -0.22   0.00    -0.12   0.28  -0.01     0.15  -0.44   0.09
  26   1    -0.10   0.06  -0.06     0.12  -0.09   0.08    -0.11   0.17  -0.09
  27   7     0.05  -0.02   0.00    -0.06   0.03  -0.01     0.00  -0.08   0.05
  28   1     0.05  -0.03   0.01    -0.04   0.03  -0.01    -0.01  -0.06   0.01
  29   1    -0.00   0.03  -0.04     0.00  -0.04   0.03    -0.02   0.07   0.01
  30   6     0.01  -0.05   0.01    -0.01   0.07  -0.03     0.05  -0.07  -0.05
  31   8    -0.04  -0.05  -0.03     0.07   0.07   0.04     0.04  -0.08  -0.08
  32   7    -0.04   0.01   0.02     0.05  -0.01  -0.04    -0.08   0.11  -0.08
  33   1     0.16   0.19  -0.14    -0.30  -0.33   0.26    -0.24  -0.12   0.28
  34   1    -0.18  -0.04   0.05     0.30   0.08  -0.11     0.09   0.10  -0.18
  35   7     0.07   0.03   0.02    -0.11  -0.05  -0.01     0.02   0.04   0.16
  36   1     0.05   0.03   0.00    -0.07  -0.04   0.01     0.04  -0.01   0.10
[...]
  44   1     0.01   0.00   0.00    -0.01  -0.01  -0.00    -0.00  -0.00  -0.00
  45   1    -0.01   0.01   0.00     0.02  -0.01  -0.01     0.00  -0.00  -0.00
  46   6     0.00  -0.00  -0.00    -0.00   0.00  -0.00     0.00   0.00   0.01
  47   8    -0.00   0.00   0.00     0.00  -0.00  -0.00    -0.00   0.00  -0.00
  48   7    -0.00   0.00  -0.00     0.00  -0.00   0.00    -0.01   0.01   0.00
  49   1     0.00   0.00   0.00    -0.00  -0.00  -0.00    -0.01  -0.02  -0.04
  50   1    -0.00   0.00  -0.00    -0.00  -0.00  -0.00     0.04  -0.02   0.03
  51   7     0.00  -0.01  -0.00     0.00   0.00   0.00    -0.02   0.13   0.14
  52   1     0.01  -0.00   0.01    -0.00   0.00  -0.00    -0.33   0.20  -0.24
  53   1    -0.01   0.02   0.01     0.00  -0.00  -0.00     0.41  -0.70  -0.30
                    142                    143                    144
                        a                      a                      a 
 Frequencies --  3494.3341              3496.1704              3500.0312
 Red. masses --     1.4526                 1.4525                 1.4511
 Frc consts  --     0.0000                 0.0000                 0.0000
 IR Inten    --    14.7300                18.9723                16.5766
 Raman Activ --     0.0000                 0.0000                 0.0000
 Depolar     --     0.0000                 0.0000                 0.0000
 Atom AN      X      Y      Z        X      Y      Z        X      Y      Z
   1   8    -0.00   0.00   0.00    -0.00  -0.00  -0.00     0.00  -0.00  -0.00
   2   6     0.00  -0.00   0.00     0.00  -0.00  -0.00     0.00  -0.00   0.00
   3   1     0.00   0.00   0.00    -0.00   0.00   0.00    -0.00   0.00   0.00
   4   1     0.00   0.00  -0.00     0.00  -0.00   0.00     0.00   0.00  -0.00
   5   6    -0.00   0.00   0.00    -0.00  -0.00   0.00     0.00  -0.00  -0.00
   6   1    -0.00  -0.00  -0.00    -0.00   0.00   0.00    -0.00   0.00   0.00
   7   1     0.00  -0.00  -0.00     0.00  -0.00  -0.00    -0.00   0.00  -0.00
   8   7     0.00  -0.00  -0.00    -0.00   0.00   0.00     0.00   0.00   0.00
   9   6     0.00   0.00   0.00    -0.00  -0.00  -0.00    -0.00  -0.00  -0.00
  10   1    -0.00  -0.00  -0.00     0.00   0.00  -0.00     0.00   0.00   0.00
  11   1    -0.00  -0.00   0.00     0.00   0.00  -0.00    -0.00  -0.00   0.00
  12   1     0.00   0.00   0.00     0.00   0.00   0.00     0.00  -0.00  -0.00
  13   6    -0.00   0.00   0.00     0.00  -0.00   0.00     0.00  -0.00  -0.00
  14   1    -0.00   0.00   0.00    -0.00   0.00   0.00    -0.00   0.00   0.00
  15   1     0.00  -0.00  -0.00     0.00  -0.00  -0.00     0.00  -0.00  -0.00
  16   1    -0.00  -0.00   0.00    -0.00   0.00  -0.00    -0.00  -0.00   0.00
  17   6    -0.00  -0.00   0.00    -0.00  -0.00  -0.00     0.00   0.00  -0.00
  18   1    -0.00  -0.00   0.00    -0.00   0.00  -0.00    -0.00  -0.00   0.00
  19   1     0.00   0.00  -0.00     0.00   0.00  -0.00    -0.00  -0.00   0.00
  20   1    -0.00   0.00   0.00     0.00   0.00   0.00     0.00   0.00   0.00
  21   1     0.00  -0.00  -0.00    -0.00   0.00   0.00    -0.00   0.00   0.00
  22   6     0.00  -0.00  -0.00     0.00  -0.00  -0.00    -0.00   0.00   0.00
  23   8    -0.00   0.00   0.00    -0.00   0.00   0.00     0.00  -0.00  -0.00
  24   7     0.17   0.00  -0.06     0.00   0.00  -0.00     0.00  -0.00  -0.00
  25   1    -0.45  -0.22  -0.43    -0.01  -0.00  -0.01     0.00   0.00   0.00
  26   1    -0.21   0.23   0.66    -0.00   0.00   0.01    -0.00   0.00   0.00
  27   7    -0.01  -0.00   0.01    -0.00  -0.00  -0.00     0.00   0.00  -0.00
  28   1     0.00  -0.00  -0.02    -0.00   0.00   0.01    -0.00   0.00   0.00
  29   1     0.03   0.01  -0.01     0.02   0.00  -0.01    -0.00  -0.00   0.00
  30   6    -0.00  -0.00  -0.00    -0.00   0.00   0.00     0.00   0.00   0.00
  31   8     0.00   0.00   0.00     0.00  -0.00  -0.00     0.00  -0.00  -0.00
  32   7    -0.00   0.00  -0.00    -0.00  -0.00  -0.00     0.10   0.10   0.12
  33   1     0.00  -0.00   0.00     0.00  -0.00   0.00    -0.53   0.32  -0.24
  34   1    -0.00   0.00   0.00    -0.00   0.00   0.00     0.14  -0.68  -0.20
  35   7     0.00   0.00   0.00    -0.00  -0.00  -0.00    -0.00  -0.01  -0.01
  36   1     0.00  -0.00  -0.00     0.00  -0.00  -0.00    -0.01   0.03   0.01
  37   1    -0.00  -0.00  -0.00     0.00   0.00   0.00     0.01   0.01   0.01
  38   6     0.00  -0.00  -0.00     0.00   0.00   0.00     0.00   0.00   0.00
  39   8    -0.00  -0.00   0.00    -0.00  -0.00  -0.00    -0.00  -0.00  -0.00
  40   7     0.00  -0.00   0.00    -0.01  -0.01  -0.01     0.00  -0.00  -0.00
  41   1     0.00   0.00   0.00     0.00   0.02   0.02     0.00   0.00   0.00
  42   1    -0.00  -0.00  -0.00     0.02   0.00   0.01    -0.00  -0.00  -0.00
  43   7    -0.00  -0.00  -0.00     0.04   0.15   0.10     0.00   0.00   0.00
  44   1     0.01   0.01   0.00    -0.67  -0.25  -0.06    -0.00  -0.00  -0.00
  45   1    -0.01   0.01   0.01     0.51  -0.31  -0.31     0.00  -0.00  -0.00
  46   6     0.00  -0.00  -0.00    -0.00   0.00   0.00     0.00   0.00   0.00
  47   8    -0.00   0.00   0.00     0.00  -0.00  -0.00    -0.00  -0.00  -0.00
  48   7    -0.00   0.00   0.00     0.00  -0.00  -0.00    -0.00   0.00   0.00
  49   1    -0.00  -0.00  -0.00     0.00   0.00   0.00    -0.00  -0.00  -0.01
  50   1     0.00  -0.00   0.00    -0.00   0.00  -0.00     0.01  -0.00   0.01
  51   7     0.00   0.00   0.00    -0.00  -0.00  -0.00     0.00  -0.00  -0.00
  52   1    -0.00   0.00  -0.00     0.00  -0.00   0.00    -0.00   0.00  -0.00
  53   1     0.00  -0.00  -0.00    -0.00   0.00   0.00    -0.00   0.00   0.00
                    145                    146                    147
                        a                      a                      a 
 Frequencies --  3504.3369              3533.5795              3536.7761
 Red. masses --     1.4566                 2.0177                 1.9657
 Frc consts  --     0.0000                 0.0000                 0.0000
 IR Inten    --    19.2644                20.2326                15.6809
 Raman Activ --     0.0000                 0.0000                 0.0000
 Depolar     --     0.0000                 0.0000                 0.0000
 Atom AN      X      Y      Z        X      Y      Z        X      Y      Z
   1   8     0.00  -0.00  -0.00    -0.00   0.00   0.00     0.00  -0.00  -0.00
   2   6    -0.00   0.00  -0.00    -0.00  -0.00   0.00    -0.00  -0.00  -0.00
   3   1     0.00  -0.00  -0.00     0.00   0.00   0.00     0.00   0.00   0.00
   4   1    -0.00  -0.00   0.00     0.00   0.00  -0.00     0.00   0.00  -0.00
   5   6    -0.00   0.00   0.00     0.00   0.00   0.00    -0.00   0.00   0.00
   6   1    -0.00  -0.00  -0.00    -0.00  -0.00  -0.00     0.00  -0.00  -0.00
   7   1    -0.00   0.00  -0.00     0.00   0.00   0.00     0.00   0.00   0.00
   8   7    -0.00   0.00   0.00    -0.00   0.00   0.00     0.00   0.00   0.00
   9   6     0.00   0.00   0.00     0.00   0.00   0.00     0.00   0.00   0.00
  10   1    -0.00  -0.00  -0.00    -0.00  -0.00  -0.00    -0.00  -0.00  -0.00
  11   1     0.00  -0.00   0.00     0.00  -0.00   0.00    -0.00   0.00   0.00
  12   1    -0.00   0.00   0.00    -0.00   0.00  -0.00    -0.00   0.00  -0.00
  13   6    -0.00   0.00   0.00    -0.00   0.00  -0.00    -0.00   0.00   0.00
  14   1     0.00  -0.00  -0.00    -0.00  -0.00  -0.00     0.00  -0.00  -0.00
  15   1     0.00   0.00   0.00     0.00   0.00   0.00     0.00   0.00  -0.00
  16   1     0.00  -0.00   0.00    -0.00  -0.00   0.00     0.00  -0.00   0.00
  17   6     0.00   0.00  -0.00    -0.00   0.00  -0.00    -0.00  -0.00   0.00
  18   1     0.00  -0.00   0.00    -0.00  -0.00  -0.00    -0.00   0.00   0.00
  19   1    -0.00  -0.00   0.00     0.00   0.00  -0.00     0.00   0.00  -0.00
  20   1     0.00   0.00   0.00     0.00   0.00   0.00     0.00   0.00   0.00
  21   1    -0.00   0.01   0.01     0.00  -0.01  -0.00    -0.00   0.01   0.00
  22   6    -0.00   0.00   0.00     0.00   0.00  -0.00    -0.00  -0.00   0.00
  23   8     0.00  -0.00  -0.00    -0.00  -0.00  -0.00     0.00   0.00  -0.00
  24   7    -0.00  -0.00  -0.00     0.00   0.00   0.00    -0.00  -0.00  -0.00
  25   1     0.00   0.00   0.00    -0.00  -0.00  -0.00     0.00   0.00   0.00
  26   1    -0.00   0.00   0.00     0.00  -0.00  -0.00    -0.00   0.00   0.00
  27   7     0.00   0.00   0.00     0.00  -0.00  -0.01    -0.00   0.00   0.01
  28   1     0.00   0.00  -0.00    -0.01   0.00   0.05     0.01  -0.00  -0.04
  29   1    -0.00  -0.00   0.00    -0.01  -0.00   0.00     0.01   0.00  -0.00
  30   6     0.00  -0.00  -0.00    -0.00  -0.00  -0.00     0.00   0.01   0.01
  31   8    -0.00   0.00   0.00     0.00   0.00   0.00    -0.00  -0.00  -0.00
  32   7    -0.00  -0.00  -0.00    -0.00   0.00   0.00     0.02  -0.02   0.01
  33   1     0.01  -0.01   0.00     0.00  -0.00   0.00    -0.07   0.04  -0.03
  34   1    -0.00   0.01   0.00     0.00  -0.00  -0.00    -0.01   0.03   0.01
  35   7     0.00  -0.00   0.00     0.00  -0.00  -0.00    -0.05   0.22   0.14
  36   1    -0.01   0.02   0.01    -0.00   0.01   0.00     0.30  -0.79  -0.41
  37   1    -0.01  -0.01  -0.02     0.00  -0.00   0.00    -0.10  -0.06  -0.12
  38   6    -0.00   0.00   0.00    -0.00  -0.00  -0.01    -0.00  -0.00  -0.00
  39   8     0.00  -0.00  -0.00     0.00   0.00   0.00     0.00   0.00   0.00
  40   7     0.00  -0.00  -0.00    -0.24  -0.09  -0.11    -0.00  -0.00  -0.00
  41   1     0.00   0.00   0.00     0.02   0.20   0.15     0.00   0.00   0.00
  42   1    -0.00  -0.00  -0.00     0.87   0.15   0.27     0.01   0.00   0.00
  43   7    -0.00   0.00   0.00     0.03  -0.01  -0.01     0.00  -0.00  -0.00
  44   1    -0.00  -0.00  -0.00    -0.04  -0.02  -0.00    -0.00  -0.00  -0.00
  45   1     0.00  -0.00  -0.00    -0.07   0.05   0.04    -0.00   0.00   0.00
  46   6    -0.00   0.00   0.00     0.00  -0.00  -0.00     0.00  -0.00   0.00
  47   8     0.00  -0.00   0.00    -0.00   0.00   0.00    -0.00   0.00  -0.00
  48   7    -0.11   0.14   0.05    -0.00   0.00  -0.00    -0.00   0.00  -0.00
  49   1    -0.16  -0.25  -0.58     0.00   0.00   0.00     0.00  -0.00   0.00
  50   1     0.57  -0.27   0.38     0.00  -0.00   0.00     0.02  -0.01   0.01
  51   7     0.01  -0.02  -0.01     0.00  -0.00   0.00    -0.00   0.00  -0.00
  52   1     0.01  -0.00   0.00    -0.01   0.01  -0.01     0.01  -0.00   0.01
  53   1    -0.03   0.06   0.03     0.00  -0.00  -0.00    -0.00   0.00   0.00
                    148                    149                    150
                        a                      a                      a 
 Frequencies --  3537.0912              3553.2748              3559.3091
 Red. masses --     2.0120                 2.1319                 2.1739
 Frc consts  --     0.0000                 0.0000                 0.0000
 IR Inten    --    24.9809                28.7506                 8.8921
 Raman Activ --     0.0000                 0.0000                 0.0000
 Depolar     --     0.0000                 0.0000                 0.0000
 Atom AN      X      Y      Z        X      Y      Z        X      Y      Z
   1   8     0.00   0.00   0.00    -0.00  -0.00  -0.00    -0.00   0.00   0.00
   2   6    -0.00   0.00   0.00     0.00   0.00  -0.00     0.00  -0.00  -0.00
   3   1    -0.00  -0.00  -0.00     0.00  -0.00  -0.00    -0.00   0.00   0.00
   4   1     0.00   0.00  -0.00    -0.00  -0.00   0.00     0.00  -0.00   0.00
   5   6    -0.00   0.00   0.00    -0.00  -0.00   0.00    -0.00   0.00   0.00
   6   1     0.00  -0.00  -0.00    -0.00   0.00   0.00    -0.00  -0.00  -0.00
   7   1     0.00   0.00   0.00     0.00  -0.00  -0.00     0.00  -0.00  -0.00
   8   7     0.00  -0.00   0.00    -0.00  -0.00  -0.00     0.00  -0.00  -0.00
   9   6    -0.00  -0.00   0.00    -0.00  -0.00  -0.00     0.00   0.00   0.00
  10   1     0.00  -0.00  -0.00    -0.00   0.00   0.00    -0.00  -0.00  -0.00
  11   1    -0.00   0.00  -0.00    -0.00   0.00  -0.00    -0.00  -0.00   0.00
  12   1    -0.00  -0.00  -0.00     0.00  -0.00   0.00     0.00   0.00   0.00
  13   6    -0.00   0.00   0.00     0.00  -0.00  -0.00    -0.00   0.00   0.00
  14   1     0.00   0.00   0.00    -0.00   0.00   0.00    -0.00  -0.00  -0.00
  15   1     0.00   0.00   0.00     0.00  -0.00  -0.00     0.00  -0.00  -0.00
  16   1     0.00  -0.00   0.00    -0.00   0.00  -0.00    -0.00  -0.00   0.00
  17   6     0.00   0.00  -0.00    -0.00  -0.00   0.00    -0.00  -0.00   0.00
  18   1     0.00  -0.00  -0.00    -0.00   0.00  -0.00    -0.00   0.00   0.00
  19   1    -0.00  -0.00   0.00     0.00  -0.00  -0.00     0.00   0.00  -0.00
  20   1    -0.00  -0.00  -0.00     0.00  -0.00   0.00    -0.00   0.00   0.00
  21   1    -0.00   0.00   0.00    -0.00   0.01   0.01     0.00  -0.00  -0.00
  22   6     0.01   0.00  -0.01     0.00   0.00  -0.00     0.00   0.00   0.01
  23   8    -0.00  -0.00   0.00    -0.00   0.00   0.00    -0.00  -0.00  -0.00
  24   7     0.01   0.01   0.03    -0.00  -0.00   0.00     0.07   0.11   0.26
  25   1    -0.08  -0.04  -0.07     0.00   0.00   0.00    -0.49  -0.23  -0.44
  26   1     0.02  -0.02  -0.05     0.00  -0.00  -0.00     0.21  -0.20  -0.57
  27   7     0.12  -0.00  -0.25    -0.00  -0.00   0.00    -0.02  -0.00   0.03
  28   1    -0.21   0.06   0.89     0.00  -0.00  -0.00     0.03  -0.01  -0.11
  29   1    -0.24  -0.05   0.05     0.00   0.00  -0.00     0.03   0.01  -0.01
  30   6     0.00   0.00   0.00    -0.00   0.00   0.00    -0.00  -0.00  -0.00
  31   8     0.00  -0.00  -0.00     0.00  -0.00  -0.00    -0.00   0.00   0.00
  32   7     0.00  -0.00   0.00     0.00  -0.00   0.00    -0.00   0.00   0.00
  33   1    -0.00   0.00  -0.00    -0.00   0.00  -0.00     0.00  -0.00   0.00
  34   1    -0.00   0.00   0.00    -0.00   0.00   0.00     0.00  -0.00  -0.00
  35   7    -0.00   0.01   0.01     0.00   0.00   0.00    -0.00   0.00   0.00
  36   1     0.01  -0.03  -0.02     0.00  -0.00  -0.00     0.00  -0.00  -0.00
  37   1    -0.00  -0.00  -0.01    -0.00  -0.00  -0.00    -0.00  -0.00  -0.00
  38   6     0.00   0.00   0.00     0.00  -0.00  -0.00     0.00  -0.00  -0.00
  39   8    -0.00  -0.00  -0.00    -0.00   0.00   0.00     0.00   0.00   0.00
  40   7     0.01   0.01   0.01     0.00   0.00   0.00     0.00   0.00   0.00
  41   1    -0.00  -0.01  -0.01    -0.00  -0.01  -0.00     0.00  -0.00  -0.00
  42   1    -0.04  -0.01  -0.01    -0.01  -0.00  -0.00    -0.00  -0.00  -0.00
  43   7    -0.01  -0.00   0.00    -0.00   0.00   0.00     0.02  -0.00  -0.00
  44   1     0.02   0.01   0.00     0.00   0.00   0.00    -0.04  -0.02  -0.00
  45   1     0.01  -0.01  -0.00     0.00  -0.00  -0.00    -0.03   0.02   0.02
  46   6     0.00  -0.00  -0.00     0.01  -0.01  -0.00     0.00  -0.00  -0.00
  47   8    -0.00   0.00  -0.00    -0.00   0.00  -0.00    -0.00   0.00  -0.00
  48   7    -0.00   0.00  -0.00    -0.03  -0.01  -0.05    -0.00   0.00  -0.00
  49   1     0.00   0.00   0.00     0.03   0.06   0.13     0.00   0.00   0.00
  50   1     0.00  -0.00   0.00     0.07  -0.03   0.04     0.00  -0.00   0.00
  51   7     0.00  -0.00   0.00     0.21  -0.18   0.08    -0.00   0.00  -0.00
  52   1    -0.00   0.00  -0.00    -0.61   0.35  -0.47     0.00  -0.00   0.00
  53   1    -0.00   0.00   0.00    -0.19   0.34   0.16     0.00  -0.00  -0.00
                    151                    152                    153
                        a                      a                      a 
 Frequencies --  3560.6860              3565.5371              3569.1978
 Red. masses --     2.1780                 2.1777                 2.1804
 Frc consts  --     0.0000                 0.0000                 0.0000
 IR Inten    --    14.1798                 9.3439                22.5749
 Raman Activ --     0.0000                 0.0000                 0.0000
 Depolar     --     0.0000                 0.0000                 0.0000
 Atom AN      X      Y      Z        X      Y      Z        X      Y      Z
   1   8    -0.00  -0.00  -0.00     0.00  -0.00  -0.00     0.00  -0.00  -0.00
   2   6     0.00   0.00   0.00    -0.00   0.00   0.00     0.00   0.00  -0.00
   3   1     0.00  -0.00  -0.00     0.00  -0.00   0.00     0.00  -0.00  -0.00
   4   1    -0.00   0.00   0.00    -0.00  -0.00   0.00     0.00  -0.00   0.00
   5   6    -0.00   0.00  -0.00    -0.00   0.00   0.00    -0.00   0.00   0.00
   6   1     0.00   0.00   0.00     0.00  -0.00  -0.00    -0.00  -0.00  -0.00
   7   1    -0.00   0.00   0.00     0.00   0.00  -0.00     0.00  -0.00  -0.00
   8   7     0.00  -0.00   0.00    -0.00  -0.00  -0.00    -0.00  -0.00  -0.00
   9   6    -0.00  -0.00  -0.00     0.00   0.00   0.00    -0.00   0.00  -0.00
  10   1    -0.00   0.00   0.00    -0.00  -0.00  -0.00    -0.00  -0.00  -0.00
  11   1    -0.00   0.00  -0.00    -0.00  -0.00   0.00     0.00  -0.00   0.00
  12   1     0.00  -0.00   0.00    -0.00   0.00   0.00     0.00   0.00   0.00
  13   6     0.00   0.00  -0.00    -0.00   0.00   0.00    -0.00   0.00   0.00
  14   1     0.00   0.00   0.00     0.00  -0.00  -0.00     0.00  -0.00  -0.00
  15   1    -0.00  -0.00   0.00     0.00   0.00   0.00     0.00   0.00   0.00
  16   1     0.00   0.00  -0.00     0.00   0.00   0.00     0.00  -0.00   0.00
  17   6     0.00   0.00  -0.00    -0.00  -0.00   0.00    -0.00  -0.00  -0.00
  18   1     0.00   0.00   0.00     0.00   0.00   0.00    -0.00  -0.00  -0.00
  19   1    -0.00  -0.00   0.00     0.00   0.00  -0.00     0.00  -0.00  -0.00
  20   1     0.00  -0.00  -0.00    -0.00   0.00  -0.00     0.00   0.00   0.00
  21   1    -0.00   0.00   0.00    -0.00   0.00   0.00    -0.00   0.01   0.00
  22   6    -0.00  -0.00  -0.00     0.00  -0.00  -0.00     0.00   0.00  -0.00
  23   8     0.00   0.00   0.00    -0.00   0.00   0.00    -0.00  -0.00   0.00
  24   7    -0.00  -0.01  -0.02    -0.00  -0.00  -0.00     0.00   0.00   0.00
  25   1     0.03   0.01   0.03     0.00   0.00   0.00    -0.00  -0.00  -0.00
  26   1    -0.01   0.01   0.04    -0.00   0.00   0.00     0.00  -0.00  -0.00
  27   7     0.00   0.00  -0.01     0.00   0.00  -0.00    -0.00  -0.00   0.00
  28   1    -0.00   0.00   0.02    -0.00   0.00   0.00     0.00  -0.00  -0.00
  29   1    -0.01  -0.00   0.00    -0.00  -0.00   0.00     0.00   0.00  -0.00
  30   6    -0.00   0.00  -0.00    -0.01   0.01  -0.00     0.00   0.00   0.00
  31   8    -0.00   0.00   0.00     0.00  -0.00   0.00    -0.00   0.00   0.00
  32   7    -0.00   0.00  -0.00    -0.18   0.24  -0.02    -0.00   0.01  -0.00
  33   1     0.00  -0.00   0.00     0.57  -0.31   0.26     0.01  -0.01   0.01
  34   1     0.00  -0.00  -0.00     0.10  -0.60  -0.19     0.00  -0.01  -0.00
  35   7    -0.00   0.00   0.00    -0.00   0.02   0.01     0.00   0.00   0.00
  36   1     0.00  -0.00  -0.00     0.03  -0.07  -0.04     0.01  -0.01  -0.01
  37   1     0.00   0.00   0.00    -0.01  -0.01  -0.01    -0.01  -0.01  -0.01
  38   6     0.01  -0.00  -0.00    -0.00  -0.00  -0.00     0.00  -0.00  -0.00
  39   8    -0.00   0.00   0.00     0.00   0.00   0.00    -0.00   0.00   0.00
  40   7     0.02   0.01   0.01     0.00   0.00   0.00     0.00   0.00   0.00
  41   1    -0.00  -0.02  -0.02    -0.00  -0.00  -0.00     0.00  -0.00   0.00
  42   1    -0.09  -0.02  -0.03    -0.00  -0.00  -0.00    -0.00  -0.00  -0.00
  43   7     0.29  -0.02  -0.07    -0.00   0.00   0.00     0.00   0.00  -0.00
  44   1    -0.59  -0.25  -0.07     0.00   0.00   0.00    -0.00  -0.00  -0.00
  45   1    -0.51   0.34   0.32     0.00  -0.00  -0.00    -0.00   0.00   0.00
  46   6     0.00  -0.00  -0.00     0.00  -0.00  -0.00     0.01  -0.00   0.01
  47   8     0.00  -0.00  -0.00    -0.00   0.00  -0.00    -0.00   0.00  -0.00
  48   7    -0.00  -0.00  -0.00    -0.00  -0.00  -0.01     0.17   0.01   0.24
  49   1     0.00   0.00   0.00     0.00   0.01   0.01    -0.16  -0.28  -0.62
  50   1     0.00  -0.00   0.00     0.01  -0.01   0.01    -0.49   0.25  -0.30
  51   7     0.00  -0.00   0.00    -0.00   0.00  -0.00     0.04  -0.03   0.01
  52   1    -0.00   0.00  -0.00     0.00  -0.00   0.00    -0.11   0.06  -0.08
  53   1    -0.00   0.00   0.00    -0.00   0.00  -0.00    -0.03   0.06   0.03
