      -----------------------------------------------------------      
     |                   =====================                   |     
     |                           x T B                           |     
     |                   =====================                   |     
     |                         S. Grimme                         |     
     |          Mulliken Center for Theoretical Chemistry        |     
     |                    University of Bonn                     |     
      -----------------------------------------------------------      

   * xtb version 6.6.1 (unknown-commit) compiled by '@Linux' on 12/27/2023

   xtb is free software: you can redistribute it and/or modify it under
   the terms of the GNU Lesser General Public License as published by
   the Free Software Foundation, either version 3 of the License, or
   (at your option) any later version.
   
   xtb is distributed in the hope that it will be useful,
   but WITHOUT ANY WARRANTY; without even the implied warranty of
   MERCHANTABILITY or FITNESS FOR A PARTICULAR PURPOSE.  See the
   GNU Lesser General Public License for more details.
   
   Cite this work as:
   * C. Bannwarth, E. Caldeweyher, S. Ehlert, A. Hansen, P. Pracht,
     J. Seibert, S. Spicher, S. Grimme, WIREs Comput. Mol. Sci., 2020, 11,
     e01493. DOI: 10.1002/wcms.1493
   
   for GFN2-xTB:
   * C. Bannwarth, S. Ehlert and S. Grimme., J. Chem. Theory Comput., 2019,
     15, 1652-1671. DOI: 10.1021/acs.jctc.8b01176
   for GFN1-xTB:
   * S. Grimme, C. Bannwarth, P. Shushkov, J. Chem. Theory Comput., 2017,
     13, 1989-2009. DOI: 10.1021/acs.jctc.7b00118
   for GFN0-xTB:
   * P. Pracht, E. Caldeweyher, S. Ehlert, S. Grimme, ChemRxiv, 2019, preprint.
     DOI: 10.26434/chemrxiv.8326202.v1
   for GFN-FF:
   * S. Spicher and S. Grimme, Angew. Chem. Int. Ed., 2020, 59, 15665-15673.
     DOI: 10.1002/anie.202004239
   
   for ALPB and GBSA implicit solvation:
   * S. Ehlert, M. Stahn, S. Spicher, S. Grimme, J. Chem. Theory Comput.,
     2021, 17, 4250-4261. DOI: 10.1021/acs.jctc.1c00471
   
   for DFT-D4:
   * E. Caldeweyher, C. Bannwarth and S. Grimme, J. Chem. Phys., 2017,
     147, 034112. DOI: 10.1063/1.4993215
   * E. Caldeweyher, S. Ehlert, A. Hansen, H. Neugebauer, S. Spicher,
     C. Bannwarth and S. Grimme, J. Chem. Phys., 2019, 150, 154122.
     DOI: 10.1063/1.5090222
   * E. Caldeweyher, J.-M. Mewes, S. Ehlert and S. Grimme, Phys. Chem. Chem. Phys.
     2020, 22, 8499-8512. DOI: 10.1039/D0CP00502A
   
   for sTDA-xTB:
   * S. Grimme and C. Bannwarth, J. Chem. Phys., 2016, 145, 054103.
     DOI: 10.1063/1.4959605
   
   in the mass-spec context:
   * V. Asgeirsson, C. Bauer and S. Grimme, Chem. Sci., 2017, 8, 4879.
     DOI: 10.1039/c7sc00601b
   * J. Koopman and S. Grimme, ACS Omega 2019, 4, 12, 15120-15133.
     DOI: 10.1021/acsomega.9b02011
   
   for metadynamics refer to:
   * S. Grimme, J. Chem. Theory Comput., 2019, 155, 2847-2862
     DOI: 10.1021/acs.jctc.9b00143
   
   for SPH calculations refer to:
   * S. Spicher and S. Grimme, J. Chem. Theory Comput., 2021, 17, 1701-1714
     DOI: 10.1021/acs.jctc.0c01306
   
   with help from (in alphabetical order)
   P. Atkinson, C. Bannwarth, F. Bohle, G. Brandenburg, E. Caldeweyher
   M. Checinski, S. Dohm, S. Ehlert, S. Ehrlich, I. Gerasimov, C. Hölzer
   A. Katbashev, J. Koopman, C. Lavigne, S. Lehtola, F. März, M. Müller,
   F. Musil, H. Neugebauer, J. Pisarek, C. Plett, P. Pracht, F. Pultar,
   J. Seibert, P. Shushkov, S. Spicher, M. Stahn, M. Steiner, T. Strunk,
   J. Stückrath, T. Rose, and J. Unsleber
   
 * started run on 2024/01/10 at 18:26:07.529     

           -------------------------------------------------
          |                Calculation Setup                |
           -------------------------------------------------

          program call               : xtb struc.xyz --gfn2 --hess
          hostname                   : swaroop
          coordinate file            : struc.xyz
          omp threads                :                     1

   ID    Z sym.   atoms
    1    8 O      1, 23, 31, 39, 47
    2    6 C      2, 5, 9, 13, 17, 22, 30, 38, 46
    3    1 H      3, 4, 6, 7, 10-12, 14-16, 18-21, 25, 26, 28, 29, 33, 34,
                  36, 37, 41, 42, 44, 45, 49, 50, 52, 53
    4    7 N      8, 24, 27, 32, 35, 40, 43, 48, 51

molecular fragmentation (1/2 indicates fragments):
11111111111111111111122222222222222222222222222222222
# atoms in fragment 1/2:    21    32
 fragment masses (1/2) :      104.17      240.22
CMA distance (Bohr)    :   3.002
constraining FC (au)   :  0.0500

           -------------------------------------------------
          |                 G F N 2 - x T B                 |
           -------------------------------------------------

        Reference                      10.1021/acs.jctc.8b01176
      * Hamiltonian:
        H0-scaling (s, p, d)           1.850000    2.230000    2.230000
        zeta-weighting                 0.500000
      * Dispersion:
        s8                             2.700000
        a1                             0.520000
        a2                             5.000000
        s9                             5.000000
      * Repulsion:
        kExp                           1.500000    1.000000
        rExp                           1.000000
      * Coulomb:
        alpha                          2.000000
        third order                    shell-resolved
        anisotropic                    true
        a3                             3.000000
        a5                             4.000000
        cn-shift                       1.200000
        cn-exp                         4.000000
        max-rad                        5.000000


          ...................................................
          :                      SETUP                      :
          :.................................................:
          :  # basis functions                 122          :
          :  # atomic orbitals                 122          :
          :  # shells                           76          :
          :  # electrons                       140          :
          :  max. iterations                   250          :
          :  Hamiltonian                  GFN2-xTB          :
          :  restarted?                      false          :
          :  GBSA solvation                  false          :
          :  PC potential                    false          :
          :  electronic temp.          300.0000000     K    :
          :  accuracy                    1.0000000          :
          :  -> integral cutoff          0.2500000E+02      :
          :  -> integral neglect         0.1000000E-07      :
          :  -> SCF convergence          0.1000000E-05 Eh   :
          :  -> wf. convergence          0.1000000E-03 e    :
          :  Broyden damping             0.4000000          :
          ...................................................

 iter      E             dE          RMSdq      gap      omega  full diag
   1    -81.5467275 -0.815467E+02  0.432E+00    5.19       0.0  T
   2    -81.8415190 -0.294791E+00  0.235E+00    5.78       1.0  T
   3    -81.8471346 -0.561562E-02  0.117E+00    5.38       1.0  T
   4    -81.8484050 -0.127036E-02  0.225E-01    5.33       1.0  T
   5    -81.8492018 -0.796767E-03  0.899E-02    5.24       1.0  T
   6    -81.8492249 -0.231173E-04  0.262E-02    5.26       1.0  T
   7    -81.8492305 -0.563647E-05  0.723E-03    5.26       1.9  T
   8    -81.8492307 -0.206096E-06  0.264E-03    5.26       5.2  T
   9    -81.8492308 -0.262703E-07  0.901E-04    5.26      15.2  T
  10    -81.8492308 -0.584743E-08  0.163E-04    5.26      84.5  T

   *** convergence criteria satisfied after 10 iterations ***

         #    Occupation            Energy/Eh            Energy/eV
      -------------------------------------------------------------
         1        2.0000           -0.8033305             -21.8597
       ...           ...                  ...                  ...
        64        2.0000           -0.4909735             -13.3601
        65        2.0000           -0.4880853             -13.2815
        66        2.0000           -0.4853747             -13.2077
        67        2.0000           -0.4847361             -13.1903
        68        2.0000           -0.4808188             -13.0837
        69        2.0000           -0.4795136             -13.0482
        70        2.0000           -0.4745424             -12.9130 (HOMO)
        71                         -0.2813644              -7.6563 (LUMO)
        72                         -0.2649330              -7.2092
        73                         -0.2526538              -6.8751
        74                         -0.2482864              -6.7562
        75                         -0.1383891              -3.7658
       ...                                ...                  ...
       122                          0.5781883              15.7333
      -------------------------------------------------------------
                  HL-Gap            0.1931781 Eh            5.2566 eV
             Fermi-level           -0.3779534 Eh          -10.2846 eV

 SCC (total)                   0 d,  0 h,  0 min,  0.089 sec
 SCC setup                      ...        0 min,  0.000 sec (  0.324%)
 Dispersion                     ...        0 min,  0.001 sec (  0.666%)
 classical contributions        ...        0 min,  0.000 sec (  0.204%)
 integral evaluation            ...        0 min,  0.008 sec (  8.578%)
 iterations                     ...        0 min,  0.053 sec ( 59.401%)
 molecular gradient             ...        0 min,  0.027 sec ( 30.529%)
 printout                       ...        0 min,  0.000 sec (  0.285%)

         :::::::::::::::::::::::::::::::::::::::::::::::::::::
         ::                     SUMMARY                     ::
         :::::::::::::::::::::::::::::::::::::::::::::::::::::
         :: total energy             -80.931313988690 Eh    ::
         :: gradient norm              0.000084156201 Eh/a0 ::
         :: HOMO-LUMO gap              5.256642306443 eV    ::
         ::.................................................::
         :: SCC energy               -81.849230765684 Eh    ::
         :: -> isotropic ES            0.289552013065 Eh    ::
         :: -> anisotropic ES         -0.028106753454 Eh    ::
         :: -> anisotropic XC          0.021386291310 Eh    ::
         :: -> dispersion             -0.042323002615 Eh    ::
         :: repulsion energy           0.917153171529 Eh    ::
         :: add. restraining           0.000000000000 Eh    ::
         :: total charge               1.000000000000 e     ::
         :::::::::::::::::::::::::::::::::::::::::::::::::::::

           ------------------------------------------------- 
          |                Numerical Hessian                |
           ------------------------------------------------- 
step length          :   0.00500
SCC accuracy         :   0.30000
Hessian scale factor :   1.00000
frozen atoms in %    :   0.00000    0
RMS gradient         :   0.00008
estimated CPU  time      0.23 min
estimated wall time      0.23 min

writing file <hessian>.

 projected vibrational frequencies (cm⁻¹)
eigval :       -0.00    -0.00    -0.00    -0.00    -0.00     0.00
eigval :        4.34    21.29    23.07    26.50    28.85    33.29
eigval :       41.64    48.03    51.91    57.86    58.82    61.26
eigval :       67.63    73.72    82.84    88.73    97.74   101.60
eigval :      108.61   113.99   134.08   137.39   144.58   153.19
eigval :      168.79   191.24   245.25   248.42   266.48   305.49
eigval :      306.99   315.35   318.20   322.36   343.24   360.84
eigval :      363.24   368.26   393.43   405.77   427.36   457.67
eigval :      460.12   462.15   464.55   467.49   468.29   472.07
eigval :      477.86   479.03   481.90   536.26   539.77   540.65
eigval :      541.99   560.12   569.34   615.00   636.93   648.77
eigval :      673.97   675.35   676.64   678.97   766.63   806.10
eigval :      903.17   929.40   953.16   961.86   963.12   963.90
eigval :      999.88  1002.19  1005.87  1007.41  1008.27  1014.01
eigval :     1029.12  1036.59  1040.14  1081.81  1086.13  1089.21
eigval :     1091.28  1099.78  1109.60  1125.98  1180.16  1231.70
eigval :     1251.85  1276.03  1320.41  1338.16  1347.78  1354.86
eigval :     1357.86  1362.28  1365.36  1380.11  1402.39  1403.61
eigval :     1414.48  1434.67  1442.69  1445.94  1449.38  1457.49
eigval :     1460.76  1461.52  1465.00  1467.80  1472.39  1478.93
eigval :     1489.37  1497.59  1500.91  1501.50  1510.42  1692.53
eigval :     1713.68  1723.39  1724.55  2904.54  2980.28  2995.09
eigval :     3004.93  3018.76  3033.85  3041.58  3042.79  3045.32
eigval :     3050.06  3053.32  3058.06  3078.65  3107.65  3349.39
eigval :     3413.98  3423.45  3469.63  3494.33  3496.17  3500.03
eigval :     3504.34  3533.58  3536.78  3537.09  3553.27  3559.31
eigval :     3560.69  3565.54  3569.20
           -------------------------------------------------
          |                Property Printout                |
           -------------------------------------------------

    * Orbital Energies and Occupations

         #    Occupation            Energy/Eh            Energy/eV
      -------------------------------------------------------------
         1        2.0000           -0.8033278             -21.8597
       ...           ...                  ...                  ...
        58        2.0000           -0.5200782             -14.1520
        59        2.0000           -0.5150522             -14.0153
        60        2.0000           -0.5102366             -13.8842
        61        2.0000           -0.5018450             -13.6559
        62        2.0000           -0.5005191             -13.6198
        63        2.0000           -0.4975874             -13.5400
        64        2.0000           -0.4909751             -13.3601
        65        2.0000           -0.4880865             -13.2815
        66        2.0000           -0.4853763             -13.2078
        67        2.0000           -0.4847381             -13.1904
        68        2.0000           -0.4808205             -13.0838
        69        2.0000           -0.4795159             -13.0483
        70        2.0000           -0.4745445             -12.9130 (HOMO)
        71                         -0.2813616              -7.6562 (LUMO)
        72                         -0.2649348              -7.2092
        73                         -0.2526554              -6.8751
        74                         -0.2482893              -6.7563
        75                         -0.1383886              -3.7657
        76                         -0.1162173              -3.1624
        77                         -0.0925916              -2.5195
        78                         -0.0770460              -2.0965
        79                         -0.0725470              -1.9741
        80                         -0.0705999              -1.9211
        81                         -0.0582029              -1.5838
       ...                                ...                  ...
       122                          0.5781862              15.7332
      -------------------------------------------------------------
                  HL-Gap            0.1931829 Eh            5.2568 eV
             Fermi-level           -0.3779530 Eh          -10.2846 eV

     #   Z          covCN         q      C6AA      α(0)
     1   8 O        1.652    -0.495    22.791     6.444
     2   6 C        3.673     0.060    19.794     6.376
     3   1 H        0.924     0.088     1.895     2.152
     4   1 H        0.923     0.038     2.481     2.463
     5   6 C        3.770    -0.072    21.920     6.672
     6   1 H        0.924     0.113     1.668     2.019
     7   1 H        0.924     0.113     1.668     2.020
     8   7 N        3.623     0.160    18.545     6.396
     9   6 C        3.723    -0.108    22.684     6.802
    10   1 H        0.925     0.121     1.605     1.981
    11   1 H        0.925     0.075     2.033     2.230
    12   1 H        0.925     0.101     1.773     2.082
    13   6 C        3.739    -0.114    22.766     6.808
    14   1 H        0.925     0.122     1.595     1.975
    15   1 H        0.925     0.109     1.707     2.043
    16   1 H        0.925     0.081     1.969     2.194
    17   6 C        3.722    -0.116    22.830     6.824
    18   1 H        0.925     0.074     2.039     2.233
    19   1 H        0.924     0.131     1.527     1.933
    20   1 H        0.925     0.103     1.762     2.076
    21   1 H        0.802     0.333     0.629     1.246
    22   6 C        2.675     0.343    21.176     7.530
    23   8 O        0.860    -0.524    24.310     6.611
    24   7 N        2.645    -0.296    27.622     7.806
    25   1 H        0.860     0.197     1.124     1.661
    26   1 H        0.860     0.179     1.217     1.728
    27   7 N        2.645    -0.301    27.747     7.823
    28   1 H        0.861     0.176     1.235     1.741
    29   1 H        0.860     0.232     0.956     1.532
    30   6 C        2.675     0.345    21.144     7.525
    31   8 O        0.860    -0.526    24.367     6.618
    32   7 N        2.645    -0.295    27.598     7.802
    33   1 H        0.860     0.197     1.123     1.660
    34   1 H        0.861     0.179     1.218     1.728
    35   7 N        2.644    -0.307    27.905     7.845
    36   1 H        0.861     0.171     1.268     1.764
    37   1 H        0.860     0.231     0.960     1.535
    38   6 C        2.675     0.345    21.143     7.524
    39   8 O        0.860    -0.513    24.080     6.579
    40   7 N        2.644    -0.308    27.919     7.848
    41   1 H        0.860     0.223     0.997     1.564
    42   1 H        0.860     0.176     1.234     1.740
    43   7 N        2.645    -0.292    27.529     7.793
    44   1 H        0.861     0.183     1.194     1.712
    45   1 H        0.860     0.200     1.105     1.647
    46   6 C        2.675     0.344    21.152     7.526
    47   8 O        0.860    -0.509    23.991     6.567
    48   7 N        2.645    -0.282    27.289     7.758
    49   1 H        0.861     0.204     1.087     1.633
    50   1 H        0.861     0.191     1.154     1.683
    51   7 N        2.646    -0.289    27.451     7.781
    52   1 H        0.861     0.188     1.167     1.692
    53   1 H        0.860     0.218     1.019     1.582

 Mol. C6AA /au·bohr⁶  :      21782.633014
 Mol. C8AA /au·bohr⁸  :     454015.856736
 Mol. α(0) /au        :        220.508638


Wiberg/Mayer (AO) data.
largest (>0.10) Wiberg bond orders for each atom

 ---------------------------------------------------------------------------
     #   Z sym  total        # sym  WBO       # sym  WBO       # sym  WBO
 ---------------------------------------------------------------------------
     1   8 O    1.953 --     2 C    1.000    21 H    0.810
     2   6 C    3.952 --     1 O    1.000     5 C    1.000     4 H    0.965
                             3 H    0.951
     3   1 H    0.992 --     2 C    0.951
     4   1 H    0.998 --     2 C    0.965
     5   6 C    3.926 --     2 C    1.000     7 H    0.953     6 H    0.951
                             8 N    0.932
     6   1 H    0.987 --     5 C    0.951
     7   1 H    0.987 --     5 C    0.953
     8   7 N    3.823 --     9 C    0.960    17 C    0.957    13 C    0.957
                             5 C    0.932
     9   6 C    3.927 --    11 H    0.979    12 H    0.969    10 H    0.961
                             8 N    0.960
    10   1 H    0.985 --     9 C    0.961
    11   1 H    0.994 --     9 C    0.979
    12   1 H    0.990 --     9 C    0.969
    13   6 C    3.923 --    16 H    0.978    15 H    0.972    14 H    0.963
                             8 N    0.957
    14   1 H    0.985 --    13 C    0.963
    15   1 H    0.988 --    13 C    0.972
    16   1 H    0.993 --    13 C    0.978
    17   6 C    3.920 --    18 H    0.979    20 H    0.969     8 N    0.957
                            19 H    0.950
    18   1 H    0.994 --    17 C    0.979
    19   1 H    0.983 --    17 C    0.950
    20   1 H    0.989 --    17 C    0.969
    21   1 H    0.889 --     1 O    0.810
    22   6 C    3.959 --    23 O    1.534    27 N    1.228    24 N    1.191
    23   8 O    1.898 --    22 C    1.534    27 N    0.148    24 N    0.137
    24   7 N    3.304 --    22 C    1.191    26 H    0.949    25 H    0.944
                            23 O    0.137
    25   1 H    0.961 --    24 N    0.944
    26   1 H    0.968 --    24 N    0.949
    27   7 N    3.330 --    22 C    1.228    28 H    0.950    29 H    0.907
                            23 O    0.148
    28   1 H    0.969 --    27 N    0.950
    29   1 H    0.946 --    27 N    0.907
    30   6 C    3.959 --    31 O    1.530    35 N    1.226    32 N    1.195
    31   8 O    1.893 --    30 C    1.530    35 N    0.147    32 N    0.138
    32   7 N    3.310 --    30 C    1.195    34 H    0.949    33 H    0.944
                            31 O    0.138
    33   1 H    0.961 --    32 N    0.944
    34   1 H    0.968 --    32 N    0.949
    35   7 N    3.324 --    30 C    1.226    36 H    0.952    37 H    0.895
                            31 O    0.147
    36   1 H    0.971 --    35 N    0.952
    37   1 H    0.947 --    35 N    0.895
    38   6 C    3.959 --    39 O    1.540    40 N    1.208    43 N    1.203
    39   8 O    1.919 --    38 C    1.540    40 N    0.144    43 N    0.143
    40   7 N    3.309 --    38 C    1.208    42 H    0.950    41 H    0.912
                            39 O    0.144
    41   1 H    0.950 --    40 N    0.912
    42   1 H    0.969 --    40 N    0.950
    43   7 N    3.317 --    38 C    1.203    44 H    0.947    45 H    0.943
                            39 O    0.143
    44   1 H    0.966 --    43 N    0.947
    45   1 H    0.960 --    43 N    0.943
    46   6 C    3.960 --    47 O    1.502    51 N    1.230    48 N    1.222
    47   8 O    1.944 --    46 C    1.502    51 N    0.140    48 N    0.137
    48   7 N    3.335 --    46 C    1.222    50 H    0.945    49 H    0.941
                            47 O    0.137
    49   1 H    0.958 --    48 N    0.941
    50   1 H    0.963 --    48 N    0.945
    51   7 N    3.338 --    46 C    1.230    52 H    0.946    53 H    0.926
                            47 O    0.140
    52   1 H    0.964 --    51 N    0.946
    53   1 H    0.953 --    51 N    0.926
 ---------------------------------------------------------------------------

Topologies differ in total number of bonds
Writing topology from bond orders to xtbtopo.mol

molecular dipole:
                 x           y           z       tot (Debye)
 q only:       -1.520       0.358      -0.208
   full:       -1.972       0.803      -0.561       5.598
molecular quadrupole (traceless):
                xx          xy          yy          xz          yz          zz
 q only:        2.915     -20.461       1.017       3.905      31.035      -3.933
  q+dip:        2.977     -24.157       2.035       3.886      40.490      -5.013
   full:        3.406     -24.015       1.898       3.590      39.833      -5.305

           -------------------------------------------------
          |               Frequency Printout                |
           -------------------------------------------------
 projected vibrational frequencies (cm⁻¹)
eigval :       -0.00    -0.00    -0.00    -0.00    -0.00     0.00
eigval :        4.34    21.29    23.07    26.50    28.85    33.29
eigval :       41.64    48.03    51.91    57.86    58.82    61.26
eigval :       67.63    73.72    82.84    88.73    97.74   101.60
eigval :      108.61   113.99   134.08   137.39   144.58   153.19
eigval :      168.79   191.24   245.25   248.42   266.48   305.49
eigval :      306.99   315.35   318.20   322.36   343.24   360.84
eigval :      363.24   368.26   393.43   405.77   427.36   457.67
eigval :      460.12   462.15   464.55   467.49   468.29   472.07
eigval :      477.86   479.03   481.90   536.26   539.77   540.65
eigval :      541.99   560.12   569.34   615.00   636.93   648.77
eigval :      673.97   675.35   676.64   678.97   766.63   806.10
eigval :      903.17   929.40   953.16   961.86   963.12   963.90
eigval :      999.88  1002.19  1005.87  1007.41  1008.27  1014.01
eigval :     1029.12  1036.59  1040.14  1081.81  1086.13  1089.21
eigval :     1091.28  1099.78  1109.60  1125.98  1180.16  1231.70
eigval :     1251.85  1276.03  1320.41  1338.16  1347.78  1354.86
eigval :     1357.86  1362.28  1365.36  1380.11  1402.39  1403.61
eigval :     1414.48  1434.67  1442.69  1445.94  1449.38  1457.49
eigval :     1460.76  1461.52  1465.00  1467.80  1472.39  1478.93
eigval :     1489.37  1497.59  1500.91  1501.50  1510.42  1692.53
eigval :     1713.68  1723.39  1724.55  2904.54  2980.28  2995.09
eigval :     3004.93  3018.76  3033.85  3041.58  3042.79  3045.32
eigval :     3050.06  3053.32  3058.06  3078.65  3107.65  3349.39
eigval :     3413.98  3423.45  3469.63  3494.33  3496.17  3500.03
eigval :     3504.34  3533.58  3536.78  3537.09  3553.27  3559.31
eigval :     3560.69  3565.54  3569.20
 reduced masses (amu)
   1: 12.67   2: 12.42   3: 12.57   4: 12.65   5: 12.58   6: 12.59   7: 12.05   8: 12.02
   9: 11.91  10: 11.92  11: 11.93  12: 12.36  13: 12.62  14: 12.50  15: 12.77  16: 12.46
  17: 12.24  18: 13.02  19: 13.32  20: 12.62  21: 13.81  22: 13.73  23: 13.30  24: 12.48
  25: 12.40  26: 11.49  27: 12.50  28: 11.63  29: 11.56  30: 10.26  31:  4.22  32: 10.26
  33:  2.41  34: 12.68  35:  4.23  36:  2.78  37:  2.66  38:  5.62  39:  5.15  40:  5.67
  41:  4.03  42:  3.31  43:  6.22  44:  4.77  45:  3.50  46:  3.28  47:  8.66  48:  2.99
  49:  6.35  50:  7.67  51:  6.13  52:  6.05  53:  4.70  54:  5.10  55:  5.43  56:  6.17
  57:  8.19  58:  3.17  59: 11.14  60: 11.20  61:  9.88  62: 11.33  63:  8.45  64:  2.03
  65:  2.35  66:  3.73  67: 11.33  68: 11.51  69: 11.89  70: 10.34  71:  9.22  72:  2.07
  73:  6.84  74:  8.66  75:  5.18  76:  4.96  77:  5.02  78:  4.98  79:  8.76  80:  8.21
  81:  9.18  82:  8.58  83:  9.30  84:  7.31  85:  7.72  86:  3.39  87:  5.02  88:  9.73
  89:  8.97  90:  8.56  91:  8.57  92:  6.95  93:  4.20  94:  8.17  95:  3.25  96:  6.07
  97:  5.83  98:  8.07  99:  5.90 100:  3.50 101:  5.43 102:  5.31 103:  6.36 104:  5.01
 105:  5.23 106:  3.62 107:  2.55 108:  2.52 109:  2.07 110:  2.44 111:  1.75 112:  3.31
 113:  1.85 114:  1.82 115:  2.92 116:  2.72 117:  2.36 118:  2.62 119:  1.65 120:  1.80
 121:  2.59 122:  6.85 123:  7.47 124:  7.76 125:  9.30 126: 12.70 127: 12.81 128: 12.79
 129: 12.80 130:  1.74 131:  1.71 132:  1.69 133:  1.84 134:  1.72 135:  1.68 136:  1.75
 137:  1.62 138:  1.59 139:  1.84 140:  1.92 141:  1.76 142:  1.71 143:  1.92 144:  1.70
 145:  1.63 146:  1.63 147:  1.51 148:  1.45 149:  1.45 150:  1.45 151:  1.46 152:  2.02
 153:  1.97 154:  2.01 155:  2.13 156:  2.17 157:  2.18 158:  2.18 159:  2.18
 IR intensities (km·mol⁻¹)
   1:  3.02   2:  1.07   3:  0.57   4:  1.93   5:  2.09   6:  0.68   7:  0.22   8:  1.72
   9:  1.75  10:  2.29  11:  1.02  12:  2.61  13:  4.71  14:  1.74  15:  0.41  16:  0.07
  17:  6.95  18:  1.15  19:  0.74  20:  6.75  21:  5.71  22: 15.18  23:  7.05  24: 16.53
  25:  7.27  26: 24.66  27:  9.28  28: 33.67  29: 17.14  30:  8.40  31:  6.66  32:  3.32
  33:101.37  34:  3.11  35:  2.99  36: 97.74  37: 93.46  38: 18.00  39: 59.61  40: 16.26
  41:  9.02  42:551.54  43: 25.18  44: 35.76  45:160.77  46:509.63  47:  8.89  48:  8.49
  49:  5.48  50: 23.66  51:  5.77  52: 13.16  53: 18.17  54: 18.42  55: 15.46  56: 14.77
  57: 23.83  58: 33.30  59: 21.10  60: 36.51  61: 26.76  62: 34.91  63:  1.90  64:106.40
  65:148.38  66: 74.20  67:  0.28  68: 13.99  69: 90.89  70:197.05  71:  5.67  72:360.98
  73:  7.07  74:  7.23  75:  6.86  76:  0.54  77:  1.55  78:  0.19  79: 15.38  80:  9.75
  81:  2.43  82:  4.22  83:  8.93  84: 31.31  85: 21.75  86:  5.77  87: 31.18  88:  0.18
  89:  2.62  90:  3.93  91:  3.40  92: 19.75  93: 25.09  94: 34.37  95: 26.10  96:  8.53
  97: 11.88  98:  4.78  99: 14.77 100: 17.18 101:167.64 102: 86.32 103: 98.30 104: 10.93
 105:117.64 106: 91.51 107: 51.38 108:  1.13 109: 12.64 110: 18.33 111:  4.88 112:  9.23
 113: 12.31 114:  3.02 115: 21.39 116:  4.94 117:  3.50 118: 35.47 119: 10.79 120: 51.15
 121: 71.30 122:660.73 123:565.34 124:506.04 125:200.30 126:740.05 127:****** 128:780.89
 129:429.27 130: 36.46 131:  4.12 132: 22.03 133:  8.98 134:109.70 135: 14.78 136:  1.88
 137: 10.45 138: 28.74 139: 17.97 140:  9.60 141:  4.56 142:  1.35 143:915.61 144:591.29
 145:194.33 146:363.38 147: 87.31 148: 14.73 149: 18.97 150: 16.58 151: 19.26 152: 20.23
 153: 15.68 154: 24.98 155: 28.75 156:  8.89 157: 14.18 158:  9.34 159: 22.57
 Raman intensities (amu)
Molecule has no symmetry elements
It seems to be the C1 point group
   1:  0.00   2:  0.00   3:  0.00   4:  0.00   5:  0.00   6:  0.00   7:  0.00   8:  0.00
   9:  0.00  10:  0.00  11:  0.00  12:  0.00  13:  0.00  14:  0.00  15:  0.00  16:  0.00
  17:  0.00  18:  0.00  19:  0.00  20:  0.00  21:  0.00  22:  0.00  23:  0.00  24:  0.00
  25:  0.00  26:  0.00  27:  0.00  28:  0.00  29:  0.00  30:  0.00  31:  0.00  32:  0.00
  33:  0.00  34:  0.00  35:  0.00  36:  0.00  37:  0.00  38:  0.00  39:  0.00  40:  0.00
  41:  0.00  42:  0.00  43:  0.00  44:  0.00  45:  0.00  46:  0.00  47:  0.00  48:  0.00
  49:  0.00  50:  0.00  51:  0.00  52:  0.00  53:  0.00  54:  0.00  55:  0.00  56:  0.00
  57:  0.00  58:  0.00  59:  0.00  60:  0.00  61:  0.00  62:  0.00  63:  0.00  64:  0.00
  65:  0.00  66:  0.00  67:  0.00  68:  0.00  69:  0.00  70:  0.00  71:  0.00  72:  0.00
  73:  0.00  74:  0.00  75:  0.00  76:  0.00  77:  0.00  78:  0.00  79:  0.00  80:  0.00
  81:  0.00  82:  0.00  83:  0.00  84:  0.00  85:  0.00  86:  0.00  87:  0.00  88:  0.00
  89:  0.00  90:  0.00  91:  0.00  92:  0.00  93:  0.00  94:  0.00  95:  0.00  96:  0.00
  97:  0.00  98:  0.00  99:  0.00 100:  0.00 101:  0.00 102:  0.00 103:  0.00 104:  0.00
 105:  0.00 106:  0.00 107:  0.00 108:  0.00 109:  0.00 110:  0.00 111:  0.00 112:  0.00
 113:  0.00 114:  0.00 115:  0.00 116:  0.00 117:  0.00 118:  0.00 119:  0.00 120:  0.00
 121:  0.00 122:  0.00 123:  0.00 124:  0.00 125:  0.00 126:  0.00 127:  0.00 128:  0.00
 129:  0.00 130:  0.00 131:  0.00 132:  0.00 133:  0.00 134:  0.00 135:  0.00 136:  0.00
 137:  0.00 138:  0.00 139:  0.00 140:  0.00 141:  0.00 142:  0.00 143:  0.00 144:  0.00
 145:  0.00 146:  0.00 147:  0.00 148:  0.00 149:  0.00 150:  0.00 151:  0.00 152:  0.00
 153:  0.00 154:  0.00 155:  0.00 156:  0.00 157:  0.00 158:  0.00 159:  0.00
 output can be read by thermo (or use thermo option).
 writing <g98.out> molden fake output.
 recommended (thermochemical) frequency scaling factor: 1.0
           -------------------------------------------------
          |             Thermodynamic Functions             |
           -------------------------------------------------

c1  symmetry found (for desy threshold:  0.10E+00) used in thermo

          ...................................................
          :                      SETUP                      :
          :.................................................:
          :  # frequencies                         153      :
          :  # imaginary freq.                       0      :
          :  linear?                             false      :
          :  only rotor calc.                    false      :
          :  symmetry                               c1      :
          :  rotational number                       1      :
          :  scaling factor                  1.0000000      :
          :  rotor cutoff                   50.0000000 cm⁻¹ :
          :  imag. cutoff                  -20.0000000 cm⁻¹ :
          :.................................................:

    mode    ω/cm⁻¹     T·S(HO)/kcal·mol⁻¹    T·S(FR)/kcal·mol⁻¹   T·S(vib)
   ------------------------------------------------------------------------
       1      4.34    -2.88333 (  0.01%)    -1.78046 ( 99.99%)    -1.78052
       2     21.29    -1.94097 (  3.18%)    -1.30941 ( 96.82%)    -1.32951
       3     23.07    -1.89349 (  4.33%)    -1.28565 ( 95.67%)    -1.31200
       4     26.50    -1.81142 (  7.31%)    -1.24457 ( 92.69%)    -1.28603
       5     28.85    -1.76118 (  9.98%)    -1.21942 ( 90.02%)    -1.27347
       6     33.29    -1.67648 ( 16.43%)    -1.17700 ( 83.57%)    -1.25904
       7     41.64    -1.54425 ( 32.48%)    -1.11071 ( 67.52%)    -1.25153
       8     48.03    -1.46005 ( 45.98%)    -1.06845 ( 54.02%)    -1.24852
       9     51.91    -1.41419 ( 53.74%)    -1.04541 ( 46.26%)    -1.24361
      10     57.86    -1.35023 ( 64.21%)    -1.01325 ( 35.79%)    -1.22962
      11     58.82    -1.34057 ( 65.70%)    -1.00839 ( 34.30%)    -1.22664
      12     61.26    -1.31673 ( 69.26%)    -0.99638 ( 30.74%)    -1.21824
      13     67.63    -1.25854 ( 77.00%)    -0.96706 ( 23.00%)    -1.19149
      14     73.72    -1.20792 ( 82.54%)    -0.94150 ( 17.46%)    -1.16140
      15     82.84    -1.13964 ( 88.28%)    -0.90696 ( 11.72%)    -1.11238
      16     88.73    -1.09953 ( 90.84%)    -0.88661 (  9.16%)    -1.08003
      17     97.74    -1.04317 ( 93.59%)    -0.85796 (  6.41%)    -1.03130
      18    101.60    -1.02069 ( 94.46%)    -0.84650 (  5.54%)    -1.01104
      19    108.61    -0.98197 ( 95.70%)    -0.82672 (  4.30%)    -0.97530
      20    113.99    -0.95402 ( 96.43%)    -0.81241 (  3.57%)    -0.94897
      21    134.08    -0.86065 ( 98.10%)    -0.76432 (  1.90%)    -0.85883
      22    137.39    -0.84672 ( 98.28%)    -0.75710 (  1.72%)    -0.84518
      23    144.58    -0.81762 ( 98.59%)    -0.74198 (  1.41%)    -0.81655
      24    153.19    -0.78479 ( 98.88%)    -0.72485 (  1.12%)    -0.78411
      25    168.79    -0.73013 ( 99.24%)    -0.69612 (  0.76%)    -0.72987
      26    191.24    -0.66063 ( 99.53%)    -0.65913 (  0.47%)    -0.66062
      27    245.25    -0.52609 ( 99.83%)    -0.58545 (  0.17%)    -0.52619
      28    248.42    -0.51931 ( 99.84%)    -0.58164 (  0.16%)    -0.51941
      29    266.48    -0.48269 ( 99.88%)    -0.56085 (  0.12%)    -0.48278
   ------------------------------------------------------------------------

   temp. (K)  partition function   enthalpy   heat capacity  entropy
                                   cal/mol     cal/K/mol   cal/K/mol   J/K/mol
 298.15  VIB  0.885E+18            19856.015    104.988    132.177
         ROT  0.155E+08              888.752      2.981     35.882
         INT  0.137E+26            20744.768    107.969    168.059
         TR   0.618E+28             1481.254      4.968     43.384
         TOT                       22226.0217   112.9375   211.4433   884.6790

       T/K    H(0)-H(T)+PV         H(T)/Eh          T*S/Eh         G(T)/Eh
   ------------------------------------------------------------------------
    298.15    0.354194E-01    0.474264E+00    0.100464E+00    0.373800E+00
   ------------------------------------------------------------------------

         :::::::::::::::::::::::::::::::::::::::::::::::::::::
         ::                  THERMODYNAMIC                  ::
         :::::::::::::::::::::::::::::::::::::::::::::::::::::
         :: total free energy         -80.557513866741 Eh   ::
         ::.................................................::
         :: total energy              -80.931313988943 Eh   ::
         :: zero point energy           0.438844260126 Eh   ::
         :: G(RRHO) w/o ZPVE           -0.065044137925 Eh   ::
         :: G(RRHO) contrib.            0.373800122201 Eh   ::
         :::::::::::::::::::::::::::::::::::::::::::::::::::::

           -------------------------------------------------
          | TOTAL ENERGY              -80.931313988943 Eh   |
          | TOTAL ENTHALPY            -80.457050308746 Eh   |
          | TOTAL FREE ENERGY         -80.557513866741 Eh   |
          | GRADIENT NORM               0.000084292445 Eh/α |
          | HOMO-LUMO GAP               5.256773454667 eV   |
           -------------------------------------------------

------------------------------------------------------------------------
 * finished run on 2024/01/10 at 18:26:21.721     
------------------------------------------------------------------------
 total:
 * wall-time:     0 d,  0 h,  0 min, 14.192 sec
 *  cpu-time:     0 d,  0 h,  0 min, 14.129 sec
 * ratio c/w:     0.996 speedup
 SCF:
 * wall-time:     0 d,  0 h,  0 min,  0.089 sec
 *  cpu-time:     0 d,  0 h,  0 min,  0.056 sec
 * ratio c/w:     0.631 speedup
 analytical hessian:
 * wall-time:     0 d,  0 h,  0 min, 14.077 sec
 *  cpu-time:     0 d,  0 h,  0 min, 14.047 sec
 * ratio c/w:     0.998 speedup

