 Entering Gaussian System
 *********************************************
 Gaussian 98:
 frequency output generated by the xtb code
 *********************************************
                         Standard orientation:
 --------------------------------------------------------------------
  Center     Atomic     Atomic              Coordinates (Angstroms)
  Number     Number      Type              X           Y           Z
 --------------------------------------------------------------------
    1          8             0       -1.811784   -0.600017    1.435176
    2          6             0       -0.688328   -1.428976    1.534270
    3          1             0       -0.483298   -1.550758    2.600666
    4          1             0       -0.893101   -2.423912    1.119827
    5          6             0        0.540587   -0.893169    0.783636
    6          1             0        0.256201   -0.673634   -0.249084
    7          1             0        1.302112   -1.674913    0.783905
    8          7             0        1.152136    0.352180    1.319753
    9          6             0        0.220746    1.484647    1.183861
   10          1             0       -0.008665    1.625283    0.129941
   11          1             0        0.700076    2.377636    1.580199
   12          1             0       -0.701026    1.274655    1.721421
   13          6             0        2.349655    0.654555    0.516359
   14          1             0        2.060593    0.750170   -0.529276
   15          1             0        3.082879   -0.142563    0.618597
   16          1             0        2.778008    1.590330    0.872775
   17          6             0        1.545337    0.219678    2.729936
   18          1             0        2.184411   -0.651040    2.862546
   19          1             0        0.664928    0.120663    3.359409
   20          1             0        2.087192    1.119705    3.020040
   21          1             0       -2.169783   -0.676692    0.529790
   22          6             0        0.100727   -3.329050   -1.521618
   23          8             0       -0.624400   -3.962279   -0.760663
   24          7             0        1.403049   -3.685803   -1.724064
   25          1             0        1.657348   -4.613662   -1.426775
   26          1             0        1.892413   -3.325885   -2.525602
   27          7             0       -0.325392   -2.229560   -2.177228
   28          1             0        0.330463   -1.591173   -2.595094
   29          1             0       -1.210434   -1.829249   -1.872204
   30          6             0        3.188735    4.104734    2.965002
   31          8             0        2.681946    3.108709    2.466405
   32          7             0        4.343485    4.637516    2.499484
   33          1             0        4.844856    4.146981    1.781056
   34          1             0        4.807924    5.393990    2.967278
   35          7             0        2.630756    4.746803    4.018769
   36          1             0        2.996845    5.611987    4.371087
   37          1             0        1.729828    4.446638    4.345037
   38          6             0       -0.416090    1.224486   -2.724386
   39          8             0        0.385746    0.644336   -1.996839
   40          7             0       -0.000391    2.083678   -3.688386
   41          1             0        0.978793    2.294035   -3.757930
   42          1             0       -0.642736    2.622443   -4.239329
   43          7             0       -1.750629    1.071715   -2.602062
   44          1             0       -2.372026    1.464950   -3.285584
   45          1             0       -2.116238    0.335860   -2.008040
   46          6             0       -3.628765   -2.055157   -1.020865
   47          8             0       -2.754110   -1.172647   -1.091744
   48          7             0       -4.936145   -1.732696   -1.145660
   49          1             0       -5.193071   -0.762692   -1.188621
   50          1             0       -5.662628   -2.409162   -0.997698
   51          7             0       -3.318051   -3.337114   -0.835031
   52          1             0       -4.026678   -4.046462   -0.792801
   53          1             0       -2.331190   -3.622888   -0.775853
 --------------------------------------------------------------------
     1 basis functions        1 primitive gaussians
     1 alpha electrons        1 beta electrons

 Harmonic frequencies (cm**-1), IR intensities (km*mol⁻¹),
 Raman scattering activities (A**4/amu), Raman depolarization ratios,
 reduced masses (AMU), force constants (mDyne/A) and normal coordinates:
                      1                      2                      3
                        a                      a                      a 
 Frequencies --    -4.7747                12.5066                19.2482
 Red. masses --    11.1805                12.3844                11.9389
 Frc consts  --     0.0000                 0.0000                 0.0000
 IR Inten    --     0.0143                 0.6361                 0.9853
 Raman Activ --     0.0000                 0.0000                 0.0000
 Depolar     --     0.0000                 0.0000                 0.0000
 Atom AN      X      Y      Z        X      Y      Z        X      Y      Z
   1   8     0.03  -0.02   0.01     0.20  -0.18   0.12     0.06   0.10  -0.04
   2   6     0.03  -0.02  -0.00     0.19  -0.14   0.00     0.06   0.10  -0.06
   3   1     0.01  -0.01  -0.00     0.07  -0.06  -0.00     0.02   0.03  -0.02
   4   1     0.01  -0.00  -0.00     0.06  -0.04  -0.01     0.01   0.03  -0.01
   5   6     0.02  -0.01  -0.01     0.15  -0.07  -0.02     0.04   0.10  -0.09
   6   1     0.00   0.00  -0.00     0.03  -0.02  -0.00     0.00   0.03  -0.02
   7   1     0.01  -0.00  -0.01     0.05  -0.01  -0.01     0.01   0.03  -0.03
   8   7     0.02  -0.01  -0.01     0.11  -0.05  -0.01     0.04   0.11  -0.11
   9   6     0.01  -0.01   0.01     0.06  -0.08  -0.01     0.03   0.10  -0.11
  10   1    -0.00  -0.00   0.00     0.02  -0.03  -0.00     0.01   0.03  -0.03
  11   1     0.01  -0.00   0.00     0.01  -0.02  -0.00     0.01   0.03  -0.03
  12   1     0.01  -0.01   0.01     0.02  -0.03  -0.00     0.01   0.03  -0.03
  13   6     0.01   0.00  -0.02     0.09  -0.00  -0.01     0.03   0.10  -0.12
  14   1    -0.00   0.00  -0.00     0.03  -0.00  -0.00     0.00   0.03  -0.03
  15   1     0.00   0.00  -0.01     0.04   0.01  -0.00     0.01   0.03  -0.04
  16   1     0.00   0.00  -0.01     0.01   0.00  -0.00     0.01   0.03  -0.04
  17   6     0.04  -0.02  -0.02     0.10  -0.04  -0.01     0.05   0.12  -0.11
  18   1     0.01  -0.00  -0.01     0.04  -0.00  -0.00     0.02   0.03  -0.03
  19   1     0.01  -0.01  -0.00     0.03  -0.02  -0.01     0.02   0.04  -0.03
  20   1     0.01  -0.01  -0.00     0.02  -0.00  -0.00     0.02   0.03  -0.04
  21   1     0.00  -0.00   0.00     0.04  -0.03   0.03     0.01   0.02  -0.01
  22   6     0.00   0.01  -0.03    -0.12  -0.08  -0.08    -0.02  -0.02   0.02
  23   8     0.02   0.00  -0.03    -0.16  -0.07  -0.10    -0.00   0.00   0.08
  24   7     0.00   0.02  -0.05    -0.17  -0.20  -0.17    -0.03  -0.04  -0.01
  25   1     0.00   0.00  -0.02    -0.06  -0.06  -0.06    -0.01  -0.01   0.00
  26   1    -0.00   0.01  -0.02    -0.04  -0.05  -0.05    -0.02  -0.02  -0.01
  27   7    -0.01   0.02  -0.02    -0.06  -0.02  -0.01    -0.04  -0.04   0.01
  28   1    -0.01   0.01  -0.01    -0.01  -0.02  -0.01    -0.01  -0.02  -0.01
  29   1    -0.00   0.00  -0.00    -0.00   0.01   0.01    -0.01  -0.01   0.00
  30   6    -0.00   0.00  -0.00    -0.18   0.09  -0.00     0.03  -0.03   0.21
  31   8     0.01  -0.01  -0.00    -0.08   0.04  -0.01     0.05   0.08  -0.01
  32   7     0.31  -0.34   0.38    -0.24   0.22   0.03     0.09   0.02   0.44
  33   1     0.14  -0.16   0.19    -0.05   0.07   0.01     0.03   0.04   0.10
  34   1     0.07  -0.09   0.11    -0.09   0.07   0.01     0.01  -0.02   0.16
  35   7    -0.34   0.35  -0.40    -0.30   0.05  -0.02    -0.04  -0.22   0.31
  36   1    -0.08   0.09  -0.11    -0.11   0.02  -0.00    -0.02  -0.08   0.13
  37   1    -0.14   0.16  -0.19    -0.07  -0.02  -0.01    -0.02  -0.07   0.04
  38   6    -0.03   0.02   0.02     0.10  -0.03  -0.00    -0.06  -0.09  -0.17
  39   8    -0.03   0.02   0.01     0.11  -0.06  -0.01    -0.07   0.01  -0.11
  40   7    -0.05   0.03   0.02     0.13  -0.11  -0.06    -0.08  -0.21  -0.29
  41   1    -0.01   0.01   0.00     0.04  -0.04  -0.03    -0.02  -0.04  -0.07
  42   1    -0.02   0.01   0.01     0.04  -0.02  -0.01    -0.02  -0.07  -0.09
  43   7    -0.03   0.01   0.03     0.11   0.05   0.06    -0.07  -0.13  -0.19
  44   1    -0.01   0.00   0.01     0.03   0.01   0.02    -0.02  -0.06  -0.07
  45   1    -0.01   0.00   0.01     0.02   0.02   0.02    -0.01  -0.02  -0.03
  46   6     0.00  -0.01   0.03    -0.01   0.16   0.08    -0.01  -0.01   0.08
  47   8    -0.00  -0.01   0.02     0.05   0.12   0.11    -0.02  -0.01   0.01
  48   7    -0.00  -0.02   0.05     0.01   0.27   0.11    -0.02  -0.02   0.13
  49   1    -0.00  -0.01   0.02     0.02   0.08   0.04    -0.01  -0.01   0.03
  50   1     0.00  -0.01   0.01    -0.01   0.08   0.03    -0.00  -0.00   0.05
  51   7     0.01  -0.01   0.02    -0.10   0.14   0.03    -0.01  -0.00   0.13
  52   1     0.00  -0.00   0.01    -0.04   0.05   0.00    -0.00  -0.00   0.05
  53   1     0.00  -0.00  -0.00    -0.03   0.02  -0.00    -0.00   0.00   0.03
                      4                      5                      6
                        a                      a                      a 
 Frequencies --    28.2552                33.0207                36.8591
 Red. masses --    12.0456                12.1470                12.6030
 Frc consts  --     0.0000                 0.0000                 0.0000
 IR Inten    --     3.0505                 0.7513                 7.3562
 Raman Activ --     0.0000                 0.0000                 0.0000
 Depolar     --     0.0000                 0.0000                 0.0000
 Atom AN      X      Y      Z        X      Y      Z        X      Y      Z
   1   8     0.01  -0.22   0.15     0.10  -0.14  -0.04    -0.03   0.01  -0.04
   2   6     0.07  -0.12   0.04     0.15  -0.03  -0.04    -0.03   0.01  -0.06
   3   1     0.03  -0.05   0.01     0.05  -0.00  -0.01    -0.01  -0.01  -0.02
   4   1     0.04  -0.03  -0.01     0.07  -0.02  -0.01    -0.01   0.00  -0.02
   5   6     0.02   0.02   0.05     0.11   0.06  -0.05    -0.03   0.02  -0.04
   6   1     0.00   0.01   0.02     0.02   0.01  -0.02     0.00  -0.01  -0.02
   7   1     0.03   0.03   0.01     0.05   0.03  -0.02    -0.00   0.01   0.01
   8   7    -0.11   0.07   0.10     0.02   0.11  -0.06    -0.10   0.07  -0.06
   9   6    -0.18  -0.00   0.06    -0.07   0.03  -0.02    -0.09   0.05  -0.20
  10   1    -0.04  -0.00   0.02    -0.03   0.01  -0.00    -0.00  -0.00  -0.06
  11   1    -0.07   0.01   0.02    -0.04   0.02  -0.01    -0.04   0.02  -0.06
  12   1    -0.05  -0.02   0.01    -0.01  -0.01   0.00    -0.04   0.02  -0.08
  13   6    -0.09   0.16   0.14    -0.03   0.21  -0.09    -0.03   0.03   0.02
  14   1    -0.02   0.05   0.04    -0.02   0.05  -0.02     0.02  -0.02  -0.00
  15   1    -0.01   0.06   0.04     0.01   0.08  -0.03    -0.00   0.02   0.04
  16   1    -0.05   0.05   0.05    -0.03   0.07  -0.03    -0.02   0.02  -0.00
  17   6    -0.15   0.08   0.11     0.08   0.12  -0.07    -0.21   0.15  -0.02
  18   1    -0.03   0.04   0.04     0.04   0.05  -0.03    -0.06   0.05   0.03
  19   1    -0.05   0.01   0.02     0.03   0.01  -0.01    -0.08   0.05  -0.03
  20   1    -0.06   0.03   0.04     0.00   0.05  -0.02    -0.07   0.05  -0.01
  21   1     0.01  -0.03   0.03     0.02  -0.05  -0.01    -0.01   0.00  -0.01
  22   6     0.01  -0.02  -0.11    -0.07  -0.17   0.09    -0.01  -0.01  -0.08
  23   8     0.01  -0.03  -0.13    -0.14  -0.15   0.08    -0.02  -0.12  -0.19
  24   7    -0.02  -0.09  -0.22    -0.10  -0.28   0.10     0.04   0.11  -0.01
  25   1    -0.02  -0.03  -0.08    -0.05  -0.08   0.03     0.02   0.03  -0.01
  26   1    -0.01  -0.02  -0.06    -0.02  -0.08   0.03     0.02   0.05   0.01
  27   7     0.05   0.06  -0.00     0.02  -0.15   0.10    -0.05  -0.01  -0.07
  28   1     0.02   0.01  -0.00     0.01  -0.05   0.02    -0.02   0.02   0.02
  29   1     0.02   0.02   0.01     0.01  -0.03   0.02    -0.03  -0.02  -0.02
  30   6     0.06   0.04   0.04     0.05   0.08   0.04    -0.03   0.00   0.00
  31   8    -0.18   0.12   0.16    -0.08   0.21  -0.05    -0.20   0.13  -0.08
  32   7     0.12  -0.19  -0.11     0.12  -0.03   0.09     0.04  -0.13   0.03
  33   1    -0.01  -0.09  -0.04     0.01  -0.00   0.01    -0.02  -0.03  -0.01
  34   1     0.08  -0.07  -0.05     0.06  -0.03   0.04     0.04  -0.06   0.02
  35   7     0.30   0.20   0.07     0.15   0.05   0.11     0.09  -0.02   0.08
  36   1     0.13   0.04  -0.01     0.07  -0.00   0.04     0.06  -0.02   0.03
  37   1     0.07   0.11   0.04     0.03   0.04   0.02     0.01   0.03   0.01
  38   6    -0.03  -0.05  -0.06    -0.05   0.04   0.08     0.18  -0.04   0.01
  39   8    -0.06   0.13   0.11    -0.01  -0.11  -0.07     0.27  -0.25  -0.22
  40   7    -0.01  -0.27  -0.25    -0.11   0.23   0.24     0.12   0.11   0.13
  41   1    -0.01  -0.04  -0.04    -0.03   0.04   0.03     0.04  -0.02  -0.03
  42   1    -0.00  -0.08  -0.08    -0.03   0.06   0.08     0.03   0.04   0.05
  43   7    -0.04  -0.07  -0.11    -0.04   0.05   0.17     0.20   0.07   0.20
  44   1    -0.00  -0.07  -0.07    -0.02   0.05   0.08     0.03   0.07   0.10
  45   1    -0.01   0.00  -0.00    -0.00  -0.01   0.02     0.06   0.00   0.03
  46   6     0.05   0.04   0.00    -0.03  -0.03  -0.13    -0.02  -0.05   0.12
  47   8     0.07   0.03   0.07     0.00  -0.07  -0.03    -0.04  -0.06   0.02
  48   7     0.06   0.07   0.00    -0.01  -0.00  -0.35    -0.05  -0.04   0.42
  49   1     0.02   0.02   0.02     0.01   0.00  -0.10    -0.01  -0.01   0.12
  50   1     0.01   0.02  -0.01    -0.01   0.01  -0.11    -0.01  -0.01   0.12
  51   7     0.03   0.02  -0.08    -0.10  -0.04  -0.07     0.00  -0.07  -0.01
  52   1     0.00   0.01  -0.03    -0.03  -0.01  -0.05    -0.00  -0.02   0.03
  53   1     0.01   0.00  -0.02    -0.03  -0.02   0.01     0.00  -0.02  -0.03
                      7                      8                      9
                        a                      a                      a 
 Frequencies --    41.7688                45.2564                48.4197
 Red. masses --    12.5930                12.3106                12.7302
 Frc consts  --     0.0000                 0.0000                 0.0000
 IR Inten    --     0.0214                 3.4436                 1.8825
 Raman Activ --     0.0000                 0.0000                 0.0000
 Depolar     --     0.0000                 0.0000                 0.0000
 Atom AN      X      Y      Z        X      Y      Z        X      Y      Z
   1   8    -0.02   0.19  -0.22     0.11  -0.09  -0.13    -0.09   0.18   0.11
   2   6    -0.06   0.12  -0.11     0.12  -0.04  -0.11    -0.11   0.11   0.07
   3   1    -0.04   0.03  -0.03     0.03  -0.02  -0.03    -0.03   0.03   0.02
   4   1    -0.02   0.04  -0.03     0.05  -0.01  -0.04    -0.05   0.03   0.02
   5   6     0.02   0.07  -0.02     0.12   0.02  -0.06    -0.11   0.05   0.03
   6   1     0.03   0.03  -0.01     0.04   0.02  -0.01    -0.04   0.02   0.01
   7   1    -0.00   0.01   0.01     0.04   0.01  -0.03    -0.04   0.01   0.00
   8   7     0.04   0.04   0.05     0.11  -0.00   0.02    -0.04   0.03   0.00
   9   6     0.09   0.07   0.05     0.06  -0.02   0.11     0.01   0.07  -0.00
  10   1     0.04   0.03   0.01     0.01   0.01   0.03     0.00   0.02  -0.00
  11   1     0.03   0.01   0.03     0.01  -0.01   0.05     0.02   0.02  -0.01
  12   1     0.02   0.03   0.00     0.02  -0.02   0.03     0.00   0.04   0.01
  13   6     0.08   0.02   0.11     0.08   0.09   0.02    -0.04  -0.04  -0.02
  14   1     0.04   0.02   0.03     0.02   0.04   0.01    -0.01  -0.01  -0.00
  15   1     0.02  -0.00   0.03     0.03   0.03  -0.01    -0.02  -0.02  -0.01
  16   1     0.03  -0.00   0.05     0.02   0.02   0.02     0.01  -0.02  -0.01
  17   6    -0.02  -0.02   0.06     0.13  -0.08   0.00    -0.03   0.03  -0.00
  18   1    -0.02  -0.01   0.02     0.05  -0.02  -0.02    -0.02  -0.00   0.00
  19   1    -0.01  -0.00   0.01     0.04  -0.05   0.00    -0.01   0.03   0.00
  20   1    -0.00  -0.01   0.03     0.03  -0.03   0.02     0.01   0.00  -0.01
  21   1    -0.00   0.03  -0.06     0.02  -0.03  -0.03    -0.02   0.05   0.03
  22   6    -0.06  -0.14  -0.11    -0.07   0.07   0.07     0.07  -0.15  -0.01
  23   8    -0.05  -0.14  -0.10    -0.19  -0.11  -0.19    -0.06  -0.25  -0.21
  24   7    -0.12  -0.27  -0.28     0.05   0.30   0.40     0.07  -0.22   0.08
  25   1    -0.05  -0.08  -0.09     0.02   0.08   0.09    -0.01  -0.08  -0.01
  26   1    -0.04  -0.07  -0.08     0.05   0.11   0.14     0.05  -0.04   0.05
  27   7    -0.02  -0.06   0.01    -0.06   0.07   0.06     0.22  -0.03   0.11
  28   1    -0.01  -0.03  -0.01    -0.01   0.05   0.07     0.08  -0.01   0.06
  29   1    -0.00  -0.01   0.01    -0.04  -0.01  -0.02     0.06  -0.01   0.02
  30   6     0.04   0.08   0.06     0.03   0.05   0.06     0.03  -0.01  -0.03
  31   8     0.10  -0.01   0.21     0.06  -0.02   0.20     0.13  -0.03  -0.09
  32   7    -0.01   0.11  -0.04    -0.01   0.06  -0.04     0.02   0.08   0.04
  33   1     0.00   0.01   0.01    -0.00  -0.00   0.00     0.02   0.04   0.01
  34   1    -0.01   0.05  -0.03    -0.00   0.03  -0.03    -0.02   0.03   0.02
  35   7     0.03   0.17   0.01     0.05   0.15   0.01    -0.07  -0.08  -0.05
  36   1     0.00   0.06  -0.02     0.01   0.05  -0.02    -0.04  -0.02   0.00
  37   1     0.02   0.04   0.02     0.02   0.04   0.03    -0.02  -0.04  -0.03
  38   6     0.03   0.03   0.03     0.00  -0.06  -0.03    -0.10   0.02   0.03
  39   8    -0.02   0.10   0.14     0.02   0.02   0.01    -0.08   0.07   0.02
  40   7     0.09   0.22   0.21    -0.01  -0.08  -0.06    -0.16   0.00  -0.01
  41   1     0.02   0.09   0.10    -0.01  -0.01  -0.02    -0.05   0.01  -0.01
  42   1     0.03   0.03   0.02    -0.01  -0.05  -0.04    -0.05  -0.01   0.00
  43   7     0.04  -0.22  -0.28     0.01  -0.14  -0.08    -0.10  -0.01   0.08
  44   1     0.02  -0.05  -0.08     0.00  -0.05  -0.03    -0.03  -0.02   0.02
  45   1     0.00  -0.06  -0.08     0.00  -0.03  -0.01    -0.01  -0.01   0.02
  46   6    -0.04  -0.09   0.04    -0.15  -0.05  -0.06     0.11   0.04  -0.03
  47   8    -0.06  -0.11  -0.12    -0.15  -0.08  -0.04     0.20  -0.02   0.11
  48   7    -0.06  -0.11   0.18    -0.16   0.01   0.13     0.13   0.21   0.22
  49   1    -0.02  -0.03   0.03    -0.04   0.00   0.07     0.06   0.06   0.13
  50   1    -0.01  -0.03   0.08    -0.05   0.00   0.03     0.02   0.06   0.02
  51   7    -0.03  -0.08   0.12    -0.18  -0.09  -0.29     0.02  -0.04  -0.46
  52   1    -0.01  -0.02   0.06    -0.05  -0.02  -0.07    -0.01   0.01  -0.13
  53   1    -0.01  -0.02   0.01    -0.05  -0.03  -0.08    -0.00  -0.03  -0.12
                     10                     11                     12
                        a                      a                      a 
 Frequencies --    49.6736                58.6817                67.3627
 Red. masses --    12.2554                12.3414                10.1516
 Frc consts  --     0.0000                 0.0000                 0.0000
 IR Inten    --     0.5197                 0.2116                 1.3292
 Raman Activ --     0.0000                 0.0000                 0.0000
 Depolar     --     0.0000                 0.0000                 0.0000
 Atom AN      X      Y      Z        X      Y      Z        X      Y      Z
   1   8    -0.00   0.19  -0.06    -0.05   0.09  -0.19    -0.15   0.05   0.11
   2   6    -0.04   0.11   0.01    -0.06   0.06  -0.17    -0.10   0.09   0.11
   3   1    -0.03   0.04   0.01    -0.02   0.01  -0.05    -0.02   0.05   0.03
   4   1    -0.02   0.03   0.01    -0.02   0.02  -0.06    -0.02   0.02   0.05
   5   6     0.02   0.04   0.06    -0.05   0.07  -0.15    -0.14   0.08   0.04
   6   1     0.02   0.01   0.01    -0.02   0.04  -0.04    -0.06   0.03   0.02
   7   1    -0.00   0.00   0.03    -0.02   0.01  -0.06    -0.05   0.02  -0.02
   8   7     0.05   0.03   0.06    -0.01   0.00  -0.06    -0.06   0.05   0.03
   9   6     0.11   0.07  -0.03    -0.01   0.02   0.14    -0.13   0.03   0.38
  10   1     0.05   0.02  -0.01    -0.02   0.05   0.05    -0.11   0.04   0.13
  11   1     0.04   0.02  -0.01     0.01  -0.01   0.07    -0.02  -0.00   0.11
  12   1     0.02   0.04  -0.02     0.01  -0.01   0.05    -0.00  -0.02   0.17
  13   6     0.11  -0.06   0.12    -0.05   0.09  -0.09    -0.26   0.18  -0.22
  14   1     0.05  -0.02   0.03    -0.03   0.05  -0.02    -0.14   0.07  -0.04
  15   1     0.02  -0.03   0.05    -0.01   0.02  -0.06    -0.06   0.06  -0.13
  16   1     0.04  -0.02   0.03    -0.01   0.02  -0.01    -0.06   0.05  -0.07
  17   6    -0.04   0.06   0.08     0.09  -0.17  -0.09     0.30  -0.10  -0.09
  18   1    -0.03   0.01   0.04     0.03  -0.05  -0.07     0.11  -0.02  -0.10
  19   1    -0.02   0.04   0.01     0.04  -0.07  -0.01     0.14  -0.07   0.04
  20   1    -0.00   0.01   0.02     0.03  -0.06  -0.00     0.09  -0.03  -0.03
  21   1    -0.02   0.02  -0.01    -0.01   0.03  -0.05    -0.04   0.01   0.03
  22   6    -0.06   0.01  -0.10     0.05  -0.09   0.05    -0.02   0.01  -0.07
  23   8    -0.01  -0.02  -0.09     0.04   0.01   0.13     0.02  -0.04  -0.08
  24   7    -0.09   0.01  -0.24     0.04  -0.17   0.09    -0.02   0.04  -0.15
  25   1    -0.02  -0.00  -0.08     0.00  -0.04   0.05     0.00   0.01  -0.05
  26   1    -0.04   0.02  -0.06     0.02  -0.07   0.01    -0.02   0.03  -0.04
  27   7    -0.10   0.05  -0.02     0.10  -0.14  -0.05    -0.07   0.02  -0.04
  28   1    -0.03   0.02  -0.00     0.03  -0.06  -0.04    -0.02   0.02   0.01
  29   1    -0.02   0.01   0.02     0.03  -0.02  -0.03    -0.02  -0.00   0.01
  30   6     0.07   0.07   0.04    -0.06  -0.04   0.09     0.03   0.04  -0.01
  31   8     0.19   0.01   0.09    -0.11  -0.15   0.35     0.05   0.06  -0.07
  32   7     0.04   0.16   0.04    -0.12  -0.11  -0.12     0.04   0.06   0.04
  33   1     0.03   0.04   0.02    -0.04  -0.07  -0.01     0.01   0.03   0.01
  34   1    -0.01   0.06   0.01    -0.02  -0.01  -0.08     0.01   0.01   0.02
  35   7     0.00   0.08   0.00     0.02   0.16   0.02     0.00  -0.01   0.00
  36   1    -0.02   0.03  -0.01     0.02   0.05  -0.04    -0.00  -0.01   0.01
  37   1     0.01   0.00   0.00     0.02   0.05   0.05    -0.00  -0.01  -0.01
  38   6     0.01  -0.08   0.09    -0.02   0.06  -0.03     0.13  -0.11   0.00
  39   8     0.09  -0.10   0.01     0.02   0.01  -0.13     0.09  -0.21  -0.01
  40   7    -0.07  -0.33  -0.16    -0.06  -0.10  -0.19     0.21  -0.08   0.08
  41   1    -0.02  -0.11  -0.08    -0.01  -0.05  -0.09     0.06  -0.05   0.02
  42   1    -0.03  -0.06   0.00    -0.02   0.01  -0.01     0.07  -0.02   0.00
  43   7     0.00   0.17   0.43    -0.03   0.30   0.25     0.13  -0.07  -0.04
  44   1    -0.01   0.02   0.12    -0.01   0.07   0.06     0.04   0.01  -0.00
  45   1     0.01   0.04   0.12     0.00   0.06   0.05     0.02  -0.01  -0.01
  46   6    -0.06  -0.11  -0.07     0.06   0.02   0.03    -0.01  -0.02  -0.00
  47   8    -0.12  -0.07   0.06     0.09  -0.01  -0.17    -0.04   0.02   0.07
  48   7    -0.07  -0.20  -0.23     0.06   0.06   0.17    -0.02  -0.07  -0.02
  49   1    -0.03  -0.06  -0.05     0.02   0.02   0.01    -0.01  -0.02   0.01
  50   1    -0.01  -0.07  -0.09     0.01   0.02   0.08     0.00  -0.03  -0.02
  51   7    -0.02  -0.11  -0.09     0.04   0.03   0.13     0.03  -0.02  -0.06
  52   1     0.01  -0.04  -0.07     0.01   0.02   0.08     0.01  -0.01  -0.03
  53   1    -0.00  -0.02  -0.01     0.01   0.01   0.02     0.01  -0.00  -0.01
                     13                     14                     15
                        a                      a                      a 
 Frequencies --    73.7326                77.7584                79.3726
 Red. masses --    13.5699                13.6355                13.2273
 Frc consts  --     0.0000                 0.0000                 0.0000
 IR Inten    --     8.4123                 8.8017                 6.9345
 Raman Activ --     0.0000                 0.0000                 0.0000
 Depolar     --     0.0000                 0.0000                 0.0000
 Atom AN      X      Y      Z        X      Y      Z        X      Y      Z
   1   8    -0.02  -0.09  -0.30    -0.05  -0.10  -0.08    -0.06  -0.27   0.06
   2   6    -0.00  -0.03  -0.01    -0.01  -0.04  -0.03     0.02  -0.15  -0.04
   3   1    -0.04   0.03   0.01    -0.01  -0.00  -0.00     0.02  -0.06  -0.01
   4   1     0.03  -0.02   0.02     0.01  -0.01  -0.01     0.02  -0.04  -0.02
   5   6     0.08  -0.07   0.09    -0.01   0.01   0.01    -0.05  -0.01  -0.05
   6   1     0.05  -0.04   0.01    -0.00   0.01   0.00    -0.03  -0.00  -0.01
   7   1     0.02  -0.02   0.06     0.00   0.01   0.00     0.01   0.02  -0.02
   8   7     0.01  -0.03   0.07    -0.06   0.03   0.04    -0.16   0.03  -0.03
   9   6    -0.05  -0.08   0.07    -0.10  -0.01   0.06    -0.21  -0.02  -0.06
  10   1    -0.03  -0.04   0.02    -0.03  -0.00   0.02    -0.05  -0.01  -0.02
  11   1    -0.02  -0.01  -0.00    -0.03   0.00   0.02    -0.08   0.00  -0.01
  12   1    -0.00  -0.02   0.04    -0.02  -0.01   0.02    -0.06  -0.02  -0.03
  13   6    -0.01   0.03   0.05    -0.07   0.08   0.04    -0.13   0.09   0.03
  14   1    -0.01   0.00   0.02    -0.02   0.03   0.01    -0.03   0.02   0.00
  15   1     0.01   0.02   0.01    -0.02   0.03   0.00    -0.03   0.03   0.01
  16   1    -0.01   0.01   0.01    -0.02   0.02   0.02    -0.05   0.03   0.02
  17   6     0.05   0.02   0.06    -0.05   0.01   0.04    -0.21   0.06  -0.00
  18   1     0.04   0.02   0.02    -0.01   0.01   0.01    -0.07   0.01   0.01
  19   1     0.02  -0.01   0.02    -0.01  -0.00   0.01    -0.07   0.03  -0.01
  20   1    -0.01   0.02   0.01    -0.01   0.00   0.01    -0.05   0.01  -0.00
  21   1     0.04  -0.04  -0.09     0.00  -0.02  -0.03    -0.01  -0.05   0.01
  22   6     0.01   0.00  -0.02     0.02  -0.07  -0.05     0.01  -0.00  -0.01
  23   8     0.01   0.14   0.09    -0.12  -0.34  -0.42     0.04   0.10   0.11
  24   7     0.00  -0.05   0.02     0.09   0.03   0.13     0.01   0.00   0.03
  25   1    -0.00  -0.00   0.04     0.01  -0.01  -0.02     0.01   0.02   0.05
  26   1     0.00  -0.05  -0.01     0.06   0.07   0.08    -0.00  -0.03  -0.00
  27   7     0.02  -0.09  -0.17     0.14   0.11   0.19    -0.04  -0.12  -0.18
  28   1     0.01  -0.05  -0.08     0.05   0.06   0.11    -0.01  -0.04  -0.06
  29   1     0.01  -0.01  -0.06     0.01  -0.00   0.02    -0.01  -0.02  -0.05
  30   6     0.02   0.07  -0.08     0.05  -0.03  -0.06     0.20   0.05   0.07
  31   8    -0.02   0.21  -0.31     0.15  -0.04  -0.15     0.53  -0.16   0.19
  32   7     0.09   0.06   0.08     0.05   0.07   0.03     0.09   0.31   0.06
  33   1     0.02   0.05  -0.00     0.03   0.04   0.01     0.08   0.08   0.06
  34   1     0.03  -0.01   0.06    -0.01   0.02   0.02    -0.03   0.12   0.01
  35   7     0.02  -0.09   0.01    -0.05  -0.12  -0.07    -0.03   0.07  -0.07
  36   1     0.01  -0.04   0.03    -0.03  -0.03   0.00    -0.06   0.05  -0.03
  37   1    -0.02  -0.01  -0.04    -0.01  -0.05  -0.04     0.02  -0.04  -0.01
  38   6    -0.04   0.03   0.15     0.02   0.10  -0.00    -0.00  -0.03  -0.03
  39   8    -0.18   0.06   0.34     0.02   0.17   0.05    -0.02  -0.13  -0.10
  40   7     0.15  -0.20   0.03     0.03  -0.03  -0.11     0.01   0.05   0.05
  41   1     0.04  -0.04   0.07     0.01  -0.00  -0.03     0.01  -0.01  -0.00
  42   1     0.07  -0.01   0.02     0.01  -0.00  -0.03     0.01   0.01   0.01
  43   7    -0.07   0.21   0.08     0.02   0.16   0.05    -0.01   0.02  -0.01
  44   1     0.02   0.02  -0.03     0.01   0.01  -0.01    -0.00   0.03   0.01
  45   1    -0.04   0.05   0.00     0.01   0.04   0.01    -0.01  -0.00  -0.01
  46   6    -0.03  -0.02  -0.07    -0.01  -0.01   0.06     0.01   0.02  -0.00
  47   8    -0.02  -0.06  -0.33     0.00  -0.03  -0.12     0.03   0.00  -0.05
  48   7    -0.05   0.02   0.26     0.00  -0.03  -0.12     0.02   0.05   0.07
  49   1    -0.01   0.01   0.05     0.00  -0.01  -0.08     0.01   0.01   0.01
  50   1    -0.01   0.01   0.10    -0.00   0.01   0.02     0.00   0.01   0.02
  51   7    -0.02  -0.03  -0.13    -0.04   0.05   0.50     0.01   0.02  -0.03
  52   1    -0.01   0.00   0.04    -0.01   0.01   0.12    -0.00   0.01   0.02
  53   1    -0.01  -0.00  -0.04    -0.01  -0.01   0.06     0.00   0.01   0.00
                     16                     17                     18
                        a                      a                      a 
 Frequencies --    85.7994               102.0063               108.2382
 Red. masses --    13.2854                12.0119                12.8690
 Frc consts  --     0.0000                 0.0000                 0.0000
 IR Inten    --     1.7714                 2.8779                16.0758
 Raman Activ --     0.0000                 0.0000                 0.0000
 Depolar     --     0.0000                 0.0000                 0.0000
 Atom AN      X      Y      Z        X      Y      Z        X      Y      Z
   1   8     0.00  -0.12   0.01     0.11   0.07   0.01     0.07  -0.00  -0.05
   2   6     0.05  -0.05  -0.05     0.13   0.08  -0.14     0.08   0.02   0.01
   3   1     0.02  -0.03  -0.02     0.05  -0.01  -0.05     0.02   0.02   0.01
   4   1     0.03  -0.01  -0.02     0.04   0.04  -0.07     0.03  -0.00   0.02
   5   6     0.02   0.05  -0.04     0.07   0.23  -0.12     0.08   0.02   0.01
   6   1     0.00   0.03  -0.01     0.01   0.09  -0.03     0.02  -0.01  -0.00
   7   1     0.01   0.02  -0.02     0.04   0.08  -0.06     0.03   0.01   0.02
   8   7    -0.03   0.05   0.02    -0.01   0.22   0.01     0.03   0.07  -0.05
   9   6    -0.07   0.01   0.05    -0.03   0.19   0.05    -0.01   0.03  -0.12
  10   1    -0.02   0.02   0.02     0.00   0.07   0.02    -0.01  -0.01  -0.04
  11   1    -0.03   0.00   0.03    -0.02   0.05   0.04    -0.01   0.02  -0.05
  12   1    -0.02  -0.01   0.01    -0.01   0.03  -0.00    -0.00   0.01  -0.03
  13   6    -0.04   0.11   0.03     0.03   0.30   0.09     0.02   0.06  -0.05
  14   1    -0.01   0.04   0.01     0.02   0.09   0.02     0.01   0.00  -0.02
  15   1    -0.00   0.04   0.00     0.02   0.09   0.03     0.01   0.02  -0.01
  16   1    -0.02   0.03   0.02    -0.01   0.09   0.05     0.00   0.02  -0.02
  17   6    -0.03  -0.01   0.01    -0.09   0.10   0.02     0.00   0.14  -0.03
  18   1    -0.01  -0.00  -0.01    -0.04   0.02  -0.00     0.01   0.05   0.00
  19   1    -0.01  -0.01   0.00    -0.04   0.03  -0.01    -0.00   0.04  -0.01
  20   1    -0.01  -0.01   0.01    -0.02   0.01   0.03    -0.01   0.05  -0.02
  21   1    -0.01  -0.03   0.01     0.01   0.02   0.01     0.03   0.00  -0.02
  22   6    -0.02   0.01   0.16    -0.01   0.01  -0.04     0.04  -0.01   0.07
  23   8     0.04   0.06   0.28    -0.01   0.08   0.00     0.09  -0.16  -0.01
  24   7    -0.11  -0.15  -0.10     0.00   0.04   0.03     0.03   0.02  -0.08
  25   1    -0.04  -0.05  -0.05     0.01   0.02   0.04     0.01  -0.01  -0.08
  26   1    -0.05  -0.04  -0.04     0.01  -0.01   0.00    -0.01   0.04  -0.01
  27   7     0.00   0.13   0.36    -0.04  -0.08  -0.20     0.03   0.13   0.33
  28   1    -0.01   0.01   0.05    -0.00  -0.02  -0.05    -0.00   0.05   0.10
  29   1     0.00   0.03   0.10    -0.00  -0.01  -0.04     0.01   0.02   0.09
  30   6     0.00  -0.09  -0.07    -0.06  -0.21  -0.09    -0.02  -0.09   0.03
  31   8     0.07  -0.11  -0.12     0.01  -0.29  -0.07     0.02  -0.18   0.15
  32   7    -0.01  -0.03  -0.02    -0.09  -0.18  -0.11    -0.07  -0.08  -0.06
  33   1     0.01   0.00  -0.01    -0.02  -0.04  -0.03    -0.01  -0.04  -0.00
  34   1    -0.02  -0.00  -0.00    -0.04  -0.03  -0.05    -0.02  -0.00  -0.04
  35   7    -0.07  -0.14  -0.09    -0.14  -0.23  -0.15    -0.04  -0.01  -0.03
  36   1    -0.03  -0.04  -0.01    -0.04  -0.07  -0.02    -0.01   0.00  -0.02
  37   1    -0.02  -0.06  -0.03    -0.02  -0.09  -0.02     0.00  -0.02   0.02
  38   6     0.14   0.18  -0.07     0.01  -0.09   0.15    -0.10  -0.07   0.00
  39   8     0.22   0.33  -0.05     0.02   0.00   0.25    -0.33  -0.35   0.04
  40   7     0.05   0.10  -0.20     0.02  -0.12   0.14     0.21  -0.08   0.14
  41   1     0.01   0.06  -0.05     0.00  -0.02   0.05     0.08  -0.11   0.05
  42   1    -0.00   0.02  -0.04     0.00  -0.06   0.02     0.11   0.01   0.00
  43   7     0.16   0.13  -0.00     0.02  -0.17   0.10    -0.15   0.23  -0.12
  44   1     0.03   0.00  -0.01     0.01  -0.06   0.01    -0.00   0.11  -0.04
  45   1     0.06   0.04   0.01     0.01  -0.04   0.04    -0.09   0.07  -0.05
  46   6    -0.07  -0.09  -0.02     0.01   0.01   0.02     0.00   0.07  -0.03
  47   8    -0.16  -0.02   0.02     0.06  -0.03   0.08    -0.13   0.21  -0.06
  48   7    -0.11  -0.19   0.13     0.03   0.06  -0.06    -0.05  -0.09   0.05
  49   1    -0.05  -0.06   0.05     0.02   0.02  -0.01    -0.05  -0.03   0.02
  50   1    -0.01  -0.08   0.01    -0.00   0.03  -0.02     0.01  -0.05   0.01
  51   7     0.03  -0.11  -0.24    -0.04  -0.00   0.02     0.16   0.10  -0.10
  52   1     0.02  -0.04  -0.04    -0.02   0.00  -0.01     0.06   0.01  -0.01
  53   1     0.01  -0.01  -0.02    -0.01  -0.00   0.01     0.05   0.04  -0.02
                     19                     20                     21
                        a                      a                      a 
 Frequencies --   115.3636               120.5810               128.2167
 Red. masses --    12.6941                10.2701                12.5669
 Frc consts  --     0.0000                 0.0000                 0.0000
 IR Inten    --    21.8589                 1.8882                12.0697
 Raman Activ --     0.0000                 0.0000                 0.0000
 Depolar     --     0.0000                 0.0000                 0.0000
 Atom AN      X      Y      Z        X      Y      Z        X      Y      Z
   1   8    -0.04  -0.02   0.20    -0.02  -0.03  -0.09    -0.05  -0.05  -0.12
   2   6    -0.02  -0.01   0.01     0.03   0.10   0.35    -0.05  -0.04  -0.11
   3   1     0.04  -0.01  -0.01    -0.03   0.14   0.12    -0.01  -0.02  -0.03
   4   1    -0.02  -0.00   0.01     0.04  -0.02   0.19    -0.01  -0.01  -0.03
   5   6    -0.11  -0.01  -0.15     0.09  -0.08   0.30    -0.04  -0.04  -0.11
   6   1    -0.07  -0.00  -0.03     0.04  -0.11   0.07    -0.01  -0.01  -0.03
   7   1    -0.03  -0.01  -0.07     0.03  -0.02   0.16    -0.01  -0.01  -0.03
   8   7    -0.04  -0.02  -0.25     0.04   0.07   0.01    -0.04  -0.04  -0.13
   9   6     0.01   0.02  -0.26    -0.07  -0.04  -0.12    -0.05  -0.04  -0.11
  10   1     0.01   0.00  -0.08    -0.04  -0.07  -0.04    -0.01  -0.01  -0.03
  11   1     0.01   0.00  -0.07    -0.03   0.02  -0.09    -0.02  -0.01  -0.03
  12   1    -0.00   0.02  -0.08    -0.01  -0.00  -0.01    -0.01  -0.02  -0.03
  13   6    -0.04  -0.10  -0.26    -0.07   0.02  -0.16    -0.05  -0.03  -0.13
  14   1    -0.02  -0.03  -0.07    -0.05  -0.02  -0.04    -0.02  -0.01  -0.04
  15   1    -0.02  -0.04  -0.07    -0.01   0.01  -0.05    -0.01  -0.01  -0.04
  16   1     0.01  -0.03  -0.08    -0.01   0.01  -0.08    -0.01  -0.01  -0.04
  17   6    -0.02   0.04  -0.24     0.18   0.34  -0.01    -0.02  -0.04  -0.13
  18   1    -0.02   0.00  -0.06     0.09   0.13   0.02    -0.00  -0.01  -0.04
  19   1    -0.00   0.03  -0.06     0.07   0.10   0.03    -0.00  -0.02  -0.03
  20   1     0.01   0.01  -0.08     0.03   0.13  -0.06    -0.01  -0.01  -0.04
  21   1    -0.03   0.01   0.06     0.04  -0.07  -0.04    -0.02  -0.01  -0.03
  22   6    -0.05  -0.06   0.01    -0.03   0.04  -0.05     0.14   0.15   0.03
  23   8    -0.02  -0.12  -0.01    -0.09   0.11  -0.07     0.01   0.28  -0.02
  24   7    -0.01   0.06   0.07    -0.04  -0.03  -0.01     0.05  -0.14  -0.07
  25   1     0.02   0.02   0.03    -0.03  -0.01   0.01    -0.04  -0.06  -0.04
  26   1    -0.00   0.02   0.02     0.00  -0.02  -0.00     0.03  -0.05  -0.01
  27   7    -0.12  -0.10  -0.02     0.05   0.05  -0.10     0.39   0.34   0.19
  28   1    -0.04  -0.03  -0.02     0.02   0.01  -0.02     0.12   0.08   0.06
  29   1    -0.03  -0.03  -0.00     0.01   0.01  -0.04     0.09   0.09   0.02
  30   6     0.00   0.03   0.06    -0.02  -0.11   0.05     0.02   0.03   0.02
  31   8    -0.01   0.01   0.14     0.03  -0.24   0.21     0.02   0.03   0.03
  32   7    -0.02   0.02  -0.00    -0.08  -0.11  -0.07     0.01   0.04   0.01
  33   1    -0.00  -0.02   0.02    -0.02  -0.05  -0.01     0.01   0.00   0.01
  34   1     0.01  -0.00   0.00    -0.03   0.00  -0.06     0.01   0.00   0.01
  35   7     0.04   0.10   0.05    -0.05  -0.01  -0.03     0.02   0.04   0.02
  36   1     0.01   0.04  -0.01    -0.01   0.00  -0.02     0.00   0.02  -0.01
  37   1     0.01   0.04   0.02     0.01  -0.02   0.03     0.00   0.02   0.00
  38   6     0.08   0.12   0.16     0.03   0.04  -0.02     0.01  -0.15   0.14
  39   8    -0.01   0.31   0.44     0.09   0.10  -0.04     0.10  -0.07   0.15
  40   7     0.23  -0.11   0.03    -0.05   0.05  -0.05    -0.09  -0.13   0.15
  41   1     0.06   0.01   0.07    -0.02   0.03  -0.02    -0.03  -0.02   0.03
  42   1     0.08  -0.02  -0.01    -0.03   0.00  -0.01    -0.04  -0.07   0.03
  43   7     0.08   0.11   0.03     0.04  -0.03   0.03     0.04  -0.30   0.16
  44   1     0.04  -0.02  -0.04     0.00  -0.02   0.01     0.00  -0.08   0.05
  45   1     0.01   0.04   0.02     0.03  -0.01   0.01     0.01  -0.07   0.05
  46   6     0.01  -0.06   0.02    -0.02  -0.07  -0.03    -0.10   0.05   0.01
  47   8     0.00  -0.05   0.11     0.05  -0.16  -0.13    -0.09   0.02  -0.04
  48   7     0.01  -0.08  -0.04    -0.00   0.03   0.03    -0.10   0.08   0.02
  49   1    -0.00  -0.02   0.00     0.02   0.01  -0.00    -0.02   0.02  -0.01
  50   1     0.01  -0.03  -0.02    -0.01   0.03   0.03    -0.03   0.03   0.02
  51   7     0.01  -0.07  -0.01    -0.10  -0.08   0.02    -0.11   0.06   0.07
  52   1     0.00  -0.02  -0.02    -0.04  -0.01   0.03    -0.03   0.01   0.03
  53   1     0.00  -0.02   0.00    -0.03  -0.02  -0.00    -0.03   0.03   0.01
                     22                     23                     24
                        a                      a                      a 
 Frequencies --   156.6907               161.9746               176.9304
 Red. masses --    12.3061                13.2932                 3.8292
 Frc consts  --     0.0000                 0.0000                 0.0000
 IR Inten    --    21.1517                 5.2336                 9.8584
 Raman Activ --     0.0000                 0.0000                 0.0000
 Depolar     --     0.0000                 0.0000                 0.0000
 Atom AN      X      Y      Z        X      Y      Z        X      Y      Z
   1   8     0.01  -0.04   0.31     0.01  -0.01   0.09    -0.05  -0.07   0.02
   2   6     0.06   0.01   0.11     0.02  -0.01  -0.03    -0.01  -0.01   0.01
   3   1     0.05  -0.01   0.02     0.02  -0.02  -0.01     0.00   0.00   0.00
   4   1     0.01   0.01   0.02    -0.00   0.01  -0.03     0.01  -0.01   0.01
   5   6    -0.04   0.09  -0.00    -0.04   0.06  -0.07    -0.04   0.02  -0.02
   6   1    -0.05   0.05   0.01    -0.03   0.04  -0.01    -0.02   0.01  -0.00
   7   1    -0.01   0.03  -0.05    -0.01   0.02  -0.06    -0.01   0.00  -0.02
   8   7     0.04   0.05   0.03     0.00   0.01  -0.01     0.00  -0.00  -0.01
   9   6     0.11   0.10   0.03     0.05   0.06   0.02     0.04   0.03  -0.00
  10   1     0.05   0.05   0.01     0.03   0.04   0.00     0.02   0.02  -0.00
  11   1     0.04   0.02   0.03     0.02   0.00   0.03     0.01   0.00   0.01
  12   1     0.02   0.03  -0.01     0.01   0.01  -0.01     0.00   0.01  -0.01
  13   6     0.07  -0.04   0.04     0.03  -0.01   0.03     0.02  -0.04  -0.00
  14   1     0.03  -0.02   0.01     0.02  -0.01   0.00     0.01  -0.01  -0.00
  15   1     0.01  -0.02   0.03     0.00  -0.01   0.02    -0.00  -0.02   0.00
  16   1     0.03  -0.01   0.00     0.01  -0.00   0.01     0.01  -0.01   0.00
  17   6     0.02   0.01   0.03    -0.04  -0.06  -0.01     0.00  -0.01  -0.01
  18   1    -0.03  -0.02   0.01    -0.04  -0.04  -0.01    -0.01  -0.01  -0.00
  19   1    -0.00   0.03   0.01    -0.02   0.00  -0.01     0.00   0.01  -0.00
  20   1     0.03  -0.02   0.01     0.01  -0.03   0.01     0.02  -0.01  -0.01
  21   1    -0.03  -0.01   0.09    -0.01  -0.01   0.03    -0.00  -0.01   0.00
  22   6     0.15  -0.04  -0.10    -0.12   0.18   0.01    -0.01   0.00   0.01
  23   8    -0.01   0.15  -0.13    -0.23   0.26  -0.02     0.01  -0.01   0.01
  24   7     0.14  -0.24   0.12    -0.18  -0.01   0.02    -0.01   0.02  -0.02
  25   1    -0.01  -0.06   0.08    -0.09  -0.02  -0.01     0.00   0.00  -0.01
  26   1     0.08  -0.12   0.03    -0.03  -0.02   0.01    -0.01   0.01  -0.01
  27   7     0.34  -0.06  -0.29     0.04   0.28   0.08    -0.02   0.01   0.03
  28   1     0.12  -0.02  -0.05     0.03   0.07   0.04    -0.01   0.00   0.01
  29   1     0.09  -0.00  -0.11     0.01   0.08   0.02    -0.01  -0.00   0.01
  30   6    -0.01  -0.00  -0.00    -0.00   0.01  -0.00     0.01   0.03   0.01
  31   8    -0.03   0.01  -0.01    -0.01   0.02  -0.01    -0.00   0.04  -0.00
  32   7    -0.00  -0.03   0.00     0.00   0.00  -0.00     0.14  -0.18   0.21
  33   1    -0.01   0.00  -0.01     0.00  -0.00   0.00    -0.16   0.23  -0.26
  34   1    -0.01   0.00  -0.01     0.00  -0.00   0.01    -0.19   0.31  -0.31
  35   7    -0.01   0.00  -0.00     0.00   0.00   0.00    -0.14   0.18  -0.21
  36   1     0.01  -0.01   0.01     0.00  -0.00   0.00     0.25  -0.25   0.36
  37   1     0.00  -0.01   0.01    -0.00   0.00  -0.00     0.17  -0.21   0.27
  38   6    -0.00   0.06  -0.07    -0.02   0.01  -0.06    -0.00  -0.01   0.01
  39   8    -0.08  -0.03  -0.07    -0.16  -0.15  -0.06     0.01  -0.00   0.01
  40   7     0.11   0.05  -0.04     0.17   0.00   0.02    -0.01  -0.01   0.01
  41   1     0.04  -0.02  -0.01     0.06  -0.06   0.01    -0.00  -0.00  -0.00
  42   1     0.05   0.02  -0.02     0.08   0.03  -0.01    -0.01  -0.01  -0.00
  43   7    -0.02   0.18  -0.10    -0.06   0.21  -0.10     0.00  -0.02   0.01
  44   1     0.00   0.07  -0.02     0.00   0.06  -0.04     0.00  -0.01   0.00
  45   1    -0.02   0.06  -0.03    -0.03   0.04  -0.05     0.00  -0.01   0.00
  46   6    -0.19  -0.02   0.03     0.13  -0.22   0.03     0.01   0.00  -0.03
  47   8    -0.28   0.02   0.08     0.30  -0.39   0.03     0.01  -0.00  -0.08
  48   7    -0.26  -0.18  -0.01     0.20   0.03  -0.01     0.01   0.01   0.01
  49   1    -0.10  -0.06   0.02     0.11   0.02   0.01     0.01   0.00  -0.01
  50   1    -0.04  -0.07   0.01     0.02   0.05   0.01     0.00   0.01   0.01
  51   7    -0.14  -0.02   0.02    -0.10  -0.28   0.06     0.01   0.01  -0.00
  52   1    -0.02  -0.02  -0.02    -0.06  -0.05   0.00     0.00   0.00   0.02
  53   1    -0.04   0.01  -0.01    -0.03  -0.09   0.01     0.00   0.00  -0.00
                     25                     26                     27
                        a                      a                      a 
 Frequencies --   186.3173               189.4388               216.9735
 Red. masses --    11.3077                12.4728                 2.9584
 Frc consts  --     0.0000                 0.0000                 0.0000
 IR Inten    --     6.5203                37.4797               190.7973
 Raman Activ --     0.0000                 0.0000                 0.0000
 Depolar     --     0.0000                 0.0000                 0.0000
 Atom AN      X      Y      Z        X      Y      Z        X      Y      Z
   1   8     0.21   0.36  -0.17    -0.03  -0.08   0.04    -0.05  -0.06  -0.12
   2   6    -0.06  -0.02  -0.16     0.01  -0.01   0.03    -0.02   0.01  -0.00
   3   1    -0.05  -0.06  -0.05     0.01   0.01   0.01    -0.02   0.03   0.00
   4   1    -0.08   0.03  -0.09     0.01  -0.01   0.02     0.01  -0.01   0.02
   5   6     0.15  -0.20   0.04    -0.02   0.03  -0.01    -0.00  -0.00   0.01
   6   1     0.12  -0.11  -0.02    -0.02   0.02   0.00     0.00   0.00   0.00
   7   1     0.04  -0.06   0.11    -0.01   0.01  -0.02    -0.00  -0.00   0.00
   8   7    -0.05  -0.10  -0.00     0.01   0.01  -0.00     0.01  -0.01   0.01
   9   6    -0.21  -0.23  -0.03     0.03   0.03   0.00     0.01  -0.00  -0.01
  10   1    -0.13  -0.14  -0.00     0.02   0.02  -0.00     0.02   0.01  -0.00
  11   1    -0.07  -0.03  -0.09     0.01   0.00   0.01    -0.00  -0.00   0.01
  12   1    -0.02  -0.06   0.06     0.00   0.01  -0.01    -0.01  -0.01  -0.02
  13   6    -0.11   0.11  -0.01     0.02  -0.02   0.00     0.01  -0.01   0.00
  14   1    -0.05   0.06   0.00     0.01  -0.01  -0.00    -0.00   0.01   0.00
  15   1    -0.01   0.05  -0.04     0.00  -0.01   0.01    -0.00  -0.01  -0.01
  16   1    -0.05   0.03   0.03     0.01  -0.01  -0.00     0.01  -0.01   0.01
  17   6    -0.03  -0.01   0.00     0.01  -0.00  -0.00     0.01  -0.01   0.01
  18   1     0.08   0.06  -0.01    -0.01  -0.01   0.00     0.00  -0.00   0.00
  19   1    -0.00  -0.10  -0.01     0.00   0.02   0.00     0.01   0.00   0.00
  20   1    -0.10   0.05   0.01     0.02  -0.01  -0.00     0.01  -0.00  -0.00
  21   1     0.01   0.08  -0.03     0.00  -0.00   0.00     0.00  -0.03  -0.04
  22   6    -0.00   0.02  -0.03    -0.19   0.07  -0.04     0.00  -0.01   0.00
  23   8    -0.10   0.09  -0.06    -0.36   0.12  -0.13     0.02   0.00   0.02
  24   7    -0.02  -0.09   0.11    -0.24  -0.13   0.21     0.00  -0.01  -0.01
  25   1    -0.03  -0.02   0.06    -0.12  -0.04   0.09     0.00   0.00   0.01
  26   1     0.03  -0.04   0.04     0.01  -0.05   0.09     0.00  -0.01  -0.00
  27   7     0.08   0.01  -0.11    -0.00   0.10  -0.10    -0.01  -0.02  -0.04
  28   1     0.04  -0.01  -0.02     0.03   0.00  -0.02     0.01   0.01   0.02
  29   1     0.03   0.02  -0.03    -0.00   0.06  -0.06     0.00   0.00  -0.00
  30   6     0.02   0.00   0.01    -0.00   0.00  -0.00    -0.01   0.01  -0.01
  31   8     0.03  -0.01   0.01    -0.01   0.00  -0.00    -0.01   0.01  -0.01
  32   7     0.03  -0.01   0.04    -0.00   0.00  -0.00     0.01  -0.01   0.01
  33   1    -0.02   0.04  -0.04     0.00  -0.01   0.01    -0.01   0.01  -0.01
  34   1    -0.03   0.06  -0.05     0.01  -0.01   0.01    -0.01   0.01  -0.01
  35   7    -0.02   0.03  -0.04     0.01  -0.00   0.01     0.01  -0.01   0.01
  36   1     0.04  -0.04   0.06    -0.01   0.01  -0.01    -0.01   0.01  -0.02
  37   1     0.03  -0.04   0.05    -0.01   0.01  -0.01    -0.01   0.01  -0.01
  38   6     0.01   0.05  -0.02    -0.00  -0.04   0.03    -0.01  -0.01  -0.04
  39   8    -0.04   0.03   0.01     0.06   0.01   0.02    -0.02   0.09   0.05
  40   7     0.07   0.01  -0.03    -0.08  -0.02   0.02    -0.01   0.21   0.22
  41   1     0.02   0.01   0.02    -0.03   0.01  -0.01     0.05  -0.35  -0.35
  42   1     0.03   0.03   0.01    -0.04  -0.03  -0.00     0.04  -0.52  -0.54
  43   7     0.00   0.07  -0.06     0.01  -0.11   0.04     0.00   0.00  -0.02
  44   1    -0.00   0.03  -0.01    -0.00  -0.01   0.03    -0.04   0.12   0.10
  45   1    -0.00   0.04   0.00    -0.00  -0.02   0.02    -0.01   0.08   0.07
  46   6     0.02  -0.02   0.14     0.19   0.03  -0.04     0.01   0.00   0.03
  47   8    -0.03   0.04   0.44     0.00   0.25  -0.15     0.01   0.00   0.09
  48   7     0.01  -0.11  -0.07     0.10  -0.31   0.06     0.01   0.01  -0.02
  49   1    -0.02  -0.03   0.06    -0.05  -0.11   0.01     0.01   0.00   0.03
  50   1     0.02  -0.05  -0.04     0.09  -0.14   0.05     0.00   0.00   0.00
  51   7     0.05  -0.04  -0.00     0.46   0.12  -0.03     0.00  -0.01  -0.00
  52   1     0.02  -0.02  -0.09     0.15   0.01   0.02     0.00  -0.00  -0.02
  53   1     0.01  -0.00   0.00     0.14   0.06  -0.02    -0.00  -0.00   0.00
                     28                     29                     30
                        a                      a                      a 
 Frequencies --   231.7470               268.5223               286.1952
 Red. masses --    12.2437                 5.2214                 3.0757
 Frc consts  --     0.0000                 0.0000                 0.0000
 IR Inten    --     5.6118                 7.3923               163.2864
 Raman Activ --     0.0000                 0.0000                 0.0000
 Depolar     --     0.0000                 0.0000                 0.0000
 Atom AN      X      Y      Z        X      Y      Z        X      Y      Z
   1   8     0.28   0.35   0.48     0.24   0.21  -0.05     0.06   0.03   0.01
   2   6     0.04  -0.05  -0.02     0.14   0.11   0.24     0.03  -0.02   0.02
   3   1     0.04  -0.14  -0.03     0.06   0.15   0.08     0.01  -0.00   0.01
   4   1    -0.08   0.04  -0.10     0.01  -0.01   0.18     0.00  -0.00   0.01
   5   6     0.06  -0.09   0.01     0.04  -0.10  -0.04     0.00  -0.01   0.00
   6   1     0.03  -0.04  -0.01    -0.03  -0.04  -0.00    -0.00  -0.01   0.00
   7   1     0.02  -0.02   0.03     0.02  -0.02  -0.03     0.01   0.00  -0.00
   8   7    -0.04  -0.05   0.00    -0.05  -0.07  -0.06    -0.03  -0.00  -0.00
   9   6    -0.07  -0.07  -0.01    -0.12  -0.12   0.01     0.01   0.03   0.02
  10   1    -0.11  -0.10   0.01     0.09   0.08  -0.01    -0.02  -0.00   0.01
  11   1     0.02   0.01  -0.11    -0.11  -0.07   0.16     0.03   0.01  -0.02
  12   1     0.03   0.03   0.10    -0.10  -0.12  -0.14     0.01   0.03   0.03
  13   6    -0.06   0.05  -0.00    -0.08   0.13  -0.01    -0.04  -0.02  -0.02
  14   1    -0.03   0.06   0.01    -0.00  -0.09  -0.02    -0.02   0.00  -0.00
  15   1    -0.02   0.00  -0.05     0.06   0.13   0.10    -0.02  -0.01  -0.02
  16   1    -0.01  -0.01   0.03    -0.14   0.11  -0.07    -0.00  -0.01  -0.01
  17   6    -0.06  -0.02   0.01    -0.13  -0.22  -0.05    -0.04  -0.02   0.00
  18   1     0.06   0.05  -0.01    -0.34  -0.28   0.04    -0.04  -0.03   0.01
  19   1    -0.02  -0.09  -0.01    -0.06   0.29   0.00    -0.02   0.03   0.00
  20   1    -0.09   0.03   0.02     0.26  -0.23  -0.07     0.02  -0.02  -0.00
  21   1     0.01   0.16   0.14     0.06  -0.01  -0.01     0.04   0.03  -0.01
  22   6    -0.01   0.00   0.01     0.00  -0.00  -0.00     0.00  -0.00   0.01
  23   8     0.01  -0.01   0.01     0.00  -0.01  -0.01     0.01  -0.00   0.03
  24   7    -0.00   0.02  -0.02     0.01   0.00  -0.01    -0.00   0.01  -0.01
  25   1     0.00   0.00  -0.01     0.00  -0.00  -0.01     0.01   0.00  -0.01
  26   1    -0.01   0.01  -0.01    -0.00   0.00  -0.00    -0.01   0.01  -0.01
  27   7    -0.02   0.01   0.05     0.01   0.00   0.01    -0.01  -0.01   0.03
  28   1    -0.01   0.00   0.00     0.00   0.00  -0.00    -0.01  -0.01  -0.02
  29   1    -0.02  -0.01  -0.00    -0.00  -0.00  -0.01    -0.01  -0.00  -0.00
  30   6     0.00   0.00   0.00    -0.00   0.01  -0.00    -0.00   0.00  -0.00
  31   8     0.01  -0.00   0.00    -0.01   0.02  -0.01    -0.00   0.00  -0.00
  32   7     0.00   0.00   0.00     0.01   0.01   0.01     0.00   0.00   0.00
  33   1     0.00   0.00  -0.00     0.00   0.01  -0.00    -0.00   0.00  -0.00
  34   1    -0.00   0.01  -0.00    -0.00   0.01   0.00    -0.00   0.00  -0.00
  35   7     0.00   0.00  -0.00     0.01   0.01   0.00     0.00   0.00   0.00
  36   1    -0.00   0.00  -0.00     0.01  -0.00   0.00    -0.00   0.00  -0.00
  37   1    -0.00   0.00  -0.00     0.00   0.00   0.00    -0.00   0.00  -0.00
  38   6     0.00  -0.03   0.00    -0.00   0.00   0.01     0.01  -0.01   0.00
  39   8     0.03   0.01   0.01     0.00   0.01   0.01     0.02  -0.00  -0.00
  40   7    -0.05   0.03   0.05    -0.01   0.00   0.00    -0.02   0.00   0.00
  41   1    -0.00  -0.06  -0.08    -0.00  -0.00  -0.01    -0.01   0.01  -0.00
  42   1    -0.01  -0.12  -0.11    -0.00  -0.01  -0.01    -0.01  -0.00   0.00
  43   7     0.01  -0.02   0.04     0.00  -0.01  -0.00     0.00   0.01   0.02
  44   1     0.00  -0.00   0.01    -0.00   0.00   0.00     0.01  -0.03  -0.02
  45   1     0.00  -0.03  -0.01    -0.00   0.00   0.00     0.00  -0.02  -0.02
  46   6    -0.02  -0.02  -0.18    -0.01   0.00  -0.02     0.00   0.01   0.02
  47   8    -0.01  -0.07  -0.50    -0.01  -0.00  -0.05     0.01  -0.01  -0.07
  48   7    -0.04  -0.02   0.08    -0.01  -0.00   0.03    -0.05  -0.04  -0.36
  49   1    -0.01  -0.01  -0.11    -0.01  -0.00  -0.04     0.02   0.03   0.51
  50   1    -0.01  -0.00   0.02    -0.01  -0.01  -0.04     0.04   0.10   0.71
  51   7    -0.04  -0.01   0.01    -0.01   0.00  -0.01     0.01   0.02   0.04
  52   1    -0.02   0.01   0.09    -0.00   0.00   0.02     0.01  -0.02  -0.19
  53   1    -0.01  -0.01  -0.01    -0.00   0.00   0.00     0.01  -0.00  -0.07
                     31                     32                     33
                        a                      a                      a 
 Frequencies --   300.2826               322.6580               329.0336
 Red. masses --     8.1257                 4.6683                 3.5791
 Frc consts  --     0.0000                 0.0000                 0.0000
 IR Inten    --     2.3310                 7.1787               515.3093
 Raman Activ --     0.0000                 0.0000                 0.0000
 Depolar     --     0.0000                 0.0000                 0.0000
 Atom AN      X      Y      Z        X      Y      Z        X      Y      Z
   1   8     0.31  -0.01  -0.19    -0.00  -0.06  -0.08    -0.00   0.01   0.02
   2   6     0.12  -0.17  -0.03     0.11   0.17   0.28    -0.01  -0.02  -0.06
   3   1     0.02  -0.05  -0.01     0.05   0.20   0.09    -0.00  -0.03  -0.02
   4   1     0.03  -0.04  -0.02     0.06  -0.02   0.23    -0.01   0.01  -0.04
   5   6     0.02  -0.03   0.04    -0.03   0.02  -0.07     0.01   0.00  -0.00
   6   1    -0.01  -0.01   0.01    -0.06  -0.01  -0.01     0.01   0.00  -0.00
   7   1     0.05   0.03   0.00    -0.01   0.00  -0.05     0.00   0.00   0.00
   8   7    -0.14   0.05   0.05    -0.01  -0.00  -0.09     0.00   0.00   0.01
   9   6     0.13   0.29   0.22     0.00  -0.00  -0.13    -0.02  -0.01   0.02
  10   1    -0.11   0.04   0.09    -0.19  -0.17  -0.02     0.03   0.03   0.00
  11   1     0.19   0.06  -0.06     0.10   0.05  -0.27    -0.03  -0.01   0.05
  12   1     0.10   0.21   0.22     0.09   0.12   0.16    -0.02  -0.03  -0.03
  13   6    -0.24  -0.27  -0.22     0.08   0.16   0.12    -0.01  -0.03  -0.02
  14   1    -0.15  -0.01  -0.03     0.01   0.34   0.06    -0.01  -0.02  -0.01
  15   1    -0.15  -0.16  -0.16    -0.08  -0.08  -0.19    -0.01  -0.01  -0.00
  16   1     0.07  -0.14  -0.07     0.15  -0.10   0.26     0.00  -0.01  -0.01
  17   6    -0.20   0.10   0.07    -0.16  -0.28  -0.08     0.03   0.07   0.01
  18   1    -0.17  -0.05   0.08    -0.01  -0.06  -0.07    -0.01   0.01   0.02
  19   1    -0.08   0.18   0.01    -0.05  -0.16  -0.05     0.01   0.05   0.01
  20   1     0.05  -0.02  -0.02    -0.10  -0.08   0.07     0.03   0.01  -0.02
  21   1     0.08  -0.01  -0.05     0.03  -0.09  -0.03    -0.01   0.01   0.01
  22   6    -0.00   0.00  -0.00    -0.00  -0.00   0.00     0.00   0.00   0.00
  23   8    -0.00   0.00  -0.00    -0.00  -0.00  -0.00     0.00   0.00   0.00
  24   7    -0.00  -0.00   0.00     0.00   0.00  -0.01    -0.00   0.00  -0.00
  25   1    -0.00  -0.00   0.00    -0.00  -0.00  -0.01     0.00   0.00   0.00
  26   1     0.00  -0.01  -0.00    -0.00  -0.00  -0.00     0.00   0.00   0.00
  27   7     0.00   0.00  -0.00     0.01   0.00  -0.01    -0.00   0.00   0.00
  28   1     0.00   0.00   0.00     0.01   0.01   0.01    -0.00  -0.00  -0.00
  29   1     0.00  -0.00  -0.00    -0.00  -0.00  -0.00     0.00   0.00   0.00
  30   6    -0.01   0.00   0.01    -0.01   0.02  -0.02    -0.05   0.07  -0.08
  31   8    -0.01   0.01   0.01    -0.01   0.01  -0.01     0.01  -0.00  -0.01
  32   7    -0.01  -0.00  -0.00     0.02  -0.02   0.03     0.11  -0.21   0.19
  33   1    -0.01  -0.00   0.00    -0.02   0.03  -0.03    -0.11   0.17  -0.20
  34   1     0.00  -0.01   0.00    -0.03   0.05  -0.04    -0.25   0.36  -0.35
  35   7     0.00   0.02   0.01     0.03  -0.02   0.03     0.14  -0.13   0.22
  36   1     0.01   0.00   0.00    -0.04   0.04  -0.05    -0.28   0.28  -0.38
  37   1     0.00   0.01   0.01    -0.02   0.02  -0.03    -0.12   0.15  -0.20
  38   6     0.00   0.01  -0.00     0.00  -0.01  -0.00    -0.00  -0.00   0.00
  39   8     0.00   0.01   0.00     0.00  -0.02  -0.01    -0.00  -0.00  -0.00
  40   7     0.00   0.00  -0.01     0.00  -0.00   0.00     0.01  -0.01  -0.00
  41   1     0.00   0.00  -0.00     0.00   0.00   0.01     0.00   0.01   0.01
  42   1     0.00   0.00  -0.00     0.00   0.02   0.02     0.00   0.03   0.03
  43   7     0.01  -0.01  -0.00     0.00  -0.00   0.00    -0.00   0.01   0.01
  44   1    -0.00   0.00   0.01     0.00  -0.00  -0.00     0.00  -0.02  -0.02
  45   1     0.00   0.00   0.01    -0.00  -0.00   0.00     0.00  -0.01  -0.01
  46   6    -0.00   0.00   0.02    -0.01   0.00   0.01     0.00  -0.00   0.00
  47   8    -0.01   0.01   0.05    -0.00   0.00   0.03     0.00  -0.00  -0.00
  48   7     0.00  -0.00   0.04    -0.00   0.01   0.01     0.00   0.00   0.00
  49   1    -0.01  -0.01  -0.06    -0.00   0.00  -0.00     0.00   0.00  -0.00
  50   1    -0.00  -0.02  -0.10    -0.00  -0.00  -0.03    -0.00   0.00  -0.00
  51   7     0.00  -0.00  -0.01     0.01   0.00  -0.01    -0.00  -0.00  -0.00
  52   1    -0.00   0.00   0.02     0.00  -0.00   0.01    -0.00   0.00   0.00
  53   1    -0.00   0.00   0.01     0.00   0.01   0.01    -0.00  -0.00   0.00
                     34                     35                     36
                        a                      a                      a 
 Frequencies --   350.5673               365.6044               373.1659
 Red. masses --     3.7379                 4.5742                 5.2930
 Frc consts  --     0.0000                 0.0000                 0.0000
 IR Inten    --     2.4915                 1.0432                 5.1353
 Raman Activ --     0.0000                 0.0000                 0.0000
 Depolar     --     0.0000                 0.0000                 0.0000
 Atom AN      X      Y      Z        X      Y      Z        X      Y      Z
   1   8     0.22   0.08  -0.09     0.16   0.05  -0.10     0.05   0.07   0.02
   2   6     0.09  -0.04   0.20     0.15   0.09   0.09     0.11   0.12  -0.04
   3   1     0.00   0.04   0.06     0.09   0.13   0.03     0.08   0.09  -0.02
   4   1     0.01  -0.03   0.11     0.04  -0.02   0.14     0.02   0.02   0.04
   5   6    -0.03  -0.06   0.05    -0.13   0.11  -0.25    -0.03   0.09  -0.21
   6   1    -0.06  -0.03   0.02    -0.15   0.13  -0.02    -0.05   0.11  -0.03
   7   1     0.02   0.01  -0.01    -0.03   0.04  -0.23    -0.03   0.01  -0.15
   8   7    -0.11   0.00  -0.03    -0.09  -0.03  -0.02     0.03  -0.05   0.01
   9   6     0.07   0.17   0.02    -0.16  -0.07   0.13    -0.24  -0.26   0.15
  10   1     0.29   0.29  -0.02    -0.21  -0.12   0.06     0.01   0.04   0.04
  11   1    -0.05  -0.05   0.32     0.01   0.02  -0.12    -0.19  -0.08   0.20
  12   1    -0.12  -0.05  -0.27     0.04   0.02   0.20    -0.10  -0.24  -0.07
  13   6    -0.12  -0.05  -0.05     0.04  -0.24   0.12     0.09  -0.23   0.04
  14   1    -0.05   0.01  -0.01     0.11  -0.38  -0.02    -0.01   0.23   0.05
  15   1    -0.05  -0.03  -0.05     0.10   0.05   0.35    -0.15  -0.26  -0.22
  16   1    -0.01  -0.03   0.00    -0.13   0.07  -0.17     0.24  -0.23   0.19
  17   6    -0.14  -0.11  -0.04     0.00   0.07  -0.03     0.04   0.27   0.05
  18   1     0.24   0.16  -0.09     0.15   0.12  -0.03    -0.01   0.08   0.09
  19   1    -0.03  -0.38  -0.05     0.04  -0.12   0.02     0.01   0.16   0.03
  20   1    -0.32   0.10   0.11    -0.13   0.10  -0.02     0.03   0.10  -0.07
  21   1     0.07  -0.02  -0.03     0.04  -0.04  -0.02    -0.01  -0.01   0.01
  22   6    -0.00  -0.00   0.00    -0.00   0.00   0.00    -0.00   0.00   0.00
  23   8     0.00  -0.00   0.00    -0.00  -0.00  -0.00    -0.00  -0.00   0.00
  24   7     0.00   0.00  -0.01     0.00   0.00  -0.00     0.00   0.00  -0.00
  25   1     0.00   0.00  -0.00    -0.00  -0.00  -0.00    -0.00  -0.00  -0.01
  26   1    -0.00   0.00  -0.00    -0.01  -0.01  -0.01    -0.01  -0.01  -0.01
  27   7     0.00  -0.00   0.00     0.01   0.00   0.00     0.00  -0.00  -0.01
  28   1     0.00   0.00   0.01     0.00   0.01   0.01     0.01   0.01   0.02
  29   1    -0.00  -0.00  -0.01    -0.00  -0.00  -0.00     0.00  -0.00  -0.00
  30   6     0.01   0.00  -0.01     0.00  -0.00   0.00    -0.00  -0.00  -0.00
  31   8     0.01   0.00  -0.01     0.01  -0.01   0.01    -0.01   0.00  -0.01
  32   7     0.01   0.01   0.01     0.00  -0.00   0.01    -0.01   0.02  -0.01
  33   1     0.00   0.01  -0.00     0.00   0.00  -0.00     0.00  -0.01   0.01
  34   1    -0.01   0.01  -0.00    -0.02   0.02  -0.02     0.03  -0.04   0.04
  35   7     0.00  -0.01  -0.01     0.01  -0.00   0.01    -0.01   0.01  -0.01
  36   1    -0.01   0.00  -0.01    -0.01   0.01  -0.01     0.02  -0.02   0.03
  37   1    -0.00   0.00  -0.01    -0.00   0.01  -0.00     0.01  -0.01   0.01
  38   6    -0.00  -0.00   0.00     0.01   0.01   0.00    -0.00  -0.01  -0.00
  39   8    -0.00  -0.00   0.00     0.00   0.01   0.01     0.00  -0.01  -0.01
  40   7    -0.00  -0.01  -0.00    -0.00   0.00  -0.00     0.00  -0.01   0.01
  41   1    -0.00   0.00   0.00    -0.00   0.01  -0.00     0.00  -0.01   0.00
  42   1    -0.00   0.01   0.01    -0.00  -0.02  -0.02     0.00   0.00   0.00
  43   7    -0.00  -0.00  -0.01     0.01  -0.01  -0.00    -0.00  -0.00   0.00
  44   1    -0.00   0.00   0.00    -0.00   0.01   0.01     0.00  -0.00  -0.00
  45   1    -0.00   0.01   0.01    -0.00   0.00   0.00    -0.00  -0.00  -0.00
  46   6    -0.01   0.00  -0.01    -0.01   0.00   0.00    -0.00  -0.00  -0.01
  47   8    -0.00  -0.00  -0.01    -0.00  -0.00   0.01     0.00  -0.00  -0.02
  48   7    -0.01  -0.00   0.00    -0.00   0.00  -0.00    -0.00   0.00  -0.00
  49   1    -0.00  -0.00   0.00    -0.00   0.00   0.00     0.00   0.00   0.00
  50   1    -0.00  -0.00   0.01    -0.00  -0.00  -0.00    -0.00   0.00   0.02
  51   7     0.00   0.01  -0.00     0.00   0.00  -0.01     0.00   0.00   0.00
  52   1     0.00  -0.00  -0.01     0.00  -0.00   0.00     0.00  -0.00  -0.01
  53   1     0.00   0.00  -0.00     0.00   0.00   0.00     0.00   0.00  -0.00
                     37                     38                     39
                        a                      a                      a 
 Frequencies --   415.8850               426.3118               428.9166
 Red. masses --     2.8294                 1.7947                 8.5115
 Frc consts  --     0.0000                 0.0000                 0.0000
 IR Inten    --   160.6190                49.9932                 0.6915
 Raman Activ --     0.0000                 0.0000                 0.0000
 Depolar     --     0.0000                 0.0000                 0.0000
 Atom AN      X      Y      Z        X      Y      Z        X      Y      Z
   1   8     0.02  -0.00  -0.02     0.00   0.00  -0.00    -0.20  -0.05   0.07
   2   6    -0.00  -0.01   0.00    -0.00  -0.01  -0.01    -0.01   0.16   0.02
   3   1    -0.00  -0.00   0.00    -0.01  -0.01  -0.00     0.01   0.08   0.01
   4   1     0.00  -0.01   0.00    -0.00   0.00  -0.01     0.01   0.03   0.05
   5   6    -0.00  -0.00   0.01    -0.00   0.00   0.01     0.11  -0.07  -0.06
   6   1    -0.01   0.00   0.01    -0.00   0.01   0.00     0.06  -0.05  -0.03
   7   1     0.00   0.00  -0.00     0.00   0.00  -0.00    -0.01  -0.06   0.03
   8   7    -0.02   0.00  -0.00    -0.01   0.00   0.02     0.27  -0.12  -0.15
   9   6    -0.01   0.01  -0.01    -0.00   0.00  -0.03     0.17  -0.17   0.30
  10   1    -0.00   0.01  -0.00     0.01  -0.01  -0.01    -0.05   0.03   0.12
  11   1    -0.00   0.00   0.00    -0.00   0.00  -0.01     0.06  -0.07   0.11
  12   1    -0.01   0.00  -0.01    -0.01   0.01  -0.01     0.10  -0.10   0.15
  13   6     0.00  -0.01   0.02    -0.02   0.01   0.00     0.14   0.11  -0.29
  14   1     0.01  -0.01   0.00    -0.01   0.00   0.00    -0.01  -0.04  -0.08
  15   1    -0.00  -0.00   0.01    -0.00   0.00  -0.00     0.12   0.10  -0.07
  16   1    -0.00  -0.00   0.00    -0.00   0.00   0.00    -0.03   0.09  -0.13
  17   6     0.02  -0.01  -0.02     0.02  -0.01   0.01    -0.40   0.10   0.05
  18   1     0.00  -0.00  -0.01     0.00  -0.01  -0.01    -0.07   0.08   0.17
  19   1     0.01  -0.00   0.00     0.01  -0.00   0.01    -0.22  -0.00  -0.14
  20   1     0.01  -0.00  -0.01     0.01  -0.01   0.00    -0.23   0.08   0.07
  21   1     0.01   0.02  -0.01     0.01   0.01  -0.00    -0.05  -0.02   0.02
  22   6     0.00   0.00   0.00    -0.03   0.02  -0.04    -0.00   0.00  -0.01
  23   8     0.01   0.00  -0.01     0.03  -0.08  -0.08     0.00  -0.00  -0.01
  24   7    -0.00  -0.00   0.00     0.11   0.12   0.07     0.01   0.00   0.01
  25   1    -0.00   0.01   0.05    -0.03   0.12   0.37    -0.00   0.01   0.03
  26   1    -0.03  -0.06  -0.04    -0.31  -0.63  -0.49    -0.01  -0.04  -0.02
  27   7    -0.02   0.00  -0.04    -0.03   0.06   0.04    -0.00   0.01   0.02
  28   1     0.02   0.07   0.13     0.02   0.09   0.17    -0.01  -0.01  -0.03
  29   1    -0.01  -0.02   0.02    -0.03  -0.02  -0.00     0.00   0.01   0.01
  30   6    -0.00  -0.00   0.00     0.00   0.00  -0.00     0.00  -0.01  -0.00
  31   8    -0.00   0.00  -0.00     0.00   0.00   0.00    -0.00  -0.01  -0.00
  32   7    -0.00   0.00  -0.00     0.00  -0.00   0.00    -0.00   0.01   0.00
  33   1    -0.00  -0.00   0.00    -0.00   0.00  -0.00     0.02  -0.01   0.02
  34   1     0.01  -0.01   0.01    -0.00   0.00  -0.00    -0.02   0.03  -0.01
  35   7    -0.00   0.00  -0.00    -0.00  -0.00   0.00     0.01  -0.01  -0.00
  36   1     0.01  -0.01   0.01    -0.00   0.00  -0.00     0.02  -0.01   0.01
  37   1     0.00   0.00   0.00     0.00  -0.00  -0.00    -0.01   0.02  -0.01
  38   6     0.02  -0.09  -0.06    -0.00   0.01   0.00     0.00  -0.00   0.00
  39   8     0.05  -0.04  -0.04    -0.01   0.01   0.01     0.00  -0.00   0.00
  40   7    -0.03   0.10   0.13     0.00  -0.01  -0.02    -0.00   0.01   0.01
  41   1     0.01  -0.08  -0.09     0.00   0.00   0.01    -0.00  -0.00  -0.01
  42   1    -0.02  -0.05  -0.02     0.00   0.02   0.01    -0.00  -0.01  -0.01
  43   7    -0.08   0.24   0.14     0.01  -0.04  -0.01    -0.00   0.01   0.00
  44   1     0.12  -0.70  -0.54    -0.02   0.08   0.07     0.01  -0.03  -0.03
  45   1     0.05  -0.02  -0.02    -0.00  -0.00   0.00     0.00   0.00   0.00
  46   6    -0.01   0.02   0.04     0.01   0.00   0.00    -0.00  -0.00   0.00
  47   8    -0.00   0.01   0.03     0.00   0.01  -0.00    -0.01  -0.00   0.00
  48   7    -0.01  -0.02  -0.02     0.01  -0.00  -0.00     0.00   0.01  -0.00
  49   1    -0.01  -0.01   0.01     0.00  -0.00  -0.00     0.01   0.00  -0.00
  50   1     0.00  -0.02  -0.04     0.00   0.00   0.01    -0.00   0.01   0.00
  51   7     0.02   0.01  -0.04     0.00   0.00  -0.01     0.01  -0.00  -0.00
  52   1     0.00   0.01   0.10    -0.00   0.00   0.00     0.00  -0.00   0.02
  53   1     0.00   0.01   0.01    -0.00  -0.00   0.00     0.00   0.00   0.00
                     40                     41                     42
                        a                      a                      a 
 Frequencies --   444.1532               444.9186               455.4155
 Red. masses --     1.5628                 3.1542                 8.3891
 Frc consts  --     0.0000                 0.0000                 0.0000
 IR Inten    --     7.3174               158.0356                 2.7343
 Raman Activ --     0.0000                 0.0000                 0.0000
 Depolar     --     0.0000                 0.0000                 0.0000
 Atom AN      X      Y      Z        X      Y      Z        X      Y      Z
   1   8     0.01   0.00  -0.00    -0.01  -0.00   0.02    -0.03  -0.02   0.02
   2   6     0.01   0.00  -0.01     0.01   0.02  -0.00     0.05   0.08  -0.03
   3   1     0.00  -0.00  -0.00     0.00   0.00  -0.00     0.00  -0.00  -0.01
   4   1     0.00   0.00  -0.01     0.01   0.01  -0.01     0.03   0.03  -0.03
   5   6     0.00   0.02   0.01     0.01   0.01   0.01     0.09   0.10   0.06
   6   1    -0.00   0.01   0.00     0.01  -0.01  -0.00     0.06  -0.00   0.00
   7   1     0.00   0.01  -0.00     0.00   0.00   0.02     0.02   0.03   0.06
   8   7    -0.01   0.02   0.02    -0.01   0.02   0.01     0.02   0.11   0.03
   9   6    -0.02   0.00  -0.03    -0.02   0.00  -0.00    -0.09   0.01  -0.02
  10   1     0.01  -0.01  -0.01     0.00   0.00  -0.00    -0.03  -0.02  -0.01
  11   1    -0.01   0.00  -0.01    -0.01   0.00   0.01    -0.06   0.02  -0.02
  12   1    -0.01  -0.00  -0.02    -0.01  -0.01  -0.01    -0.02  -0.03  -0.01
  13   6    -0.01  -0.01   0.00    -0.00  -0.02   0.00     0.01  -0.09  -0.06
  14   1    -0.01   0.00   0.00    -0.00  -0.01   0.00    -0.01  -0.06  -0.02
  15   1    -0.01  -0.01  -0.01    -0.01  -0.01   0.00    -0.02  -0.04   0.00
  16   1     0.01  -0.01  -0.00     0.01  -0.01  -0.00     0.04  -0.02  -0.06
  17   6     0.02  -0.02   0.02     0.00  -0.02   0.00    -0.02  -0.09   0.02
  18   1    -0.00  -0.01  -0.01     0.00  -0.01  -0.01    -0.01  -0.04  -0.03
  19   1     0.01  -0.00   0.01     0.00  -0.01   0.00    -0.01  -0.06  -0.01
  20   1     0.01  -0.01   0.01     0.00  -0.01   0.01    -0.01  -0.04   0.05
  21   1     0.00   0.00  -0.00     0.04   0.04  -0.02    -0.01  -0.00   0.01
  22   6    -0.00  -0.00  -0.00    -0.01  -0.02  -0.04     0.01   0.01  -0.02
  23   8    -0.00  -0.00   0.00    -0.02  -0.00  -0.03     0.02   0.00  -0.02
  24   7     0.00   0.00  -0.00     0.02   0.03   0.01     0.01  -0.02   0.01
  25   1     0.00  -0.00  -0.00    -0.00  -0.00  -0.02    -0.01  -0.00   0.03
  26   1    -0.00   0.00  -0.00    -0.00  -0.00  -0.01     0.02  -0.02   0.01
  27   7     0.00  -0.00  -0.00     0.03   0.02   0.06    -0.03   0.01   0.02
  28   1     0.00   0.00   0.00    -0.03  -0.07  -0.14    -0.03  -0.02  -0.05
  29   1    -0.00  -0.00  -0.00    -0.01  -0.01  -0.04    -0.00   0.01   0.02
  30   6    -0.03  -0.05  -0.03    -0.00  -0.00  -0.00    -0.12  -0.24  -0.12
  31   8    -0.03  -0.05  -0.03    -0.00  -0.01  -0.00    -0.13  -0.27  -0.13
  32   7    -0.08   0.08  -0.03     0.00   0.00   0.01    -0.14   0.17   0.32
  33   1     0.29  -0.21   0.37    -0.01   0.02  -0.02     0.08   0.28   0.01
  34   1    -0.29   0.31  -0.21     0.01  -0.02   0.02    -0.16   0.00   0.28
  35   7     0.10  -0.05   0.05     0.00   0.01  -0.01     0.32   0.17  -0.14
  36   1     0.32  -0.23   0.25    -0.01   0.02  -0.02     0.21   0.08  -0.24
  37   1    -0.20   0.36  -0.27     0.02  -0.02   0.02     0.14   0.15   0.20
  38   6    -0.00   0.00  -0.00    -0.00   0.00   0.00    -0.00   0.00  -0.00
  39   8    -0.00   0.00  -0.00     0.00  -0.00  -0.01    -0.00   0.00  -0.00
  40   7     0.00  -0.00  -0.00     0.01  -0.01  -0.01     0.01   0.00   0.00
  41   1     0.00   0.01   0.01    -0.00   0.02   0.02     0.00  -0.00   0.00
  42   1     0.00  -0.00  -0.01     0.00  -0.01  -0.01     0.00  -0.00  -0.00
  43   7     0.00  -0.00   0.00     0.00  -0.01  -0.00    -0.00  -0.00   0.01
  44   1    -0.00   0.01   0.01    -0.01   0.07   0.05    -0.00  -0.01  -0.01
  45   1     0.00  -0.00  -0.00    -0.01  -0.02  -0.02     0.00  -0.00   0.00
  46   6    -0.00   0.00   0.01    -0.02   0.00   0.17    -0.01  -0.01  -0.01
  47   8    -0.00  -0.00   0.00    -0.01  -0.02   0.06    -0.02  -0.00  -0.00
  48   7    -0.00  -0.00  -0.01    -0.01  -0.00  -0.20     0.00   0.02   0.01
  49   1     0.00   0.00   0.01     0.01   0.01   0.13     0.01   0.01  -0.02
  50   1     0.00   0.00   0.00    -0.00   0.02   0.05    -0.01   0.01   0.00
  51   7     0.00  -0.00  -0.02     0.03  -0.03  -0.28     0.01  -0.00   0.02
  52   1    -0.00   0.01   0.05    -0.03   0.09   0.87     0.01  -0.01  -0.05
  53   1     0.00   0.00   0.00     0.01   0.00   0.04     0.01   0.00  -0.00
                     43                     44                     45
                        a                      a                      a 
 Frequencies --   459.6672               465.0782               472.4297
 Red. masses --     7.5728                 7.5963                 7.4298
 Frc consts  --     0.0000                 0.0000                 0.0000
 IR Inten    --    22.5243                21.2235                62.9169
 Raman Activ --     0.0000                 0.0000                 0.0000
 Depolar     --     0.0000                 0.0000                 0.0000
 Atom AN      X      Y      Z        X      Y      Z        X      Y      Z
   1   8     0.01   0.00  -0.03    -0.05  -0.03   0.04    -0.06  -0.04   0.04
   2   6    -0.02  -0.03   0.00    -0.01   0.02   0.00     0.12   0.19  -0.06
   3   1    -0.01  -0.01   0.00    -0.02  -0.02   0.00     0.02   0.02  -0.02
   4   1    -0.01  -0.01   0.00     0.01   0.01  -0.02     0.08   0.06  -0.05
   5   6    -0.05   0.01  -0.02     0.12  -0.07   0.10     0.16   0.22   0.09
   6   1    -0.06   0.06   0.02     0.13  -0.16  -0.03     0.10   0.02   0.00
   7   1    -0.02  -0.00  -0.08     0.05  -0.00   0.21     0.04   0.05   0.09
   8   7     0.04  -0.06   0.05    -0.09   0.16  -0.21     0.06   0.17   0.12
   9   6     0.07  -0.05  -0.04    -0.19   0.14   0.17    -0.16  -0.04  -0.09
  10   1     0.03  -0.03  -0.02    -0.11   0.11   0.07    -0.02  -0.08  -0.04
  11   1     0.02  -0.01  -0.03    -0.05   0.02   0.09    -0.12   0.04  -0.05
  12   1     0.01   0.00  -0.02    -0.02  -0.03   0.09    -0.05  -0.06  -0.05
  13   6    -0.04   0.07  -0.04     0.20  -0.13   0.09    -0.05  -0.18  -0.16
  14   1    -0.04   0.02  -0.00     0.17  -0.04  -0.00    -0.08  -0.13  -0.04
  15   1     0.02   0.04  -0.04    -0.02  -0.09   0.12    -0.05  -0.08  -0.03
  16   1    -0.03   0.03  -0.02     0.09  -0.06   0.05     0.05  -0.04  -0.15
  17   6    -0.00   0.03   0.08    -0.03  -0.03  -0.28    -0.06  -0.21   0.12
  18   1     0.00   0.02   0.05    -0.03  -0.03  -0.13    -0.02  -0.08  -0.03
  19   1    -0.01   0.02   0.01     0.00  -0.01  -0.07    -0.04  -0.13  -0.00
  20   1    -0.01   0.02   0.01     0.02  -0.04  -0.05    -0.03  -0.09   0.13
  21   1     0.02   0.01  -0.01     0.01   0.03  -0.00    -0.02  -0.02   0.01
  22   6    -0.10  -0.11   0.18    -0.04  -0.05   0.03    -0.03  -0.05   0.01
  23   8    -0.21  -0.04   0.16    -0.08  -0.02   0.01    -0.08  -0.01   0.01
  24   7    -0.04   0.22  -0.14     0.02   0.11  -0.03     0.02   0.09  -0.03
  25   1     0.12   0.04  -0.20     0.05   0.04  -0.01     0.05   0.03  -0.02
  26   1    -0.21   0.15  -0.12    -0.08  -0.01  -0.08    -0.06   0.01  -0.05
  27   7     0.28  -0.13  -0.17     0.10  -0.01   0.06     0.08  -0.01   0.07
  28   1     0.23   0.07   0.35     0.03  -0.14  -0.18     0.01  -0.14  -0.21
  29   1     0.07   0.00  -0.12     0.05   0.07  -0.01     0.04   0.06  -0.01
  30   6    -0.02  -0.04  -0.02     0.01   0.02   0.01     0.03   0.07   0.03
  31   8    -0.02  -0.05  -0.02     0.01   0.02   0.01     0.04   0.08   0.04
  32   7    -0.02   0.03   0.05     0.01  -0.01  -0.02     0.05  -0.04  -0.08
  33   1     0.01   0.05   0.00    -0.00  -0.03   0.01    -0.03  -0.06  -0.02
  34   1    -0.03   0.00   0.05     0.01   0.00  -0.02     0.06  -0.01  -0.07
  35   7     0.05   0.03  -0.03    -0.02  -0.01   0.01    -0.09  -0.04   0.04
  36   1     0.03   0.02  -0.04    -0.01  -0.01   0.02    -0.06  -0.02   0.07
  37   1     0.03   0.02   0.04    -0.02  -0.00  -0.02    -0.03  -0.05  -0.05
  38   6    -0.00   0.01  -0.00     0.11  -0.06   0.07    -0.10   0.05  -0.05
  39   8    -0.00   0.01   0.02     0.05  -0.11   0.10    -0.03   0.11  -0.10
  40   7    -0.01  -0.01  -0.02    -0.17   0.00  -0.00     0.14   0.02   0.03
  41   1    -0.01   0.03   0.02    -0.08   0.13  -0.06     0.09  -0.26  -0.06
  42   1    -0.01   0.00   0.01    -0.14  -0.11   0.00     0.13   0.17   0.06
  43   7     0.01  -0.01  -0.01     0.06   0.13  -0.13    -0.07  -0.14   0.09
  44   1    -0.00   0.04   0.03     0.08   0.07  -0.07    -0.07  -0.12   0.03
  45   1    -0.00  -0.01  -0.01    -0.06   0.06  -0.06     0.05  -0.01   0.10
  46   6     0.09   0.13  -0.01     0.05   0.06  -0.01     0.02   0.05  -0.02
  47   8     0.19   0.04  -0.00     0.10   0.02  -0.00     0.08   0.01  -0.01
  48   7     0.00  -0.19   0.01     0.01  -0.10   0.02    -0.01  -0.07   0.02
  49   1    -0.15  -0.09   0.11    -0.09  -0.05   0.08    -0.06  -0.04  -0.01
  50   1     0.10  -0.17  -0.03     0.06  -0.10  -0.07     0.04  -0.06   0.01
  51   7    -0.18   0.07  -0.02    -0.13   0.03   0.02    -0.07   0.04   0.01
  52   1    -0.11   0.08   0.05    -0.07   0.04  -0.06    -0.03   0.02  -0.06
  53   1    -0.08  -0.05   0.01    -0.05  -0.04  -0.00    -0.03  -0.01   0.01
                     46                     47                     48
                        a                      a                      a 
 Frequencies --   474.8207               475.9290               478.4264
 Red. masses --     5.3544                 3.6305                 4.8203
 Frc consts  --     0.0000                 0.0000                 0.0000
 IR Inten    --    19.9891                39.6547                44.3882
 Raman Activ --     0.0000                 0.0000                 0.0000
 Depolar     --     0.0000                 0.0000                 0.0000
 Atom AN      X      Y      Z        X      Y      Z        X      Y      Z
   1   8    -0.01  -0.01   0.00    -0.03  -0.02   0.02    -0.01  -0.00   0.02
   2   6     0.08   0.09  -0.03     0.04   0.07  -0.02    -0.02  -0.01   0.01
   3   1     0.02   0.02  -0.01    -0.01  -0.01  -0.01    -0.01  -0.02   0.00
   4   1     0.04   0.03  -0.02     0.03   0.03  -0.04    -0.01   0.00  -0.01
   5   6     0.02   0.17  -0.00     0.12   0.08   0.11     0.04  -0.04   0.05
   6   1    -0.02   0.11   0.02     0.07  -0.03   0.01     0.05  -0.06  -0.00
   7   1    -0.01   0.03  -0.07     0.04   0.02   0.11     0.02  -0.01   0.09
   8   7     0.09   0.01   0.18     0.02   0.14  -0.03    -0.03   0.06  -0.10
   9   6     0.01  -0.10  -0.15    -0.14   0.02   0.02    -0.07   0.05   0.08
  10   1     0.05  -0.10  -0.06    -0.05   0.00   0.01    -0.05   0.05   0.03
  11   1    -0.05   0.01  -0.07    -0.08   0.02   0.01    -0.02   0.00   0.05
  12   1    -0.02  -0.02  -0.08    -0.03  -0.05   0.01    -0.00  -0.01   0.04
  13   6    -0.13  -0.03  -0.15     0.07  -0.12  -0.07     0.10  -0.04   0.04
  14   1    -0.13  -0.04  -0.02     0.02  -0.07  -0.03     0.08  -0.01  -0.00
  15   1    -0.02  -0.00  -0.09    -0.02  -0.06   0.02     0.00  -0.03   0.05
  16   1    -0.01   0.00  -0.11     0.06  -0.04  -0.06     0.03  -0.02   0.02
  17   6    -0.01  -0.11   0.22    -0.05  -0.11  -0.04    -0.02   0.00  -0.12
  18   1     0.00  -0.03   0.05    -0.03  -0.05  -0.06    -0.02  -0.01  -0.05
  19   1    -0.02  -0.06   0.03    -0.03  -0.06  -0.04    -0.00   0.00  -0.03
  20   1    -0.02  -0.03   0.10    -0.01  -0.06   0.05     0.01  -0.01  -0.02
  21   1     0.00  -0.00  -0.00    -0.02   0.00   0.01     0.01   0.01   0.00
  22   6     0.02   0.03  -0.03     0.00   0.01   0.04     0.04   0.05  -0.00
  23   8     0.04   0.02  -0.03     0.02  -0.01   0.05     0.08   0.02   0.00
  24   7     0.02  -0.04   0.02    -0.04  -0.04  -0.01    -0.01  -0.10   0.02
  25   1    -0.02  -0.01   0.04    -0.02  -0.03  -0.06    -0.04  -0.04   0.01
  26   1     0.04  -0.03   0.02    -0.00   0.06   0.03     0.05  -0.00   0.05
  27   7    -0.07   0.02   0.04     0.00  -0.04  -0.17    -0.11  -0.00  -0.06
  28   1    -0.05  -0.03  -0.09     0.08   0.22   0.41    -0.03   0.16   0.22
  29   1    -0.00   0.01   0.05    -0.03  -0.08  -0.03    -0.05  -0.08   0.02
  30   6     0.01   0.03   0.01     0.02   0.04   0.02     0.00   0.00   0.00
  31   8     0.02   0.03   0.02     0.02   0.04   0.02     0.00   0.00   0.00
  32   7     0.02  -0.02  -0.03     0.03  -0.02  -0.04     0.00  -0.00  -0.00
  33   1    -0.02  -0.02  -0.01    -0.02  -0.03  -0.01    -0.00  -0.00   0.00
  34   1     0.02  -0.00  -0.03     0.03  -0.00  -0.04     0.00  -0.00  -0.00
  35   7    -0.04  -0.01   0.02    -0.04  -0.02   0.02    -0.00  -0.00   0.00
  36   1    -0.04   0.00   0.02    -0.04  -0.00   0.03    -0.00  -0.00   0.00
[...]
  44   1    -0.02   0.02  -0.03     0.11  -0.09   0.13    -0.00   0.00  -0.00
  45   1    -0.09  -0.18   0.15     0.32   0.66  -0.55    -0.00  -0.00   0.00
  46   6    -0.01  -0.02   0.00    -0.01  -0.01  -0.00    -0.00   0.00   0.00
  47   8     0.01   0.01  -0.00     0.01   0.00   0.00     0.00  -0.00  -0.00
  48   7     0.00   0.00   0.00     0.00   0.00   0.00     0.00  -0.00  -0.00
  49   1     0.00  -0.02   0.00     0.00  -0.02   0.00    -0.00   0.00  -0.00
  50   1     0.01   0.01  -0.00     0.01   0.01  -0.00    -0.00  -0.00   0.00
  51   7    -0.03   0.01  -0.00    -0.01   0.01  -0.00     0.00  -0.00   0.00
  52   1    -0.01  -0.00   0.00    -0.00  -0.00   0.00     0.00   0.00  -0.00
  53   1     0.11  -0.03   0.01     0.05  -0.02   0.00    -0.01   0.00  -0.00
                    142                    143                    144
                        a                      a                      a 
 Frequencies --  3496.7537              3498.9594              3500.4209
 Red. masses --     1.8926                 1.4659                 1.4387
 Frc consts  --     0.0000                 0.0000                 0.0000
 IR Inten    --    51.0632                18.2795                39.1920
 Raman Activ --     0.0000                 0.0000                 0.0000
 Depolar     --     0.0000                 0.0000                 0.0000
 Atom AN      X      Y      Z        X      Y      Z        X      Y      Z
   1   8    -0.00  -0.00  -0.00     0.00   0.00   0.00    -0.00  -0.00  -0.00
   2   6     0.00  -0.00   0.00    -0.00  -0.00   0.00    -0.00   0.00   0.00
   3   1     0.00   0.00  -0.00     0.00  -0.00   0.00     0.00   0.00  -0.00
   4   1    -0.00  -0.00  -0.00    -0.00   0.00  -0.00     0.00  -0.00  -0.00
   5   6    -0.00   0.00  -0.00    -0.00  -0.00   0.00    -0.00   0.00  -0.00
   6   1     0.00   0.00   0.00    -0.00  -0.00  -0.00    -0.00  -0.00   0.00
   7   1     0.00  -0.00   0.00    -0.00   0.00  -0.00     0.00  -0.00   0.00
   8   7    -0.00  -0.00  -0.00     0.00   0.00   0.00     0.00   0.00  -0.00
   9   6     0.00   0.00   0.00     0.00  -0.00  -0.00    -0.00   0.00   0.00
  10   1     0.00   0.00  -0.00     0.00  -0.00   0.00    -0.00  -0.00   0.00
  11   1    -0.00  -0.00  -0.00     0.00   0.00   0.00    -0.00  -0.00   0.00
  12   1     0.00   0.00   0.00    -0.00  -0.00   0.00     0.00   0.00  -0.00
  13   6     0.00   0.00   0.00    -0.00  -0.00  -0.00    -0.00  -0.00  -0.00
  14   1    -0.00   0.00  -0.00     0.00  -0.00   0.00    -0.00  -0.00  -0.00
  15   1     0.00   0.00   0.00    -0.00   0.00  -0.00     0.00  -0.00   0.00
  16   1    -0.00  -0.00  -0.00     0.00   0.00   0.00    -0.00   0.00   0.00
  17   6    -0.00  -0.00  -0.00     0.00   0.00   0.00    -0.00   0.00   0.00
  18   1     0.00  -0.00   0.00    -0.00   0.00  -0.00     0.00  -0.00   0.00
  19   1    -0.00   0.00   0.00    -0.00  -0.00  -0.00     0.00   0.00  -0.00
  20   1    -0.00  -0.00  -0.00    -0.00  -0.00   0.00    -0.00  -0.00   0.00
  21   1     0.00   0.00   0.01    -0.01  -0.00  -0.02     0.00   0.00   0.00
  22   6    -0.01  -0.00   0.00     0.00   0.00  -0.00     0.00   0.00   0.00
  23   8     0.00   0.00  -0.00    -0.00  -0.00   0.00    -0.00  -0.00  -0.00
  24   7    -0.01   0.02  -0.01     0.00  -0.00   0.00     0.00  -0.00   0.00
  25   1     0.02  -0.07   0.03    -0.00   0.01  -0.00    -0.00   0.00  -0.00
  26   1    -0.00  -0.00   0.01     0.00   0.00  -0.00     0.00   0.00  -0.00
  27   7    -0.18  -0.14   0.11     0.03   0.02  -0.02     0.00   0.00  -0.00
  28   1     0.61   0.59  -0.40    -0.10  -0.10   0.07    -0.01  -0.01   0.00
  29   1     0.08  -0.05  -0.02    -0.03   0.01   0.01    -0.00   0.00   0.00
  30   6     0.00  -0.00  -0.00     0.00  -0.00   0.00     0.00  -0.00  -0.00
  31   8     0.00   0.00   0.00     0.00   0.00  -0.00     0.00   0.00  -0.00
  32   7     0.00   0.00  -0.00     0.00   0.00  -0.00     0.12   0.05  -0.02
  33   1    -0.00   0.00   0.00    -0.00   0.00   0.00    -0.22   0.23   0.34
  34   1    -0.00  -0.00  -0.00    -0.00  -0.00  -0.00    -0.24  -0.41  -0.25
  35   7     0.00  -0.00  -0.00    -0.00   0.00   0.00     0.05  -0.08  -0.08
  36   1     0.00   0.01   0.00    -0.00  -0.00  -0.00     0.20   0.44   0.17
  37   1    -0.01  -0.00   0.00     0.00   0.00  -0.00    -0.40  -0.14   0.14
  38   6     0.00  -0.00   0.00    -0.00   0.00  -0.00    -0.00  -0.00   0.00
  39   8    -0.00   0.00  -0.00     0.00  -0.00  -0.00     0.00   0.00  -0.00
  40   7    -0.01  -0.01   0.01     0.00   0.00  -0.00    -0.00  -0.00   0.00
  41   1     0.06   0.01  -0.00    -0.02  -0.00   0.00     0.01   0.00  -0.00
  42   1    -0.04   0.03  -0.03     0.02  -0.01   0.01    -0.01   0.00  -0.01
  43   7    -0.00  -0.00   0.00     0.00   0.00   0.00     0.00   0.00  -0.00
  44   1     0.00  -0.00   0.01    -0.01   0.01  -0.01     0.00  -0.00   0.00
  45   1     0.00   0.01  -0.01    -0.01  -0.01   0.01    -0.00  -0.00   0.00
  46   6    -0.00  -0.00   0.00    -0.00   0.00   0.00     0.00   0.00   0.00
  47   8     0.00   0.00  -0.00     0.00   0.00  -0.00    -0.00  -0.00  -0.00
  48   7    -0.03   0.01   0.00    -0.18   0.04   0.02     0.00  -0.00  -0.00
  49   1     0.03  -0.11   0.01     0.15  -0.64   0.04    -0.00   0.00  -0.00
  50   1     0.08   0.08  -0.02     0.50   0.49  -0.10    -0.00  -0.00   0.00
  51   7     0.00   0.00   0.00     0.01   0.01   0.00     0.00  -0.00  -0.00
  52   1    -0.00  -0.00   0.00    -0.04  -0.04   0.00     0.00   0.00   0.00
  53   1    -0.00   0.00  -0.00    -0.01   0.00  -0.00    -0.00   0.00   0.00
                    145                    146                    147
                        a                      a                      a 
 Frequencies --  3502.9266              3504.6731              3531.6176
 Red. masses --     1.4547                 1.4629                 1.9547
 Frc consts  --     0.0000                 0.0000                 0.0000
 IR Inten    --    13.8819                 8.3498                19.6366
 Raman Activ --     0.0000                 0.0000                 0.0000
 Depolar     --     0.0000                 0.0000                 0.0000
 Atom AN      X      Y      Z        X      Y      Z        X      Y      Z
   1   8    -0.00  -0.00  -0.00     0.00   0.00   0.00     0.00   0.00   0.00
   2   6     0.00   0.00  -0.00    -0.00   0.00   0.00    -0.00  -0.00   0.00
   3   1     0.00  -0.00   0.00    -0.00   0.00  -0.00     0.00  -0.00  -0.00
   4   1    -0.00  -0.00  -0.00    -0.00  -0.00  -0.00    -0.00  -0.00  -0.00
   5   6     0.00  -0.00   0.00     0.00  -0.00   0.00    -0.00   0.00  -0.00
   6   1    -0.00   0.00  -0.00    -0.00   0.00  -0.00     0.00  -0.00   0.00
   7   1     0.00  -0.00   0.00    -0.00   0.00  -0.00    -0.00  -0.00  -0.00
   8   7     0.00   0.00  -0.00    -0.00  -0.00   0.00     0.00   0.00   0.00
   9   6     0.00   0.00   0.00     0.00   0.00   0.00     0.00  -0.00  -0.00
  10   1    -0.00   0.00  -0.00     0.00   0.00  -0.00     0.00   0.00   0.00
  11   1    -0.00  -0.00  -0.00    -0.00  -0.00  -0.00    -0.00   0.00  -0.00
  12   1     0.00   0.00   0.00     0.00   0.00   0.00    -0.00  -0.00   0.00
  13   6     0.00   0.00   0.00     0.00   0.00   0.00    -0.00  -0.00   0.00
  14   1    -0.00   0.00  -0.00     0.00   0.00   0.00     0.00   0.00  -0.00
  15   1     0.00  -0.00   0.00    -0.00   0.00  -0.00     0.00  -0.00  -0.00
  16   1    -0.00  -0.00   0.00    -0.00  -0.00  -0.00     0.00   0.00   0.00
  17   6     0.00   0.00   0.00     0.00   0.00   0.00     0.00  -0.00   0.00
  18   1     0.00  -0.00   0.00     0.00   0.00  -0.00    -0.00   0.00  -0.00
  19   1     0.00   0.00  -0.00     0.00   0.00  -0.00     0.00  -0.00  -0.00
  20   1    -0.00  -0.00  -0.00    -0.00  -0.00  -0.00    -0.00  -0.00  -0.00
  21   1     0.00   0.00   0.00    -0.00  -0.00  -0.00    -0.00  -0.00  -0.01
  22   6    -0.00   0.00   0.00     0.00  -0.00  -0.00    -0.00  -0.00  -0.00
  23   8     0.00   0.00  -0.00    -0.00   0.00   0.00     0.00   0.00  -0.00
  24   7    -0.00   0.00  -0.00    -0.00  -0.00   0.00     0.00   0.00  -0.00
  25   1     0.00  -0.01   0.00    -0.00   0.00  -0.00     0.00  -0.01   0.00
  26   1    -0.00  -0.00   0.00     0.00   0.00  -0.00    -0.00  -0.00   0.01
  27   7    -0.02  -0.01   0.01     0.00   0.00  -0.00     0.00  -0.00  -0.00
  28   1     0.06   0.06  -0.04    -0.00  -0.00   0.00    -0.00  -0.00   0.00
  29   1     0.01  -0.01  -0.00    -0.00   0.00   0.00    -0.01   0.00   0.00
  30   6    -0.00  -0.00  -0.00    -0.00  -0.00  -0.00    -0.00   0.00   0.00
  31   8     0.00   0.00   0.00     0.00   0.00   0.00     0.00  -0.00  -0.00
  32   7     0.00   0.00  -0.00    -0.12  -0.04   0.03    -0.00  -0.00   0.00
  33   1    -0.00   0.00   0.00     0.22  -0.23  -0.33     0.00  -0.00  -0.00
  34   1    -0.00  -0.00  -0.00     0.22   0.38   0.24     0.00   0.00   0.00
  35   7     0.00  -0.00  -0.00     0.06  -0.08  -0.09     0.00  -0.00  -0.00
  36   1     0.00   0.01   0.00     0.20   0.44   0.18     0.00   0.00   0.00
  37   1    -0.01  -0.00   0.00    -0.43  -0.16   0.15    -0.00  -0.00   0.00
  38   6    -0.00   0.00  -0.00    -0.00  -0.00  -0.00    -0.00   0.01  -0.01
  39   8     0.00  -0.00   0.00     0.00   0.00   0.00     0.00  -0.00   0.00
  40   7     0.04   0.13  -0.12    -0.00  -0.00   0.00     0.02   0.00  -0.00
  41   1    -0.64  -0.12   0.04     0.00   0.00  -0.00    -0.08  -0.02   0.01
  42   1     0.48  -0.38   0.40    -0.00   0.00  -0.00    -0.01   0.01  -0.00
  43   7     0.00  -0.01   0.01     0.00   0.00   0.00    -0.14   0.13  -0.19
  44   1    -0.03   0.02  -0.03    -0.00   0.00  -0.00     0.59  -0.37   0.64
  45   1     0.01   0.02  -0.02    -0.00  -0.00   0.00    -0.07  -0.12   0.09
  46   6    -0.00  -0.00  -0.00    -0.00  -0.00   0.00     0.00   0.00   0.00
  47   8     0.00  -0.00   0.00     0.00   0.00   0.00    -0.00  -0.00  -0.00
  48   7     0.00  -0.00  -0.00    -0.00   0.00   0.00    -0.00  -0.00   0.00
  49   1    -0.00   0.01  -0.00     0.00  -0.00   0.00    -0.00   0.00   0.00
  50   1    -0.01  -0.01   0.00     0.00   0.00  -0.00     0.01   0.01  -0.00
  51   7    -0.00  -0.00   0.00     0.00   0.00   0.00     0.01   0.00  -0.00
  52   1     0.00   0.00  -0.00    -0.00  -0.00   0.00    -0.01  -0.01   0.00
  53   1     0.00  -0.00   0.00    -0.00   0.00  -0.00    -0.01   0.00  -0.00
                    148                    149                    150
                        a                      a                      a 
 Frequencies --  3532.9833              3535.6246              3564.0987
 Red. masses --     1.8832                 2.1638                 2.1817
 Frc consts  --     0.0000                 0.0000                 0.0000
 IR Inten    --    13.9372                12.8377                17.1716
 Raman Activ --     0.0000                 0.0000                 0.0000
 Depolar     --     0.0000                 0.0000                 0.0000
 Atom AN      X      Y      Z        X      Y      Z        X      Y      Z
   1   8    -0.00  -0.00  -0.00    -0.00   0.00  -0.00    -0.00  -0.00  -0.00
   2   6    -0.00  -0.00  -0.00     0.00  -0.00   0.00     0.00   0.00   0.00
   3   1     0.00   0.00   0.00     0.00   0.00  -0.00    -0.00   0.00  -0.00
   4   1    -0.00   0.00  -0.00     0.00  -0.00  -0.00    -0.00  -0.00   0.00
   5   6    -0.00   0.00  -0.00    -0.00   0.00  -0.00    -0.00   0.00   0.00
   6   1    -0.00  -0.00   0.00    -0.00   0.00   0.00     0.00   0.00  -0.00
   7   1     0.00   0.00   0.00     0.00  -0.00   0.00    -0.00  -0.00  -0.00
   8   7     0.00   0.00   0.00    -0.00   0.00  -0.00     0.00  -0.00  -0.00
   9   6    -0.00  -0.00  -0.00     0.00   0.00   0.00     0.00   0.00   0.00
  10   1    -0.00  -0.00   0.00    -0.00   0.00  -0.00     0.00   0.00  -0.00
  11   1     0.00   0.00   0.00    -0.00  -0.00  -0.00    -0.00  -0.00  -0.00
  12   1     0.00   0.00  -0.00    -0.00  -0.00   0.00    -0.00   0.00   0.00
  13   6    -0.00  -0.00  -0.00    -0.00   0.00   0.00     0.00   0.00   0.00
  14   1    -0.00   0.00   0.00    -0.00   0.00  -0.00     0.00   0.00  -0.00
  15   1     0.00  -0.00   0.00     0.00  -0.00   0.00    -0.00  -0.00  -0.00
  16   1     0.00   0.00   0.00    -0.00  -0.00  -0.00    -0.00  -0.00  -0.00
  17   6    -0.00  -0.00   0.00    -0.00  -0.00   0.00     0.00  -0.00  -0.00
  18   1     0.00  -0.00   0.00    -0.00  -0.00  -0.00     0.00  -0.00  -0.00
  19   1     0.00   0.00  -0.00     0.00  -0.00  -0.00    -0.00   0.00   0.00
  20   1     0.00   0.00   0.00    -0.00   0.00  -0.00    -0.00   0.00  -0.00
  21   1     0.00   0.00   0.00     0.00  -0.00   0.00     0.00   0.00   0.01
  22   6     0.00   0.00  -0.00    -0.00  -0.01   0.01    -0.00  -0.00   0.00
  23   8    -0.00  -0.00   0.00     0.00   0.00  -0.00     0.00   0.00  -0.00
  24   7    -0.00  -0.02   0.01    -0.04  -0.22   0.19    -0.00  -0.00   0.00
  25   1    -0.01   0.04  -0.01    -0.18   0.61  -0.19    -0.00   0.00  -0.00
  26   1     0.02   0.02  -0.04     0.34   0.24  -0.54     0.00   0.00  -0.00
  27   7    -0.00  -0.00   0.00    -0.01  -0.01   0.01    -0.00   0.00   0.00
  28   1     0.01   0.01  -0.00     0.04   0.04  -0.03     0.00   0.00  -0.00
  29   1     0.00  -0.00  -0.00     0.01  -0.00  -0.00     0.01  -0.00  -0.00
  30   6     0.00   0.00   0.00     0.00  -0.00  -0.00    -0.00   0.00   0.00
  31   8    -0.00  -0.00  -0.00     0.00   0.00   0.00     0.00  -0.00  -0.00
  32   7     0.00   0.00   0.00     0.00  -0.00  -0.00    -0.00   0.00   0.00
  33   1    -0.00   0.00   0.00    -0.00   0.00   0.00     0.00  -0.00  -0.01
  34   1    -0.00  -0.00  -0.00     0.00   0.00   0.00    -0.00  -0.01  -0.00
  35   7    -0.00   0.00   0.00     0.00   0.00   0.00    -0.00  -0.00   0.00
  36   1    -0.00  -0.00  -0.00    -0.00  -0.00  -0.00     0.00   0.01   0.00
  37   1     0.00   0.00  -0.00    -0.00  -0.00   0.00     0.01   0.00  -0.00
  38   6    -0.00  -0.00   0.00     0.00   0.00  -0.00    -0.00   0.00   0.00
  39   8     0.00  -0.00  -0.00    -0.00  -0.00   0.00     0.00  -0.00   0.00
  40   7    -0.00  -0.00   0.00     0.00   0.00   0.00    -0.00   0.00  -0.00
  41   1     0.00   0.00  -0.00    -0.00  -0.00   0.00     0.01   0.00  -0.00
  42   1     0.00  -0.00   0.00    -0.00   0.00  -0.00     0.01  -0.00   0.01
  43   7     0.00  -0.00   0.00    -0.00   0.00  -0.00     0.00  -0.00   0.00
  44   1    -0.01   0.01  -0.01     0.01  -0.00   0.01    -0.00   0.00  -0.01
  45   1     0.00   0.00  -0.00    -0.00  -0.00   0.00     0.00   0.01  -0.01
  46   6     0.01   0.00   0.00    -0.00  -0.00   0.00    -0.00  -0.01   0.00
  47   8    -0.00  -0.00  -0.00     0.00   0.00  -0.00     0.00   0.00  -0.00
  48   7     0.00  -0.03   0.00     0.00   0.00  -0.00    -0.08  -0.29   0.03
  49   1    -0.02   0.09  -0.00     0.00  -0.01   0.00    -0.19   0.67  -0.03
  50   1     0.01   0.01  -0.00    -0.00  -0.00   0.00     0.48   0.43  -0.09
  51   7     0.19   0.17  -0.01    -0.01  -0.01   0.00    -0.01  -0.01   0.00
  52   1    -0.67  -0.68   0.04     0.05   0.05  -0.00     0.05   0.05  -0.00
  53   1    -0.04   0.03  -0.00     0.01  -0.00   0.00     0.00  -0.00   0.00
                    151                    152                    153
                        a                      a                      a 
 Frequencies --  3564.7314              3569.4191              3570.2115
 Red. masses --     2.1906                 2.1825                 2.1771
 Frc consts  --     0.0000                 0.0000                 0.0000
 IR Inten    --    13.2387                10.8929                11.6713
 Raman Activ --     0.0000                 0.0000                 0.0000
 Depolar     --     0.0000                 0.0000                 0.0000
 Atom AN      X      Y      Z        X      Y      Z        X      Y      Z
   1   8    -0.00  -0.00  -0.00    -0.00  -0.00  -0.00     0.00  -0.00   0.00
   2   6    -0.00   0.00   0.00     0.00  -0.00  -0.00    -0.00   0.00   0.00
   3   1     0.00   0.00  -0.00    -0.00  -0.00   0.00    -0.00  -0.00   0.00
   4   1     0.00  -0.00  -0.00     0.00   0.00   0.00     0.00   0.00  -0.00
   5   6    -0.00   0.00  -0.00     0.00  -0.00   0.00    -0.00  -0.00   0.00
   6   1    -0.00   0.00   0.00    -0.00   0.00  -0.00     0.00   0.00  -0.00
   7   1     0.00  -0.00   0.00    -0.00   0.00   0.00     0.00   0.00  -0.00
   8   7     0.00   0.00  -0.00     0.00   0.00  -0.00    -0.00  -0.00   0.00
   9   6     0.00   0.00   0.00     0.00   0.00   0.00     0.00   0.00   0.00
  10   1     0.00   0.00   0.00     0.00  -0.00  -0.00     0.00   0.00  -0.00
  11   1    -0.00  -0.00  -0.00    -0.00  -0.00  -0.00    -0.00  -0.00  -0.00
  12   1    -0.00   0.00   0.00     0.00  -0.00   0.00    -0.00   0.00   0.00
  13   6    -0.00  -0.00  -0.00     0.00   0.00   0.00     0.00   0.00   0.00
  14   1    -0.00  -0.00  -0.00    -0.00   0.00  -0.00     0.00   0.00   0.00
  15   1     0.00  -0.00   0.00     0.00  -0.00   0.00     0.00   0.00  -0.00
  16   1     0.00   0.00   0.00    -0.00  -0.00   0.00    -0.00  -0.00  -0.00
  17   6     0.00   0.00   0.00     0.00   0.00  -0.00     0.00   0.00   0.00
  18   1     0.00   0.00   0.00     0.00  -0.00   0.00     0.00   0.00   0.00
  19   1    -0.00   0.00   0.00    -0.00   0.00   0.00    -0.00   0.00   0.00
  20   1    -0.00  -0.00  -0.00    -0.00  -0.00  -0.00    -0.00  -0.00  -0.00
  21   1     0.00   0.00   0.00     0.00   0.00   0.00    -0.00  -0.00  -0.00
  22   6    -0.00  -0.00   0.00    -0.00   0.00  -0.00     0.00  -0.00  -0.00
  23   8     0.00   0.00  -0.00    -0.00  -0.00   0.00     0.00   0.00   0.00
  24   7     0.00   0.00  -0.00     0.00   0.00  -0.00    -0.00  -0.00   0.00
  25   1     0.00  -0.00   0.00     0.00  -0.00   0.00    -0.00   0.00  -0.00
  26   1    -0.00  -0.00   0.00    -0.00  -0.00   0.00     0.00   0.00  -0.00
  27   7     0.00   0.00  -0.00    -0.00  -0.00   0.00     0.00   0.00  -0.00
  28   1    -0.00  -0.00   0.00     0.00   0.00  -0.00    -0.00  -0.00   0.00
  29   1    -0.00   0.00   0.00     0.00  -0.00  -0.00    -0.00   0.00   0.00
  30   6     0.01  -0.00  -0.01     0.00   0.00   0.00     0.01   0.01   0.00
  31   8    -0.00  -0.00   0.00    -0.00  -0.00  -0.00    -0.00  -0.00  -0.00
  32   7     0.01  -0.15  -0.15    -0.00   0.01   0.01    -0.01   0.15   0.14
  33   1    -0.27   0.25   0.37     0.01  -0.01  -0.01     0.25  -0.23  -0.35
  34   1     0.21   0.34   0.21    -0.01  -0.01  -0.01    -0.21  -0.34  -0.20
  35   7     0.16   0.14  -0.00     0.01   0.01  -0.00     0.16   0.14  -0.00
  36   1    -0.15  -0.38  -0.16    -0.01  -0.02  -0.01    -0.16  -0.40  -0.17
  37   1    -0.45  -0.14   0.17    -0.02  -0.01   0.01    -0.45  -0.14   0.17
  38   6    -0.00   0.00   0.00     0.01  -0.00   0.00    -0.00   0.00  -0.00
  39   8     0.00  -0.00  -0.00    -0.00   0.00  -0.00     0.00  -0.00   0.00
  40   7    -0.00   0.00  -0.00     0.28  -0.05   0.08    -0.01   0.00  -0.00
  41   1     0.00   0.00  -0.00    -0.69  -0.16   0.06     0.03   0.01  -0.00
  42   1     0.00  -0.00   0.00    -0.40   0.35  -0.35     0.02  -0.02   0.02
  43   7     0.00   0.00  -0.00     0.01  -0.01   0.01    -0.00   0.00  -0.00
  44   1     0.00  -0.00   0.00    -0.04   0.03  -0.05     0.00  -0.00   0.00
  45   1    -0.00  -0.00   0.00     0.01   0.01  -0.01    -0.00  -0.00   0.00
  46   6    -0.00  -0.00   0.00    -0.00  -0.00   0.00    -0.00  -0.00   0.00
  47   8     0.00   0.00  -0.00     0.00   0.00  -0.00     0.00   0.00   0.00
  48   7    -0.00  -0.01   0.00    -0.00  -0.00   0.00    -0.00  -0.00   0.00
  49   1    -0.00   0.01  -0.00    -0.00   0.01  -0.00    -0.00   0.00  -0.00
  50   1     0.01   0.01  -0.00     0.01   0.01  -0.00     0.00   0.00  -0.00
  51   7    -0.00  -0.00   0.00    -0.00  -0.00  -0.00    -0.00  -0.00   0.00
  52   1     0.00   0.00  -0.00     0.00   0.00  -0.00     0.00   0.00  -0.00
  53   1    -0.00  -0.00   0.00     0.00  -0.00   0.00    -0.00  -0.00  -0.00
