 Entering Gaussian System
 *********************************************
 Gaussian 98:
 frequency output generated by the xtb code
 *********************************************
                         Standard orientation:
 --------------------------------------------------------------------
  Center     Atomic     Atomic              Coordinates (Angstroms)
  Number     Number      Type              X           Y           Z
 --------------------------------------------------------------------
    1          8             0       -2.290895   -1.101315   -0.150104
    2          6             0       -2.173539    0.090007   -0.874991
    3          1             0       -2.994872    0.099426   -1.596058
    4          1             0       -2.305632    0.958927   -0.217817
    5          6             0       -0.823737    0.287171   -1.581983
    6          1             0       -0.011151    0.265243   -0.850415
    7          1             0       -0.851005    1.259729   -2.076373
    8          7             0       -0.472192   -0.717691   -2.624460
    9          6             0       -0.209916   -2.025999   -2.004490
   10          1             0        0.629014   -1.919506   -1.316908
   11          1             0        0.040228   -2.756455   -2.770915
   12          1             0       -1.090358   -2.353553   -1.456161
   13          6             0        0.758819   -0.247139   -3.284066
   14          1             0        1.540868   -0.138634   -2.534153
   15          1             0        0.559345    0.709269   -3.763788
   16          1             0        1.077100   -0.969563   -4.032487
   17          6             0       -1.535573   -0.830201   -3.632610
   18          1             0       -1.752651    0.164986   -4.020208
   19          1             0       -2.429331   -1.266285   -3.193961
   20          1             0       -1.200793   -1.468406   -4.448157
   21          1             0       -1.753453   -1.028420    0.673236
   22          6             0        2.540639   -0.331064    0.616222
   23          8             0        2.023614   -0.520025   -0.482480
   24          7             0        1.818486    0.020456    1.701331
   25          1             0        0.819421   -0.139739    1.661690
   26          1             0        2.212354   -0.056699    2.628939
   27          7             0        3.879969   -0.435214    0.802374
   28          1             0        4.302753   -0.177842    1.675473
   29          1             0        4.471854   -0.546478   -0.001098
   30          6             0       -1.174434    3.319934   -4.621221
   31          8             0       -1.055624    2.227616   -4.082913
   32          7             0       -0.253271    4.301614   -4.470451
   33          1             0        0.507739    4.155244   -3.832083
   34          1             0       -0.390267    5.223794   -4.841128
   35          7             0       -2.233977    3.628064   -5.406191
   36          1             0       -2.284822    4.488262   -5.920201
   37          1             0       -2.901319    2.909224   -5.620554
   38          6             0       -0.544003   -2.296686    2.423414
   39          8             0       -0.804116   -1.121169    2.112606
   40          7             0        0.404298   -2.592916    3.314237
   41          1             0        0.938607   -1.837971    3.759803
   42          1             0        0.614485   -3.543061    3.558921
   43          7             0       -1.196392   -3.323890    1.831732
   44          1             0       -1.084361   -4.267867    2.154198
   45          1             0       -1.981500   -3.113630    1.238907
   46          6             0        0.872849    0.380726    4.981939
   47          8             0        1.673086   -0.441915    4.533525
   48          7             0       -0.340360    0.570067    4.429989
   49          1             0       -0.588513    0.053373    3.591921
   50          1             0       -0.974197    1.266907    4.774361
   51          7             0        1.185406    1.153774    6.047502
   52          1             0        0.514765    1.758272    6.485249
   53          1             0        2.048169    0.970177    6.528098
 --------------------------------------------------------------------
     1 basis functions        1 primitive gaussians
     1 alpha electrons        1 beta electrons

 Harmonic frequencies (cm**-1), IR intensities (km*mol⁻¹),
 Raman scattering activities (A**4/amu), Raman depolarization ratios,
 reduced masses (AMU), force constants (mDyne/A) and normal coordinates:
                      1                      2                      3
                        a                      a                      a 
 Frequencies --     4.8625                11.2950                12.3279
 Red. masses --    11.1516                12.2018                12.2229
 Frc consts  --     0.0000                 0.0000                 0.0000
 IR Inten    --     0.0112                 0.7565                 1.2801
 Raman Activ --     0.0000                 0.0000                 0.0000
 Depolar     --     0.0000                 0.0000                 0.0000
 Atom AN      X      Y      Z        X      Y      Z        X      Y      Z
   1   8     0.01  -0.02  -0.02    -0.08  -0.05   0.04    -0.08   0.19   0.08
   2   6     0.01  -0.01  -0.01    -0.07  -0.06   0.02    -0.04   0.14   0.05
   3   1     0.00  -0.00  -0.00    -0.02  -0.02   0.01    -0.01   0.04   0.01
   4   1     0.00  -0.01   0.00    -0.02  -0.01   0.00    -0.00   0.05   0.01
   5   6     0.01   0.00   0.00    -0.07  -0.07   0.01    -0.03   0.09   0.03
   6   1     0.00   0.00   0.00    -0.02  -0.03   0.00    -0.01   0.03   0.01
   7   1     0.00   0.00   0.00    -0.01  -0.02   0.01    -0.00   0.02  -0.00
   8   7     0.03   0.01  -0.00    -0.11  -0.07  -0.00    -0.06   0.04   0.08
   9   6     0.04   0.01  -0.01    -0.15  -0.09  -0.03    -0.07   0.06   0.13
  10   1     0.01   0.00  -0.00    -0.04  -0.04  -0.00    -0.02   0.02   0.04
  11   1     0.01   0.00  -0.00    -0.05  -0.02  -0.01    -0.02   0.01   0.05
  12   1     0.01  -0.00  -0.00    -0.05  -0.02  -0.01    -0.02   0.03   0.04
  13   6     0.02   0.02   0.00    -0.08  -0.10   0.01    -0.05  -0.01   0.05
  14   1     0.01   0.01   0.00    -0.02  -0.04   0.01    -0.01   0.00   0.01
  15   1     0.00   0.01   0.00    -0.01  -0.02   0.01    -0.01  -0.01   0.00
  16   1     0.01   0.01   0.00    -0.03  -0.03  -0.00    -0.02  -0.01   0.02
  17   6     0.03   0.00  -0.00    -0.09  -0.01  -0.01    -0.06   0.01   0.09
  18   1     0.01   0.00  -0.00    -0.02   0.00   0.00    -0.01  -0.00   0.01
  19   1     0.01  -0.00  -0.00    -0.03   0.00  -0.01    -0.02   0.01   0.03
  20   1     0.01   0.00  -0.00    -0.03  -0.00  -0.01    -0.02  -0.01   0.03
  21   1     0.00  -0.01  -0.00    -0.02  -0.01   0.01    -0.02   0.04   0.02
  22   6     0.01   0.02   0.01    -0.09  -0.05  -0.01    -0.04   0.10   0.06
  23   8     0.02   0.02   0.01    -0.11  -0.20   0.01    -0.06   0.11   0.07
  24   7    -0.01  -0.00   0.01    -0.08   0.21  -0.08    -0.02   0.16   0.06
  25   1    -0.00  -0.00   0.00    -0.02   0.07  -0.02    -0.01   0.05   0.02
  26   1    -0.00  -0.00   0.00    -0.02   0.07  -0.02    -0.01   0.04   0.02
  27   7     0.01   0.04   0.03    -0.11  -0.16   0.02    -0.05   0.06   0.06
  28   1    -0.00   0.01   0.01    -0.03  -0.02  -0.00    -0.01   0.02   0.01
  29   1     0.00   0.02   0.01    -0.03  -0.09   0.01    -0.01   0.01   0.02
  30   6    -0.00   0.00  -0.01     0.11   0.03   0.12     0.02  -0.09  -0.20
  31   8     0.01   0.01   0.01     0.05  -0.01   0.08    -0.01  -0.05  -0.11
  32   7     0.30  -0.20  -0.52     0.19  -0.04   0.18     0.05  -0.10  -0.29
  33   1     0.15  -0.09  -0.23     0.05  -0.03   0.05     0.01  -0.01  -0.07
  34   1     0.08  -0.05  -0.13     0.07  -0.00   0.06     0.02  -0.03  -0.10
  35   7    -0.31   0.19   0.48     0.14   0.14   0.14     0.05  -0.14  -0.26
  36   1    -0.09   0.04   0.12     0.05   0.04   0.05     0.02  -0.05  -0.09
  37   1    -0.15   0.09   0.23     0.03   0.05   0.03     0.01  -0.04  -0.05
  38   6    -0.00  -0.02  -0.00     0.19   0.03  -0.09     0.08   0.04  -0.11
  39   8    -0.01  -0.02  -0.01     0.01   0.01  -0.01     0.01   0.07   0.03
  40   7    -0.01  -0.01   0.01     0.27   0.11  -0.14     0.13  -0.01  -0.19
  41   1    -0.00  -0.00   0.00     0.05   0.04  -0.03     0.03  -0.01  -0.03
  42   1    -0.00  -0.00   0.00     0.12   0.03  -0.06     0.05  -0.01  -0.08
  43   7     0.01  -0.02  -0.00     0.36  -0.03  -0.16     0.12   0.07  -0.21
  44   1     0.00  -0.01  -0.00     0.13  -0.01  -0.06     0.04   0.01  -0.08
  45   1     0.00  -0.01  -0.00     0.08  -0.03  -0.03     0.02   0.03  -0.03
  46   6    -0.04  -0.00   0.00    -0.07   0.11  -0.02     0.03  -0.17   0.13
  47   8    -0.03  -0.00   0.01     0.02   0.25  -0.08     0.07  -0.09   0.02
  48   7    -0.03  -0.01  -0.01    -0.11  -0.01   0.01     0.01  -0.18   0.20
  49   1    -0.01  -0.00  -0.00    -0.02  -0.01   0.00     0.00  -0.02   0.04
  50   1    -0.01  -0.00  -0.01    -0.05  -0.03   0.02    -0.01  -0.07   0.08
  51   7    -0.05   0.00   0.00    -0.14   0.11  -0.00     0.02  -0.30   0.23
  52   1    -0.02   0.00  -0.00    -0.05   0.01   0.01     0.00  -0.10   0.09
  53   1    -0.01   0.00   0.00    -0.03   0.06  -0.01     0.01  -0.08   0.05
                      4                      5                      6
                        a                      a                      a 
 Frequencies --    20.7119                27.0272                33.8629
 Red. masses --    12.0190                11.9459                11.9791
 Frc consts  --     0.0000                 0.0000                 0.0000
 IR Inten    --     1.0177                 2.9242                 0.1020
 Raman Activ --     0.0000                 0.0000                 0.0000
 Depolar     --     0.0000                 0.0000                 0.0000
 Atom AN      X      Y      Z        X      Y      Z        X      Y      Z
   1   8    -0.01  -0.15   0.04    -0.04   0.16  -0.06    -0.14   0.23   0.05
   2   6    -0.10  -0.12   0.04     0.03   0.08  -0.14     0.06   0.24   0.13
   3   1    -0.03  -0.05   0.02     0.01   0.02  -0.05     0.01   0.12   0.04
   4   1    -0.04  -0.04   0.02     0.01   0.04  -0.06     0.06   0.06   0.06
   5   6    -0.12  -0.04   0.01     0.05  -0.03  -0.12     0.08   0.07   0.13
   6   1    -0.03   0.00  -0.00     0.01   0.01  -0.03     0.02   0.01   0.03
   7   1    -0.06  -0.01   0.00     0.02  -0.02  -0.06     0.05   0.02   0.03
   8   7    -0.10  -0.02   0.00     0.05  -0.15  -0.03    -0.04   0.01   0.17
   9   6    -0.00  -0.00  -0.00     0.03  -0.08   0.11    -0.06   0.02   0.20
  10   1     0.00   0.01  -0.01     0.01  -0.00   0.03    -0.00   0.01   0.04
  11   1     0.01   0.00  -0.00     0.01  -0.04   0.05    -0.04  -0.01   0.06
  12   1     0.01  -0.02   0.00     0.01  -0.00   0.04    -0.01   0.03   0.08
  13   6    -0.13   0.05  -0.02     0.05  -0.21  -0.06    -0.06  -0.09   0.05
  14   1    -0.03   0.03  -0.01     0.01  -0.04  -0.02    -0.00  -0.02  -0.00
  15   1    -0.05   0.01  -0.01     0.02  -0.07  -0.05    -0.01  -0.03   0.00
  16   1    -0.03   0.02  -0.01     0.02  -0.08   0.00    -0.04  -0.04   0.02
  17   6    -0.10  -0.07   0.02     0.05  -0.23  -0.02    -0.11   0.00   0.23
  18   1    -0.05  -0.02   0.01     0.01  -0.08  -0.03    -0.03  -0.00   0.06
  19   1    -0.02  -0.03   0.01     0.01  -0.05   0.01    -0.03   0.02   0.09
  20   1    -0.03  -0.02   0.01     0.02  -0.09   0.01    -0.06  -0.02   0.07
  21   1     0.00  -0.03   0.01    -0.01   0.05  -0.02    -0.02   0.01   0.01
  22   6    -0.04   0.20  -0.08     0.01   0.12  -0.02     0.15   0.01  -0.04
  23   8    -0.06   0.23  -0.08     0.03   0.12  -0.03     0.17  -0.01  -0.04
  24   7    -0.05  -0.01  -0.02    -0.01   0.11  -0.03     0.15  -0.14  -0.01
  25   1    -0.01  -0.04   0.00    -0.00   0.03  -0.01     0.04  -0.06  -0.00
  26   1     0.00  -0.00  -0.01    -0.00   0.03  -0.01     0.04  -0.03  -0.00
  27   7    -0.01   0.44  -0.16     0.01   0.16  -0.01     0.18   0.17  -0.09
  28   1    -0.00   0.12  -0.04    -0.00   0.05  -0.00     0.05   0.05  -0.02
  29   1    -0.01   0.16  -0.05     0.01   0.05  -0.00     0.05   0.07  -0.03
  30   6     0.14  -0.00  -0.01    -0.01  -0.09   0.14     0.01  -0.05   0.05
  31   8    -0.12  -0.03   0.00     0.05  -0.25  -0.13     0.02  -0.04   0.09
  32   7     0.33  -0.19   0.07    -0.03  -0.11   0.35    -0.00  -0.04   0.04
  33   1     0.06  -0.09   0.05     0.01  -0.07   0.06     0.00  -0.01   0.01
  34   1     0.14  -0.04   0.02    -0.01  -0.01   0.15    -0.00  -0.01   0.00
  35   7     0.28   0.20  -0.11    -0.08   0.08   0.31     0.02  -0.09   0.04
  36   1     0.13   0.06  -0.03    -0.03   0.05   0.13     0.00  -0.03   0.01
  37   1     0.04   0.09  -0.04    -0.01   0.03   0.04     0.01  -0.03   0.01
  38   6    -0.02  -0.08   0.08    -0.08   0.13  -0.09     0.04  -0.09  -0.10
  39   8     0.01  -0.10   0.03    -0.04   0.17  -0.07     0.08  -0.10  -0.14
  40   7    -0.00  -0.07   0.07    -0.07   0.07  -0.13     0.00  -0.10  -0.08
  41   1     0.00  -0.02   0.01    -0.01   0.01  -0.03    -0.01  -0.02  -0.01
  42   1    -0.01  -0.02   0.03    -0.03   0.02  -0.04    -0.01  -0.03  -0.01
  43   7    -0.06  -0.10   0.15    -0.15   0.18  -0.09     0.06  -0.09  -0.15
  44   1    -0.02  -0.02   0.05    -0.05   0.05  -0.03     0.00  -0.02  -0.03
  45   1    -0.02  -0.03   0.04    -0.05   0.06  -0.01     0.01  -0.02  -0.03
  46   6     0.04  -0.03  -0.02     0.03  -0.05   0.02    -0.14   0.01  -0.13
  47   8     0.03  -0.04  -0.02     0.02  -0.03  -0.06    -0.17  -0.07   0.00
  48   7     0.02  -0.06   0.01     0.04   0.03   0.03    -0.11   0.01  -0.23
  49   1     0.00  -0.02   0.00     0.01   0.03  -0.00    -0.02  -0.01  -0.06
  50   1     0.01  -0.01  -0.00     0.01   0.00   0.03    -0.02   0.03  -0.10
  51   7     0.06  -0.00  -0.05     0.05  -0.16   0.10    -0.18   0.12  -0.20
  52   1     0.02  -0.00  -0.01     0.02  -0.05   0.04    -0.05   0.05  -0.08
  53   1     0.02  -0.00  -0.01     0.01  -0.06   0.02    -0.06   0.03  -0.03
                      7                      8                      9
                        a                      a                      a 
 Frequencies --    44.8160                46.4501                51.0354
 Red. masses --    12.1241                12.5637                12.2464
 Frc consts  --     0.0000                 0.0000                 0.0000
 IR Inten    --     4.2422                 0.1864                10.6887
 Raman Activ --     0.0000                 0.0000                 0.0000
 Depolar     --     0.0000                 0.0000                 0.0000
 Atom AN      X      Y      Z        X      Y      Z        X      Y      Z
   1   8     0.03   0.04  -0.00    -0.04   0.05  -0.03    -0.03  -0.01   0.07
   2   6     0.12   0.06   0.05     0.03   0.05  -0.00    -0.12  -0.09  -0.08
   3   1     0.03   0.05   0.02     0.01   0.03  -0.00    -0.03  -0.08  -0.03
   4   1     0.07   0.01   0.03     0.02   0.01   0.00    -0.06  -0.01  -0.05
   5   6     0.11  -0.04   0.01     0.05   0.00   0.02    -0.12  -0.05  -0.06
   6   1     0.04  -0.04  -0.01     0.01  -0.01   0.01    -0.04  -0.01  -0.01
   7   1     0.06  -0.01   0.01     0.03   0.00   0.00    -0.04  -0.01  -0.02
   8   7    -0.02  -0.04  -0.04     0.04  -0.01   0.02    -0.06  -0.04  -0.05
   9   6    -0.14  -0.09  -0.10    -0.01  -0.02   0.03    -0.16  -0.06  -0.05
  10   1    -0.03  -0.06  -0.03    -0.01  -0.01   0.01    -0.07  -0.03   0.01
  11   1    -0.07  -0.03  -0.04    -0.01  -0.01   0.01    -0.03  -0.02  -0.01
  12   1    -0.05  -0.01  -0.03    -0.01   0.00   0.01    -0.06  -0.01  -0.04
  13   6     0.02  -0.14  -0.05     0.05  -0.05   0.03     0.02  -0.07   0.08
  14   1     0.01  -0.07  -0.02     0.01  -0.02   0.01    -0.01  -0.03   0.04
  15   1     0.03  -0.03  -0.00     0.03  -0.01   0.01     0.03  -0.01   0.02
  16   1    -0.02  -0.04  -0.03     0.01  -0.02   0.01     0.02  -0.02   0.02
  17   6    -0.05   0.11  -0.02     0.04   0.02   0.01     0.04   0.02  -0.16
  18   1     0.02   0.04   0.01     0.02   0.01   0.00     0.04   0.01  -0.05
  19   1    -0.03   0.06  -0.00     0.01   0.02   0.00    -0.01   0.02  -0.07
  20   1    -0.04   0.03  -0.01     0.01   0.00   0.01     0.03   0.00  -0.04
  21   1     0.01  -0.01   0.00    -0.02   0.00   0.00     0.01   0.03   0.00
  22   6    -0.02   0.02  -0.10    -0.13   0.07   0.08     0.01  -0.00   0.01
  23   8    -0.00  -0.27  -0.08    -0.03   0.00   0.05    -0.26  -0.03   0.14
  24   7    -0.08   0.05  -0.16    -0.24   0.11   0.01     0.23  -0.14   0.19
  25   1    -0.01  -0.03  -0.03    -0.06   0.01  -0.01     0.06  -0.05   0.10
  26   1    -0.02   0.06  -0.04    -0.08   0.02   0.01     0.12  -0.03   0.03
  27   7    -0.00   0.35  -0.12    -0.15   0.16   0.21     0.07   0.16  -0.34
  28   1    -0.01   0.14  -0.04    -0.06   0.05   0.07     0.07   0.05  -0.12
  29   1     0.00   0.07  -0.03    -0.02   0.03   0.07    -0.03   0.06  -0.13
  30   6     0.08   0.04   0.01     0.05  -0.01   0.02     0.06   0.03  -0.02
  31   8     0.31   0.09   0.07     0.19   0.01   0.03     0.24   0.02  -0.09
  32   7    -0.06   0.19  -0.10    -0.03   0.08  -0.02    -0.04   0.13  -0.03
  33   1     0.00   0.09  -0.04     0.01   0.04  -0.02     0.01   0.05  -0.03
  34   1    -0.06   0.04  -0.04    -0.03   0.02  -0.01    -0.04   0.03   0.00
  35   7    -0.02  -0.16   0.07    -0.01  -0.11   0.07    -0.03  -0.05   0.07
  36   1    -0.05  -0.05   0.01    -0.03  -0.03   0.02    -0.04  -0.01   0.03
  37   1     0.02  -0.07   0.04     0.01  -0.05   0.03     0.01  -0.03   0.02
  38   6    -0.01  -0.02   0.10    -0.07  -0.08  -0.03     0.06   0.05  -0.03
  39   8    -0.00  -0.04   0.02    -0.16  -0.08   0.07     0.14   0.08  -0.01
  40   7     0.10   0.03   0.01    -0.05  -0.10  -0.06    -0.06  -0.01   0.07
  41   1     0.03   0.02  -0.02    -0.01  -0.03  -0.01    -0.02  -0.01   0.04
  42   1     0.02   0.01   0.03     0.01  -0.03  -0.04    -0.03  -0.01   0.01
  43   7    -0.14  -0.04   0.30    -0.01  -0.08  -0.12     0.11   0.10  -0.17
  44   1    -0.03  -0.01   0.09     0.01  -0.02  -0.05     0.01   0.02  -0.05
  45   1    -0.04  -0.02   0.09    -0.01  -0.02  -0.02     0.05   0.04  -0.06
  46   6    -0.03  -0.03   0.02     0.10  -0.01  -0.09    -0.03  -0.01   0.12
  47   8     0.06   0.15  -0.12     0.05  -0.08  -0.11    -0.09  -0.14   0.27
  48   7    -0.05  -0.07   0.05    -0.06  -0.25   0.21    -0.05  -0.06   0.15
  49   1    -0.00   0.00  -0.00    -0.03  -0.07   0.06    -0.00  -0.01   0.03
  50   1    -0.04  -0.06   0.05     0.02  -0.01   0.02     0.02   0.04  -0.01
  51   7    -0.13  -0.19   0.17     0.37   0.30  -0.39     0.05   0.18  -0.02
  52   1    -0.05  -0.08   0.06     0.10   0.05  -0.06     0.01   0.04  -0.01
  53   1    -0.02  -0.04   0.03     0.11   0.09  -0.13    -0.00   0.03   0.02
                     10                     11                     12
                        a                      a                      a 
 Frequencies --    54.6510                60.7509                71.9443
 Red. masses --    12.4002                12.7903                13.3025
 Frc consts  --     0.0000                 0.0000                 0.0000
 IR Inten    --     0.7787                 0.0522                 4.3690
 Raman Activ --     0.0000                 0.0000                 0.0000
 Depolar     --     0.0000                 0.0000                 0.0000
 Atom AN      X      Y      Z        X      Y      Z        X      Y      Z
   1   8     0.19   0.14   0.01     0.10   0.08   0.01    -0.07  -0.02   0.04
   2   6     0.19   0.14   0.04     0.13   0.09   0.05    -0.09  -0.02   0.02
   3   1     0.04   0.07   0.03     0.02   0.05   0.03    -0.03  -0.02   0.01
   4   1     0.09   0.04   0.02     0.07   0.02   0.03    -0.04  -0.00   0.00
   5   6     0.14   0.06  -0.08     0.09   0.02  -0.05    -0.10   0.03   0.02
   6   1     0.06   0.02  -0.05     0.04  -0.00  -0.03    -0.03   0.03   0.01
   7   1     0.04   0.01  -0.03     0.03   0.00  -0.02    -0.04   0.00  -0.00
   8   7     0.01   0.00  -0.08    -0.03  -0.02  -0.06    -0.03   0.02   0.07
   9   6     0.03   0.02  -0.05    -0.06  -0.02  -0.05    -0.02   0.04   0.11
  10   1     0.02   0.01  -0.03    -0.01  -0.01  -0.02    -0.02   0.02   0.04
  11   1    -0.01  -0.00  -0.01    -0.03  -0.01  -0.01     0.01   0.01   0.04
  12   1     0.02   0.02   0.01    -0.02   0.00  -0.00    -0.01   0.01   0.02
  13   6    -0.05  -0.06  -0.21    -0.05  -0.10  -0.14    -0.02   0.03   0.10
  14   1     0.01  -0.01  -0.08    -0.00  -0.03  -0.05    -0.01   0.02   0.04
  15   1    -0.02  -0.03  -0.07    -0.01  -0.03  -0.05    -0.01   0.00   0.02
  16   1    -0.04  -0.03  -0.06    -0.03  -0.04  -0.04     0.01   0.00   0.04
  17   6    -0.10  -0.01   0.04    -0.10   0.02   0.02     0.01  -0.03   0.02
  18   1    -0.03  -0.01  -0.00    -0.01   0.01  -0.00     0.02  -0.02  -0.02
  19   1    -0.02   0.01   0.04    -0.03   0.03   0.03    -0.00   0.00   0.00
  20   1    -0.06  -0.02   0.01    -0.06  -0.01   0.01     0.01  -0.03   0.02
  21   1     0.04   0.02   0.01     0.02   0.00   0.01    -0.00  -0.01   0.00
  22   6     0.03  -0.05  -0.05    -0.13   0.04   0.04    -0.03   0.03   0.08
  23   8     0.01   0.07  -0.08    -0.12   0.10   0.02    -0.08   0.13   0.10
  24   7     0.06  -0.11  -0.02    -0.18  -0.04   0.05     0.03   0.10   0.10
  25   1     0.01  -0.02   0.00    -0.05  -0.01   0.00     0.01   0.03   0.03
  26   1     0.02  -0.03  -0.01    -0.05  -0.02   0.01     0.01   0.01   0.02
  27   7     0.02  -0.15  -0.08    -0.15   0.07   0.07    -0.04  -0.14   0.06
  28   1     0.01  -0.06  -0.02    -0.05   0.01   0.03     0.00  -0.05   0.01
  29   1     0.00  -0.02  -0.03    -0.03   0.04   0.02    -0.02  -0.04   0.01
  30   6    -0.05   0.02  -0.09     0.03   0.02  -0.07     0.06   0.05  -0.14
  31   8    -0.11  -0.08  -0.29     0.14  -0.05  -0.25     0.26  -0.07  -0.46
  32   7    -0.02  -0.04   0.07    -0.04   0.07   0.02    -0.06   0.14   0.03
  33   1    -0.00  -0.05   0.01     0.01   0.01  -0.02     0.02   0.01  -0.04
  34   1     0.01   0.01   0.06    -0.03   0.03   0.03    -0.05   0.05   0.05
  35   7    -0.05   0.20  -0.04    -0.04   0.07   0.03    -0.06   0.13   0.05
  36   1     0.00   0.07   0.02    -0.03   0.03   0.03    -0.04   0.06   0.05
  37   1    -0.02   0.07  -0.05     0.01   0.01  -0.02     0.02   0.02  -0.04
  38   6     0.04  -0.02   0.10     0.03  -0.12   0.07     0.06  -0.08   0.02
  39   8     0.06  -0.03   0.10    -0.07  -0.14   0.15     0.09  -0.11  -0.05
  40   7     0.03  -0.01   0.13    -0.13  -0.09   0.27     0.31  -0.07  -0.23
  41   1     0.00   0.00   0.03    -0.04  -0.02   0.07     0.07  -0.02  -0.05
  42   1     0.01  -0.00   0.04     0.01  -0.02   0.03     0.05  -0.02  -0.01
  43   7     0.05  -0.02   0.11     0.31  -0.16  -0.18    -0.19  -0.09   0.33
  44   1     0.01  -0.01   0.03     0.08  -0.04  -0.04    -0.03  -0.02   0.08
  45   1     0.02  -0.01   0.03     0.09  -0.05  -0.05    -0.06  -0.03   0.11
  46   6    -0.11  -0.01   0.10     0.05   0.04   0.01    -0.00  -0.02  -0.07
  47   8    -0.05   0.10   0.05    -0.01  -0.08   0.10     0.03  -0.06   0.04
  48   7    -0.28  -0.33   0.34     0.21   0.33  -0.23     0.05  -0.02  -0.19
  49   1    -0.05  -0.06   0.07     0.03   0.04  -0.02     0.02  -0.02  -0.04
  50   1    -0.06  -0.06   0.06     0.04   0.05  -0.03     0.01  -0.00  -0.07
  51   7    -0.06   0.17  -0.03     0.00  -0.10   0.12    -0.08   0.03  -0.09
  52   1    -0.04  -0.01   0.03     0.03   0.04  -0.02    -0.03   0.02  -0.05
  53   1    -0.00   0.07  -0.03    -0.01  -0.04   0.04    -0.03   0.02  -0.00
                     13                     14                     15
                        a                      a                      a 
 Frequencies --    80.2693                82.9946                92.5040
 Red. masses --    13.6278                13.0560                12.8276
 Frc consts  --     0.0000                 0.0000                 0.0000
 IR Inten    --     5.3265                12.5979                 0.4453
 Raman Activ --     0.0000                 0.0000                 0.0000
 Depolar     --     0.0000                 0.0000                 0.0000
 Atom AN      X      Y      Z        X      Y      Z        X      Y      Z
   1   8    -0.06   0.03   0.00    -0.16  -0.09   0.03    -0.02  -0.07  -0.02
   2   6    -0.02   0.01  -0.02    -0.20  -0.08   0.02    -0.02  -0.04   0.01
   3   1     0.01  -0.00  -0.02    -0.05  -0.04  -0.01    -0.01  -0.01   0.00
   4   1    -0.01   0.01  -0.01    -0.08  -0.02  -0.00    -0.01  -0.02   0.01
   5   6     0.02  -0.01   0.03    -0.18   0.01   0.07    -0.02  -0.01   0.02
   6   1    -0.01  -0.01   0.02    -0.06   0.03   0.03    -0.01   0.00   0.00
   7   1     0.01   0.00   0.01    -0.06   0.00   0.02    -0.01  -0.00   0.01
   8   7     0.04   0.00   0.04    -0.05   0.03   0.12     0.00   0.01   0.02
   9   6    -0.06  -0.03   0.01     0.03   0.06   0.14     0.10   0.03   0.02
  10   1    -0.03  -0.03   0.02     0.01   0.04   0.04     0.04   0.02  -0.01
  11   1    -0.02  -0.01   0.00     0.03   0.02   0.05     0.02   0.01   0.00
  12   1    -0.03   0.00  -0.01     0.01   0.00   0.04     0.04  -0.00   0.02
  13   6     0.10  -0.03   0.13    -0.05   0.11   0.15    -0.04   0.07  -0.03
  14   1     0.02  -0.03   0.05    -0.02   0.04   0.05    -0.01   0.03  -0.02
  15   1     0.05  -0.00   0.04    -0.03   0.03   0.04    -0.03   0.02  -0.01
  16   1     0.04  -0.01   0.04     0.00   0.04   0.05    -0.01   0.02  -0.01
  17   6     0.10   0.07  -0.05     0.01  -0.07   0.06    -0.02  -0.06   0.05
  18   1     0.05   0.03  -0.01    -0.00  -0.03  -0.00    -0.02  -0.02   0.01
  19   1     0.02   0.03  -0.03     0.00  -0.03   0.01     0.00  -0.03   0.02
  20   1     0.04   0.02  -0.01     0.03  -0.03   0.03    -0.00  -0.02   0.01
  21   1    -0.02   0.01   0.00    -0.04  -0.01   0.01    -0.05  -0.01   0.02
  22   6     0.05  -0.13   0.09     0.11  -0.03  -0.10     0.01  -0.11  -0.05
  23   8     0.11  -0.56   0.16     0.24  -0.01  -0.17     0.10   0.05  -0.13
  24   7    -0.03  -0.06   0.02     0.02  -0.06  -0.17    -0.09  -0.53  -0.01
  25   1    -0.00  -0.07   0.01     0.01  -0.01  -0.07    -0.02  -0.12  -0.02
  26   1    -0.01   0.04   0.01    -0.02  -0.01  -0.03    -0.03  -0.12   0.00
  27   7     0.08   0.31   0.12     0.11  -0.04   0.03     0.02   0.07  -0.03
  28   1     0.00   0.13   0.03     0.00  -0.01   0.02    -0.02  -0.01   0.01
  29   1     0.03   0.04   0.05     0.05  -0.00   0.02     0.02   0.10  -0.01
  30   6    -0.12   0.06  -0.13     0.08   0.03  -0.08     0.04   0.01  -0.01
  31   8    -0.30  -0.01  -0.29     0.26  -0.04  -0.27     0.11   0.00  -0.04
  32   7    -0.02  -0.06   0.03    -0.04   0.13   0.01    -0.01   0.05  -0.00
  33   1    -0.02  -0.06   0.01     0.02   0.03  -0.04     0.01   0.02  -0.01
  34   1     0.02   0.00   0.04    -0.04   0.04   0.02    -0.01   0.01  -0.00
  35   7    -0.07   0.31  -0.13    -0.03   0.03   0.05     0.01  -0.02   0.03
  36   1     0.02   0.10  -0.01    -0.04   0.02   0.04    -0.01  -0.00   0.01
  37   1    -0.03   0.11  -0.08     0.02  -0.01  -0.01     0.01  -0.01   0.00
  38   6    -0.00  -0.01  -0.02    -0.04   0.02   0.03    -0.05   0.04  -0.03
  39   8    -0.03  -0.01  -0.00    -0.04  -0.01  -0.05    -0.36   0.04   0.22
  40   7     0.01  -0.00  -0.04    -0.28   0.08   0.31     0.26   0.07  -0.35
  41   1     0.00  -0.00  -0.01    -0.05   0.03   0.04     0.02   0.03  -0.05
  42   1     0.01  -0.00  -0.02    -0.04   0.02   0.06     0.11   0.02  -0.12
  43   7     0.01  -0.01  -0.03     0.17  -0.04  -0.12     0.01   0.01  -0.05
  44   1     0.01  -0.00  -0.02     0.02  -0.00   0.01     0.08  -0.01  -0.07
  45   1     0.00  -0.00  -0.01     0.05  -0.03  -0.05    -0.03  -0.01   0.03
  46   6     0.03   0.01   0.02     0.02   0.01  -0.03    -0.01   0.09   0.10
  47   8     0.02  -0.01   0.02     0.10   0.18  -0.23    -0.07   0.06   0.07
  48   7     0.04   0.04   0.01    -0.06  -0.11   0.10    -0.01   0.18   0.12
  49   1     0.01   0.01   0.01    -0.01  -0.01   0.01    -0.03   0.04   0.05
  50   1     0.02   0.01   0.00    -0.04  -0.07   0.07     0.00   0.04   0.05
  51   7     0.06   0.02   0.01     0.01  -0.10   0.04     0.06   0.06   0.11
  52   1     0.02   0.00   0.01    -0.00  -0.06   0.04     0.03   0.03   0.03
  53   1     0.01  -0.01   0.01     0.03  -0.00  -0.02     0.02   0.01   0.02
                     16                     17                     18
                        a                      a                      a 
 Frequencies --   102.5006               106.9840               113.3239
 Red. masses --    12.0830                12.2359                12.5586
 Frc consts  --     0.0000                 0.0000                 0.0000
 IR Inten    --     4.8940                 5.4605                13.5962
 Raman Activ --     0.0000                 0.0000                 0.0000
 Depolar     --     0.0000                 0.0000                 0.0000
 Atom AN      X      Y      Z        X      Y      Z        X      Y      Z
   1   8     0.10  -0.19   0.10    -0.24   0.21  -0.15     0.15   0.04   0.20
   2   6     0.06  -0.16   0.09    -0.08   0.12  -0.22     0.08  -0.02   0.07
   3   1     0.01  -0.04   0.04    -0.01   0.03  -0.08     0.03  -0.04   0.01
   4   1     0.04  -0.05   0.03    -0.03   0.05  -0.09     0.00   0.01  -0.00
   5   6     0.03  -0.18   0.02    -0.02  -0.00  -0.14     0.08   0.00   0.08
   6   1     0.02  -0.05  -0.01    -0.02   0.02  -0.02     0.02   0.02   0.03
   7   1     0.00  -0.05   0.00     0.01  -0.02  -0.07     0.01  -0.01   0.01
   8   7    -0.05  -0.23   0.02     0.04  -0.14   0.00     0.17  -0.04   0.16
   9   6     0.04  -0.18   0.04    -0.06  -0.07   0.18     0.15  -0.01   0.20
  10   1     0.03  -0.04  -0.01    -0.03  -0.00   0.07     0.03   0.01   0.07
  11   1    -0.00  -0.06   0.01    -0.01  -0.05   0.09     0.06  -0.01   0.07
  12   1     0.03  -0.05   0.04    -0.03   0.01   0.04     0.04   0.00   0.05
  13   6    -0.13  -0.20  -0.11     0.10  -0.24   0.04     0.17  -0.02   0.17
  14   1    -0.02  -0.05  -0.05     0.02  -0.06   0.03     0.04   0.01   0.06
  15   1    -0.05  -0.06  -0.03     0.05  -0.08  -0.01     0.05  -0.01   0.04
  16   1    -0.05  -0.06  -0.04     0.04  -0.09   0.04     0.06  -0.01   0.06
  17   6    -0.15  -0.24   0.13     0.12  -0.20  -0.08     0.22  -0.10   0.09
  18   1    -0.06  -0.07   0.04     0.04  -0.06  -0.05     0.06  -0.04   0.01
  19   1    -0.03  -0.07   0.07     0.02  -0.04  -0.03     0.06  -0.03   0.02
  20   1    -0.07  -0.07   0.03     0.05  -0.08  -0.00     0.08  -0.04   0.04
  21   1     0.02  -0.03   0.03    -0.05   0.04  -0.04     0.03   0.03   0.05
  22   6     0.09   0.05   0.04    -0.02  -0.00   0.02    -0.14  -0.02  -0.13
  23   8     0.17   0.03   0.02    -0.03   0.17  -0.01    -0.31  -0.04  -0.08
  24   7     0.06   0.15  -0.01    -0.03  -0.20   0.06    -0.02   0.04  -0.08
  25   1     0.02   0.04  -0.01    -0.01  -0.04   0.01    -0.01   0.02   0.01
  26   1     0.00   0.03   0.00    -0.01  -0.06   0.02     0.01   0.02  -0.03
  27   7     0.08  -0.00   0.14    -0.03  -0.04   0.01    -0.13  -0.05  -0.34
  28   1     0.01   0.01   0.04    -0.01  -0.03   0.01     0.00  -0.02  -0.11
  29   1     0.04  -0.01   0.05    -0.01   0.04  -0.00    -0.07  -0.03  -0.11
  30   6    -0.00   0.23  -0.06    -0.05   0.15   0.02    -0.03   0.06  -0.02
  31   8     0.01   0.30   0.00    -0.15   0.25   0.19    -0.07   0.08  -0.01
  32   7    -0.01   0.28  -0.16     0.01   0.13  -0.12     0.00   0.05  -0.05
  33   1    -0.02   0.10  -0.02    -0.03   0.06   0.01    -0.02   0.02   0.01
  34   1    -0.03   0.08  -0.03    -0.00   0.03  -0.04    -0.01   0.02   0.01
  35   7    -0.01   0.20  -0.09     0.01   0.11  -0.08    -0.02   0.10  -0.04
  36   1     0.02   0.03  -0.06     0.03   0.01  -0.07     0.02   0.02  -0.03
  37   1     0.01   0.04  -0.03    -0.01   0.03  -0.01     0.00   0.03  -0.03
  38   6    -0.02   0.05  -0.05     0.03  -0.05   0.04    -0.02  -0.02   0.06
  39   8     0.05   0.10  -0.01    -0.04  -0.12  -0.08    -0.05   0.02   0.26
  40   7    -0.04  -0.02  -0.07     0.04   0.08   0.09     0.01  -0.12   0.01
  41   1    -0.01  -0.01  -0.00     0.01   0.03   0.00     0.00  -0.03   0.00
  42   1    -0.03  -0.01  -0.02     0.03   0.03   0.04     0.02  -0.04  -0.03
  43   7    -0.08   0.12  -0.11     0.11  -0.16   0.13    -0.02   0.06  -0.07
  44   1    -0.03   0.03  -0.04     0.03  -0.03   0.08     0.00   0.00  -0.06
  45   1    -0.02   0.05  -0.03     0.02  -0.07   0.05    -0.01   0.04  -0.01
  46   6    -0.04  -0.02   0.01     0.07   0.01   0.02    -0.07   0.00  -0.12
  47   8    -0.12  -0.11   0.04     0.18   0.10   0.04    -0.10   0.04  -0.26
  48   7    -0.04   0.05   0.03     0.07  -0.10  -0.02    -0.09   0.07  -0.06
  49   1    -0.01   0.02   0.00     0.03  -0.03  -0.01    -0.05   0.00  -0.00
  50   1     0.01   0.04  -0.01    -0.00  -0.05  -0.00    -0.04  -0.02   0.03
  51   7     0.04   0.01  -0.03    -0.05   0.03   0.05    -0.01  -0.11  -0.07
  52   1     0.02   0.01  -0.00    -0.03  -0.00   0.00     0.02  -0.02  -0.01
  53   1     0.00  -0.02  -0.00    -0.01   0.04   0.01     0.01  -0.03  -0.05
                     19                     20                     21
                        a                      a                      a 
 Frequencies --   121.7632               128.8054               137.9912
 Red. masses --    12.0398                11.0588                12.9106
 Frc consts  --     0.0000                 0.0000                 0.0000
 IR Inten    --    13.7462                16.6650                17.1061
 Raman Activ --     0.0000                 0.0000                 0.0000
 Depolar     --     0.0000                 0.0000                 0.0000
 Atom AN      X      Y      Z        X      Y      Z        X      Y      Z
   1   8    -0.13  -0.14  -0.31    -0.12  -0.19  -0.08    -0.11   0.01  -0.07
   2   6     0.07   0.05   0.04     0.12  -0.05   0.13    -0.02   0.03  -0.02
   3   1     0.02   0.11   0.01     0.04   0.06   0.03     0.00   0.02  -0.01
   4   1     0.06  -0.03   0.08     0.07  -0.04   0.08    -0.00   0.00   0.00
   5   6     0.11  -0.01   0.11     0.18  -0.16   0.22     0.01   0.00   0.03
   6   1     0.03  -0.03   0.04     0.05  -0.11   0.07    -0.00  -0.00   0.02
   7   1     0.05   0.01   0.04     0.10  -0.02   0.11     0.01   0.00   0.01
   8   7     0.07   0.01   0.08     0.04  -0.05   0.08     0.03   0.00   0.04
   9   6     0.29   0.03   0.04    -0.19  -0.19  -0.13    -0.03  -0.01   0.04
  10   1     0.10   0.04  -0.01    -0.05  -0.13  -0.03    -0.01  -0.01   0.02
  11   1     0.09   0.02   0.00    -0.09  -0.03  -0.07    -0.01  -0.00   0.01
  12   1     0.11  -0.02   0.03    -0.07  -0.03  -0.05    -0.02   0.00   0.00
  13   6    -0.07   0.13  -0.10     0.13  -0.15   0.17     0.06  -0.02   0.08
  14   1     0.00   0.06  -0.06     0.03  -0.07   0.06     0.01  -0.01   0.03
  15   1    -0.07   0.03  -0.03     0.07  -0.03   0.06     0.03  -0.01   0.02
  16   1    -0.03   0.04  -0.04     0.03  -0.04   0.04     0.02  -0.01   0.03
  17   6    -0.08  -0.12   0.26     0.04   0.29   0.03     0.07   0.03  -0.01
  18   1    -0.07  -0.05   0.07     0.06   0.11   0.05     0.03   0.01  -0.00
  19   1     0.01  -0.06   0.12    -0.01   0.10  -0.02     0.01   0.02  -0.01
  20   1    -0.04  -0.03   0.06    -0.01   0.11  -0.02     0.02   0.01   0.00
  21   1    -0.04  -0.09  -0.07    -0.05  -0.08  -0.00    -0.00  -0.03  -0.03
  22   6    -0.12  -0.06   0.04     0.04   0.10   0.02    -0.01   0.03  -0.12
  23   8    -0.30  -0.20   0.14    -0.03   0.37   0.02     0.05   0.04  -0.17
  24   7     0.01   0.02   0.10     0.12  -0.05   0.12    -0.05   0.15  -0.18
  25   1     0.00  -0.00   0.06     0.03   0.03   0.02    -0.01   0.01  -0.04
  26   1     0.04   0.03   0.02     0.03  -0.04   0.03    -0.02   0.04  -0.05
  27   7    -0.09   0.03  -0.18     0.05  -0.08  -0.05    -0.03  -0.09  -0.05
  28   1     0.01   0.02  -0.07     0.03  -0.05  -0.01    -0.01  -0.02  -0.01
  29   1    -0.06  -0.03  -0.07    -0.00   0.03  -0.03    -0.00  -0.04  -0.01
  30   6     0.02   0.02  -0.01    -0.04  -0.01  -0.05    -0.01  -0.00  -0.00
  31   8     0.05   0.01  -0.04    -0.08  -0.05  -0.12    -0.02  -0.00  -0.01
  32   7     0.01   0.03  -0.02    -0.01  -0.05   0.00    -0.00  -0.01   0.00
  33   1    -0.00   0.02   0.01    -0.02  -0.02   0.02    -0.00  -0.00   0.00
  34   1    -0.02   0.02   0.02    -0.01   0.00   0.04    -0.00  -0.00   0.01
  35   7    -0.00   0.02   0.01    -0.04   0.08  -0.03    -0.01   0.01  -0.00
  36   1     0.01  -0.00  -0.01     0.02   0.02  -0.02     0.01   0.00  -0.01
  37   1     0.02  -0.00  -0.01    -0.00   0.02  -0.04     0.00   0.00  -0.01
  38   6    -0.04   0.03  -0.11    -0.09   0.04  -0.06     0.05  -0.16  -0.09
  39   8    -0.04  -0.02  -0.32    -0.18   0.02  -0.09     0.22  -0.20  -0.25
  40   7    -0.10   0.16  -0.01    -0.08   0.12  -0.05     0.03  -0.17  -0.06
  41   1    -0.02   0.05  -0.02    -0.02   0.04  -0.03    -0.02  -0.04  -0.01
  42   1    -0.03   0.05   0.03     0.00   0.04  -0.02    -0.03  -0.04   0.04
  43   7     0.01  -0.07   0.01    -0.01  -0.03  -0.04    -0.05  -0.19   0.03
  44   1     0.00  -0.00   0.05     0.02  -0.00   0.00    -0.05  -0.04   0.05
  45   1     0.00  -0.05  -0.01    -0.01  -0.03  -0.00    -0.01  -0.05   0.00
  46   6     0.08   0.02   0.06     0.03   0.03  -0.03    -0.04   0.12   0.19
  47   8     0.12   0.05   0.08     0.07   0.11  -0.12    -0.29   0.00   0.08
  48   7     0.07  -0.04   0.05    -0.00  -0.01   0.02    -0.09   0.35   0.33
  49   1     0.03   0.01   0.00    -0.01   0.00   0.00    -0.04   0.11   0.09
  50   1     0.02  -0.00   0.00    -0.01  -0.03   0.03     0.02   0.14   0.08
  51   7     0.03   0.04   0.06     0.01  -0.04   0.01     0.23   0.06   0.18
  52   1    -0.00  -0.00   0.02     0.01  -0.01   0.01     0.10   0.03   0.09
  53   1     0.01   0.02   0.02     0.02   0.01  -0.02     0.06  -0.05   0.03
                     22                     23                     24
                        a                      a                      a 
 Frequencies --   149.5257               158.1344               163.4700
 Red. masses --    13.0511                 3.6768                13.4362
 Frc consts  --     0.0000                 0.0000                 0.0000
 IR Inten    --     0.5129                 8.1286                24.5371
 Raman Activ --     0.0000                 0.0000                 0.0000
 Depolar     --     0.0000                 0.0000                 0.0000
 Atom AN      X      Y      Z        X      Y      Z        X      Y      Z
   1   8     0.02   0.04  -0.06    -0.01  -0.02  -0.01     0.18  -0.02   0.14
   2   6    -0.03   0.03  -0.07     0.02  -0.01   0.01     0.04  -0.04   0.07
   3   1    -0.01   0.00  -0.01     0.01   0.01   0.00    -0.00  -0.03   0.03
   4   1    -0.00   0.01  -0.02     0.01  -0.00   0.01     0.00  -0.01   0.01
   5   6    -0.05   0.05  -0.12     0.02  -0.02   0.02    -0.01   0.01   0.00
   6   1    -0.01   0.02  -0.04     0.01  -0.01   0.01     0.01   0.01  -0.01
   7   1    -0.03   0.01  -0.04     0.01  -0.00   0.00    -0.02  -0.00  -0.01
   8   7    -0.06   0.01  -0.09     0.02  -0.03   0.02    -0.02  -0.01   0.01
   9   6    -0.00   0.05  -0.03     0.01  -0.03   0.02    -0.03  -0.01   0.01
  10   1    -0.01   0.04  -0.00     0.00  -0.01   0.01    -0.02   0.00   0.02
  11   1     0.02   0.01   0.00     0.00  -0.01   0.01     0.01   0.00   0.01
  12   1     0.00   0.01  -0.01     0.00  -0.01   0.00    -0.01  -0.01  -0.01
  13   6    -0.08   0.02  -0.12     0.01  -0.02   0.01    -0.01  -0.02   0.02
  14   1    -0.02   0.01  -0.04     0.00  -0.00   0.00    -0.00  -0.01   0.01
  15   1    -0.03   0.00  -0.04    -0.00  -0.01   0.00     0.00  -0.00   0.01
  16   1    -0.02   0.00  -0.03     0.00  -0.01   0.00    -0.01  -0.01   0.00
  17   6    -0.08  -0.06  -0.06     0.02  -0.01   0.02    -0.02   0.01   0.01
  18   1    -0.03  -0.03  -0.03     0.01  -0.00  -0.00     0.00   0.00  -0.00
  19   1    -0.02  -0.02  -0.00     0.00   0.01   0.01    -0.01   0.01   0.00
  20   1    -0.03  -0.03  -0.01    -0.00  -0.01   0.01    -0.01  -0.00   0.01
  21   1     0.00   0.01  -0.01    -0.01  -0.01  -0.00     0.09   0.01   0.01
  22   6     0.13   0.01   0.19    -0.00   0.01  -0.01    -0.13  -0.07   0.10
  23   8    -0.04  -0.02   0.31    -0.02   0.01  -0.00    -0.09   0.07   0.06
  24   7     0.30   0.07   0.29     0.01   0.02  -0.00    -0.20  -0.41   0.14
  25   1     0.08   0.03   0.10     0.00   0.01   0.00    -0.05  -0.12   0.02
  26   1     0.09   0.01   0.07     0.00   0.00  -0.00    -0.06  -0.10   0.04
  27   7     0.17  -0.01   0.00    -0.00  -0.01  -0.03    -0.13   0.05   0.16
  28   1     0.08   0.03  -0.03     0.00  -0.00  -0.01    -0.06   0.01   0.06
  29   1     0.01   0.00  -0.03    -0.00  -0.00  -0.01    -0.02   0.11   0.04
  30   6     0.01  -0.00   0.02    -0.01   0.04  -0.02     0.00   0.00   0.00
  31   8     0.01   0.01   0.04    -0.03   0.04  -0.01     0.00   0.00   0.00
  32   7     0.00   0.00   0.00    -0.18   0.10   0.24    -0.01   0.01   0.01
  33   1     0.00   0.00  -0.00     0.23  -0.11  -0.30     0.01  -0.00  -0.01
  34   1     0.01  -0.00  -0.01     0.29  -0.12  -0.41     0.01  -0.00  -0.02
  35   7     0.01  -0.03   0.00     0.17  -0.08  -0.24     0.01  -0.01  -0.01
  36   1    -0.01  -0.00   0.01    -0.27   0.20   0.34    -0.01   0.01   0.01
  37   1    -0.00  -0.01   0.02    -0.22   0.13   0.28    -0.01   0.00   0.01
  38   6    -0.06  -0.13   0.01    -0.01   0.00  -0.00     0.11   0.01  -0.13
  39   8    -0.12  -0.15   0.11    -0.03  -0.00  -0.00     0.45   0.05  -0.29
  40   7    -0.02  -0.15  -0.03    -0.00   0.01  -0.00    -0.02  -0.09  -0.02
  41   1    -0.00  -0.03  -0.03    -0.00   0.00  -0.00     0.02  -0.03  -0.02
  42   1     0.03  -0.04  -0.04     0.00   0.00  -0.00    -0.06  -0.03   0.03
  43   7    -0.05  -0.15  -0.02     0.00  -0.01   0.00    -0.12   0.14  -0.07
  44   1    -0.00  -0.04  -0.01     0.00  -0.00   0.00    -0.09   0.03  -0.01
  45   1    -0.02  -0.04   0.01    -0.00  -0.01   0.00     0.01   0.08  -0.06
  46   6    -0.02   0.11  -0.10     0.00  -0.00   0.00     0.03   0.09  -0.07
  47   8    -0.06   0.26  -0.40     0.00  -0.01   0.01     0.09   0.25  -0.23
  48   7    -0.10   0.19   0.09     0.00  -0.00   0.00    -0.04   0.01   0.03
  49   1    -0.06   0.04   0.04     0.00  -0.00   0.00     0.02   0.05  -0.02
  50   1    -0.05  -0.02   0.12     0.00   0.00  -0.00    -0.01   0.00   0.01
  51   7     0.11  -0.12   0.03     0.00  -0.00   0.00    -0.01  -0.03   0.03
  52   1     0.06  -0.03   0.05     0.00   0.00  -0.00    -0.02  -0.04   0.04
  53   1     0.07  -0.02  -0.06     0.00   0.00   0.00     0.01   0.00  -0.01
                     25                     26                     27
                        a                      a                      a 
 Frequencies --   184.4654               195.8260               245.3662
 Red. masses --    12.7723                10.5647                 2.2456
 Frc consts  --     0.0000                 0.0000                 0.0000
 IR Inten    --    40.6181                 6.9770                63.4074
 Raman Activ --     0.0000                 0.0000                 0.0000
 Depolar     --     0.0000                 0.0000                 0.0000
 Atom AN      X      Y      Z        X      Y      Z        X      Y      Z
   1   8     0.09   0.00   0.09     0.45  -0.28  -0.23    -0.02  -0.02  -0.05
   2   6     0.01  -0.02   0.03     0.08  -0.02   0.12    -0.00   0.01  -0.01
   3   1    -0.00  -0.03   0.01    -0.02   0.03   0.09    -0.00   0.01  -0.00
   4   1    -0.00  -0.00   0.00     0.04  -0.06   0.11     0.00  -0.00   0.01
   5   6    -0.01   0.01  -0.01    -0.10   0.26  -0.15     0.00   0.01  -0.00
   6   1     0.00   0.01  -0.01     0.01   0.18  -0.08    -0.00   0.00   0.00
   7   1    -0.02  -0.00  -0.01    -0.12   0.04  -0.11     0.00   0.00  -0.00
   8   7    -0.00   0.00   0.01    -0.08   0.08   0.05    -0.00   0.00   0.01
   9   6    -0.01   0.00   0.02    -0.21   0.15   0.26    -0.00   0.00   0.01
  10   1    -0.00   0.00   0.01    -0.14   0.08   0.17    -0.01   0.00   0.01
  11   1    -0.00  -0.00   0.01     0.06   0.04   0.12     0.01   0.00   0.00
  12   1    -0.00   0.00   0.00    -0.11   0.02  -0.02    -0.00  -0.00  -0.01
  13   6     0.01  -0.01   0.01     0.03  -0.17   0.09     0.00  -0.01   0.00
  14   1     0.00  -0.00   0.00     0.01  -0.09   0.03     0.00  -0.01   0.00
  15   1     0.00  -0.00   0.00     0.07  -0.04   0.02     0.00  -0.00   0.00
  16   1     0.00  -0.00   0.00    -0.03  -0.07   0.03    -0.00  -0.00  -0.00
  17   6     0.01  -0.00  -0.01    -0.01   0.01  -0.02    -0.00   0.01   0.01
  18   1     0.01  -0.00  -0.01     0.08  -0.02  -0.10     0.00   0.00  -0.00
  19   1    -0.00   0.00  -0.00    -0.05   0.11   0.01    -0.00   0.01   0.00
  20   1     0.00  -0.01   0.00    -0.03  -0.10   0.07    -0.00  -0.00   0.00
  21   1     0.01   0.02   0.03     0.09  -0.08  -0.04    -0.01  -0.01  -0.01
  22   6     0.03   0.03  -0.05     0.02  -0.01  -0.01     0.00   0.01   0.00
  23   8     0.02  -0.02  -0.05     0.01  -0.03  -0.01    -0.02   0.01   0.01
  24   7     0.04   0.11  -0.07     0.01   0.02  -0.02     0.00  -0.00   0.01
  25   1     0.01   0.04  -0.02     0.00   0.01  -0.01     0.00  -0.01   0.00
  26   1     0.00   0.04  -0.01     0.00   0.00  -0.01     0.01   0.01   0.00
  27   7     0.03  -0.02  -0.06     0.02   0.00  -0.02     0.00  -0.05   0.01
  28   1     0.01  -0.00  -0.02     0.01  -0.01  -0.01    -0.00   0.06  -0.02
  29   1     0.00  -0.03  -0.02     0.00  -0.02  -0.00    -0.00   0.05  -0.01
  30   6    -0.00   0.00  -0.00    -0.01  -0.00   0.02    -0.00   0.00  -0.00
  31   8    -0.00   0.00   0.00    -0.02   0.01   0.04    -0.00  -0.00  -0.00
  32   7     0.00   0.00  -0.00     0.01  -0.01   0.00    -0.00  -0.00   0.00
  33   1    -0.00   0.00   0.00    -0.00  -0.00   0.01     0.00  -0.00  -0.00
  34   1    -0.00   0.00   0.00     0.00  -0.00   0.00     0.00  -0.00  -0.00
  35   7    -0.00   0.00   0.00    -0.00  -0.01   0.01    -0.00   0.00   0.00
  36   1     0.00  -0.00  -0.00     0.01  -0.01  -0.01     0.00   0.00  -0.00
  37   1     0.00  -0.00  -0.00     0.00  -0.01   0.00     0.00   0.00  -0.00
  38   6    -0.15  -0.17  -0.09    -0.06   0.02  -0.05    -0.00   0.00   0.04
  39   8    -0.09  -0.14   0.08    -0.14   0.00  -0.12    -0.03   0.00   0.08
  40   7    -0.14  -0.31  -0.14    -0.04   0.14  -0.05     0.01  -0.02   0.02
  41   1    -0.03  -0.10  -0.03    -0.02   0.05  -0.02     0.01  -0.01  -0.00
  42   1    -0.03  -0.09  -0.06    -0.00   0.05   0.00     0.02  -0.01  -0.02
  43   7    -0.24  -0.05  -0.24     0.01  -0.06   0.02     0.04  -0.00   0.00
  44   1    -0.08  -0.03  -0.11     0.04  -0.01   0.00     0.01   0.00   0.01
  45   1    -0.06   0.03  -0.06     0.01  -0.05  -0.02    -0.00  -0.00   0.02
  46   6     0.14   0.13   0.12     0.00  -0.02   0.01    -0.01  -0.02  -0.02
  47   8     0.34   0.30   0.21    -0.01  -0.05   0.03    -0.01   0.01  -0.06
  48   7     0.17  -0.08  -0.01     0.01  -0.01   0.01    -0.03  -0.02   0.01
  49   1     0.08  -0.04   0.00    -0.00   0.00   0.00     0.06   0.11  -0.09
  50   1    -0.00  -0.06  -0.01     0.01   0.00  -0.00     0.16   0.26  -0.22
  51   7    -0.20   0.25   0.18     0.02  -0.01  -0.00     0.11   0.20  -0.13
  52   1    -0.13  -0.01   0.03     0.01   0.01  -0.01    -0.26  -0.56   0.39
  53   1    -0.07   0.12   0.10     0.01  -0.00  -0.00    -0.19  -0.34   0.22
                     28                     29                     30
                        a                      a                      a 
 Frequencies --   257.2095               267.6925               286.8935
 Red. masses --    12.8406                 4.3957                 3.3065
 Frc consts  --     0.0000                 0.0000                 0.0000
 IR Inten    --    21.4580                 0.1598               222.6682
 Raman Activ --     0.0000                 0.0000                 0.0000
 Depolar     --     0.0000                 0.0000                 0.0000
 Atom AN      X      Y      Z        X      Y      Z        X      Y      Z
   1   8    -0.12  -0.19  -0.56     0.25  -0.03  -0.05     0.01   0.00   0.01
   2   6    -0.07   0.04  -0.18    -0.06  -0.12  -0.24    -0.01  -0.00   0.00
   3   1    -0.00   0.07  -0.07     0.03  -0.16  -0.12    -0.00  -0.00  -0.00
   4   1    -0.03  -0.04   0.01    -0.16  -0.01  -0.13    -0.00   0.00  -0.00
   5   6     0.02   0.06   0.03     0.04   0.08   0.03    -0.00   0.01   0.00
   6   1    -0.02  -0.00   0.03    -0.02   0.00   0.04    -0.00   0.00   0.00
   7   1     0.04   0.02   0.01     0.04   0.03   0.02    -0.00   0.00   0.00
   8   7    -0.02   0.02   0.08     0.01   0.06   0.07     0.01   0.01   0.01
   9   6    -0.03  -0.01   0.03    -0.09   0.07   0.15     0.01   0.01   0.01
  10   1    -0.06   0.01   0.07     0.13  -0.04  -0.14     0.01  -0.00  -0.00
  11   1     0.08   0.03   0.01    -0.29  -0.06   0.03    -0.01   0.00   0.00
  12   1    -0.04  -0.06  -0.07     0.05   0.17   0.25     0.00   0.01   0.01
  13   6    -0.00  -0.08   0.05     0.01  -0.13  -0.04     0.01   0.00  -0.01
  14   1     0.01  -0.04   0.01    -0.02   0.10  -0.01     0.01  -0.02  -0.01
  15   1     0.02  -0.02   0.02    -0.02  -0.12  -0.16     0.01   0.01   0.01
  16   1    -0.02  -0.03   0.01     0.06  -0.15   0.11    -0.01   0.01  -0.01
  17   6    -0.09   0.08   0.14    -0.08   0.15   0.14     0.01   0.01   0.00
  18   1    -0.03   0.03   0.07    -0.23   0.09   0.27     0.01   0.00  -0.00
  19   1    -0.01   0.01   0.05     0.08  -0.24  -0.03     0.00   0.01   0.00
  20   1    -0.04   0.04   0.02     0.07   0.31  -0.13     0.00  -0.00   0.00
  21   1    -0.05  -0.07  -0.13     0.04   0.05  -0.00    -0.00   0.00   0.00
  22   6    -0.01  -0.00  -0.01    -0.01  -0.01   0.00    -0.01   0.06  -0.03
  23   8     0.02   0.01  -0.03    -0.01  -0.02   0.01    -0.01  -0.02  -0.01
  24   7    -0.02  -0.02  -0.02     0.00   0.01   0.01    -0.01   0.04  -0.03
  25   1    -0.00  -0.01   0.00     0.00  -0.00   0.01     0.00  -0.05   0.01
  26   1    -0.01  -0.00  -0.00     0.00   0.00   0.00     0.01  -0.02  -0.01
  27   7    -0.01  -0.00   0.02    -0.00   0.00  -0.01     0.03  -0.39   0.10
  28   1    -0.01   0.01   0.01     0.00   0.00  -0.00    -0.02   0.70  -0.19
  29   1     0.00   0.01   0.01    -0.00  -0.00  -0.00    -0.02   0.51  -0.09
  30   6     0.00  -0.00  -0.01     0.01  -0.01  -0.01    -0.00  -0.00  -0.00
  31   8     0.00  -0.00  -0.01     0.02  -0.01  -0.01    -0.00  -0.00  -0.00
  32   7    -0.01   0.00   0.01    -0.01   0.01   0.02     0.00  -0.01   0.00
  33   1     0.01  -0.00  -0.01     0.01  -0.01  -0.02    -0.00  -0.00   0.00
  34   1     0.01  -0.00  -0.01     0.01  -0.01  -0.02    -0.00  -0.00   0.00
  35   7    -0.01   0.01   0.01    -0.01   0.00   0.01     0.00   0.00  -0.00
  36   1     0.01  -0.00  -0.01     0.01  -0.01  -0.01     0.00   0.00   0.00
  37   1     0.01  -0.00  -0.01     0.01  -0.01  -0.01    -0.00   0.00  -0.00
  38   6     0.12   0.03   0.15    -0.01  -0.01  -0.02     0.00  -0.00  -0.01
  39   8     0.22   0.09   0.34    -0.03  -0.02  -0.05    -0.01   0.00  -0.01
  40   7     0.10  -0.30   0.10    -0.01   0.04  -0.01    -0.02   0.01   0.01
  41   1     0.05  -0.11   0.05    -0.01   0.02  -0.01     0.01   0.00  -0.01
  42   1    -0.00  -0.10  -0.03     0.00   0.01   0.01     0.03   0.00  -0.04
  43   7    -0.02   0.24  -0.06     0.01  -0.05   0.02    -0.02   0.00   0.02
  44   1    -0.05   0.04  -0.06     0.01  -0.01   0.01     0.02  -0.00  -0.02
  45   1    -0.02   0.13   0.03     0.00  -0.02  -0.00     0.00  -0.01  -0.01
  46   6    -0.01   0.01  -0.01     0.00  -0.00   0.00    -0.00  -0.02   0.02
  47   8     0.01   0.03  -0.02    -0.00  -0.00   0.00    -0.01  -0.02   0.03
  48   7    -0.00   0.01  -0.01    -0.00   0.00   0.00     0.02   0.01  -0.02
  49   1    -0.00  -0.02   0.01    -0.00   0.00  -0.00    -0.01  -0.03   0.02
  50   1    -0.02  -0.03   0.02     0.00   0.00  -0.00    -0.04  -0.07   0.06
  51   7    -0.05  -0.01   0.01     0.01  -0.00  -0.00     0.00   0.01  -0.00
  52   1     0.01   0.05  -0.04    -0.00  -0.01   0.01     0.02   0.04  -0.03
  53   1     0.01   0.04  -0.02    -0.00  -0.01   0.00     0.01   0.02  -0.01
                     31                     32                     33
                        a                      a                      a 
 Frequencies --   307.3535               318.3609               321.5113
 Red. masses --     8.0773                 5.1955                 3.6164
 Frc consts  --     0.0000                 0.0000                 0.0000
 IR Inten    --    12.6781                16.5805               466.6160
 Raman Activ --     0.0000                 0.0000                 0.0000
 Depolar     --     0.0000                 0.0000                 0.0000
 Atom AN      X      Y      Z        X      Y      Z        X      Y      Z
   1   8     0.34   0.22  -0.08     0.04  -0.06  -0.19     0.06   0.03  -0.02
   2   6    -0.02   0.17  -0.11     0.09   0.18   0.20    -0.02   0.01  -0.05
   3   1    -0.00  -0.01  -0.04    -0.02   0.17   0.11     0.00  -0.02  -0.02
   4   1    -0.04   0.06  -0.06     0.14  -0.00   0.15    -0.03   0.01  -0.03
   5   6    -0.02   0.03  -0.01    -0.05   0.02  -0.06     0.01   0.00   0.02
   6   1    -0.02  -0.00   0.02     0.01   0.01  -0.04    -0.01  -0.01   0.02
   7   1     0.04  -0.01  -0.03    -0.02  -0.00  -0.04     0.02   0.00   0.00
   8   7    -0.09  -0.11   0.10    -0.09  -0.04  -0.02    -0.01  -0.01   0.03
   9   6    -0.02  -0.25  -0.24    -0.12  -0.09  -0.10    -0.01  -0.03  -0.02
  10   1    -0.13  -0.08   0.08     0.14  -0.12  -0.23    -0.03  -0.01   0.03
  11   1     0.20   0.05  -0.12    -0.33  -0.08  -0.07     0.04   0.01  -0.01
  12   1    -0.06  -0.23  -0.26     0.05   0.11   0.20    -0.02  -0.04  -0.05
  13   6    -0.06   0.13   0.33    -0.03   0.19   0.23    -0.02   0.00   0.03
  14   1    -0.05   0.02   0.13    -0.11   0.27   0.14    -0.01   0.02   0.01
  15   1    -0.03   0.06   0.14    -0.08  -0.04  -0.10    -0.01  -0.01  -0.01
  16   1     0.04   0.10   0.06     0.19  -0.02   0.22     0.01  -0.01   0.02
  17   6    -0.11  -0.15   0.13     0.07  -0.24  -0.16    -0.03   0.01   0.05
  18   1    -0.17  -0.03   0.15     0.00  -0.09  -0.09    -0.02   0.00   0.03
  19   1     0.04  -0.21   0.01     0.02  -0.07  -0.05     0.00  -0.02   0.01
  20   1     0.03   0.10  -0.05     0.07  -0.09  -0.01    -0.00   0.02  -0.00
  21   1     0.09   0.08  -0.03     0.01  -0.07  -0.04     0.01   0.02  -0.00
  22   6     0.01   0.01  -0.01    -0.00  -0.01   0.00     0.00   0.00  -0.00
  23   8     0.02   0.02  -0.01    -0.00  -0.01   0.00     0.01   0.00  -0.01
  24   7     0.00   0.00  -0.02    -0.00  -0.00  -0.00    -0.00  -0.00  -0.01
  25   1     0.00  -0.00  -0.01    -0.00  -0.00  -0.00    -0.00  -0.00  -0.00
  26   1    -0.00  -0.00  -0.00    -0.00  -0.00   0.00    -0.00  -0.00  -0.00
  27   7     0.01  -0.01   0.00     0.00  -0.00   0.01     0.00   0.00   0.00
  28   1    -0.00   0.01   0.00    -0.00   0.02  -0.00    -0.00  -0.01   0.00
  29   1     0.00   0.01   0.00    -0.00   0.01  -0.00     0.00  -0.00   0.00
  30   6     0.01  -0.01  -0.02     0.00   0.01   0.01    -0.06   0.04   0.09
  31   8     0.01  -0.00  -0.01    -0.00   0.01   0.01    -0.02  -0.00  -0.01
  32   7    -0.03   0.02   0.03     0.01   0.01  -0.02     0.16  -0.05  -0.23
  33   1     0.03  -0.01  -0.04    -0.01   0.01   0.01    -0.16   0.07   0.20
  34   1     0.04  -0.02  -0.07    -0.02   0.01   0.03    -0.28   0.14   0.44
  35   7    -0.02   0.02   0.03     0.02  -0.01  -0.01     0.18  -0.13  -0.21
  36   1     0.04  -0.03  -0.06    -0.02   0.01   0.03    -0.31   0.23   0.42
  37   1     0.03  -0.01  -0.04    -0.01   0.00   0.02    -0.18   0.10   0.21
  38   6    -0.03  -0.02  -0.02     0.02   0.02   0.03     0.00  -0.01  -0.01
  39   8    -0.07  -0.03  -0.05     0.04   0.03   0.05    -0.01  -0.01  -0.01
  40   7    -0.01   0.06  -0.02     0.00  -0.05   0.02     0.00   0.00  -0.00
  41   1    -0.01   0.03  -0.01     0.02  -0.02  -0.00    -0.01   0.00   0.00
  42   1    -0.00   0.02   0.02     0.03  -0.02  -0.05    -0.02   0.00   0.02
  43   7     0.00  -0.07   0.03     0.03   0.04  -0.06    -0.02   0.00   0.03
  44   1     0.02  -0.02   0.00    -0.08   0.03   0.07     0.06  -0.02  -0.06
  45   1     0.02  -0.03  -0.02    -0.06   0.03   0.07     0.03  -0.01  -0.04
  46   6    -0.00  -0.00   0.01     0.00   0.00  -0.00    -0.00  -0.00   0.00
  47   8    -0.00  -0.01   0.01     0.00   0.00  -0.00    -0.00  -0.00   0.00
  48   7     0.00   0.00  -0.00    -0.00  -0.00   0.00     0.01   0.01  -0.01
  49   1    -0.00  -0.00   0.00     0.00   0.00  -0.00    -0.00  -0.01   0.00
  50   1    -0.00  -0.00   0.00     0.00   0.01  -0.00    -0.01  -0.02   0.02
  51   7     0.01   0.00  -0.00    -0.01  -0.00   0.00     0.01   0.01  -0.01
  52   1     0.00  -0.01   0.01    -0.00   0.01  -0.01    -0.00  -0.01   0.01
  53   1    -0.00  -0.01   0.00    -0.00   0.01  -0.00    -0.00  -0.01   0.00
                     34                     35                     36
                        a                      a                      a 
 Frequencies --   333.5536               344.4665               360.5082
 Red. masses --     2.5112                 3.6900                 3.8306
 Frc consts  --     0.0000                 0.0000                 0.0000
 IR Inten    --   136.7529                 0.6764               243.1257
 Raman Activ --     0.0000                 0.0000                 0.0000
 Depolar     --     0.0000                 0.0000                 0.0000
 Atom AN      X      Y      Z        X      Y      Z        X      Y      Z
   1   8    -0.05  -0.01  -0.05    -0.21  -0.07   0.08    -0.00  -0.00   0.01
   2   6     0.01   0.04   0.03     0.13   0.01   0.23    -0.02  -0.00   0.00
   3   1    -0.00   0.04   0.01     0.02   0.09   0.09    -0.01  -0.00   0.01
   4   1     0.03  -0.00   0.03     0.13  -0.02   0.11    -0.00  -0.00   0.00
   5   6     0.01  -0.01   0.00     0.04  -0.03  -0.02    -0.02  -0.00  -0.01
   6   1     0.00  -0.01  -0.00     0.05   0.00  -0.04    -0.01   0.00   0.00
   7   1     0.01  -0.00   0.00    -0.02  -0.01   0.00    -0.01  -0.00  -0.00
   8   7    -0.01  -0.01  -0.01    -0.02   0.01  -0.09    -0.00  -0.00  -0.00
   9   6    -0.02  -0.00  -0.01    -0.05   0.11   0.11     0.04  -0.00  -0.02
  10   1     0.02  -0.01  -0.03    -0.19   0.13   0.23     0.01   0.01  -0.00
  11   1    -0.05  -0.01  -0.00     0.27   0.06   0.10     0.02   0.01  -0.01
  12   1    -0.00   0.03   0.03    -0.11  -0.07  -0.19     0.01  -0.02  -0.01
  13   6    -0.01   0.02   0.02    -0.02  -0.03  -0.12     0.01  -0.03   0.00
  14   1    -0.02   0.07   0.02    -0.05   0.18  -0.01    -0.02   0.05   0.01
  15   1    -0.02  -0.02  -0.05    -0.06  -0.11  -0.21    -0.01  -0.04  -0.06
  16   1     0.04  -0.02   0.05     0.10  -0.11   0.12     0.04  -0.05   0.05
  17   6     0.01  -0.05  -0.03     0.07  -0.03  -0.19    -0.02   0.03   0.01
  18   1     0.00  -0.02  -0.02    -0.20   0.03   0.16     0.02   0.01  -0.01
  19   1     0.00  -0.01  -0.01     0.11  -0.31  -0.16    -0.02   0.04   0.01
  20   1     0.01  -0.02   0.00     0.18   0.26  -0.20    -0.02  -0.01   0.01
  21   1    -0.06   0.00   0.02    -0.05  -0.07   0.02     0.01   0.00  -0.00
  22   6     0.00   0.01   0.00     0.01  -0.01  -0.00    -0.01   0.00  -0.00
  23   8     0.01   0.00  -0.00     0.00  -0.02  -0.00     0.00   0.00  -0.01
  24   7     0.01   0.01  -0.00    -0.00  -0.00  -0.01     0.01  -0.06  -0.00
  25   1     0.00   0.00   0.00    -0.00   0.00  -0.01    -0.01   0.06   0.01
  26   1    -0.00  -0.01   0.00    -0.00   0.00  -0.00     0.01   0.07   0.00
  27   7     0.00   0.00  -0.00     0.01  -0.01   0.01    -0.01   0.04   0.00
  28   1     0.00  -0.01   0.00     0.00   0.02  -0.01    -0.01  -0.06   0.02
  29   1     0.00   0.00   0.00     0.00   0.01  -0.00     0.00  -0.04   0.01
  30   6     0.01  -0.00  -0.01     0.01   0.00   0.00     0.00   0.00  -0.00
  31   8     0.00   0.00   0.00     0.01   0.00  -0.00    -0.00   0.00   0.00
  32   7    -0.02   0.01   0.02     0.00   0.01  -0.00    -0.01   0.00   0.01
  33   1     0.02  -0.00  -0.02     0.00   0.00  -0.00     0.01  -0.00  -0.01
  34   1     0.03  -0.01  -0.05    -0.00   0.00  -0.00     0.01  -0.01  -0.02
  35   7    -0.02   0.01   0.02     0.00  -0.01   0.00    -0.01   0.00   0.01
  36   1     0.03  -0.02  -0.05    -0.01   0.00   0.01     0.01  -0.01  -0.02
  37   1     0.02  -0.01  -0.02     0.00  -0.00  -0.00     0.01  -0.00  -0.00
  38   6     0.03  -0.01  -0.01     0.00   0.01   0.01     0.05   0.00  -0.06
  39   8     0.01  -0.01  -0.01     0.01   0.02   0.01     0.05   0.00  -0.05
  40   7     0.04  -0.04  -0.01    -0.00  -0.01   0.00    -0.05   0.02   0.07
  41   1    -0.05  -0.01   0.06     0.00  -0.01   0.00     0.04   0.01  -0.05
  42   1    -0.22   0.00   0.24     0.01  -0.01  -0.01     0.13  -0.00  -0.14
  43   7    -0.17   0.09   0.24     0.00   0.02  -0.02    -0.05   0.02   0.04
  44   1     0.50  -0.11  -0.56    -0.02   0.01   0.02    -0.02   0.00   0.01
  45   1     0.23  -0.05  -0.31    -0.01   0.01   0.01     0.00   0.01  -0.00
  46   6    -0.00   0.00  -0.00     0.00  -0.00   0.00    -0.08  -0.11   0.10
  47   8    -0.00   0.01  -0.01     0.00  -0.00   0.00    -0.06  -0.06   0.05
  48   7     0.01   0.01  -0.01     0.00  -0.00   0.00     0.13   0.18  -0.17
  49   1    -0.00  -0.01   0.00     0.00   0.00  -0.00    -0.07  -0.11   0.09
  50   1    -0.02  -0.03   0.02     0.00   0.00  -0.00    -0.32  -0.52   0.45
  51   7     0.02   0.00  -0.00    -0.00   0.00   0.00     0.11   0.20  -0.13
  52   1    -0.00  -0.03   0.03    -0.00   0.00  -0.00    -0.09  -0.23   0.17
  53   1     0.00  -0.02  -0.00    -0.00   0.00   0.00    -0.04  -0.09   0.04
                     37                     38                     39
                        a                      a                      a 
 Frequencies --   362.6341               375.0128               427.1729
 Red. masses --     4.1883                 5.5410                 8.7614
 Frc consts  --     0.0000                 0.0000                 0.0000
 IR Inten    --    14.1238                 0.8170                 2.9473
 Raman Activ --     0.0000                 0.0000                 0.0000
 Depolar     --     0.0000                 0.0000                 0.0000
 Atom AN      X      Y      Z        X      Y      Z        X      Y      Z
   1   8    -0.00  -0.04  -0.07     0.14   0.02  -0.04    -0.19  -0.07   0.14
   2   6     0.14  -0.00  -0.01     0.07  -0.08  -0.20     0.06  -0.16  -0.04
   3   1     0.06   0.01  -0.03     0.09  -0.11  -0.14     0.03  -0.06  -0.02
   4   1     0.03  -0.01   0.01    -0.10   0.00  -0.12     0.00  -0.03  -0.03
   5   6     0.14  -0.03   0.06     0.24  -0.11   0.24     0.06   0.11  -0.09
   6   1     0.06  -0.05   0.00     0.03  -0.18   0.11     0.03   0.09  -0.04
   7   1     0.05   0.01   0.06     0.19   0.02   0.16    -0.07   0.03  -0.03
   8   7    -0.01   0.02  -0.01    -0.02   0.03   0.05     0.21   0.22  -0.13
   9   6    -0.27   0.05   0.17    -0.27   0.02   0.13    -0.28   0.11  -0.21
  10   1    -0.05  -0.03   0.02    -0.17  -0.00   0.15    -0.13  -0.08   0.01
  11   1    -0.17  -0.05   0.08     0.03   0.00   0.07    -0.10   0.03  -0.07
  12   1    -0.09   0.13   0.10    -0.16   0.01  -0.09    -0.16   0.09  -0.14
  13   6    -0.09   0.20  -0.03    -0.20   0.22  -0.12     0.35   0.08  -0.02
  14   1     0.08  -0.27  -0.08    -0.09   0.30  -0.04     0.05   0.04   0.04
  15   1     0.01   0.24   0.33    -0.20  -0.05  -0.20     0.13   0.01  -0.05
  16   1    -0.22   0.28  -0.30     0.07  -0.02   0.10     0.13  -0.01   0.04
  17   6     0.10  -0.22  -0.11     0.07  -0.07  -0.04    -0.13  -0.24   0.31
  18   1    -0.11  -0.07   0.04     0.15  -0.06  -0.18    -0.16  -0.13   0.01
  19   1     0.09  -0.24  -0.10    -0.06   0.15  -0.00     0.06  -0.09   0.26
  20   1     0.15   0.06  -0.08    -0.00  -0.20   0.12    -0.11  -0.13   0.11
  21   1    -0.02  -0.02  -0.01     0.02   0.04  -0.00    -0.05  -0.01   0.04
  22   6    -0.00   0.01   0.00     0.00  -0.00  -0.01     0.00  -0.00  -0.01
  23   8    -0.00   0.02  -0.00     0.01  -0.00  -0.01    -0.01   0.00  -0.00
  24   7     0.00  -0.01   0.01     0.00   0.00  -0.01     0.01  -0.00  -0.00
  25   1    -0.00   0.01   0.00     0.00  -0.01   0.01     0.00   0.00  -0.00
  26   1     0.00   0.01   0.00     0.01   0.00  -0.00     0.00  -0.00  -0.00
  27   7    -0.01   0.01   0.00     0.00  -0.00   0.01     0.00   0.00   0.01
  28   1    -0.00  -0.02   0.01    -0.00   0.01   0.00    -0.01   0.00   0.01
  29   1     0.00  -0.01   0.00     0.00   0.00   0.01     0.01   0.00   0.01
  30   6     0.00  -0.01  -0.00     0.00   0.00   0.00     0.01  -0.02   0.02
  31   8     0.01  -0.01  -0.02    -0.00   0.00   0.01    -0.00  -0.03   0.01
  32   7    -0.00   0.00  -0.01    -0.01   0.01   0.01    -0.02   0.02  -0.03
  33   1    -0.00   0.01   0.00     0.01  -0.00  -0.01    -0.01   0.04  -0.00
  34   1    -0.01   0.00   0.01     0.01  -0.00  -0.02    -0.02  -0.01  -0.03
  35   7     0.01   0.00  -0.01    -0.01   0.00   0.01     0.03   0.03   0.01
  36   1    -0.01   0.02   0.02     0.02  -0.02  -0.03     0.01   0.02   0.03
  37   1    -0.00   0.01  -0.00     0.00  -0.00  -0.00     0.00   0.02  -0.02
  38   6     0.02   0.01  -0.00    -0.01  -0.01  -0.00     0.01   0.00  -0.01
  39   8     0.02   0.01   0.00    -0.01  -0.01  -0.00     0.01   0.01  -0.01
  40   7    -0.01  -0.02   0.02    -0.00   0.01  -0.00    -0.02  -0.01   0.02
  41   1     0.01  -0.01  -0.00    -0.00   0.01  -0.00     0.00  -0.00  -0.00
  42   1     0.01  -0.01  -0.02     0.01   0.00  -0.01     0.04  -0.01  -0.05
  43   7    -0.01   0.02   0.01     0.01  -0.02  -0.00    -0.01   0.00   0.02
  44   1     0.01   0.00  -0.02    -0.03   0.00   0.03     0.00   0.00   0.00
  45   1    -0.00   0.01   0.00     0.00   0.00  -0.00     0.01  -0.00  -0.01
  46   6    -0.01  -0.02   0.02     0.00   0.00  -0.00     0.00  -0.00  -0.00
  47   8    -0.01  -0.01   0.01     0.00  -0.00   0.00     0.00  -0.00  -0.00
  48   7     0.02   0.03  -0.03    -0.00  -0.00   0.00    -0.00   0.00   0.01
  49   1    -0.01  -0.02   0.01    -0.00   0.00  -0.00    -0.00   0.00   0.00
  50   1    -0.05  -0.08   0.07     0.01   0.01  -0.01     0.01   0.01  -0.01
  51   7     0.01   0.03  -0.02    -0.00  -0.00   0.00    -0.00  -0.00   0.00
  52   1    -0.02  -0.04   0.03     0.00   0.00  -0.00    -0.00   0.01  -0.01
  53   1    -0.01  -0.01   0.01     0.00   0.00  -0.00    -0.00   0.00   0.00
                     40                     41                     42
                        a                      a                      a 
 Frequencies --   437.1149               444.3049               455.4163
 Red. masses --     3.4449                 1.4695                 8.4429
 Frc consts  --     0.0000                 0.0000                 0.0000
 IR Inten    --   324.6205                 4.0968                 2.9191
 Raman Activ --     0.0000                 0.0000                 0.0000
 Depolar     --     0.0000                 0.0000                 0.0000
 Atom AN      X      Y      Z        X      Y      Z        X      Y      Z
   1   8     0.02   0.01  -0.01    -0.01  -0.00   0.01     0.05   0.00  -0.02
   2   6    -0.01   0.02   0.00     0.00  -0.01   0.00    -0.08   0.06   0.06
   3   1    -0.00   0.00  -0.00     0.00  -0.00   0.00    -0.01  -0.00  -0.00
   4   1    -0.01   0.00   0.00     0.00  -0.00  -0.00    -0.06   0.01   0.02
   5   6    -0.00  -0.00   0.01     0.00   0.01  -0.01    -0.02   0.07   0.17
   6   1    -0.00  -0.01   0.01     0.00   0.01  -0.00    -0.02  -0.05   0.06
   7   1     0.01  -0.00   0.00    -0.01   0.00  -0.01     0.05   0.04   0.09
   8   7    -0.02  -0.02   0.02     0.02   0.01  -0.00    -0.07   0.12   0.05
   9   6     0.03  -0.01   0.01    -0.01  -0.00  -0.01     0.04   0.08  -0.11
  10   1     0.01   0.01  -0.00    -0.01  -0.01   0.00     0.03   0.01  -0.05
  11   1     0.01  -0.00   0.00    -0.01   0.00  -0.01     0.01   0.06  -0.07
  12   1     0.01  -0.01   0.00    -0.01   0.00  -0.01     0.03  -0.02  -0.03
  13   6    -0.03  -0.01   0.00     0.02   0.00  -0.00    -0.02  -0.14  -0.04
  14   1    -0.00  -0.01  -0.00     0.01  -0.00  -0.00     0.01  -0.07  -0.03
  15   1    -0.01  -0.00   0.00     0.00   0.00   0.00     0.05  -0.04  -0.03
  16   1    -0.01  -0.00  -0.00     0.00   0.00  -0.00    -0.06  -0.08   0.00
  17   6     0.01   0.01  -0.02    -0.00  -0.01   0.02     0.06  -0.08  -0.08
  18   1     0.01   0.01  -0.00    -0.01  -0.00   0.01    -0.00  -0.04  -0.06
  19   1    -0.00   0.00  -0.02     0.01  -0.01   0.01     0.02  -0.05  -0.05
  20   1     0.01   0.01  -0.01    -0.00   0.00   0.00     0.08  -0.03   0.01
  21   1    -0.04   0.02   0.02    -0.00  -0.00   0.00     0.01   0.00  -0.00
  22   6     0.00   0.02   0.00    -0.00  -0.00  -0.00    -0.00   0.00  -0.01
  23   8     0.01   0.00   0.00    -0.00  -0.00  -0.00    -0.00   0.00  -0.01
  24   7    -0.01  -0.02  -0.00     0.00  -0.00   0.00     0.01   0.00   0.00
  25   1    -0.01   0.02  -0.00     0.00   0.00   0.00     0.00  -0.00   0.01
  26   1    -0.01   0.04   0.00     0.00  -0.00  -0.00     0.01   0.00  -0.00
  27   7     0.00   0.01  -0.02    -0.00   0.00   0.00    -0.01   0.00   0.01
  28   1     0.01  -0.04   0.00    -0.00   0.00   0.00    -0.01  -0.01   0.01
  29   1    -0.01  -0.02  -0.01     0.00  -0.00   0.00     0.01   0.01   0.01
  30   6    -0.00  -0.00  -0.00    -0.00   0.04  -0.02     0.03  -0.25   0.13
  31   8     0.00  -0.00   0.00    -0.01   0.04  -0.03     0.03  -0.28   0.14
  32   7    -0.00  -0.00   0.00    -0.02   0.04   0.11    -0.30   0.09  -0.20
  33   1     0.00  -0.00  -0.00     0.26  -0.23  -0.35     0.05   0.21  -0.17
  34   1    -0.00  -0.00   0.00    -0.16   0.14   0.41    -0.29  -0.02  -0.09
  35   7     0.00   0.00   0.00     0.03  -0.06  -0.10     0.26   0.27   0.02
  36   1     0.01  -0.00  -0.00     0.17  -0.22  -0.39     0.28   0.11   0.05
  37   1    -0.00   0.00   0.00    -0.26   0.09   0.44    -0.10   0.25  -0.06
  38   6     0.11   0.01  -0.13     0.00   0.00   0.00    -0.00  -0.00   0.00
  39   8     0.04   0.01  -0.07     0.00   0.00   0.00    -0.00  -0.00   0.00
  40   7    -0.20  -0.03   0.20    -0.00  -0.00   0.00     0.01   0.01  -0.00
  41   1     0.03  -0.02  -0.03     0.00  -0.00   0.00    -0.00   0.00  -0.00
  42   1     0.54  -0.05  -0.62    -0.00  -0.00   0.00    -0.00   0.00   0.01
  43   7    -0.13   0.02   0.20     0.00   0.00   0.00     0.00  -0.00  -0.01
  44   1     0.19  -0.04  -0.15     0.00   0.00  -0.00    -0.02   0.00   0.01
  45   1     0.04  -0.04  -0.06    -0.00  -0.00   0.00     0.01   0.00  -0.01
  46   6     0.02  -0.01  -0.01     0.00  -0.00   0.00    -0.00   0.00  -0.00
  47   8     0.01  -0.02  -0.01     0.00  -0.00  -0.00     0.00   0.00   0.00
  48   7    -0.02  -0.00   0.07     0.00   0.00   0.00    -0.00  -0.00  -0.00
  49   1    -0.02  -0.01   0.03    -0.00   0.00   0.00    -0.00  -0.00  -0.00
  50   1     0.10   0.16  -0.11    -0.00  -0.00   0.00    -0.00  -0.00   0.00
  51   7    -0.05  -0.03   0.02    -0.00   0.00  -0.00     0.00  -0.00  -0.00
  52   1     0.00   0.06  -0.07    -0.00  -0.00  -0.00     0.00  -0.00   0.00
  53   1    -0.01   0.03   0.01    -0.00   0.00   0.00     0.00  -0.00  -0.00
                     43                     44                     45
                        a                      a                      a 
 Frequencies --   459.6645               464.4958               470.0896
 Red. masses --     8.2507                 8.1537                 7.2079
 Frc consts  --     0.0000                 0.0000                 0.0000
 IR Inten    --     2.1812                21.6062                23.7411
 Raman Activ --     0.0000                 0.0000                 0.0000
 Depolar     --     0.0000                 0.0000                 0.0000
 Atom AN      X      Y      Z        X      Y      Z        X      Y      Z
   1   8     0.03  -0.01  -0.02     0.01  -0.01  -0.01     0.03   0.00   0.00
   2   6    -0.16   0.09   0.12    -0.06   0.03   0.05    -0.04   0.02   0.03
   3   1    -0.03   0.00   0.01    -0.00  -0.00  -0.00     0.01  -0.02  -0.02
   4   1    -0.09   0.00   0.05    -0.05  -0.00   0.02    -0.06   0.00   0.00
   5   6    -0.09   0.21   0.20    -0.02   0.08   0.12     0.02   0.04   0.15
   6   1    -0.04   0.06   0.07    -0.01  -0.00   0.04    -0.00  -0.07   0.05
   7   1    -0.02   0.05   0.04     0.01   0.03   0.04     0.06   0.04   0.09
   8   7     0.05   0.15   0.21    -0.02   0.09   0.06    -0.09   0.13  -0.00
   9   6    -0.05  -0.06  -0.21    -0.01   0.02  -0.11     0.02   0.12  -0.12
  10   1    -0.00  -0.12  -0.06     0.00  -0.03  -0.04     0.02   0.03  -0.04
  11   1    -0.05   0.06  -0.15    -0.02   0.04  -0.07     0.01   0.06  -0.06
  12   1    -0.02  -0.06  -0.09     0.00  -0.02  -0.04     0.03  -0.01  -0.03
  13   6    -0.06  -0.16  -0.21    -0.01  -0.10  -0.06     0.01  -0.14   0.02
  14   1     0.06  -0.05  -0.15     0.02  -0.04  -0.04     0.00  -0.08   0.01
  15   1    -0.01  -0.07  -0.10     0.02  -0.03  -0.04     0.08  -0.03  -0.01
  16   1    -0.14  -0.11  -0.05    -0.05  -0.06  -0.01    -0.04  -0.07   0.02
  17   6     0.28  -0.13   0.03     0.08  -0.09  -0.01    -0.01  -0.12  -0.07
  18   1     0.03  -0.07  -0.04    -0.00  -0.04  -0.04    -0.04  -0.06  -0.07
  19   1     0.08  -0.09  -0.05     0.03  -0.05  -0.02     0.01  -0.06  -0.03
  20   1     0.18  -0.03   0.05     0.07  -0.03   0.02     0.05  -0.05   0.02
  21   1     0.02  -0.01  -0.01    -0.01   0.00   0.00    -0.01   0.01   0.01
  22   6    -0.03  -0.03  -0.12     0.03   0.03   0.09     0.02   0.05   0.19
  23   8    -0.12  -0.02  -0.09     0.09   0.02   0.07     0.21   0.05   0.12
  24   7     0.19   0.01   0.01    -0.13  -0.01   0.00    -0.27  -0.03   0.03
  25   1     0.05  -0.01   0.10    -0.03   0.01  -0.08    -0.07   0.02  -0.12
  26   1     0.13   0.01  -0.03    -0.10  -0.01   0.03    -0.18  -0.07   0.05
  27   7    -0.05   0.03   0.14     0.05  -0.02  -0.10     0.06  -0.03  -0.19
  28   1    -0.14  -0.07   0.12     0.10   0.06  -0.09     0.22   0.18  -0.20
  29   1     0.10   0.13   0.11    -0.07  -0.12  -0.07    -0.16  -0.31  -0.14
  30   6    -0.01   0.09  -0.04    -0.00   0.05  -0.02    -0.01   0.05  -0.02
  31   8    -0.01   0.10  -0.05    -0.01   0.05  -0.03    -0.01   0.06  -0.03
  32   7     0.11  -0.03   0.07     0.05  -0.01   0.04     0.06  -0.01   0.04
  33   1    -0.02  -0.07   0.07    -0.01  -0.04   0.03    -0.01  -0.04   0.03
  34   1     0.11   0.01   0.02     0.05   0.00   0.01     0.06   0.01   0.02
  35   7    -0.09  -0.09  -0.01    -0.05  -0.05  -0.01    -0.05  -0.05  -0.01
  36   1    -0.10  -0.04  -0.02    -0.05  -0.02  -0.01    -0.06  -0.02  -0.01
  37   1     0.04  -0.09   0.02     0.02  -0.04   0.01     0.02  -0.05   0.02
  38   6    -0.01   0.01  -0.01     0.04  -0.09   0.03    -0.01   0.07  -0.01
  39   8    -0.00   0.02   0.01    -0.01  -0.11  -0.00     0.00   0.08  -0.02
  40   7    -0.01  -0.01  -0.02     0.06   0.09   0.07    -0.02  -0.08  -0.05
  41   1     0.00  -0.00  -0.01    -0.02   0.06   0.01     0.01  -0.06   0.01
  42   1    -0.02  -0.00   0.01     0.11   0.04  -0.01    -0.09  -0.04   0.00
  43   7     0.01  -0.02   0.01    -0.10   0.06  -0.07     0.08  -0.02   0.06
  44   1     0.01   0.00   0.02    -0.11  -0.01  -0.06     0.04   0.01   0.07
  45   1     0.00  -0.02  -0.00     0.02   0.11  -0.05     0.02  -0.06   0.00
  46   6     0.04  -0.04  -0.02    -0.18   0.15   0.07     0.10  -0.08  -0.03
  47   8     0.03  -0.04  -0.04    -0.09   0.19   0.19     0.04  -0.11  -0.11
  48   7     0.01   0.05   0.07    -0.07  -0.19  -0.28     0.05   0.10   0.14
  49   1    -0.03   0.03   0.02     0.11  -0.14  -0.07    -0.05   0.08   0.03
  50   1     0.03   0.02   0.05    -0.10  -0.05  -0.22     0.04   0.01   0.13
  51   7    -0.06   0.02  -0.03     0.27  -0.08   0.11    -0.14   0.05  -0.06
  52   1    -0.05   0.00  -0.05     0.20  -0.02   0.23    -0.11  -0.00  -0.11
  53   1    -0.04   0.02   0.05     0.19  -0.09  -0.21    -0.09   0.06   0.10
                     46                     47                     48
                        a                      a                      a 
 Frequencies --   477.1887               483.0851               485.5606
 Red. masses --     5.9410                 3.4514                 5.1756
 Frc consts  --     0.0000                 0.0000                 0.0000
 IR Inten    --    14.1608                 8.9315                16.6994
 Raman Activ --     0.0000                 0.0000                 0.0000
 Depolar     --     0.0000                 0.0000                 0.0000
 Atom AN      X      Y      Z        X      Y      Z        X      Y      Z
   1   8    -0.03   0.00   0.00    -0.02  -0.01  -0.00    -0.02  -0.01  -0.00
   2   6    -0.04   0.00   0.02    -0.02   0.00   0.01    -0.02   0.00   0.01
   3   1    -0.04   0.01   0.03    -0.01   0.01   0.01    -0.01   0.01   0.01
   4   1     0.02   0.00   0.01     0.00  -0.00   0.01     0.00  -0.00   0.01
   5   6    -0.09   0.08  -0.14    -0.04   0.04  -0.04    -0.04   0.05  -0.05
   6   1    -0.01   0.19  -0.06    -0.00   0.08  -0.02    -0.00   0.08  -0.02
   7   1    -0.14  -0.03  -0.15    -0.05  -0.01  -0.06    -0.06  -0.01  -0.06
   8   7     0.20  -0.13   0.16     0.07  -0.04   0.07     0.08  -0.04   0.07
   9   6    -0.11  -0.28   0.04    -0.05  -0.10   0.00    -0.05  -0.11  -0.00
  10   1    -0.04  -0.16   0.04    -0.02  -0.06   0.01    -0.02  -0.07   0.01
  11   1    -0.07  -0.06  -0.02    -0.03  -0.02  -0.01    -0.03  -0.02  -0.02
  12   1    -0.07  -0.03  -0.03    -0.03  -0.01  -0.02    -0.03  -0.01  -0.02
  13   6    -0.09   0.14  -0.20    -0.04   0.05  -0.09    -0.04   0.05  -0.09
  14   1     0.04   0.12  -0.13     0.02   0.04  -0.06     0.02   0.05  -0.06
  15   1    -0.16   0.02  -0.05    -0.06   0.00  -0.03    -0.07   0.00  -0.03
  16   1    -0.04   0.06  -0.08    -0.02   0.02  -0.03    -0.02   0.02  -0.03
  17   6     0.22   0.13   0.16     0.09   0.04   0.06     0.10   0.04   0.06
  18   1     0.09   0.06   0.09     0.03   0.02   0.03     0.04   0.02   0.03
  19   1     0.04   0.05   0.02     0.02   0.01   0.00     0.02   0.01   0.01
  20   1     0.04   0.07   0.01     0.02   0.02   0.01     0.02   0.02   0.01
  21   1     0.01  -0.01  -0.01     0.00  -0.01  -0.00     0.00  -0.00  -0.00
  22   6    -0.01   0.01   0.01     0.03   0.01   0.10     0.03   0.00   0.16
  23   8     0.03   0.04  -0.01     0.08   0.00   0.09     0.15  -0.03   0.14
  24   7    -0.00  -0.06   0.04    -0.15   0.04  -0.01    -0.23   0.10  -0.02
  25   1    -0.02   0.10  -0.06    -0.02  -0.11  -0.03    -0.04  -0.14  -0.03
  26   1    -0.05  -0.15   0.02    -0.05   0.10   0.01    -0.09   0.14   0.01
  27   7    -0.01   0.05   0.01     0.06  -0.05  -0.11     0.09  -0.09  -0.19
  28   1     0.06   0.28  -0.11     0.08  -0.14  -0.02     0.11  -0.34   0.00
  29   1    -0.05  -0.39   0.02    -0.05   0.13  -0.10    -0.07   0.39  -0.18
  30   6     0.01  -0.05   0.03     0.00  -0.01   0.01     0.00  -0.01   0.01
  31   8     0.00  -0.07   0.03    -0.00  -0.02   0.01    -0.00  -0.02   0.01
  32   7    -0.06   0.02  -0.05    -0.02   0.01  -0.01    -0.02   0.01  -0.01
  33   1     0.01   0.05  -0.03     0.00   0.01  -0.01     0.00   0.02  -0.01
  34   1    -0.07  -0.01  -0.02    -0.02  -0.00  -0.01    -0.02  -0.00  -0.01
  35   7     0.06   0.05   0.02     0.02   0.01   0.01     0.02   0.01   0.01
  36   1     0.06   0.02   0.02     0.02   0.01   0.00     0.02   0.00   0.00
[...]
  44   1    -0.00  -0.00   0.00    -0.00   0.01  -0.00    -0.00   0.01  -0.00
  45   1    -0.01   0.00  -0.01     0.02  -0.01   0.01     0.02  -0.01   0.01
  46   6     0.01  -0.00   0.01    -0.00   0.00  -0.00     0.01  -0.01  -0.00
  47   8    -0.00   0.00   0.00     0.00  -0.00  -0.00    -0.00   0.00   0.00
  48   7     0.08   0.10   0.19    -0.01  -0.01  -0.02    -0.01  -0.01  -0.02
  49   1    -0.23  -0.48  -0.77     0.03   0.05   0.08     0.02   0.05   0.07
  50   1    -0.09   0.11   0.06     0.02  -0.02  -0.01     0.01  -0.02  -0.01
  51   7    -0.00  -0.00  -0.00     0.00  -0.00   0.00    -0.00   0.00  -0.00
  52   1     0.01  -0.01  -0.00     0.00  -0.00  -0.00    -0.01   0.01   0.00
  53   1    -0.01   0.00  -0.01    -0.00   0.00  -0.00     0.02  -0.00   0.01
                    142                    143                    144
                        a                      a                      a 
 Frequencies --  3486.7574              3498.5327              3498.6644
 Red. masses --     1.4614                 1.4444                 1.4477
 Frc consts  --     0.0000                 0.0000                 0.0000
 IR Inten    --    29.6095                18.5590                23.0115
 Raman Activ --     0.0000                 0.0000                 0.0000
 Depolar     --     0.0000                 0.0000                 0.0000
 Atom AN      X      Y      Z        X      Y      Z        X      Y      Z
   1   8    -0.00  -0.00  -0.00     0.00   0.00   0.00     0.00   0.00   0.00
   2   6     0.00   0.00  -0.00    -0.00   0.00   0.00    -0.00  -0.00  -0.00
   3   1    -0.00   0.00  -0.00     0.00  -0.00   0.00     0.00   0.00   0.00
   4   1     0.00  -0.00  -0.00    -0.00  -0.00  -0.00    -0.00   0.00  -0.00
   5   6    -0.00  -0.00   0.00     0.00  -0.00   0.00     0.00  -0.00   0.00
   6   1     0.00  -0.00   0.00    -0.00   0.00  -0.00    -0.00   0.00  -0.00
   7   1    -0.00   0.00  -0.00    -0.00   0.00  -0.00     0.00   0.00  -0.00
   8   7    -0.00   0.00   0.00    -0.00  -0.00  -0.00    -0.00  -0.00  -0.00
   9   6    -0.00  -0.00   0.00     0.00   0.00   0.00     0.00   0.00   0.00
  10   1    -0.00  -0.00   0.00    -0.00  -0.00  -0.00    -0.00  -0.00  -0.00
  11   1    -0.00   0.00   0.00     0.00   0.00   0.00     0.00   0.00   0.00
  12   1     0.00   0.00  -0.00     0.00   0.00   0.00     0.00   0.00  -0.00
  13   6    -0.00  -0.00  -0.00     0.00  -0.00   0.00     0.00  -0.00   0.00
  14   1     0.00  -0.00   0.00    -0.00  -0.00  -0.00    -0.00  -0.00  -0.00
  15   1     0.00   0.00  -0.00     0.00  -0.00   0.00    -0.00   0.00  -0.00
  16   1    -0.00   0.00   0.00     0.00   0.00   0.00     0.00   0.00   0.00
  17   6     0.00  -0.00   0.00     0.00  -0.00  -0.00    -0.00  -0.00   0.00
  18   1    -0.00   0.00  -0.00     0.00   0.00  -0.00    -0.00   0.00  -0.00
  19   1     0.00   0.00  -0.00    -0.00  -0.00   0.00     0.00  -0.00   0.00
  20   1    -0.00   0.00   0.00     0.00   0.00   0.00     0.00   0.00   0.00
  21   1     0.01   0.00   0.02    -0.00  -0.00  -0.00    -0.00  -0.00  -0.00
  22   6     0.00  -0.00   0.00    -0.00  -0.00  -0.00     0.00  -0.00  -0.00
  23   8    -0.00   0.00  -0.00     0.00   0.00   0.00     0.00   0.00   0.00
  24   7     0.01   0.00   0.00    -0.00  -0.00  -0.01     0.00  -0.00   0.00
  25   1    -0.03  -0.01  -0.00    -0.00   0.00  -0.00    -0.01  -0.00  -0.00
  26   1    -0.00   0.00  -0.01     0.01  -0.00   0.03    -0.01   0.00  -0.02
  27   7    -0.00  -0.00  -0.00    -0.18  -0.02  -0.03    -0.02  -0.00  -0.00
  28   1     0.00   0.00   0.00     0.29   0.18   0.64     0.03   0.02   0.06
  29   1     0.00  -0.00  -0.00     0.38  -0.08  -0.54     0.03  -0.01  -0.05
  30   6     0.00   0.00  -0.00    -0.00   0.00  -0.00    -0.00   0.00  -0.00
  31   8    -0.00  -0.00   0.00    -0.00  -0.00   0.00     0.00  -0.00   0.00
  32   7     0.00   0.00   0.00    -0.00  -0.00  -0.00    -0.00  -0.00  -0.00
  33   1    -0.00   0.00  -0.00     0.00  -0.00   0.00     0.00  -0.00   0.00
  34   1     0.00  -0.00   0.00    -0.00   0.00  -0.00    -0.00   0.00  -0.00
  35   7     0.00   0.00   0.00    -0.00   0.00  -0.00    -0.00   0.00  -0.00
  36   1     0.00   0.00  -0.00     0.00  -0.00   0.00     0.00  -0.00   0.00
  37   1    -0.00  -0.00  -0.00     0.00   0.00   0.00     0.00   0.00   0.00
  38   6    -0.00  -0.00  -0.00    -0.00  -0.00   0.00    -0.00  -0.00  -0.00
  39   8    -0.00   0.00  -0.00     0.00   0.00  -0.00     0.00   0.00   0.00
  40   7     0.00   0.01   0.00    -0.00  -0.00  -0.00     0.00  -0.00   0.00
  41   1    -0.01  -0.01  -0.01     0.00   0.00   0.00    -0.00  -0.01  -0.00
  42   1     0.01  -0.03   0.01     0.00  -0.00   0.00    -0.00   0.01  -0.00
  43   7    -0.14  -0.11  -0.07     0.00   0.00   0.00    -0.00  -0.00  -0.00
  44   1    -0.09   0.57  -0.20     0.00  -0.00   0.00    -0.00   0.00  -0.00
  45   1     0.59  -0.17   0.46    -0.00   0.00  -0.00     0.00  -0.00   0.00
  46   6    -0.00  -0.00  -0.00     0.00   0.00   0.00     0.00  -0.00  -0.00
  47   8     0.00   0.00   0.00     0.00  -0.00  -0.00    -0.00   0.00   0.00
  48   7     0.00   0.00   0.00    -0.00  -0.00  -0.00    -0.00   0.01   0.01
  49   1    -0.00  -0.01  -0.01     0.00   0.00   0.00    -0.01  -0.01  -0.02
  50   1    -0.01   0.01   0.00    -0.00   0.00   0.00     0.02  -0.02  -0.01
  51   7     0.00   0.00   0.00     0.00   0.01   0.01    -0.03  -0.08  -0.16
  52   1     0.00  -0.00  -0.00     0.04  -0.04  -0.03    -0.48   0.43   0.29
  53   1    -0.00   0.00  -0.00    -0.05   0.01  -0.03     0.59  -0.13   0.31
                    145                    146                    147
                        a                      a                      a 
 Frequencies --  3500.7489              3505.0709              3535.1620
 Red. masses --     1.4383                 1.4625                 1.8937
 Frc consts  --     0.0000                 0.0000                 0.0000
 IR Inten    --    38.9139                 8.4000                14.2417
 Raman Activ --     0.0000                 0.0000                 0.0000
 Depolar     --     0.0000                 0.0000                 0.0000
 Atom AN      X      Y      Z        X      Y      Z        X      Y      Z
   1   8     0.00   0.00   0.00     0.00  -0.00   0.00    -0.00   0.00   0.00
   2   6    -0.00  -0.00  -0.00     0.00   0.00  -0.00     0.00   0.00  -0.00
   3   1     0.00   0.00   0.00     0.00   0.00   0.00    -0.00   0.00  -0.00
   4   1    -0.00   0.00   0.00    -0.00   0.00  -0.00    -0.00  -0.00  -0.00
   5   6     0.00  -0.00   0.00     0.00  -0.00   0.00    -0.00  -0.00   0.00
   6   1     0.00  -0.00   0.00    -0.00  -0.00   0.00     0.00  -0.00   0.00
   7   1    -0.00   0.00  -0.00    -0.00   0.00  -0.00    -0.00   0.00  -0.00
   8   7     0.00  -0.00   0.00    -0.00   0.00  -0.00     0.00   0.00   0.00
   9   6     0.00  -0.00   0.00     0.00   0.00   0.00    -0.00   0.00   0.00
  10   1    -0.00  -0.00  -0.00    -0.00  -0.00  -0.00    -0.00  -0.00   0.00
  11   1    -0.00   0.00   0.00     0.00  -0.00   0.00    -0.00   0.00  -0.00
  12   1     0.00   0.00  -0.00     0.00   0.00  -0.00     0.00  -0.00  -0.00
  13   6     0.00  -0.00   0.00     0.00  -0.00   0.00    -0.00  -0.00  -0.00
  14   1     0.00  -0.00   0.00    -0.00  -0.00   0.00     0.00  -0.00   0.00
  15   1    -0.00   0.00  -0.00    -0.00   0.00  -0.00     0.00   0.00  -0.00
  16   1    -0.00   0.00   0.00     0.00  -0.00  -0.00    -0.00   0.00   0.00
  17   6    -0.00   0.00  -0.00     0.00  -0.00   0.00     0.00  -0.00  -0.00
  18   1    -0.00  -0.00  -0.00     0.00   0.00  -0.00    -0.00   0.00  -0.00
  19   1     0.00   0.00  -0.00    -0.00  -0.00   0.00    -0.00  -0.00  -0.00
  20   1    -0.00   0.00   0.00     0.00  -0.00  -0.00    -0.00   0.00   0.00
  21   1    -0.00  -0.00  -0.00    -0.00  -0.00  -0.00     0.00  -0.00   0.00
  22   6    -0.00  -0.00   0.00    -0.00  -0.00  -0.00    -0.00  -0.00  -0.00
  23   8     0.00   0.00   0.00     0.00   0.00   0.00     0.00   0.00   0.00
  24   7     0.00   0.00  -0.00     0.00   0.00   0.00    -0.00   0.00  -0.00
  25   1    -0.00  -0.00  -0.00    -0.00  -0.00  -0.00    -0.00  -0.00  -0.00
  26   1     0.00  -0.00   0.00     0.00  -0.00   0.00     0.00  -0.00   0.01
  27   7    -0.00  -0.00  -0.00    -0.00  -0.00  -0.00    -0.00   0.00   0.00
  28   1     0.00   0.00   0.00     0.00   0.00   0.00    -0.00  -0.00  -0.00
  29   1     0.00  -0.00  -0.00     0.00  -0.00  -0.00     0.00  -0.00  -0.00
  30   6     0.00   0.00   0.00    -0.00   0.00  -0.00     0.00   0.00   0.00
  31   8     0.00   0.00   0.00     0.00  -0.00   0.00    -0.00  -0.00  -0.00
  32   7     0.07   0.11   0.02     0.08   0.10   0.03    -0.00  -0.00   0.00
  33   1    -0.36   0.08  -0.30    -0.35   0.08  -0.29     0.00  -0.00   0.00
  34   1     0.08  -0.49   0.21     0.08  -0.45   0.19    -0.00   0.00  -0.00
  35   7     0.08  -0.03   0.09    -0.09   0.03  -0.09     0.00   0.00   0.00
  36   1    -0.02   0.44  -0.25     0.02  -0.46   0.26     0.00   0.00   0.00
  37   1    -0.29  -0.32  -0.09     0.32   0.35   0.09    -0.00  -0.00  -0.00
  38   6    -0.00  -0.00  -0.00    -0.00   0.00  -0.00    -0.00  -0.01  -0.00
  39   8     0.00   0.00   0.00     0.00  -0.00   0.00     0.00   0.00   0.00
  40   7     0.00  -0.00   0.00     0.00  -0.00   0.00     0.05  -0.25   0.06
  41   1    -0.00  -0.00  -0.00    -0.00  -0.00  -0.00     0.04   0.03   0.03
  42   1    -0.00   0.00  -0.00    -0.00   0.00  -0.00    -0.20   0.90  -0.23
  43   7     0.00   0.00   0.00     0.00   0.00   0.00    -0.02   0.03  -0.02
  44   1     0.00  -0.00   0.00     0.00  -0.00   0.00     0.01  -0.08   0.03
  45   1    -0.00   0.00  -0.00    -0.00   0.00  -0.00     0.08  -0.02   0.06
  46   6    -0.00  -0.00   0.00    -0.00  -0.00  -0.00     0.00  -0.00  -0.00
  47   8     0.00   0.00  -0.00     0.00   0.00   0.00    -0.00   0.00   0.00
  48   7     0.00   0.00   0.00     0.00   0.00   0.00     0.01  -0.01  -0.00
  49   1    -0.00  -0.00  -0.00    -0.00  -0.00  -0.00     0.00   0.00   0.00
  50   1    -0.00   0.00   0.00    -0.00   0.00   0.00    -0.02   0.02   0.01
  51   7    -0.00  -0.00  -0.00    -0.00  -0.00  -0.00    -0.00   0.00   0.00
  52   1    -0.00   0.00   0.00    -0.00   0.00   0.00     0.01  -0.01  -0.00
  53   1     0.00  -0.00   0.00     0.00  -0.00   0.00     0.00  -0.00   0.00
                    148                    149                    150
                        a                      a                      a 
 Frequencies --  3541.7635              3554.0270              3564.9225
 Red. masses --     1.9426                 2.1682                 2.1831
 Frc consts  --     0.0000                 0.0000                 0.0000
 IR Inten    --    19.2556                25.1834                17.2365
 Raman Activ --     0.0000                 0.0000                 0.0000
 Depolar     --     0.0000                 0.0000                 0.0000
 Atom AN      X      Y      Z        X      Y      Z        X      Y      Z
   1   8     0.00   0.00   0.00    -0.00  -0.00  -0.00    -0.00  -0.00  -0.00
   2   6    -0.00   0.00  -0.00     0.00   0.00  -0.00     0.00  -0.00   0.00
   3   1     0.00  -0.00   0.00    -0.00   0.00  -0.00    -0.00  -0.00  -0.00
   4   1    -0.00  -0.00  -0.00     0.00  -0.00  -0.00     0.00   0.00   0.00
   5   6    -0.00  -0.00  -0.00     0.00  -0.00   0.00     0.00  -0.00   0.00
   6   1     0.00   0.00   0.00    -0.00  -0.00   0.00    -0.00   0.00  -0.00
   7   1    -0.00   0.00  -0.00    -0.00   0.00  -0.00     0.00   0.00  -0.00
   8   7    -0.00  -0.00  -0.00    -0.00  -0.00   0.00     0.00  -0.00   0.00
   9   6    -0.00  -0.00  -0.00    -0.00  -0.00   0.00     0.00   0.00   0.00
  10   1     0.00   0.00   0.00    -0.00  -0.00   0.00    -0.00  -0.00  -0.00
  11   1    -0.00   0.00   0.00     0.00  -0.00  -0.00     0.00  -0.00  -0.00
  12   1     0.00  -0.00  -0.00     0.00   0.00  -0.00     0.00   0.00   0.00
  13   6     0.00  -0.00  -0.00    -0.00  -0.00  -0.00     0.00   0.00   0.00
  14   1     0.00   0.00   0.00     0.00  -0.00   0.00    -0.00   0.00  -0.00
  15   1    -0.00   0.00  -0.00     0.00   0.00  -0.00     0.00  -0.00   0.00
  16   1    -0.00   0.00   0.00     0.00   0.00   0.00     0.00   0.00   0.00
  17   6     0.00  -0.00   0.00     0.00  -0.00   0.00    -0.00  -0.00   0.00
  18   1    -0.00   0.00  -0.00    -0.00   0.00  -0.00     0.00  -0.00   0.00
  19   1    -0.00  -0.00  -0.00     0.00   0.00  -0.00     0.00   0.00  -0.00
  20   1     0.00   0.00  -0.00    -0.00   0.00  -0.00     0.00  -0.00  -0.00
  21   1    -0.00  -0.00  -0.00     0.01   0.00   0.01     0.00   0.00   0.00
  22   6     0.00   0.00   0.00    -0.00   0.00   0.00     0.00   0.00   0.00
  23   8    -0.00  -0.00  -0.00    -0.00   0.00  -0.00     0.00   0.00   0.00
  24   7    -0.00  -0.00  -0.00     0.00   0.00   0.00     0.00  -0.00   0.00
  25   1     0.01   0.00   0.00    -0.01  -0.00  -0.00    -0.00  -0.00   0.00
  26   1    -0.00   0.00  -0.00    -0.00   0.00  -0.00    -0.00   0.00  -0.01
  27   7     0.00  -0.00  -0.00     0.00  -0.00  -0.00    -0.00   0.00   0.01
  28   1     0.00   0.00   0.00     0.00   0.00   0.00    -0.01  -0.00  -0.01
  29   1    -0.00   0.00   0.00    -0.00   0.00   0.00     0.01  -0.00  -0.01
  30   6    -0.00   0.00  -0.00     0.00   0.00  -0.00    -0.00  -0.00  -0.00
  31   8     0.00  -0.00   0.00    -0.00  -0.00   0.00     0.00   0.00   0.00
  32   7     0.00  -0.00   0.00     0.00  -0.00   0.00    -0.00   0.00  -0.00
  33   1    -0.00   0.00  -0.00    -0.00   0.00  -0.00     0.00  -0.00   0.00
  34   1    -0.00   0.00  -0.00    -0.00   0.00  -0.00     0.00  -0.00   0.00
  35   7    -0.00  -0.00   0.00     0.00   0.00  -0.00    -0.00  -0.00   0.00
  36   1    -0.00   0.00  -0.00     0.00  -0.00   0.00    -0.00   0.00  -0.00
  37   1     0.00   0.00   0.00    -0.00  -0.00  -0.00     0.00   0.00   0.00
  38   6     0.00  -0.00   0.00    -0.01   0.01  -0.01    -0.00   0.00  -0.00
  39   8    -0.00   0.00   0.00     0.00  -0.00   0.00     0.00  -0.00  -0.00
  40   7    -0.00   0.01  -0.00    -0.01   0.03  -0.01     0.00   0.00   0.00
  41   1    -0.00   0.00   0.00    -0.01  -0.01  -0.01    -0.00  -0.01  -0.00
  42   1     0.01  -0.04   0.01     0.03  -0.13   0.03     0.00  -0.01   0.00
  43   7    -0.00   0.00  -0.00    -0.14   0.21  -0.15    -0.00   0.00  -0.00
  44   1     0.00  -0.02   0.01     0.08  -0.71   0.23     0.00  -0.01   0.00
  45   1     0.00  -0.00   0.00     0.45  -0.10   0.34     0.00  -0.00   0.00
  46   6     0.00  -0.01  -0.01    -0.00   0.00   0.00    -0.01   0.00  -0.00
  47   8    -0.00   0.00   0.00     0.00  -0.00  -0.00     0.00  -0.00   0.00
  48   7     0.15  -0.19  -0.11    -0.00   0.00   0.00    -0.01   0.02   0.01
  49   1     0.05   0.06   0.11    -0.00  -0.01  -0.01    -0.01  -0.01  -0.02
  50   1    -0.60   0.66   0.33     0.01  -0.01  -0.01     0.07  -0.07  -0.04
  51   7    -0.03   0.01  -0.01     0.00  -0.00   0.00    -0.27   0.14  -0.01
  52   1     0.03  -0.03  -0.02    -0.01   0.00   0.00     0.43  -0.40  -0.29
  53   1     0.09  -0.02   0.05    -0.01   0.00  -0.00     0.58  -0.11   0.34
                    151                    152                    153
                        a                      a                      a 
 Frequencies --  3565.3705              3566.5289              3570.8883
 Red. masses --     2.1908                 2.1867                 2.1776
 Frc consts  --     0.0000                 0.0000                 0.0000
 IR Inten    --    13.7058                10.6150                11.7135
 Raman Activ --     0.0000                 0.0000                 0.0000
 Depolar     --     0.0000                 0.0000                 0.0000
 Atom AN      X      Y      Z        X      Y      Z        X      Y      Z
   1   8     0.00   0.00   0.00    -0.00  -0.00  -0.00    -0.00   0.00  -0.00
   2   6    -0.00  -0.00   0.00    -0.00   0.00   0.00     0.00  -0.00   0.00
   3   1     0.00  -0.00   0.00     0.00   0.00  -0.00    -0.00  -0.00  -0.00
   4   1    -0.00   0.00   0.00     0.00  -0.00  -0.00     0.00   0.00   0.00
   5   6     0.00  -0.00   0.00     0.00  -0.00   0.00    -0.00   0.00  -0.00
   6   1    -0.00  -0.00  -0.00    -0.00   0.00  -0.00     0.00   0.00  -0.00
   7   1     0.00   0.00  -0.00     0.00   0.00  -0.00     0.00  -0.00   0.00
   8   7     0.00  -0.00   0.00    -0.00  -0.00  -0.00     0.00  -0.00   0.00
   9   6     0.00  -0.00   0.00     0.00   0.00   0.00    -0.00  -0.00  -0.00
  10   1    -0.00  -0.00  -0.00    -0.00  -0.00  -0.00     0.00   0.00   0.00
  11   1    -0.00   0.00   0.00     0.00  -0.00  -0.00    -0.00   0.00  -0.00
  12   1    -0.00  -0.00  -0.00     0.00  -0.00   0.00    -0.00   0.00  -0.00
  13   6     0.00  -0.00   0.00     0.00   0.00   0.00    -0.00   0.00  -0.00
  14   1    -0.00  -0.00  -0.00    -0.00   0.00  -0.00     0.00   0.00   0.00
  15   1    -0.00   0.00  -0.00     0.00   0.00   0.00     0.00  -0.00   0.00
  16   1     0.00  -0.00   0.00     0.00   0.00   0.00     0.00   0.00  -0.00
  17   6    -0.00   0.00  -0.00    -0.00  -0.00   0.00    -0.00   0.00  -0.00
  18   1     0.00  -0.00   0.00     0.00   0.00  -0.00    -0.00  -0.00   0.00
  19   1     0.00   0.00  -0.00     0.00   0.00   0.00    -0.00   0.00  -0.00
  20   1    -0.00   0.00   0.00     0.00  -0.00  -0.00    -0.00   0.00  -0.00
  21   1    -0.00  -0.00  -0.00     0.00   0.00   0.00     0.00   0.00   0.00
  22   6    -0.00  -0.00   0.00    -0.00   0.00   0.01     0.00   0.00   0.00
  23   8     0.00   0.00  -0.00     0.00  -0.00  -0.00    -0.00  -0.00  -0.00
  24   7     0.00   0.00  -0.00     0.00  -0.00   0.00    -0.00  -0.00   0.00
  25   1    -0.00  -0.00  -0.00    -0.01  -0.00   0.00     0.00   0.00   0.00
  26   1     0.00  -0.00   0.00    -0.01   0.00  -0.02    -0.00   0.00  -0.00
  27   7    -0.00   0.00   0.00    -0.04   0.06   0.29    -0.00   0.00   0.00
  28   1    -0.00  -0.00  -0.00    -0.28  -0.16  -0.55    -0.00  -0.00  -0.00
  29   1     0.00  -0.00  -0.00     0.43  -0.08  -0.56     0.00  -0.00  -0.00
  30   6     0.01   0.00   0.00    -0.00  -0.00  -0.00    -0.00   0.01  -0.01
  31   8    -0.00  -0.00  -0.00     0.00  -0.00   0.00     0.00  -0.00   0.00
  32   7     0.11  -0.12   0.12    -0.00   0.00  -0.00    -0.12   0.13  -0.13
  33   1    -0.36   0.06  -0.30     0.00  -0.00   0.00     0.40  -0.07   0.33
  34   1    -0.05   0.39  -0.15     0.00  -0.00   0.00     0.06  -0.45   0.18
  35   7     0.09   0.20  -0.03    -0.00  -0.00   0.00     0.08   0.18  -0.03
  36   1     0.03  -0.40   0.24    -0.00   0.00  -0.00     0.03  -0.37   0.22
  37   1    -0.36  -0.38  -0.12     0.00   0.00   0.00    -0.32  -0.33  -0.10
  38   6    -0.00  -0.00   0.00     0.00   0.00   0.00     0.00  -0.00   0.00
  39   8     0.00   0.00  -0.00    -0.00  -0.00   0.00    -0.00  -0.00  -0.00
  40   7     0.00   0.00  -0.00     0.00   0.00   0.00    -0.00  -0.00  -0.00
  41   1    -0.00  -0.00  -0.00    -0.00  -0.00  -0.00     0.00   0.00   0.00
  42   1     0.00  -0.00   0.00     0.00  -0.00   0.00    -0.00   0.00  -0.00
  43   7     0.00  -0.00   0.00    -0.00   0.00  -0.00     0.00  -0.00   0.00
  44   1    -0.00   0.00  -0.00     0.00  -0.00   0.00    -0.00   0.00  -0.00
  45   1    -0.00   0.00  -0.00     0.00  -0.00   0.00    -0.00  -0.00  -0.00
  46   6    -0.00   0.00   0.00    -0.00  -0.00  -0.00     0.00  -0.00  -0.00
  47   8     0.00   0.00  -0.00     0.00  -0.00   0.00    -0.00  -0.00   0.00
  48   7    -0.00   0.00   0.00     0.00  -0.00  -0.00     0.00  -0.00  -0.00
  49   1    -0.00  -0.00  -0.00     0.00  -0.00  -0.00     0.00   0.00   0.00
  50   1     0.00  -0.00  -0.00    -0.00   0.00   0.00    -0.00   0.00   0.00
  51   7    -0.00   0.00  -0.00     0.01  -0.00   0.00     0.00  -0.00   0.00
  52   1     0.00  -0.00  -0.00    -0.01   0.01   0.01    -0.00   0.00   0.00
  53   1     0.00  -0.00   0.00    -0.01   0.00  -0.01    -0.00   0.00  -0.00
