 Entering Gaussian System
 *********************************************
 Gaussian 98:
 frequency output generated by the xtb code
 *********************************************
                         Standard orientation:
 --------------------------------------------------------------------
  Center     Atomic     Atomic              Coordinates (Angstroms)
  Number     Number      Type              X           Y           Z
 --------------------------------------------------------------------
    1          8             0       -2.792111   -0.597520    0.482196
    2          6             0       -2.837602    0.681764    1.038058
    3          1             0       -3.770154    1.136776    0.692617
    4          1             0       -2.881780    0.631470    2.135991
    5          6             0       -1.630721    1.573030    0.703199
    6          1             0       -0.716987    1.129064    1.109606
    7          1             0       -1.795669    2.538809    1.185016
    8          7             0       -1.369910    1.812367   -0.741295
    9          6             0       -0.826163    0.598480   -1.375764
   10          1             0        0.094173    0.323297   -0.863850
   11          1             0       -0.620466    0.821772   -2.420873
   12          1             0       -1.547463   -0.211450   -1.299603
   13          6             0       -0.347497    2.867158   -0.856070
   14          1             0       -0.119226    3.015008   -1.910250
   15          1             0        0.548115    2.548255   -0.324756
   16          1             0       -0.714211    3.798852   -0.430570
   17          6             0       -2.579184    2.231280   -1.464269
   18          1             0       -3.300669    1.418465   -1.488353
   19          1             0       -2.296387    2.483596   -2.485911
   20          1             0       -3.024376    3.100115   -0.983193
   21          1             0       -2.010645   -1.073250    0.860363
   22          6             0        1.951473    0.531637    1.890679
   23          8             0        1.422083    0.936738    0.859911
   24          7             0        1.269913   -0.178420    2.823322
   25          1             0        0.433795   -0.649607    2.491395
   26          1             0        1.796681   -0.707903    3.499991
   27          7             0        3.248425    0.802977    2.179271
   28          1             0        3.643083    0.566126    3.071315
   29          1             0        3.740074    1.462982    1.603386
   30          6             0       -0.572601    2.762022   -5.154637
   31          8             0       -0.748055    2.493843   -3.974053
   32          7             0       -0.701479    4.021754   -5.635858
   33          1             0       -0.850811    4.772824   -4.986364
   34          1             0       -0.462334    4.257536   -6.581413
   35          7             0       -0.236771    1.819029   -6.067541
   36          1             0       -0.198256    2.020539   -7.049825
   37          1             0       -0.231422    0.856093   -5.783049
   38          6             0       -1.105782   -2.835063    2.372038
   39          8             0       -0.755417   -1.883084    1.647818
   40          7             0       -2.407080   -3.181956    2.456715
   41          1             0       -3.078825   -2.700384    1.882771
   42          1             0       -2.712228   -3.970826    2.996451
   43          7             0       -0.219650   -3.512066    3.101195
   44          1             0       -0.492699   -4.296841    3.663878
   45          1             0        0.780727   -3.289311    3.009675
   46          6             0        2.759473   -2.654502    1.476516
   47          8             0        2.427411   -2.863281    2.640199
   48          7             0        1.860976   -2.387621    0.503845
   49          1             0        0.905954   -2.184060    0.784204
   50          1             0        2.164988   -2.050297   -0.391437
   51          7             0        4.065853   -2.667950    1.103548
   52          1             0        4.327059   -2.683216    0.133946
   53          1             0        4.727215   -3.035271    1.766072
 --------------------------------------------------------------------
     1 basis functions        1 primitive gaussians
     1 alpha electrons        1 beta electrons

 Harmonic frequencies (cm**-1), IR intensities (km*mol⁻¹),
 Raman scattering activities (A**4/amu), Raman depolarization ratios,
 reduced masses (AMU), force constants (mDyne/A) and normal coordinates:
                      1                      2                      3
                        a                      a                      a 
 Frequencies --    -3.3656                10.3410                18.0122
 Red. masses --    10.9344                12.4310                12.0496
 Frc consts  --     0.0000                 0.0000                 0.0000
 IR Inten    --     0.0302                 0.0710                 0.2945
 Raman Activ --     0.0000                 0.0000                 0.0000
 Depolar     --     0.0000                 0.0000                 0.0000
 Atom AN      X      Y      Z        X      Y      Z        X      Y      Z
   1   8    -0.01  -0.02  -0.01    -0.09   0.13   0.13     0.06   0.12  -0.02
   2   6    -0.02  -0.02  -0.00    -0.02   0.12   0.10     0.11   0.09   0.02
   3   1    -0.01  -0.01  -0.00    -0.00   0.04   0.03     0.03   0.04   0.02
   4   1    -0.01  -0.01  -0.00    -0.01   0.04   0.03     0.04   0.02   0.01
   5   6    -0.02  -0.01   0.01     0.01   0.07   0.08     0.12   0.06   0.02
   6   1    -0.01   0.00   0.00    -0.00   0.01   0.03     0.03   0.01  -0.00
   7   1    -0.01  -0.00   0.00     0.01   0.03   0.02     0.04   0.02   0.01
   8   7    -0.02  -0.01   0.01     0.02   0.03   0.09     0.12   0.08   0.02
   9   6     0.01  -0.00   0.02    -0.00  -0.00   0.12     0.07   0.07  -0.01
  10   1     0.00   0.00   0.01    -0.00  -0.00   0.04     0.02   0.01  -0.01
  11   1     0.01  -0.00   0.01     0.00  -0.01   0.03     0.02   0.02  -0.00
  12   1     0.01  -0.00   0.00    -0.01   0.00   0.04     0.01   0.03  -0.00
  13   6    -0.03   0.01   0.01     0.04  -0.00   0.05     0.14   0.05   0.01
  14   1    -0.01   0.00   0.00     0.02  -0.01   0.02     0.04   0.02   0.00
  15   1    -0.01   0.01   0.01     0.01  -0.00   0.02     0.04   0.01  -0.00
  16   1    -0.01   0.00   0.00     0.02   0.01   0.01     0.05   0.02   0.01
  17   6    -0.01  -0.03  -0.01     0.03   0.03   0.06     0.11   0.11   0.04
  18   1    -0.00  -0.01  -0.00     0.00   0.01   0.03     0.03   0.04   0.01
  19   1    -0.00  -0.01  -0.00     0.01  -0.00   0.02     0.03   0.03   0.01
  20   1    -0.01  -0.01  -0.00     0.02   0.02   0.01     0.04   0.04   0.02
  21   1    -0.00  -0.00  -0.00    -0.02   0.03   0.03     0.01   0.02  -0.01
  22   6    -0.02   0.02   0.03    -0.02  -0.00   0.11     0.01  -0.03   0.08
  23   8    -0.02   0.04   0.04     0.00   0.00   0.12     0.09  -0.02   0.06
  24   7    -0.02   0.00   0.02    -0.04  -0.03   0.09    -0.06  -0.04   0.03
  25   1    -0.00  -0.00   0.00    -0.01  -0.01   0.02    -0.01  -0.01  -0.01
  26   1    -0.00  -0.00   0.00    -0.01  -0.01   0.03    -0.03  -0.01   0.02
  27   7    -0.03   0.04   0.05    -0.04   0.01   0.16    -0.01  -0.03   0.19
  28   1    -0.01   0.01   0.01    -0.01  -0.00   0.04    -0.02  -0.01   0.06
  29   1    -0.01   0.01   0.02    -0.01   0.00   0.05     0.01  -0.01   0.06
  30   6     0.01  -0.03   0.01     0.08  -0.20   0.04    -0.19  -0.04  -0.06
  31   8     0.01  -0.02   0.01     0.08  -0.14   0.07    -0.02   0.04  -0.02
  32   7     0.60   0.06   0.10     0.02  -0.26  -0.05    -0.31  -0.09  -0.15
  33   1     0.29   0.03   0.04    -0.01  -0.06  -0.03    -0.05  -0.01  -0.05
  34   1     0.17  -0.00   0.02     0.01  -0.08  -0.02    -0.12  -0.04  -0.05
  35   7    -0.57  -0.15  -0.09     0.17  -0.26   0.13    -0.33  -0.11  -0.05
  36   1    -0.16  -0.03  -0.02     0.05  -0.09   0.03    -0.13  -0.05  -0.02
  37   1    -0.28  -0.05  -0.04     0.06  -0.06   0.05    -0.07  -0.02   0.01
  38   6     0.02  -0.02  -0.02    -0.01  -0.03  -0.09    -0.03  -0.05  -0.18
  39   8     0.00  -0.00  -0.01    -0.06   0.06  -0.01     0.03  -0.02  -0.14
  40   7     0.02  -0.04  -0.03    -0.00  -0.06  -0.10    -0.04  -0.05  -0.32
  41   1     0.00  -0.01  -0.01    -0.01  -0.00  -0.00     0.00   0.00  -0.09
  42   1     0.01  -0.01  -0.01     0.01  -0.03  -0.04    -0.02  -0.02  -0.10
  43   7     0.03  -0.02  -0.03     0.03  -0.09  -0.20    -0.09  -0.10  -0.17
  44   1     0.01  -0.01  -0.01     0.02  -0.04  -0.08    -0.04  -0.03  -0.06
  45   1     0.01  -0.00  -0.01     0.01  -0.02  -0.06    -0.02  -0.02  -0.02
  46   6     0.01   0.04  -0.02    -0.05   0.14  -0.21     0.05  -0.01   0.15
  47   8     0.02   0.03  -0.03    -0.01  -0.01  -0.26    -0.06  -0.06   0.13
  48   7     0.01   0.05  -0.02    -0.09   0.22  -0.17     0.14   0.00   0.08
  49   1     0.00   0.01  -0.00    -0.02   0.04  -0.03     0.03  -0.00  -0.00
  50   1     0.00   0.02  -0.00    -0.03   0.10  -0.03     0.06   0.01   0.03
  51   7     0.01   0.07  -0.03    -0.06   0.26  -0.27     0.09   0.01   0.29
  52   1     0.00   0.02  -0.01    -0.02   0.11  -0.07     0.05   0.01   0.08
  53   1     0.01   0.02  -0.01    -0.01   0.06  -0.09     0.01  -0.00   0.09
                      4                      5                      6
                        a                      a                      a 
 Frequencies --    23.0158                29.2581                35.4936
 Red. masses --    11.8497                12.3136                12.1521
 Frc consts  --     0.0000                 0.0000                 0.0000
 IR Inten    --     3.6172                 1.4676                 2.3670
 Raman Activ --     0.0000                 0.0000                 0.0000
 Depolar     --     0.0000                 0.0000                 0.0000
 Atom AN      X      Y      Z        X      Y      Z        X      Y      Z
   1   8    -0.03   0.00   0.03    -0.05   0.01   0.08     0.11  -0.16  -0.32
   2   6     0.05   0.03  -0.03     0.02   0.01   0.08    -0.01  -0.17  -0.20
   3   1     0.02   0.02  -0.01     0.00   0.01   0.04     0.00  -0.05  -0.07
   4   1     0.01   0.02  -0.01     0.02  -0.00   0.02    -0.03  -0.07  -0.06
   5   6     0.11  -0.06  -0.06     0.03  -0.03   0.04    -0.01  -0.10  -0.03
   6   1     0.02  -0.03  -0.01     0.01  -0.03  -0.02    -0.01  -0.03  -0.01
   7   1     0.05  -0.01  -0.02     0.03  -0.01   0.03    -0.02  -0.05   0.02
   8   7     0.13  -0.12  -0.07    -0.06   0.03   0.03     0.06   0.07   0.01
   9   6     0.02  -0.17  -0.04    -0.22   0.02  -0.08     0.10   0.14  -0.09
  10   1     0.00  -0.06  -0.01    -0.06  -0.03  -0.05     0.02   0.03  -0.03
  11   1     0.01  -0.06  -0.01    -0.08   0.02  -0.03     0.04   0.07  -0.02
  12   1    -0.01  -0.03  -0.00    -0.08   0.02  -0.02     0.03   0.03  -0.06
  13   6     0.20  -0.19  -0.10     0.03  -0.06   0.01     0.06   0.08   0.17
  14   1     0.06  -0.07  -0.03    -0.01  -0.00   0.00     0.03   0.06   0.06
  15   1     0.05  -0.07  -0.03     0.01  -0.05  -0.02     0.01   0.01   0.05
  16   1     0.08  -0.05  -0.03     0.04  -0.01   0.03     0.01   0.01   0.07
  17   6     0.14  -0.04  -0.06    -0.07   0.19   0.15     0.09   0.14  -0.01
  18   1     0.02   0.00  -0.01    -0.04   0.08   0.04     0.03   0.04  -0.04
  19   1     0.04  -0.02  -0.02    -0.04   0.07   0.04     0.04   0.08   0.01
  20   1     0.06   0.00  -0.02     0.01   0.06   0.07     0.02   0.02   0.02
  21   1    -0.02  -0.01   0.02    -0.01  -0.00   0.01     0.01  -0.04  -0.05
  22   6     0.00  -0.11   0.05    -0.00  -0.13  -0.20    -0.02  -0.07   0.05
  23   8     0.10  -0.28  -0.06     0.05  -0.30  -0.32    -0.01  -0.09   0.05
  24   7    -0.09   0.04   0.10    -0.08   0.08  -0.10    -0.05  -0.03   0.07
  25   1    -0.02   0.00   0.03    -0.02   0.01  -0.01    -0.01  -0.00   0.02
  26   1    -0.04   0.04   0.06    -0.03   0.05   0.00    -0.02  -0.01   0.02
  27   7    -0.02  -0.11   0.11     0.01  -0.18  -0.24    -0.02  -0.10   0.06
  28   1    -0.02  -0.01   0.04    -0.00  -0.02  -0.05    -0.01  -0.03   0.01
  29   1     0.02  -0.07   0.01     0.02  -0.09  -0.10     0.00  -0.04   0.01
  30   6    -0.04   0.08  -0.06     0.04   0.01   0.05    -0.02   0.05  -0.01
  31   8     0.10  -0.11  -0.09    -0.17   0.14   0.06     0.13   0.34   0.08
  32   7    -0.13   0.16   0.15     0.20  -0.02  -0.07    -0.09  -0.06  -0.29
  33   1    -0.02   0.01   0.07     0.03   0.01  -0.04     0.00   0.02  -0.12
  34   1    -0.06   0.08   0.04     0.09  -0.03  -0.02    -0.05  -0.07  -0.10
  35   7    -0.12   0.24  -0.25     0.13  -0.09   0.19    -0.14  -0.16   0.16
  36   1    -0.06   0.11  -0.06     0.07  -0.05   0.05    -0.06  -0.10   0.03
  37   1    -0.01   0.05  -0.11     0.00  -0.02   0.07    -0.02  -0.03   0.10
  38   6    -0.03  -0.02   0.10     0.00  -0.05  -0.04     0.01  -0.01   0.13
  39   8    -0.08   0.01   0.13    -0.02  -0.03  -0.02    -0.04  -0.06   0.08
  40   7    -0.02  -0.06   0.13     0.01  -0.11  -0.09     0.01  -0.03   0.21
  41   1    -0.01  -0.02   0.04     0.00  -0.03  -0.02    -0.00  -0.03   0.04
  42   1     0.00  -0.02   0.03     0.01  -0.03  -0.02     0.01  -0.01   0.07
  43   7     0.01  -0.02   0.06     0.01  -0.02  -0.02     0.04   0.06   0.17
  44   1     0.01  -0.01   0.01     0.01  -0.01  -0.01     0.02   0.02   0.06
  45   1    -0.00   0.00   0.01    -0.00   0.01   0.01     0.01   0.02   0.02
  46   6    -0.07   0.16  -0.01     0.03   0.12   0.11    -0.05   0.04  -0.06
  47   8    -0.04   0.07  -0.03    -0.00   0.11   0.11     0.02   0.04  -0.06
  48   7    -0.11   0.13   0.00     0.05   0.02   0.06    -0.11   0.01  -0.03
  49   1    -0.03   0.02   0.01     0.01  -0.01   0.00    -0.03  -0.00   0.01
  50   1    -0.04   0.07   0.01     0.02   0.02   0.02    -0.04   0.01  -0.01
  51   7    -0.07   0.35  -0.03     0.05   0.27   0.18    -0.07   0.09  -0.13
  52   1    -0.02   0.11  -0.01     0.03   0.07   0.05    -0.03   0.03  -0.04
  53   1    -0.01   0.10  -0.02     0.01   0.09   0.06    -0.01   0.03  -0.04
                      7                      8                      9
                        a                      a                      a 
 Frequencies --    44.9208                48.7560                51.7805
 Red. masses --    12.0408                12.4153                12.8162
 Frc consts  --     0.0000                 0.0000                 0.0000
 IR Inten    --     7.4758                 2.4869                 9.0371
 Raman Activ --     0.0000                 0.0000                 0.0000
 Depolar     --     0.0000                 0.0000                 0.0000
 Atom AN      X      Y      Z        X      Y      Z        X      Y      Z
   1   8     0.02  -0.01   0.02     0.10   0.09   0.17     0.12  -0.06   0.04
   2   6     0.11  -0.03   0.07     0.05   0.13   0.02     0.00  -0.02  -0.03
   3   1     0.03   0.01   0.04     0.01   0.02  -0.01    -0.01  -0.03  -0.03
   4   1     0.05  -0.02   0.02     0.01   0.07   0.01    -0.01   0.01  -0.01
   5   6     0.13  -0.07   0.01     0.03   0.14  -0.05    -0.05   0.03  -0.04
   6   1     0.04  -0.04  -0.02     0.01   0.05  -0.02    -0.01   0.02  -0.01
   7   1     0.06  -0.02   0.02     0.01   0.05  -0.02    -0.03   0.01  -0.02
   8   7     0.04  -0.04   0.00    -0.01   0.11  -0.07    -0.05   0.03  -0.05
   9   6    -0.05  -0.04  -0.07    -0.13   0.05  -0.06    -0.02   0.03  -0.03
  10   1    -0.01  -0.03  -0.04    -0.04  -0.00  -0.03    -0.01   0.01  -0.00
  11   1    -0.03  -0.00  -0.02    -0.05   0.00  -0.02    -0.01   0.01  -0.01
  12   1    -0.02  -0.00  -0.01    -0.05   0.03   0.00    -0.00   0.00  -0.01
  13   6     0.08  -0.08  -0.03     0.06   0.03  -0.12    -0.06   0.04  -0.04
  14   1     0.00  -0.01  -0.01     0.01  -0.00  -0.04    -0.02   0.01  -0.01
  15   1     0.03  -0.04  -0.03     0.01  -0.01  -0.04    -0.02   0.02  -0.01
  16   1     0.04  -0.02   0.01     0.04   0.02  -0.04    -0.02   0.01  -0.02
  17   6     0.01   0.04   0.10    -0.01   0.18  -0.03    -0.04  -0.00  -0.06
  18   1    -0.01   0.02   0.04    -0.02   0.07   0.00    -0.01  -0.00  -0.02
  19   1    -0.02   0.02   0.03    -0.01   0.04  -0.01    -0.01   0.00  -0.02
  20   1     0.02   0.01   0.05     0.02   0.06  -0.01    -0.02  -0.00  -0.02
  21   1     0.00  -0.02  -0.01     0.01   0.03   0.07     0.03   0.00   0.03
  22   6    -0.02   0.10  -0.01    -0.09   0.03   0.07     0.05   0.00   0.00
  23   8     0.14  -0.10  -0.18    -0.16  -0.02   0.09    -0.10   0.03   0.10
  24   7    -0.06  -0.04  -0.16    -0.02   0.01   0.11     0.22  -0.11   0.03
  25   1     0.03  -0.06  -0.09    -0.01  -0.01   0.04     0.05  -0.03   0.04
  26   1    -0.03   0.04   0.00     0.01   0.01   0.03     0.08  -0.02  -0.01
  27   7    -0.19   0.53   0.33    -0.11   0.14   0.04     0.09   0.05  -0.16
  28   1    -0.09   0.17   0.11    -0.02   0.05   0.01     0.05   0.03  -0.05
  29   1    -0.05   0.15   0.10    -0.05   0.04   0.00    -0.02   0.05  -0.04
  30   6    -0.02   0.03   0.01     0.01   0.05  -0.14    -0.00   0.04  -0.07
  31   8    -0.14   0.08  -0.00    -0.09   0.09  -0.17    -0.04   0.09  -0.07
  32   7     0.07   0.02  -0.04     0.07   0.05  -0.18     0.03   0.03  -0.12
  33   1     0.00   0.01  -0.02     0.01   0.02  -0.06     0.00   0.01  -0.04
  34   1     0.04  -0.01  -0.01     0.04   0.01  -0.05     0.02  -0.00  -0.03
  35   7     0.04  -0.01   0.07     0.06   0.03  -0.11     0.02   0.01  -0.03
  36   1     0.03  -0.01   0.02     0.03   0.00  -0.03     0.01  -0.01  -0.01
  37   1    -0.01  -0.00   0.03     0.00   0.01  -0.02    -0.00   0.00  -0.00
  38   6    -0.03  -0.02   0.03     0.08  -0.19   0.10    -0.04  -0.05   0.07
  39   8     0.01  -0.15  -0.12    -0.01  -0.06   0.28     0.05   0.00   0.21
  40   7    -0.06   0.14   0.19     0.13  -0.42  -0.05    -0.11   0.21   0.20
  41   1    -0.01   0.03   0.04     0.02  -0.10   0.01    -0.02   0.09   0.07
  42   1    -0.02   0.05   0.07     0.05  -0.13  -0.03    -0.05   0.02  -0.00
  43   7    -0.04  -0.03   0.03     0.13  -0.18   0.07    -0.09  -0.38  -0.18
  44   1    -0.02   0.02   0.04     0.06  -0.08  -0.02    -0.05  -0.10  -0.06
  45   1    -0.01  -0.03  -0.01     0.03  -0.02   0.03    -0.02  -0.12  -0.04
  46   6    -0.01  -0.08  -0.06    -0.02  -0.06   0.01     0.00  -0.02   0.05
  47   8    -0.05  -0.13  -0.09     0.09   0.03   0.06    -0.06  -0.44  -0.03
  48   7     0.01  -0.18  -0.11    -0.10  -0.05   0.08     0.04   0.16   0.07
  49   1    -0.00  -0.06  -0.04    -0.02   0.01   0.04     0.00   0.00   0.02
  50   1     0.01  -0.03  -0.02    -0.04  -0.03   0.01     0.02   0.14   0.06
  51   7     0.01   0.04  -0.00    -0.06  -0.19  -0.12     0.03   0.27   0.15
  52   1     0.01   0.01   0.00    -0.04  -0.07  -0.04     0.03   0.15   0.04
  53   1     0.00   0.03   0.01    -0.00  -0.05  -0.04     0.01   0.03   0.02
                     10                     11                     12
                        a                      a                      a 
 Frequencies --    54.2670                60.5759                67.1726
 Red. masses --    11.9331                11.9790                12.9092
 Frc consts  --     0.0000                 0.0000                 0.0000
 IR Inten    --     2.5328                 1.2096                 2.7086
 Raman Activ --     0.0000                 0.0000                 0.0000
 Depolar     --     0.0000                 0.0000                 0.0000
 Atom AN      X      Y      Z        X      Y      Z        X      Y      Z
   1   8    -0.05  -0.13  -0.03     0.12   0.02  -0.05    -0.00  -0.04   0.00
   2   6    -0.11  -0.09  -0.09     0.13  -0.03   0.05     0.09  -0.06   0.07
   3   1    -0.02  -0.03  -0.06     0.03  -0.00   0.04     0.02  -0.00   0.05
   4   1    -0.07  -0.01  -0.03     0.06  -0.03   0.01     0.05  -0.03   0.02
   5   6    -0.07  -0.12  -0.00     0.10   0.01   0.04     0.10  -0.11   0.00
   6   1    -0.03  -0.05   0.01     0.03   0.02   0.01     0.03  -0.04  -0.01
   7   1    -0.01  -0.04   0.01     0.02   0.00   0.01     0.05  -0.03   0.00
   8   7     0.00  -0.07   0.02     0.08   0.00   0.04     0.02  -0.14  -0.02
   9   6    -0.10  -0.08  -0.03     0.26   0.06   0.08     0.05  -0.10  -0.02
  10   1    -0.04  -0.06  -0.01     0.09   0.07   0.02     0.03  -0.01  -0.02
  11   1    -0.01  -0.01  -0.00     0.06   0.02   0.02    -0.01  -0.03  -0.01
  12   1    -0.05  -0.01  -0.02     0.11  -0.01   0.03     0.03  -0.04   0.01
  13   6     0.11  -0.16   0.11    -0.10   0.16  -0.00    -0.05  -0.07  -0.09
  14   1     0.04  -0.03   0.04    -0.04   0.05  -0.00    -0.04  -0.02  -0.03
  15   1     0.02  -0.08   0.03    -0.01   0.09  -0.00    -0.00  -0.00  -0.04
  16   1     0.05  -0.04   0.04    -0.07   0.03  -0.01    -0.02  -0.03  -0.02
  17   6     0.07   0.10   0.00     0.00  -0.23   0.01    -0.05  -0.21   0.04
  18   1    -0.00   0.05  -0.02     0.04  -0.10   0.01     0.00  -0.08   0.02
  19   1     0.04   0.04   0.01    -0.01  -0.06   0.00    -0.04  -0.05   0.01
  20   1     0.04   0.03   0.01    -0.04  -0.08  -0.01    -0.03  -0.07   0.02
  21   1     0.00  -0.01   0.00     0.01  -0.02   0.00     0.00  -0.02  -0.01
  22   6     0.09   0.08  -0.04     0.12   0.12  -0.14     0.08  -0.03   0.14
  23   8     0.01  -0.20  -0.11     0.20   0.17  -0.17     0.12  -0.04   0.15
  24   7     0.24   0.14   0.09     0.08   0.12  -0.19     0.05   0.04   0.18
  25   1     0.07   0.00   0.06     0.02   0.03  -0.05     0.01   0.02   0.05
  26   1     0.08   0.09   0.05     0.01   0.04  -0.04     0.01   0.01   0.05
  27   7     0.06   0.37  -0.12     0.12   0.10  -0.09     0.11  -0.12   0.15
  28   1     0.03   0.16  -0.02     0.02   0.02  -0.02     0.02  -0.03   0.04
  29   1    -0.02   0.09  -0.07     0.04   0.03  -0.02     0.04  -0.04   0.04
  30   6     0.02  -0.01   0.08    -0.01  -0.01   0.04    -0.11   0.10  -0.09
  31   8     0.17   0.00   0.12    -0.02  -0.00   0.05    -0.48   0.21  -0.13
  32   7    -0.07  -0.03   0.07    -0.00  -0.01   0.04     0.14   0.08  -0.22
  33   1     0.01  -0.00   0.02    -0.00  -0.00   0.01    -0.02   0.04  -0.09
  34   1    -0.04  -0.01   0.01    -0.00  -0.00   0.01     0.09  -0.00  -0.05
  35   7    -0.08  -0.03   0.06    -0.00  -0.01   0.05     0.10   0.01   0.07
  36   1    -0.04  -0.01   0.02     0.00  -0.00   0.01     0.08  -0.02   0.02
  37   1     0.00  -0.01   0.02    -0.00  -0.00   0.01    -0.03   0.01   0.03
  38   6    -0.01   0.08  -0.03    -0.08  -0.13   0.04    -0.01   0.10  -0.02
  39   8     0.04   0.25   0.19    -0.08  -0.07   0.15     0.02   0.13   0.02
  40   7     0.01  -0.04  -0.32    -0.06  -0.29  -0.16    -0.00   0.04  -0.18
  41   1     0.01   0.01  -0.08    -0.01  -0.07  -0.04     0.00   0.02  -0.05
  42   1    -0.01  -0.03  -0.11    -0.02  -0.08  -0.05    -0.01   0.02  -0.04
  43   7    -0.07   0.06   0.01    -0.11  -0.11   0.10    -0.06   0.16   0.08
  44   1    -0.03  -0.03  -0.06    -0.02  -0.05  -0.00    -0.02   0.03  -0.00
  45   1    -0.02   0.01   0.02    -0.03  -0.02   0.04    -0.01   0.03   0.02
  46   6    -0.06  -0.03   0.01    -0.18   0.03   0.03    -0.03   0.02  -0.03
  47   8    -0.07  -0.09  -0.00    -0.17   0.04   0.04    -0.05  -0.05  -0.05
  48   7    -0.05   0.15   0.04    -0.23  -0.09   0.03    -0.01   0.23   0.00
  49   1    -0.00   0.07   0.02    -0.06  -0.04   0.01     0.00   0.07   0.01
  50   1    -0.00   0.07   0.02    -0.07  -0.02   0.01     0.01   0.08   0.01
  51   7    -0.07  -0.17  -0.02    -0.20   0.17   0.01    -0.04  -0.11  -0.05
  52   1    -0.03  -0.04  -0.01    -0.06   0.05   0.00    -0.01  -0.01  -0.01
  53   1    -0.03  -0.08  -0.02    -0.04   0.07   0.00    -0.02  -0.07  -0.02
                     13                     14                     15
                        a                      a                      a 
 Frequencies --    76.7667                80.6880                88.9611
 Red. masses --    12.9257                12.7703                12.3040
 Frc consts  --     0.0000                 0.0000                 0.0000
 IR Inten    --    12.0515                 0.4734                 1.9488
 Raman Activ --     0.0000                 0.0000                 0.0000
 Depolar     --     0.0000                 0.0000                 0.0000
 Atom AN      X      Y      Z        X      Y      Z        X      Y      Z
   1   8    -0.09   0.01   0.10     0.17  -0.10  -0.26    -0.04  -0.08   0.02
   2   6    -0.05   0.03   0.03     0.11  -0.14  -0.10    -0.08  -0.05  -0.04
   3   1    -0.01   0.01   0.00     0.03  -0.04  -0.01    -0.02  -0.02  -0.03
   4   1    -0.02   0.02   0.01     0.04  -0.07  -0.03    -0.04  -0.00  -0.01
   5   6    -0.01  -0.03   0.01     0.08  -0.07  -0.03    -0.05  -0.06   0.02
   6   1    -0.01  -0.01   0.02     0.03  -0.03  -0.03    -0.02  -0.02   0.01
   7   1     0.00   0.00  -0.01     0.02  -0.04   0.03    -0.01  -0.02   0.01
   8   7     0.03  -0.12   0.00     0.03   0.11  -0.01    -0.01  -0.04   0.03
   9   6     0.09  -0.12   0.09    -0.02   0.16  -0.16    -0.10  -0.06  -0.00
  10   1     0.03  -0.02   0.04     0.00   0.03  -0.07    -0.04  -0.04  -0.00
  11   1     0.03  -0.05   0.02    -0.03   0.07  -0.05    -0.02  -0.01   0.00
  12   1     0.03  -0.04   0.03    -0.01   0.04  -0.05    -0.05  -0.00  -0.01
  13   6    -0.01  -0.07  -0.02     0.04   0.09   0.06     0.09  -0.12   0.08
  14   1    -0.00  -0.03  -0.01     0.01   0.05   0.02     0.03  -0.03   0.03
  15   1    -0.00  -0.01  -0.00     0.01   0.01   0.01     0.01  -0.06   0.03
  16   1    -0.01  -0.02  -0.02     0.02   0.02   0.04     0.04  -0.03   0.03
  17   6     0.03  -0.20  -0.06    -0.00   0.20   0.10     0.04   0.10   0.02
  18   1     0.02  -0.07  -0.02    -0.01   0.07   0.02    -0.01   0.05  -0.01
  19   1     0.02  -0.06  -0.01    -0.02   0.07   0.03     0.02   0.03   0.01
  20   1    -0.01  -0.06  -0.03     0.02   0.05   0.06     0.03   0.04   0.01
  21   1    -0.02   0.01   0.03     0.03  -0.03  -0.05     0.00  -0.00   0.00
  22   6    -0.01   0.04  -0.04     0.01   0.04   0.03     0.11   0.04   0.11
  23   8     0.07  -0.04  -0.12     0.08   0.04  -0.00     0.00   0.14   0.23
  24   7    -0.11   0.20   0.01    -0.07   0.16   0.06     0.21  -0.04   0.12
  25   1    -0.03   0.05   0.00    -0.02   0.05   0.02     0.05   0.00   0.04
  26   1    -0.04   0.06   0.02    -0.03   0.04   0.02     0.07  -0.04  -0.00
  27   7    -0.02   0.01   0.01     0.03  -0.04   0.06     0.16   0.00  -0.00
  28   1    -0.02   0.01   0.01    -0.00  -0.01   0.02     0.06  -0.01  -0.01
  29   1     0.02  -0.03  -0.01     0.03  -0.03   0.01     0.02   0.02   0.01
  30   6     0.02   0.09   0.01    -0.08  -0.13   0.04    -0.03   0.01  -0.06
  31   8     0.12   0.26   0.06    -0.31  -0.35  -0.03    -0.14   0.00  -0.09
  32   7    -0.02   0.04  -0.14     0.04  -0.06   0.24     0.03   0.02  -0.07
  33   1     0.01   0.03  -0.06    -0.03  -0.05   0.09    -0.00   0.00  -0.02
  34   1    -0.02  -0.02  -0.05     0.04   0.02   0.08     0.03   0.00  -0.01
  35   7    -0.05  -0.02   0.11     0.07   0.00  -0.05     0.04   0.02  -0.05
  36   1    -0.03  -0.04   0.02     0.06   0.04  -0.00     0.02   0.01  -0.01
  37   1    -0.00   0.01   0.06    -0.01  -0.01  -0.06    -0.01   0.00  -0.02
  38   6     0.01  -0.02  -0.05     0.00  -0.02  -0.00     0.02   0.04  -0.07
  39   8    -0.04   0.08   0.06     0.01   0.03   0.08     0.06   0.08  -0.03
  40   7    -0.02   0.14   0.21    -0.03   0.10   0.12     0.00   0.10  -0.09
  41   1    -0.02   0.05   0.08    -0.00   0.03   0.03     0.01   0.04  -0.02
  42   1     0.01  -0.01  -0.00    -0.00  -0.01  -0.01    -0.01   0.02  -0.04
  43   7     0.10  -0.33  -0.44     0.02  -0.21  -0.21    -0.00  -0.05  -0.14
  44   1     0.03  -0.07  -0.09     0.00  -0.05  -0.04    -0.01  -0.01  -0.03
  45   1     0.02  -0.04  -0.08     0.00  -0.03  -0.03    -0.00   0.00  -0.01
  46   6    -0.00   0.04   0.04    -0.05   0.05   0.01    -0.07  -0.00   0.01
  47   8     0.02   0.33   0.10    -0.04   0.16   0.04     0.01   0.25   0.09
  48   7    -0.02   0.01   0.05    -0.05   0.15   0.04    -0.18  -0.55  -0.05
  49   1     0.00   0.03   0.02    -0.01   0.06   0.02    -0.04  -0.12  -0.01
  50   1    -0.01  -0.06  -0.01    -0.01   0.01   0.00    -0.07  -0.20  -0.04
  51   7    -0.03  -0.24  -0.02    -0.07  -0.17  -0.04    -0.08   0.26  -0.01
  52   1    -0.02  -0.11  -0.01    -0.03  -0.06  -0.01    -0.03   0.01  -0.00
  53   1    -0.01  -0.05   0.00    -0.03  -0.06  -0.01     0.01   0.16   0.02
                     16                     17                     18
                        a                      a                      a 
 Frequencies --    99.6987               102.3339               107.6435
 Red. masses --    12.7367                12.0863                12.3401
 Frc consts  --     0.0000                 0.0000                 0.0000
 IR Inten    --     4.1108                11.2614                 6.1195
 Raman Activ --     0.0000                 0.0000                 0.0000
 Depolar     --     0.0000                 0.0000                 0.0000
 Atom AN      X      Y      Z        X      Y      Z        X      Y      Z
   1   8    -0.26  -0.04  -0.00     0.04  -0.06   0.05    -0.15   0.13  -0.13
   2   6    -0.18  -0.03  -0.01    -0.02  -0.10   0.14    -0.22   0.15  -0.19
   3   1    -0.04   0.01  -0.02    -0.01  -0.03   0.05    -0.05   0.04  -0.11
   4   1    -0.08  -0.01  -0.00    -0.00  -0.06   0.04    -0.12   0.06  -0.06
   5   6    -0.11  -0.09   0.07    -0.05  -0.03   0.21    -0.15   0.11  -0.03
   6   1    -0.04  -0.04   0.03    -0.01  -0.01   0.06    -0.07   0.02   0.03
   7   1    -0.02  -0.03   0.03    -0.03  -0.02   0.07    -0.06   0.03  -0.02
   8   7    -0.03  -0.03   0.11    -0.03   0.06   0.24     0.06   0.06   0.00
   9   6    -0.12  -0.04   0.05     0.11   0.13   0.18     0.21   0.06   0.14
  10   1    -0.03  -0.03   0.00     0.03   0.05   0.06     0.05   0.04   0.07
  11   1    -0.04  -0.01   0.02     0.04   0.06   0.06     0.09   0.00   0.04
  12   1    -0.05  -0.00   0.02     0.05   0.02   0.03     0.08   0.00   0.03
  13   6     0.07  -0.11   0.18    -0.13   0.15   0.28     0.02   0.10   0.10
  14   1     0.03  -0.02   0.06    -0.03   0.06   0.08     0.03   0.03   0.04
  15   1     0.01  -0.06   0.06    -0.03   0.06   0.08    -0.00   0.04   0.05
  16   1     0.04  -0.03   0.06    -0.06   0.03   0.09    -0.02   0.03   0.02
  17   6     0.04   0.14   0.07    -0.04  -0.04   0.18     0.13  -0.05  -0.18
  18   1    -0.01   0.06  -0.00     0.01  -0.03   0.05     0.06  -0.03  -0.07
  19   1     0.03   0.05   0.03    -0.01  -0.01   0.05     0.07  -0.02  -0.05
  20   1     0.03   0.05   0.03    -0.03  -0.02   0.04     0.00  -0.02  -0.08
  21   1    -0.08  -0.02   0.01     0.02  -0.01  -0.00    -0.05   0.04   0.00
  22   6     0.16   0.10  -0.05    -0.04  -0.08  -0.02     0.03  -0.10  -0.03
  23   8     0.31   0.35  -0.03    -0.04  -0.31  -0.12     0.10  -0.27  -0.13
  24   7     0.05  -0.03  -0.25    -0.04   0.04   0.08     0.02  -0.08  -0.03
  25   1     0.01   0.02  -0.09     0.00  -0.02   0.03     0.01  -0.03  -0.01
  26   1    -0.01  -0.04  -0.07    -0.01   0.05   0.05    -0.00   0.01   0.02
  27   7     0.17  -0.04   0.12    -0.08   0.06  -0.03    -0.02   0.06   0.07
  28   1     0.01  -0.06   0.04    -0.01   0.05  -0.00    -0.02   0.05   0.03
  29   1     0.07   0.02   0.09    -0.02  -0.02  -0.04    -0.00   0.01   0.01
  30   6     0.02   0.01  -0.13     0.06  -0.01  -0.24    -0.11  -0.02   0.03
  31   8     0.02   0.00  -0.16     0.11  -0.09  -0.30    -0.39  -0.07  -0.01
  32   7     0.01   0.02  -0.14     0.02   0.02  -0.20     0.05   0.00   0.07
  33   1     0.02   0.01  -0.03     0.03  -0.00  -0.04    -0.04  -0.01   0.02
  34   1     0.02   0.01  -0.03     0.02   0.02  -0.05     0.04   0.01   0.03
  35   7     0.03   0.03  -0.16     0.07   0.07  -0.35     0.04  -0.00   0.07
  36   1    -0.00   0.01  -0.04    -0.02   0.04  -0.09     0.06   0.01   0.02
  37   1    -0.00   0.01  -0.05     0.01   0.01  -0.12    -0.03  -0.00   0.01
  38   6    -0.06  -0.07   0.02     0.02   0.04  -0.01     0.00   0.05   0.02
  39   8    -0.20  -0.08  -0.03     0.07   0.04   0.02    -0.13   0.17   0.10
  40   7    -0.03  -0.18   0.13     0.00   0.09  -0.04     0.04  -0.08   0.05
  41   1    -0.03  -0.07   0.04     0.01   0.03  -0.02    -0.01  -0.03   0.03
  42   1     0.02  -0.05   0.05    -0.01   0.02  -0.02     0.04  -0.05  -0.01
  43   7     0.02   0.00  -0.01    -0.02   0.00  -0.00     0.09   0.05  -0.09
  44   1     0.02   0.00   0.01    -0.01  -0.00  -0.01     0.04  -0.01  -0.04
  45   1     0.00   0.01  -0.01    -0.00  -0.00   0.00     0.02   0.02  -0.02
  46   6     0.03   0.02   0.04    -0.01   0.00  -0.02     0.09  -0.07   0.04
  47   8     0.03  -0.07   0.03    -0.04   0.05  -0.03     0.17  -0.16   0.05
  48   7     0.05   0.22   0.09     0.02  -0.04  -0.06     0.03  -0.15   0.07
  49   1     0.01   0.03   0.02     0.01   0.00  -0.02     0.01  -0.03   0.03
  50   1     0.01   0.06   0.02     0.01  -0.01  -0.01    -0.00  -0.01   0.03
  51   7     0.02  -0.07   0.03     0.01  -0.02   0.01     0.08   0.05  -0.02
  52   1     0.01   0.01   0.01     0.01  -0.02   0.00     0.01   0.03  -0.01
  53   1     0.00  -0.04  -0.00    -0.01  -0.00   0.01     0.04   0.02  -0.02
                     19                     20                     21
                        a                      a                      a 
 Frequencies --   116.3233               123.5505               135.3177
 Red. masses --    12.6285                11.9552                12.9284
 Frc consts  --     0.0000                 0.0000                 0.0000
 IR Inten    --    21.6270                 0.4043                 0.3645
 Raman Activ --     0.0000                 0.0000                 0.0000
 Depolar     --     0.0000                 0.0000                 0.0000
 Atom AN      X      Y      Z        X      Y      Z        X      Y      Z
   1   8    -0.05   0.04  -0.05    -0.22   0.16  -0.23     0.04   0.01   0.05
   2   6     0.04   0.02   0.01     0.10   0.03   0.09    -0.07   0.05  -0.06
   3   1     0.02   0.03   0.00     0.03   0.07   0.11    -0.02  -0.01  -0.04
   4   1     0.00  -0.01   0.00     0.10  -0.06   0.02    -0.04   0.04  -0.02
   5   6     0.11  -0.05   0.07     0.16  -0.09  -0.01    -0.11   0.10  -0.06
   6   1     0.02  -0.03   0.03     0.05  -0.07  -0.05    -0.03   0.05  -0.00
   7   1     0.04  -0.01   0.02     0.10  -0.03   0.03    -0.05   0.03  -0.03
   8   7     0.21  -0.06   0.09    -0.05   0.00  -0.03    -0.09   0.07  -0.07
   9   6     0.18  -0.08   0.10    -0.02   0.08  -0.16    -0.05   0.05   0.00
  10   1     0.04  -0.03   0.04     0.01   0.03  -0.07    -0.02   0.02   0.01
  11   1     0.06  -0.02   0.03    -0.03   0.05  -0.05    -0.01   0.00   0.00
  12   1     0.04  -0.02   0.02     0.01   0.01  -0.04    -0.01   0.01   0.01
  13   6     0.23  -0.09   0.12    -0.14   0.09  -0.10    -0.10   0.07  -0.06
  14   1     0.07  -0.02   0.04    -0.06   0.03  -0.03    -0.02   0.02  -0.02
  15   1     0.06  -0.03   0.04    -0.02   0.04  -0.05    -0.03   0.03  -0.01
  16   1     0.07  -0.02   0.03    -0.05   0.02  -0.02    -0.03   0.02  -0.02
  17   6     0.24  -0.02   0.04    -0.17  -0.07   0.13    -0.07   0.02  -0.11
  18   1     0.06   0.00   0.01    -0.03  -0.04   0.06    -0.02   0.00  -0.03
  19   1     0.08  -0.01   0.01    -0.09  -0.01   0.03    -0.01  -0.00  -0.03
  20   1     0.07  -0.00   0.01    -0.05  -0.04   0.06    -0.03   0.01  -0.05
  21   1    -0.02  -0.01  -0.02    -0.08  -0.02  -0.08     0.01   0.01   0.03
  22   6    -0.12   0.02  -0.06     0.08  -0.08   0.05     0.18  -0.12   0.05
  23   8    -0.40   0.08   0.08    -0.04  -0.18   0.10     0.17  -0.23   0.04
  24   7     0.12  -0.16  -0.03     0.26  -0.22   0.08     0.27  -0.21   0.05
  25   1     0.02  -0.04   0.02     0.05  -0.04   0.04     0.08  -0.07   0.01
  26   1     0.07  -0.06  -0.06     0.09  -0.06   0.00     0.08  -0.06   0.00
  27   7    -0.11   0.15  -0.32     0.06   0.14  -0.01     0.15   0.06   0.10
  28   1     0.03   0.03  -0.12     0.04   0.06  -0.00     0.04   0.05   0.04
  29   1    -0.09   0.08  -0.09    -0.03   0.06  -0.01     0.02   0.04   0.03
  30   6    -0.06   0.00  -0.01     0.05  -0.01  -0.01    -0.00  -0.00   0.02
  31   8    -0.22  -0.00  -0.04     0.17  -0.01   0.01    -0.00  -0.01   0.02
  32   7     0.04   0.01  -0.01    -0.02  -0.01   0.00    -0.00  -0.00   0.03
  33   1    -0.02   0.00  -0.01     0.01  -0.00   0.01    -0.00  -0.00   0.01
  34   1     0.03   0.00   0.00    -0.02  -0.00  -0.00    -0.01   0.00   0.01
  35   7     0.04   0.01   0.02    -0.01  -0.00  -0.04    -0.01  -0.00   0.02
  36   1     0.02   0.00   0.01    -0.02   0.00  -0.01     0.01  -0.00   0.01
  37   1    -0.03  -0.00   0.00     0.02  -0.00  -0.01     0.01  -0.00   0.01
  38   6    -0.07  -0.07  -0.02    -0.05   0.03  -0.07    -0.09  -0.09   0.05
  39   8    -0.08  -0.17  -0.15    -0.24   0.05  -0.14    -0.04  -0.16   0.03
  40   7    -0.08  -0.04   0.08    -0.02  -0.10   0.10    -0.11  -0.07   0.07
  41   1    -0.02  -0.03   0.01    -0.04  -0.05   0.05    -0.02  -0.03   0.00
  42   1    -0.02   0.00   0.04     0.04  -0.03   0.04    -0.03  -0.01   0.02
  43   7    -0.06  -0.01   0.02     0.08   0.09  -0.18    -0.12  -0.09   0.11
  44   1    -0.01   0.02   0.04     0.04   0.03  -0.03    -0.03  -0.01   0.04
  45   1    -0.02   0.01   0.00     0.02   0.04  -0.04    -0.04  -0.01   0.03
  46   6    -0.00   0.10   0.01     0.01   0.02   0.10     0.01   0.14  -0.08
  47   8    -0.05   0.21   0.01     0.17   0.03   0.16    -0.21   0.42  -0.10
  48   7     0.05   0.19  -0.01    -0.10   0.03   0.22     0.18   0.09  -0.26
  49   1     0.00   0.03  -0.02    -0.02   0.01   0.07     0.04   0.03  -0.10
  50   1     0.02  -0.00  -0.02    -0.05  -0.01   0.04     0.08  -0.01  -0.07
  51   7     0.01  -0.04   0.04    -0.03   0.02  -0.06     0.07  -0.11   0.13
  52   1     0.01  -0.03   0.01    -0.04   0.01  -0.03     0.06  -0.08   0.05
  53   1    -0.01  -0.02   0.02     0.02   0.01  -0.04    -0.02  -0.01   0.09
                     22                     23                     24
                        a                      a                      a 
 Frequencies --   147.8680               169.0595               185.3722
 Red. masses --    13.1622                12.4834                12.5027
 Frc consts  --     0.0000                 0.0000                 0.0000
 IR Inten    --    14.0491                20.1293                32.3428
 Raman Activ --     0.0000                 0.0000                 0.0000
 Depolar     --     0.0000                 0.0000                 0.0000
 Atom AN      X      Y      Z        X      Y      Z        X      Y      Z
   1   8     0.11  -0.03   0.11    -0.16   0.10  -0.08    -0.12   0.03   0.02
   2   6    -0.06   0.02  -0.03    -0.04   0.06  -0.01    -0.03   0.04  -0.02
   3   1    -0.02  -0.03  -0.04    -0.01   0.04   0.01     0.00   0.03  -0.01
   4   1    -0.04   0.03  -0.01    -0.01   0.01  -0.00    -0.01   0.02  -0.00
   5   6    -0.13   0.12  -0.01     0.01   0.00  -0.00     0.05  -0.07  -0.02
   6   1    -0.03   0.07   0.03    -0.00  -0.02  -0.01     0.01  -0.05  -0.02
   7   1    -0.08   0.04  -0.03     0.02   0.00   0.00     0.05  -0.02   0.01
   8   7    -0.04   0.05  -0.01     0.01   0.01  -0.00     0.03  -0.01  -0.02
   9   6    -0.02  -0.00   0.10     0.01   0.01  -0.00     0.04   0.03  -0.07
  10   1    -0.02  -0.00   0.06     0.00   0.00  -0.00     0.02   0.02  -0.04
  11   1     0.03  -0.02   0.03     0.00   0.00  -0.00    -0.01   0.01  -0.02
  12   1    -0.01   0.01   0.02     0.00   0.00  -0.00     0.02  -0.00  -0.01
  13   6    -0.01   0.01   0.01    -0.01   0.02  -0.00    -0.01   0.03   0.01
  14   1     0.01  -0.00   0.00    -0.00   0.01  -0.00     0.00   0.01   0.01
  15   1    -0.01  -0.00   0.01    -0.00   0.01   0.00    -0.00   0.02   0.01
  16   1     0.00   0.01  -0.00    -0.00   0.01  -0.00    -0.01   0.00   0.00
  17   6     0.02   0.03  -0.12     0.00  -0.00  -0.01     0.00  -0.01   0.02
  18   1    -0.00   0.02  -0.03     0.00  -0.00  -0.00     0.01  -0.01  -0.01
  19   1     0.03  -0.01  -0.03    -0.00  -0.00  -0.00    -0.00   0.02   0.01
  20   1     0.01   0.02  -0.06    -0.00  -0.00  -0.00    -0.01  -0.02   0.02
  21   1     0.05   0.02   0.01    -0.06  -0.01  -0.03    -0.03   0.00   0.01
  22   6     0.08  -0.04  -0.00     0.06   0.16   0.10    -0.03  -0.02   0.00
  23   8     0.09  -0.15  -0.04     0.01  -0.04   0.06    -0.05   0.03   0.03
  24   7     0.08  -0.01   0.03     0.02   0.53   0.38     0.01  -0.09  -0.04
  25   1     0.03  -0.01   0.00     0.01   0.12   0.13     0.00  -0.03  -0.01
  26   1     0.02  -0.00   0.01     0.00   0.17   0.13     0.00  -0.01  -0.00
  27   7     0.05   0.06   0.04     0.13   0.04  -0.13    -0.00  -0.05  -0.03
  28   1     0.02   0.01   0.00     0.07   0.05  -0.04    -0.03   0.04   0.02
  29   1     0.02  -0.01  -0.01     0.05  -0.07  -0.12    -0.03   0.05   0.03
  30   6    -0.01   0.00   0.00    -0.00  -0.00  -0.00    -0.00  -0.00   0.00
  31   8    -0.04   0.00  -0.00    -0.01  -0.00  -0.00    -0.00  -0.01   0.00
  32   7     0.01   0.00   0.00     0.01   0.00   0.00    -0.01  -0.00   0.00
  33   1    -0.01   0.00  -0.00    -0.01  -0.00   0.00     0.01  -0.00   0.00
  34   1    -0.00   0.00   0.00    -0.00   0.00  -0.00     0.01   0.00   0.00
  35   7    -0.01   0.00   0.01     0.00   0.00  -0.00     0.01  -0.00   0.00
  36   1     0.02   0.00   0.00     0.00   0.00  -0.00    -0.01  -0.00  -0.00
  37   1     0.00   0.00   0.00    -0.00  -0.00  -0.00    -0.01  -0.00  -0.00
  38   6     0.15  -0.09  -0.13    -0.04  -0.11  -0.05     0.23   0.07   0.00
  39   8     0.24  -0.32  -0.43    -0.10  -0.25  -0.23     0.07   0.17   0.00
  40   7     0.12   0.12   0.02    -0.04  -0.13   0.15     0.30  -0.09   0.12
  41   1     0.05  -0.00  -0.05    -0.03  -0.08   0.02     0.04  -0.04   0.07
  42   1     0.01   0.07   0.05     0.02  -0.02   0.07     0.13  -0.04   0.03
  43   7     0.11   0.02   0.01    -0.01   0.00   0.03     0.35   0.10  -0.12
  44   1     0.01   0.06   0.07     0.00   0.02   0.04     0.11   0.02  -0.04
  45   1     0.04  -0.01   0.00    -0.00  -0.01  -0.02     0.09   0.04  -0.05
  46   6    -0.18   0.04   0.09     0.03  -0.10  -0.06    -0.23  -0.03  -0.02
  47   8    -0.04  -0.04   0.15    -0.07  -0.19  -0.11    -0.45  -0.10  -0.08
  48   7    -0.27   0.20   0.25     0.09  -0.11  -0.12    -0.05   0.00  -0.18
  49   1    -0.08   0.02   0.08     0.02  -0.04  -0.04    -0.02   0.01  -0.09
  50   1    -0.09   0.03   0.05     0.04  -0.01  -0.02     0.04   0.01  -0.03
  51   7    -0.24  -0.01  -0.07     0.08   0.01   0.07    -0.16  -0.05   0.34
  52   1    -0.10   0.02  -0.03     0.04  -0.01   0.03     0.05   0.05   0.12
  53   1    -0.05  -0.03  -0.05     0.00  -0.01   0.03    -0.09   0.00   0.15
                     25                     26                     27
                        a                      a                      a 
 Frequencies --   190.1853               193.8683               257.7065
 Red. masses --     5.2401                 9.3025                12.1363
 Frc consts  --     0.0000                 0.0000                 0.0000
 IR Inten    --    16.8915                 3.0628                18.9895
 Raman Activ --     0.0000                 0.0000                 0.0000
 Depolar     --     0.0000                 0.0000                 0.0000
 Atom AN      X      Y      Z        X      Y      Z        X      Y      Z
   1   8     0.15   0.07  -0.22    -0.27  -0.13   0.43     0.17  -0.35   0.37
   2   6     0.05  -0.03   0.02    -0.09   0.08  -0.07     0.18  -0.24   0.12
   3   1    -0.00  -0.02   0.04     0.01   0.03  -0.10     0.02  -0.11   0.07
   4   1     0.04  -0.06   0.00    -0.08   0.13  -0.02     0.11  -0.02   0.04
   5   6    -0.06   0.13   0.04     0.11  -0.23  -0.12    -0.03   0.02  -0.08
   6   1    -0.01   0.08   0.04     0.01  -0.16  -0.08     0.02   0.08  -0.01
   7   1    -0.06   0.04  -0.02     0.13  -0.08   0.02    -0.09  -0.00  -0.04
   8   7    -0.04  -0.00   0.03     0.07   0.01  -0.10     0.01   0.08  -0.07
   9   6    -0.08  -0.08   0.13     0.15   0.15  -0.26     0.04   0.04   0.03
  10   1    -0.05  -0.05   0.07     0.10   0.09  -0.14     0.01   0.03   0.02
  11   1     0.03  -0.04   0.04    -0.04   0.06  -0.09     0.01  -0.02   0.00
  12   1    -0.05  -0.00   0.01     0.10   0.00  -0.03     0.02   0.01   0.04
  13   6     0.03  -0.08  -0.06    -0.05   0.15   0.09     0.01   0.09   0.01
  14   1    -0.00  -0.04  -0.02     0.02   0.06   0.04     0.01   0.04   0.00
  15   1     0.01  -0.03  -0.03    -0.02   0.07   0.06     0.00   0.02   0.00
  16   1     0.03  -0.01  -0.02    -0.07   0.02   0.02    -0.00   0.02   0.01
  17   6    -0.03  -0.01   0.01     0.03   0.02  -0.04     0.10   0.11  -0.19
  18   1    -0.02   0.01   0.03     0.05  -0.03  -0.09    -0.02   0.07   0.02
  19   1    -0.01  -0.03  -0.00     0.01   0.10   0.01     0.04  -0.07  -0.07
  20   1     0.01   0.02  -0.02    -0.04  -0.05   0.05     0.08   0.10  -0.12
  21   1     0.02   0.00  -0.04    -0.03   0.00   0.09     0.06  -0.08   0.09
  22   6     0.01  -0.00  -0.00    -0.01  -0.00   0.00     0.00   0.01   0.01
  23   8     0.01  -0.01  -0.01    -0.00   0.01   0.00    -0.01  -0.03   0.01
  24   7     0.01   0.00  -0.00    -0.01   0.00   0.01     0.02   0.01   0.02
  25   1     0.00   0.00   0.00     0.00  -0.01   0.00    -0.01   0.03   0.01
  26   1    -0.00   0.00   0.00     0.00  -0.00   0.00    -0.00  -0.00   0.01
  27   7     0.01   0.01   0.00    -0.01   0.00   0.01     0.02   0.00  -0.03
  28   1     0.00   0.01   0.00     0.01  -0.02  -0.01    -0.01   0.05   0.01
  29   1     0.00  -0.00  -0.00     0.01  -0.01  -0.00    -0.02   0.02  -0.00
  30   6    -0.00   0.00   0.03    -0.00  -0.02   0.02    -0.01   0.00   0.01
  31   8    -0.01   0.01   0.02    -0.01  -0.03   0.01    -0.02   0.00   0.01
  32   7    -0.28  -0.02  -0.06    -0.14  -0.02  -0.00    -0.00   0.00   0.01
  33   1     0.33   0.02   0.06     0.17   0.00   0.04    -0.00  -0.00   0.00
  34   1     0.43   0.02   0.11     0.22   0.01   0.07     0.00   0.00   0.00
  35   7     0.29   0.03   0.04     0.14   0.01   0.02     0.01  -0.00   0.02
  36   1    -0.44  -0.04  -0.02    -0.22  -0.02  -0.01    -0.01  -0.00   0.00
  37   1    -0.34  -0.02  -0.04    -0.17  -0.01  -0.03    -0.01  -0.00   0.01
  38   6    -0.00   0.01  -0.00     0.00  -0.03   0.00    -0.17   0.08  -0.08
  39   8    -0.04   0.03   0.00     0.10  -0.08  -0.02    -0.33   0.12  -0.12
  40   7     0.01  -0.02   0.03    -0.02   0.06  -0.07    -0.10  -0.15   0.08
  41   1    -0.00  -0.02   0.00     0.01   0.04  -0.01    -0.08  -0.05   0.08
  42   1     0.01  -0.02  -0.00    -0.04   0.04   0.01     0.03  -0.03   0.07
  43   7     0.02   0.02  -0.03    -0.07  -0.06   0.07     0.04   0.25  -0.22
  44   1     0.01   0.01  -0.01    -0.03  -0.01   0.02     0.07   0.05  -0.05
  45   1     0.01   0.01  -0.01    -0.02  -0.03   0.02     0.00   0.10  -0.09
  46   6    -0.01  -0.01  -0.00     0.02   0.01   0.01     0.01  -0.02   0.00
  47   8    -0.02  -0.02  -0.01     0.06   0.03   0.02     0.01  -0.04   0.00
  48   7     0.00  -0.01  -0.01    -0.01   0.02   0.04     0.00  -0.02   0.01
  49   1     0.00  -0.00  -0.01    -0.00  -0.00   0.02    -0.00  -0.00  -0.01
  50   1     0.00  -0.00  -0.00    -0.01  -0.00   0.00     0.00  -0.02  -0.00
  51   7    -0.00  -0.00   0.02     0.01   0.01  -0.06     0.01  -0.01   0.03
  52   1     0.01   0.01   0.01    -0.02  -0.02  -0.02     0.02   0.03   0.01
  53   1    -0.00   0.00   0.01     0.01  -0.01  -0.03     0.00   0.01   0.01
                     28                     29                     30
                        a                      a                      a 
 Frequencies --   277.3623               293.0946               301.5248
 Red. masses --     5.8780                 2.7022                 3.4814
 Frc consts  --     0.0000                 0.0000                 0.0000
 IR Inten    --     2.5111                45.7571               393.9643
 Raman Activ --     0.0000                 0.0000                 0.0000
 Depolar     --     0.0000                 0.0000                 0.0000
 Atom AN      X      Y      Z        X      Y      Z        X      Y      Z
   1   8     0.34  -0.05   0.07     0.04  -0.01  -0.04    -0.00   0.02  -0.02
   2   6    -0.07   0.07  -0.24    -0.00  -0.00  -0.06    -0.02   0.02  -0.03
   3   1     0.02  -0.02  -0.22     0.00  -0.01  -0.04    -0.00   0.00  -0.02
   4   1    -0.17   0.09  -0.07    -0.02   0.01  -0.02    -0.02   0.01  -0.01
   5   6     0.04   0.02   0.07    -0.00   0.02   0.01    -0.00   0.00   0.01
   6   1    -0.01  -0.03   0.03    -0.00   0.01   0.01    -0.01  -0.01   0.01
   7   1     0.03   0.01   0.02    -0.01   0.01   0.00     0.00   0.00   0.01
   8   7     0.03  -0.01   0.08    -0.00   0.01   0.02     0.01   0.00   0.02
   9   6    -0.05  -0.06   0.10    -0.02  -0.02   0.05     0.01   0.00   0.01
  10   1     0.08   0.09  -0.09     0.01   0.02  -0.00    -0.00  -0.01   0.01
  11   1    -0.20  -0.09  -0.02    -0.04  -0.02   0.00     0.02   0.01   0.01
  12   1     0.05  -0.06   0.22     0.01  -0.01   0.05    -0.00   0.00  -0.01
  13   6     0.03  -0.03  -0.13     0.01  -0.01  -0.03     0.00   0.01  -0.01
  14   1     0.07  -0.13  -0.04     0.03  -0.04  -0.01    -0.03   0.02  -0.01
  15   1    -0.02   0.06   0.05    -0.01   0.02   0.02     0.02  -0.01  -0.04
  16   1    -0.03   0.04  -0.17    -0.01   0.01  -0.05     0.01  -0.01   0.02
  17   6    -0.08  -0.02   0.24    -0.02   0.01   0.04    -0.00  -0.00   0.03
  18   1     0.10  -0.11  -0.16     0.02  -0.02  -0.05     0.00  -0.00   0.01
  19   1    -0.02   0.27   0.14    -0.00   0.07   0.03    -0.01   0.00   0.01
  20   1    -0.17  -0.19   0.26    -0.04  -0.04   0.06    -0.00  -0.00   0.01
  21   1     0.07   0.02   0.11     0.02  -0.01  -0.02     0.00   0.00  -0.01
  22   6    -0.00   0.00   0.00     0.02  -0.02  -0.01    -0.04   0.05   0.02
  23   8    -0.01  -0.01   0.00     0.01  -0.01  -0.00    -0.01  -0.01  -0.01
  24   7     0.00   0.00   0.01     0.00  -0.00   0.01    -0.03   0.06   0.03
  25   1    -0.00   0.01   0.01     0.00  -0.00  -0.00     0.01  -0.01  -0.01
  26   1     0.00   0.00   0.00    -0.00  -0.00   0.01     0.02  -0.02  -0.04
  27   7     0.01  -0.01  -0.02    -0.06   0.11   0.05     0.16  -0.28  -0.15
  28   1    -0.02   0.04   0.02     0.10  -0.19  -0.10    -0.27   0.54   0.27
  29   1    -0.01   0.02   0.01     0.07  -0.11  -0.07    -0.18   0.30   0.19
  30   6     0.01  -0.00  -0.00     0.00  -0.00  -0.00     0.00  -0.00  -0.00
  31   8     0.02  -0.00  -0.00     0.00  -0.00  -0.00     0.00  -0.00  -0.00
  32   7     0.01  -0.00  -0.01     0.00   0.00  -0.00    -0.01  -0.00  -0.00
  33   1    -0.00   0.00  -0.00    -0.00   0.00  -0.00     0.01  -0.00   0.00
  34   1    -0.01  -0.00  -0.01    -0.01  -0.00  -0.00     0.01   0.00   0.00
  35   7    -0.01   0.00  -0.02    -0.00   0.00  -0.00    -0.00   0.00  -0.01
  36   1     0.01   0.01  -0.00     0.00   0.00  -0.00     0.00   0.00  -0.00
  37   1     0.01   0.00  -0.01     0.00   0.00  -0.00     0.00   0.00  -0.00
  38   6    -0.08   0.01  -0.06    -0.01   0.04   0.04    -0.00  -0.02   0.01
  39   8    -0.13   0.02  -0.09    -0.02   0.02  -0.01     0.02  -0.05  -0.02
  40   7    -0.07  -0.02   0.09     0.07  -0.19  -0.22     0.00  -0.03  -0.10
  41   1    -0.02  -0.09  -0.05    -0.09   0.27   0.34    -0.02   0.11   0.11
  42   1     0.03  -0.09  -0.08    -0.10   0.42   0.56    -0.06   0.17   0.20
  43   7     0.01   0.13  -0.10     0.01  -0.01  -0.02    -0.03  -0.02   0.04
  44   1     0.03   0.05   0.02     0.03  -0.12  -0.16     0.00  -0.07  -0.07
  45   1    -0.00   0.06  -0.03     0.01  -0.04  -0.06    -0.00  -0.04  -0.02
  46   6     0.01  -0.01   0.00    -0.01  -0.01  -0.00     0.04   0.04   0.01
  47   8     0.01  -0.02   0.01    -0.02   0.00  -0.00     0.04   0.03   0.02
  48   7    -0.00  -0.01   0.01     0.00   0.02   0.01     0.00  -0.01   0.02
  49   1    -0.00   0.00  -0.00    -0.01  -0.01  -0.01    -0.00  -0.02   0.01
  50   1    -0.00  -0.01   0.00    -0.01  -0.05  -0.02    -0.01  -0.01  -0.00
  51   7    -0.00  -0.01  -0.00     0.02   0.04   0.03    -0.04  -0.14  -0.06
  52   1     0.00   0.03   0.00    -0.01  -0.09   0.01     0.04   0.27  -0.00
  53   1     0.01   0.01  -0.00    -0.02  -0.04   0.01     0.06   0.13  -0.00
                     31                     32                     33
                        a                      a                      a 
 Frequencies --   313.0328               327.1414               332.5436
 Red. masses --     9.6582                 3.9077                 3.5608
 Frc consts  --     0.0000                 0.0000                 0.0000
 IR Inten    --     1.1331                10.1229               507.2363
 Raman Activ --     0.0000                 0.0000                 0.0000
 Depolar     --     0.0000                 0.0000                 0.0000
 Atom AN      X      Y      Z        X      Y      Z        X      Y      Z
   1   8     0.36   0.26   0.05    -0.14   0.05  -0.13     0.03  -0.00   0.01
   2   6     0.01   0.15   0.12     0.13  -0.08   0.22    -0.02   0.02  -0.04
   3   1    -0.00   0.01   0.02     0.00   0.00   0.20     0.00   0.00  -0.04
   4   1    -0.01   0.04   0.03     0.17  -0.10   0.07    -0.03   0.02  -0.01
   5   6    -0.04   0.06   0.01    -0.02   0.03  -0.03     0.02  -0.01   0.01
   6   1    -0.01   0.01   0.00     0.02   0.04  -0.03     0.00  -0.01   0.00
   7   1     0.02   0.04  -0.04    -0.02   0.01  -0.01     0.01  -0.01   0.01
   8   7    -0.09  -0.14  -0.03    -0.06   0.02  -0.04     0.02  -0.00   0.01
   9   6    -0.08   0.02  -0.35    -0.09  -0.03   0.02     0.01  -0.00   0.01
  10   1    -0.06  -0.08  -0.09     0.07   0.11  -0.11     0.00  -0.00  -0.00
  11   1     0.03   0.12  -0.07    -0.21  -0.09  -0.05    -0.01  -0.00  -0.00
  12   1    -0.05   0.02  -0.22     0.04  -0.05   0.19     0.00   0.00   0.01
  13   6    -0.01  -0.17   0.43    -0.00  -0.02   0.14    -0.00   0.01  -0.01
  14   1     0.06   0.05   0.15     0.30  -0.24   0.07    -0.06   0.05  -0.01
  15   1    -0.04  -0.12   0.14    -0.14   0.13   0.36     0.03  -0.02  -0.06
  16   1    -0.00  -0.08   0.20    -0.15   0.09  -0.29     0.02  -0.02   0.06
  17   6    -0.04  -0.21  -0.15     0.08   0.09  -0.24     0.00  -0.02   0.02
  18   1     0.05  -0.11  -0.14     0.06  -0.00  -0.19    -0.01   0.01   0.05
  19   1     0.03   0.03  -0.01     0.10   0.12  -0.02    -0.01  -0.05  -0.01
  20   1    -0.11  -0.13  -0.01    -0.06  -0.04  -0.03     0.03   0.02  -0.02
  21   1     0.09   0.08   0.03    -0.05  -0.04  -0.07     0.01   0.01   0.01
  22   6     0.01   0.01   0.00    -0.00  -0.01  -0.00    -0.00   0.00   0.00
  23   8     0.00   0.01   0.01     0.01  -0.02  -0.01    -0.01   0.00   0.00
  24   7    -0.00   0.01  -0.01    -0.01   0.00  -0.00     0.00  -0.00   0.00
  25   1    -0.00   0.01  -0.00     0.00  -0.00  -0.01    -0.00  -0.00   0.00
  26   1    -0.00  -0.00  -0.00    -0.00   0.00  -0.00     0.00   0.00   0.00
  27   7     0.01   0.00  -0.00     0.01  -0.02  -0.02    -0.00   0.00  -0.00
  28   1     0.00   0.00  -0.00    -0.03   0.06   0.03     0.00  -0.01  -0.01
  29   1     0.00   0.00   0.00    -0.02   0.03   0.01    -0.00  -0.00  -0.00
  30   6    -0.00  -0.01  -0.00     0.01   0.01   0.00     0.11   0.01   0.02
  31   8    -0.02  -0.01  -0.01    -0.02   0.00  -0.00     0.02  -0.02  -0.00
  32   7     0.00  -0.01   0.00    -0.04   0.00  -0.02    -0.28  -0.01  -0.09
  33   1    -0.00  -0.00   0.00     0.04   0.00   0.01     0.28   0.00   0.06
  34   1     0.01   0.00   0.00     0.08   0.01   0.02     0.53   0.06   0.14
  35   7     0.00  -0.00  -0.01    -0.05  -0.01   0.01    -0.30  -0.02  -0.00
  36   1     0.01   0.00  -0.00     0.09   0.01   0.01     0.55   0.08   0.05
  37   1     0.00  -0.00  -0.01     0.04   0.00   0.01     0.28   0.01   0.03
  38   6    -0.05   0.01  -0.02     0.04  -0.01   0.02    -0.01   0.00  -0.00
  39   8    -0.08   0.01  -0.03     0.06  -0.01   0.03    -0.01   0.00  -0.01
  40   7    -0.03  -0.06   0.03     0.03   0.04  -0.02    -0.00  -0.01   0.01
  41   1    -0.02  -0.01   0.03     0.02   0.01  -0.02    -0.00  -0.00   0.00
  42   1     0.00   0.01   0.04    -0.00  -0.00  -0.03     0.00   0.00   0.01
  43   7     0.01   0.07  -0.05    -0.01  -0.06   0.05     0.00   0.01  -0.01
  44   1     0.02   0.01  -0.02    -0.02  -0.01   0.01     0.00   0.00  -0.00
  45   1     0.00   0.03  -0.03    -0.00  -0.02   0.02     0.00   0.01  -0.00
  46   6     0.00  -0.00  -0.00     0.00   0.01   0.00    -0.00  -0.00  -0.00
  47   8     0.00  -0.01  -0.00     0.00   0.01   0.00    -0.00  -0.01  -0.00
  48   7     0.00   0.00   0.01    -0.00  -0.01  -0.01    -0.00   0.00   0.00
  49   1    -0.00  -0.01  -0.00     0.00   0.01   0.00    -0.00  -0.00  -0.00
  50   1    -0.00  -0.02  -0.01     0.00   0.02   0.01    -0.00  -0.00  -0.00
  51   7     0.00  -0.01   0.01    -0.01  -0.01  -0.01     0.01   0.02   0.01
  52   1     0.01   0.01   0.00    -0.00   0.02  -0.00    -0.00  -0.04   0.00
  53   1     0.00   0.00   0.00     0.01   0.01  -0.00    -0.01  -0.01   0.00
                     34                     35                     36
                        a                      a                      a 
 Frequencies --   359.1270               369.8935               372.9358
 Red. masses --     4.9266                 2.3927                 5.0058
 Frc consts  --     0.0000                 0.0000                 0.0000
 IR Inten    --     3.7523                82.5224                 0.6911
 Raman Activ --     0.0000                 0.0000                 0.0000
 Depolar     --     0.0000                 0.0000                 0.0000
 Atom AN      X      Y      Z        X      Y      Z        X      Y      Z
   1   8     0.23   0.11  -0.04     0.04   0.01   0.00     0.04   0.03  -0.01
   2   6    -0.02   0.13  -0.15    -0.03   0.01  -0.00    -0.16  -0.01   0.06
   3   1     0.04   0.05  -0.16    -0.01  -0.00  -0.01    -0.08  -0.04   0.05
   4   1    -0.14   0.07  -0.05    -0.02   0.01  -0.00    -0.01  -0.01   0.02
   5   6     0.19  -0.19   0.08    -0.03   0.01   0.01    -0.24   0.12  -0.01
   6   1     0.03  -0.19  -0.06    -0.01   0.00   0.01    -0.08   0.08   0.06
   7   1     0.19  -0.07   0.10    -0.01   0.01  -0.00    -0.13   0.06  -0.07
   8   7    -0.03  -0.07   0.07     0.00  -0.01   0.01     0.01  -0.04  -0.01
   9   6    -0.17  -0.12   0.05     0.02   0.01  -0.04     0.23   0.16  -0.23
  10   1    -0.00  -0.01  -0.06     0.05   0.05  -0.06     0.23   0.24  -0.26
  11   1    -0.14  -0.08  -0.01    -0.07  -0.00  -0.03    -0.21   0.04  -0.12
  12   1    -0.04  -0.03   0.11     0.04  -0.02   0.05     0.23  -0.09   0.13
  13   6    -0.22   0.10   0.11     0.01  -0.02   0.01     0.17  -0.20  -0.02
  14   1     0.03  -0.04   0.04     0.00  -0.01   0.00     0.08  -0.11  -0.01
  15   1    -0.09   0.14   0.15     0.00  -0.01   0.00     0.02  -0.08   0.03
  16   1    -0.18   0.04  -0.09     0.01  -0.01   0.01     0.09  -0.02  -0.06
  17   6     0.07  -0.00  -0.07    -0.00  -0.02   0.02    -0.10  -0.06   0.20
  18   1    -0.14   0.14   0.23    -0.03   0.02   0.06    -0.11   0.05   0.30
  19   1     0.03  -0.33  -0.10    -0.01  -0.07  -0.01    -0.14  -0.22  -0.02
  20   1     0.22   0.23  -0.25     0.04   0.03  -0.03     0.12   0.12  -0.05
  21   1     0.04   0.04   0.05     0.01   0.01   0.01     0.01   0.02   0.01
  22   6    -0.00   0.00  -0.01    -0.01   0.03   0.01     0.00  -0.01   0.00
  23   8     0.00   0.01  -0.01    -0.02   0.01   0.01     0.00  -0.01   0.00
  24   7    -0.00   0.00   0.00    -0.00  -0.02  -0.03     0.00   0.00   0.01
  25   1     0.00  -0.01   0.00    -0.00  -0.00  -0.00     0.00   0.00  -0.00
  26   1     0.00   0.01   0.00    -0.00   0.01   0.00     0.00  -0.01  -0.00
  27   7    -0.01   0.00   0.01     0.05  -0.10  -0.04    -0.01   0.02   0.01
  28   1     0.01  -0.02  -0.01    -0.09   0.19   0.10     0.02  -0.03  -0.02
  29   1     0.01  -0.01  -0.00    -0.05   0.09   0.06     0.01  -0.02  -0.01
  30   6    -0.00   0.01  -0.00    -0.00   0.00  -0.00     0.01   0.01   0.00
  31   8     0.00   0.01   0.00     0.00   0.00   0.00     0.02   0.01   0.00
  32   7     0.02   0.01  -0.00     0.01   0.00   0.00     0.00   0.00  -0.00
  33   1    -0.02   0.00  -0.01    -0.01   0.00  -0.00    -0.00   0.00  -0.00
  34   1    -0.03  -0.00  -0.01    -0.02  -0.00  -0.01    -0.01  -0.00  -0.00
  35   7     0.02   0.00   0.01     0.01   0.00  -0.00     0.00  -0.00   0.01
  36   1    -0.05  -0.01  -0.00    -0.03  -0.00  -0.00    -0.02  -0.01  -0.00
  37   1    -0.02   0.00   0.01    -0.01   0.00   0.00     0.00   0.00   0.01
  38   6    -0.02  -0.00  -0.01     0.00   0.00  -0.03     0.00  -0.00   0.00
  39   8    -0.01  -0.01  -0.01    -0.00   0.00  -0.03     0.00  -0.01   0.00
  40   7    -0.01  -0.01  -0.00     0.02  -0.02   0.02    -0.00   0.00  -0.01
  41   1    -0.01  -0.00   0.00    -0.01  -0.01   0.02     0.00   0.00  -0.00
  42   1    -0.01   0.02   0.03     0.01   0.02   0.04    -0.01   0.01   0.01
  43   7     0.00   0.02  -0.01     0.00   0.01  -0.01     0.00  -0.00   0.01
  44   1     0.01   0.00  -0.01     0.00  -0.02  -0.03     0.00  -0.01  -0.00
  45   1     0.00   0.01  -0.01    -0.00   0.00   0.00     0.00  -0.00  -0.00
  46   6     0.00  -0.00  -0.00    -0.03   0.00   0.04     0.00   0.00  -0.01
  47   8     0.00  -0.00   0.00    -0.01  -0.01   0.03     0.00   0.00  -0.00
  48   7     0.00   0.01   0.01    -0.01  -0.12  -0.07     0.00   0.02   0.01
  49   1    -0.00  -0.01  -0.00     0.02   0.03   0.03    -0.00   0.00  -0.01
  50   1    -0.01  -0.04  -0.02     0.07   0.46   0.18    -0.01  -0.08  -0.03
  51   7    -0.01  -0.02  -0.00     0.05   0.23  -0.02    -0.01  -0.04   0.00
  52   1     0.01   0.06   0.00    -0.15  -0.70  -0.05     0.03   0.12   0.01
  53   1     0.01   0.01  -0.00    -0.08  -0.12   0.00     0.01   0.02  -0.00
                     37                     38                     39
                        a                      a                      a 
 Frequencies --   383.1739               415.2513               427.6513
 Red. masses --     2.5835                 3.8436                 8.5748
 Frc consts  --     0.0000                 0.0000                 0.0000
 IR Inten    --     3.3724               126.8411                 0.0917
 Raman Activ --     0.0000                 0.0000                 0.0000
 Depolar     --     0.0000                 0.0000                 0.0000
 Atom AN      X      Y      Z        X      Y      Z        X      Y      Z
   1   8     0.04  -0.02   0.09     0.00   0.01  -0.01    -0.15  -0.17   0.03
   2   6    -0.07   0.00  -0.02    -0.00   0.00   0.01     0.06  -0.04  -0.16
   3   1    -0.02  -0.02  -0.02    -0.00   0.00   0.01     0.03  -0.00  -0.07
   4   1    -0.03   0.03  -0.00     0.00  -0.00   0.00    -0.01   0.01  -0.05
   5   6    -0.05  -0.01  -0.02    -0.00  -0.01  -0.00     0.07   0.11   0.03
   6   1    -0.03  -0.00   0.03     0.00  -0.01  -0.01     0.02   0.05   0.02
   7   1    -0.02   0.01  -0.03     0.01  -0.00   0.00    -0.04   0.01   0.03
   8   7     0.03  -0.07  -0.02    -0.02  -0.01  -0.01     0.14   0.29   0.09
   9   6     0.17   0.04  -0.11     0.01  -0.01   0.01    -0.33   0.17  -0.03
  10   1    -0.13  -0.17   0.20     0.01   0.01   0.00    -0.12  -0.09  -0.04
  11   1     0.38   0.15   0.06     0.00  -0.00   0.00    -0.09   0.05  -0.01
  12   1    -0.06   0.08  -0.38     0.01  -0.01   0.01    -0.19   0.13  -0.02
  13   6    -0.01  -0.04  -0.10    -0.01  -0.01   0.00     0.32   0.14   0.06
  14   1     0.23  -0.26  -0.01    -0.00  -0.00   0.00     0.17  -0.05   0.02
  15   1    -0.11   0.15   0.26    -0.00  -0.00   0.00     0.04   0.02   0.10
  16   1    -0.15   0.09  -0.37    -0.00  -0.00  -0.00     0.11   0.09  -0.07
  17   6    -0.06   0.05   0.22    -0.01   0.02  -0.01    -0.05  -0.40   0.02
  18   1    -0.06   0.05   0.13    -0.01   0.01  -0.01     0.09  -0.21   0.14
  19   1    -0.07  -0.01   0.04     0.00   0.01  -0.00    -0.07  -0.24  -0.04
  20   1     0.06   0.04   0.08     0.00   0.01   0.00    -0.12  -0.10  -0.12
  21   1     0.03   0.02   0.00     0.00   0.00  -0.00    -0.03  -0.04  -0.00
  22   6     0.01   0.00  -0.01     0.00  -0.00  -0.03     0.00  -0.00  -0.00
  23   8     0.01  -0.00  -0.01    -0.01  -0.01  -0.02    -0.00  -0.00  -0.00
  24   7    -0.00   0.01  -0.01     0.01   0.03   0.04     0.00   0.00   0.00
  25   1     0.00  -0.00  -0.00    -0.01   0.04  -0.00    -0.00   0.01  -0.00
  26   1    -0.00   0.01   0.00     0.04  -0.11  -0.11     0.00  -0.02  -0.02
  27   7     0.01  -0.01   0.00     0.01  -0.07   0.02     0.00  -0.00   0.00
  28   1    -0.01   0.02   0.01    -0.10   0.18   0.11    -0.01   0.02   0.01
  29   1     0.00   0.00   0.00    -0.00  -0.01   0.01     0.00  -0.01  -0.00
  30   6    -0.00   0.00  -0.00    -0.00   0.00   0.00     0.00   0.01   0.00
  31   8    -0.01   0.00  -0.00     0.00  -0.00   0.00     0.00   0.00   0.00
  32   7    -0.01   0.00  -0.01     0.00  -0.00   0.00     0.01   0.00  -0.01
  33   1     0.01   0.00   0.00    -0.00   0.00  -0.00    -0.02  -0.00  -0.00
  34   1     0.03   0.00   0.01    -0.01  -0.00  -0.00     0.02   0.00   0.00
  35   7    -0.02  -0.00   0.00     0.00  -0.00   0.00    -0.00   0.00   0.00
  36   1     0.06   0.01   0.01    -0.01  -0.00  -0.00    -0.02  -0.01  -0.00
  37   1     0.00  -0.00  -0.00    -0.00   0.00   0.00     0.02   0.00   0.01
  38   6    -0.02   0.00  -0.01    -0.00   0.04   0.07     0.01   0.01   0.01
  39   8    -0.02   0.00  -0.01    -0.00   0.02   0.05     0.01   0.01   0.00
  40   7    -0.01  -0.02   0.02     0.00  -0.02  -0.06     0.01   0.00  -0.01
  41   1    -0.01  -0.01   0.01     0.01   0.02  -0.00     0.00   0.00   0.00
  42   1     0.00  -0.01   0.00    -0.01  -0.00  -0.02     0.00  -0.00  -0.01
  43   7     0.00   0.02  -0.02     0.03  -0.06  -0.07    -0.00  -0.02  -0.00
  44   1     0.01   0.01  -0.00    -0.02   0.16   0.20    -0.01   0.02   0.03
  45   1    -0.00   0.01  -0.01     0.00   0.02   0.02    -0.00  -0.00   0.01
  46   6    -0.00  -0.00   0.00    -0.00  -0.08  -0.08     0.00  -0.00  -0.00
  47   8    -0.00  -0.00  -0.00    -0.04  -0.11  -0.09    -0.00  -0.00  -0.00
  48   7    -0.00  -0.00  -0.00    -0.02   0.25   0.16     0.00   0.01   0.00
  49   1    -0.00  -0.01   0.00    -0.03  -0.01  -0.02    -0.00  -0.00   0.00
  50   1     0.00   0.02   0.01    -0.09  -0.63  -0.24    -0.00  -0.02  -0.01
  51   7     0.00   0.01   0.00     0.11   0.22   0.03     0.00   0.01   0.00
  52   1    -0.01  -0.04  -0.00    -0.00  -0.40   0.00     0.00  -0.01  -0.00
  53   1    -0.00  -0.00   0.00    -0.06  -0.03   0.06    -0.00  -0.00   0.00
                     40                     41                     42
                        a                      a                      a 
 Frequencies --   444.0187               445.7599               454.9747
 Red. masses --     1.5949                 3.4126                 8.3062
 Frc consts  --     0.0000                 0.0000                 0.0000
 IR Inten    --     4.8330               262.4149                 4.2578
 Raman Activ --     0.0000                 0.0000                 0.0000
 Depolar     --     0.0000                 0.0000                 0.0000
 Atom AN      X      Y      Z        X      Y      Z        X      Y      Z
   1   8    -0.01  -0.01   0.00    -0.00  -0.01  -0.00     0.04   0.01  -0.01
   2   6     0.01   0.00  -0.02    -0.00  -0.01   0.01    -0.08  -0.03   0.08
   3   1     0.00   0.00  -0.00    -0.00  -0.00   0.00    -0.01  -0.01   0.00
   4   1     0.00   0.00  -0.01     0.00  -0.01   0.00    -0.05  -0.03   0.02
   5   6     0.01   0.01  -0.02     0.00  -0.01   0.01    -0.02  -0.06   0.15
   6   1     0.00   0.01  -0.00     0.00  -0.00  -0.00    -0.01  -0.06   0.01
   7   1    -0.00   0.00  -0.00     0.00  -0.00   0.01     0.04  -0.02   0.07
   8   7     0.00   0.01  -0.01     0.00   0.01   0.01    -0.03   0.03   0.12
   9   6    -0.01  -0.00   0.01    -0.01   0.01  -0.00    -0.02   0.12  -0.04
  10   1     0.00   0.00  -0.00    -0.01  -0.00   0.00     0.00   0.02  -0.03
  11   1    -0.01  -0.01  -0.00     0.00   0.01   0.00    -0.01   0.08  -0.00
  12   1    -0.00   0.00   0.02    -0.01   0.01  -0.01     0.00   0.02  -0.05
  13   6     0.01   0.01   0.02     0.01   0.00  -0.01     0.01  -0.04  -0.13
  14   1     0.01   0.01   0.01     0.00  -0.00  -0.00    -0.04  -0.06  -0.05
  15   1     0.00  -0.00   0.01     0.00   0.00  -0.00     0.02  -0.01  -0.06
  16   1     0.00   0.00   0.01     0.00   0.00  -0.01     0.04   0.02  -0.06
  17   6    -0.02  -0.02   0.00     0.00  -0.01  -0.01     0.07  -0.02  -0.09
  18   1    -0.00  -0.01   0.02     0.01  -0.01  -0.00     0.03  -0.01  -0.07
  19   1    -0.01  -0.02  -0.00     0.00  -0.00  -0.00     0.08  -0.01  -0.01
  20   1    -0.00   0.00  -0.01    -0.01  -0.00  -0.01    -0.02  -0.01  -0.06
  21   1    -0.00  -0.00   0.00    -0.01   0.00   0.01     0.01   0.01  -0.00
  22   6     0.00  -0.00   0.00    -0.01   0.00  -0.03    -0.00   0.01  -0.01
  23   8     0.00  -0.00   0.00    -0.02   0.01  -0.03    -0.02   0.00  -0.01
  24   7    -0.00  -0.00   0.00     0.05   0.00   0.01     0.02   0.01  -0.00
  25   1    -0.00   0.00  -0.00    -0.04   0.07   0.05     0.02  -0.04   0.00
  26   1    -0.00  -0.01  -0.00     0.02  -0.06  -0.06     0.01   0.05   0.04
  27   7     0.00   0.00  -0.00    -0.02  -0.01   0.04     0.00  -0.02   0.01
  28   1     0.00   0.01   0.00    -0.04   0.02   0.03    -0.00  -0.04  -0.00
  29   1    -0.00  -0.00  -0.01     0.03  -0.03   0.00    -0.00   0.03   0.04
  30   6    -0.01  -0.02   0.07     0.00   0.00  -0.00     0.04   0.06  -0.27
  31   8    -0.01  -0.01   0.07     0.00  -0.00  -0.00     0.05   0.07  -0.30
  32   7    -0.09  -0.07  -0.05    -0.00   0.00   0.00    -0.12   0.25   0.25
  33   1     0.49   0.09  -0.02     0.01   0.00   0.00     0.10  -0.07   0.26
  34   1    -0.42  -0.16  -0.15    -0.01  -0.00  -0.00    -0.16   0.26   0.08
  35   7     0.10   0.07   0.01     0.00  -0.00   0.00     0.06  -0.34   0.15
  36   1     0.43   0.19   0.05     0.01  -0.00   0.00     0.15  -0.28   0.01
  37   1    -0.47  -0.04  -0.19    -0.01  -0.00  -0.00    -0.17  -0.04   0.23
  38   6     0.00   0.00   0.00     0.02  -0.11  -0.12    -0.01   0.00   0.00
  39   8     0.00   0.00   0.00    -0.01  -0.04  -0.04     0.00  -0.00   0.00
  40   7     0.00  -0.00  -0.00    -0.03   0.13   0.13    -0.00  -0.01   0.00
  41   1    -0.00   0.00   0.00     0.02  -0.04  -0.06    -0.00  -0.00  -0.00
  42   1    -0.00   0.00   0.00     0.01  -0.06  -0.10    -0.00   0.01   0.01
  43   7     0.00  -0.01  -0.00    -0.02   0.17   0.23     0.00   0.00  -0.01
  44   1    -0.00   0.01   0.02     0.12  -0.51  -0.65     0.00   0.01   0.01
  45   1     0.00  -0.00   0.00    -0.00  -0.00  -0.04     0.00   0.01  -0.00
  46   6    -0.00  -0.00   0.00     0.01   0.01  -0.06    -0.00  -0.00   0.01
  47   8    -0.00   0.00   0.00     0.03  -0.01  -0.07    -0.01  -0.00   0.01
  48   7     0.00  -0.00  -0.00    -0.09   0.05   0.07     0.02   0.01  -0.00
  49   1     0.00  -0.00  -0.00    -0.01   0.06   0.05     0.00   0.00  -0.01
  50   1     0.00   0.01   0.00    -0.07  -0.17  -0.07     0.01  -0.02  -0.01
  51   7    -0.00  -0.00  -0.00     0.06   0.02   0.06    -0.01   0.01  -0.01
  52   1    -0.00   0.00  -0.00     0.06  -0.12   0.03    -0.02  -0.00  -0.01
  53   1     0.00  -0.00  -0.00    -0.03   0.03   0.08     0.00  -0.01  -0.01
                     43                     44                     45
                        a                      a                      a 
 Frequencies --   457.3686               465.0970               466.7194
 Red. masses --     3.6080                 8.2048                 6.8451
 Frc consts  --     0.0000                 0.0000                 0.0000
 IR Inten    --    14.5363                 8.4259                47.1829
 Raman Activ --     0.0000                 0.0000                 0.0000
 Depolar     --     0.0000                 0.0000                 0.0000
 Atom AN      X      Y      Z        X      Y      Z        X      Y      Z
   1   8    -0.00   0.00   0.00    -0.01  -0.00   0.00     0.02   0.02  -0.01
   2   6    -0.01  -0.00   0.01    -0.03  -0.02   0.03    -0.08  -0.03   0.08
   3   1    -0.00  -0.00   0.00    -0.02  -0.01   0.02    -0.02  -0.01   0.02
   4   1    -0.01  -0.00   0.00     0.00  -0.01   0.01    -0.03  -0.03   0.02
   5   6    -0.02   0.03   0.02    -0.06   0.07   0.03    -0.04  -0.04   0.12
   6   1    -0.01   0.03   0.03    -0.02   0.07   0.07    -0.02  -0.04   0.03
   7   1    -0.03   0.02  -0.02    -0.08   0.04  -0.05     0.01  -0.01   0.04
   8   7     0.06  -0.05   0.02     0.13  -0.08   0.04     0.01   0.01   0.10
   9   6    -0.02  -0.05  -0.05    -0.05  -0.09  -0.12    -0.02   0.08  -0.06
  10   1    -0.00  -0.03  -0.03    -0.00  -0.07  -0.08     0.00  -0.00  -0.05
  11   1    -0.02  -0.00  -0.02    -0.06  -0.00  -0.04    -0.02   0.06  -0.01
  12   1    -0.01  -0.01  -0.01    -0.04  -0.00  -0.02    -0.01   0.02  -0.04
  13   6    -0.04   0.05  -0.00    -0.07   0.11  -0.02     0.00   0.00  -0.12
  14   1    -0.03   0.02  -0.00    -0.05   0.04  -0.01    -0.04  -0.04  -0.05
  15   1     0.00   0.04  -0.01     0.01   0.10  -0.02     0.02   0.02  -0.06
  16   1    -0.04   0.00   0.00    -0.08   0.01  -0.01     0.02   0.02  -0.06
  17   6     0.07  -0.00   0.04     0.16  -0.02   0.07     0.11  -0.02  -0.07
  18   1     0.01   0.01   0.00     0.04   0.00   0.00     0.04  -0.01  -0.06
  19   1     0.02   0.01   0.01     0.04   0.01   0.02     0.08  -0.00  -0.01
  20   1     0.03  -0.00   0.02     0.05  -0.01   0.04    -0.00  -0.01  -0.04
  21   1    -0.00  -0.00  -0.00    -0.00  -0.00  -0.00     0.02   0.01  -0.01
  22   6    -0.03   0.03  -0.04    -0.04   0.08  -0.19    -0.02   0.05  -0.13
  23   8     0.00   0.00  -0.08    -0.18  -0.01  -0.17    -0.15  -0.02  -0.11
  24   7     0.09   0.03   0.11     0.27   0.11   0.08     0.18   0.09   0.01
  25   1    -0.15   0.28   0.07     0.03   0.03   0.12     0.08  -0.09   0.08
  26   1     0.10  -0.44  -0.37     0.17  -0.02  -0.10     0.09   0.20   0.10
  27   7    -0.09   0.05   0.10    -0.09  -0.13   0.19    -0.02  -0.11   0.11
  28   1    -0.09   0.15   0.09    -0.17  -0.17   0.08    -0.08  -0.28  -0.00
  29   1     0.13  -0.28  -0.18     0.11   0.02   0.23     0.01   0.20   0.31
  30   6     0.01   0.01  -0.04    -0.00  -0.00   0.02    -0.01  -0.01   0.06
  31   8     0.01   0.01  -0.04    -0.00  -0.00   0.02    -0.01  -0.02   0.07
  32   7    -0.02   0.03   0.03     0.00  -0.02  -0.01     0.02  -0.06  -0.05
  33   1     0.01  -0.01   0.03     0.00   0.00  -0.01    -0.00   0.02  -0.06
  34   1    -0.01   0.04   0.01     0.00  -0.02  -0.01     0.02  -0.06  -0.02
  35   7     0.01  -0.04   0.02    -0.00   0.02  -0.01    -0.01   0.08  -0.02
  36   1     0.02  -0.04   0.00    -0.00   0.02   0.00    -0.02   0.07   0.00
  37   1    -0.02  -0.01   0.03     0.00   0.00  -0.01     0.02   0.01  -0.05
  38   6     0.01   0.02   0.01     0.02   0.09  -0.09    -0.04  -0.07   0.07
  39   8    -0.00   0.01   0.00     0.09   0.09  -0.06    -0.06  -0.09   0.05
  40   7     0.02  -0.01  -0.03     0.08  -0.10   0.11    -0.09   0.06  -0.09
  41   1     0.00  -0.00  -0.01    -0.06  -0.11   0.05     0.04   0.07  -0.05
  42   1    -0.00   0.02   0.02     0.12  -0.04   0.07    -0.11   0.05  -0.02
  43   7    -0.00  -0.04  -0.02    -0.16  -0.04   0.01     0.14   0.03  -0.05
  44   1    -0.03   0.08   0.11    -0.11  -0.02  -0.04     0.09   0.07   0.10
  45   1    -0.00  -0.02   0.00    -0.04  -0.05   0.05     0.03   0.05  -0.05
  46   6     0.02   0.02  -0.13    -0.02  -0.03   0.12     0.02   0.03  -0.16
  47   8     0.10   0.04  -0.12    -0.12  -0.00   0.11     0.14   0.01  -0.14
  48   7    -0.19  -0.07   0.00     0.18  -0.02  -0.04    -0.22   0.00   0.05
  49   1    -0.02  -0.02   0.12     0.04   0.05  -0.08    -0.04  -0.04   0.11
  50   1    -0.11   0.25   0.08     0.12  -0.08  -0.02    -0.15   0.10   0.02
  51   7     0.08  -0.10   0.14    -0.06   0.08  -0.11     0.10  -0.07   0.16
  52   1     0.15   0.07   0.07    -0.15   0.08  -0.07     0.17  -0.06   0.08
  53   1    -0.04   0.04   0.13     0.04  -0.14  -0.18    -0.06   0.06   0.18
                     46                     47                     48
                        a                      a                      a 
 Frequencies --   468.7540               475.0582               489.7596
 Red. masses --     7.5761                 8.2659                 3.3905
 Frc consts  --     0.0000                 0.0000                 0.0000
 IR Inten    --    20.1737                27.6106                25.9590
 Raman Activ --     0.0000                 0.0000                 0.0000
 Depolar     --     0.0000                 0.0000                 0.0000
 Atom AN      X      Y      Z        X      Y      Z        X      Y      Z
   1   8     0.10   0.03  -0.01    -0.01   0.00  -0.02    -0.01   0.00  -0.01
   2   6    -0.11  -0.04   0.14    -0.13  -0.06   0.12    -0.00   0.00  -0.00
   3   1    -0.01  -0.00  -0.00    -0.04  -0.03   0.02    -0.00   0.00   0.00
   4   1    -0.08  -0.04   0.04    -0.05  -0.04   0.03     0.00  -0.00  -0.00
   5   6     0.02  -0.19   0.22    -0.12   0.06   0.21     0.00   0.00  -0.00
   6   1    -0.01  -0.19  -0.05    -0.04   0.09   0.14     0.00   0.00   0.00
   7   1     0.16  -0.08   0.17    -0.12   0.04  -0.02    -0.00   0.00  -0.00
   8   7    -0.19   0.12   0.16     0.19  -0.12   0.18     0.00  -0.00   0.00
   9   6     0.05   0.30   0.05    -0.12  -0.04  -0.26    -0.00  -0.00  -0.00
  10   1     0.01   0.10   0.03    -0.01  -0.10  -0.17    -0.00  -0.00   0.00
  11   1     0.05   0.14   0.03    -0.11   0.08  -0.07     0.00  -0.00  -0.00
  12   1     0.05   0.04  -0.07    -0.07   0.02  -0.09    -0.00   0.00  -0.00
  13   6     0.09  -0.18  -0.22    -0.13   0.16  -0.19    -0.00   0.00   0.00
  14   1    -0.01  -0.15  -0.09    -0.13   0.02  -0.08    -0.00   0.00   0.00
  15   1     0.03  -0.10  -0.09     0.04   0.16  -0.11     0.00   0.00   0.00
  16   1     0.15   0.02  -0.11    -0.11   0.03  -0.07    -0.00   0.00  -0.00
  17   6    -0.02   0.00  -0.24     0.36  -0.04   0.02     0.00  -0.00   0.00
  18   1     0.02  -0.02  -0.13     0.09  -0.00  -0.06     0.00  -0.00   0.00
  19   1     0.10  -0.02  -0.05     0.15   0.01   0.03     0.00   0.00   0.00
  20   1    -0.08   0.00  -0.14     0.08  -0.02  -0.00     0.00  -0.00   0.00
  21   1     0.02   0.02   0.01     0.01   0.01  -0.01    -0.00  -0.00   0.00
  22   6    -0.02   0.01   0.00     0.03  -0.06   0.12     0.01   0.01   0.02
  23   8     0.02   0.02  -0.01     0.13   0.01   0.12     0.01  -0.00   0.01
  24   7     0.01  -0.01   0.03    -0.18  -0.09  -0.04    -0.02  -0.01  -0.01
  25   1    -0.04   0.07   0.02    -0.00  -0.05  -0.09    -0.02   0.02  -0.00
  26   1     0.03  -0.13  -0.11    -0.11   0.02   0.07    -0.01  -0.02  -0.01
  27   7    -0.04   0.01   0.02     0.06   0.09  -0.11     0.02  -0.01  -0.02
  28   1    -0.02   0.07   0.03     0.11   0.14  -0.04    -0.02   0.08   0.03
  29   1     0.04  -0.11  -0.09    -0.06  -0.06  -0.18    -0.02   0.01  -0.01
  30   6    -0.02  -0.02   0.10    -0.01  -0.01   0.05     0.00   0.00  -0.00
  31   8    -0.02  -0.03   0.11    -0.01  -0.02   0.06     0.00  -0.00  -0.00
  32   7     0.04  -0.09  -0.09     0.01  -0.05  -0.04    -0.00   0.00   0.00
  33   1    -0.02   0.03  -0.09     0.01   0.02  -0.04    -0.00  -0.00   0.00
  34   1     0.05  -0.10  -0.03     0.02  -0.05  -0.02     0.00   0.00   0.00
  35   7    -0.02   0.13  -0.03    -0.01   0.06  -0.01     0.00  -0.00   0.00
  36   1    -0.04   0.10   0.00    -0.02   0.05   0.00    -0.00  -0.00   0.00
[...]
  44   1     0.00   0.01  -0.00     0.00   0.00  -0.00     0.01   0.02  -0.01
  45   1    -0.07  -0.01   0.01    -0.07  -0.02   0.01     0.01   0.00  -0.00
  46   6     0.01  -0.00   0.01     0.00  -0.00   0.00     0.00   0.00  -0.00
  47   8     0.00   0.00  -0.01     0.00   0.00  -0.00    -0.00  -0.00   0.00
  48   7     0.21  -0.05  -0.03     0.09  -0.02  -0.01    -0.00   0.00  -0.00
  49   1    -0.83   0.17   0.23    -0.35   0.07   0.10     0.02  -0.00  -0.01
  50   1     0.05   0.04  -0.13     0.03   0.02  -0.07    -0.00  -0.00   0.01
  51   7    -0.00  -0.00   0.00    -0.00  -0.00   0.00     0.00  -0.00   0.00
  52   1    -0.00   0.00   0.01    -0.00  -0.00   0.00    -0.00   0.00   0.00
  53   1    -0.01   0.01  -0.01    -0.00   0.00  -0.00    -0.00   0.00  -0.00
                    142                    143                    144
                        a                      a                      a 
 Frequencies --  3484.7001              3488.6496              3496.1029
 Red. masses --     1.9100                 1.4552                 1.4511
 Frc consts  --     0.0000                 0.0000                 0.0000
 IR Inten    --    10.6026                14.7684                24.9072
 Raman Activ --     0.0000                 0.0000                 0.0000
 Depolar     --     0.0000                 0.0000                 0.0000
 Atom AN      X      Y      Z        X      Y      Z        X      Y      Z
   1   8    -0.00   0.00  -0.00     0.00   0.00  -0.00    -0.00   0.00  -0.00
   2   6    -0.00   0.00   0.00    -0.00   0.00   0.00     0.00   0.00  -0.00
   3   1    -0.00   0.00  -0.00     0.00   0.00   0.00    -0.00   0.00  -0.00
   4   1     0.00  -0.00   0.00     0.00  -0.00  -0.00     0.00  -0.00   0.00
   5   6     0.00  -0.00   0.00     0.00  -0.00   0.00    -0.00   0.00  -0.00
   6   1    -0.00   0.00  -0.00    -0.00   0.00  -0.00     0.00  -0.00   0.00
   7   1     0.00   0.00   0.00     0.00  -0.00  -0.00    -0.00   0.00   0.00
   8   7     0.00  -0.00   0.00    -0.00   0.00   0.00     0.00   0.00   0.00
   9   6    -0.00   0.00  -0.00     0.00  -0.00   0.00    -0.00   0.00  -0.00
  10   1    -0.00  -0.00  -0.00    -0.00   0.00  -0.00     0.00  -0.00   0.00
  11   1     0.00  -0.00   0.00     0.00  -0.00  -0.00    -0.00  -0.00   0.00
  12   1    -0.00  -0.00   0.00     0.00   0.00   0.00    -0.00  -0.00  -0.00
  13   6    -0.00   0.00  -0.00     0.00  -0.00   0.00    -0.00   0.00  -0.00
  14   1     0.00   0.00   0.00     0.00   0.00  -0.00    -0.00   0.00  -0.00
  15   1     0.00   0.00   0.00    -0.00   0.00  -0.00     0.00  -0.00   0.00
  16   1    -0.00   0.00   0.00     0.00  -0.00  -0.00    -0.00   0.00   0.00
  17   6    -0.00  -0.00   0.00    -0.00   0.00   0.00     0.00   0.00  -0.00
  18   1     0.00   0.00  -0.00     0.00  -0.00   0.00     0.00   0.00  -0.00
  19   1     0.00  -0.00   0.00     0.00   0.00  -0.00    -0.00  -0.00   0.00
  20   1     0.00   0.00  -0.00     0.00  -0.00  -0.00    -0.00   0.00   0.00
  21   1     0.01  -0.01   0.00     0.00  -0.00   0.00     0.00  -0.00   0.00
  22   6     0.01  -0.00   0.00     0.00   0.00   0.00     0.00   0.00   0.00
  23   8    -0.00   0.00  -0.00    -0.00   0.00  -0.00    -0.00   0.00  -0.00
  24   7     0.16  -0.10   0.18     0.01  -0.01   0.01     0.01  -0.01   0.02
  25   1    -0.12  -0.08  -0.04    -0.01  -0.01  -0.00    -0.01  -0.01  -0.00
  26   1    -0.48   0.48  -0.63    -0.04   0.04  -0.05    -0.06   0.05  -0.07
  27   7    -0.02  -0.00  -0.02     0.01   0.00   0.00     0.16   0.07   0.06
  28   1     0.04  -0.03   0.09    -0.01   0.01  -0.03    -0.27   0.18  -0.63
  29   1     0.02   0.04  -0.03    -0.02  -0.02   0.02    -0.32  -0.44   0.40
  30   6     0.00   0.00  -0.00     0.00   0.00  -0.00    -0.00  -0.00   0.00
  31   8     0.00   0.00  -0.00    -0.00  -0.00   0.00     0.00   0.00  -0.00
  32   7    -0.00   0.00   0.00    -0.00  -0.00   0.00     0.00   0.00  -0.00
  33   1     0.00  -0.00  -0.00    -0.00   0.00   0.00     0.00  -0.00  -0.00
  34   1    -0.00  -0.00   0.00     0.00   0.00  -0.00    -0.00  -0.00   0.00
  35   7     0.00  -0.00  -0.00    -0.00  -0.00   0.00     0.00  -0.00  -0.00
  36   1    -0.00  -0.00   0.00     0.00  -0.00   0.00    -0.00  -0.00   0.00
  37   1    -0.00   0.00  -0.00     0.00   0.00  -0.00    -0.00   0.00  -0.00
  38   6    -0.00   0.00  -0.00    -0.00   0.00  -0.00     0.00   0.00  -0.00
  39   8    -0.00  -0.00  -0.00     0.00  -0.00  -0.00    -0.00  -0.00   0.00
  40   7    -0.03  -0.00  -0.01    -0.00  -0.00  -0.00    -0.00  -0.00  -0.00
  41   1     0.09  -0.07   0.08     0.00  -0.00   0.00     0.00  -0.00   0.00
  42   1     0.02   0.07  -0.05     0.00   0.00  -0.00     0.00   0.00  -0.00
  43   7     0.00  -0.00   0.00     0.00  -0.00   0.00     0.00  -0.00   0.00
  44   1     0.00   0.00  -0.00     0.00   0.00  -0.00     0.00   0.00  -0.00
  45   1    -0.01  -0.00   0.00    -0.01  -0.00   0.00     0.00   0.00  -0.00
  46   6    -0.00   0.00  -0.00    -0.00   0.00   0.00     0.00   0.00  -0.00
  47   8     0.00   0.00   0.00     0.00   0.00  -0.00     0.00  -0.00   0.00
  48   7     0.00  -0.00   0.00     0.01   0.00  -0.00    -0.00  -0.00   0.00
  49   1    -0.02   0.00   0.01    -0.01   0.00   0.00     0.00   0.00   0.00
  50   1     0.00   0.00  -0.01    -0.01  -0.01   0.02     0.00   0.00  -0.00
  51   7     0.01  -0.00  -0.00    -0.17   0.06   0.05     0.01  -0.00  -0.00
  52   1    -0.01  -0.00   0.04     0.16   0.01  -0.66    -0.01  -0.00   0.04
  53   1    -0.03   0.02  -0.03     0.45  -0.24   0.47    -0.03   0.01  -0.03
                    145                    146                    147
                        a                      a                      a 
 Frequencies --  3500.0456              3504.1406              3532.0264
 Red. masses --     1.4398                 1.4633                 1.9377
 Frc consts  --     0.0000                 0.0000                 0.0000
 IR Inten    --    38.1346                 8.5761                20.2248
 Raman Activ --     0.0000                 0.0000                 0.0000
 Depolar     --     0.0000                 0.0000                 0.0000
 Atom AN      X      Y      Z        X      Y      Z        X      Y      Z
   1   8    -0.00   0.00   0.00     0.00  -0.00   0.00    -0.00   0.00  -0.00
   2   6     0.00  -0.00  -0.00     0.00   0.00  -0.00     0.00  -0.00  -0.00
   3   1    -0.00   0.00  -0.00    -0.00   0.00  -0.00    -0.00   0.00  -0.00
   4   1     0.00   0.00   0.00    -0.00  -0.00   0.00     0.00   0.00  -0.00
   5   6     0.00  -0.00  -0.00     0.00  -0.00  -0.00     0.00  -0.00   0.00
   6   1     0.00  -0.00  -0.00    -0.00   0.00  -0.00    -0.00  -0.00  -0.00
   7   1    -0.00   0.00   0.00    -0.00   0.00   0.00    -0.00   0.00  -0.00
   8   7    -0.00   0.00   0.00     0.00  -0.00  -0.00     0.00  -0.00  -0.00
   9   6     0.00  -0.00  -0.00    -0.00  -0.00   0.00    -0.00   0.00  -0.00
  10   1    -0.00   0.00  -0.00     0.00  -0.00   0.00     0.00  -0.00   0.00
  11   1    -0.00  -0.00   0.00     0.00   0.00  -0.00    -0.00   0.00  -0.00
  12   1     0.00   0.00  -0.00    -0.00  -0.00   0.00     0.00  -0.00   0.00
  13   6    -0.00  -0.00   0.00    -0.00  -0.00   0.00    -0.00   0.00  -0.00
  14   1     0.00  -0.00  -0.00     0.00  -0.00  -0.00    -0.00   0.00  -0.00
  15   1     0.00  -0.00   0.00    -0.00   0.00  -0.00    -0.00  -0.00   0.00
  16   1    -0.00   0.00   0.00    -0.00   0.00   0.00     0.00  -0.00  -0.00
  17   6    -0.00  -0.00   0.00    -0.00  -0.00   0.00    -0.00   0.00  -0.00
  18   1     0.00   0.00  -0.00    -0.00   0.00   0.00     0.00   0.00   0.00
  19   1     0.00  -0.00  -0.00     0.00   0.00  -0.00    -0.00   0.00   0.00
  20   1    -0.00   0.00   0.00    -0.00   0.00   0.00     0.00  -0.00  -0.00
  21   1     0.00  -0.00  -0.00    -0.00   0.00  -0.00     0.00  -0.00   0.00
  22   6    -0.00  -0.00  -0.00    -0.00   0.00  -0.00    -0.00  -0.00  -0.00
  23   8    -0.00   0.00   0.00     0.00  -0.00   0.00     0.00   0.00   0.00
  24   7     0.00   0.00   0.00    -0.00   0.00  -0.00     0.00   0.00   0.00
  25   1    -0.00  -0.00  -0.00     0.00   0.00   0.00    -0.01  -0.00  -0.00
  26   1    -0.00   0.00  -0.00     0.00  -0.00   0.00     0.00   0.00   0.00
  27   7     0.00   0.00   0.00    -0.00  -0.00  -0.00     0.00  -0.00   0.00
  28   1    -0.00   0.00  -0.00     0.00  -0.00   0.00    -0.00   0.00  -0.00
  29   1    -0.00  -0.00   0.00     0.00   0.00  -0.00    -0.00  -0.00   0.00
  30   6     0.00   0.00   0.00     0.00   0.00  -0.00    -0.00   0.00  -0.00
  31   8    -0.00   0.00  -0.00    -0.00  -0.00   0.01     0.00  -0.00  -0.00
  32   7     0.01   0.11  -0.05     0.01   0.13  -0.05    -0.00  -0.00   0.00
  33   1     0.07  -0.32  -0.29     0.08  -0.36  -0.33    -0.00   0.00   0.00
  34   1    -0.12  -0.10   0.47    -0.12  -0.11   0.50     0.00   0.00  -0.00
  35   7    -0.01   0.09   0.10     0.01  -0.09  -0.09     0.00   0.00  -0.00
  36   1     0.02   0.12  -0.53    -0.02  -0.11   0.48    -0.00  -0.00   0.00
  37   1     0.01  -0.45   0.15    -0.01   0.43  -0.14    -0.00  -0.00   0.00
  38   6     0.00   0.00  -0.00     0.00   0.00  -0.00     0.00   0.00  -0.00
  39   8    -0.00   0.00   0.00     0.00  -0.00   0.00    -0.00  -0.00   0.00
  40   7    -0.00  -0.00   0.00     0.00   0.00   0.00    -0.00  -0.01   0.00
  41   1     0.00  -0.00   0.00    -0.00   0.00  -0.00    -0.01   0.00  -0.00
  42   1     0.00   0.00  -0.00    -0.00  -0.00   0.00     0.01   0.02  -0.01
  43   7     0.00   0.00  -0.00    -0.00  -0.00   0.00     0.01   0.02  -0.02
  44   1    -0.00  -0.00   0.00     0.00   0.00  -0.00    -0.03  -0.09   0.06
  45   1     0.00   0.00  -0.00     0.00   0.00   0.00    -0.01  -0.00   0.00
  46   6    -0.00   0.00  -0.00     0.00   0.00   0.00     0.01   0.00  -0.00
  47   8    -0.00  -0.00   0.00    -0.00  -0.00   0.00    -0.00  -0.00   0.00
  48   7     0.00   0.00  -0.00     0.00  -0.00  -0.00     0.11   0.07  -0.23
  49   1    -0.00  -0.00  -0.00    -0.00   0.00   0.00    -0.12   0.04   0.02
  50   1    -0.00  -0.00   0.00    -0.00   0.00   0.00    -0.28  -0.31   0.84
  51   7    -0.00   0.00  -0.00    -0.00   0.00  -0.00     0.01  -0.01   0.04
  52   1     0.00  -0.00  -0.00     0.00   0.00  -0.00     0.02  -0.00  -0.07
  53   1     0.00  -0.00   0.00     0.00  -0.00   0.00    -0.07   0.04  -0.07
                    148                    149                    150
                        a                      a                      a 
 Frequencies --  3533.6309              3552.3745              3554.7264
 Red. masses --     1.8907                 2.1719                 2.1498
 Frc consts  --     0.0000                 0.0000                 0.0000
 IR Inten    --     9.6711                11.8114                29.6358
 Raman Activ --     0.0000                 0.0000                 0.0000
 Depolar     --     0.0000                 0.0000                 0.0000
 Atom AN      X      Y      Z        X      Y      Z        X      Y      Z
   1   8     0.00  -0.00   0.00    -0.00   0.00  -0.00     0.00  -0.00   0.00
   2   6    -0.00  -0.00  -0.00     0.00  -0.00  -0.00    -0.00  -0.00  -0.00
   3   1     0.00   0.00   0.00    -0.00   0.00   0.00     0.00  -0.00   0.00
   4   1     0.00   0.00   0.00    -0.00   0.00   0.00    -0.00   0.00   0.00
   5   6     0.00   0.00   0.00     0.00  -0.00   0.00     0.00   0.00   0.00
   6   1    -0.00   0.00  -0.00    -0.00  -0.00  -0.00     0.00   0.00  -0.00
   7   1    -0.00   0.00  -0.00    -0.00   0.00   0.00     0.00   0.00   0.00
   8   7    -0.00   0.00  -0.00     0.00  -0.00  -0.00     0.00   0.00   0.00
   9   6     0.00  -0.00   0.00    -0.00   0.00  -0.00     0.00   0.00  -0.00
  10   1    -0.00   0.00  -0.00     0.00  -0.00   0.00     0.00   0.00  -0.00
  11   1     0.00  -0.00   0.00    -0.00   0.00  -0.00    -0.00  -0.00   0.00
  12   1     0.00   0.00   0.00     0.00   0.00   0.00    -0.00  -0.00   0.00
  13   6     0.00  -0.00   0.00     0.00  -0.00  -0.00     0.00  -0.00  -0.00
  14   1     0.00  -0.00  -0.00    -0.00   0.00   0.00    -0.00  -0.00   0.00
  15   1    -0.00   0.00  -0.00    -0.00  -0.00  -0.00    -0.00   0.00  -0.00
  16   1    -0.00   0.00   0.00    -0.00   0.00  -0.00    -0.00  -0.00   0.00
  17   6    -0.00  -0.00   0.00     0.00   0.00  -0.00     0.00   0.00  -0.00
  18   1     0.00   0.00   0.00     0.00   0.00   0.00    -0.00  -0.00   0.00
  19   1     0.00   0.00  -0.00    -0.00  -0.00   0.00    -0.00  -0.00   0.00
  20   1    -0.00   0.00   0.00    -0.00   0.00   0.00     0.00  -0.00   0.00
  21   1    -0.00   0.00  -0.00     0.00  -0.00   0.00    -0.01   0.00  -0.00
  22   6    -0.00  -0.00   0.00    -0.00  -0.00  -0.00    -0.00   0.00  -0.00
  23   8     0.00  -0.00  -0.00     0.00   0.00   0.00     0.00  -0.00   0.00
  24   7     0.00  -0.00   0.00     0.00  -0.00   0.00    -0.00  -0.00  -0.00
  25   1     0.00   0.00   0.00    -0.00  -0.00  -0.00     0.00   0.00   0.00
  26   1    -0.00   0.00  -0.00    -0.00   0.00  -0.00     0.00  -0.00   0.00
  27   7     0.00   0.00  -0.00    -0.00  -0.00   0.01    -0.00  -0.00   0.00
  28   1     0.00  -0.00   0.00    -0.01   0.00  -0.01    -0.00   0.00  -0.00
  29   1    -0.00  -0.00   0.00     0.01   0.01  -0.01     0.00   0.00  -0.00
  30   6     0.00   0.00  -0.00    -0.00   0.00   0.00    -0.00  -0.00   0.00
  31   8    -0.00  -0.00   0.00     0.00  -0.00  -0.00     0.00   0.00  -0.00
  32   7     0.00   0.00  -0.00    -0.00  -0.00   0.00    -0.00   0.00   0.00
  33   1     0.00  -0.00  -0.00    -0.00   0.00   0.00     0.00  -0.00  -0.00
  34   1    -0.00  -0.00   0.00     0.00   0.00  -0.00    -0.00   0.00  -0.00
  35   7     0.00   0.00  -0.00     0.00   0.00  -0.00     0.00  -0.00   0.00
  36   1    -0.00  -0.00   0.00    -0.00  -0.00   0.00     0.00   0.00  -0.00
  37   1     0.00  -0.00   0.00    -0.00  -0.00   0.00    -0.00   0.00  -0.00
  38   6     0.01   0.00  -0.00     0.00   0.00  -0.00     0.00  -0.01   0.01
  39   8    -0.00  -0.00   0.00    -0.00  -0.00   0.00    -0.00   0.00  -0.00
  40   7     0.01  -0.03   0.03     0.00  -0.01   0.01     0.02  -0.23   0.19
  41   1    -0.06   0.04  -0.05    -0.02   0.01  -0.01    -0.34   0.23  -0.28
  42   1     0.03   0.07  -0.05     0.01   0.03  -0.02     0.25   0.63  -0.43
  43   7     0.08   0.20  -0.14     0.00   0.00  -0.00    -0.01  -0.02   0.02
  44   1    -0.26  -0.74   0.53    -0.00  -0.00   0.00     0.03   0.10  -0.07
  45   1    -0.06   0.00  -0.00    -0.01  -0.00   0.00     0.01  -0.00   0.00
  46   6    -0.00   0.00  -0.00    -0.00   0.00  -0.01     0.00  -0.00   0.00
  47   8    -0.00  -0.00   0.00     0.00  -0.00   0.00     0.00   0.00  -0.00
  48   7    -0.01  -0.01   0.03     0.01   0.01  -0.03    -0.00  -0.00   0.00
  49   1     0.02  -0.00  -0.00    -0.02   0.00   0.00     0.01  -0.00  -0.00
  50   1     0.03   0.04  -0.10    -0.04  -0.04   0.11     0.00   0.00  -0.01
  51   7    -0.00   0.00  -0.00    -0.07   0.06  -0.28     0.00  -0.00   0.01
  52   1    -0.00   0.00  -0.00    -0.19   0.01   0.65     0.01  -0.00  -0.03
  53   1     0.01  -0.00   0.01     0.44  -0.24   0.42    -0.02   0.01  -0.02
                    151                    152                    153
                        a                      a                      a 
 Frequencies --  3562.8882              3564.1818              3569.6480
 Red. masses --     2.1844                 2.1891                 2.1758
 Frc consts  --     0.0000                 0.0000                 0.0000
 IR Inten    --    10.3456                13.3531                11.4450
 Raman Activ --     0.0000                 0.0000                 0.0000
 Depolar     --     0.0000                 0.0000                 0.0000
 Atom AN      X      Y      Z        X      Y      Z        X      Y      Z
   1   8     0.00  -0.00   0.00     0.00  -0.00  -0.00    -0.00   0.00  -0.00
   2   6    -0.00   0.00  -0.00    -0.00   0.00   0.00     0.00  -0.00  -0.00
   3   1    -0.00  -0.00   0.00     0.00  -0.00   0.00    -0.00   0.00   0.00
   4   1    -0.00   0.00   0.00    -0.00  -0.00  -0.00     0.00   0.00  -0.00
   5   6    -0.00   0.00  -0.00    -0.00   0.00   0.00    -0.00   0.00   0.00
   6   1     0.00  -0.00   0.00    -0.00   0.00  -0.00     0.00  -0.00  -0.00
   7   1    -0.00  -0.00  -0.00     0.00  -0.00  -0.00     0.00   0.00  -0.00
   8   7     0.00   0.00   0.00     0.00  -0.00  -0.00    -0.00   0.00   0.00
   9   6    -0.00   0.00  -0.00    -0.00  -0.00   0.00     0.00   0.00  -0.00
  10   1     0.00   0.00   0.00     0.00   0.00   0.00     0.00  -0.00  -0.00
  11   1    -0.00  -0.00   0.00     0.00   0.00  -0.00    -0.00  -0.00   0.00
  12   1    -0.00   0.00  -0.00    -0.00  -0.00   0.00     0.00  -0.00  -0.00
  13   6    -0.00   0.00  -0.00     0.00   0.00  -0.00    -0.00   0.00  -0.00
  14   1    -0.00  -0.00   0.00    -0.00  -0.00   0.00    -0.00   0.00   0.00
  15   1     0.00  -0.00   0.00    -0.00   0.00  -0.00     0.00  -0.00  -0.00
  16   1    -0.00   0.00  -0.00     0.00   0.00  -0.00     0.00   0.00  -0.00
  17   6     0.00  -0.00  -0.00     0.00   0.00  -0.00     0.00   0.00  -0.00
  18   1    -0.00  -0.00  -0.00     0.00   0.00  -0.00    -0.00  -0.00  -0.00
  19   1    -0.00  -0.00   0.00    -0.00  -0.00   0.00    -0.00  -0.00   0.00
  20   1    -0.00   0.00   0.00     0.00   0.00  -0.00     0.00   0.00  -0.00
  21   1    -0.00   0.00  -0.00    -0.00   0.00   0.00     0.00  -0.00   0.00
  22   6     0.00   0.01  -0.01     0.00  -0.00   0.00     0.00  -0.00   0.00
  23   8    -0.00  -0.00   0.00     0.00  -0.00  -0.00    -0.00   0.00  -0.00
  24   7    -0.01   0.00  -0.01     0.00  -0.00   0.00     0.00   0.00   0.00
  25   1     0.01   0.00   0.00     0.00   0.00   0.00    -0.00  -0.00  -0.00
  26   1     0.02  -0.02   0.02    -0.00   0.00  -0.00    -0.00   0.00  -0.00
  27   7     0.02   0.16  -0.25    -0.00  -0.00   0.00    -0.00  -0.00   0.00
  28   1     0.27  -0.15   0.58    -0.00   0.00  -0.00    -0.00   0.00  -0.00
  29   1    -0.35  -0.45   0.39     0.00   0.00  -0.00     0.00   0.00  -0.00
  30   6    -0.00  -0.00   0.00     0.00  -0.01  -0.00     0.00   0.00  -0.01
  31   8     0.00   0.00  -0.00    -0.00   0.00   0.00    -0.00  -0.00   0.00
  32   7     0.00  -0.00  -0.00     0.05  -0.07  -0.20     0.05  -0.07  -0.19
  33   1    -0.00   0.00   0.00    -0.08   0.40   0.33    -0.07   0.36   0.30
  34   1    -0.00  -0.00   0.00    -0.11  -0.11   0.43    -0.10  -0.11   0.42
  35   7    -0.00  -0.00   0.00    -0.00  -0.15   0.15     0.00   0.15  -0.16
  36   1     0.00   0.00  -0.00     0.02   0.08  -0.42    -0.02  -0.09   0.46
  37   1    -0.00   0.00  -0.00    -0.00   0.48  -0.13     0.01  -0.50   0.14
  38   6    -0.00  -0.00   0.00    -0.00   0.00   0.00     0.00  -0.00   0.00
  39   8     0.00   0.00   0.00     0.00  -0.00  -0.00    -0.00   0.00   0.00
  40   7     0.00  -0.00   0.00    -0.00   0.00  -0.00    -0.00  -0.00   0.00
  41   1    -0.00   0.00  -0.00     0.00  -0.00   0.00    -0.00   0.00  -0.00
  42   1     0.00   0.00  -0.00    -0.00  -0.00   0.00     0.00   0.00  -0.00
  43   7    -0.00  -0.00   0.00     0.00   0.00  -0.00    -0.00  -0.00   0.00
  44   1     0.00   0.00  -0.00    -0.00  -0.00   0.00     0.00   0.00  -0.00
  45   1     0.00  -0.00   0.00    -0.00  -0.00   0.00     0.00   0.00  -0.00
  46   6     0.00  -0.00  -0.00     0.00   0.00   0.00    -0.00  -0.00  -0.00
  47   8    -0.00   0.00   0.00     0.00   0.00  -0.00    -0.00   0.00   0.00
  48   7     0.00   0.00  -0.00     0.00   0.00  -0.00    -0.00  -0.00   0.00
  49   1    -0.00   0.00  -0.00    -0.00   0.00   0.00     0.00  -0.00  -0.00
  50   1    -0.00  -0.00   0.01    -0.00  -0.00   0.00     0.00   0.00  -0.00
  51   7    -0.00   0.00  -0.01    -0.00   0.00  -0.00     0.00  -0.00   0.00
  52   1    -0.00   0.00   0.01    -0.00   0.00   0.00     0.00  -0.00  -0.00
  53   1     0.01  -0.01   0.01     0.00  -0.00   0.00    -0.00   0.00  -0.00
