      -----------------------------------------------------------      
     |                   =====================                   |     
     |                           x T B                           |     
     |                   =====================                   |     
     |                         S. Grimme                         |     
     |          Mulliken Center for Theoretical Chemistry        |     
     |                    University of Bonn                     |     
      -----------------------------------------------------------      

   * xtb version 6.6.1 (unknown-commit) compiled by '@Linux' on 12/27/2023

   xtb is free software: you can redistribute it and/or modify it under
   the terms of the GNU Lesser General Public License as published by
   the Free Software Foundation, either version 3 of the License, or
   (at your option) any later version.
   
   xtb is distributed in the hope that it will be useful,
   but WITHOUT ANY WARRANTY; without even the implied warranty of
   MERCHANTABILITY or FITNESS FOR A PARTICULAR PURPOSE.  See the
   GNU Lesser General Public License for more details.
   
   Cite this work as:
   * C. Bannwarth, E. Caldeweyher, S. Ehlert, A. Hansen, P. Pracht,
     J. Seibert, S. Spicher, S. Grimme, WIREs Comput. Mol. Sci., 2020, 11,
     e01493. DOI: 10.1002/wcms.1493
   
   for GFN2-xTB:
   * C. Bannwarth, S. Ehlert and S. Grimme., J. Chem. Theory Comput., 2019,
     15, 1652-1671. DOI: 10.1021/acs.jctc.8b01176
   for GFN1-xTB:
   * S. Grimme, C. Bannwarth, P. Shushkov, J. Chem. Theory Comput., 2017,
     13, 1989-2009. DOI: 10.1021/acs.jctc.7b00118
   for GFN0-xTB:
   * P. Pracht, E. Caldeweyher, S. Ehlert, S. Grimme, ChemRxiv, 2019, preprint.
     DOI: 10.26434/chemrxiv.8326202.v1
   for GFN-FF:
   * S. Spicher and S. Grimme, Angew. Chem. Int. Ed., 2020, 59, 15665-15673.
     DOI: 10.1002/anie.202004239
   
   for ALPB and GBSA implicit solvation:
   * S. Ehlert, M. Stahn, S. Spicher, S. Grimme, J. Chem. Theory Comput.,
     2021, 17, 4250-4261. DOI: 10.1021/acs.jctc.1c00471
   
   for DFT-D4:
   * E. Caldeweyher, C. Bannwarth and S. Grimme, J. Chem. Phys., 2017,
     147, 034112. DOI: 10.1063/1.4993215
   * E. Caldeweyher, S. Ehlert, A. Hansen, H. Neugebauer, S. Spicher,
     C. Bannwarth and S. Grimme, J. Chem. Phys., 2019, 150, 154122.
     DOI: 10.1063/1.5090222
   * E. Caldeweyher, J.-M. Mewes, S. Ehlert and S. Grimme, Phys. Chem. Chem. Phys.
     2020, 22, 8499-8512. DOI: 10.1039/D0CP00502A
   
   for sTDA-xTB:
   * S. Grimme and C. Bannwarth, J. Chem. Phys., 2016, 145, 054103.
     DOI: 10.1063/1.4959605
   
   in the mass-spec context:
   * V. Asgeirsson, C. Bauer and S. Grimme, Chem. Sci., 2017, 8, 4879.
     DOI: 10.1039/c7sc00601b
   * J. Koopman and S. Grimme, ACS Omega 2019, 4, 12, 15120-15133.
     DOI: 10.1021/acsomega.9b02011
   
   for metadynamics refer to:
   * S. Grimme, J. Chem. Theory Comput., 2019, 155, 2847-2862
     DOI: 10.1021/acs.jctc.9b00143
   
   for SPH calculations refer to:
   * S. Spicher and S. Grimme, J. Chem. Theory Comput., 2021, 17, 1701-1714
     DOI: 10.1021/acs.jctc.0c01306
   
   with help from (in alphabetical order)
   P. Atkinson, C. Bannwarth, F. Bohle, G. Brandenburg, E. Caldeweyher
   M. Checinski, S. Dohm, S. Ehlert, S. Ehrlich, I. Gerasimov, C. Hölzer
   A. Katbashev, J. Koopman, C. Lavigne, S. Lehtola, F. März, M. Müller,
   F. Musil, H. Neugebauer, J. Pisarek, C. Plett, P. Pracht, F. Pultar,
   J. Seibert, P. Shushkov, S. Spicher, M. Stahn, M. Steiner, T. Strunk,
   J. Stückrath, T. Rose, and J. Unsleber
   
 * started run on 2024/01/10 at 18:28:08.257     

           -------------------------------------------------
          |                Calculation Setup                |
           -------------------------------------------------

          program call               : xtb struc.xyz --gfn2 --hess
          hostname                   : swaroop
          coordinate file            : struc.xyz
          omp threads                :                     1

   ID    Z sym.   atoms
    1    8 O      1, 23, 31, 39, 47
    2    6 C      2, 5, 9, 13, 17, 22, 30, 38, 46
    3    1 H      3, 4, 6, 7, 10-12, 14-16, 18-21, 25, 26, 28, 29, 33, 34,
                  36, 37, 41, 42, 44, 45, 49, 50, 52, 53
    4    7 N      8, 24, 27, 32, 35, 40, 43, 48, 51

molecular fragmentation (1/2 indicates fragments):
11111111111111111111122222222222222222222222222222222
# atoms in fragment 1/2:    21    32
 fragment masses (1/2) :      104.17      240.22
CMA distance (Bohr)    :   3.390
constraining FC (au)   :  0.0500

           -------------------------------------------------
          |                 G F N 2 - x T B                 |
           -------------------------------------------------

        Reference                      10.1021/acs.jctc.8b01176
      * Hamiltonian:
        H0-scaling (s, p, d)           1.850000    2.230000    2.230000
        zeta-weighting                 0.500000
      * Dispersion:
        s8                             2.700000
        a1                             0.520000
        a2                             5.000000
        s9                             5.000000
      * Repulsion:
        kExp                           1.500000    1.000000
        rExp                           1.000000
      * Coulomb:
        alpha                          2.000000
        third order                    shell-resolved
        anisotropic                    true
        a3                             3.000000
        a5                             4.000000
        cn-shift                       1.200000
        cn-exp                         4.000000
        max-rad                        5.000000


          ...................................................
          :                      SETUP                      :
          :.................................................:
          :  # basis functions                 122          :
          :  # atomic orbitals                 122          :
          :  # shells                           76          :
          :  # electrons                       140          :
          :  max. iterations                   250          :
          :  Hamiltonian                  GFN2-xTB          :
          :  restarted?                      false          :
          :  GBSA solvation                  false          :
          :  PC potential                    false          :
          :  electronic temp.          300.0000000     K    :
          :  accuracy                    1.0000000          :
          :  -> integral cutoff          0.2500000E+02      :
          :  -> integral neglect         0.1000000E-07      :
          :  -> SCF convergence          0.1000000E-05 Eh   :
          :  -> wf. convergence          0.1000000E-03 e    :
          :  Broyden damping             0.4000000          :
          ...................................................

 iter      E             dE          RMSdq      gap      omega  full diag
   1    -81.5512765 -0.815513E+02  0.432E+00    5.14       0.0  T
   2    -81.8399222 -0.288646E+00  0.235E+00    6.02       1.0  T
   3    -81.8455649 -0.564265E-02  0.115E+00    5.69       1.0  T
   4    -81.8469307 -0.136586E-02  0.229E-01    5.72       1.0  T
   5    -81.8477416 -0.810860E-03  0.908E-02    5.65       1.0  T
   6    -81.8477651 -0.234956E-04  0.267E-02    5.67       1.0  T
   7    -81.8477701 -0.506576E-05  0.721E-03    5.67       1.9  T
   8    -81.8477704 -0.226219E-06  0.281E-03    5.66       4.9  T
   9    -81.8477704 -0.282969E-07  0.949E-04    5.66      14.5  T
  10    -81.8477704 -0.519566E-08  0.166E-04    5.66      82.9  T

   *** convergence criteria satisfied after 10 iterations ***

         #    Occupation            Energy/Eh            Energy/eV
      -------------------------------------------------------------
         1        2.0000           -0.7947162             -21.6253
       ...           ...                  ...                  ...
        64        2.0000           -0.4967035             -13.5160
        65        2.0000           -0.4930696             -13.4171
        66        2.0000           -0.4925692             -13.4035
        67        2.0000           -0.4909287             -13.3588
        68        2.0000           -0.4877517             -13.2724
        69        2.0000           -0.4865149             -13.2387
        70        2.0000           -0.4817999             -13.1104 (HOMO)
        71                         -0.2736377              -7.4461 (LUMO)
        72                         -0.2689489              -7.3185
        73                         -0.2627357              -7.1494
        74                         -0.2540037              -6.9118
        75                         -0.1484203              -4.0387
       ...                                ...                  ...
       122                          0.5617335              15.2855
      -------------------------------------------------------------
                  HL-Gap            0.2081622 Eh            5.6644 eV
             Fermi-level           -0.3777188 Eh          -10.2783 eV

 SCC (total)                   0 d,  0 h,  0 min,  0.090 sec
 SCC setup                      ...        0 min,  0.000 sec (  0.318%)
 Dispersion                     ...        0 min,  0.001 sec (  0.663%)
 classical contributions        ...        0 min,  0.000 sec (  0.200%)
 integral evaluation            ...        0 min,  0.008 sec (  8.811%)
 iterations                     ...        0 min,  0.053 sec ( 59.020%)
 molecular gradient             ...        0 min,  0.028 sec ( 30.684%)
 printout                       ...        0 min,  0.000 sec (  0.291%)

         :::::::::::::::::::::::::::::::::::::::::::::::::::::
         ::                     SUMMARY                     ::
         :::::::::::::::::::::::::::::::::::::::::::::::::::::
         :: total energy             -80.934065348160 Eh    ::
         :: gradient norm              0.000066785035 Eh/a0 ::
         :: HOMO-LUMO gap              5.664381398352 eV    ::
         ::.................................................::
         :: SCC energy               -81.847770399352 Eh    ::
         :: -> isotropic ES            0.290872646184 Eh    ::
         :: -> anisotropic ES         -0.027452294039 Eh    ::
         :: -> anisotropic XC          0.020561220965 Eh    ::
         :: -> dispersion             -0.044192914831 Eh    ::
         :: repulsion energy           0.912527180762 Eh    ::
         :: add. restraining           0.000000000000 Eh    ::
         :: total charge               1.000000000000 e     ::
         :::::::::::::::::::::::::::::::::::::::::::::::::::::

           ------------------------------------------------- 
          |                Numerical Hessian                |
           ------------------------------------------------- 
step length          :   0.00500
SCC accuracy         :   0.30000
Hessian scale factor :   1.00000
frozen atoms in %    :   0.00000    0
RMS gradient         :   0.00007
estimated CPU  time      0.24 min
estimated wall time      0.24 min

writing file <hessian>.

 projected vibrational frequencies (cm⁻¹)
eigval :       -0.00    -0.00     0.00     0.00     0.00     0.00
eigval :       14.50    24.84    27.38    34.47    39.51    41.83
eigval :       46.23    50.66    54.19    61.10    69.03    74.30
eigval :       77.50    79.28    82.45    88.21    92.28   100.57
eigval :      123.25   131.78   141.80   155.26   167.74   174.83
eigval :      180.22   200.64   204.59   221.57   255.22   290.76
eigval :      302.41   310.20   323.04   337.80   341.41   373.33
eigval :      374.45   398.75   422.11   428.65   445.90   460.03
eigval :      461.00   465.55   469.24   470.40   478.33   479.02
eigval :      483.08   484.79   489.51   534.33   544.17   550.66
eigval :      561.34   565.54   654.53   660.90   663.54   675.94
eigval :      676.36   687.51   713.02   734.91   755.26   765.03
eigval :      901.31   925.00   958.85   959.71   965.01   976.34
eigval :      993.72  1004.18  1008.43  1011.87  1013.38  1016.21
eigval :     1027.27  1031.67  1035.25  1082.48  1086.31  1089.43
eigval :     1094.17  1097.21  1102.83  1133.32  1169.47  1225.33
eigval :     1241.10  1271.77  1318.49  1328.24  1353.11  1356.20
eigval :     1358.66  1364.04  1368.68  1384.59  1404.77  1412.86
eigval :     1422.02  1437.76  1441.29  1446.46  1452.79  1454.77
eigval :     1459.00  1464.54  1465.64  1470.31  1472.06  1486.41
eigval :     1490.57  1500.09  1501.70  1504.30  1519.50  1666.95
eigval :     1704.87  1708.76  1713.83  2880.15  2971.95  2974.82
eigval :     3008.35  3034.43  3034.92  3041.75  3043.25  3045.82
eigval :     3050.26  3055.88  3058.05  3063.81  3151.23  3215.79
eigval :     3244.59  3317.57  3379.41  3492.98  3496.03  3501.37
eigval :     3504.44  3521.61  3531.28  3534.77  3537.14  3555.70
eigval :     3561.61  3568.09  3570.71
           -------------------------------------------------
          |                Property Printout                |
           -------------------------------------------------

    * Orbital Energies and Occupations

         #    Occupation            Energy/Eh            Energy/eV
      -------------------------------------------------------------
         1        2.0000           -0.7947139             -21.6253
       ...           ...                  ...                  ...
        58        2.0000           -0.5127941             -13.9538
        59        2.0000           -0.5065091             -13.7828
        60        2.0000           -0.5050260             -13.7425
        61        2.0000           -0.5020384             -13.6612
        62        2.0000           -0.4984931             -13.5647
        63        2.0000           -0.4981371             -13.5550
        64        2.0000           -0.4967037             -13.5160
        65        2.0000           -0.4930702             -13.4171
        66        2.0000           -0.4925700             -13.4035
        67        2.0000           -0.4909305             -13.3589
        68        2.0000           -0.4877527             -13.2724
        69        2.0000           -0.4865170             -13.2388
        70        2.0000           -0.4818014             -13.1105 (HOMO)
        71                         -0.2736356              -7.4460 (LUMO)
        72                         -0.2689508              -7.3185
        73                         -0.2627374              -7.1494
        74                         -0.2540059              -6.9119
        75                         -0.1484193              -4.0387
        76                         -0.1081986              -2.9442
        77                         -0.0897354              -2.4418
        78                         -0.0844439              -2.2978
        79                         -0.0811558              -2.2084
        80                         -0.0734357              -1.9983
        81                         -0.0705679              -1.9203
       ...                                ...                  ...
       122                          0.5617319              15.2855
      -------------------------------------------------------------
                  HL-Gap            0.2081658 Eh            5.6645 eV
             Fermi-level           -0.3777185 Eh          -10.2782 eV

     #   Z          covCN         q      C6AA      α(0)
     1   8 O        1.653    -0.475    22.368     6.385
     2   6 C        3.673     0.073    19.592     6.343
     3   1 H        0.923     0.046     2.374     2.410
     4   1 H        0.924     0.053     2.282     2.362
     5   6 C        3.769    -0.079    22.051     6.692
     6   1 H        0.924     0.122     1.594     1.974
     7   1 H        0.924     0.116     1.645     2.006
     8   7 N        3.623     0.158    18.583     6.403
     9   6 C        3.739    -0.118    22.836     6.819
    10   1 H        0.925     0.078     1.996     2.210
    11   1 H        0.925     0.123     1.587     1.970
    12   1 H        0.925     0.114     1.667     2.019
    13   6 C        3.721    -0.109    22.709     6.806
    14   1 H        0.925     0.130     1.534     1.937
    15   1 H        0.925     0.078     2.003     2.213
    16   1 H        0.925     0.098     1.805     2.101
    17   6 C        3.724    -0.103    22.574     6.785
    18   1 H        0.925     0.092     1.864     2.135
    19   1 H        0.925     0.115     1.651     2.010
    20   1 H        0.925     0.086     1.918     2.166
    21   1 H        0.802     0.338     0.618     1.235
    22   6 C        2.675     0.343    21.177     7.530
    23   8 O        0.860    -0.528    24.410     6.624
    24   7 N        2.645    -0.291    27.515     7.790
    25   1 H        0.860     0.200     1.108     1.649
    26   1 H        0.861     0.180     1.212     1.724
    27   7 N        2.644    -0.307    27.909     7.846
    28   1 H        0.861     0.173     1.257     1.756
    29   1 H        0.860     0.232     0.956     1.532
    30   6 C        2.675     0.342    21.198     7.534
    31   8 O        0.860    -0.521    24.263     6.604
    32   7 N        2.644    -0.306    27.867     7.840
    33   1 H        0.860     0.233     0.951     1.527
    34   1 H        0.861     0.180     1.215     1.727
    35   7 N        2.644    -0.291    27.500     7.788
    36   1 H        0.861     0.184     1.192     1.710
    37   1 H        0.860     0.200     1.106     1.647
    38   6 C        2.675     0.343    21.166     7.528
    39   8 O        0.860    -0.521    24.246     6.602
    40   7 N        2.644    -0.314    28.070     7.869
    41   1 H        0.860     0.237     0.936     1.516
    42   1 H        0.860     0.174     1.247     1.750
    43   7 N        2.645    -0.299    27.693     7.816
    44   1 H        0.860     0.182     1.204     1.718
    45   1 H        0.860     0.194     1.138     1.671
    46   6 C        2.675     0.341    21.214     7.537
    47   8 O        0.860    -0.534    24.542     6.642
    48   7 N        2.646    -0.290    27.470     7.784
    49   1 H        0.861     0.199     1.109     1.650
    50   1 H        0.861     0.187     1.176     1.699
    51   7 N        2.645    -0.294    27.573     7.799
    52   1 H        0.860     0.184     1.193     1.711
    53   1 H        0.860     0.253     0.874     1.464

 Mol. C6AA /au·bohr⁶  :      21794.496619
 Mol. C8AA /au·bohr⁸  :     454306.755530
 Mol. α(0) /au        :        220.564617


Wiberg/Mayer (AO) data.
largest (>0.10) Wiberg bond orders for each atom

 ---------------------------------------------------------------------------
     #   Z sym  total        # sym  WBO       # sym  WBO       # sym  WBO
 ---------------------------------------------------------------------------
     1   8 O    1.964 --     2 C    1.009    21 H    0.813
     2   6 C    3.964 --     1 O    1.009     5 C    1.001     4 H    0.967
                             3 H    0.960
     3   1 H    0.998 --     2 C    0.960
     4   1 H    0.997 --     2 C    0.967
     5   6 C    3.920 --     2 C    1.001     7 H    0.950     6 H    0.941
                             8 N    0.929
     6   1 H    0.985 --     5 C    0.941
     7   1 H    0.986 --     5 C    0.950
     8   7 N    3.822 --    17 C    0.963    13 C    0.958     9 C    0.953
                             5 C    0.929
     9   6 C    3.917 --    10 H    0.978    12 H    0.968    11 H    0.957
                             8 N    0.953
    10   1 H    0.994 --     9 C    0.978
    11   1 H    0.985 --     9 C    0.957
    12   1 H    0.987 --     9 C    0.968
    13   6 C    3.921 --    15 H    0.978    16 H    0.972     8 N    0.958
                            14 H    0.954
    14   1 H    0.983 --    13 C    0.954
    15   1 H    0.994 --    13 C    0.978
    16   1 H    0.990 --    13 C    0.972
    17   6 C    3.934 --    20 H    0.977    18 H    0.974    19 H    0.970
                             8 N    0.963
    18   1 H    0.992 --    17 C    0.974
    19   1 H    0.987 --    17 C    0.970
    20   1 H    0.993 --    17 C    0.977
    21   1 H    0.886 --     1 O    0.813
    22   6 C    3.959 --    23 O    1.523    27 N    1.228    24 N    1.202
    23   8 O    1.894 --    22 C    1.523    27 N    0.147    24 N    0.138
    24   7 N    3.318 --    22 C    1.202    26 H    0.948    25 H    0.943
                            23 O    0.138
    25   1 H    0.960 --    24 N    0.943
    26   1 H    0.967 --    24 N    0.948
    27   7 N    3.327 --    22 C    1.228    28 H    0.951    29 H    0.894
                            23 O    0.147
    28   1 H    0.970 --    27 N    0.951
    29   1 H    0.946 --    27 N    0.894
    30   6 C    3.959 --    31 O    1.512    32 N    1.231    35 N    1.205
    31   8 O    1.906 --    30 C    1.512    32 N    0.143    35 N    0.135
    32   7 N    3.327 --    30 C    1.231    34 H    0.948    33 H    0.897
                            31 O    0.143
    33   1 H    0.946 --    32 N    0.897
    34   1 H    0.968 --    32 N    0.948
    35   7 N    3.320 --    30 C    1.205    36 H    0.947    37 H    0.943
                            31 O    0.135
    36   1 H    0.966 --    35 N    0.947
    37   1 H    0.960 --    35 N    0.943
    38   6 C    3.959 --    39 O    1.526    40 N    1.235    43 N    1.189
    39   8 O    1.910 --    38 C    1.526    40 N    0.146    43 N    0.135
    40   7 N    3.322 --    38 C    1.235    42 H    0.950    41 H    0.876
                            39 O    0.146
    41   1 H    0.944 --    40 N    0.876
    42   1 H    0.969 --    40 N    0.950
    43   7 N    3.301 --    38 C    1.189    44 H    0.948    45 H    0.945
                            39 O    0.135
    44   1 H    0.967 --    43 N    0.948
    45   1 H    0.962 --    43 N    0.945
    46   6 C    3.960 --    47 O    1.460    51 N    1.280    48 N    1.211
    47   8 O    1.915 --    46 C    1.460    51 N    0.141    48 N    0.126
    48   7 N    3.325 --    46 C    1.211    50 H    0.946    49 H    0.942
                            47 O    0.126
    49   1 H    0.960 --    48 N    0.942
    50   1 H    0.965 --    48 N    0.946
    51   7 N    3.364 --    46 C    1.280    52 H    0.947    53 H    0.869
                            47 O    0.141
    52   1 H    0.966 --    51 N    0.947
    53   1 H    0.936 --    51 N    0.869
 ---------------------------------------------------------------------------

Topologies differ in total number of bonds
Writing topology from bond orders to xtbtopo.mol

molecular dipole:
                 x           y           z       tot (Debye)
 q only:       -0.473       0.018       0.006
   full:       -0.839       0.217      -0.542       2.598
molecular quadrupole (traceless):
                xx          xy          yy          xz          yz          zz
 q only:       -8.720     -24.192      -8.774       1.135      33.746      17.494
  q+dip:      -10.318     -27.737     -13.260       1.414      41.650      23.578
   full:      -10.302     -27.693     -12.503       1.242      41.409      22.805

           -------------------------------------------------
          |               Frequency Printout                |
           -------------------------------------------------
 projected vibrational frequencies (cm⁻¹)
eigval :       -0.00    -0.00     0.00     0.00     0.00     0.00
eigval :       14.50    24.84    27.38    34.47    39.51    41.83
eigval :       46.23    50.66    54.19    61.10    69.03    74.30
eigval :       77.50    79.28    82.45    88.21    92.28   100.57
eigval :      123.25   131.78   141.80   155.26   167.74   174.83
eigval :      180.22   200.64   204.59   221.57   255.22   290.76
eigval :      302.41   310.20   323.04   337.80   341.41   373.33
eigval :      374.45   398.75   422.11   428.65   445.90   460.03
eigval :      461.00   465.55   469.24   470.40   478.33   479.02
eigval :      483.08   484.79   489.51   534.33   544.17   550.66
eigval :      561.34   565.54   654.53   660.90   663.54   675.94
eigval :      676.36   687.51   713.02   734.91   755.26   765.03
eigval :      901.31   925.00   958.85   959.71   965.01   976.34
eigval :      993.72  1004.18  1008.43  1011.87  1013.38  1016.21
eigval :     1027.27  1031.67  1035.25  1082.48  1086.31  1089.43
eigval :     1094.17  1097.21  1102.83  1133.32  1169.47  1225.33
eigval :     1241.10  1271.77  1318.49  1328.24  1353.11  1356.20
eigval :     1358.66  1364.04  1368.68  1384.59  1404.77  1412.86
eigval :     1422.02  1437.76  1441.29  1446.46  1452.79  1454.77
eigval :     1459.00  1464.54  1465.64  1470.31  1472.06  1486.41
eigval :     1490.57  1500.09  1501.70  1504.30  1519.50  1666.95
eigval :     1704.87  1708.76  1713.83  2880.15  2971.95  2974.82
eigval :     3008.35  3034.43  3034.92  3041.75  3043.25  3045.82
eigval :     3050.26  3055.88  3058.05  3063.81  3151.23  3215.79
eigval :     3244.59  3317.57  3379.41  3492.98  3496.03  3501.37
eigval :     3504.44  3521.61  3531.28  3534.77  3537.14  3555.70
eigval :     3561.61  3568.09  3570.71
 reduced masses (amu)
   1: 12.69   2: 12.61   3: 12.51   4: 12.48   5: 12.38   6: 12.71   7: 11.86   8: 12.45
   9: 11.71  10: 12.16  11: 12.39  12: 11.93  13: 11.42  14: 12.55  15: 12.16  16: 13.06
  17: 12.12  18: 13.10  19: 12.40  20: 12.61  21: 11.36  22: 13.30  23: 13.38  24: 13.01
  25: 12.60  26: 12.50  27: 12.67  28: 12.32  29: 12.70  30: 13.38  31: 10.26  32:  3.07
  33:  2.09  34: 11.39  35:  5.03  36:  5.89  37:  2.72  38:  2.76  39:  6.70  40:  4.41
  41:  3.90  42:  2.45  43:  7.66  44:  3.50  45:  3.40  46:  8.76  47:  2.53  48:  8.13
  49:  2.32  50:  7.72  51:  3.61  52:  5.78  53:  3.92  54:  8.29  55:  4.19  56:  6.91
  57:  8.39  58: 11.02  59: 11.41  60: 11.29  61:  9.62  62: 10.50  63:  5.29  64:  4.05
  65: 10.30  66: 10.14  67: 11.26  68:  8.12  69:  2.22  70:  3.12  71:  2.74  72:  8.97
  73:  6.80  74:  8.52  75:  4.93  76:  5.01  77:  5.02  78:  4.83  79:  7.23  80:  9.04
  81:  8.94  82:  9.65  83:  7.02  84:  8.60  85:  6.30  86:  3.60  87:  7.03  88:  9.85
  89:  9.05  90:  8.55  91:  6.13  92:  7.14  93:  4.66  94:  9.56  95:  3.09  96:  6.23
  97:  6.39  98:  8.30  99:  4.97 100:  3.98 101:  5.34 102:  5.28 103:  5.00 104:  4.61
 105:  5.67 106:  3.91 107:  2.56 108:  2.64 109:  2.13 110:  2.57 111:  1.70 112:  3.18
 113:  2.57 114:  2.25 115:  2.49 116:  2.28 117:  2.23 118:  1.82 119:  2.26 120:  1.71
 121:  1.73 122:  7.46 123:  8.72 124:  8.20 125:  9.62 126: 12.63 127: 12.67 128: 12.76
 129: 12.74 130:  1.77 131:  1.74 132:  1.71 133:  1.74 134:  1.76 135:  1.82 136:  1.94
 137:  1.54 138:  1.56 139:  1.71 140:  1.89 141:  1.68 142:  1.67 143:  1.90 144:  1.81
 145:  1.79 146:  1.74 147:  1.66 148:  1.46 149:  1.45 150:  1.45 151:  1.45 152:  1.91
 153:  1.89 154:  1.99 155:  1.93 156:  2.17 157:  2.18 158:  2.18 159:  2.18
 IR intensities (km·mol⁻¹)
   1:  1.79   2:  0.26   3:  1.40   4:  1.80   5:  1.86   6:  1.71   7:  0.23   8:  0.60
   9:  1.85  10:  1.95  11:  2.68  12:  1.14  13:  1.41  14:  3.28  15:  1.63  16:  0.23
  17:  0.28  18:  6.30  19:  0.38  20:  2.73  21:  4.73  22:  2.83  23: 13.12  24:  6.65
  25: 13.19  26:  4.59  27: 13.14  28: 37.98  29: 40.23  30: 42.32  31:  2.73  32:138.94
  33:145.38  34: 10.80  35:  0.80  36:  1.22  37:126.80  38:  3.59  39:  3.08  40: 54.33
  41: 75.22  42:186.10  43:  1.82  44:206.46  45:325.20  46:  8.25  47:271.63  48:  5.57
  49: 41.40  50: 22.59  51: 11.65  52: 10.88  53:  6.11  54: 10.25  55: 12.85  56: 14.41
  57: 29.51  58:  8.80  59: 41.92  60: 26.62  61: 25.00  62: 25.50  63: 72.56  64: 55.78
  65: 16.66  66: 67.92  67: 57.42  68: 80.59  69: 61.50  70:112.65  71:528.94  72: 11.53
  73:  2.66  74: 13.05  75:  2.17  76:  0.27  77:  3.19  78:  0.34  79:  9.74  80: 13.98
  81: 26.51  82: 11.68  83: 39.08  84: 17.82  85: 21.22  86:  5.57  87: 43.91  88:  3.14
  89:  4.04  90:  0.68  91:  4.50  92:  1.69  93: 19.87  94: 53.29  95: 17.77  96:  6.95
  97:  3.54  98:  2.29  99:  0.78 100: 16.86 101: 30.26 102:112.25 103:306.67 104: 31.51
 105: 26.02 106: 42.25 107: 18.03 108: 21.26 109: 25.89 110: 16.11 111:  1.17 112:  5.02
 113: 13.28 114: 27.23 115: 10.70 116: 15.56 117:  7.11 118:  8.24 119: 21.15 120: 72.80
 121: 14.19 122:831.53 123:315.90 124:414.91 125:589.50 126:****** 127:****** 128:740.34
 129:464.49 130: 39.61 131: 68.91 132: 48.28 133:  3.08 134: 40.47 135: 31.55 136:  6.02
 137: 18.13 138:  2.08 139: 22.09 140:  4.05 141:  1.82 142:  3.29 143:418.14 144:******
 145:738.41 146:542.05 147:409.81 148: 13.83 149: 19.15 150: 20.22 151: 21.18 152: 11.24
 153: 12.70 154: 26.59 155: 10.44 156:  9.73 157: 13.84 158: 11.79 159: 17.00
 Raman intensities (amu)
Molecule has no symmetry elements
It seems to be the C1 point group
   1:  0.00   2:  0.00   3:  0.00   4:  0.00   5:  0.00   6:  0.00   7:  0.00   8:  0.00
   9:  0.00  10:  0.00  11:  0.00  12:  0.00  13:  0.00  14:  0.00  15:  0.00  16:  0.00
  17:  0.00  18:  0.00  19:  0.00  20:  0.00  21:  0.00  22:  0.00  23:  0.00  24:  0.00
  25:  0.00  26:  0.00  27:  0.00  28:  0.00  29:  0.00  30:  0.00  31:  0.00  32:  0.00
  33:  0.00  34:  0.00  35:  0.00  36:  0.00  37:  0.00  38:  0.00  39:  0.00  40:  0.00
  41:  0.00  42:  0.00  43:  0.00  44:  0.00  45:  0.00  46:  0.00  47:  0.00  48:  0.00
  49:  0.00  50:  0.00  51:  0.00  52:  0.00  53:  0.00  54:  0.00  55:  0.00  56:  0.00
  57:  0.00  58:  0.00  59:  0.00  60:  0.00  61:  0.00  62:  0.00  63:  0.00  64:  0.00
  65:  0.00  66:  0.00  67:  0.00  68:  0.00  69:  0.00  70:  0.00  71:  0.00  72:  0.00
  73:  0.00  74:  0.00  75:  0.00  76:  0.00  77:  0.00  78:  0.00  79:  0.00  80:  0.00
  81:  0.00  82:  0.00  83:  0.00  84:  0.00  85:  0.00  86:  0.00  87:  0.00  88:  0.00
  89:  0.00  90:  0.00  91:  0.00  92:  0.00  93:  0.00  94:  0.00  95:  0.00  96:  0.00
  97:  0.00  98:  0.00  99:  0.00 100:  0.00 101:  0.00 102:  0.00 103:  0.00 104:  0.00
 105:  0.00 106:  0.00 107:  0.00 108:  0.00 109:  0.00 110:  0.00 111:  0.00 112:  0.00
 113:  0.00 114:  0.00 115:  0.00 116:  0.00 117:  0.00 118:  0.00 119:  0.00 120:  0.00
 121:  0.00 122:  0.00 123:  0.00 124:  0.00 125:  0.00 126:  0.00 127:  0.00 128:  0.00
 129:  0.00 130:  0.00 131:  0.00 132:  0.00 133:  0.00 134:  0.00 135:  0.00 136:  0.00
 137:  0.00 138:  0.00 139:  0.00 140:  0.00 141:  0.00 142:  0.00 143:  0.00 144:  0.00
 145:  0.00 146:  0.00 147:  0.00 148:  0.00 149:  0.00 150:  0.00 151:  0.00 152:  0.00
 153:  0.00 154:  0.00 155:  0.00 156:  0.00 157:  0.00 158:  0.00 159:  0.00
 output can be read by thermo (or use thermo option).
 writing <g98.out> molden fake output.
 recommended (thermochemical) frequency scaling factor: 1.0
           -------------------------------------------------
          |             Thermodynamic Functions             |
           -------------------------------------------------

c1  symmetry found (for desy threshold:  0.10E+00) used in thermo

          ...................................................
          :                      SETUP                      :
          :.................................................:
          :  # frequencies                         153      :
          :  # imaginary freq.                       0      :
          :  linear?                             false      :
          :  only rotor calc.                    false      :
          :  symmetry                               c1      :
          :  rotational number                       1      :
          :  scaling factor                  1.0000000      :
          :  rotor cutoff                   50.0000000 cm⁻¹ :
          :  imag. cutoff                  -20.0000000 cm⁻¹ :
          :.................................................:

    mode    ω/cm⁻¹     T·S(HO)/kcal·mol⁻¹    T·S(FR)/kcal·mol⁻¹   T·S(vib)
   ------------------------------------------------------------------------
       1     14.50    -2.16859 (  0.70%)    -1.42325 ( 99.30%)    -1.42848
       2     24.84    -1.84961 (  5.75%)    -1.26369 ( 94.25%)    -1.29735
       3     27.38    -1.79215 (  8.25%)    -1.23492 ( 91.75%)    -1.28088
       4     34.47    -1.65592 ( 18.43%)    -1.16669 ( 81.57%)    -1.25684
       5     39.51    -1.57528 ( 28.05%)    -1.12627 ( 71.95%)    -1.25223
       6     41.83    -1.54162 ( 32.87%)    -1.10939 ( 67.13%)    -1.25148
       7     46.23    -1.48254 ( 42.22%)    -1.07974 ( 57.78%)    -1.24982
       8     50.66    -1.42861 ( 51.30%)    -1.05266 ( 48.70%)    -1.24554
       9     54.19    -1.38885 ( 57.98%)    -1.03267 ( 42.02%)    -1.23919
      10     61.10    -1.31825 ( 69.04%)    -0.99715 ( 30.96%)    -1.21882
      11     69.03    -1.24650 ( 78.42%)    -0.96098 ( 21.58%)    -1.18488
      12     74.30    -1.20334 ( 82.98%)    -0.93918 ( 17.02%)    -1.15839
      13     77.50    -1.17862 ( 85.24%)    -0.92669 ( 14.76%)    -1.14142
      14     79.28    -1.16539 ( 86.34%)    -0.91999 ( 13.66%)    -1.13186
      15     82.45    -1.14240 ( 88.09%)    -0.90835 ( 11.91%)    -1.11452
      16     88.21    -1.10295 ( 90.64%)    -0.88835 (  9.36%)    -1.08287
      17     92.28    -1.07668 ( 92.06%)    -0.87501 (  7.94%)    -1.06067
      18    100.57    -1.02662 ( 94.24%)    -0.84952 (  5.76%)    -1.01642
      19    123.25    -0.90899 ( 97.36%)    -0.78927 (  2.64%)    -0.90583
      20    131.78    -0.87056 ( 97.97%)    -0.76945 (  2.03%)    -0.86851
      21    141.80    -0.82868 ( 98.48%)    -0.74773 (  1.52%)    -0.82745
      22    155.26    -0.77722 ( 98.94%)    -0.72088 (  1.06%)    -0.77662
      23    167.74    -0.73365 ( 99.22%)    -0.69798 (  0.78%)    -0.73337
      24    174.83    -0.71046 ( 99.34%)    -0.68571 (  0.66%)    -0.71029
      25    180.22    -0.69354 ( 99.41%)    -0.67671 (  0.59%)    -0.69344
      26    200.64    -0.63422 ( 99.62%)    -0.64491 (  0.38%)    -0.63426
      27    204.59    -0.62355 ( 99.64%)    -0.63914 (  0.36%)    -0.62360
      28    221.57    -0.58026 ( 99.74%)    -0.61552 (  0.26%)    -0.58036
      29    255.22    -0.50513 ( 99.85%)    -0.57364 (  0.15%)    -0.50523
      30    290.76    -0.43814 ( 99.91%)    -0.53502 (  0.09%)    -0.43822
   ------------------------------------------------------------------------

   temp. (K)  partition function   enthalpy   heat capacity  entropy
                                   cal/mol     cal/K/mol   cal/K/mol   J/K/mol
 298.15  VIB  0.279E+17            19488.978    105.181    128.083
         ROT  0.137E+08              888.752      2.981     35.632
         INT  0.382E+24            20377.730    108.162    163.715
         TR   0.618E+28             1481.254      4.968     43.384
         TOT                       21858.9838   113.1298   207.0995   866.5043

       T/K    H(0)-H(T)+PV         H(T)/Eh          T*S/Eh         G(T)/Eh
   ------------------------------------------------------------------------
    298.15    0.348345E-01    0.473725E+00    0.983997E-01    0.375325E+00
   ------------------------------------------------------------------------

         :::::::::::::::::::::::::::::::::::::::::::::::::::::
         ::                  THERMODYNAMIC                  ::
         :::::::::::::::::::::::::::::::::::::::::::::::::::::
         :: total free energy         -80.558740000087 Eh   ::
         ::.................................................::
         :: total energy              -80.934065348413 Eh   ::
         :: zero point energy           0.438890497523 Eh   ::
         :: G(RRHO) w/o ZPVE           -0.063565149197 Eh   ::
         :: G(RRHO) contrib.            0.375325348326 Eh   ::
         :::::::::::::::::::::::::::::::::::::::::::::::::::::

           -------------------------------------------------
          | TOTAL ENERGY              -80.934065348413 Eh   |
          | TOTAL ENTHALPY            -80.460340342833 Eh   |
          | TOTAL FREE ENERGY         -80.558740000087 Eh   |
          | GRADIENT NORM               0.000067372328 Eh/α |
          | HOMO-LUMO GAP               5.664478778173 eV   |
           -------------------------------------------------

------------------------------------------------------------------------
 * finished run on 2024/01/10 at 18:28:22.750     
------------------------------------------------------------------------
 total:
 * wall-time:     0 d,  0 h,  0 min, 14.494 sec
 *  cpu-time:     0 d,  0 h,  0 min, 14.418 sec
 * ratio c/w:     0.995 speedup
 SCF:
 * wall-time:     0 d,  0 h,  0 min,  0.091 sec
 *  cpu-time:     0 d,  0 h,  0 min,  0.057 sec
 * ratio c/w:     0.632 speedup
 analytical hessian:
 * wall-time:     0 d,  0 h,  0 min, 14.376 sec
 *  cpu-time:     0 d,  0 h,  0 min, 14.334 sec
 * ratio c/w:     0.997 speedup

