 Entering Gaussian System
 *********************************************
 Gaussian 98:
 frequency output generated by the xtb code
 *********************************************
                         Standard orientation:
 --------------------------------------------------------------------
  Center     Atomic     Atomic              Coordinates (Angstroms)
  Number     Number      Type              X           Y           Z
 --------------------------------------------------------------------
    1          8             0       -0.877463   -0.130850   -3.036324
    2          6             0        0.331016    0.077172   -2.360150
    3          1             0        1.128801   -0.226984   -3.040621
    4          1             0        0.473168    1.143101   -2.140170
    5          6             0        0.420777   -0.649558   -1.013666
    6          1             0       -0.461948   -0.393153   -0.423375
    7          1             0        1.315233   -0.303736   -0.493705
    8          7             0        0.498978   -2.135201   -1.070888
    9          6             0        0.720432   -2.613127    0.305002
   10          1             0        1.658224   -2.201535    0.673971
   11          1             0        0.771517   -3.700056    0.316514
   12          1             0       -0.103949   -2.284374    0.934622
   13          6             0        1.630623   -2.573629   -1.900825
   14          1             0        1.456070   -2.328553   -2.944976
   15          1             0        1.753660   -3.651557   -1.813966
   16          1             0        2.534363   -2.079597   -1.543780
   17          6             0       -0.762108   -2.690312   -1.584357
   18          1             0       -0.983118   -2.261800   -2.560554
   19          1             0       -1.565004   -2.430293   -0.897114
   20          1             0       -0.690343   -3.773342   -1.663253
   21          1             0       -1.574496    0.313921   -2.519161
   22          6             0        4.050781    0.226456    0.033162
   23          8             0        3.337285   -0.769405    0.009032
   24          7             0        3.600608    1.427708    0.459970
   25          1             0        2.603391    1.528378    0.644010
   26          1             0        4.141725    2.258898    0.303385
   27          7             0        5.345398    0.186472   -0.379632
   28          1             0        5.972311    0.952866   -0.213059
   29          1             0        5.753310   -0.714969   -0.555271
   30          6             0       -2.042330    2.541788   -0.968878
   31          8             0       -2.266867    1.350369   -1.194771
   32          7             0       -2.851483    3.507526   -1.469973
   33          1             0       -3.561458    3.237847   -2.127863
   34          1             0       -2.622614    4.482200   -1.399085
   35          7             0       -1.008517    2.951196   -0.217991
   36          1             0       -0.878688    3.923626   -0.006115
   37          1             0       -0.404863    2.279664    0.251457
   38          6             0       -3.235256   -1.207078    1.145242
   39          8             0       -2.007362   -1.315212    1.174831
   40          7             0       -4.019747   -1.890494    2.015034
   41          1             0       -3.591045   -2.560925    2.627449
   42          1             0       -5.020370   -1.891390    1.939452
   43          7             0       -3.859443   -0.427426    0.249812
   44          1             0       -4.852446   -0.286025    0.283573
   45          1             0       -3.299912    0.195188   -0.330219
   46          6             0        0.795623    0.963492    2.390821
   47          8             0        0.877774    1.435218    1.254117
   48          7             0       -0.211568    0.162093    2.772715
   49          1             0       -0.871732   -0.204771    2.093162
   50          1             0       -0.220737   -0.244783    3.690208
   51          7             0        1.718461    1.260863    3.336486
   52          1             0        1.694860    0.857829    4.254670
   53          1             0        2.499477    1.840723    3.088455
 --------------------------------------------------------------------
     1 basis functions        1 primitive gaussians
     1 alpha electrons        1 beta electrons

 Harmonic frequencies (cm**-1), IR intensities (km*mol⁻¹),
 Raman scattering activities (A**4/amu), Raman depolarization ratios,
 reduced masses (AMU), force constants (mDyne/A) and normal coordinates:
                      1                      2                      3
                        a                      a                      a 
 Frequencies --    17.3054                20.5896                26.8132
 Red. masses --    12.3332                12.1437                12.3104
 Frc consts  --     0.0000                 0.0000                 0.0000
 IR Inten    --     0.7291                 0.6211                 4.8505
 Raman Activ --     0.0000                 0.0000                 0.0000
 Depolar     --     0.0000                 0.0000                 0.0000
 Atom AN      X      Y      Z        X      Y      Z        X      Y      Z
   1   8     0.19   0.17  -0.03     0.20  -0.00  -0.10    -0.14  -0.09   0.16
   2   6     0.12   0.10   0.07     0.11   0.01   0.01    -0.08  -0.08   0.06
   3   1     0.05   0.04   0.03     0.05   0.00   0.02    -0.04  -0.03   0.01
   4   1     0.03   0.02   0.04     0.02   0.01   0.00    -0.02  -0.02   0.01
   5   6     0.02   0.02   0.03     0.00   0.03   0.03    -0.03  -0.05   0.08
   6   1    -0.00   0.00   0.00    -0.01   0.02  -0.01    -0.01  -0.02   0.02
   7   1     0.00  -0.01   0.03    -0.01   0.01   0.02    -0.01  -0.00   0.02
   8   7    -0.03   0.02  -0.05    -0.02   0.03   0.06     0.03  -0.05   0.12
   9   6    -0.09  -0.06  -0.06    -0.08   0.05   0.07    -0.00  -0.01   0.13
  10   1    -0.02  -0.04  -0.01    -0.02   0.01   0.03    -0.01   0.01   0.05
  11   1    -0.04  -0.02  -0.03    -0.03   0.01   0.03     0.01  -0.00   0.05
  12   1    -0.03  -0.02  -0.02    -0.03   0.02   0.01    -0.01  -0.01   0.03
  13   6    -0.01   0.03  -0.03     0.01   0.00   0.11     0.08  -0.02   0.17
  14   1     0.01   0.03  -0.01     0.02  -0.01   0.03     0.03  -0.01   0.05
  15   1    -0.02   0.01  -0.03    -0.00   0.00   0.04     0.03  -0.01   0.05
  16   1    -0.00  -0.01   0.01     0.00  -0.00   0.04     0.01   0.00   0.06
  17   6    -0.03   0.09  -0.12    -0.00   0.04   0.01     0.07  -0.10   0.08
  18   1     0.01   0.04  -0.03     0.01   0.01  -0.00     0.02  -0.04   0.02
  19   1    -0.01   0.02  -0.04    -0.01   0.02  -0.01     0.01  -0.04   0.02
  20   1    -0.02   0.03  -0.05    -0.01   0.01   0.01     0.03  -0.03   0.03
  21   1     0.04   0.03  -0.01     0.04  -0.00  -0.04    -0.02  -0.01   0.04
  22   6     0.03  -0.16   0.09    -0.06   0.11  -0.01     0.00   0.05   0.05
  23   8    -0.03  -0.13   0.16    -0.04   0.09   0.13    -0.03   0.08   0.20
  24   7     0.09  -0.10  -0.05    -0.08   0.13  -0.08     0.04   0.12  -0.11
  25   1     0.02  -0.00  -0.03    -0.02   0.03  -0.01     0.01   0.05  -0.04
  26   1     0.04  -0.04  -0.03    -0.03   0.04  -0.05     0.01   0.02  -0.07
  27   7     0.06  -0.30   0.19    -0.09   0.12  -0.09     0.00  -0.05   0.07
  28   1     0.03  -0.09   0.04    -0.03   0.04  -0.05     0.01  -0.01  -0.01
  29   1     0.00  -0.09   0.08    -0.02   0.03  -0.01    -0.01  -0.02   0.05
  30   6    -0.16  -0.05   0.07    -0.05  -0.09  -0.01    -0.03   0.13   0.06
  31   8    -0.04  -0.07  -0.01     0.04  -0.10  -0.15    -0.02   0.15   0.08
  32   7    -0.34  -0.12   0.24    -0.05  -0.10  -0.01    -0.11   0.13   0.16
  33   1    -0.09  -0.04   0.07     0.01  -0.02  -0.03    -0.04   0.03   0.06
  34   1    -0.12  -0.03   0.07    -0.03  -0.02   0.03    -0.03   0.04   0.03
  35   7    -0.16   0.01   0.03    -0.15  -0.11   0.14     0.04   0.16  -0.05
  36   1    -0.07   0.00   0.03    -0.06  -0.03   0.06     0.01   0.04  -0.01
  37   1    -0.01   0.01  -0.02    -0.04  -0.03   0.03     0.02   0.04  -0.02
  38   6     0.03  -0.02  -0.01    -0.06   0.12  -0.02    -0.06  -0.05  -0.11
  39   8     0.04   0.07   0.02    -0.07   0.13   0.02    -0.07  -0.01  -0.07
  40   7     0.07   0.03   0.06    -0.09   0.34   0.12    -0.09  -0.26  -0.31
  41   1     0.03   0.03   0.04    -0.03   0.12   0.07    -0.03  -0.08  -0.09
  42   1     0.02  -0.02   0.01    -0.02   0.08   0.02    -0.03  -0.06  -0.08
  43   7    -0.01  -0.19  -0.13    -0.04  -0.09  -0.23    -0.04   0.11   0.00
  44   1    -0.00  -0.06  -0.03    -0.01  -0.00  -0.06    -0.01   0.01  -0.02
  45   1    -0.01  -0.04  -0.04    -0.01  -0.04  -0.07    -0.01   0.04   0.02
  46   6     0.06   0.15  -0.11     0.12  -0.16   0.01     0.10  -0.03  -0.18
  47   8     0.06   0.13  -0.14    -0.02  -0.04   0.06     0.05   0.10  -0.16
  48   7     0.06   0.18  -0.08     0.14  -0.17   0.05     0.08   0.00  -0.20
  49   1     0.02   0.04  -0.02     0.00  -0.01   0.03    -0.00   0.03  -0.05
  50   1     0.02   0.05  -0.02     0.07  -0.07   0.00     0.03  -0.02  -0.06
  51   7     0.06   0.21  -0.13     0.28  -0.35  -0.09     0.20  -0.20  -0.23
  52   1     0.02   0.06  -0.03     0.11  -0.13  -0.04     0.07  -0.09  -0.08
  53   1     0.02   0.05  -0.04     0.08  -0.11  -0.04     0.07  -0.07  -0.07
                      4                      5                      6
                        a                      a                      a 
 Frequencies --    27.8208                31.3308                39.4111
 Red. masses --    11.9996                11.8213                12.4118
 Frc consts  --     0.0000                 0.0000                 0.0000
 IR Inten    --     2.5966                 2.2325                 2.5102
 Raman Activ --     0.0000                 0.0000                 0.0000
 Depolar     --     0.0000                 0.0000                 0.0000
 Atom AN      X      Y      Z        X      Y      Z        X      Y      Z
   1   8     0.04   0.10   0.04     0.27   0.13   0.12     0.01   0.13  -0.03
   2   6    -0.01   0.08   0.11     0.16   0.04   0.25    -0.01   0.11   0.02
   3   1     0.01   0.05   0.03     0.07   0.03   0.09     0.00   0.03   0.01
   4   1    -0.02   0.02   0.06     0.04   0.00   0.11    -0.00   0.03   0.01
   5   6    -0.04  -0.03   0.05     0.02  -0.09   0.19    -0.05   0.11   0.02
   6   1    -0.02  -0.03   0.01    -0.01  -0.04   0.04    -0.01   0.04   0.00
   7   1    -0.02  -0.02   0.03    -0.01  -0.05   0.09    -0.01   0.02   0.01
   8   7     0.00  -0.03  -0.08    -0.01  -0.09   0.07    -0.10   0.12   0.02
   9   6    -0.01  -0.14  -0.11    -0.08  -0.21   0.03    -0.08   0.10   0.01
  10   1    -0.01  -0.04  -0.02    -0.02  -0.08   0.03    -0.02   0.02  -0.00
  11   1     0.00  -0.04  -0.06    -0.04  -0.06  -0.02    -0.04   0.03   0.00
  12   1    -0.01  -0.06  -0.03    -0.02  -0.06   0.01    -0.02   0.04   0.01
  13   6     0.03   0.07  -0.09     0.01  -0.04   0.07    -0.11   0.08  -0.00
  14   1     0.01   0.04  -0.02     0.01   0.01   0.02    -0.04   0.02   0.00
  15   1     0.02   0.02  -0.05    -0.00  -0.01  -0.00    -0.04   0.02  -0.00
  16   1     0.00   0.02  -0.01     0.00  -0.02   0.04    -0.03   0.02  -0.00
  17   6     0.02  -0.01  -0.14    -0.00  -0.01  -0.04    -0.11   0.14   0.03
  18   1     0.01   0.02  -0.03     0.01   0.03  -0.00    -0.03   0.04   0.01
  19   1     0.00  -0.02  -0.04    -0.01  -0.02  -0.02    -0.03   0.05   0.01
  20   1     0.01  -0.00  -0.07    -0.01  -0.00  -0.04    -0.04   0.04   0.01
  21   1    -0.00   0.01   0.01     0.05   0.03   0.01    -0.00   0.02  -0.00
  22   6    -0.08   0.01   0.13    -0.10  -0.02  -0.15    -0.01  -0.03   0.00
  23   8    -0.11   0.02   0.19    -0.04  -0.08   0.11    -0.06   0.00  -0.01
  24   7    -0.10   0.06  -0.04    -0.13   0.01  -0.26     0.04  -0.01   0.00
  25   1    -0.03   0.03  -0.03    -0.03  -0.01  -0.02     0.01   0.01   0.00
  26   1    -0.02   0.01  -0.02    -0.05   0.01  -0.12     0.02  -0.01   0.00
  27   7    -0.05  -0.06   0.25    -0.19   0.03  -0.42    -0.01  -0.09   0.01
  28   1    -0.01  -0.01   0.06    -0.06   0.02  -0.16     0.01  -0.03   0.01
  29   1    -0.01  -0.02   0.10    -0.04   0.01  -0.09    -0.01  -0.03   0.00
  30   6    -0.04   0.03  -0.13     0.03   0.07   0.01     0.04  -0.06  -0.07
  31   8    -0.11   0.02  -0.03     0.06   0.08  -0.01    -0.00  -0.09   0.08
  32   7     0.09   0.03  -0.34     0.07   0.07  -0.05     0.22  -0.08  -0.40
  33   1     0.03   0.00  -0.10     0.03   0.02  -0.02     0.07  -0.04  -0.11
  34   1     0.03   0.01  -0.10     0.01   0.02  -0.01     0.06  -0.02  -0.11
  35   7    -0.11   0.04  -0.06    -0.02   0.07   0.08    -0.09  -0.02   0.08
  36   1    -0.01   0.02  -0.05    -0.01   0.02   0.02     0.00   0.00  -0.03
  37   1    -0.04   0.01   0.00    -0.01   0.02   0.02    -0.03   0.00   0.04
  38   6     0.06   0.01   0.13     0.03  -0.05  -0.05     0.00  -0.14   0.05
  39   8     0.06  -0.14  -0.06     0.03  -0.05   0.03     0.02   0.04   0.23
  40   7     0.11   0.02   0.18    -0.03  -0.11  -0.16    -0.01  -0.36  -0.14
  41   1     0.03  -0.03   0.01    -0.02  -0.03  -0.04     0.00  -0.07  -0.01
  42   1     0.03   0.04   0.09    -0.01  -0.02  -0.06    -0.00  -0.12  -0.05
  43   7     0.02   0.19   0.32     0.09  -0.01  -0.06     0.01  -0.17   0.02
  44   1     0.01   0.07   0.12     0.02  -0.01  -0.04    -0.00  -0.09  -0.03
  45   1     0.00   0.04   0.06     0.03   0.00  -0.00     0.00  -0.02   0.03
  46   6     0.04  -0.06  -0.07    -0.03   0.06   0.07     0.06   0.05   0.03
  47   8    -0.10   0.06  -0.04    -0.04   0.05   0.07     0.05   0.10   0.04
  48   7     0.22  -0.29  -0.10     0.04  -0.04   0.05    -0.07   0.27   0.11
  49   1     0.05  -0.07  -0.02     0.02  -0.02   0.01    -0.02   0.07   0.03
  50   1     0.08  -0.09  -0.03     0.01   0.00   0.02     0.01   0.04   0.02
  51   7     0.04   0.01  -0.10    -0.11   0.20   0.10     0.25  -0.20  -0.07
  52   1     0.06  -0.04  -0.05    -0.02   0.05   0.03     0.04  -0.02  -0.01
  53   1    -0.01   0.03  -0.03    -0.04   0.07   0.03     0.07  -0.06  -0.02
                      7                      8                      9
                        a                      a                      a 
 Frequencies --    44.6512                51.9876                56.2974
 Red. masses --    12.6373                12.8249                12.7111
 Frc consts  --     0.0000                 0.0000                 0.0000
 IR Inten    --     2.0991                 2.1272                 0.7345
 Raman Activ --     0.0000                 0.0000                 0.0000
 Depolar     --     0.0000                 0.0000                 0.0000
 Atom AN      X      Y      Z        X      Y      Z        X      Y      Z
   1   8     0.25   0.15  -0.03     0.07  -0.06   0.05     0.05  -0.04  -0.08
   2   6     0.18   0.08   0.04     0.06  -0.04   0.05     0.05  -0.03  -0.09
   3   1     0.06   0.02   0.02     0.02  -0.00   0.01     0.01  -0.03  -0.02
   4   1     0.06   0.02   0.02     0.01  -0.01   0.02     0.02  -0.01  -0.04
   5   6     0.08   0.06   0.03     0.07  -0.07   0.03     0.03   0.04  -0.05
   6   1     0.02   0.03  -0.01     0.02  -0.02   0.01     0.02   0.04  -0.02
   7   1     0.02   0.00   0.02     0.02  -0.02   0.01     0.02   0.01  -0.02
   8   7     0.03   0.06   0.02     0.09  -0.07   0.01    -0.04   0.04   0.04
   9   6    -0.03   0.03   0.02     0.11  -0.08  -0.00    -0.00   0.10   0.06
  10   1    -0.01   0.00   0.02     0.04  -0.03  -0.01     0.00   0.03   0.00
  11   1    -0.02   0.01   0.00     0.03  -0.02  -0.00    -0.00   0.03   0.03
  12   1    -0.01   0.01  -0.00     0.04  -0.02   0.01     0.01   0.04   0.02
  13   6     0.03   0.02   0.04     0.06  -0.05  -0.03    -0.10  -0.07   0.01
  14   1     0.02   0.01   0.01     0.01  -0.01  -0.01    -0.04  -0.04   0.00
  15   1    -0.00   0.00   0.01     0.02  -0.02  -0.01    -0.04  -0.02   0.02
  16   1     0.01  -0.00   0.02     0.02  -0.02  -0.01    -0.02  -0.02  -0.02
  17   6     0.01   0.12  -0.02     0.07  -0.06   0.04    -0.09   0.06   0.13
  18   1     0.02   0.04  -0.01     0.01  -0.01   0.01    -0.03   0.01   0.03
  19   1     0.00   0.04  -0.01     0.03  -0.02   0.02    -0.01   0.04   0.05
  20   1    -0.01   0.03  -0.01     0.02  -0.02   0.01    -0.04   0.02   0.05
  21   1     0.05   0.01   0.00     0.02  -0.00   0.00     0.02  -0.01  -0.02
  22   6     0.05   0.02  -0.04     0.07  -0.05  -0.05     0.09   0.01  -0.04
  23   8     0.07   0.01   0.01     0.14  -0.10  -0.11     0.07   0.03  -0.17
  24   7     0.07   0.02  -0.01     0.00  -0.10  -0.01     0.10  -0.01   0.00
  25   1     0.02   0.00   0.01    -0.00  -0.04  -0.01     0.02   0.00  -0.02
  26   1     0.01   0.01  -0.01    -0.01  -0.02   0.01     0.03  -0.00   0.02
  27   7     0.02   0.04  -0.16     0.09   0.03  -0.02     0.12  -0.00   0.05
  28   1     0.01   0.01  -0.05     0.01   0.01   0.01     0.03  -0.01   0.03
  29   1     0.01   0.01  -0.05     0.04   0.02  -0.01     0.03   0.00  -0.00
  30   6     0.05  -0.12  -0.00    -0.14   0.05   0.03     0.01  -0.04   0.09
  31   8     0.11  -0.18   0.15    -0.06   0.07  -0.14     0.21  -0.08   0.06
  32   7    -0.12  -0.24   0.07    -0.04   0.07  -0.10     0.02  -0.14  -0.09
  33   1    -0.05  -0.09   0.04     0.02   0.03  -0.07     0.04  -0.06  -0.05
  34   1    -0.04  -0.06  -0.03    -0.04   0.02   0.03    -0.04  -0.03   0.00
  35   7     0.17   0.00  -0.24    -0.40   0.01   0.39    -0.24   0.07   0.37
  36   1     0.02   0.01  -0.08    -0.10   0.00   0.10    -0.07   0.02   0.07
  37   1     0.05   0.02  -0.05    -0.08  -0.00   0.07    -0.03   0.03   0.07
  38   6    -0.14   0.00   0.10     0.06   0.09  -0.00    -0.12  -0.01  -0.01
  39   8    -0.17  -0.12  -0.06     0.07   0.01  -0.11    -0.15  -0.10   0.07
  40   7    -0.12  -0.04   0.11     0.09   0.06  -0.01    -0.24  -0.06  -0.15
  41   1    -0.03  -0.05  -0.01     0.03  -0.01  -0.03    -0.09  -0.04  -0.05
  42   1    -0.03   0.01   0.06     0.02   0.04   0.02    -0.06   0.01  -0.05
  43   7    -0.18   0.21   0.31     0.05   0.25   0.15    -0.01   0.15   0.05
  44   1    -0.04   0.07   0.10     0.02   0.07   0.05    -0.00   0.05  -0.01
  45   1    -0.04   0.03   0.06     0.01   0.05   0.02     0.02   0.03   0.02
  46   6    -0.08  -0.03  -0.07    -0.11   0.01  -0.05     0.05   0.02  -0.06
  47   8     0.04   0.04  -0.05    -0.06  -0.02  -0.06     0.04   0.06  -0.06
  48   7    -0.21   0.08  -0.18    -0.31   0.28   0.01     0.27  -0.28  -0.18
  49   1    -0.04   0.03  -0.06    -0.06   0.05  -0.01     0.05  -0.05  -0.04
  50   1    -0.07  -0.00  -0.06    -0.07   0.04  -0.01     0.04  -0.04  -0.03
  51   7    -0.09  -0.22  -0.02     0.01  -0.23  -0.10    -0.12   0.28   0.03
  52   1    -0.07  -0.05  -0.00    -0.05   0.00  -0.00     0.01   0.01  -0.02
  53   1    -0.01  -0.06   0.03     0.00  -0.05  -0.02    -0.04   0.08   0.01
                     10                     11                     12
                        a                      a                      a 
 Frequencies --    61.2492                63.4716                65.1006
 Red. masses --    12.2750                12.6573                13.0416
 Frc consts  --     0.0000                 0.0000                 0.0000
 IR Inten    --     1.7811                 1.1668                 2.0303
 Raman Activ --     0.0000                 0.0000                 0.0000
 Depolar     --     0.0000                 0.0000                 0.0000
 Atom AN      X      Y      Z        X      Y      Z        X      Y      Z
   1   8     0.12   0.11   0.18    -0.16   0.04   0.20    -0.09  -0.00  -0.04
   2   6     0.09   0.04   0.20    -0.12   0.06   0.13    -0.00  -0.09  -0.14
   3   1     0.03   0.02   0.06    -0.04   0.03   0.03    -0.02  -0.05  -0.06
   4   1     0.03   0.01   0.08    -0.05   0.02   0.05     0.03  -0.03  -0.05
   5   6     0.07  -0.05   0.15    -0.04   0.01   0.10     0.04  -0.06  -0.13
   6   1     0.03  -0.01   0.06    -0.02  -0.02   0.03     0.02  -0.01  -0.03
   7   1     0.04  -0.04   0.03    -0.02   0.02   0.03     0.02  -0.02  -0.05
   8   7    -0.05  -0.06   0.06     0.06   0.02   0.04     0.01  -0.07  -0.11
   9   6     0.06  -0.14   0.00     0.09  -0.03   0.01    -0.04  -0.05  -0.08
  10   1     0.04  -0.07  -0.02     0.02   0.00   0.01    -0.02  -0.01  -0.02
  11   1    -0.01  -0.04  -0.02     0.05  -0.01  -0.01    -0.01  -0.01  -0.02
  12   1     0.04  -0.03   0.03     0.02  -0.03   0.01    -0.02  -0.01  -0.03
  13   6    -0.17  -0.08  -0.10     0.09   0.13   0.02     0.04  -0.09  -0.05
  14   1    -0.09  -0.01  -0.02     0.02   0.05   0.01     0.03  -0.03  -0.02
  15   1    -0.06  -0.03  -0.04     0.04   0.04  -0.01     0.01  -0.03  -0.01
  16   1    -0.03  -0.04  -0.06     0.02   0.05   0.01     0.01  -0.03  -0.01
  17   6    -0.15   0.07   0.16     0.10  -0.05   0.01     0.02  -0.05  -0.13
  18   1    -0.06   0.04   0.06     0.02  -0.01   0.01     0.01  -0.02  -0.04
  19   1    -0.02   0.02   0.08     0.02  -0.03   0.00     0.00  -0.01  -0.04
  20   1    -0.07   0.02   0.02     0.05  -0.01  -0.01     0.00  -0.02  -0.04
  21   1     0.03   0.03   0.04    -0.04   0.00   0.06     0.00   0.01   0.02
  22   6     0.09   0.05  -0.05     0.09  -0.03  -0.02    -0.10   0.05   0.02
  23   8     0.19   0.01  -0.34     0.03   0.01   0.01    -0.08   0.03   0.09
  24   7    -0.06  -0.03   0.01     0.21  -0.03   0.08    -0.19   0.10  -0.23
  25   1    -0.02  -0.03  -0.03     0.06   0.01   0.03    -0.05   0.02  -0.05
  26   1    -0.02   0.01   0.06     0.07  -0.01   0.01    -0.05   0.03  -0.06
  27   7     0.19   0.20   0.22     0.04  -0.10  -0.18    -0.06   0.03   0.17
  28   1     0.03   0.06   0.11     0.03  -0.04  -0.05    -0.03   0.02   0.03
  29   1     0.08   0.07   0.03    -0.01  -0.03  -0.06    -0.01   0.00   0.09
  30   6    -0.03   0.10  -0.06    -0.00   0.03   0.04     0.16   0.06   0.14
  31   8    -0.07   0.11   0.01    -0.07   0.01   0.21     0.37   0.01   0.28
  32   7    -0.06   0.10  -0.03     0.15   0.02  -0.22     0.06  -0.10   0.00
  33   1    -0.03   0.02   0.01     0.04  -0.01  -0.05     0.04  -0.07  -0.00
  34   1    -0.00   0.03  -0.03     0.04   0.00  -0.08    -0.02  -0.02  -0.02
  35   7     0.07   0.12  -0.20    -0.07   0.06   0.12     0.07   0.27   0.16
  36   1     0.02   0.03  -0.05     0.01   0.03  -0.03    -0.01   0.08   0.02
  37   1     0.01   0.03  -0.04    -0.01   0.03   0.03     0.04   0.09   0.05
  38   6    -0.03  -0.07   0.02    -0.08  -0.06  -0.06     0.04  -0.05   0.06
  39   8    -0.04  -0.12   0.13    -0.10  -0.11  -0.18     0.03  -0.20   0.13
  40   7    -0.12   0.07   0.05    -0.02   0.22   0.22    -0.07   0.16   0.13
  41   1    -0.05   0.03   0.04     0.00   0.06   0.06    -0.05   0.03   0.04
  42   1    -0.03   0.02  -0.02    -0.01   0.03   0.05    -0.02   0.05   0.01
  43   7     0.05  -0.18  -0.14    -0.16  -0.30  -0.23     0.16  -0.12  -0.08
  44   1     0.02  -0.03  -0.04    -0.04  -0.03  -0.00     0.05   0.02  -0.01
  45   1     0.02  -0.04  -0.02    -0.05  -0.06  -0.05     0.07  -0.03   0.00
  46   6    -0.04  -0.05  -0.07    -0.01   0.03  -0.07    -0.08   0.04  -0.04
  47   8    -0.13  -0.08  -0.09     0.13   0.15  -0.02    -0.09   0.05  -0.04
  48   7    -0.01  -0.05   0.02    -0.03  -0.03  -0.26    -0.17   0.16  -0.01
  49   1    -0.01  -0.02   0.02     0.00   0.01  -0.09    -0.03   0.02  -0.01
  50   1     0.02  -0.01   0.01    -0.04  -0.02  -0.08    -0.03   0.01  -0.01
  51   7     0.04  -0.07  -0.16    -0.12  -0.06   0.06    -0.01  -0.07  -0.08
  52   1     0.02   0.00  -0.03    -0.07  -0.03   0.01    -0.02   0.01  -0.01
  53   1     0.00  -0.01  -0.06    -0.03   0.00   0.06    -0.01  -0.01  -0.02
                     13                     14                     15
                        a                      a                      a 
 Frequencies --    71.6475                77.9951                83.5886
 Red. masses --    12.3224                12.4577                12.6677
 Frc consts  --     0.0000                 0.0000                 0.0000
 IR Inten    --     7.3850                 4.0095                10.9568
 Raman Activ --     0.0000                 0.0000                 0.0000
 Depolar     --     0.0000                 0.0000                 0.0000
 Atom AN      X      Y      Z        X      Y      Z        X      Y      Z
   1   8    -0.06   0.06   0.04    -0.02   0.10   0.01     0.00   0.03   0.06
   2   6    -0.00   0.08  -0.07     0.00   0.01  -0.00     0.01  -0.06   0.07
   3   1    -0.02   0.01  -0.03    -0.01  -0.01  -0.01    -0.00  -0.02   0.02
   4   1     0.01   0.03  -0.04     0.02  -0.00   0.00     0.02  -0.02   0.03
   5   6     0.10   0.15  -0.04    -0.02  -0.02  -0.02    -0.04  -0.10   0.04
   6   1     0.04   0.05   0.00    -0.01  -0.01  -0.01    -0.01  -0.03   0.01
   7   1     0.04   0.05  -0.03    -0.01  -0.01   0.00    -0.01  -0.04   0.02
   8   7     0.11   0.16   0.05     0.00  -0.02  -0.04    -0.09  -0.11  -0.01
   9   6     0.15   0.23   0.07    -0.18  -0.04  -0.02    -0.19  -0.15  -0.01
  10   1     0.04   0.08   0.01    -0.07  -0.01   0.03    -0.06  -0.06   0.02
  11   1     0.05   0.07   0.04    -0.05  -0.01  -0.01    -0.07  -0.05  -0.01
  12   1     0.04   0.07   0.02    -0.08  -0.01  -0.03    -0.06  -0.03  -0.02
  13   6     0.07   0.10   0.04     0.13   0.02   0.12    -0.03  -0.10   0.06
  14   1     0.02   0.03   0.01     0.08   0.01   0.03     0.01  -0.03   0.01
  15   1     0.01   0.03   0.01     0.04   0.00   0.03    -0.01  -0.03   0.02
  16   1     0.03   0.02   0.01     0.02   0.01   0.08    -0.01  -0.03   0.03
  17   6     0.08   0.12   0.13     0.08  -0.02  -0.23    -0.06  -0.05  -0.13
  18   1     0.01   0.01   0.03     0.06   0.00  -0.07     0.01  -0.01  -0.04
  19   1     0.03   0.05   0.04    -0.01  -0.02  -0.10    -0.03  -0.01  -0.06
  20   1     0.02   0.03   0.06     0.03  -0.00  -0.07    -0.03  -0.01  -0.04
  21   1    -0.01   0.01   0.02    -0.00   0.02   0.01     0.00  -0.00   0.03
  22   6     0.04  -0.13  -0.06     0.08   0.07   0.03     0.05   0.12  -0.09
  23   8     0.18  -0.25   0.15     0.11   0.06   0.08     0.03   0.16  -0.23
  24   7    -0.18  -0.06  -0.55     0.08   0.06   0.08    -0.03   0.17  -0.33
  25   1    -0.04  -0.04  -0.10     0.01   0.00  -0.01    -0.00   0.04  -0.07
  26   1    -0.06  -0.01  -0.14    -0.00   0.02  -0.03     0.02   0.04  -0.02
  27   7     0.10  -0.10   0.12     0.07   0.11  -0.04     0.17   0.06   0.28
  28   1    -0.00   0.01  -0.02     0.01   0.04  -0.01     0.04   0.02   0.09
  29   1     0.06  -0.03   0.11     0.02   0.03  -0.01     0.05   0.01   0.10
  30   6    -0.03   0.01   0.00     0.03  -0.02   0.05     0.04  -0.10   0.07
  31   8    -0.12   0.02   0.02    -0.14   0.02  -0.01    -0.05  -0.10   0.11
  32   7     0.05   0.06  -0.02     0.21   0.11   0.03     0.13  -0.06   0.03
  33   1     0.01   0.03  -0.00     0.04   0.07   0.01     0.03  -0.00   0.01
  34   1     0.03   0.01  -0.01     0.08   0.02   0.04     0.05  -0.02   0.00
  35   7     0.00  -0.05  -0.01     0.03  -0.20   0.15     0.05  -0.16   0.09
  36   1     0.02  -0.02  -0.00     0.05  -0.06   0.03     0.04  -0.04   0.01
  37   1    -0.01  -0.02   0.00     0.00  -0.08   0.01     0.01  -0.05   0.02
  38   6    -0.05  -0.02  -0.00    -0.10  -0.03   0.10    -0.04   0.08  -0.08
  39   8    -0.06   0.02  -0.03    -0.12  -0.02   0.20    -0.02   0.27  -0.24
  40   7    -0.02  -0.02   0.04    -0.17  -0.02   0.07     0.15  -0.05  -0.03
  41   1     0.00  -0.01   0.00    -0.06  -0.00   0.03     0.08   0.00  -0.02
  42   1    -0.00  -0.02   0.01    -0.04  -0.01  -0.00     0.04  -0.05   0.03
  43   7    -0.10  -0.06  -0.01    -0.06  -0.05   0.06    -0.23   0.03   0.00
  44   1    -0.03  -0.02   0.00    -0.02  -0.02  -0.00    -0.07  -0.02   0.03
  45   1    -0.03  -0.01  -0.00    -0.01  -0.01   0.02    -0.09   0.02  -0.01
  46   6    -0.07  -0.08   0.03    -0.00  -0.06  -0.14     0.04   0.05   0.07
  47   8    -0.09  -0.17   0.00     0.04  -0.41  -0.30     0.12   0.09   0.10
  48   7    -0.03  -0.12   0.07    -0.04   0.08   0.04     0.00   0.05  -0.02
  49   1    -0.01  -0.04   0.02    -0.02  -0.00   0.04     0.01   0.03  -0.02
  50   1    -0.01  -0.01   0.03    -0.04   0.11   0.05    -0.02   0.00  -0.01
  51   7    -0.09   0.00   0.02    -0.05   0.24  -0.19    -0.00  -0.01   0.13
  52   1    -0.03   0.04   0.02     0.04   0.04  -0.06    -0.04   0.02   0.05
  53   1    -0.04   0.03   0.01     0.05  -0.05  -0.13    -0.01   0.03   0.07
                     16                     17                     18
                        a                      a                      a 
 Frequencies --    87.7099                94.1412               106.3433
 Red. masses --    11.6163                11.6543                11.5380
 Frc consts  --     0.0000                 0.0000                 0.0000
 IR Inten    --     4.0701                 2.4677                 4.1154
 Raman Activ --     0.0000                 0.0000                 0.0000
 Depolar     --     0.0000                 0.0000                 0.0000
 Atom AN      X      Y      Z        X      Y      Z        X      Y      Z
   1   8    -0.08   0.14   0.11    -0.08   0.00   0.00    -0.08  -0.10   0.09
   2   6     0.09  -0.08  -0.13    -0.05  -0.02  -0.03    -0.16   0.10   0.18
   3   1    -0.03  -0.08  -0.08    -0.02  -0.01  -0.01    -0.01   0.10   0.06
   4   1     0.10  -0.03  -0.07    -0.01  -0.01  -0.01    -0.12   0.03   0.09
   5   6     0.18  -0.01  -0.10    -0.03  -0.02  -0.03    -0.11  -0.01   0.11
   6   1     0.08   0.04  -0.01    -0.02  -0.02  -0.01    -0.04  -0.05   0.04
   7   1     0.08  -0.03  -0.06    -0.02   0.01  -0.00    -0.04   0.01   0.04
   8   7    -0.00  -0.03  -0.00     0.08  -0.01  -0.04     0.05   0.00  -0.05
   9   6    -0.14   0.04   0.04    -0.15  -0.02  -0.00     0.19  -0.10  -0.10
  10   1    -0.04  -0.01   0.02    -0.06   0.00   0.04     0.06  -0.03  -0.05
  11   1    -0.07   0.01   0.03    -0.04  -0.00  -0.00     0.06  -0.03  -0.05
  12   1    -0.05   0.04  -0.01    -0.08  -0.01  -0.04     0.07  -0.04  -0.00
  13   6     0.01  -0.22   0.11     0.26   0.06   0.17     0.02   0.21  -0.19
  14   1     0.04  -0.07   0.02     0.13   0.02   0.04    -0.03   0.09  -0.04
  15   1    -0.05  -0.07   0.04     0.09   0.02   0.05     0.04   0.06  -0.09
  16   1     0.01  -0.10   0.05     0.05   0.03   0.10     0.00   0.08  -0.06
  17   6    -0.04   0.10  -0.05     0.21  -0.09  -0.28     0.07  -0.09   0.00
  18   1     0.02   0.01  -0.03     0.10  -0.02  -0.09    -0.01  -0.01   0.01
  19   1    -0.01   0.08  -0.04     0.02  -0.05  -0.12     0.02  -0.06   0.02
  20   1    -0.05   0.02   0.02     0.09  -0.02  -0.08     0.05  -0.02  -0.02
  21   1     0.02   0.04   0.08    -0.01   0.00   0.00    -0.04  -0.06   0.01
  22   6     0.00  -0.05   0.06     0.08  -0.08  -0.09    -0.01  -0.05   0.02
  23   8     0.15  -0.16   0.09     0.13  -0.12  -0.27     0.09  -0.13   0.03
  24   7    -0.10  -0.15   0.25    -0.00  -0.15  -0.03    -0.11  -0.09   0.06
  25   1    -0.03  -0.06   0.04     0.00  -0.05   0.01    -0.04  -0.04  -0.00
  26   1    -0.06  -0.02   0.03     0.01  -0.03   0.06    -0.05  -0.01  -0.01
  27   7    -0.05   0.18  -0.13     0.12  -0.00   0.01    -0.02   0.08   0.00
  28   1    -0.04   0.07  -0.03     0.02   0.00   0.03    -0.02   0.04   0.00
  29   1     0.02   0.07  -0.06     0.04   0.01  -0.02     0.02   0.03  -0.00
  30   6    -0.03   0.06   0.04    -0.09   0.06  -0.07     0.08  -0.11   0.05
  31   8     0.00   0.02   0.25    -0.04   0.05  -0.02     0.20  -0.18   0.18
  32   7    -0.05  -0.04  -0.14    -0.18  -0.01  -0.08    -0.02  -0.26  -0.04
  33   1    -0.01  -0.05  -0.03    -0.05  -0.02  -0.02     0.00  -0.11  -0.00
  34   1    -0.03  -0.01  -0.08    -0.06   0.00  -0.04    -0.03  -0.06  -0.04
  35   7    -0.05   0.20  -0.01    -0.08   0.15  -0.14     0.06   0.03  -0.00
  36   1    -0.01   0.06  -0.04    -0.04   0.04  -0.04    -0.01   0.02  -0.01
  37   1    -0.01   0.07   0.01    -0.03   0.05  -0.02     0.02   0.02   0.02
  38   6     0.03   0.04  -0.05    -0.08   0.01   0.08    -0.07   0.16  -0.07
  39   8     0.06   0.25  -0.19    -0.10  -0.00   0.23    -0.07   0.28  -0.02
  40   7     0.24  -0.08   0.03    -0.21   0.02  -0.02    -0.07   0.05  -0.16
  41   1     0.11  -0.00  -0.00    -0.08   0.01   0.01    -0.01   0.02  -0.04
  42   1     0.06  -0.07   0.04    -0.05   0.01  -0.03    -0.02   0.00  -0.05
  43   7    -0.16  -0.07  -0.02     0.01   0.04   0.03    -0.11   0.16  -0.06
  44   1    -0.05  -0.05   0.02     0.00   0.01  -0.02    -0.03   0.02  -0.03
  45   1    -0.07   0.01  -0.00     0.02   0.01   0.02    -0.03   0.05  -0.01
  46   6    -0.01  -0.03  -0.03     0.04   0.05   0.14     0.02  -0.00   0.00
  47   8    -0.14  -0.03  -0.04    -0.05   0.18   0.20    -0.07  -0.13  -0.06
  48   7     0.08  -0.11   0.03     0.10  -0.03   0.14     0.04   0.05   0.16
  49   1    -0.00  -0.01   0.02     0.02  -0.00   0.04    -0.01   0.02   0.06
  50   1     0.02  -0.01   0.02     0.06  -0.05   0.02     0.01   0.05   0.06
  51   7     0.02   0.06  -0.09     0.13  -0.08   0.10     0.09   0.13  -0.11
  52   1     0.06  -0.03  -0.04    -0.00   0.03   0.05     0.08   0.01  -0.04
  53   1     0.02  -0.02  -0.06    -0.02   0.07   0.06     0.05  -0.03  -0.09
                     19                     20                     21
                        a                      a                      a 
 Frequencies --   117.6124               128.3382               144.9675
 Red. masses --    11.9922                12.8991                12.7077
 Frc consts  --     0.0000                 0.0000                 0.0000
 IR Inten    --    15.1796                29.9976                 9.9083
 Raman Activ --     0.0000                 0.0000                 0.0000
 Depolar     --     0.0000                 0.0000                 0.0000
 Atom AN      X      Y      Z        X      Y      Z        X      Y      Z
   1   8    -0.07  -0.01   0.11     0.14   0.09   0.05     0.05  -0.08  -0.10
   2   6     0.05  -0.08  -0.10     0.18  -0.03  -0.02    -0.02   0.02  -0.00
   3   1    -0.02  -0.03  -0.07     0.03  -0.03  -0.02     0.01   0.02   0.02
   4   1     0.04  -0.02  -0.03     0.08  -0.01  -0.01    -0.03   0.01   0.00
   5   6     0.23  -0.10  -0.12     0.17  -0.02  -0.03    -0.07   0.02   0.01
   6   1     0.10  -0.01   0.01     0.05  -0.01  -0.01    -0.03  -0.00  -0.01
   7   1     0.10  -0.05  -0.07     0.05  -0.00  -0.01    -0.03   0.01   0.01
   8   7     0.09  -0.11  -0.16     0.21  -0.02   0.01    -0.03   0.03   0.02
   9   6     0.18  -0.14  -0.18     0.23   0.04   0.02    -0.03   0.03   0.02
  10   1     0.07  -0.05  -0.07     0.07   0.02  -0.01    -0.01   0.01   0.01
  11   1     0.03  -0.04  -0.06     0.07   0.01   0.02    -0.00   0.01   0.01
  12   1     0.07  -0.03  -0.03     0.07   0.02   0.01    -0.01   0.00   0.01
  13   6    -0.05  -0.19  -0.28     0.16  -0.06  -0.03     0.00   0.06   0.03
  14   1    -0.04  -0.04  -0.07     0.03  -0.04  -0.01     0.01   0.02   0.01
  15   1    -0.04  -0.06  -0.10     0.05  -0.01   0.01     0.00   0.02   0.01
  16   1     0.01  -0.09  -0.10     0.05   0.00  -0.03    -0.00   0.02   0.02
  17   6    -0.03   0.02  -0.01     0.18  -0.04   0.07     0.00  -0.02  -0.00
  18   1    -0.03   0.01   0.00     0.04  -0.01   0.02     0.00  -0.01  -0.00
  19   1     0.02   0.03   0.02     0.06  -0.01   0.03    -0.01  -0.02  -0.00
  20   1    -0.04   0.00   0.00     0.05  -0.01   0.02     0.01  -0.01  -0.00
  21   1     0.01   0.01   0.05     0.05   0.02   0.03    -0.01  -0.02  -0.05
  22   6     0.05   0.04   0.09    -0.24  -0.02  -0.07    -0.08  -0.09   0.04
  23   8     0.12   0.00   0.33    -0.42   0.09  -0.36     0.15  -0.27  -0.03
  24   7     0.04   0.08  -0.02    -0.13  -0.04   0.08    -0.33  -0.21   0.10
  25   1     0.01   0.02   0.02    -0.04   0.01   0.00    -0.09  -0.08   0.02
  26   1    -0.00   0.02  -0.05     0.01  -0.02   0.09    -0.11  -0.04   0.05
  27   7     0.01   0.08  -0.06    -0.22  -0.18   0.08    -0.08   0.26   0.05
  28   1    -0.01   0.03  -0.05    -0.03  -0.08   0.05    -0.07   0.11   0.03
  29   1     0.01   0.02   0.02    -0.10  -0.06  -0.03     0.04   0.10  -0.00
  30   6    -0.06  -0.01  -0.02     0.00   0.01   0.05     0.09  -0.06   0.05
  31   8    -0.17   0.01  -0.05    -0.08   0.03   0.09    -0.02  -0.02  -0.09
  32   7     0.01   0.06  -0.01     0.08   0.07   0.03     0.21   0.09   0.17
  33   1    -0.01   0.04   0.00     0.02   0.03   0.01     0.05   0.07   0.03
  34   1     0.02   0.01   0.01     0.05   0.01   0.00     0.09   0.01   0.08
  35   7    -0.04  -0.10  -0.02     0.03  -0.04   0.05     0.11  -0.22   0.10
  36   1     0.01  -0.03  -0.00     0.03  -0.01   0.00     0.05  -0.06   0.04
  37   1    -0.02  -0.03  -0.00     0.00  -0.02   0.01     0.03  -0.07   0.02
  38   6    -0.16   0.01   0.04    -0.10   0.02   0.03    -0.02  -0.04   0.03
  39   8    -0.18   0.03   0.13    -0.11   0.14   0.05    -0.02  -0.05   0.02
  40   7    -0.24  -0.01  -0.02    -0.06  -0.04   0.04    -0.01  -0.03   0.06
  41   1    -0.08   0.00   0.01    -0.00  -0.00   0.01     0.00  -0.01   0.01
  42   1    -0.06  -0.00  -0.03    -0.02  -0.04  -0.00    -0.00  -0.01   0.02
  43   7    -0.14   0.00   0.02    -0.18  -0.05   0.02    -0.02  -0.05   0.03
  44   1    -0.04  -0.01  -0.01    -0.05  -0.03   0.00    -0.01  -0.01   0.01
  45   1    -0.04  -0.00   0.01    -0.06  -0.00   0.01    -0.01  -0.02   0.00
  46   6     0.08   0.10   0.09     0.01   0.02  -0.03     0.02   0.16  -0.10
  47   8     0.11   0.20   0.14    -0.04  -0.01  -0.06    -0.01   0.41  -0.03
  48   7     0.06   0.11   0.03     0.05   0.01   0.02     0.06   0.05  -0.27
  49   1     0.01   0.05   0.01    -0.00   0.01   0.01     0.01   0.04  -0.08
  50   1     0.01   0.02   0.00     0.02   0.02   0.01     0.02  -0.03  -0.09
  51   7     0.09   0.01   0.13     0.06   0.04  -0.10     0.06  -0.02  -0.10
  52   1     0.03  -0.03   0.02     0.01   0.05  -0.01     0.00  -0.01  -0.03
  53   1     0.03  -0.01   0.04    -0.00   0.03  -0.03    -0.02   0.06   0.01
                     22                     23                     24
                        a                      a                      a 
 Frequencies --   161.3155               165.9678               178.8530
 Red. masses --    12.3497                12.6725                 7.4492
 Frc consts  --     0.0000                 0.0000                 0.0000
 IR Inten    --     7.2515                59.4364                47.3088
 Raman Activ --     0.0000                 0.0000                 0.0000
 Depolar     --     0.0000                 0.0000                 0.0000
 Atom AN      X      Y      Z        X      Y      Z        X      Y      Z
   1   8     0.26  -0.14  -0.35     0.07  -0.09  -0.07    -0.05   0.11   0.05
   2   6     0.07  -0.04  -0.04     0.01  -0.01   0.01    -0.00   0.01   0.00
   3   1     0.07   0.01   0.04     0.02   0.02   0.02    -0.01  -0.01  -0.01
   4   1    -0.02  -0.01   0.00    -0.02  -0.00   0.01     0.02   0.00  -0.00
   5   6    -0.18  -0.04  -0.03    -0.03  -0.02   0.00     0.00   0.01   0.00
   6   1    -0.09  -0.03  -0.06    -0.01  -0.01  -0.01     0.00  -0.00   0.00
   7   1    -0.09   0.01   0.04    -0.02  -0.00   0.01     0.00   0.00  -0.00
   8   7    -0.05  -0.04  -0.01     0.01  -0.02  -0.03     0.02   0.01   0.02
   9   6     0.05   0.01  -0.01     0.04  -0.03  -0.04     0.00   0.03   0.03
  10   1     0.02   0.01  -0.02     0.02  -0.02  -0.02     0.01   0.00   0.00
  11   1     0.02   0.00   0.01    -0.01  -0.01  -0.01    -0.01   0.01   0.01
  12   1     0.02   0.01   0.01     0.03   0.01   0.00     0.00   0.02   0.01
  13   6    -0.04   0.06  -0.05     0.01   0.03  -0.06     0.02  -0.01   0.05
  14   1    -0.04  -0.01  -0.02    -0.01   0.01  -0.02     0.01  -0.01   0.01
  15   1     0.03   0.02   0.01     0.02   0.01  -0.02     0.01  -0.00   0.02
  16   1    -0.02   0.06  -0.04    -0.00   0.02  -0.02     0.01  -0.00   0.01
  17   6    -0.01  -0.17   0.04     0.02  -0.06  -0.02     0.02   0.01   0.01
  18   1    -0.03  -0.05   0.02    -0.00  -0.01  -0.00     0.00   0.01   0.01
  19   1    -0.00  -0.08   0.03     0.00  -0.03  -0.00     0.01  -0.01   0.01
  20   1     0.03  -0.05   0.00     0.02  -0.02  -0.02     0.01   0.00  -0.01
  21   1     0.03  -0.04  -0.13     0.01  -0.02  -0.04    -0.00   0.03   0.02
  22   6     0.04  -0.00   0.01     0.01   0.00  -0.01    -0.09  -0.03  -0.04
  23   8     0.08  -0.02   0.06     0.02  -0.01   0.01    -0.04  -0.08  -0.12
  24   7     0.02   0.00  -0.01     0.00   0.01  -0.05    -0.18  -0.07  -0.02
  25   1     0.00  -0.01  -0.01     0.00   0.00  -0.01    -0.06  -0.02  -0.03
  26   1    -0.01   0.00  -0.03     0.00   0.00  -0.01    -0.06  -0.01  -0.01
  27   7     0.05   0.03   0.00     0.02  -0.00   0.01    -0.06   0.05   0.11
  28   1     0.00   0.02  -0.01     0.00   0.01  -0.01    -0.04   0.04   0.00
  29   1     0.02   0.01   0.01     0.01   0.00   0.01     0.00   0.03  -0.00
  30   6     0.02   0.16  -0.01     0.00   0.06  -0.02    -0.05  -0.00  -0.03
  31   8     0.12   0.18  -0.03     0.06   0.07  -0.05    -0.05  -0.01  -0.01
  32   7    -0.02   0.16  -0.00    -0.03   0.05  -0.02    -0.07  -0.03  -0.07
  33   1     0.01   0.04  -0.02    -0.00   0.01  -0.01    -0.03  -0.02  -0.00
  34   1    -0.00   0.04  -0.01    -0.02   0.01   0.00    -0.04  -0.01  -0.01
  35   7    -0.02   0.27   0.02    -0.02   0.11  -0.01    -0.05   0.01  -0.05
  36   1    -0.04   0.07   0.03    -0.02   0.03   0.01    -0.01   0.00  -0.02
  37   1    -0.00   0.08   0.01     0.00   0.03  -0.00    -0.01   0.01  -0.02
  38   6    -0.14  -0.11   0.03     0.03   0.11   0.18     0.02  -0.05  -0.06
  39   8    -0.16  -0.05  -0.18     0.06   0.47   0.44     0.02  -0.20  -0.12
  40   7     0.03  -0.14   0.19     0.08  -0.13   0.02    -0.03   0.07  -0.00
  41   1     0.05  -0.04   0.02     0.05   0.06   0.09    -0.03  -0.03  -0.04
  42   1     0.01  -0.07   0.09     0.02  -0.07   0.01    -0.01   0.03  -0.02
  43   7    -0.33  -0.17   0.09     0.02  -0.09   0.02     0.07   0.04  -0.00
  44   1    -0.08  -0.03   0.08    -0.01  -0.11  -0.07     0.02   0.04   0.02
  45   1    -0.11  -0.03   0.02    -0.00  -0.01   0.02     0.02   0.00  -0.01
  46   6     0.06   0.01   0.07    -0.07  -0.10  -0.09     0.17  -0.02   0.05
  47   8     0.03  -0.08   0.04     0.08   0.01  -0.04     0.31  -0.06   0.05
  48   7     0.03   0.07   0.15    -0.08  -0.17  -0.30     0.03   0.14  -0.04
  49   1     0.00   0.03   0.04    -0.06   0.01  -0.08    -0.02   0.10  -0.01
  50   1    -0.00   0.04   0.05    -0.09   0.00  -0.06    -0.13   0.16   0.04
  51   7     0.09   0.08   0.03    -0.30  -0.09   0.14    -0.07   0.20   0.26
  52   1     0.06  -0.01  -0.00    -0.00  -0.24  -0.05     0.25  -0.40  -0.12
  53   1     0.05  -0.04  -0.03     0.03  -0.17   0.03     0.25  -0.37  -0.07
                     25                     26                     27
                        a                      a                      a 
 Frequencies --   194.0719               197.6513               229.9143
 Red. masses --    10.4498                10.7076                12.9220
 Frc consts  --     0.0000                 0.0000                 0.0000
 IR Inten    --    35.4561               135.0195                32.7655
 Raman Activ --     0.0000                 0.0000                 0.0000
 Depolar     --     0.0000                 0.0000                 0.0000
 Atom AN      X      Y      Z        X      Y      Z        X      Y      Z
   1   8    -0.00   0.50  -0.15    -0.00   0.26  -0.08    -0.26   0.31   0.23
   2   6     0.04  -0.05  -0.07     0.03  -0.03  -0.05    -0.08  -0.02   0.01
   3   1    -0.02  -0.09  -0.02    -0.01  -0.05  -0.01    -0.07  -0.06  -0.03
   4   1     0.12  -0.03  -0.01     0.07  -0.02  -0.01     0.06  -0.01  -0.01
   5   6    -0.23  -0.09  -0.07    -0.12  -0.05  -0.04    -0.00  -0.01   0.02
   6   1    -0.11  -0.05  -0.08    -0.06  -0.03  -0.04     0.00  -0.01   0.01
   7   1    -0.11   0.00   0.04    -0.06   0.00   0.02     0.00   0.00  -0.00
   8   7    -0.05  -0.10   0.02    -0.01  -0.06   0.01     0.02  -0.01   0.04
   9   6     0.12   0.05   0.05     0.07   0.03   0.03     0.04  -0.04   0.02
  10   1     0.04   0.03  -0.03     0.03   0.00  -0.02     0.03  -0.03  -0.01
  11   1     0.04   0.02   0.05     0.00   0.01   0.03    -0.02  -0.01   0.00
  12   1     0.05   0.03   0.03     0.04   0.04   0.02     0.03   0.01   0.02
  13   6    -0.02  -0.03   0.01     0.00  -0.03   0.00     0.03  -0.00   0.04
  14   1    -0.05  -0.09  -0.01    -0.03  -0.06  -0.01    -0.01  -0.04   0.01
  15   1     0.07   0.01   0.08     0.05   0.00   0.05     0.03   0.00   0.04
  16   1    -0.03   0.07  -0.05    -0.01   0.04  -0.04    -0.00   0.03  -0.01
  17   6    -0.00  -0.27   0.10     0.02  -0.15   0.04     0.01   0.04   0.01
  18   1    -0.08  -0.00   0.08    -0.04   0.00   0.04    -0.06   0.13   0.07
  19   1     0.02  -0.19   0.09     0.02  -0.12   0.05     0.02  -0.10   0.07
  20   1     0.07  -0.06  -0.07     0.05  -0.04  -0.05     0.03   0.02  -0.13
  21   1     0.02   0.12  -0.00     0.01   0.07  -0.00    -0.01   0.14   0.08
  22   6    -0.02  -0.00   0.05     0.12  -0.01  -0.04    -0.01   0.00  -0.00
  23   8     0.05  -0.05   0.08     0.06   0.05   0.01    -0.01   0.00  -0.01
  24   7    -0.08  -0.02   0.00     0.19   0.03  -0.02    -0.01  -0.00   0.01
  25   1    -0.02  -0.02   0.03     0.05   0.03  -0.05    -0.00  -0.00  -0.00
  26   1    -0.02  -0.00   0.02     0.04   0.01  -0.07    -0.00  -0.00  -0.00
  27   7    -0.02   0.10   0.01     0.11  -0.12  -0.05    -0.01  -0.00   0.01
  28   1    -0.02   0.04   0.02     0.04  -0.04  -0.05    -0.00  -0.00   0.00
  29   1     0.02   0.03   0.02     0.01  -0.04  -0.02    -0.00  -0.00  -0.00
  30   6    -0.07  -0.01   0.03     0.03  -0.06   0.05     0.16  -0.01  -0.17
  31   8    -0.14  -0.03   0.16    -0.07  -0.05   0.06     0.43   0.01  -0.52
  32   7    -0.04  -0.05  -0.07     0.09  -0.00   0.06    -0.05  -0.06   0.06
  33   1    -0.04  -0.03   0.01     0.02   0.02   0.01     0.05  -0.01  -0.05
  34   1    -0.02  -0.01  -0.03     0.06  -0.01   0.01    -0.06  -0.01   0.08
  35   7    -0.04  -0.02  -0.03     0.07  -0.12  -0.00     0.00   0.01   0.04
  36   1     0.03   0.00  -0.06     0.01  -0.04   0.02    -0.08  -0.01   0.11
  37   1    -0.00  -0.01  -0.02    -0.01  -0.04   0.04     0.02  -0.00  -0.02
  38   6     0.04   0.06  -0.01     0.02   0.01  -0.01    -0.07  -0.05   0.04
  39   8     0.04   0.05   0.07     0.02  -0.01  -0.00    -0.08   0.02  -0.04
  40   7    -0.02   0.05  -0.08     0.00   0.02  -0.03     0.04  -0.12   0.08
  41   1    -0.02   0.03   0.00    -0.00   0.01   0.00     0.04   0.03   0.06
  42   1    -0.01   0.03  -0.03     0.00   0.03   0.01     0.01   0.00   0.11
  43   7     0.09   0.06  -0.04     0.03   0.02  -0.01    -0.14  -0.06   0.07
  44   1     0.02   0.00  -0.03     0.01   0.00  -0.01    -0.04  -0.05  -0.02
  45   1     0.03   0.02  -0.01     0.01   0.01  -0.00    -0.04  -0.06  -0.03
  46   6     0.08  -0.03  -0.01    -0.19   0.06   0.02     0.01   0.00  -0.00
  47   8     0.23  -0.13  -0.04    -0.48   0.31   0.11     0.01  -0.01  -0.00
  48   7     0.03   0.02  -0.08    -0.05  -0.08   0.12    -0.00   0.00   0.00
  49   1     0.04  -0.02  -0.04    -0.07   0.02   0.06     0.00  -0.00  -0.00
  50   1     0.00  -0.01  -0.03     0.01  -0.01   0.04     0.01  -0.01  -0.00
  51   7     0.04  -0.09   0.05    -0.07   0.09  -0.10     0.01  -0.00  -0.01
  52   1    -0.15   0.17   0.09     0.23  -0.28  -0.15    -0.02   0.03   0.01
  53   1    -0.07   0.11   0.09     0.07  -0.14  -0.14    -0.01   0.02   0.01
                     28                     29                     30
                        a                      a                      a 
 Frequencies --   259.8380               261.9372               296.0687
 Red. masses --     3.0549                 4.7441                 2.6407
 Frc consts  --     0.0000                 0.0000                 0.0000
 IR Inten    --    86.1806                55.5368               116.0028
 Raman Activ --     0.0000                 0.0000                 0.0000
 Depolar     --     0.0000                 0.0000                 0.0000
 Atom AN      X      Y      Z        X      Y      Z        X      Y      Z
   1   8     0.00   0.12  -0.07    -0.04   0.26  -0.09    -0.00   0.00  -0.04
   2   6    -0.06   0.11   0.04    -0.12   0.17   0.08    -0.02   0.01  -0.00
   3   1     0.00   0.09   0.01    -0.01   0.12   0.02     0.00   0.02   0.00
   4   1    -0.05   0.03   0.07    -0.07   0.04   0.11    -0.02   0.00   0.01
   5   6    -0.00  -0.03  -0.04    -0.04  -0.07  -0.04    -0.01  -0.01  -0.00
   6   1     0.01  -0.02   0.01     0.00  -0.04   0.02    -0.00  -0.01   0.00
   7   1     0.01  -0.01  -0.02    -0.00  -0.02  -0.03    -0.00   0.00  -0.00
   8   7     0.02  -0.05  -0.02     0.01  -0.10  -0.02     0.01  -0.01   0.01
   9   6     0.03   0.05   0.02     0.07   0.07   0.04     0.02  -0.02   0.01
  10   1    -0.04   0.11   0.03    -0.04   0.13   0.03    -0.00   0.01   0.01
  11   1     0.12   0.02   0.01     0.15   0.03   0.03     0.02  -0.01  -0.00
  12   1    -0.05  -0.07  -0.02    -0.03  -0.06  -0.02     0.00  -0.02   0.00
  13   6     0.00  -0.10  -0.00    -0.01  -0.17   0.00     0.01  -0.02   0.02
  14   1     0.07   0.11   0.02     0.10   0.14   0.03     0.03   0.05   0.01
  15   1    -0.11  -0.05  -0.12    -0.16  -0.08  -0.16    -0.04  -0.02  -0.04
  16   1     0.03  -0.15   0.09     0.04  -0.22   0.13     0.01  -0.05   0.04
  17   6     0.02  -0.10   0.05     0.03  -0.17   0.06     0.00   0.01   0.01
  18   1     0.08  -0.17  -0.07     0.12  -0.25  -0.10    -0.01   0.02   0.01
  19   1    -0.02   0.11  -0.07    -0.03   0.16  -0.11     0.01  -0.01   0.01
  20   1    -0.04  -0.05   0.19    -0.07  -0.07   0.27    -0.00   0.00  -0.02
  21   1    -0.02  -0.00  -0.02    -0.03   0.04  -0.02     0.00   0.03  -0.03
  22   6    -0.00   0.00  -0.01     0.01   0.01  -0.01     0.00   0.00  -0.01
  23   8    -0.01   0.00  -0.02     0.00   0.01  -0.00    -0.00   0.01  -0.01
  24   7    -0.00  -0.00   0.01     0.01   0.01   0.00     0.01   0.00  -0.00
  25   1    -0.00   0.00  -0.01     0.00   0.00  -0.00     0.00  -0.00   0.00
  26   1    -0.00   0.00  -0.01     0.00   0.00  -0.00     0.00   0.00   0.00
  27   7    -0.00   0.00   0.02     0.01   0.00   0.01     0.00  -0.01   0.01
  28   1    -0.00   0.00  -0.01     0.00   0.00  -0.01    -0.00   0.00  -0.02
  29   1    -0.00   0.00  -0.01     0.00   0.00  -0.01    -0.00  -0.00  -0.01
  30   6     0.00  -0.00   0.01     0.04  -0.01  -0.04    -0.01   0.02   0.02
  31   8     0.01   0.00   0.01     0.10  -0.00  -0.13     0.01   0.01  -0.01
  32   7    -0.01   0.00   0.01    -0.02  -0.01   0.03     0.22  -0.05  -0.25
  33   1     0.02  -0.00  -0.02     0.03  -0.00  -0.03    -0.30   0.02   0.33
  34   1     0.03  -0.00  -0.03     0.00  -0.00  -0.00    -0.46   0.05   0.59
  35   7     0.01   0.01  -0.00     0.01  -0.00   0.00    -0.02   0.02   0.04
  36   1    -0.01   0.00   0.01    -0.03  -0.01   0.04     0.18   0.03  -0.22
  37   1    -0.00   0.00   0.01     0.00  -0.00   0.00     0.06   0.01  -0.07
  38   6    -0.02   0.02   0.02    -0.00  -0.02   0.00    -0.01  -0.01  -0.00
  39   8    -0.02  -0.05  -0.03    -0.00   0.05   0.04    -0.01   0.00  -0.01
  40   7     0.01  -0.19  -0.21    -0.00   0.10   0.15     0.01  -0.01   0.02
  41   1    -0.00   0.29   0.31     0.01  -0.19  -0.19     0.01   0.01   0.01
  42   1    -0.03   0.46   0.43     0.02  -0.30  -0.27     0.00  -0.00   0.01
  43   7    -0.01   0.02   0.02    -0.01  -0.03  -0.01    -0.01   0.01   0.01
  44   1    -0.02  -0.10  -0.11     0.01   0.07   0.07    -0.01  -0.04  -0.03
  45   1    -0.01  -0.05  -0.05     0.00   0.03   0.04    -0.00  -0.01  -0.01
  46   6     0.01  -0.00   0.00    -0.01   0.00  -0.00    -0.02   0.00   0.01
  47   8     0.02  -0.01   0.01    -0.01   0.01   0.00    -0.03   0.01   0.01
  48   7    -0.02   0.03   0.02     0.01  -0.02  -0.01    -0.00  -0.01   0.02
  49   1     0.02  -0.02  -0.01    -0.01   0.01   0.00    -0.00   0.00   0.01
  50   1     0.03  -0.03  -0.01    -0.02   0.02   0.01     0.01  -0.01   0.00
  51   7     0.00   0.02   0.01    -0.01  -0.02  -0.00     0.00  -0.00  -0.01
  52   1     0.02  -0.01  -0.00    -0.01  -0.00  -0.00     0.01  -0.00  -0.00
  53   1     0.01  -0.01  -0.01    -0.00  -0.00   0.00    -0.00   0.00  -0.01
                     31                     32                     33
                        a                      a                      a 
 Frequencies --   301.0218               310.3694               329.2269
 Red. masses --     4.4515                 8.1488                 2.6696
 Frc consts  --     0.0000                 0.0000                 0.0000
 IR Inten    --     3.1914                 3.5528               122.6384
 Raman Activ --     0.0000                 0.0000                 0.0000
 Depolar     --     0.0000                 0.0000                 0.0000
 Atom AN      X      Y      Z        X      Y      Z        X      Y      Z
   1   8    -0.03  -0.01  -0.30    -0.08   0.13  -0.24     0.01  -0.02   0.04
   2   6    -0.17   0.10  -0.00    -0.03  -0.24  -0.16     0.04  -0.02  -0.01
   3   1    -0.00   0.12   0.01    -0.04  -0.16  -0.04     0.00  -0.01  -0.01
   4   1    -0.14   0.03   0.06     0.09  -0.07  -0.10     0.02  -0.00  -0.01
   5   6     0.03  -0.02  -0.04    -0.09  -0.01   0.03     0.01   0.00  -0.01
   6   1     0.03  -0.02   0.03    -0.04   0.01  -0.01     0.00   0.01  -0.00
   7   1     0.02   0.02  -0.05    -0.04   0.04   0.00     0.01  -0.01  -0.00
   8   7     0.09  -0.04   0.06     0.04   0.00   0.13    -0.04   0.00  -0.02
   9   6     0.09  -0.10   0.04     0.13  -0.44  -0.04    -0.02   0.02  -0.01
  10   1     0.04  -0.06   0.01     0.01  -0.10   0.04    -0.02   0.03   0.00
  11   1    -0.01  -0.03  -0.01     0.12  -0.13  -0.14     0.02   0.01  -0.00
  12   1     0.05  -0.01   0.03     0.01  -0.26   0.02    -0.02  -0.01  -0.01
  13   6     0.08  -0.20   0.14     0.14   0.24   0.13    -0.02   0.04  -0.02
  14   1     0.17   0.17   0.07     0.07   0.11   0.04    -0.00   0.03  -0.00
  15   1    -0.18  -0.10  -0.15     0.07   0.07  -0.02    -0.01   0.01  -0.02
  16   1     0.07  -0.27   0.21     0.01   0.08   0.09    -0.01   0.01   0.02
  17   6    -0.01   0.18   0.03    -0.09   0.28   0.16    -0.02  -0.05  -0.01
  18   1    -0.15   0.34   0.17     0.06  -0.01  -0.01    -0.02  -0.01   0.01
  19   1     0.07  -0.22   0.20    -0.02   0.27  -0.02    -0.00  -0.04   0.01
  20   1     0.06   0.08  -0.35    -0.16   0.06   0.19     0.02  -0.01  -0.02
  21   1    -0.05  -0.03  -0.10     0.00   0.06  -0.05     0.01  -0.00   0.02
  22   6    -0.00   0.01  -0.01     0.00  -0.00  -0.01     0.02   0.03  -0.01
  23   8    -0.01   0.01  -0.01     0.00  -0.00  -0.01     0.02   0.01   0.01
  24   7     0.01   0.01   0.00    -0.00  -0.01  -0.01    -0.03   0.00  -0.07
  25   1     0.00   0.00   0.00     0.00  -0.00   0.00     0.01   0.00   0.07
  26   1     0.01   0.00   0.01     0.01  -0.00   0.02     0.10  -0.01   0.33
  27   7    -0.00  -0.01   0.02     0.00  -0.01   0.01     0.01  -0.10   0.31
  28   1    -0.00   0.00  -0.02    -0.00   0.01  -0.03    -0.09   0.22  -0.74
  29   1    -0.00   0.00  -0.02     0.00   0.00  -0.02    -0.02   0.06  -0.35
  30   6    -0.02  -0.00   0.03    -0.00   0.00   0.01     0.00   0.00  -0.00
  31   8    -0.04  -0.00   0.07    -0.01  -0.00   0.02     0.00   0.00  -0.00
  32   7    -0.01   0.01   0.02    -0.01   0.00   0.01    -0.01   0.00   0.00
  33   1     0.03   0.00  -0.03     0.01  -0.00  -0.01     0.01  -0.00  -0.01
  34   1     0.06  -0.01  -0.08     0.02  -0.00  -0.03     0.01  -0.00  -0.01
  35   7     0.01   0.02  -0.01    -0.00  -0.00  -0.00    -0.00  -0.00   0.00
  36   1    -0.02   0.00   0.02     0.00  -0.00  -0.00     0.00  -0.00  -0.00
  37   1    -0.01   0.01   0.02    -0.00  -0.00  -0.00     0.00  -0.00  -0.00
  38   6     0.00   0.01  -0.01    -0.00   0.01   0.01     0.00   0.00   0.00
  39   8     0.00   0.01  -0.00     0.00   0.02   0.02     0.00   0.00   0.00
  40   7     0.00   0.01  -0.01    -0.01  -0.00  -0.01     0.00   0.00   0.00
  41   1    -0.00  -0.00  -0.00    -0.00  -0.00  -0.00     0.00  -0.00  -0.00
  42   1     0.00  -0.01  -0.01    -0.00  -0.01  -0.01     0.00  -0.01  -0.00
  43   7    -0.01  -0.00  -0.01    -0.01  -0.01  -0.01    -0.00  -0.00  -0.00
  44   1    -0.00   0.01   0.01    -0.00   0.00   0.01     0.00   0.01   0.01
  45   1    -0.00   0.00   0.00    -0.01   0.01   0.00    -0.00   0.00   0.00
  46   6     0.00  -0.00  -0.00    -0.00  -0.00   0.00     0.00  -0.01  -0.01
  47   8     0.01  -0.01  -0.00    -0.01   0.00   0.00    -0.00  -0.01  -0.02
  48   7     0.00   0.00  -0.00    -0.01   0.01   0.01    -0.00   0.01   0.01
  49   1    -0.00   0.00  -0.00     0.01  -0.01  -0.00     0.01  -0.01   0.00
  50   1    -0.00   0.00   0.00     0.00  -0.00   0.00     0.02  -0.02  -0.01
  51   7     0.00  -0.00   0.00    -0.00   0.01  -0.00     0.00   0.01  -0.02
  52   1    -0.00   0.01   0.00     0.01  -0.02  -0.01    -0.01   0.01  -0.00
  53   1    -0.00   0.00   0.00     0.00  -0.01  -0.01    -0.01   0.01   0.00
                     34                     35                     36
                        a                      a                      a 
 Frequencies --   337.6826               357.4510               374.7862
 Red. masses --     4.3526                 4.3650                 5.6250
 Frc consts  --     0.0000                 0.0000                 0.0000
 IR Inten    --     0.8085                 1.8001                 5.5462
 Raman Activ --     0.0000                 0.0000                 0.0000
 Depolar     --     0.0000                 0.0000                 0.0000
 Atom AN      X      Y      Z        X      Y      Z        X      Y      Z
   1   8     0.06  -0.07   0.21    -0.00   0.04   0.04     0.02  -0.08   0.16
   2   6     0.22  -0.15  -0.12     0.07   0.06  -0.12     0.11  -0.24   0.03
   3   1     0.01  -0.12  -0.06     0.00   0.04  -0.07    -0.00  -0.20   0.03
   4   1     0.15  -0.04  -0.11     0.02   0.02  -0.02     0.14  -0.06  -0.09
   5   6     0.04   0.04  -0.03     0.12   0.03  -0.12    -0.31   0.02   0.13
   6   1     0.00   0.06  -0.04     0.05   0.06  -0.03    -0.19  -0.05  -0.08
   7   1     0.01  -0.01   0.01     0.06  -0.03  -0.04    -0.18   0.06   0.16
   8   7    -0.10   0.05   0.01    -0.04   0.01  -0.02    -0.04   0.07  -0.01
   9   6    -0.10   0.04   0.00    -0.18  -0.12  -0.04     0.26   0.17  -0.03
  10   1    -0.18   0.26   0.12     0.12  -0.36  -0.08     0.18  -0.07  -0.15
  11   1     0.30   0.03  -0.05    -0.46  -0.05   0.00    -0.10   0.04   0.05
  12   1    -0.19  -0.25  -0.07     0.11   0.27   0.05     0.20   0.21   0.08
  13   6    -0.10   0.25  -0.08     0.07   0.25   0.01    -0.08  -0.06   0.00
  14   1     0.06   0.31   0.02     0.11   0.27   0.04     0.10   0.16   0.02
  15   1    -0.14   0.04  -0.26    -0.05   0.05  -0.18    -0.22  -0.05  -0.16
  16   1    -0.00  -0.09   0.13     0.02  -0.03   0.15     0.03  -0.22   0.14
  17   6    -0.04  -0.17   0.05    -0.02  -0.26   0.24     0.03   0.13  -0.24
  18   1    -0.11   0.04   0.08    -0.06  -0.17   0.04     0.11   0.02  -0.10
  19   1     0.00  -0.21   0.09     0.02  -0.05   0.09    -0.04   0.09  -0.14
  20   1     0.10  -0.03  -0.12     0.04  -0.08   0.16    -0.03   0.03  -0.03
  21   1     0.06   0.02   0.09     0.01   0.00   0.04     0.04   0.03   0.04
  22   6     0.00  -0.00  -0.01    -0.01   0.01   0.00    -0.01  -0.00  -0.01
  23   8    -0.00  -0.00  -0.02    -0.01   0.01  -0.01    -0.00  -0.00  -0.01
  24   7     0.00  -0.01   0.01    -0.00   0.01  -0.00     0.03   0.01   0.02
  25   1    -0.00  -0.00  -0.01    -0.00   0.00   0.00     0.01   0.01  -0.01
  26   1    -0.01   0.00  -0.04     0.00   0.00   0.01    -0.01   0.00  -0.06
  27   7     0.00   0.02  -0.04    -0.01  -0.01  -0.01     0.00   0.01   0.02
  28   1     0.01  -0.03   0.10     0.01  -0.01   0.02    -0.01   0.02  -0.01
  29   1     0.00  -0.01   0.04    -0.01  -0.01   0.00     0.01   0.01  -0.01
  30   6    -0.00   0.00  -0.00     0.00   0.00  -0.01     0.00   0.01  -0.01
  31   8    -0.01   0.00  -0.00     0.00   0.00  -0.01     0.00   0.00  -0.00
  32   7    -0.01   0.00   0.00    -0.00   0.00   0.00    -0.02  -0.00   0.01
  33   1     0.01  -0.00  -0.01     0.00   0.00  -0.00     0.00  -0.01  -0.01
  34   1     0.01  -0.00  -0.01    -0.00  -0.00   0.00     0.01  -0.00  -0.02
  35   7    -0.00  -0.01  -0.00    -0.00  -0.01   0.00    -0.01  -0.01   0.01
  36   1    -0.00  -0.00   0.01     0.01  -0.00  -0.01     0.02  -0.00  -0.01
  37   1    -0.00  -0.01   0.00     0.00  -0.00  -0.00     0.00  -0.01  -0.01
  38   6     0.00   0.01  -0.00    -0.00  -0.01  -0.01     0.01  -0.01   0.00
  39   8     0.00   0.02   0.01    -0.00  -0.02  -0.01     0.01  -0.01  -0.00
  40   7     0.01   0.01   0.01    -0.00   0.00   0.01    -0.01   0.00  -0.01
  41   1     0.01  -0.01  -0.01    -0.00  -0.00  -0.00    -0.01   0.00   0.00
  42   1     0.00  -0.03  -0.03    -0.00   0.01   0.01    -0.00   0.03   0.01
  43   7    -0.00   0.00  -0.00     0.01   0.01   0.01     0.00   0.00   0.01
  44   1    -0.00  -0.00   0.00     0.00  -0.01  -0.01    -0.00  -0.02  -0.01
  45   1    -0.00  -0.00  -0.00     0.00  -0.01  -0.01    -0.01   0.00  -0.00
  46   6    -0.00  -0.00   0.01     0.00   0.00  -0.00    -0.00   0.01   0.00
  47   8    -0.00   0.00   0.01    -0.00  -0.00  -0.00    -0.00  -0.00   0.00
  48   7    -0.01   0.01   0.00     0.01  -0.01  -0.00     0.01  -0.02  -0.01
  49   1     0.01  -0.01  -0.01    -0.01   0.02   0.01    -0.01   0.01   0.00
  50   1     0.00  -0.00  -0.00    -0.01   0.02   0.01    -0.02   0.02   0.01
  51   7    -0.00   0.01   0.00     0.00  -0.01  -0.00     0.01  -0.01  -0.00
  52   1     0.02  -0.02  -0.01    -0.01   0.02   0.01    -0.01   0.02   0.01
  53   1     0.01  -0.01  -0.01    -0.00   0.01   0.01    -0.00   0.00  -0.00
                     37                     38                     39
                        a                      a                      a 
 Frequencies --   394.6428               408.2393               412.1216
 Red. masses --     3.2680                 3.2790                 3.3045
 Frc consts  --     0.0000                 0.0000                 0.0000
 IR Inten    --   128.3258               109.3229               175.7456
 Raman Activ --     0.0000                 0.0000                 0.0000
 Depolar     --     0.0000                 0.0000                 0.0000
 Atom AN      X      Y      Z        X      Y      Z        X      Y      Z
   1   8    -0.00   0.01  -0.01     0.00   0.01   0.01    -0.01   0.01  -0.03
   2   6    -0.01  -0.02   0.02    -0.00   0.01  -0.00    -0.02  -0.00  -0.00
   3   1    -0.00  -0.00   0.01    -0.00   0.00  -0.00    -0.00   0.01  -0.00
   4   1     0.00  -0.01   0.00     0.00   0.00  -0.00    -0.01  -0.00   0.00
   5   6    -0.01  -0.01   0.02     0.01   0.00  -0.00     0.03  -0.01   0.00
   6   1     0.00  -0.00   0.01    -0.00   0.00  -0.00     0.02   0.00   0.02
   7   1     0.00  -0.00  -0.01     0.00   0.00   0.00     0.02  -0.01  -0.01
   8   7    -0.01  -0.01   0.00     0.01   0.01  -0.00     0.02  -0.00   0.01
   9   6     0.02   0.02   0.01     0.00   0.00  -0.00    -0.03  -0.02   0.02
  10   1     0.00   0.02  -0.01     0.01  -0.01  -0.00    -0.03   0.02   0.03
  11   1     0.01   0.01   0.01    -0.01   0.00  -0.00     0.02  -0.00  -0.00
  12   1     0.01   0.00   0.01     0.00   0.01  -0.00    -0.03  -0.02  -0.01
  13   6    -0.01  -0.00  -0.00     0.01  -0.00   0.00    -0.00   0.02  -0.03
  14   1     0.00   0.01   0.00     0.00  -0.00   0.00    -0.02  -0.00  -0.01
  15   1    -0.01  -0.00  -0.01     0.00  -0.00   0.00     0.01   0.01  -0.00
  16   1    -0.00  -0.01   0.01     0.00  -0.00   0.00    -0.00   0.02  -0.02
  17   6    -0.01   0.01  -0.03     0.00  -0.00   0.01     0.02   0.00   0.01
  18   1     0.01   0.01  -0.01    -0.01   0.00   0.01     0.00   0.01   0.00
  19   1    -0.01   0.00  -0.01    -0.00  -0.01   0.01     0.01  -0.00   0.01
  20   1    -0.00   0.00  -0.01     0.01   0.00  -0.01     0.01   0.00  -0.01
  21   1    -0.00  -0.01   0.00    -0.01  -0.03   0.02    -0.01  -0.01   0.00
  22   6     0.05   0.02   0.09    -0.01  -0.01  -0.02    -0.02  -0.00  -0.05
  23   8     0.01   0.04   0.09    -0.01  -0.01  -0.02    -0.00  -0.01  -0.05
  24   7    -0.11  -0.03  -0.21     0.02   0.00   0.04     0.07   0.03   0.14
  25   1     0.00   0.02   0.07     0.00  -0.01  -0.01     0.00  -0.03  -0.01
  26   1     0.22  -0.05   0.63    -0.05   0.01  -0.13    -0.17   0.04  -0.45
  27   7     0.01   0.03  -0.18    -0.00  -0.00   0.03    -0.00  -0.04   0.13
  28   1     0.06  -0.09   0.18    -0.01   0.01  -0.02    -0.04   0.06  -0.16
  29   1    -0.02  -0.03   0.07     0.00   0.01  -0.01     0.00   0.01  -0.06
  30   6     0.05   0.01  -0.07     0.06   0.02  -0.10     0.05   0.01  -0.06
  31   8     0.04   0.01  -0.03     0.04   0.01  -0.05     0.03   0.01  -0.02
  32   7    -0.07   0.01   0.08    -0.09   0.01   0.08    -0.07   0.01   0.07
  33   1     0.02  -0.01  -0.02     0.03  -0.01  -0.03     0.02  -0.01  -0.02
  34   1     0.05  -0.01  -0.08     0.02  -0.00  -0.05     0.05  -0.01  -0.09
  35   7    -0.08  -0.02   0.11    -0.10  -0.06   0.13    -0.08  -0.02   0.10
  36   1     0.23   0.03  -0.30     0.29   0.03  -0.37     0.23   0.03  -0.30
  37   1     0.04   0.00  -0.05     0.03  -0.01  -0.04     0.03   0.01  -0.02
  38   6    -0.01  -0.01  -0.01     0.02   0.09   0.08    -0.01  -0.03  -0.02
  39   8    -0.01  -0.02  -0.01     0.01   0.03   0.06    -0.01  -0.01  -0.01
  40   7     0.01  -0.01   0.01     0.01  -0.10  -0.11     0.01   0.01   0.04
  41   1     0.01  -0.00  -0.00    -0.00   0.05   0.05     0.01  -0.01  -0.01
  42   1     0.00   0.03   0.04    -0.00   0.05   0.03     0.00   0.01   0.03
  43   7     0.00   0.00  -0.00    -0.07  -0.17  -0.16     0.04   0.04   0.03
  44   1    -0.00  -0.01  -0.02     0.07   0.51   0.48    -0.01  -0.12  -0.13
  45   1     0.00   0.00   0.00     0.01   0.03   0.06     0.01  -0.00  -0.01
  46   6    -0.05   0.03   0.00     0.01  -0.02  -0.01    -0.06   0.09   0.05
  47   8    -0.03   0.01  -0.01     0.00  -0.00  -0.00    -0.04   0.04   0.02
  48   7     0.07  -0.07   0.00    -0.04   0.04   0.03     0.13  -0.15  -0.07
  49   1    -0.04   0.01   0.04     0.02  -0.01  -0.01    -0.05   0.03   0.03
  50   1    -0.19   0.29   0.13     0.14  -0.18  -0.07    -0.33   0.44   0.19
  51   7     0.03  -0.04  -0.04    -0.04   0.03   0.02     0.07  -0.12  -0.02
  52   1     0.07  -0.09  -0.04    -0.00  -0.01  -0.00    -0.07   0.10   0.05
  53   1    -0.05   0.07   0.02     0.02  -0.04  -0.01    -0.01   0.02   0.02
                     40                     41                     42
                        a                      a                      a 
 Frequencies --   428.7634               432.9891               460.6271
 Red. masses --     8.7501                 2.7535                 7.3978
 Frc consts  --     0.0000                 0.0000                 0.0000
 IR Inten    --     0.7926               562.8190                 5.2139
 Raman Activ --     0.0000                 0.0000                 0.0000
 Depolar     --     0.0000                 0.0000                 0.0000
 Atom AN      X      Y      Z        X      Y      Z        X      Y      Z
   1   8    -0.07   0.10  -0.21    -0.00   0.00   0.01    -0.00  -0.05   0.08
   2   6    -0.08  -0.12  -0.04     0.01   0.00  -0.01     0.05   0.20  -0.11
   3   1    -0.03  -0.05  -0.01    -0.00  -0.00  -0.01     0.01   0.00  -0.01
   4   1     0.01  -0.03  -0.03     0.00   0.00  -0.00     0.01   0.07  -0.10
   5   6     0.12   0.05   0.11     0.01  -0.00  -0.01    -0.08   0.33  -0.00
   6   1     0.08   0.05   0.08     0.01   0.00  -0.00    -0.07   0.07  -0.06
   7   1     0.08   0.03  -0.05     0.01  -0.01  -0.00    -0.06   0.11   0.06
   8   7     0.11   0.04   0.33    -0.02  -0.00   0.00    -0.01   0.27   0.02
   9   6    -0.09  -0.11   0.32     0.02  -0.00  -0.00     0.03  -0.23  -0.17
  10   1    -0.01  -0.10   0.12     0.01   0.00  -0.01     0.01  -0.11   0.00
  11   1    -0.10  -0.04   0.07     0.01  -0.00  -0.00     0.02  -0.07  -0.19
  12   1    -0.03   0.01   0.06     0.01  -0.00   0.01     0.01  -0.16   0.00
  13   6    -0.32   0.06  -0.24    -0.01   0.01   0.02    -0.12  -0.22   0.13
  14   1    -0.26   0.09  -0.03     0.00   0.00   0.01    -0.01  -0.15   0.01
  15   1    -0.13   0.01  -0.16     0.00   0.00   0.01    -0.13  -0.07   0.14
  16   1    -0.01  -0.05  -0.19    -0.01   0.01   0.01     0.01  -0.11  -0.01
  17   6     0.36  -0.01  -0.14    -0.02  -0.01  -0.01     0.16  -0.12   0.06
  18   1     0.21   0.01  -0.06    -0.00  -0.00  -0.00     0.01  -0.10  -0.00
  19   1    -0.00  -0.04  -0.14    -0.01  -0.01  -0.01     0.01  -0.10   0.00
  20   1     0.15   0.00  -0.06    -0.00  -0.00  -0.00     0.16  -0.03   0.06
  21   1    -0.02   0.03  -0.06     0.00   0.00   0.00     0.00  -0.01   0.03
  22   6    -0.01  -0.01   0.01     0.00   0.01   0.01    -0.05  -0.09  -0.02
  23   8    -0.01  -0.01   0.01     0.00   0.01   0.00    -0.11  -0.06   0.00
  24   7     0.01   0.01  -0.01    -0.01   0.00  -0.00     0.15  -0.01  -0.03
  25   1     0.01   0.01   0.00    -0.00  -0.00   0.00     0.05   0.05   0.01
  26   1     0.02  -0.01   0.02     0.00   0.00   0.02     0.08  -0.04  -0.05
  27   7    -0.01   0.01   0.00    -0.00  -0.01  -0.00    -0.02   0.12   0.04
  28   1    -0.01   0.01  -0.01     0.00  -0.00  -0.01    -0.10   0.11  -0.01
  29   1     0.01   0.01   0.00    -0.01  -0.00  -0.00     0.11   0.08   0.06
  30   6    -0.01  -0.01   0.01    -0.05  -0.01   0.06     0.01   0.01  -0.00
  31   8    -0.01  -0.01   0.01    -0.04  -0.00   0.02     0.01   0.02  -0.01
  32   7     0.01   0.00  -0.00     0.08  -0.01  -0.10    -0.02  -0.01  -0.00
  33   1    -0.01   0.00   0.01    -0.04   0.01   0.03     0.01  -0.02  -0.01
  34   1     0.01  -0.00   0.00    -0.08   0.01   0.12    -0.01  -0.00  -0.02
  35   7     0.00   0.01  -0.01     0.10   0.01  -0.12     0.01  -0.01   0.02
  36   1    -0.02   0.00   0.02    -0.29  -0.05   0.39     0.03  -0.00  -0.02
  37   1     0.00   0.00  -0.00    -0.02  -0.02   0.00     0.00  -0.01   0.00
  38   6     0.00  -0.00  -0.00     0.02   0.05   0.05     0.03   0.00   0.00
  39   8     0.00  -0.00  -0.00     0.02   0.01   0.04     0.04   0.01  -0.00
  40   7    -0.00  -0.00  -0.01     0.01  -0.07  -0.10    -0.03   0.03  -0.02
  41   1    -0.01   0.00   0.00    -0.00   0.05   0.05    -0.03   0.01   0.01
  42   1    -0.00   0.01   0.00    -0.00   0.07   0.05    -0.00   0.01  -0.04
  43   7    -0.01  -0.01   0.00    -0.04  -0.11  -0.11    -0.04  -0.02   0.04
  44   1     0.00   0.02   0.02     0.06   0.38   0.36    -0.02  -0.06   0.00
  45   1    -0.00  -0.00  -0.00     0.02  -0.01   0.01    -0.04   0.00  -0.00
  46   6     0.00  -0.01  -0.01    -0.03   0.05   0.01     0.00  -0.04  -0.02
  47   8     0.01  -0.00  -0.01    -0.03   0.01   0.00     0.04  -0.02  -0.01
  48   7    -0.00   0.00   0.01     0.08  -0.09  -0.07    -0.04   0.04   0.04
  49   1    -0.00   0.00   0.00     0.00  -0.03   0.01     0.03  -0.07   0.01
  50   1     0.02  -0.02  -0.01    -0.30   0.41   0.17    -0.00   0.04   0.03
  51   7    -0.01   0.00   0.00     0.06  -0.09  -0.03    -0.01  -0.02  -0.01
  52   1    -0.01   0.00   0.00     0.01  -0.01  -0.00     0.13  -0.17  -0.07
  53   1     0.00  -0.01  -0.00    -0.07   0.12   0.04    -0.14   0.21   0.06
                     43                     44                     45
                        a                      a                      a 
 Frequencies --   463.6208               466.0819               468.1494
 Red. masses --     7.1649                 3.3653                 6.3996
 Frc consts  --     0.0000                 0.0000                 0.0000
 IR Inten    --     5.6168                18.1978                 9.3233
 Raman Activ --     0.0000                 0.0000                 0.0000
 Depolar     --     0.0000                 0.0000                 0.0000
 Atom AN      X      Y      Z        X      Y      Z        X      Y      Z
   1   8    -0.00  -0.00  -0.00    -0.00  -0.02   0.04    -0.00   0.02   0.01
   2   6    -0.02  -0.10   0.06     0.02   0.06  -0.03    -0.00  -0.04   0.03
   3   1    -0.00  -0.03   0.02     0.00  -0.02   0.00    -0.00  -0.00   0.00
   4   1     0.01  -0.03   0.03     0.01   0.02  -0.05     0.00  -0.01   0.02
   5   6    -0.08  -0.13   0.02    -0.08   0.12   0.01    -0.02  -0.07  -0.00
   6   1    -0.07  -0.10  -0.04    -0.07  -0.01  -0.04    -0.02  -0.03  -0.01
   7   1    -0.08   0.02   0.06    -0.07   0.06   0.06    -0.02  -0.00   0.01
   8   7     0.20  -0.08  -0.08     0.08   0.11  -0.03     0.06  -0.05  -0.03
   9   6    -0.19   0.11   0.05    -0.07  -0.08  -0.08    -0.07   0.05   0.03
  10   1    -0.08   0.03   0.08    -0.04  -0.03   0.04    -0.03   0.03   0.03
  11   1    -0.09   0.03   0.08    -0.01  -0.02  -0.07    -0.02   0.02   0.04
  12   1    -0.11   0.09  -0.08    -0.04  -0.06  -0.04    -0.04   0.03  -0.03
  13   6     0.16   0.01  -0.22     0.00  -0.12  -0.02     0.07   0.02  -0.07
  14   1     0.01   0.04  -0.05     0.00  -0.06  -0.01     0.01   0.03  -0.01
  15   1     0.04  -0.00  -0.11    -0.05  -0.04   0.03     0.03   0.01  -0.04
  16   1     0.05  -0.01  -0.06     0.03  -0.06  -0.03     0.01   0.01  -0.01
  17   6     0.03   0.13   0.14     0.09  -0.01   0.09    -0.01   0.05   0.05
  18   1    -0.03   0.05   0.06    -0.01  -0.03   0.02    -0.02   0.03   0.02
  19   1     0.07   0.09   0.09     0.03  -0.02   0.04     0.02   0.03   0.03
  20   1    -0.07   0.03   0.04     0.05  -0.00   0.05    -0.04   0.01   0.00
  21   1     0.00   0.03  -0.02     0.00   0.01  -0.00    -0.00  -0.02   0.02
  22   6    -0.06  -0.13  -0.03    -0.00  -0.04  -0.01    -0.05  -0.11  -0.03
  23   8    -0.16  -0.07   0.00    -0.05   0.00   0.01    -0.15  -0.05  -0.00
  24   7     0.19  -0.03  -0.03     0.03  -0.02  -0.03     0.16  -0.04  -0.02
  25   1     0.06   0.07  -0.01     0.01   0.04  -0.04     0.05   0.07  -0.04
  26   1     0.11  -0.05  -0.03     0.08  -0.03   0.14     0.12  -0.05   0.03
  27   7    -0.02   0.16   0.03     0.01   0.04  -0.05    -0.02   0.13  -0.01
  28   1    -0.14   0.16  -0.04    -0.05   0.06  -0.03    -0.14   0.16  -0.07
  29   1     0.16   0.09   0.15     0.08   0.01   0.17     0.18   0.07   0.26
  30   6     0.02   0.07   0.03     0.01   0.04   0.02    -0.06  -0.13  -0.04
  31   8    -0.02   0.09  -0.01    -0.02   0.05  -0.00     0.04  -0.18   0.04
  32   7    -0.06  -0.04  -0.06    -0.02  -0.03  -0.04     0.10   0.09   0.10
  33   1    -0.08  -0.10   0.08    -0.05  -0.05   0.05     0.17   0.20  -0.20
  34   1    -0.04   0.00  -0.13    -0.02   0.00  -0.06     0.06  -0.00   0.27
  35   7     0.06  -0.08   0.05     0.04  -0.04   0.02    -0.11   0.13  -0.12
  36   1     0.04  -0.03   0.06    -0.00  -0.02   0.06    -0.08   0.06  -0.10
  37   1     0.00  -0.06  -0.02     0.00  -0.03  -0.01    -0.01   0.09   0.03
  38   6    -0.12   0.02  -0.02    -0.07   0.01  -0.02     0.13  -0.02   0.03
  39   8    -0.14  -0.04   0.03    -0.08  -0.03   0.03     0.15   0.05  -0.04
  40   7     0.09  -0.08   0.08     0.06  -0.06   0.04    -0.09   0.09  -0.09
  41   1     0.14   0.05   0.02     0.09   0.05   0.03    -0.16  -0.11  -0.08
  42   1     0.02  -0.14   0.08     0.01  -0.08   0.05    -0.02   0.19  -0.06
  43   7     0.09   0.09  -0.11     0.06   0.05  -0.08    -0.09  -0.12   0.11
  44   1     0.03   0.09  -0.07     0.03   0.09  -0.01    -0.03  -0.08   0.08
  45   1     0.09   0.01   0.01     0.06  -0.00  -0.00    -0.09  -0.00   0.00
  46   6     0.01  -0.02  -0.03    -0.05   0.06   0.05     0.00   0.05  -0.09
  47   8     0.04  -0.01  -0.02    -0.07   0.06   0.05    -0.03   0.03  -0.10
  48   7    -0.03   0.04   0.05     0.07  -0.12  -0.06     0.11  -0.00   0.10
  49   1     0.01  -0.04   0.02    -0.05   0.08  -0.01    -0.01  -0.02   0.08
  50   1     0.02   0.01   0.02    -0.05   0.00  -0.00     0.06   0.07   0.05
  51   7    -0.02  -0.02  -0.01     0.03   0.03  -0.01    -0.09  -0.08   0.05
  52   1     0.11  -0.16  -0.07    -0.27   0.38   0.15    -0.15   0.01   0.02
  53   1    -0.13   0.20   0.07     0.32  -0.48  -0.18     0.07  -0.12   0.07
                     46                     47                     48
                        a                      a                      a 
 Frequencies --   474.7600               476.4373               477.6669
 Red. masses --     4.4698                 4.3082                 5.4065
 Frc consts  --     0.0000                 0.0000                 0.0000
 IR Inten    --    16.9949                22.9040                 0.4156
 Raman Activ --     0.0000                 0.0000                 0.0000
 Depolar     --     0.0000                 0.0000                 0.0000
 Atom AN      X      Y      Z        X      Y      Z        X      Y      Z
   1   8    -0.01   0.00   0.02     0.01   0.01  -0.02     0.00  -0.01  -0.01
   2   6     0.00  -0.01   0.00    -0.00   0.01  -0.02     0.00  -0.00  -0.00
   3   1    -0.00  -0.03   0.01    -0.00   0.03  -0.02     0.00   0.01   0.00
   4   1     0.02   0.00  -0.02    -0.02   0.00   0.02    -0.01  -0.00   0.00
   5   6    -0.08   0.04   0.02     0.13  -0.02  -0.03    -0.01  -0.01  -0.00
   6   1    -0.06  -0.03  -0.03     0.11   0.07   0.07    -0.01  -0.01  -0.01
   7   1    -0.06   0.04   0.05     0.11  -0.07  -0.09    -0.01   0.01   0.01
   8   7     0.09   0.05  -0.03    -0.19  -0.04   0.06     0.02  -0.01   0.00
   9   6    -0.08  -0.01  -0.03     0.19  -0.00   0.03    -0.02  -0.00   0.01
  10   1    -0.03  -0.02   0.04     0.09   0.01  -0.09    -0.01  -0.00   0.01
  11   1    -0.04  -0.00  -0.02     0.07   0.00   0.01    -0.01  -0.00   0.01
  12   1    -0.05  -0.00  -0.04     0.11  -0.00   0.08    -0.01   0.01  -0.00
  13   6     0.03  -0.07  -0.07    -0.09   0.10   0.17     0.01  -0.01  -0.02
  14   1    -0.00  -0.02  -0.02     0.00   0.03   0.04    -0.01   0.01  -0.00
  15   1    -0.03  -0.02  -0.01     0.02   0.03   0.04    -0.00  -0.00  -0.01
  16   1     0.03  -0.04  -0.03    -0.05   0.06   0.07     0.01  -0.01  -0.01
  17   6     0.07   0.03   0.07    -0.11  -0.08  -0.17     0.01   0.02   0.01
  18   1    -0.01  -0.00   0.02     0.03  -0.01  -0.06     0.00   0.01   0.01
  19   1     0.03   0.01   0.04    -0.07  -0.04  -0.09     0.01   0.01   0.01
  20   1     0.02   0.01   0.03    -0.01  -0.02  -0.06    -0.00   0.00   0.00
  21   1    -0.00  -0.01   0.02    -0.00  -0.02   0.01    -0.00  -0.01   0.00
  22   6     0.01   0.03   0.02    -0.00  -0.01  -0.05     0.04   0.06  -0.04
  23   8     0.06   0.00   0.01    -0.08   0.04  -0.04     0.02   0.09  -0.03
  24   7    -0.05   0.03  -0.02     0.03  -0.05   0.08    -0.08  -0.03   0.09
  25   1    -0.01  -0.01   0.02    -0.00  -0.01  -0.03    -0.04  -0.06  -0.01
  26   1    -0.03   0.01  -0.01    -0.00  -0.01   0.02    -0.07   0.03   0.05
  27   7     0.00  -0.03   0.03     0.01  -0.01  -0.08     0.04  -0.10  -0.09
  28   1     0.07  -0.08   0.07    -0.11   0.13  -0.19    -0.03   0.04  -0.20
  29   1    -0.09  -0.01  -0.21     0.17  -0.03   0.48     0.08  -0.08   0.39
  30   6    -0.10  -0.12  -0.01    -0.01  -0.04  -0.01    -0.01   0.08   0.04
  31   8     0.03  -0.17   0.09    -0.00  -0.05  -0.00    -0.01   0.09   0.04
  32   7     0.06   0.09   0.10     0.05   0.03   0.03    -0.13  -0.04  -0.05
  33   1     0.25   0.22  -0.30    -0.05   0.03   0.07     0.24  -0.03  -0.30
  34   1     0.04  -0.00   0.31     0.07  -0.00  -0.03    -0.18   0.01   0.17
  35   7    -0.10   0.10  -0.15    -0.05   0.04  -0.01     0.10  -0.08  -0.01
  36   1    -0.05   0.05  -0.12    -0.02   0.02  -0.04     0.10  -0.03   0.00
[...]
  44   1    -0.08   0.01   0.00    -0.03   0.00   0.00    -0.04   0.00   0.00
  45   1     0.29   0.32  -0.31     0.09   0.11  -0.10     0.10   0.12  -0.11
  46   6    -0.00  -0.01   0.01    -0.01  -0.00  -0.01    -0.00  -0.00   0.00
  47   8     0.00   0.00  -0.01     0.00   0.00  -0.00     0.00   0.00  -0.00
  48   7    -0.03  -0.02  -0.03    -0.15  -0.09  -0.13     0.00   0.00   0.00
  49   1     0.11   0.06   0.12     0.57   0.31   0.60    -0.01  -0.00  -0.01
  50   1    -0.00   0.01  -0.02    -0.01   0.05  -0.13    -0.00  -0.00   0.00
  51   7     0.00   0.00  -0.00     0.00   0.00   0.00     0.00   0.00  -0.00
  52   1     0.00   0.00  -0.00    -0.00  -0.00   0.01    -0.00   0.00  -0.00
  53   1    -0.01  -0.01   0.00     0.02   0.01  -0.00    -0.00  -0.00   0.00
                    142                    143                    144
                        a                      a                      a 
 Frequencies --  3493.8318              3496.2250              3500.6583
 Red. masses --     1.4540                 1.4511                 1.4502
 Frc consts  --     0.0000                 0.0000                 0.0000
 IR Inten    --    17.6123                20.3073                18.2594
 Raman Activ --     0.0000                 0.0000                 0.0000
 Depolar     --     0.0000                 0.0000                 0.0000
 Atom AN      X      Y      Z        X      Y      Z        X      Y      Z
   1   8     0.00  -0.00  -0.00     0.00  -0.00  -0.00    -0.00   0.00   0.00
   2   6    -0.00  -0.00  -0.00     0.00   0.00   0.00     0.00   0.00  -0.00
   3   1    -0.00  -0.00   0.00     0.00  -0.00  -0.00    -0.00   0.00   0.00
   4   1    -0.00   0.00   0.00    -0.00  -0.00   0.00    -0.00  -0.00  -0.00
   5   6     0.00   0.00   0.00     0.00   0.00  -0.00    -0.00   0.00   0.00
   6   1     0.00   0.00   0.00    -0.00   0.00   0.00     0.00  -0.00  -0.00
   7   1    -0.00  -0.00  -0.00    -0.00  -0.00  -0.00     0.00   0.00   0.00
   8   7    -0.00  -0.00   0.00    -0.00  -0.00  -0.00     0.00   0.00  -0.00
   9   6     0.00   0.00   0.00     0.00   0.00  -0.00    -0.00   0.00   0.00
  10   1    -0.00  -0.00  -0.00    -0.00  -0.00  -0.00    -0.00  -0.00   0.00
  11   1     0.00   0.00  -0.00     0.00  -0.00   0.00    -0.00   0.00   0.00
  12   1    -0.00   0.00   0.00    -0.00   0.00   0.00     0.00  -0.00  -0.00
  13   6     0.00   0.00   0.00     0.00   0.00   0.00    -0.00  -0.00  -0.00
  14   1     0.00  -0.00   0.00     0.00   0.00   0.00    -0.00   0.00  -0.00
  15   1     0.00   0.00  -0.00     0.00  -0.00   0.00    -0.00   0.00   0.00
  16   1    -0.00  -0.00  -0.00    -0.00  -0.00  -0.00     0.00   0.00   0.00
  17   6     0.00  -0.00  -0.00     0.00   0.00   0.00    -0.00   0.00   0.00
  18   1     0.00  -0.00  -0.00     0.00   0.00  -0.00    -0.00   0.00  -0.00
  19   1    -0.00   0.00   0.00    -0.00   0.00   0.00     0.00  -0.00  -0.00
  20   1     0.00   0.00   0.00     0.00  -0.00  -0.00    -0.00   0.00   0.00
  21   1    -0.00   0.00   0.00    -0.01   0.01   0.01     0.00  -0.00  -0.00
  22   6    -0.00  -0.00  -0.00    -0.00   0.00   0.00     0.00   0.00   0.00
  23   8     0.00   0.00   0.00     0.00  -0.00   0.00    -0.00  -0.00  -0.00
  24   7     0.01   0.01  -0.00     0.00  -0.00   0.00    -0.00   0.00   0.00
  25   1    -0.01   0.00   0.00    -0.00   0.00   0.00     0.00  -0.00  -0.00
  26   1    -0.02  -0.03   0.01     0.00   0.00  -0.00    -0.00  -0.00   0.00
  27   7    -0.18   0.01   0.00     0.00   0.00  -0.00     0.00  -0.00  -0.00
  28   1     0.44   0.56   0.12    -0.00  -0.00  -0.00    -0.00  -0.00  -0.00
  29   1     0.25  -0.60  -0.13    -0.00   0.00   0.00    -0.00   0.00   0.00
  30   6    -0.00   0.00  -0.00     0.00   0.00  -0.00     0.00   0.00  -0.00
  31   8     0.00  -0.00  -0.00    -0.00  -0.00  -0.00    -0.00  -0.00   0.00
  32   7    -0.00   0.00  -0.00    -0.09   0.13  -0.10     0.00  -0.00   0.00
  33   1     0.00   0.00   0.00     0.49   0.20   0.44    -0.00  -0.00  -0.00
  34   1    -0.00  -0.00  -0.00    -0.17  -0.68  -0.07     0.00   0.00   0.00
  35   7     0.00  -0.00   0.00     0.00  -0.01   0.00    -0.00  -0.00  -0.00
  36   1    -0.00  -0.00  -0.00     0.00   0.04   0.01     0.00   0.00   0.00
  37   1    -0.00   0.00  -0.00    -0.01   0.01  -0.01     0.00  -0.00   0.00
  38   6    -0.00  -0.00   0.00     0.00   0.00  -0.00     0.00   0.00  -0.00
  39   8     0.00   0.00  -0.00    -0.00  -0.00   0.00    -0.00   0.00  -0.00
  40   7     0.00   0.00  -0.00     0.00   0.00  -0.00     0.11   0.11  -0.09
  41   1     0.00  -0.00   0.00     0.00  -0.00   0.00     0.30  -0.43   0.40
  42   1    -0.00   0.00  -0.00    -0.00   0.00  -0.00    -0.72   0.02  -0.06
  43   7     0.00   0.00  -0.00     0.00  -0.00   0.00    -0.01  -0.00   0.01
  44   1    -0.00   0.00  -0.00    -0.01   0.00   0.00     0.04  -0.01  -0.00
  45   1    -0.00  -0.00   0.00     0.01   0.01  -0.01     0.01   0.01  -0.01
  46   6    -0.00  -0.00   0.00    -0.00   0.00  -0.00     0.00  -0.00   0.00
  47   8     0.00  -0.00  -0.00     0.00  -0.00   0.00    -0.00   0.00  -0.00
  48   7     0.00   0.00   0.00     0.00   0.00   0.00    -0.00  -0.00   0.00
  49   1    -0.00  -0.00  -0.00    -0.00   0.00  -0.00     0.01   0.00   0.01
  50   1    -0.00  -0.00   0.00    -0.00   0.00   0.00     0.00   0.01  -0.02
  51   7    -0.00  -0.00  -0.00    -0.00  -0.00  -0.00    -0.00   0.00  -0.00
  52   1    -0.00  -0.00   0.00    -0.00  -0.00   0.00    -0.00  -0.00   0.00
  53   1     0.00   0.00  -0.00     0.00   0.00  -0.00     0.00   0.00  -0.00
                    145                    146                    147
                        a                      a                      a 
 Frequencies --  3504.4075              3526.3324              3533.7448
 Red. masses --     1.4491                 1.9194                 1.9152
 Frc consts  --     0.0000                 0.0000                 0.0000
 IR Inten    --    21.5840                13.3327                16.0660
 Raman Activ --     0.0000                 0.0000                 0.0000
 Depolar     --     0.0000                 0.0000                 0.0000
 Atom AN      X      Y      Z        X      Y      Z        X      Y      Z
   1   8     0.00  -0.00  -0.00    -0.00   0.00   0.00     0.00  -0.00  -0.00
   2   6    -0.00  -0.00   0.00     0.00  -0.00  -0.00     0.00  -0.00  -0.00
   3   1     0.00  -0.00  -0.00    -0.00   0.00   0.00    -0.00   0.00   0.00
   4   1    -0.00   0.00   0.00    -0.00  -0.00  -0.00     0.00   0.00  -0.00
   5   6    -0.00  -0.00  -0.00    -0.00  -0.00  -0.00    -0.00  -0.00  -0.00
   6   1     0.00   0.00   0.00     0.00  -0.00  -0.00    -0.00  -0.00   0.00
   7   1    -0.00   0.00   0.00     0.00   0.00   0.00     0.00   0.00   0.00
   8   7    -0.00   0.00   0.00    -0.00  -0.00  -0.00    -0.00   0.00   0.00
   9   6    -0.00   0.00  -0.00    -0.00   0.00   0.00    -0.00  -0.00   0.00
  10   1    -0.00   0.00   0.00     0.00   0.00  -0.00    -0.00   0.00   0.00
  11   1    -0.00  -0.00  -0.00    -0.00   0.00  -0.00    -0.00   0.00  -0.00
  12   1     0.00   0.00   0.00     0.00  -0.00  -0.00     0.00   0.00   0.00
  13   6     0.00   0.00   0.00    -0.00  -0.00  -0.00    -0.00  -0.00   0.00
  14   1     0.00   0.00  -0.00    -0.00  -0.00  -0.00    -0.00  -0.00  -0.00
  15   1     0.00  -0.00  -0.00    -0.00   0.00  -0.00    -0.00   0.00   0.00
  16   1    -0.00  -0.00  -0.00    -0.00   0.00   0.00     0.00   0.00   0.00
  17   6     0.00   0.00  -0.00     0.00   0.00   0.00     0.00  -0.00  -0.00
  18   1    -0.00  -0.00   0.00    -0.00  -0.00  -0.00     0.00  -0.00  -0.00
  19   1     0.00   0.00  -0.00     0.00  -0.00  -0.00    -0.00   0.00   0.00
  20   1    -0.00  -0.00  -0.00    -0.00  -0.00  -0.00    -0.00   0.00  -0.00
  21   1    -0.00   0.00   0.00     0.00  -0.00  -0.00    -0.00   0.00   0.00
  22   6    -0.00  -0.00  -0.00    -0.01  -0.00   0.00     0.00   0.00  -0.00
  23   8     0.00   0.00  -0.00     0.00   0.00  -0.00    -0.00  -0.00  -0.00
  24   7     0.01   0.00  -0.00    -0.16  -0.20   0.04     0.01   0.01  -0.00
  25   1    -0.02   0.00   0.00     0.11  -0.03  -0.02    -0.01   0.00   0.00
  26   1    -0.01  -0.01   0.00     0.52   0.79  -0.14    -0.02  -0.02   0.00
  27   7    -0.00   0.00   0.00    -0.00   0.03   0.01     0.00  -0.00  -0.00
  28   1     0.00   0.00   0.00    -0.02  -0.02  -0.00     0.00   0.00   0.00
  29   1     0.00  -0.00  -0.00     0.03  -0.08  -0.02    -0.00   0.00   0.00
  30   6     0.00  -0.00   0.00    -0.00   0.00  -0.00    -0.00   0.01  -0.00
  31   8    -0.00   0.00  -0.00     0.00  -0.00   0.00     0.00  -0.00  -0.00
  32   7    -0.00   0.00  -0.00    -0.00  -0.00  -0.00    -0.02  -0.02  -0.02
  33   1     0.00   0.00   0.00     0.00   0.00   0.00     0.07   0.02   0.06
  34   1    -0.00  -0.00  -0.00     0.00   0.00   0.00     0.01   0.04   0.00
  35   7    -0.00  -0.00  -0.00     0.00   0.01   0.00     0.02   0.25   0.04
  36   1     0.00   0.01   0.00    -0.00  -0.03  -0.01    -0.12  -0.90  -0.20
  37   1     0.01  -0.01   0.01    -0.00   0.00  -0.00     0.07  -0.05   0.06
  38   6     0.00   0.00   0.00    -0.00  -0.00  -0.00     0.00   0.00  -0.00
  39   8    -0.00  -0.00  -0.00     0.00   0.00   0.00    -0.00  -0.00   0.00
  40   7     0.00   0.00  -0.00     0.00   0.00  -0.00    -0.00   0.00  -0.00
  41   1     0.00  -0.00   0.00     0.00  -0.00   0.00     0.01  -0.01   0.01
  42   1    -0.00   0.00  -0.00    -0.00  -0.00  -0.00     0.00   0.00   0.00
  43   7    -0.00  -0.00   0.00    -0.00   0.00   0.00     0.05  -0.00  -0.00
  44   1     0.00  -0.00   0.00     0.00  -0.00  -0.00    -0.19   0.03   0.01
  45   1     0.00   0.00  -0.00    -0.00   0.00  -0.00    -0.01  -0.01   0.01
  46   6     0.00  -0.00   0.00     0.00  -0.00   0.00     0.00   0.00  -0.00
  47   8     0.00   0.00  -0.00     0.00   0.00  -0.00     0.00  -0.00   0.00
  48   7    -0.01   0.00  -0.02     0.00   0.00  -0.00    -0.00   0.00  -0.01
  49   1     0.01   0.01   0.01    -0.00  -0.00  -0.00     0.01   0.00   0.01
  50   1    -0.00  -0.02   0.05    -0.00  -0.01   0.02    -0.00  -0.01   0.02
  51   7     0.13   0.03   0.13     0.00  -0.00   0.00     0.00  -0.00   0.00
  52   1     0.03   0.29  -0.65     0.00   0.01  -0.01     0.00   0.01  -0.01
  53   1    -0.52  -0.39   0.18    -0.00  -0.00   0.00    -0.00  -0.00   0.00
                    148                    149                    150
                        a                      a                      a 
 Frequencies --  3534.0529              3534.1612              3557.5491
 Red. masses --     1.9189                 1.9189                 2.1743
 Frc consts  --     0.0000                 0.0000                 0.0000
 IR Inten    --    16.6230                11.6433                10.2780
 Raman Activ --     0.0000                 0.0000                 0.0000
 Depolar     --     0.0000                 0.0000                 0.0000
 Atom AN      X      Y      Z        X      Y      Z        X      Y      Z
   1   8     0.00  -0.00  -0.00    -0.00   0.00   0.00     0.00  -0.00  -0.00
   2   6     0.00   0.00   0.00    -0.00   0.00   0.00    -0.00   0.00   0.00
   3   1    -0.00  -0.00  -0.00     0.00  -0.00  -0.00     0.00  -0.00  -0.00
   4   1    -0.00  -0.00   0.00     0.00  -0.00  -0.00     0.00   0.00   0.00
   5   6    -0.00   0.00   0.00     0.00   0.00   0.00     0.00   0.00   0.00
   6   1     0.00   0.00  -0.00    -0.00  -0.00   0.00     0.00   0.00   0.00
   7   1    -0.00  -0.00  -0.00    -0.00  -0.00  -0.00    -0.00   0.00  -0.00
   8   7     0.00  -0.00   0.00    -0.00   0.00   0.00    -0.00  -0.00  -0.00
   9   6    -0.00   0.00   0.00    -0.00   0.00   0.00     0.00   0.00   0.00
  10   1    -0.00   0.00  -0.00    -0.00  -0.00  -0.00    -0.00  -0.00   0.00
  11   1     0.00  -0.00   0.00     0.00   0.00  -0.00     0.00  -0.00   0.00
  12   1     0.00  -0.00  -0.00     0.00  -0.00  -0.00     0.00   0.00   0.00
  13   6    -0.00  -0.00  -0.00    -0.00   0.00   0.00     0.00   0.00   0.00
  14   1     0.00   0.00   0.00    -0.00   0.00  -0.00     0.00   0.00  -0.00
  15   1     0.00  -0.00   0.00     0.00  -0.00  -0.00     0.00   0.00   0.00
  16   1     0.00   0.00   0.00    -0.00  -0.00   0.00    -0.00  -0.00  -0.00
  17   6    -0.00   0.00   0.00    -0.00   0.00  -0.00     0.00  -0.00  -0.00
  18   1    -0.00   0.00  -0.00     0.00  -0.00   0.00    -0.00   0.00  -0.00
  19   1     0.00  -0.00  -0.00     0.00   0.00   0.00     0.00   0.00   0.00
  20   1    -0.00  -0.00   0.00     0.00  -0.00  -0.00     0.00   0.00  -0.00
  21   1    -0.00   0.00   0.00     0.01  -0.00  -0.00    -0.00   0.00   0.00
  22   6     0.00   0.00  -0.00     0.00  -0.00  -0.00     0.00   0.01   0.00
  23   8    -0.00  -0.00   0.00    -0.00   0.00   0.00    -0.00  -0.00  -0.00
  24   7     0.00   0.00  -0.00    -0.00  -0.00   0.00     0.01   0.02  -0.00
  25   1    -0.00   0.00   0.00     0.00  -0.00  -0.00    -0.01   0.00   0.00
  26   1    -0.01  -0.02   0.00     0.00   0.00  -0.00    -0.04  -0.07   0.01
  27   7     0.00  -0.00  -0.00     0.00   0.00   0.00     0.03   0.29   0.06
  28   1     0.00   0.00   0.00    -0.00  -0.00  -0.00    -0.41  -0.49  -0.10
  29   1    -0.00   0.00   0.00     0.00  -0.00  -0.00     0.29  -0.62  -0.12
  30   6    -0.00  -0.00  -0.00     0.00   0.00   0.00    -0.00  -0.00  -0.00
  31   8     0.00   0.00   0.00    -0.00  -0.00  -0.00     0.00  -0.00  -0.00
  32   7    -0.00   0.00  -0.00     0.00  -0.00   0.00    -0.00  -0.00  -0.00
  33   1     0.00   0.00   0.00    -0.01  -0.01  -0.01     0.00   0.00   0.00
  34   1    -0.00  -0.00  -0.00     0.00   0.01   0.00     0.00   0.00   0.00
  35   7     0.00   0.01   0.00    -0.00  -0.05  -0.01    -0.00   0.00  -0.00
  36   1    -0.00  -0.03  -0.01     0.02   0.18   0.04    -0.00  -0.00  -0.00
  37   1     0.00  -0.00   0.00    -0.01   0.01  -0.01     0.00  -0.00   0.00
  38   6    -0.00  -0.00   0.00     0.01   0.00  -0.00    -0.00  -0.00   0.00
  39   8     0.00   0.00  -0.00    -0.00  -0.00   0.00     0.00  -0.00  -0.00
  40   7     0.01  -0.00   0.00    -0.01   0.01  -0.01     0.00  -0.00   0.00
  41   1    -0.01   0.02  -0.02     0.03  -0.05   0.05    -0.00   0.00  -0.00
  42   1    -0.02  -0.00  -0.00     0.01   0.00   0.00    -0.00  -0.00  -0.00
  43   7    -0.08   0.00   0.01     0.24  -0.02  -0.02    -0.00  -0.00   0.00
  44   1     0.29  -0.04  -0.01    -0.88   0.12   0.03     0.00  -0.00   0.00
  45   1     0.02   0.03  -0.02    -0.04  -0.07   0.06     0.00   0.00  -0.00
  46   6    -0.00   0.00  -0.01    -0.00   0.00  -0.00     0.00   0.00  -0.00
  47   8     0.00  -0.00   0.00     0.00  -0.00   0.00    -0.00  -0.00   0.00
  48   7    -0.01   0.08  -0.23    -0.00   0.03  -0.08    -0.00   0.00  -0.00
  49   1     0.08   0.05   0.06     0.02   0.02   0.02     0.00   0.00   0.00
  50   1    -0.01  -0.36   0.83    -0.00  -0.12   0.27    -0.00  -0.00   0.00
  51   7    -0.02  -0.01   0.01    -0.01  -0.00   0.00     0.00   0.00  -0.00
  52   1    -0.00   0.00  -0.01    -0.00  -0.00   0.00    -0.00  -0.00   0.00
  53   1     0.06   0.05  -0.02     0.02   0.02  -0.01    -0.00  -0.00  -0.00
                    151                    152                    153
                        a                      a                      a 
 Frequencies --  3561.1360              3566.5754              3570.8933
 Red. masses --     2.1793                 2.1810                 2.1853
 Frc consts  --     0.0000                 0.0000                 0.0000
 IR Inten    --    14.3820                12.0081                15.3074
 Raman Activ --     0.0000                 0.0000                 0.0000
 Depolar     --     0.0000                 0.0000                 0.0000
 Atom AN      X      Y      Z        X      Y      Z        X      Y      Z
   1   8     0.00  -0.00  -0.00    -0.00   0.00   0.00    -0.00  -0.00  -0.00
   2   6    -0.00   0.00   0.00     0.00  -0.00   0.00     0.00   0.00   0.00
   3   1     0.00  -0.00  -0.00    -0.00   0.00  -0.00     0.00  -0.00  -0.00
   4   1    -0.00  -0.00  -0.00     0.00   0.00  -0.00    -0.00  -0.00   0.00
   5   6     0.00   0.00   0.00     0.00  -0.00  -0.00    -0.00   0.00   0.00
   6   1    -0.00   0.00  -0.00    -0.00  -0.00   0.00     0.00   0.00  -0.00
   7   1     0.00  -0.00  -0.00    -0.00  -0.00  -0.00    -0.00   0.00   0.00
   8   7     0.00  -0.00  -0.00    -0.00  -0.00   0.00    -0.00  -0.00  -0.00
   9   6     0.00   0.00  -0.00     0.00  -0.00  -0.00    -0.00   0.00   0.00
  10   1     0.00  -0.00  -0.00     0.00  -0.00  -0.00     0.00   0.00  -0.00
  11   1     0.00  -0.00   0.00     0.00   0.00  -0.00    -0.00  -0.00   0.00
  12   1    -0.00   0.00  -0.00    -0.00   0.00   0.00     0.00  -0.00  -0.00
  13   6    -0.00   0.00  -0.00     0.00   0.00   0.00     0.00   0.00   0.00
  14   1     0.00   0.00   0.00     0.00  -0.00  -0.00    -0.00   0.00   0.00
  15   1     0.00  -0.00   0.00    -0.00   0.00  -0.00     0.00  -0.00  -0.00
  16   1    -0.00  -0.00  -0.00    -0.00  -0.00  -0.00    -0.00  -0.00  -0.00
  17   6    -0.00   0.00   0.00     0.00  -0.00  -0.00    -0.00   0.00   0.00
  18   1     0.00   0.00   0.00     0.00  -0.00  -0.00    -0.00   0.00   0.00
  19   1     0.00   0.00  -0.00    -0.00   0.00   0.00     0.00  -0.00  -0.00
  20   1     0.00  -0.00   0.00     0.00   0.00  -0.00    -0.00  -0.00  -0.00
  21   1    -0.00   0.00   0.00     0.00  -0.00  -0.00    -0.00   0.00   0.00
  22   6    -0.00  -0.00  -0.00    -0.00  -0.00  -0.00    -0.00  -0.00  -0.00
  23   8     0.00   0.00   0.00     0.00   0.00   0.00     0.00   0.00  -0.00
  24   7    -0.00  -0.00   0.00     0.00  -0.00   0.00     0.00  -0.00   0.00
  25   1     0.00  -0.00  -0.00    -0.00  -0.00   0.00    -0.01   0.00   0.00
  26   1     0.00   0.00  -0.00     0.00   0.00  -0.00     0.00   0.01  -0.00
  27   7    -0.00  -0.00  -0.00    -0.00  -0.00  -0.00    -0.00  -0.00  -0.00
  28   1     0.00   0.00   0.00     0.00   0.00   0.00     0.00   0.00   0.00
  29   1    -0.00   0.00   0.00    -0.00   0.00   0.00    -0.00   0.00   0.00
  30   6    -0.01  -0.01  -0.01     0.00   0.00   0.00     0.00   0.00   0.00
  31   8     0.00   0.00   0.00    -0.00  -0.00  -0.00    -0.00  -0.00  -0.00
  32   7    -0.16  -0.22  -0.13     0.00   0.00   0.00     0.00   0.00   0.00
  33   1     0.48   0.17   0.45    -0.01  -0.00  -0.01    -0.00  -0.00  -0.00
  34   1     0.14   0.65   0.04    -0.00  -0.01  -0.00    -0.00  -0.00  -0.00
  35   7    -0.00  -0.02  -0.00    -0.00   0.00  -0.00    -0.00   0.00  -0.00
  36   1     0.01   0.09   0.02    -0.00  -0.00  -0.00    -0.00  -0.01  -0.00
  37   1    -0.01   0.01  -0.01     0.00  -0.00   0.00     0.00  -0.00   0.00
  38   6     0.00  -0.00   0.00     0.01  -0.00   0.00    -0.00   0.00  -0.00
  39   8     0.00  -0.00   0.00    -0.00   0.00  -0.00     0.00   0.00   0.00
  40   7     0.00  -0.00   0.00     0.24  -0.12   0.12    -0.00   0.00  -0.00
  41   1    -0.00   0.01  -0.01    -0.29   0.47  -0.43     0.01  -0.01   0.01
  42   1    -0.01  -0.00  -0.00    -0.64  -0.01  -0.04     0.01   0.00   0.00
  43   7    -0.00  -0.00   0.00     0.02  -0.00  -0.00    -0.00  -0.00   0.00
  44   1     0.01  -0.00  -0.00    -0.08   0.01   0.00     0.00  -0.00  -0.00
  45   1     0.00   0.00  -0.00    -0.00  -0.01   0.01     0.00   0.00  -0.00
  46   6    -0.00  -0.00   0.00     0.00   0.00  -0.00     0.01   0.01  -0.01
  47   8    -0.00   0.00  -0.00    -0.00   0.00  -0.00    -0.00  -0.00   0.00
  48   7     0.00   0.00   0.00     0.00  -0.00   0.00    -0.00   0.01  -0.02
  49   1    -0.00  -0.00  -0.00    -0.00  -0.00  -0.00     0.01   0.01   0.01
  50   1     0.00   0.00  -0.00     0.00   0.00  -0.01    -0.00  -0.03   0.06
  51   7     0.00   0.00  -0.00     0.00   0.00  -0.00     0.14   0.17  -0.20
  52   1    -0.00  -0.00   0.00    -0.00  -0.00   0.01    -0.01  -0.26   0.60
  53   1    -0.00  -0.00   0.00    -0.01  -0.01   0.00    -0.54  -0.40   0.16
