      -----------------------------------------------------------      
     |                   =====================                   |     
     |                           x T B                           |     
     |                   =====================                   |     
     |                         S. Grimme                         |     
     |          Mulliken Center for Theoretical Chemistry        |     
     |                    University of Bonn                     |     
      -----------------------------------------------------------      

   * xtb version 6.6.1 (unknown-commit) compiled by '@Linux' on 12/27/2023

   xtb is free software: you can redistribute it and/or modify it under
   the terms of the GNU Lesser General Public License as published by
   the Free Software Foundation, either version 3 of the License, or
   (at your option) any later version.
   
   xtb is distributed in the hope that it will be useful,
   but WITHOUT ANY WARRANTY; without even the implied warranty of
   MERCHANTABILITY or FITNESS FOR A PARTICULAR PURPOSE.  See the
   GNU Lesser General Public License for more details.
   
   Cite this work as:
   * C. Bannwarth, E. Caldeweyher, S. Ehlert, A. Hansen, P. Pracht,
     J. Seibert, S. Spicher, S. Grimme, WIREs Comput. Mol. Sci., 2020, 11,
     e01493. DOI: 10.1002/wcms.1493
   
   for GFN2-xTB:
   * C. Bannwarth, S. Ehlert and S. Grimme., J. Chem. Theory Comput., 2019,
     15, 1652-1671. DOI: 10.1021/acs.jctc.8b01176
   for GFN1-xTB:
   * S. Grimme, C. Bannwarth, P. Shushkov, J. Chem. Theory Comput., 2017,
     13, 1989-2009. DOI: 10.1021/acs.jctc.7b00118
   for GFN0-xTB:
   * P. Pracht, E. Caldeweyher, S. Ehlert, S. Grimme, ChemRxiv, 2019, preprint.
     DOI: 10.26434/chemrxiv.8326202.v1
   for GFN-FF:
   * S. Spicher and S. Grimme, Angew. Chem. Int. Ed., 2020, 59, 15665-15673.
     DOI: 10.1002/anie.202004239
   
   for ALPB and GBSA implicit solvation:
   * S. Ehlert, M. Stahn, S. Spicher, S. Grimme, J. Chem. Theory Comput.,
     2021, 17, 4250-4261. DOI: 10.1021/acs.jctc.1c00471
   
   for DFT-D4:
   * E. Caldeweyher, C. Bannwarth and S. Grimme, J. Chem. Phys., 2017,
     147, 034112. DOI: 10.1063/1.4993215
   * E. Caldeweyher, S. Ehlert, A. Hansen, H. Neugebauer, S. Spicher,
     C. Bannwarth and S. Grimme, J. Chem. Phys., 2019, 150, 154122.
     DOI: 10.1063/1.5090222
   * E. Caldeweyher, J.-M. Mewes, S. Ehlert and S. Grimme, Phys. Chem. Chem. Phys.
     2020, 22, 8499-8512. DOI: 10.1039/D0CP00502A
   
   for sTDA-xTB:
   * S. Grimme and C. Bannwarth, J. Chem. Phys., 2016, 145, 054103.
     DOI: 10.1063/1.4959605
   
   in the mass-spec context:
   * V. Asgeirsson, C. Bauer and S. Grimme, Chem. Sci., 2017, 8, 4879.
     DOI: 10.1039/c7sc00601b
   * J. Koopman and S. Grimme, ACS Omega 2019, 4, 12, 15120-15133.
     DOI: 10.1021/acsomega.9b02011
   
   for metadynamics refer to:
   * S. Grimme, J. Chem. Theory Comput., 2019, 155, 2847-2862
     DOI: 10.1021/acs.jctc.9b00143
   
   for SPH calculations refer to:
   * S. Spicher and S. Grimme, J. Chem. Theory Comput., 2021, 17, 1701-1714
     DOI: 10.1021/acs.jctc.0c01306
   
   with help from (in alphabetical order)
   P. Atkinson, C. Bannwarth, F. Bohle, G. Brandenburg, E. Caldeweyher
   M. Checinski, S. Dohm, S. Ehlert, S. Ehrlich, I. Gerasimov, C. Hölzer
   A. Katbashev, J. Koopman, C. Lavigne, S. Lehtola, F. März, M. Müller,
   F. Musil, H. Neugebauer, J. Pisarek, C. Plett, P. Pracht, F. Pultar,
   J. Seibert, P. Shushkov, S. Spicher, M. Stahn, M. Steiner, T. Strunk,
   J. Stückrath, T. Rose, and J. Unsleber
   
 * started run on 2024/01/10 at 15:34:27.316     

           -------------------------------------------------
          |                Calculation Setup                |
           -------------------------------------------------

          program call               : xtb struc.xyz --gfn2 --hess
          hostname                   : swaroop
          coordinate file            : struc.xyz
          omp threads                :                     1

   ID    Z sym.   atoms
    1    8 O      1, 23, 31, 39, 47
    2    6 C      2, 5, 9, 13, 17, 22, 30, 38, 46
    3    1 H      3, 4, 6, 7, 10-12, 14-16, 18-21, 25, 26, 28, 29, 33, 34,
                  36, 37, 41, 42, 44, 45, 49, 50, 52, 53
    4    7 N      8, 24, 27, 32, 35, 40, 43, 48, 51

molecular fragmentation (1/2 indicates fragments):
11111111111111111111122222222222222222222222222222222
# atoms in fragment 1/2:    21    32
 fragment masses (1/2) :      104.17      240.22
CMA distance (Bohr)    :   6.712
constraining FC (au)   :  0.0500

           -------------------------------------------------
          |                 G F N 2 - x T B                 |
           -------------------------------------------------

        Reference                      10.1021/acs.jctc.8b01176
      * Hamiltonian:
        H0-scaling (s, p, d)           1.850000    2.230000    2.230000
        zeta-weighting                 0.500000
      * Dispersion:
        s8                             2.700000
        a1                             0.520000
        a2                             5.000000
        s9                             5.000000
      * Repulsion:
        kExp                           1.500000    1.000000
        rExp                           1.000000
      * Coulomb:
        alpha                          2.000000
        third order                    shell-resolved
        anisotropic                    true
        a3                             3.000000
        a5                             4.000000
        cn-shift                       1.200000
        cn-exp                         4.000000
        max-rad                        5.000000


          ...................................................
          :                      SETUP                      :
          :.................................................:
          :  # basis functions                 122          :
          :  # atomic orbitals                 122          :
          :  # shells                           76          :
          :  # electrons                       140          :
          :  max. iterations                   250          :
          :  Hamiltonian                  GFN2-xTB          :
          :  restarted?                      false          :
          :  GBSA solvation                  false          :
          :  PC potential                    false          :
          :  electronic temp.          300.0000000     K    :
          :  accuracy                    1.0000000          :
          :  -> integral cutoff          0.2500000E+02      :
          :  -> integral neglect         0.1000000E-07      :
          :  -> SCF convergence          0.1000000E-05 Eh   :
          :  -> wf. convergence          0.1000000E-03 e    :
          :  Broyden damping             0.4000000          :
          ...................................................

 iter      E             dE          RMSdq      gap      omega  full diag
   1    -81.5549532 -0.815550E+02  0.431E+00    5.00       0.0  T
   2    -81.8355542 -0.280601E+00  0.236E+00    5.93       1.0  T
   3    -81.8414441 -0.588990E-02  0.114E+00    5.74       1.0  T
   4    -81.8429366 -0.149255E-02  0.251E-01    5.87       1.0  T
   5    -81.8439352 -0.998592E-03  0.917E-02    5.80       1.0  T
   6    -81.8439591 -0.239204E-04  0.270E-02    5.80       1.0  T
   7    -81.8439631 -0.391238E-05  0.742E-03    5.80       1.9  T
   8    -81.8439633 -0.211709E-06  0.259E-03    5.80       5.3  T
   9    -81.8439633 -0.323863E-07  0.770E-04    5.80      17.8  T
  10    -81.8439633 -0.430578E-08  0.212E-04    5.80      64.9  T

   *** convergence criteria satisfied after 10 iterations ***

         #    Occupation            Energy/Eh            Energy/eV
      -------------------------------------------------------------
         1        2.0000           -0.8215484             -22.3555
       ...           ...                  ...                  ...
        64        2.0000           -0.5011442             -13.6368
        65        2.0000           -0.4985132             -13.5652
        66        2.0000           -0.4980618             -13.5530
        67        2.0000           -0.4961030             -13.4996
        68        2.0000           -0.4946854             -13.4611
        69        2.0000           -0.4921287             -13.3915
        70        2.0000           -0.4900303             -13.3344 (HOMO)
        71                         -0.2769123              -7.5352 (LUMO)
        72                         -0.2723638              -7.4114
        73                         -0.2721929              -7.4067
        74                         -0.2641592              -7.1881
        75                         -0.1770767              -4.8185
       ...                                ...                  ...
       122                          0.5456938              14.8491
      -------------------------------------------------------------
                  HL-Gap            0.2131179 Eh            5.7992 eV
             Fermi-level           -0.3834713 Eh          -10.4348 eV

 SCC (total)                   0 d,  0 h,  0 min,  0.099 sec
 SCC setup                      ...        0 min,  0.000 sec (  0.308%)
 Dispersion                     ...        0 min,  0.001 sec (  0.609%)
 classical contributions        ...        0 min,  0.000 sec (  0.188%)
 integral evaluation            ...        0 min,  0.009 sec (  8.768%)
 iterations                     ...        0 min,  0.060 sec ( 60.953%)
 molecular gradient             ...        0 min,  0.029 sec ( 28.887%)
 printout                       ...        0 min,  0.000 sec (  0.275%)

         :::::::::::::::::::::::::::::::::::::::::::::::::::::
         ::                     SUMMARY                     ::
         :::::::::::::::::::::::::::::::::::::::::::::::::::::
         :: total energy             -80.936913265825 Eh    ::
         :: gradient norm              0.000039501610 Eh/a0 ::
         :: HOMO-LUMO gap              5.799234007105 eV    ::
         ::.................................................::
         :: SCC energy               -81.843963299230 Eh    ::
         :: -> isotropic ES            0.302117010666 Eh    ::
         :: -> anisotropic ES         -0.033599965837 Eh    ::
         :: -> anisotropic XC          0.020065724954 Eh    ::
         :: -> dispersion             -0.049669449423 Eh    ::
         :: repulsion energy           0.904904471320 Eh    ::
         :: add. restraining           0.000000000000 Eh    ::
         :: total charge               1.000000000000 e     ::
         :::::::::::::::::::::::::::::::::::::::::::::::::::::

           ------------------------------------------------- 
          |                Numerical Hessian                |
           ------------------------------------------------- 
step length          :   0.00500
SCC accuracy         :   0.30000
Hessian scale factor :   1.00000
frozen atoms in %    :   0.00000    0
RMS gradient         :   0.00004
estimated CPU  time      0.25 min
estimated wall time      0.25 min

writing file <hessian>.

 projected vibrational frequencies (cm⁻¹)
eigval :       -0.00    -0.00    -0.00     0.00     0.00     0.00
eigval :       22.10    27.60    34.12    43.27    47.99    49.37
eigval :       55.39    58.75    62.69    67.82    82.23    93.29
eigval :       95.02   104.57   111.35   120.46   129.87   133.67
eigval :      142.37   146.25   151.35   168.93   171.41   191.20
eigval :      200.42   220.90   224.59   229.92   269.12   287.68
eigval :      291.14   331.40   347.46   361.09   376.35   383.55
eigval :      424.23   441.98   449.55   451.45   467.26   470.11
eigval :      473.92   475.64   481.65   496.63   500.97   505.14
eigval :      510.27   525.32   529.65   548.19   554.05   555.52
eigval :      577.81   602.14   642.75   666.53   672.13   677.25
eigval :      680.93   697.28   722.63   769.42   779.41   799.64
eigval :      871.09   965.35   968.00   969.83   984.48   991.21
eigval :     1004.31  1012.76  1020.66  1026.77  1028.95  1031.72
eigval :     1033.83  1037.37  1063.14  1087.51  1089.28  1095.77
eigval :     1096.21  1102.27  1105.19  1124.45  1176.65  1225.19
eigval :     1235.61  1270.00  1307.83  1319.17  1353.25  1357.64
eigval :     1368.48  1373.96  1384.05  1390.30  1408.13  1410.24
eigval :     1427.14  1441.16  1442.68  1446.42  1451.20  1453.20
eigval :     1456.67  1462.56  1468.33  1470.36  1473.03  1480.76
eigval :     1488.25  1503.39  1515.16  1515.83  1525.71  1651.31
eigval :     1655.72  1686.45  1700.43  2892.39  2958.43  2961.99
eigval :     3007.99  3026.72  3037.93  3041.55  3043.40  3045.56
eigval :     3049.73  3056.33  3057.36  3062.17  3139.65  3143.04
eigval :     3223.83  3314.21  3335.90  3355.03  3365.39  3498.18
eigval :     3498.87  3517.29  3519.46  3523.03  3532.92  3544.69
eigval :     3548.30  3563.24  3565.83
           -------------------------------------------------
          |                Property Printout                |
           -------------------------------------------------

    * Orbital Energies and Occupations

         #    Occupation            Energy/Eh            Energy/eV
      -------------------------------------------------------------
         1        2.0000           -0.8215483             -22.3555
       ...           ...                  ...                  ...
        58        2.0000           -0.5140625             -13.9884
        59        2.0000           -0.5094826             -13.8637
        60        2.0000           -0.5088396             -13.8462
        61        2.0000           -0.5080131             -13.8237
        62        2.0000           -0.5069339             -13.7944
        63        2.0000           -0.5037114             -13.7067
        64        2.0000           -0.5011456             -13.6369
        65        2.0000           -0.4985143             -13.5653
        66        2.0000           -0.4980635             -13.5530
        67        2.0000           -0.4961049             -13.4997
        68        2.0000           -0.4946867             -13.4611
        69        2.0000           -0.4921299             -13.3915
        70        2.0000           -0.4900306             -13.3344 (HOMO)
        71                         -0.2769155              -7.5353 (LUMO)
        72                         -0.2723659              -7.4115
        73                         -0.2721943              -7.4068
        74                         -0.2641602              -7.1882
        75                         -0.1770767              -4.8185
        76                         -0.1155786              -3.1451
        77                         -0.1081466              -2.9428
        78                         -0.1005075              -2.7349
        79                         -0.0962796              -2.6199
        80                         -0.0836976              -2.2775
        81                         -0.0710477              -1.9333
       ...                                ...                  ...
       122                          0.5456926              14.8491
      -------------------------------------------------------------
                  HL-Gap            0.2131151 Eh            5.7992 eV
             Fermi-level           -0.3834731 Eh          -10.4348 eV

     #   Z          covCN         q      C6AA      α(0)
     1   8 O        1.654    -0.454    21.923     6.321
     2   6 C        3.672     0.074    19.575     6.341
     3   1 H        0.924     0.051     2.312     2.378
     4   1 H        0.923     0.039     2.463     2.454
     5   6 C        3.774    -0.092    22.283     6.726
     6   1 H        0.924     0.133     1.510     1.922
     7   1 H        0.924     0.122     1.600     1.978
     8   7 N        3.624     0.152    18.671     6.418
     9   6 C        3.721    -0.105    22.617     6.792
    10   1 H        0.924     0.122     1.598     1.977
    11   1 H        0.925     0.087     1.908     2.160
    12   1 H        0.925     0.090     1.882     2.145
    13   6 C        3.739    -0.120    22.883     6.826
    14   1 H        0.925     0.112     1.682     2.028
    15   1 H        0.925     0.130     1.533     1.936
    16   1 H        0.925     0.086     1.922     2.168
    17   6 C        3.720    -0.099    22.520     6.778
    18   1 H        0.925     0.106     1.729     2.056
    19   1 H        0.925     0.090     1.880     2.144
    20   1 H        0.925     0.090     1.875     2.141
    21   1 H        0.803     0.337     0.620     1.237
    22   6 C        2.675     0.341    21.209     7.536
    23   8 O        0.860    -0.549    24.900     6.690
    24   7 N        2.646    -0.306    27.887     7.843
    25   1 H        0.860     0.228     0.974     1.546
    26   1 H        0.861     0.188     1.172     1.696
    27   7 N        2.646    -0.299    27.697     7.816
    28   1 H        0.860     0.228     0.973     1.545
    29   1 H        0.861     0.194     1.139     1.672
    30   6 C        2.675     0.342    21.182     7.531
    31   8 O        0.860    -0.543    24.756     6.671
    32   7 N        2.643    -0.303    27.814     7.833
    33   1 H        0.860     0.234     0.949     1.526
    34   1 H        0.860     0.180     1.213     1.725
    35   7 N        2.644    -0.303    27.806     7.832
    36   1 H        0.860     0.180     1.211     1.724
    37   1 H        0.860     0.229     0.971     1.544
    38   6 C        2.675     0.341    21.211     7.536
    39   8 O        0.861    -0.523    24.293     6.608
    40   7 N        2.642    -0.326    28.402     7.915
    41   1 H        0.859     0.241     0.918     1.501
    42   1 H        0.860     0.172     1.262     1.760
    43   7 N        2.644    -0.287    27.394     7.773
    44   1 H        0.861     0.185     1.187     1.707
    45   1 H        0.860     0.206     1.076     1.625
    46   6 C        2.675     0.341    21.210     7.536
    47   8 O        0.860    -0.550    24.918     6.693
    48   7 N        2.644    -0.308    27.931     7.849
    49   1 H        0.859     0.246     0.899     1.485
    50   1 H        0.861     0.180     1.215     1.726
    51   7 N        2.645    -0.291    27.511     7.790
    52   1 H        0.861     0.185     1.186     1.706
    53   1 H        0.860     0.199     1.113     1.653

 Mol. C6AA /au·bohr⁶  :      21792.035581
 Mol. C8AA /au·bohr⁸  :     454591.940963
 Mol. α(0) /au        :        220.521470


Wiberg/Mayer (AO) data.
largest (>0.10) Wiberg bond orders for each atom

 ---------------------------------------------------------------------------
     #   Z sym  total        # sym  WBO       # sym  WBO       # sym  WBO
 ---------------------------------------------------------------------------
     1   8 O    1.980 --     2 C    1.015    21 H    0.831
     2   6 C    3.965 --     1 O    1.015     5 C    0.991     4 H    0.970
                             3 H    0.966
     3   1 H    0.997 --     2 C    0.966
     4   1 H    0.998 --     2 C    0.970
     5   6 C    3.901 --     2 C    0.991     7 H    0.942     6 H    0.931
                             8 N    0.925
     6   1 H    0.982 --     5 C    0.931
     7   1 H    0.985 --     5 C    0.942
     8   7 N    3.819 --    17 C    0.964     9 C    0.960    13 C    0.953
                             5 C    0.925
     9   6 C    3.929 --    11 H    0.977    12 H    0.973    10 H    0.966
                             8 N    0.960
    10   1 H    0.985 --     9 C    0.966
    11   1 H    0.992 --     9 C    0.977
    12   1 H    0.992 --     9 C    0.973
    13   6 C    3.917 --    16 H    0.977    14 H    0.971    15 H    0.961
                             8 N    0.953
    14   1 H    0.988 --    13 C    0.971
    15   1 H    0.983 --    13 C    0.961
    16   1 H    0.992 --    13 C    0.977
    17   6 C    3.936 --    20 H    0.977    19 H    0.976    18 H    0.973
                             8 N    0.964
    18   1 H    0.989 --    17 C    0.973
    19   1 H    0.992 --    17 C    0.976
    20   1 H    0.992 --    17 C    0.977
    21   1 H    0.886 --     1 O    0.831
    22   6 C    3.960 --    23 O    1.450    27 N    1.254    24 N    1.241
    23   8 O    1.887 --    22 C    1.450    24 N    0.132    27 N    0.131
    24   7 N    3.337 --    22 C    1.241    26 H    0.943    25 H    0.894
                            23 O    0.132
    25   1 H    0.948 --    24 N    0.894
    26   1 H    0.965 --    24 N    0.943
    27   7 N    3.350 --    22 C    1.254    29 H    0.945    28 H    0.898
                            23 O    0.131
    28   1 H    0.948 --    27 N    0.898
    29   1 H    0.962 --    27 N    0.945
    30   6 C    3.959 --    31 O    1.469    32 N    1.243    35 N    1.234
    31   8 O    1.901 --    30 C    1.469    32 N    0.132    35 N    0.130
    32   7 N    3.329 --    30 C    1.243    34 H    0.948    33 H    0.887
                            31 O    0.132
    33   1 H    0.945 --    32 N    0.887
    34   1 H    0.967 --    32 N    0.948
    35   7 N    3.324 --    30 C    1.234    36 H    0.948    37 H    0.897
                            31 O    0.130
    36   1 H    0.967 --    35 N    0.948
    37   1 H    0.948 --    35 N    0.897
    38   6 C    3.960 --    39 O    1.502    40 N    1.224    43 N    1.221
    39   8 O    1.914 --    38 C    1.502    40 N    0.140    43 N    0.137
    40   7 N    3.304 --    38 C    1.224    42 H    0.950    41 H    0.865
                            39 O    0.140
    41   1 H    0.942 --    40 N    0.865
    42   1 H    0.970 --    40 N    0.950
    43   7 N    3.336 --    38 C    1.221    44 H    0.947    45 H    0.941
                            39 O    0.137
    44   1 H    0.965 --    43 N    0.947
    45   1 H    0.957 --    43 N    0.941
    46   6 C    3.960 --    47 O    1.474    48 N    1.267    51 N    1.208
    47   8 O    1.873 --    46 C    1.474    48 N    0.145    51 N    0.128
    48   7 N    3.348 --    46 C    1.267    50 H    0.948    49 H    0.861
                            47 O    0.145
    49   1 H    0.939 --    48 N    0.861
    50   1 H    0.967 --    48 N    0.948
    51   7 N    3.321 --    46 C    1.208    52 H    0.947    53 H    0.943
                            47 O    0.128
    52   1 H    0.965 --    51 N    0.947
    53   1 H    0.960 --    51 N    0.943
 ---------------------------------------------------------------------------

Topologies differ in total number of bonds
Writing topology from bond orders to xtbtopo.mol

molecular dipole:
                 x           y           z       tot (Debye)
 q only:        0.309      -2.862      -0.831
   full:        0.228      -2.702      -0.189       6.910
molecular quadrupole (traceless):
                xx          xy          yy          xz          yz          zz
 q only:       11.054     -10.935      -2.751      -2.683       6.630      -8.304
  q+dip:       16.223     -11.265      -4.995      -1.661       5.770     -11.228
   full:       15.759     -11.153      -4.850      -1.376       6.073     -10.908

           -------------------------------------------------
          |               Frequency Printout                |
           -------------------------------------------------
 projected vibrational frequencies (cm⁻¹)
eigval :       -0.00    -0.00    -0.00     0.00     0.00     0.00
eigval :       22.10    27.60    34.12    43.27    47.99    49.37
eigval :       55.39    58.75    62.69    67.82    82.23    93.29
eigval :       95.02   104.57   111.35   120.46   129.87   133.67
eigval :      142.37   146.25   151.35   168.93   171.41   191.20
eigval :      200.42   220.90   224.59   229.92   269.12   287.68
eigval :      291.14   331.40   347.46   361.09   376.35   383.55
eigval :      424.23   441.98   449.55   451.45   467.26   470.11
eigval :      473.92   475.64   481.65   496.63   500.97   505.14
eigval :      510.27   525.32   529.65   548.19   554.05   555.52
eigval :      577.81   602.14   642.75   666.53   672.13   677.25
eigval :      680.93   697.28   722.63   769.42   779.41   799.64
eigval :      871.09   965.35   968.00   969.83   984.48   991.21
eigval :     1004.31  1012.76  1020.66  1026.77  1028.95  1031.72
eigval :     1033.83  1037.37  1063.14  1087.51  1089.28  1095.77
eigval :     1096.21  1102.27  1105.19  1124.45  1176.65  1225.19
eigval :     1235.61  1270.00  1307.83  1319.17  1353.25  1357.64
eigval :     1368.48  1373.96  1384.05  1390.30  1408.13  1410.24
eigval :     1427.14  1441.16  1442.68  1446.42  1451.20  1453.20
eigval :     1456.67  1462.56  1468.33  1470.36  1473.03  1480.76
eigval :     1488.25  1503.39  1515.16  1515.83  1525.71  1651.31
eigval :     1655.72  1686.45  1700.43  2892.39  2958.43  2961.99
eigval :     3007.99  3026.72  3037.93  3041.55  3043.40  3045.56
eigval :     3049.73  3056.33  3057.36  3062.17  3139.65  3143.04
eigval :     3223.83  3314.21  3335.90  3355.03  3365.39  3498.18
eigval :     3498.87  3517.29  3519.46  3523.03  3532.92  3544.69
eigval :     3548.30  3563.24  3565.83
 reduced masses (amu)
   1: 12.26   2: 12.68   3: 12.50   4: 12.21   5: 12.68   6: 12.62   7: 11.78   8: 12.16
   9: 10.84  10: 11.84  11: 12.31  12: 12.52  13: 12.63  14: 12.53  15: 12.62  16: 10.74
  17: 12.22  18: 12.51  19: 12.49  20: 12.70  21: 13.99  22: 13.17  23: 13.27  24: 12.84
  25: 12.77  26: 12.76  27: 12.63  28: 12.76  29: 10.54  30: 12.68  31: 11.59  32: 11.98
  33:  3.17  34:  7.19  35:  4.98  36:  1.91  37:  2.41  38:  3.55  39:  8.34  40:  3.57
  41:  7.72  42:  8.62  43:  2.96  44:  2.97  45:  2.03  46:  2.28  47:  7.90  48:  8.57
  49:  8.86  50:  4.92  51:  6.48  52:  8.77  53:  5.02  54:  6.07  55:  3.24  56:  9.21
  57:  4.08  58: 11.53  59: 11.31  60: 11.72  61: 10.08  62:  3.10  63:  5.38  64:  7.40
  65: 11.26  66: 11.44  67:  6.67  68:  5.30  69:  4.19  70:  3.14  71:  1.85  72:  8.50
  73:  4.81  74:  5.54  75:  5.05  76:  8.60  77:  4.84  78:  4.34  79:  7.02  80:  6.66
  81:  9.24  82:  9.96  83:  7.92  84:  4.53  85:  9.90  86:  6.37  87:  8.04  88:  9.01
  89: 10.05  90:  8.13  91:  8.51  92:  4.28  93:  6.74  94:  6.13  95:  2.86  96:  4.91
  97:  7.68  98:  8.38  99:  3.26 100:  5.84 101:  4.54 102:  5.29 103:  3.75 104:  4.00
 105:  4.22 106:  4.77 107:  2.56 108:  2.59 109:  2.36 110:  2.47 111:  1.66 112:  2.98
 113:  3.23 114:  2.80 115:  1.94 116:  1.93 117:  1.72 118:  2.63 119:  2.13 120:  1.82
 121:  1.80 122:  8.54 123:  9.37 124:  8.93 125:  9.38 126: 12.25 127: 12.41 128: 12.62
 129: 12.64 130:  1.79 131:  1.78 132:  1.68 133:  1.73 134:  1.72 135:  1.78 136:  1.72
 137:  1.87 138:  1.49 139:  1.90 140:  1.79 141:  1.65 142:  1.64 143:  1.82 144:  1.81
 145:  1.90 146:  1.73 147:  1.71 148:  1.73 149:  1.72 150:  1.45 151:  1.45 152:  1.93
 153:  1.89 154:  1.92 155:  1.89 156:  1.95 157:  1.96 158:  2.18 159:  2.19
 IR intensities (km·mol⁻¹)
   1:  1.58   2:  0.06   3:  0.61   4:  2.44   5:  2.59   6:  3.01   7:  0.22   8:  1.47
   9:  0.78  10:  0.18  11:  1.54  12:  3.46  13:  0.77  14:  0.91  15:  1.66  16:  3.00
  17:  3.44  18:  6.38  19:  0.77  20:  4.66  21:  2.88  22: 20.89  23: 25.21  24:  2.83
  25:  1.23  26:  8.47  27: 11.80  28: 22.55  29: 19.25  30: 24.13  31: 45.88  32: 17.11
  33:167.55  34:  1.90  35:  0.79  36:  0.27  37:159.47  38:  0.32  39:  1.06  40: 12.26
  41:  3.05  42:  1.83  43:364.94  44:144.49  45:114.51  46:322.96  47:  5.30  48: 16.92
  49: 15.71  50:  2.73  51:  4.09  52: 95.39  53: 12.03  54: 45.96  55: 15.94  56:  0.72
  57: 45.90  58: 22.05  59: 12.81  60: 38.81  61: 38.48  62:444.43  63: 58.17  64:  7.78
  65: 50.09  66: 36.13  67: 42.73  68:108.35  69:212.46  70:262.47  71:299.56  72: 13.72
  73: 17.66  74:  3.97  75:  4.31  76: 24.42  77:  2.10  78:  1.66  79: 14.80  80:  5.59
  81:  3.32  82: 13.05  83:  0.78  84:  3.23  85:  2.73  86: 16.47  87: 15.42  88:  5.92
  89: 36.96  90:  2.82  91:  1.28  92:  4.34  93:  2.69  94:  9.55  95: 11.83  96: 18.44
  97:  0.30  98:  1.90  99:  5.30 100:  3.57 101: 69.19 102:228.54 103:105.43 104: 23.43
 105: 15.62 106:  5.02 107: 12.58 108: 24.13 109:  9.76 110:  9.45 111:  0.41 112:  2.11
 113:  8.78 114:  7.68 115: 11.39 116:  1.10 117:  6.63 118: 11.96 119: 43.51 120: 60.11
 121:  4.78 122:485.39 123:442.83 124:432.29 125:414.52 126:472.28 127:427.02 128:******
 129:****** 130: 59.92 131:127.70 132: 48.08 133: 31.06 134: 17.78 135:  1.01 136:  1.15
 137:  6.22 138: 22.15 139:  7.95 140:  2.17 141:  0.31 142:  3.42 143:781.80 144:850.33
 145:407.77 146:525.76 147:754.20 148:406.43 149:313.68 150: 20.13 151: 27.36 152:  3.83
 153:  9.83 154: 27.51 155: 14.64 156: 18.60 157: 60.72 158: 14.79 159: 17.11
 Raman intensities (amu)
Molecule has no symmetry elements
It seems to be the C1 point group
   1:  0.00   2:  0.00   3:  0.00   4:  0.00   5:  0.00   6:  0.00   7:  0.00   8:  0.00
   9:  0.00  10:  0.00  11:  0.00  12:  0.00  13:  0.00  14:  0.00  15:  0.00  16:  0.00
  17:  0.00  18:  0.00  19:  0.00  20:  0.00  21:  0.00  22:  0.00  23:  0.00  24:  0.00
  25:  0.00  26:  0.00  27:  0.00  28:  0.00  29:  0.00  30:  0.00  31:  0.00  32:  0.00
  33:  0.00  34:  0.00  35:  0.00  36:  0.00  37:  0.00  38:  0.00  39:  0.00  40:  0.00
  41:  0.00  42:  0.00  43:  0.00  44:  0.00  45:  0.00  46:  0.00  47:  0.00  48:  0.00
  49:  0.00  50:  0.00  51:  0.00  52:  0.00  53:  0.00  54:  0.00  55:  0.00  56:  0.00
  57:  0.00  58:  0.00  59:  0.00  60:  0.00  61:  0.00  62:  0.00  63:  0.00  64:  0.00
  65:  0.00  66:  0.00  67:  0.00  68:  0.00  69:  0.00  70:  0.00  71:  0.00  72:  0.00
  73:  0.00  74:  0.00  75:  0.00  76:  0.00  77:  0.00  78:  0.00  79:  0.00  80:  0.00
  81:  0.00  82:  0.00  83:  0.00  84:  0.00  85:  0.00  86:  0.00  87:  0.00  88:  0.00
  89:  0.00  90:  0.00  91:  0.00  92:  0.00  93:  0.00  94:  0.00  95:  0.00  96:  0.00
  97:  0.00  98:  0.00  99:  0.00 100:  0.00 101:  0.00 102:  0.00 103:  0.00 104:  0.00
 105:  0.00 106:  0.00 107:  0.00 108:  0.00 109:  0.00 110:  0.00 111:  0.00 112:  0.00
 113:  0.00 114:  0.00 115:  0.00 116:  0.00 117:  0.00 118:  0.00 119:  0.00 120:  0.00
 121:  0.00 122:  0.00 123:  0.00 124:  0.00 125:  0.00 126:  0.00 127:  0.00 128:  0.00
 129:  0.00 130:  0.00 131:  0.00 132:  0.00 133:  0.00 134:  0.00 135:  0.00 136:  0.00
 137:  0.00 138:  0.00 139:  0.00 140:  0.00 141:  0.00 142:  0.00 143:  0.00 144:  0.00
 145:  0.00 146:  0.00 147:  0.00 148:  0.00 149:  0.00 150:  0.00 151:  0.00 152:  0.00
 153:  0.00 154:  0.00 155:  0.00 156:  0.00 157:  0.00 158:  0.00 159:  0.00
 output can be read by thermo (or use thermo option).
 writing <g98.out> molden fake output.
 recommended (thermochemical) frequency scaling factor: 1.0
           -------------------------------------------------
          |             Thermodynamic Functions             |
           -------------------------------------------------

c1  symmetry found (for desy threshold:  0.10E+00) used in thermo

          ...................................................
          :                      SETUP                      :
          :.................................................:
          :  # frequencies                         153      :
          :  # imaginary freq.                       0      :
          :  linear?                             false      :
          :  only rotor calc.                    false      :
          :  symmetry                               c1      :
          :  rotational number                       1      :
          :  scaling factor                  1.0000000      :
          :  rotor cutoff                   50.0000000 cm⁻¹ :
          :  imag. cutoff                  -20.0000000 cm⁻¹ :
          :.................................................:

    mode    ω/cm⁻¹     T·S(HO)/kcal·mol⁻¹    T·S(FR)/kcal·mol⁻¹   T·S(vib)
   ------------------------------------------------------------------------
       1     22.10    -1.91890 (  3.68%)    -1.29834 ( 96.32%)    -1.32115
       2     27.60    -1.78744 (  8.49%)    -1.23255 ( 91.51%)    -1.27967
       3     34.12    -1.66190 ( 17.83%)    -1.16968 ( 82.17%)    -1.25742
       4     43.27    -1.52155 ( 35.94%)    -1.09931 ( 64.06%)    -1.25107
       5     47.99    -1.46054 ( 45.90%)    -1.06869 ( 54.10%)    -1.24854
       6     49.37    -1.44379 ( 48.73%)    -1.06028 ( 51.27%)    -1.24716
       7     55.39    -1.37592 ( 60.10%)    -1.02617 ( 39.90%)    -1.23639
       8     58.75    -1.34132 ( 65.59%)    -1.00875 ( 34.41%)    -1.22687
       9     62.69    -1.30312 ( 71.19%)    -0.98952 ( 28.81%)    -1.21278
      10     67.82    -1.25687 ( 77.20%)    -0.96621 ( 22.80%)    -1.19059
      11     82.23    -1.14396 ( 87.98%)    -0.90914 ( 12.02%)    -1.11573
      12     93.29    -1.07031 ( 92.38%)    -0.87176 (  7.62%)    -1.05518
      13     95.02    -1.05959 ( 92.88%)    -0.86631 (  7.12%)    -1.04583
      14    104.57    -1.00395 ( 95.03%)    -0.83795 (  4.97%)    -0.99570
      15    111.35    -0.96755 ( 96.09%)    -0.81934 (  3.91%)    -0.96176
      16    120.46    -0.92216 ( 97.12%)    -0.79605 (  2.88%)    -0.91853
      17    129.87    -0.87891 ( 97.85%)    -0.77376 (  2.15%)    -0.87665
      18    133.67    -0.86241 ( 98.08%)    -0.76523 (  1.92%)    -0.86055
      19    142.37    -0.82640 ( 98.50%)    -0.74655 (  1.50%)    -0.82520
      20    146.25    -0.81110 ( 98.65%)    -0.73858 (  1.35%)    -0.81012
      21    151.35    -0.79165 ( 98.82%)    -0.72843 (  1.18%)    -0.79090
      22    168.93    -0.72969 ( 99.24%)    -0.69588 (  0.76%)    -0.72943
      23    171.41    -0.72153 ( 99.28%)    -0.69157 (  0.72%)    -0.72131
      24    191.20    -0.66074 ( 99.53%)    -0.65919 (  0.47%)    -0.66073
      25    200.42    -0.63484 ( 99.61%)    -0.64525 (  0.39%)    -0.63488
      26    220.90    -0.58190 ( 99.74%)    -0.61642 (  0.26%)    -0.58199
      27    224.59    -0.57298 ( 99.75%)    -0.61151 (  0.25%)    -0.57307
      28    229.92    -0.56038 ( 99.78%)    -0.60456 (  0.22%)    -0.56048
      29    269.12    -0.47758 ( 99.88%)    -0.55792 (  0.12%)    -0.47768
      30    287.68    -0.44352 ( 99.91%)    -0.53818 (  0.09%)    -0.44361
      31    291.14    -0.43748 ( 99.91%)    -0.53463 (  0.09%)    -0.43756
   ------------------------------------------------------------------------

   temp. (K)  partition function   enthalpy   heat capacity  entropy
                                   cal/mol     cal/K/mol   cal/K/mol   J/K/mol
 298.15  VIB  0.358E+15            18635.043    104.929    120.105
         ROT  0.103E+08              888.752      2.981     35.063
         INT  0.367E+22            19523.795    107.910    155.168
         TR   0.618E+28             1481.254      4.968     43.384
         TOT                       21005.0492   112.8780   198.5522   830.7426

       T/K    H(0)-H(T)+PV         H(T)/Eh          T*S/Eh         G(T)/Eh
   ------------------------------------------------------------------------
    298.15    0.334737E-01    0.474119E+00    0.943386E-01    0.379781E+00
   ------------------------------------------------------------------------

         :::::::::::::::::::::::::::::::::::::::::::::::::::::
         ::                  THERMODYNAMIC                  ::
         :::::::::::::::::::::::::::::::::::::::::::::::::::::
         :: total free energy         -80.557132677956 Eh   ::
         ::.................................................::
         :: total energy              -80.936913266250 Eh   ::
         :: zero point energy           0.440645492546 Eh   ::
         :: G(RRHO) w/o ZPVE           -0.060864904252 Eh   ::
         :: G(RRHO) contrib.            0.379780588293 Eh   ::
         :::::::::::::::::::::::::::::::::::::::::::::::::::::

           -------------------------------------------------
          | TOTAL ENERGY              -80.936913266250 Eh   |
          | TOTAL ENTHALPY            -80.462794097038 Eh   |
          | TOTAL FREE ENERGY         -80.557132677956 Eh   |
          | GRADIENT NORM               0.000039614519 Eh/α |
          | HOMO-LUMO GAP               5.799156352770 eV   |
           -------------------------------------------------

------------------------------------------------------------------------
 * finished run on 2024/01/10 at 15:34:42.493     
------------------------------------------------------------------------
 total:
 * wall-time:     0 d,  0 h,  0 min, 15.177 sec
 *  cpu-time:     0 d,  0 h,  0 min, 15.106 sec
 * ratio c/w:     0.995 speedup
 SCF:
 * wall-time:     0 d,  0 h,  0 min,  0.099 sec
 *  cpu-time:     0 d,  0 h,  0 min,  0.059 sec
 * ratio c/w:     0.598 speedup
 analytical hessian:
 * wall-time:     0 d,  0 h,  0 min, 15.051 sec
 *  cpu-time:     0 d,  0 h,  0 min, 15.019 sec
 * ratio c/w:     0.998 speedup

