      -----------------------------------------------------------      
     |                   =====================                   |     
     |                           x T B                           |     
     |                   =====================                   |     
     |                         S. Grimme                         |     
     |          Mulliken Center for Theoretical Chemistry        |     
     |                    University of Bonn                     |     
      -----------------------------------------------------------      

   * xtb version 6.6.1 (unknown-commit) compiled by '@Linux' on 12/27/2023

   xtb is free software: you can redistribute it and/or modify it under
   the terms of the GNU Lesser General Public License as published by
   the Free Software Foundation, either version 3 of the License, or
   (at your option) any later version.
   
   xtb is distributed in the hope that it will be useful,
   but WITHOUT ANY WARRANTY; without even the implied warranty of
   MERCHANTABILITY or FITNESS FOR A PARTICULAR PURPOSE.  See the
   GNU Lesser General Public License for more details.
   
   Cite this work as:
   * C. Bannwarth, E. Caldeweyher, S. Ehlert, A. Hansen, P. Pracht,
     J. Seibert, S. Spicher, S. Grimme, WIREs Comput. Mol. Sci., 2020, 11,
     e01493. DOI: 10.1002/wcms.1493
   
   for GFN2-xTB:
   * C. Bannwarth, S. Ehlert and S. Grimme., J. Chem. Theory Comput., 2019,
     15, 1652-1671. DOI: 10.1021/acs.jctc.8b01176
   for GFN1-xTB:
   * S. Grimme, C. Bannwarth, P. Shushkov, J. Chem. Theory Comput., 2017,
     13, 1989-2009. DOI: 10.1021/acs.jctc.7b00118
   for GFN0-xTB:
   * P. Pracht, E. Caldeweyher, S. Ehlert, S. Grimme, ChemRxiv, 2019, preprint.
     DOI: 10.26434/chemrxiv.8326202.v1
   for GFN-FF:
   * S. Spicher and S. Grimme, Angew. Chem. Int. Ed., 2020, 59, 15665-15673.
     DOI: 10.1002/anie.202004239
   
   for ALPB and GBSA implicit solvation:
   * S. Ehlert, M. Stahn, S. Spicher, S. Grimme, J. Chem. Theory Comput.,
     2021, 17, 4250-4261. DOI: 10.1021/acs.jctc.1c00471
   
   for DFT-D4:
   * E. Caldeweyher, C. Bannwarth and S. Grimme, J. Chem. Phys., 2017,
     147, 034112. DOI: 10.1063/1.4993215
   * E. Caldeweyher, S. Ehlert, A. Hansen, H. Neugebauer, S. Spicher,
     C. Bannwarth and S. Grimme, J. Chem. Phys., 2019, 150, 154122.
     DOI: 10.1063/1.5090222
   * E. Caldeweyher, J.-M. Mewes, S. Ehlert and S. Grimme, Phys. Chem. Chem. Phys.
     2020, 22, 8499-8512. DOI: 10.1039/D0CP00502A
   
   for sTDA-xTB:
   * S. Grimme and C. Bannwarth, J. Chem. Phys., 2016, 145, 054103.
     DOI: 10.1063/1.4959605
   
   in the mass-spec context:
   * V. Asgeirsson, C. Bauer and S. Grimme, Chem. Sci., 2017, 8, 4879.
     DOI: 10.1039/c7sc00601b
   * J. Koopman and S. Grimme, ACS Omega 2019, 4, 12, 15120-15133.
     DOI: 10.1021/acsomega.9b02011
   
   for metadynamics refer to:
   * S. Grimme, J. Chem. Theory Comput., 2019, 155, 2847-2862
     DOI: 10.1021/acs.jctc.9b00143
   
   for SPH calculations refer to:
   * S. Spicher and S. Grimme, J. Chem. Theory Comput., 2021, 17, 1701-1714
     DOI: 10.1021/acs.jctc.0c01306
   
   with help from (in alphabetical order)
   P. Atkinson, C. Bannwarth, F. Bohle, G. Brandenburg, E. Caldeweyher
   M. Checinski, S. Dohm, S. Ehlert, S. Ehrlich, I. Gerasimov, C. Hölzer
   A. Katbashev, J. Koopman, C. Lavigne, S. Lehtola, F. März, M. Müller,
   F. Musil, H. Neugebauer, J. Pisarek, C. Plett, P. Pracht, F. Pultar,
   J. Seibert, P. Shushkov, S. Spicher, M. Stahn, M. Steiner, T. Strunk,
   J. Stückrath, T. Rose, and J. Unsleber
   
 * started run on 2024/01/10 at 15:39:23.721     

           -------------------------------------------------
          |                Calculation Setup                |
           -------------------------------------------------

          program call               : xtb struc.xyz --gfn2 --hess
          hostname                   : swaroop
          coordinate file            : struc.xyz
          omp threads                :                     1

   ID    Z sym.   atoms
    1    8 O      1, 23, 31, 39, 47
    2    6 C      2, 5, 9, 13, 17, 22, 30, 38, 46
    3    1 H      3, 4, 6, 7, 10-12, 14-16, 18-21, 25, 26, 28, 29, 33, 34,
                  36, 37, 41, 42, 44, 45, 49, 50, 52, 53
    4    7 N      8, 24, 27, 32, 35, 40, 43, 48, 51

molecular fragmentation (1/2 indicates fragments):
11111111111111111111122222222222222222222222222222222
# atoms in fragment 1/2:    21    32
 fragment masses (1/2) :      104.17      240.22
CMA distance (Bohr)    :   7.665
constraining FC (au)   :  0.0500

           -------------------------------------------------
          |                 G F N 2 - x T B                 |
           -------------------------------------------------

        Reference                      10.1021/acs.jctc.8b01176
      * Hamiltonian:
        H0-scaling (s, p, d)           1.850000    2.230000    2.230000
        zeta-weighting                 0.500000
      * Dispersion:
        s8                             2.700000
        a1                             0.520000
        a2                             5.000000
        s9                             5.000000
      * Repulsion:
        kExp                           1.500000    1.000000
        rExp                           1.000000
      * Coulomb:
        alpha                          2.000000
        third order                    shell-resolved
        anisotropic                    true
        a3                             3.000000
        a5                             4.000000
        cn-shift                       1.200000
        cn-exp                         4.000000
        max-rad                        5.000000


          ...................................................
          :                      SETUP                      :
          :.................................................:
          :  # basis functions                 122          :
          :  # atomic orbitals                 122          :
          :  # shells                           76          :
          :  # electrons                       140          :
          :  max. iterations                   250          :
          :  Hamiltonian                  GFN2-xTB          :
          :  restarted?                      false          :
          :  GBSA solvation                  false          :
          :  PC potential                    false          :
          :  electronic temp.          300.0000000     K    :
          :  accuracy                    1.0000000          :
          :  -> integral cutoff          0.2500000E+02      :
          :  -> integral neglect         0.1000000E-07      :
          :  -> SCF convergence          0.1000000E-05 Eh   :
          :  -> wf. convergence          0.1000000E-03 e    :
          :  Broyden damping             0.4000000          :
          ...................................................

 iter      E             dE          RMSdq      gap      omega  full diag
   1    -81.5579739 -0.815580E+02  0.435E+00    5.11       0.0  T
   2    -81.8381653 -0.280191E+00  0.239E+00    6.05       1.0  T
   3    -81.8438059 -0.564056E-02  0.115E+00    5.86       1.0  T
   4    -81.8452456 -0.143973E-02  0.245E-01    5.97       1.0  T
   5    -81.8461596 -0.913927E-03  0.920E-02    5.90       1.0  T
   6    -81.8461840 -0.244338E-04  0.260E-02    5.92       1.0  T
   7    -81.8461883 -0.429603E-05  0.776E-03    5.92       1.8  T
   8    -81.8461886 -0.284462E-06  0.273E-03    5.91       5.0  T
   9    -81.8461886 -0.140767E-07  0.893E-04    5.91      15.4  T
  10    -81.8461886 -0.449560E-08  0.183E-04    5.91      74.9  T

   *** convergence criteria satisfied after 10 iterations ***

         #    Occupation            Energy/Eh            Energy/eV
      -------------------------------------------------------------
         1        2.0000           -0.7984304             -21.7264
       ...           ...                  ...                  ...
        64        2.0000           -0.4948510             -13.4656
        65        2.0000           -0.4918302             -13.3834
        66        2.0000           -0.4907771             -13.3547
        67        2.0000           -0.4895796             -13.3221
        68        2.0000           -0.4877190             -13.2715
        69        2.0000           -0.4858578             -13.2209
        70        2.0000           -0.4841775             -13.1751 (HOMO)
        71                         -0.2668391              -7.2611 (LUMO)
        72                         -0.2627215              -7.1490
        73                         -0.2613732              -7.1123
        74                         -0.2581393              -7.0243
        75                         -0.1541703              -4.1952
       ...                                ...                  ...
       122                          0.5657282              15.3942
      -------------------------------------------------------------
                  HL-Gap            0.2173384 Eh            5.9141 eV
             Fermi-level           -0.3755083 Eh          -10.2181 eV

 SCC (total)                   0 d,  0 h,  0 min,  0.096 sec
 SCC setup                      ...        0 min,  0.000 sec (  0.298%)
 Dispersion                     ...        0 min,  0.001 sec (  0.620%)
 classical contributions        ...        0 min,  0.000 sec (  0.188%)
 integral evaluation            ...        0 min,  0.008 sec (  8.342%)
 iterations                     ...        0 min,  0.059 sec ( 61.410%)
 molecular gradient             ...        0 min,  0.028 sec ( 28.879%)
 printout                       ...        0 min,  0.000 sec (  0.251%)

         :::::::::::::::::::::::::::::::::::::::::::::::::::::
         ::                     SUMMARY                     ::
         :::::::::::::::::::::::::::::::::::::::::::::::::::::
         :: total energy             -80.932768062638 Eh    ::
         :: gradient norm              0.000045128772 Eh/a0 ::
         :: HOMO-LUMO gap              5.914077536992 eV    ::
         ::.................................................::
         :: SCC energy               -81.846188592588 Eh    ::
         :: -> isotropic ES            0.292962929593 Eh    ::
         :: -> anisotropic ES         -0.028399006071 Eh    ::
         :: -> anisotropic XC          0.020726665891 Eh    ::
         :: -> dispersion             -0.045090970306 Eh    ::
         :: repulsion energy           0.911926698259 Eh    ::
         :: add. restraining           0.000000000000 Eh    ::
         :: total charge               1.000000000000 e     ::
         :::::::::::::::::::::::::::::::::::::::::::::::::::::

           ------------------------------------------------- 
          |                Numerical Hessian                |
           ------------------------------------------------- 
step length          :   0.00500
SCC accuracy         :   0.30000
Hessian scale factor :   1.00000
frozen atoms in %    :   0.00000    0
RMS gradient         :   0.00005
estimated CPU  time      0.24 min
estimated wall time      0.24 min

writing file <hessian>.

 projected vibrational frequencies (cm⁻¹)
eigval :       -0.00    -0.00     0.00     0.00     0.00     0.00
eigval :       15.43    19.49    27.30    34.82    36.30    41.10
eigval :       42.69    44.90    48.88    52.56    56.54    63.88
eigval :       69.97    76.50    86.44    97.38   101.57   104.19
eigval :      111.93   120.63   129.51   144.93   172.95   183.04
eigval :      193.56   211.18   213.83   220.84   270.77   289.19
eigval :      304.94   310.79   313.01   346.55   373.09   388.26
eigval :      398.15   407.72   422.57   424.36   440.43   458.50
eigval :      460.27   460.99   467.40   469.96   473.57   476.95
eigval :      482.01   483.60   499.42   500.79   538.51   545.50
eigval :      556.35   558.49   579.30   663.92   670.59   674.35
eigval :      676.13   676.99   725.03   761.92   768.69   785.54
eigval :      890.99   926.08   960.52   964.66   969.90   990.13
eigval :     1003.61  1010.21  1011.43  1015.36  1019.33  1022.15
eigval :     1029.25  1037.35  1051.77  1087.58  1087.75  1091.44
eigval :     1093.73  1098.95  1120.23  1130.73  1185.12  1209.09
eigval :     1246.75  1255.40  1281.20  1319.40  1349.58  1355.64
eigval :     1360.96  1367.61  1372.20  1390.21  1399.37  1405.94
eigval :     1414.09  1431.85  1440.92  1447.52  1451.01  1455.97
eigval :     1457.31  1459.67  1467.65  1469.16  1474.67  1482.17
eigval :     1495.88  1501.29  1505.07  1513.20  1515.63  1653.00
eigval :     1695.56  1701.53  1717.84  2898.73  2927.70  2978.27
eigval :     3000.87  3037.59  3039.57  3043.61  3046.96  3048.28
eigval :     3052.48  3064.16  3067.37  3074.04  3143.96  3197.33
eigval :     3237.97  3374.11  3471.46  3489.33  3496.64  3502.44
eigval :     3502.71  3524.06  3530.90  3536.52  3553.28  3561.75
eigval :     3569.04  3569.18  3573.25
           -------------------------------------------------
          |                Property Printout                |
           -------------------------------------------------

    * Orbital Energies and Occupations

         #    Occupation            Energy/Eh            Energy/eV
      -------------------------------------------------------------
         1        2.0000           -0.7984303             -21.7264
       ...           ...                  ...                  ...
        58        2.0000           -0.5187037             -14.1146
        59        2.0000           -0.5031700             -13.6920
        60        2.0000           -0.5010586             -13.6345
        61        2.0000           -0.5003526             -13.6153
        62        2.0000           -0.4970568             -13.5256
        63        2.0000           -0.4953597             -13.4794
        64        2.0000           -0.4948527             -13.4656
        65        2.0000           -0.4918315             -13.3834
        66        2.0000           -0.4907781             -13.3548
        67        2.0000           -0.4895805             -13.3222
        68        2.0000           -0.4877206             -13.2716
        69        2.0000           -0.4858593             -13.2209
        70        2.0000           -0.4841797             -13.1752 (HOMO)
        71                         -0.2668394              -7.2611 (LUMO)
        72                         -0.2627220              -7.1490
        73                         -0.2613732              -7.1123
        74                         -0.2581450              -7.0245
        75                         -0.1541700              -4.1952
        76                         -0.1009666              -2.7474
        77                         -0.0878927              -2.3917
        78                         -0.0803588              -2.1867
        79                         -0.0787542              -2.1430
        80                         -0.0765571              -2.0832
        81                         -0.0665961              -1.8122
       ...                                ...                  ...
       122                          0.5657278              15.3942
      -------------------------------------------------------------
                  HL-Gap            0.2173403 Eh            5.9141 eV
             Fermi-level           -0.3755096 Eh          -10.2181 eV

     #   Z          covCN         q      C6AA      α(0)
     1   8 O        1.655    -0.441    21.660     6.283
     2   6 C        3.672     0.074    19.568     6.340
     3   1 H        0.924     0.048     2.343     2.394
     4   1 H        0.924     0.049     2.332     2.388
     5   6 C        3.765    -0.057    21.634     6.630
     6   1 H        0.924     0.085     1.926     2.170
     7   1 H        0.924     0.127     1.554     1.950
     8   7 N        3.624     0.161    18.523     6.392
     9   6 C        3.738    -0.118    22.842     6.820
    10   1 H        0.925     0.117     1.639     2.002
    11   1 H        0.925     0.126     1.568     1.958
    12   1 H        0.925     0.079     1.985     2.203
    13   6 C        3.729    -0.121    22.917     6.834
    14   1 H        0.925     0.090     1.874     2.141
    15   1 H        0.925     0.120     1.610     1.984
    16   1 H        0.925     0.118     1.627     1.994
    17   6 C        3.724    -0.110    22.720     6.806
    18   1 H        0.925     0.114     1.658     2.014
    19   1 H        0.925     0.080     1.974     2.197
    20   1 H        0.925     0.113     1.667     2.019
    21   1 H        0.805     0.302     0.716     1.329
    22   6 C        2.675     0.341    21.213     7.537
    23   8 O        0.860    -0.540    24.686     6.661
    24   7 N        2.645    -0.292    27.541     7.794
    25   1 H        0.860     0.197     1.120     1.658
    26   1 H        0.861     0.183     1.198     1.715
    27   7 N        2.645    -0.303    27.807     7.832
    28   1 H        0.860     0.178     1.228     1.736
    29   1 H        0.860     0.240     0.925     1.506
    30   6 C        2.675     0.342    21.198     7.534
    31   8 O        0.860    -0.518    24.177     6.592
    32   7 N        2.644    -0.295    27.609     7.804
    33   1 H        0.860     0.199     1.112     1.652
    34   1 H        0.860     0.184     1.191     1.709
    35   7 N        2.644    -0.312    28.035     7.864
    36   1 H        0.860     0.199     1.112     1.652
    37   1 H        0.859     0.241     0.920     1.503
    38   6 C        2.675     0.343    21.174     7.530
    39   8 O        0.860    -0.540    24.678     6.660
    40   7 N        2.645    -0.299    27.705     7.817
    41   1 H        0.860     0.190     1.158     1.685
    42   1 H        0.860     0.181     1.211     1.724
    43   7 N        2.644    -0.315    28.096     7.872
    44   1 H        0.860     0.175     1.241     1.745
    45   1 H        0.859     0.242     0.917     1.500
    46   6 C        2.675     0.342    21.198     7.534
    47   8 O        0.861    -0.535    24.562     6.645
    48   7 N        2.644    -0.303    27.812     7.832
    49   1 H        0.859     0.248     0.890     1.478
    50   1 H        0.861     0.179     1.219     1.730
    51   7 N        2.645    -0.291    27.509     7.790
    52   1 H        0.861     0.184     1.194     1.711
    53   1 H        0.860     0.197     1.120     1.658

 Mol. C6AA /au·bohr⁶  :      21784.501174
 Mol. C8AA /au·bohr⁸  :     454185.591939
 Mol. α(0) /au        :        220.510375


Wiberg/Mayer (AO) data.
largest (>0.10) Wiberg bond orders for each atom

 ---------------------------------------------------------------------------
     #   Z sym  total        # sym  WBO       # sym  WBO       # sym  WBO
 ---------------------------------------------------------------------------
     1   8 O    1.957 --     2 C    0.998    21 H    0.893
     2   6 C    3.958 --     5 C    1.007     1 O    0.998     4 H    0.966
                             3 H    0.965
     3   1 H    0.998 --     2 C    0.965
     4   1 H    0.997 --     2 C    0.966
     5   6 C    3.940 --     2 C    1.007     6 H    0.968     7 H    0.945
                             8 N    0.942
     6   1 H    0.993 --     5 C    0.968
     7   1 H    0.984 --     5 C    0.945
     8   7 N    3.824 --    17 C    0.957    13 C    0.955     9 C    0.953
                             5 C    0.942
     9   6 C    3.915 --    12 H    0.979    10 H    0.965    11 H    0.961
                             8 N    0.953
    10   1 H    0.986 --     9 C    0.965
    11   1 H    0.984 --     9 C    0.961
    12   1 H    0.994 --     9 C    0.979
    13   6 C    3.917 --    14 H    0.976    16 H    0.965    15 H    0.963
                             8 N    0.955
    14   1 H    0.992 --    13 C    0.976
    15   1 H    0.985 --    13 C    0.963
    16   1 H    0.986 --    13 C    0.965
    17   6 C    3.923 --    19 H    0.979    18 H    0.966    20 H    0.963
                             8 N    0.957
    18   1 H    0.987 --    17 C    0.966
    19   1 H    0.994 --    17 C    0.979
    20   1 H    0.987 --    17 C    0.963
    21   1 H    0.909 --     1 O    0.893
    22   6 C    3.959 --    23 O    1.507    27 N    1.239    24 N    1.204
    23   8 O    1.871 --    22 C    1.507    27 N    0.144    24 N    0.137
    24   7 N    3.321 --    22 C    1.204    26 H    0.948    25 H    0.944
                            23 O    0.137
    25   1 H    0.961 --    24 N    0.944
    26   1 H    0.966 --    24 N    0.948
    27   7 N    3.333 --    22 C    1.239    28 H    0.949    29 H    0.894
                            23 O    0.144
    28   1 H    0.968 --    27 N    0.949
    29   1 H    0.943 --    27 N    0.894
    30   6 C    3.959 --    31 O    1.480    35 N    1.270    32 N    1.198
    31   8 O    1.950 --    30 C    1.480    35 N    0.141    32 N    0.126
    32   7 N    3.307 --    30 C    1.198    34 H    0.947    33 H    0.942
                            31 O    0.126
    33   1 H    0.960 --    32 N    0.942
    34   1 H    0.966 --    32 N    0.947
    35   7 N    3.341 --    30 C    1.270    36 H    0.927    37 H    0.867
                            31 O    0.141
    36   1 H    0.960 --    35 N    0.927
    37   1 H    0.942 --    35 N    0.867
    38   6 C    3.959 --    39 O    1.519    43 N    1.244    40 N    1.187
    39   8 O    1.878 --    38 C    1.519    43 N    0.147    40 N    0.135
    40   7 N    3.301 --    38 C    1.187    42 H    0.948    41 H    0.947
                            39 O    0.135
    41   1 H    0.964 --    40 N    0.947
    42   1 H    0.967 --    40 N    0.948
    43   7 N    3.326 --    38 C    1.244    44 H    0.949    45 H    0.868
                            39 O    0.147
    44   1 H    0.969 --    43 N    0.949
    45   1 H    0.942 --    43 N    0.868
    46   6 C    3.960 --    47 O    1.475    48 N    1.271    51 N    1.203
    47   8 O    1.909 --    46 C    1.475    48 N    0.145    51 N    0.128
    48   7 N    3.353 --    46 C    1.271    50 H    0.948    49 H    0.862
                            47 O    0.145
    49   1 H    0.938 --    48 N    0.862
    50   1 H    0.968 --    48 N    0.948
    51   7 N    3.318 --    46 C    1.203    52 H    0.947    53 H    0.944
                            47 O    0.128
    52   1 H    0.966 --    51 N    0.947
    53   1 H    0.961 --    51 N    0.944
 ---------------------------------------------------------------------------

Topologies differ in total number of bonds
Writing topology from bond orders to xtbtopo.mol

molecular dipole:
                 x           y           z       tot (Debye)
 q only:        0.335      -1.111      -0.472
   full:        0.134      -0.905      -0.254       2.413
molecular quadrupole (traceless):
                xx          xy          yy          xz          yz          zz
 q only:       17.303      13.645     -18.285       3.642      11.452       0.983
  q+dip:       22.939      18.874     -23.991       6.462      13.295       1.053
   full:       22.478      18.559     -23.607       6.201      13.745       1.129

           -------------------------------------------------
          |               Frequency Printout                |
           -------------------------------------------------
 projected vibrational frequencies (cm⁻¹)
eigval :       -0.00    -0.00     0.00     0.00     0.00     0.00
eigval :       15.43    19.49    27.30    34.82    36.30    41.10
eigval :       42.69    44.90    48.88    52.56    56.54    63.88
eigval :       69.97    76.50    86.44    97.38   101.57   104.19
eigval :      111.93   120.63   129.51   144.93   172.95   183.04
eigval :      193.56   211.18   213.83   220.84   270.77   289.19
eigval :      304.94   310.79   313.01   346.55   373.09   388.26
eigval :      398.15   407.72   422.57   424.36   440.43   458.50
eigval :      460.27   460.99   467.40   469.96   473.57   476.95
eigval :      482.01   483.60   499.42   500.79   538.51   545.50
eigval :      556.35   558.49   579.30   663.92   670.59   674.35
eigval :      676.13   676.99   725.03   761.92   768.69   785.54
eigval :      890.99   926.08   960.52   964.66   969.90   990.13
eigval :     1003.61  1010.21  1011.43  1015.36  1019.33  1022.15
eigval :     1029.25  1037.35  1051.77  1087.58  1087.75  1091.44
eigval :     1093.73  1098.95  1120.23  1130.73  1185.12  1209.09
eigval :     1246.75  1255.40  1281.20  1319.40  1349.58  1355.64
eigval :     1360.96  1367.61  1372.20  1390.21  1399.37  1405.94
eigval :     1414.09  1431.85  1440.92  1447.52  1451.01  1455.97
eigval :     1457.31  1459.67  1467.65  1469.16  1474.67  1482.17
eigval :     1495.88  1501.29  1505.07  1513.20  1515.63  1653.00
eigval :     1695.56  1701.53  1717.84  2898.73  2927.70  2978.27
eigval :     3000.87  3037.59  3039.57  3043.61  3046.96  3048.28
eigval :     3052.48  3064.16  3067.37  3074.04  3143.96  3197.33
eigval :     3237.97  3374.11  3471.46  3489.33  3496.64  3502.44
eigval :     3502.71  3524.06  3530.90  3536.52  3553.28  3561.75
eigval :     3569.04  3569.18  3573.25
 reduced masses (amu)
   1: 12.51   2: 12.60   3: 12.61   4: 12.72   5: 12.57   6: 12.56   7: 12.67   8: 12.62
   9: 12.44  10: 11.37  11: 12.46  12: 12.66  13: 12.24  14: 12.21  15: 12.16  16: 12.04
  17: 12.80  18: 13.70  19: 12.41  20: 11.22  21: 12.55  22: 11.61  23: 12.37  24: 12.60
  25: 13.88  26: 13.55  27: 12.64  28: 12.60  29: 12.70  30: 12.37  31:  9.31  32: 11.59
  33:  2.47  34:  3.92  35:  6.16  36:  6.94  37:  2.72  38:  6.36  39:  2.99  40:  3.69
  41:  6.24  42:  2.55  43:  3.09  44:  3.07  45:  3.78  46:  7.13  47:  3.00  48:  7.91
  49:  4.73  50:  5.14  51:  5.02  52:  3.07  53:  6.83  54:  6.08  55:  8.23  56:  2.93
  57:  4.10  58:  8.33  59: 11.25  60: 11.19  61:  8.59  62: 11.49  63: 11.80  64:  9.27
  65: 11.35  66:  5.51  67: 10.74  68: 11.47  69:  2.30  70:  2.14  71:  9.16  72:  2.61
  73:  6.44  74:  8.63  75:  5.04  76:  4.90  77:  4.87  78:  4.64  79:  7.68  80:  9.07
  81:  9.31  82:  8.08  83:  9.20  84:  7.00  85: 10.03  86:  2.92  87:  4.88  88:  8.78
  89:  8.84  90:  6.46  91:  8.20  92:  7.54  93:  6.33  94:  7.31  95:  3.60  96:  2.67
  97:  6.92  98:  5.09  99:  8.31 100:  6.00 101:  3.96 102:  5.31 103:  5.82 104:  5.25
 105:  4.85 106:  4.67 107:  2.75 108:  2.74 109:  2.05 110:  2.53 111:  1.77 112:  1.66
 113:  3.11 114:  1.68 115:  3.11 116:  3.07 117:  2.36 118:  1.99 119:  2.01 120:  1.86
 121:  1.75 122:  8.00 123:  8.15 124:  8.72 125:  9.37 126: 12.47 127: 12.64 128: 12.70
 129: 12.69 130:  1.97 131:  1.46 132:  1.68 133:  1.83 134:  1.70 135:  1.68 136:  1.48
 137:  1.83 138:  1.80 139:  1.76 140:  1.95 141:  1.65 142:  1.75 143:  1.82 144:  1.80
 145:  1.80 146:  1.69 147:  1.87 148:  1.46 149:  1.46 150:  1.45 151:  1.45 152:  1.90
 153:  1.96 154:  1.89 155:  2.18 156:  2.17 157:  2.18 158:  2.18 159:  1.88
 IR intensities (km·mol⁻¹)
   1:  0.36   2:  0.74   3:  2.48   4:  2.28   5:  0.13   6:  2.76   7:  0.15   8:  0.41
   9:  0.86  10:  2.03  11:  1.90  12:  0.98  13:  0.12  14:  2.92  15:  2.11  16:  1.95
  17:  5.17  18:  7.43  19:  1.79  20:  1.21  21:  0.46  22:  2.01  23: 16.36  24: 13.65
  25: 11.48  26:  4.44  27:  6.93  28: 18.45  29:  5.80  30: 30.31  31:  8.78  32: 33.17
  33:111.59  34:212.06  35: 10.92  36: 10.41  37: 58.18  38:  2.30  39:280.43  40:  0.84
  41: 10.19  42: 17.19  43: 65.37  44:219.28  45:175.17  46: 24.76  47:321.23  48: 31.56
  49: 17.24  50: 20.19  51:  4.08  52: 19.27  53: 15.90  54: 46.73  55: 35.53  56:  2.47
  57: 85.14  58: 53.55  59: 15.79  60: 12.57  61: 14.85  62: 10.74  63: 55.80  64: 29.44
  65: 23.77  66:119.36  67:  2.24  68: 50.62  69: 16.29  70: 63.92  71:  1.57  72:800.70
  73:  4.84  74:  8.26  75:  1.72  76:  4.66  77:  0.43  78:  8.42  79: 26.06  80:  7.42
  81: 14.48  82: 20.94  83:  8.27  84: 24.89  85:  1.79  86:  0.07  87:  0.43  88:  8.93
  89:  0.40  90: 28.60  91:  0.87  92:  7.54  93: 19.17  94: 36.89  95:  1.13  96: 44.06
  97: 41.18  98: 19.37  99: 13.96 100:  1.07 101: 31.01 102:189.82 103:197.03 104: 43.88
 105: 18.78 106:  1.55 107: 23.14 108: 19.20 109:  6.38 110: 11.64 111:  1.06 112:  6.16
 113:  6.45 114:  1.50 115: 22.93 116:  6.54 117: 24.15 118: 11.84 119:  1.47 120: 31.04
 121:  2.74 122:571.38 123:411.53 124:730.48 125:379.57 126:125.75 127:498.20 128:******
 129:****** 130: 27.63 131: 32.23 132: 52.32 133:  9.02 134:  2.37 135:  7.43 136: 14.77
 137: 14.47 138:  1.21 139: 13.31 140:  5.61 141: 18.71 142:  4.03 143:594.48 144:******
 145:****** 146:585.65 147: 91.98 148: 17.95 149: 12.67 150: 17.06 151: 16.35 152: 12.58
 153: 21.57 154: 14.72 155: 13.87 156:  7.10 157: 12.39 158: 12.66 159: 24.62
 Raman intensities (amu)
Molecule has no symmetry elements
It seems to be the C1 point group
   1:  0.00   2:  0.00   3:  0.00   4:  0.00   5:  0.00   6:  0.00   7:  0.00   8:  0.00
   9:  0.00  10:  0.00  11:  0.00  12:  0.00  13:  0.00  14:  0.00  15:  0.00  16:  0.00
  17:  0.00  18:  0.00  19:  0.00  20:  0.00  21:  0.00  22:  0.00  23:  0.00  24:  0.00
  25:  0.00  26:  0.00  27:  0.00  28:  0.00  29:  0.00  30:  0.00  31:  0.00  32:  0.00
  33:  0.00  34:  0.00  35:  0.00  36:  0.00  37:  0.00  38:  0.00  39:  0.00  40:  0.00
  41:  0.00  42:  0.00  43:  0.00  44:  0.00  45:  0.00  46:  0.00  47:  0.00  48:  0.00
  49:  0.00  50:  0.00  51:  0.00  52:  0.00  53:  0.00  54:  0.00  55:  0.00  56:  0.00
  57:  0.00  58:  0.00  59:  0.00  60:  0.00  61:  0.00  62:  0.00  63:  0.00  64:  0.00
  65:  0.00  66:  0.00  67:  0.00  68:  0.00  69:  0.00  70:  0.00  71:  0.00  72:  0.00
  73:  0.00  74:  0.00  75:  0.00  76:  0.00  77:  0.00  78:  0.00  79:  0.00  80:  0.00
  81:  0.00  82:  0.00  83:  0.00  84:  0.00  85:  0.00  86:  0.00  87:  0.00  88:  0.00
  89:  0.00  90:  0.00  91:  0.00  92:  0.00  93:  0.00  94:  0.00  95:  0.00  96:  0.00
  97:  0.00  98:  0.00  99:  0.00 100:  0.00 101:  0.00 102:  0.00 103:  0.00 104:  0.00
 105:  0.00 106:  0.00 107:  0.00 108:  0.00 109:  0.00 110:  0.00 111:  0.00 112:  0.00
 113:  0.00 114:  0.00 115:  0.00 116:  0.00 117:  0.00 118:  0.00 119:  0.00 120:  0.00
 121:  0.00 122:  0.00 123:  0.00 124:  0.00 125:  0.00 126:  0.00 127:  0.00 128:  0.00
 129:  0.00 130:  0.00 131:  0.00 132:  0.00 133:  0.00 134:  0.00 135:  0.00 136:  0.00
 137:  0.00 138:  0.00 139:  0.00 140:  0.00 141:  0.00 142:  0.00 143:  0.00 144:  0.00
 145:  0.00 146:  0.00 147:  0.00 148:  0.00 149:  0.00 150:  0.00 151:  0.00 152:  0.00
 153:  0.00 154:  0.00 155:  0.00 156:  0.00 157:  0.00 158:  0.00 159:  0.00
 output can be read by thermo (or use thermo option).
 writing <g98.out> molden fake output.
 recommended (thermochemical) frequency scaling factor: 1.0
           -------------------------------------------------
          |             Thermodynamic Functions             |
           -------------------------------------------------

c1  symmetry found (for desy threshold:  0.10E+00) used in thermo

          ...................................................
          :                      SETUP                      :
          :.................................................:
          :  # frequencies                         153      :
          :  # imaginary freq.                       0      :
          :  linear?                             false      :
          :  only rotor calc.                    false      :
          :  symmetry                               c1      :
          :  rotational number                       1      :
          :  scaling factor                  1.0000000      :
          :  rotor cutoff                   50.0000000 cm⁻¹ :
          :  imag. cutoff                  -20.0000000 cm⁻¹ :
          :.................................................:

    mode    ω/cm⁻¹     T·S(HO)/kcal·mol⁻¹    T·S(FR)/kcal·mol⁻¹   T·S(vib)
   ------------------------------------------------------------------------
       1     15.43    -2.13174 (  0.90%)    -1.40481 ( 99.10%)    -1.41134
       2     19.49    -1.99333 (  2.26%)    -1.33559 ( 97.74%)    -1.35043
       3     27.30    -1.79379 (  8.16%)    -1.23574 ( 91.84%)    -1.28130
       4     34.82    -1.64993 ( 19.04%)    -1.16369 ( 80.96%)    -1.25628
       5     36.30    -1.62541 ( 21.73%)    -1.15140 ( 78.27%)    -1.25442
       6     41.10    -1.55195 ( 31.35%)    -1.11457 ( 68.65%)    -1.25168
       7     42.69    -1.52955 ( 34.70%)    -1.10333 ( 65.30%)    -1.25124
       8     44.90    -1.49982 ( 39.40%)    -1.08841 ( 60.60%)    -1.25049
       9     48.88    -1.44969 ( 47.73%)    -1.06324 ( 52.27%)    -1.24770
      10     52.56    -1.40685 ( 54.98%)    -1.04172 ( 45.02%)    -1.24247
      11     56.54    -1.36386 ( 62.05%)    -1.02010 ( 37.95%)    -1.23341
      12     63.88    -1.29206 ( 72.71%)    -0.98395 ( 27.29%)    -1.20797
      13     69.97    -1.23855 ( 79.32%)    -0.95697 ( 20.68%)    -1.18032
      14     76.50    -1.18624 ( 84.57%)    -0.93054 ( 15.43%)    -1.14679
      15     86.44    -1.11479 ( 89.93%)    -0.89435 ( 10.07%)    -1.09260
      16     97.38    -1.04535 ( 93.50%)    -0.85906 (  6.50%)    -1.03324
      17    101.57    -1.02087 ( 94.45%)    -0.84659 (  5.55%)    -1.01120
      18    104.19    -1.00607 ( 94.96%)    -0.83903 (  5.04%)    -0.99765
      19    111.93    -0.96457 ( 96.17%)    -0.81781 (  3.83%)    -0.95895
      20    120.63    -0.92137 ( 97.13%)    -0.79564 (  2.87%)    -0.91776
      21    129.51    -0.88054 ( 97.83%)    -0.77460 (  2.17%)    -0.87824
      22    144.93    -0.81625 ( 98.60%)    -0.74126 (  1.40%)    -0.81520
      23    172.95    -0.71651 ( 99.31%)    -0.68891 (  0.69%)    -0.71632
      24    183.04    -0.68492 ( 99.45%)    -0.67212 (  0.55%)    -0.68485
      25    193.56    -0.65397 ( 99.56%)    -0.65556 (  0.44%)    -0.65398
      26    211.18    -0.60628 ( 99.69%)    -0.62975 (  0.31%)    -0.60635
      27    213.83    -0.59949 ( 99.70%)    -0.62605 (  0.30%)    -0.59957
      28    220.84    -0.58204 ( 99.74%)    -0.61650 (  0.26%)    -0.58214
      29    270.77    -0.47445 ( 99.88%)    -0.55612 (  0.12%)    -0.47454
      30    289.19    -0.44087 ( 99.91%)    -0.53662 (  0.09%)    -0.44096
   ------------------------------------------------------------------------

   temp. (K)  partition function   enthalpy   heat capacity  entropy
                                   cal/mol     cal/K/mol   cal/K/mol   J/K/mol
 298.15  VIB  0.681E+17            19518.869    104.280    128.368
         ROT  0.127E+08              888.752      2.981     35.483
         INT  0.863E+24            20407.622    107.261    163.850
         TR   0.618E+28             1481.254      4.968     43.384
         TOT                       21888.8756   112.2292   207.2348   867.0704

       T/K    H(0)-H(T)+PV         H(T)/Eh          T*S/Eh         G(T)/Eh
   ------------------------------------------------------------------------
    298.15    0.348821E-01    0.474120E+00    0.984639E-01    0.375656E+00
   ------------------------------------------------------------------------

         :::::::::::::::::::::::::::::::::::::::::::::::::::::
         ::                  THERMODYNAMIC                  ::
         :::::::::::::::::::::::::::::::::::::::::::::::::::::
         :: total free energy         -80.557112136558 Eh   ::
         ::.................................................::
         :: total energy              -80.932768063141 Eh   ::
         :: zero point energy           0.439237722581 Eh   ::
         :: G(RRHO) w/o ZPVE           -0.063581795998 Eh   ::
         :: G(RRHO) contrib.            0.375655926583 Eh   ::
         :::::::::::::::::::::::::::::::::::::::::::::::::::::

           -------------------------------------------------
          | TOTAL ENERGY              -80.932768063141 Eh   |
          | TOTAL ENTHALPY            -80.458648196933 Eh   |
          | TOTAL FREE ENERGY         -80.557112136558 Eh   |
          | GRADIENT NORM               0.000045443086 Eh/α |
          | HOMO-LUMO GAP               5.914130745490 eV   |
           -------------------------------------------------

------------------------------------------------------------------------
 * finished run on 2024/01/10 at 15:39:38.488     
------------------------------------------------------------------------
 total:
 * wall-time:     0 d,  0 h,  0 min, 14.767 sec
 *  cpu-time:     0 d,  0 h,  0 min, 14.617 sec
 * ratio c/w:     0.990 speedup
 SCF:
 * wall-time:     0 d,  0 h,  0 min,  0.097 sec
 *  cpu-time:     0 d,  0 h,  0 min,  0.057 sec
 * ratio c/w:     0.593 speedup
 analytical hessian:
 * wall-time:     0 d,  0 h,  0 min, 14.644 sec
 *  cpu-time:     0 d,  0 h,  0 min, 14.533 sec
 * ratio c/w:     0.992 speedup

