      -----------------------------------------------------------      
     |                   =====================                   |     
     |                           x T B                           |     
     |                   =====================                   |     
     |                         S. Grimme                         |     
     |          Mulliken Center for Theoretical Chemistry        |     
     |                    University of Bonn                     |     
      -----------------------------------------------------------      

   * xtb version 6.6.1 (unknown-commit) compiled by '@Linux' on 12/27/2023

   xtb is free software: you can redistribute it and/or modify it under
   the terms of the GNU Lesser General Public License as published by
   the Free Software Foundation, either version 3 of the License, or
   (at your option) any later version.
   
   xtb is distributed in the hope that it will be useful,
   but WITHOUT ANY WARRANTY; without even the implied warranty of
   MERCHANTABILITY or FITNESS FOR A PARTICULAR PURPOSE.  See the
   GNU Lesser General Public License for more details.
   
   Cite this work as:
   * C. Bannwarth, E. Caldeweyher, S. Ehlert, A. Hansen, P. Pracht,
     J. Seibert, S. Spicher, S. Grimme, WIREs Comput. Mol. Sci., 2020, 11,
     e01493. DOI: 10.1002/wcms.1493
   
   for GFN2-xTB:
   * C. Bannwarth, S. Ehlert and S. Grimme., J. Chem. Theory Comput., 2019,
     15, 1652-1671. DOI: 10.1021/acs.jctc.8b01176
   for GFN1-xTB:
   * S. Grimme, C. Bannwarth, P. Shushkov, J. Chem. Theory Comput., 2017,
     13, 1989-2009. DOI: 10.1021/acs.jctc.7b00118
   for GFN0-xTB:
   * P. Pracht, E. Caldeweyher, S. Ehlert, S. Grimme, ChemRxiv, 2019, preprint.
     DOI: 10.26434/chemrxiv.8326202.v1
   for GFN-FF:
   * S. Spicher and S. Grimme, Angew. Chem. Int. Ed., 2020, 59, 15665-15673.
     DOI: 10.1002/anie.202004239
   
   for ALPB and GBSA implicit solvation:
   * S. Ehlert, M. Stahn, S. Spicher, S. Grimme, J. Chem. Theory Comput.,
     2021, 17, 4250-4261. DOI: 10.1021/acs.jctc.1c00471
   
   for DFT-D4:
   * E. Caldeweyher, C. Bannwarth and S. Grimme, J. Chem. Phys., 2017,
     147, 034112. DOI: 10.1063/1.4993215
   * E. Caldeweyher, S. Ehlert, A. Hansen, H. Neugebauer, S. Spicher,
     C. Bannwarth and S. Grimme, J. Chem. Phys., 2019, 150, 154122.
     DOI: 10.1063/1.5090222
   * E. Caldeweyher, J.-M. Mewes, S. Ehlert and S. Grimme, Phys. Chem. Chem. Phys.
     2020, 22, 8499-8512. DOI: 10.1039/D0CP00502A
   
   for sTDA-xTB:
   * S. Grimme and C. Bannwarth, J. Chem. Phys., 2016, 145, 054103.
     DOI: 10.1063/1.4959605
   
   in the mass-spec context:
   * V. Asgeirsson, C. Bauer and S. Grimme, Chem. Sci., 2017, 8, 4879.
     DOI: 10.1039/c7sc00601b
   * J. Koopman and S. Grimme, ACS Omega 2019, 4, 12, 15120-15133.
     DOI: 10.1021/acsomega.9b02011
   
   for metadynamics refer to:
   * S. Grimme, J. Chem. Theory Comput., 2019, 155, 2847-2862
     DOI: 10.1021/acs.jctc.9b00143
   
   for SPH calculations refer to:
   * S. Spicher and S. Grimme, J. Chem. Theory Comput., 2021, 17, 1701-1714
     DOI: 10.1021/acs.jctc.0c01306
   
   with help from (in alphabetical order)
   P. Atkinson, C. Bannwarth, F. Bohle, G. Brandenburg, E. Caldeweyher
   M. Checinski, S. Dohm, S. Ehlert, S. Ehrlich, I. Gerasimov, C. Hölzer
   A. Katbashev, J. Koopman, C. Lavigne, S. Lehtola, F. März, M. Müller,
   F. Musil, H. Neugebauer, J. Pisarek, C. Plett, P. Pracht, F. Pultar,
   J. Seibert, P. Shushkov, S. Spicher, M. Stahn, M. Steiner, T. Strunk,
   J. Stückrath, T. Rose, and J. Unsleber
   
 * started run on 2024/01/10 at 18:24:58.147     

           -------------------------------------------------
          |                Calculation Setup                |
           -------------------------------------------------

          program call               : xtb struc.xyz --gfn2 --hess
          hostname                   : swaroop
          coordinate file            : struc.xyz
          omp threads                :                     1

   ID    Z sym.   atoms
    1    8 O      1, 23, 31, 39, 47
    2    6 C      2, 5, 9, 13, 17, 22, 30, 38, 46
    3    1 H      3, 4, 6, 7, 10-12, 14-16, 18-21, 25, 26, 28, 29, 33, 34,
                  36, 37, 41, 42, 44, 45, 49, 50, 52, 53
    4    7 N      8, 24, 27, 32, 35, 40, 43, 48, 51

molecular fragmentation (1/2 indicates fragments):
11111111111111111111122222222222222222222222222222222
# atoms in fragment 1/2:    21    32
 fragment masses (1/2) :      104.17      240.22
CMA distance (Bohr)    :   6.476
constraining FC (au)   :  0.0500

           -------------------------------------------------
          |                 G F N 2 - x T B                 |
           -------------------------------------------------

        Reference                      10.1021/acs.jctc.8b01176
      * Hamiltonian:
        H0-scaling (s, p, d)           1.850000    2.230000    2.230000
        zeta-weighting                 0.500000
      * Dispersion:
        s8                             2.700000
        a1                             0.520000
        a2                             5.000000
        s9                             5.000000
      * Repulsion:
        kExp                           1.500000    1.000000
        rExp                           1.000000
      * Coulomb:
        alpha                          2.000000
        third order                    shell-resolved
        anisotropic                    true
        a3                             3.000000
        a5                             4.000000
        cn-shift                       1.200000
        cn-exp                         4.000000
        max-rad                        5.000000


          ...................................................
          :                      SETUP                      :
          :.................................................:
          :  # basis functions                 122          :
          :  # atomic orbitals                 122          :
          :  # shells                           76          :
          :  # electrons                       140          :
          :  max. iterations                   250          :
          :  Hamiltonian                  GFN2-xTB          :
          :  restarted?                      false          :
          :  GBSA solvation                  false          :
          :  PC potential                    false          :
          :  electronic temp.          300.0000000     K    :
          :  accuracy                    1.0000000          :
          :  -> integral cutoff          0.2500000E+02      :
          :  -> integral neglect         0.1000000E-07      :
          :  -> SCF convergence          0.1000000E-05 Eh   :
          :  -> wf. convergence          0.1000000E-03 e    :
          :  Broyden damping             0.4000000          :
          ...................................................

 iter      E             dE          RMSdq      gap      omega  full diag
   1    -81.5537934 -0.815538E+02  0.429E+00    4.98       0.0  T
   2    -81.8401057 -0.286312E+00  0.234E+00    5.97       1.0  T
   3    -81.8459815 -0.587582E-02  0.115E+00    5.68       1.0  T
   4    -81.8473268 -0.134537E-02  0.246E-01    5.75       1.0  T
   5    -81.8482950 -0.968113E-03  0.918E-02    5.67       1.0  T
   6    -81.8483200 -0.250665E-04  0.277E-02    5.69       1.0  T
   7    -81.8483247 -0.470487E-05  0.779E-03    5.69       1.8  T
   8    -81.8483250 -0.304726E-06  0.301E-03    5.69       4.6  T
   9    -81.8483251 -0.407121E-07  0.117E-03    5.69      11.8  T
  10    -81.8483251 -0.765013E-08  0.221E-04    5.69      62.0  T
  11    -81.8483251 -0.548212E-09  0.901E-05    5.69     152.4  T

   *** convergence criteria satisfied after 11 iterations ***

         #    Occupation            Energy/Eh            Energy/eV
      -------------------------------------------------------------
         1        2.0000           -0.7945981             -21.6221
       ...           ...                  ...                  ...
        64        2.0000           -0.4985476             -13.5662
        65        2.0000           -0.4966114             -13.5135
        66        2.0000           -0.4928725             -13.4117
        67        2.0000           -0.4919381             -13.3863
        68        2.0000           -0.4903647             -13.3435
        69        2.0000           -0.4836190             -13.1599
        70        2.0000           -0.4799316             -13.0596 (HOMO)
        71                         -0.2708625              -7.3705 (LUMO)
        72                         -0.2694506              -7.3321
        73                         -0.2646299              -7.2009
        74                         -0.2564971              -6.9796
        75                         -0.1505028              -4.0954
       ...                                ...                  ...
       122                          0.5563302              15.1385
      -------------------------------------------------------------
                  HL-Gap            0.2090692 Eh            5.6891 eV
             Fermi-level           -0.3753971 Eh          -10.2151 eV

 SCC (total)                   0 d,  0 h,  0 min,  0.105 sec
 SCC setup                      ...        0 min,  0.000 sec (  0.276%)
 Dispersion                     ...        0 min,  0.001 sec (  0.566%)
 classical contributions        ...        0 min,  0.000 sec (  0.173%)
 integral evaluation            ...        0 min,  0.008 sec (  7.461%)
 iterations                     ...        0 min,  0.064 sec ( 61.565%)
 molecular gradient             ...        0 min,  0.031 sec ( 29.690%)
 printout                       ...        0 min,  0.000 sec (  0.252%)

         :::::::::::::::::::::::::::::::::::::::::::::::::::::
         ::                     SUMMARY                     ::
         :::::::::::::::::::::::::::::::::::::::::::::::::::::
         :: total energy             -80.935670233914 Eh    ::
         :: gradient norm              0.000049615541 Eh/a0 ::
         :: HOMO-LUMO gap              5.689061631430 eV    ::
         ::.................................................::
         :: SCC energy               -81.848325081944 Eh    ::
         :: -> isotropic ES            0.294630024755 Eh    ::
         :: -> anisotropic ES         -0.029585821804 Eh    ::
         :: -> anisotropic XC          0.020863790602 Eh    ::
         :: -> dispersion             -0.044413665895 Eh    ::
         :: repulsion energy           0.911502301696 Eh    ::
         :: add. restraining           0.000000000000 Eh    ::
         :: total charge               1.000000000000 e     ::
         :::::::::::::::::::::::::::::::::::::::::::::::::::::

           ------------------------------------------------- 
          |                Numerical Hessian                |
           ------------------------------------------------- 
step length          :   0.00500
SCC accuracy         :   0.30000
Hessian scale factor :   1.00000
frozen atoms in %    :   0.00000    0
RMS gradient         :   0.00005
estimated CPU  time      0.24 min
estimated wall time      0.24 min

writing file <hessian>.

 projected vibrational frequencies (cm⁻¹)
eigval :       -0.00    -0.00     0.00     0.00     0.00     0.00
eigval :        3.83    13.17    17.70    27.07    33.21    40.00
eigval :       45.78    50.53    54.17    57.01    63.06    72.80
eigval :       76.50    88.64   103.51   103.90   111.05   115.75
eigval :      116.79   126.18   134.15   139.48   152.58   170.51
eigval :      188.42   190.73   232.42   256.32   263.08   303.74
eigval :      312.12   316.53   338.11   359.20   374.64   375.15
eigval :      399.86   428.15   429.64   444.84   456.14   460.52
eigval :      460.78   462.46   467.88   472.79   479.03   491.98
eigval :      494.06   496.72   505.27   506.89   529.04   546.57
eigval :      554.79   555.72   581.70   649.85   662.37   674.24
eigval :      675.14   690.21   719.69   752.30   765.36   785.40
eigval :      914.14   923.47   944.26   963.48   983.01   994.00
eigval :      995.03   999.00  1012.45  1017.65  1020.57  1025.97
eigval :     1028.78  1038.32  1042.75  1080.49  1086.30  1090.79
eigval :     1095.65  1109.60  1114.48  1130.28  1175.43  1230.54
eigval :     1249.44  1274.46  1322.76  1333.54  1350.25  1352.60
eigval :     1355.38  1358.00  1377.69  1402.03  1404.49  1411.78
eigval :     1416.04  1436.10  1441.08  1447.16  1452.85  1454.50
eigval :     1456.01  1459.00  1466.19  1469.67  1470.61  1481.03
eigval :     1489.33  1498.23  1501.44  1515.52  1517.64  1656.49
eigval :     1686.09  1714.56  1725.06  2903.76  2964.82  2978.12
eigval :     3007.94  3032.07  3034.62  3040.08  3042.74  3043.16
eigval :     3048.47  3051.31  3055.71  3060.28  3093.60  3176.26
eigval :     3245.55  3333.61  3482.11  3484.81  3499.62  3501.27
eigval :     3505.76  3514.59  3531.13  3534.34  3548.84  3552.00
eigval :     3566.03  3566.80  3571.51
           -------------------------------------------------
          |                Property Printout                |
           -------------------------------------------------

    * Orbital Energies and Occupations

         #    Occupation            Energy/Eh            Energy/eV
      -------------------------------------------------------------
         1        2.0000           -0.7945979             -21.6221
       ...           ...                  ...                  ...
        58        2.0000           -0.5073493             -13.8057
        59        2.0000           -0.5073157             -13.8048
        60        2.0000           -0.5040883             -13.7169
        61        2.0000           -0.5017893             -13.6544
        62        2.0000           -0.5001702             -13.6103
        63        2.0000           -0.4997276             -13.5983
        64        2.0000           -0.4985477             -13.5662
        65        2.0000           -0.4966101             -13.5134
        66        2.0000           -0.4928729             -13.4118
        67        2.0000           -0.4919388             -13.3863
        68        2.0000           -0.4903653             -13.3435
        69        2.0000           -0.4836197             -13.1600
        70        2.0000           -0.4799325             -13.0596 (HOMO)
        71                         -0.2708623              -7.3705 (LUMO)
        72                         -0.2694513              -7.3321
        73                         -0.2646307              -7.2010
        74                         -0.2564973              -6.9796
        75                         -0.1505025              -4.0954
        76                         -0.1015939              -2.7645
        77                         -0.0998809              -2.7179
        78                         -0.0846797              -2.3043
        79                         -0.0756195              -2.0577
        80                         -0.0726631              -1.9773
        81                         -0.0674313              -1.8349
       ...                                ...                  ...
       122                          0.5563300              15.1385
      -------------------------------------------------------------
                  HL-Gap            0.2090701 Eh            5.6891 eV
             Fermi-level           -0.3753974 Eh          -10.2151 eV

     #   Z          covCN         q      C6AA      α(0)
     1   8 O        1.653    -0.480    22.473     6.399
     2   6 C        3.673     0.076    19.544     6.336
     3   1 H        0.924     0.052     2.293     2.368
     4   1 H        0.924     0.042     2.416     2.431
     5   6 C        3.768    -0.073    21.938     6.675
     6   1 H        0.924     0.117     1.642     2.004
     7   1 H        0.924     0.105     1.742     2.064
     8   7 N        3.623     0.159    18.564     6.399
     9   6 C        3.722    -0.109    22.704     6.805
    10   1 H        0.925     0.123     1.586     1.969
    11   1 H        0.925     0.076     2.023     2.224
    12   1 H        0.925     0.106     1.732     2.058
    13   6 C        3.737    -0.117    22.828     6.818
    14   1 H        0.925     0.124     1.580     1.965
    15   1 H        0.925     0.113     1.670     2.021
    16   1 H        0.925     0.081     1.974     2.197
    17   6 C        3.722    -0.105    22.630     6.794
    18   1 H        0.925     0.120     1.610     1.984
    19   1 H        0.925     0.089     1.892     2.151
    20   1 H        0.925     0.083     1.952     2.185
    21   1 H        0.802     0.334     0.627     1.244
    22   6 C        2.675     0.342    21.186     7.532
    23   8 O        0.860    -0.528    24.422     6.626
    24   7 N        2.644    -0.298    27.687     7.815
    25   1 H        0.860     0.212     1.049     1.604
    26   1 H        0.860     0.184     1.192     1.710
    27   7 N        2.644    -0.301    27.755     7.824
    28   1 H        0.861     0.183     1.199     1.715
    29   1 H        0.859     0.246     0.899     1.485
    30   6 C        2.675     0.346    21.127     7.521
    31   8 O        0.860    -0.524    24.318     6.612
    32   7 N        2.646    -0.289    27.447     7.781
    33   1 H        0.860     0.200     1.107     1.648
    34   1 H        0.861     0.187     1.176     1.699
    35   7 N        2.646    -0.288    27.435     7.779
    36   1 H        0.861     0.187     1.175     1.698
    37   1 H        0.860     0.200     1.108     1.649
    38   6 C        2.675     0.342    21.195     7.534
    39   8 O        0.861    -0.526    24.360     6.617
    40   7 N        2.643    -0.307    27.915     7.847
    41   1 H        0.860     0.240     0.923     1.505
    42   1 H        0.861     0.179     1.220     1.731
    43   7 N        2.644    -0.283    27.316     7.762
    44   1 H        0.861     0.186     1.180     1.702
    45   1 H        0.860     0.205     1.080     1.628
    46   6 C        2.675     0.344    21.150     7.525
    47   8 O        0.860    -0.536    24.602     6.650
    48   7 N        2.646    -0.301    27.752     7.824
    49   1 H        0.860     0.192     1.148     1.678
    50   1 H        0.860     0.194     1.139     1.672
    51   7 N        2.645    -0.311    28.008     7.860
    52   1 H        0.860     0.222     1.002     1.568
    53   1 H        0.860     0.190     1.157     1.685

 Mol. C6AA /au·bohr⁶  :      21797.807909
 Mol. C8AA /au·bohr⁸  :     454299.554082
 Mol. α(0) /au        :        220.579293


Wiberg/Mayer (AO) data.
largest (>0.10) Wiberg bond orders for each atom

 ---------------------------------------------------------------------------
     #   Z sym  total        # sym  WBO       # sym  WBO       # sym  WBO
 ---------------------------------------------------------------------------
     1   8 O    1.944 --     2 C    1.020    21 H    0.810
     2   6 C    3.967 --     1 O    1.020     5 C    0.993     3 H    0.965
                             4 H    0.964
     3   1 H    0.997 --     2 C    0.965
     4   1 H    0.998 --     2 C    0.964
     5   6 C    3.925 --     2 C    0.993     7 H    0.958     6 H    0.948
                             8 N    0.931
     6   1 H    0.986 --     5 C    0.948
     7   1 H    0.989 --     5 C    0.958
     8   7 N    3.823 --    17 C    0.963     9 C    0.958    13 C    0.954
                             5 C    0.931
     9   6 C    3.924 --    11 H    0.979    12 H    0.968    10 H    0.961
                             8 N    0.958
    10   1 H    0.985 --     9 C    0.961
    11   1 H    0.994 --     9 C    0.979
    12   1 H    0.989 --     9 C    0.968
    13   6 C    3.918 --    16 H    0.978    15 H    0.965    14 H    0.962
                             8 N    0.954
    14   1 H    0.985 --    13 C    0.962
    15   1 H    0.987 --    13 C    0.965
    16   1 H    0.993 --    13 C    0.978
    17   6 C    3.932 --    20 H    0.978    19 H    0.974     8 N    0.963
                            18 H    0.962
    18   1 H    0.985 --    17 C    0.962
    19   1 H    0.992 --    17 C    0.974
    20   1 H    0.993 --    17 C    0.978
    21   1 H    0.888 --     1 O    0.810
    22   6 C    3.960 --    23 O    1.472    27 N    1.273    24 N    1.208
    23   8 O    1.929 --    22 C    1.472    27 N    0.141    24 N    0.126
    24   7 N    3.312 --    22 C    1.208    26 H    0.947    25 H    0.932
                            23 O    0.126
    25   1 H    0.955 --    24 N    0.932
    26   1 H    0.966 --    24 N    0.947
    27   7 N    3.353 --    22 C    1.273    28 H    0.947    29 H    0.865
                            23 O    0.141
    28   1 H    0.966 --    27 N    0.947
    29   1 H    0.939 --    27 N    0.865
    30   6 C    3.959 --    31 O    1.535    35 N    1.209    32 N    1.208
    31   8 O    1.893 --    30 C    1.535    35 N    0.143    32 N    0.143
    32   7 N    3.324 --    30 C    1.208    34 H    0.946    33 H    0.943
                            31 O    0.143
    33   1 H    0.960 --    32 N    0.943
    34   1 H    0.965 --    32 N    0.946
    35   7 N    3.325 --    30 C    1.209    36 H    0.946    37 H    0.943
                            31 O    0.143
    36   1 H    0.965 --    35 N    0.946
    37   1 H    0.960 --    35 N    0.943
    38   6 C    3.960 --    39 O    1.476    40 N    1.249    43 N    1.222
    39   8 O    1.915 --    38 C    1.476    40 N    0.140    43 N    0.130
    40   7 N    3.335 --    38 C    1.249    42 H    0.948    41 H    0.878
                            39 O    0.140
    41   1 H    0.942 --    40 N    0.878
    42   1 H    0.968 --    40 N    0.948
    43   7 N    3.337 --    38 C    1.222    44 H    0.947    45 H    0.941
                            39 O    0.130
    44   1 H    0.965 --    43 N    0.947
    45   1 H    0.958 --    43 N    0.941
    46   6 C    3.958 --    47 O    1.526    51 N    1.226    48 N    1.195
    47   8 O    1.884 --    46 C    1.526    51 N    0.141    48 N    0.136
    48   7 N    3.304 --    46 C    1.195    49 H    0.945    50 H    0.943
                            47 O    0.136
    49   1 H    0.963 --    48 N    0.945
    50   1 H    0.962 --    48 N    0.943
    51   7 N    3.311 --    46 C    1.226    53 H    0.942    52 H    0.893
                            47 O    0.141
    52   1 H    0.951 --    51 N    0.893
    53   1 H    0.964 --    51 N    0.942
 ---------------------------------------------------------------------------

Topologies differ in total number of bonds
Writing topology from bond orders to xtbtopo.mol

molecular dipole:
                 x           y           z       tot (Debye)
 q only:        0.449       0.619       1.798
   full:        0.445       0.907       1.352       4.291
molecular quadrupole (traceless):
                xx          xy          yy          xz          yz          zz
 q only:      -45.044      12.187       2.616      15.860      22.963      42.428
  q+dip:      -50.920      15.680       4.366      17.931      27.468      46.553
   full:      -51.150      15.255       4.638      17.175      28.147      46.513

           -------------------------------------------------
          |               Frequency Printout                |
           -------------------------------------------------
 projected vibrational frequencies (cm⁻¹)
eigval :       -0.00    -0.00     0.00     0.00     0.00     0.00
eigval :        3.83    13.17    17.70    27.07    33.21    40.00
eigval :       45.78    50.53    54.17    57.01    63.06    72.80
eigval :       76.50    88.64   103.51   103.90   111.05   115.75
eigval :      116.79   126.18   134.15   139.48   152.58   170.51
eigval :      188.42   190.73   232.42   256.32   263.08   303.74
eigval :      312.12   316.53   338.11   359.20   374.64   375.15
eigval :      399.86   428.15   429.64   444.84   456.14   460.52
eigval :      460.78   462.46   467.88   472.79   479.03   491.98
eigval :      494.06   496.72   505.27   506.89   529.04   546.57
eigval :      554.79   555.72   581.70   649.85   662.37   674.24
eigval :      675.14   690.21   719.69   752.30   765.36   785.40
eigval :      914.14   923.47   944.26   963.48   983.01   994.00
eigval :      995.03   999.00  1012.45  1017.65  1020.57  1025.97
eigval :     1028.78  1038.32  1042.75  1080.49  1086.30  1090.79
eigval :     1095.65  1109.60  1114.48  1130.28  1175.43  1230.54
eigval :     1249.44  1274.46  1322.76  1333.54  1350.25  1352.60
eigval :     1355.38  1358.00  1377.69  1402.03  1404.49  1411.78
eigval :     1416.04  1436.10  1441.08  1447.16  1452.85  1454.50
eigval :     1456.01  1459.00  1466.19  1469.67  1470.61  1481.03
eigval :     1489.33  1498.23  1501.44  1515.52  1517.64  1656.49
eigval :     1686.09  1714.56  1725.06  2903.76  2964.82  2978.12
eigval :     3007.94  3032.07  3034.62  3040.08  3042.74  3043.16
eigval :     3048.47  3051.31  3055.71  3060.28  3093.60  3176.26
eigval :     3245.55  3333.61  3482.11  3484.81  3499.62  3501.27
eigval :     3505.76  3514.59  3531.13  3534.34  3548.84  3552.00
eigval :     3566.03  3566.80  3571.51
 reduced masses (amu)
   1: 12.69   2: 12.85   3: 12.82   4: 12.24   5: 12.18   6: 12.46   7: 11.19   8: 12.34
   9: 11.76  10: 11.99  11: 12.04  12: 12.32  13: 11.81  14: 12.17  15: 12.11  16: 12.39
  17: 13.28  18: 12.50  19: 13.64  20: 13.05  21: 12.76  22: 12.22  23: 11.52  24: 12.13
  25: 12.92  26: 12.66  27: 10.42  28:  4.81  29: 12.83  30: 13.47  31: 12.22  32: 11.02
  33:  2.64  34: 12.87  35:  4.30  36:  7.39  37:  5.06  38:  3.54  39:  5.31  40:  2.72
  41:  2.32  42:  6.50  43:  4.04  44:  3.24  45:  8.57  46:  1.43  47:  8.33  48:  5.46
  49:  5.14  50:  5.19  51:  7.62  52:  7.17  53:  7.22  54:  2.51  55:  2.24  56:  7.80
  57:  4.98  58:  3.48  59:  9.70  60: 10.42  61: 11.13  62:  8.73  63: 11.82  64:  4.76
  65: 10.67  66: 11.91  67: 11.20  68: 10.33  69:  2.36  70:  3.62  71:  8.08  72:  2.59
  73:  6.92  74:  8.56  75:  5.28  76:  5.13  77:  4.54  78:  4.97  79:  8.66  80:  7.55
  81:  9.45  82:  7.74  83:  9.26  84:  8.52  85:  7.92  86:  5.93  87:  3.50  88:  9.84
  89:  8.54  90:  7.94  91:  7.51  92:  4.52  93:  7.68  94:  8.33  95:  2.88  96:  5.27
  97:  6.49  98:  8.03  99:  6.20 100:  3.31 101:  4.94 102:  5.27 103:  5.85 104:  5.21
 105:  4.45 106:  2.62 107:  2.73 108:  2.86 109:  2.05 110:  2.49 111:  1.66 112:  3.26
 113:  2.85 114:  1.83 115:  2.99 116:  2.08 117:  1.84 118:  2.98 119:  1.93 120:  1.59
 121:  1.72 122:  8.33 123:  7.19 124:  9.53 125:  8.96 126: 12.32 127: 12.61 128: 12.80
 129: 12.82 130:  1.78 131:  1.68 132:  1.70 133:  1.80 134:  1.64 135:  1.73 136:  1.73
 137:  1.70 138:  1.49 139:  1.87 140:  1.91 141:  1.79 142:  1.71 143:  1.93 144:  1.81
 145:  1.78 146:  1.74 147:  1.46 148:  1.45 149:  1.45 150:  1.44 151:  1.46 152:  1.91
 153:  1.91 154:  1.91 155:  2.16 156:  2.18 157:  2.19 158:  2.19 159:  2.18
 IR intensities (km·mol⁻¹)
   1:  2.35   2:  1.82   3:  0.56   4:  1.95   5:  1.23   6:  1.09   7:  0.06   8:  0.92
   9:  1.82  10:  2.20  11:  0.90  12:  1.53  13:  5.88  14:  0.12  15:  5.04  16:  1.00
  17:  1.07  18:  5.96  19:  5.60  20:  5.23  21:  7.37  22:  6.35  23:  9.14  24:  8.18
  25:  0.61  26: 10.94  27: 25.70  28:  3.10  29: 17.39  30: 14.82  31: 39.86  32:  0.85
  33:152.06  34: 26.48  35:  0.47  36: 18.86  37: 26.52  38:477.67  39:  3.93  40:  4.53
  41: 37.29  42:  1.47  43:252.89  44:429.30  45: 20.53  46:  3.59  47:  9.26  48: 28.33
  49:  5.69  50: 15.30  51: 12.02  52: 15.83  53: 22.06  54: 51.96  55:  2.82  56: 27.65
  57: 37.28  58: 47.39  59: 30.55  60: 51.04  61: 16.18  62:  9.84  63: 66.35  64:137.38
  65:  3.46  66: 33.75  67: 18.77  68:388.19  69:106.14  70: 97.38  71: 10.89  72:366.48
  73:  7.68  74:  6.96  75:  2.01  76:  6.51  77:  3.85  78:  4.86  79:  0.28  80: 18.72
  81:  4.39  82: 37.92  83:  2.86  84:  2.28  85: 18.70  86:  7.38  87:  3.66  88:  1.78
  89:  0.12  90:  6.30  91: 36.50  92: 14.59  93:  1.49  94: 48.87  95: 16.91  96:  4.90
  97:  2.10  98:  1.95  99: 15.84 100:  1.99 101:130.98 102: 85.50 103: 60.54 104:100.03
 105: 46.59 106:  8.20 107: 23.13 108:108.07 109:  9.52 110: 19.95 111:  1.08 112:  6.81
 113:  5.06 114:  2.55 115:  7.87 116:  5.00 117:  8.52 118: 51.57 119:  5.81 120: 57.34
 121:  5.17 122:473.05 123:414.74 124:173.81 125:688.17 126:422.37 127:****** 128:******
 129:511.06 130: 29.96 131: 68.73 132: 27.66 133:  4.39 134: 25.30 135:  5.22 136:  6.69
 137:  0.08 138: 26.54 139: 30.43 140: 22.28 141:  1.19 142:  7.06 143:****** 144:250.37
 145:965.90 146:748.37 147: 33.19 148: 18.14 149: 24.73 150: 39.87 151:  9.13 152: 13.47
 153: 17.22 154: 11.46 155: 26.52 156: 13.51 157: 13.84 158: 17.60 159: 12.12
 Raman intensities (amu)
Molecule has no symmetry elements
It seems to be the C1 point group
   1:  0.00   2:  0.00   3:  0.00   4:  0.00   5:  0.00   6:  0.00   7:  0.00   8:  0.00
   9:  0.00  10:  0.00  11:  0.00  12:  0.00  13:  0.00  14:  0.00  15:  0.00  16:  0.00
  17:  0.00  18:  0.00  19:  0.00  20:  0.00  21:  0.00  22:  0.00  23:  0.00  24:  0.00
  25:  0.00  26:  0.00  27:  0.00  28:  0.00  29:  0.00  30:  0.00  31:  0.00  32:  0.00
  33:  0.00  34:  0.00  35:  0.00  36:  0.00  37:  0.00  38:  0.00  39:  0.00  40:  0.00
  41:  0.00  42:  0.00  43:  0.00  44:  0.00  45:  0.00  46:  0.00  47:  0.00  48:  0.00
  49:  0.00  50:  0.00  51:  0.00  52:  0.00  53:  0.00  54:  0.00  55:  0.00  56:  0.00
  57:  0.00  58:  0.00  59:  0.00  60:  0.00  61:  0.00  62:  0.00  63:  0.00  64:  0.00
  65:  0.00  66:  0.00  67:  0.00  68:  0.00  69:  0.00  70:  0.00  71:  0.00  72:  0.00
  73:  0.00  74:  0.00  75:  0.00  76:  0.00  77:  0.00  78:  0.00  79:  0.00  80:  0.00
  81:  0.00  82:  0.00  83:  0.00  84:  0.00  85:  0.00  86:  0.00  87:  0.00  88:  0.00
  89:  0.00  90:  0.00  91:  0.00  92:  0.00  93:  0.00  94:  0.00  95:  0.00  96:  0.00
  97:  0.00  98:  0.00  99:  0.00 100:  0.00 101:  0.00 102:  0.00 103:  0.00 104:  0.00
 105:  0.00 106:  0.00 107:  0.00 108:  0.00 109:  0.00 110:  0.00 111:  0.00 112:  0.00
 113:  0.00 114:  0.00 115:  0.00 116:  0.00 117:  0.00 118:  0.00 119:  0.00 120:  0.00
 121:  0.00 122:  0.00 123:  0.00 124:  0.00 125:  0.00 126:  0.00 127:  0.00 128:  0.00
 129:  0.00 130:  0.00 131:  0.00 132:  0.00 133:  0.00 134:  0.00 135:  0.00 136:  0.00
 137:  0.00 138:  0.00 139:  0.00 140:  0.00 141:  0.00 142:  0.00 143:  0.00 144:  0.00
 145:  0.00 146:  0.00 147:  0.00 148:  0.00 149:  0.00 150:  0.00 151:  0.00 152:  0.00
 153:  0.00 154:  0.00 155:  0.00 156:  0.00 157:  0.00 158:  0.00 159:  0.00
 output can be read by thermo (or use thermo option).
 writing <g98.out> molden fake output.
 recommended (thermochemical) frequency scaling factor: 1.0
           -------------------------------------------------
          |             Thermodynamic Functions             |
           -------------------------------------------------

c1  symmetry found (for desy threshold:  0.10E+00) used in thermo

          ...................................................
          :                      SETUP                      :
          :.................................................:
          :  # frequencies                         153      :
          :  # imaginary freq.                       0      :
          :  linear?                             false      :
          :  only rotor calc.                    false      :
          :  symmetry                               c1      :
          :  rotational number                       1      :
          :  scaling factor                  1.0000000      :
          :  rotor cutoff                   50.0000000 cm⁻¹ :
          :  imag. cutoff                  -20.0000000 cm⁻¹ :
          :.................................................:

    mode    ω/cm⁻¹     T·S(HO)/kcal·mol⁻¹    T·S(FR)/kcal·mol⁻¹   T·S(vib)
   ------------------------------------------------------------------------
       1      3.83    -2.95731 (  0.00%)    -1.81743 (100.00%)    -1.81747
       2     13.17    -2.22529 (  0.48%)    -1.45161 ( 99.52%)    -1.45532
       3     17.70    -2.05045 (  1.54%)    -1.36418 ( 98.46%)    -1.37478
       4     27.07    -1.79876 (  7.92%)    -1.23824 ( 92.08%)    -1.28261
       5     33.21    -1.67795 ( 16.29%)    -1.17773 ( 83.71%)    -1.25922
       6     40.00    -1.56805 ( 29.05%)    -1.12265 ( 70.95%)    -1.25204
       7     45.78    -1.48827 ( 41.28%)    -1.08262 ( 58.72%)    -1.25007
       8     50.53    -1.43012 ( 51.05%)    -1.05342 ( 48.95%)    -1.24572
       9     54.17    -1.38907 ( 57.95%)    -1.03278 ( 42.05%)    -1.23924
      10     57.01    -1.35898 ( 62.83%)    -1.01765 ( 37.17%)    -1.23211
      11     63.06    -1.29963 ( 71.68%)    -0.98777 ( 28.32%)    -1.21130
      12     72.80    -1.21532 ( 81.80%)    -0.94524 ( 18.20%)    -1.16616
      13     76.50    -1.18623 ( 84.57%)    -0.93054 ( 15.43%)    -1.14677
      14     88.64    -1.10016 ( 90.80%)    -0.88693 (  9.20%)    -1.08055
      15    103.51    -1.00984 ( 94.84%)    -0.84097 (  5.16%)    -1.00112
      16    103.90    -1.00769 ( 94.91%)    -0.83986 (  5.09%)    -0.99914
      17    111.05    -0.96915 ( 96.05%)    -0.82016 (  3.95%)    -0.96326
      18    115.75    -0.94516 ( 96.64%)    -0.80786 (  3.36%)    -0.94054
      19    116.79    -0.93999 ( 96.75%)    -0.80521 (  3.25%)    -0.93561
      20    126.18    -0.89548 ( 97.59%)    -0.78231 (  2.41%)    -0.89275
      21    134.15    -0.86038 ( 98.11%)    -0.76418 (  1.89%)    -0.85856
      22    139.48    -0.83808 ( 98.38%)    -0.75262 (  1.62%)    -0.83670
      23    152.58    -0.78704 ( 98.86%)    -0.72603 (  1.14%)    -0.78635
      24    170.51    -0.72445 ( 99.27%)    -0.69312 (  0.73%)    -0.72422
      25    188.42    -0.66884 ( 99.51%)    -0.66353 (  0.49%)    -0.66881
      26    190.73    -0.66210 ( 99.53%)    -0.65992 (  0.47%)    -0.66209
      27    232.42    -0.55461 ( 99.79%)    -0.60136 (  0.21%)    -0.55471
      28    256.32    -0.50289 ( 99.86%)    -0.57237 (  0.14%)    -0.50299
      29    263.08    -0.48933 ( 99.87%)    -0.56465 (  0.13%)    -0.48942
   ------------------------------------------------------------------------

   temp. (K)  partition function   enthalpy   heat capacity  entropy
                                   cal/mol     cal/K/mol   cal/K/mol   J/K/mol
 298.15  VIB  0.252E+18            19357.072    104.331    128.548
         ROT  0.152E+08              888.752      2.981     35.840
         INT  0.382E+25            20245.825    107.312    164.388
         TR   0.618E+28             1481.254      4.968     43.384
         TOT                       21727.0787   112.2797   207.7722   869.3191

       T/K    H(0)-H(T)+PV         H(T)/Eh          T*S/Eh         G(T)/Eh
   ------------------------------------------------------------------------
    298.15    0.346243E-01    0.474223E+00    0.987193E-01    0.375504E+00
   ------------------------------------------------------------------------

         :::::::::::::::::::::::::::::::::::::::::::::::::::::
         ::                  THERMODYNAMIC                  ::
         :::::::::::::::::::::::::::::::::::::::::::::::::::::
         :: total free energy         -80.560166342503 Eh   ::
         ::.................................................::
         :: total energy              -80.935670233952 Eh   ::
         :: zero point energy           0.439598887719 Eh   ::
         :: G(RRHO) w/o ZPVE           -0.064094996270 Eh   ::
         :: G(RRHO) contrib.            0.375503891449 Eh   ::
         :::::::::::::::::::::::::::::::::::::::::::::::::::::

           -------------------------------------------------
          | TOTAL ENERGY              -80.935670233952 Eh   |
          | TOTAL ENTHALPY            -80.461447042333 Eh   |
          | TOTAL FREE ENERGY         -80.560166342503 Eh   |
          | GRADIENT NORM               0.000049503046 Eh/α |
          | HOMO-LUMO GAP               5.689088294468 eV   |
           -------------------------------------------------

------------------------------------------------------------------------
 * finished run on 2024/01/10 at 18:25:12.463     
------------------------------------------------------------------------
 total:
 * wall-time:     0 d,  0 h,  0 min, 14.315 sec
 *  cpu-time:     0 d,  0 h,  0 min, 14.240 sec
 * ratio c/w:     0.995 speedup
 SCF:
 * wall-time:     0 d,  0 h,  0 min,  0.105 sec
 *  cpu-time:     0 d,  0 h,  0 min,  0.061 sec
 * ratio c/w:     0.585 speedup
 analytical hessian:
 * wall-time:     0 d,  0 h,  0 min, 14.184 sec
 *  cpu-time:     0 d,  0 h,  0 min, 14.152 sec
 * ratio c/w:     0.998 speedup

