      -----------------------------------------------------------      
     |                   =====================                   |     
     |                           x T B                           |     
     |                   =====================                   |     
     |                         S. Grimme                         |     
     |          Mulliken Center for Theoretical Chemistry        |     
     |                    University of Bonn                     |     
      -----------------------------------------------------------      

   * xtb version 6.6.1 (unknown-commit) compiled by '@Linux' on 12/27/2023

   xtb is free software: you can redistribute it and/or modify it under
   the terms of the GNU Lesser General Public License as published by
   the Free Software Foundation, either version 3 of the License, or
   (at your option) any later version.
   
   xtb is distributed in the hope that it will be useful,
   but WITHOUT ANY WARRANTY; without even the implied warranty of
   MERCHANTABILITY or FITNESS FOR A PARTICULAR PURPOSE.  See the
   GNU Lesser General Public License for more details.
   
   Cite this work as:
   * C. Bannwarth, E. Caldeweyher, S. Ehlert, A. Hansen, P. Pracht,
     J. Seibert, S. Spicher, S. Grimme, WIREs Comput. Mol. Sci., 2020, 11,
     e01493. DOI: 10.1002/wcms.1493
   
   for GFN2-xTB:
   * C. Bannwarth, S. Ehlert and S. Grimme., J. Chem. Theory Comput., 2019,
     15, 1652-1671. DOI: 10.1021/acs.jctc.8b01176
   for GFN1-xTB:
   * S. Grimme, C. Bannwarth, P. Shushkov, J. Chem. Theory Comput., 2017,
     13, 1989-2009. DOI: 10.1021/acs.jctc.7b00118
   for GFN0-xTB:
   * P. Pracht, E. Caldeweyher, S. Ehlert, S. Grimme, ChemRxiv, 2019, preprint.
     DOI: 10.26434/chemrxiv.8326202.v1
   for GFN-FF:
   * S. Spicher and S. Grimme, Angew. Chem. Int. Ed., 2020, 59, 15665-15673.
     DOI: 10.1002/anie.202004239
   
   for ALPB and GBSA implicit solvation:
   * S. Ehlert, M. Stahn, S. Spicher, S. Grimme, J. Chem. Theory Comput.,
     2021, 17, 4250-4261. DOI: 10.1021/acs.jctc.1c00471
   
   for DFT-D4:
   * E. Caldeweyher, C. Bannwarth and S. Grimme, J. Chem. Phys., 2017,
     147, 034112. DOI: 10.1063/1.4993215
   * E. Caldeweyher, S. Ehlert, A. Hansen, H. Neugebauer, S. Spicher,
     C. Bannwarth and S. Grimme, J. Chem. Phys., 2019, 150, 154122.
     DOI: 10.1063/1.5090222
   * E. Caldeweyher, J.-M. Mewes, S. Ehlert and S. Grimme, Phys. Chem. Chem. Phys.
     2020, 22, 8499-8512. DOI: 10.1039/D0CP00502A
   
   for sTDA-xTB:
   * S. Grimme and C. Bannwarth, J. Chem. Phys., 2016, 145, 054103.
     DOI: 10.1063/1.4959605
   
   in the mass-spec context:
   * V. Asgeirsson, C. Bauer and S. Grimme, Chem. Sci., 2017, 8, 4879.
     DOI: 10.1039/c7sc00601b
   * J. Koopman and S. Grimme, ACS Omega 2019, 4, 12, 15120-15133.
     DOI: 10.1021/acsomega.9b02011
   
   for metadynamics refer to:
   * S. Grimme, J. Chem. Theory Comput., 2019, 155, 2847-2862
     DOI: 10.1021/acs.jctc.9b00143
   
   for SPH calculations refer to:
   * S. Spicher and S. Grimme, J. Chem. Theory Comput., 2021, 17, 1701-1714
     DOI: 10.1021/acs.jctc.0c01306
   
   with help from (in alphabetical order)
   P. Atkinson, C. Bannwarth, F. Bohle, G. Brandenburg, E. Caldeweyher
   M. Checinski, S. Dohm, S. Ehlert, S. Ehrlich, I. Gerasimov, C. Hölzer
   A. Katbashev, J. Koopman, C. Lavigne, S. Lehtola, F. März, M. Müller,
   F. Musil, H. Neugebauer, J. Pisarek, C. Plett, P. Pracht, F. Pultar,
   J. Seibert, P. Shushkov, S. Spicher, M. Stahn, M. Steiner, T. Strunk,
   J. Stückrath, T. Rose, and J. Unsleber
   
 * started run on 2024/01/10 at 18:24:41.182     

           -------------------------------------------------
          |                Calculation Setup                |
           -------------------------------------------------

          program call               : xtb struc.xyz --gfn2 --hess
          hostname                   : swaroop
          coordinate file            : struc.xyz
          omp threads                :                     1

   ID    Z sym.   atoms
    1    8 O      1, 23, 31, 39, 47
    2    6 C      2, 5, 9, 13, 17, 22, 30, 38, 46
    3    1 H      3, 4, 6, 7, 10-12, 14-16, 18-21, 25, 26, 28, 29, 33, 34,
                  36, 37, 41, 42, 44, 45, 49, 50, 52, 53
    4    7 N      8, 24, 27, 32, 35, 40, 43, 48, 51

molecular fragmentation (1/2 indicates fragments):
11111111111111111111122222222222222222222222222222222
# atoms in fragment 1/2:    21    32
 fragment masses (1/2) :      104.17      240.22
CMA distance (Bohr)    :   6.930
constraining FC (au)   :  0.0500

           -------------------------------------------------
          |                 G F N 2 - x T B                 |
           -------------------------------------------------

        Reference                      10.1021/acs.jctc.8b01176
      * Hamiltonian:
        H0-scaling (s, p, d)           1.850000    2.230000    2.230000
        zeta-weighting                 0.500000
      * Dispersion:
        s8                             2.700000
        a1                             0.520000
        a2                             5.000000
        s9                             5.000000
      * Repulsion:
        kExp                           1.500000    1.000000
        rExp                           1.000000
      * Coulomb:
        alpha                          2.000000
        third order                    shell-resolved
        anisotropic                    true
        a3                             3.000000
        a5                             4.000000
        cn-shift                       1.200000
        cn-exp                         4.000000
        max-rad                        5.000000


          ...................................................
          :                      SETUP                      :
          :.................................................:
          :  # basis functions                 122          :
          :  # atomic orbitals                 122          :
          :  # shells                           76          :
          :  # electrons                       140          :
          :  max. iterations                   250          :
          :  Hamiltonian                  GFN2-xTB          :
          :  restarted?                      false          :
          :  GBSA solvation                  false          :
          :  PC potential                    false          :
          :  electronic temp.          300.0000000     K    :
          :  accuracy                    1.0000000          :
          :  -> integral cutoff          0.2500000E+02      :
          :  -> integral neglect         0.1000000E-07      :
          :  -> SCF convergence          0.1000000E-05 Eh   :
          :  -> wf. convergence          0.1000000E-03 e    :
          :  Broyden damping             0.4000000          :
          ...................................................

 iter      E             dE          RMSdq      gap      omega  full diag
   1    -81.5372017 -0.815372E+02  0.439E+00    5.06       0.0  T
   2    -81.8336482 -0.296446E+00  0.241E+00    5.91       1.0  T
   3    -81.8394737 -0.582553E-02  0.119E+00    5.58       1.0  T
   4    -81.8408598 -0.138608E-02  0.240E-01    5.62       1.0  T
   5    -81.8417702 -0.910460E-03  0.919E-02    5.54       1.0  T
   6    -81.8417935 -0.232978E-04  0.261E-02    5.56       1.0  T
   7    -81.8417988 -0.525775E-05  0.744E-03    5.56       1.8  T
   8    -81.8417990 -0.212085E-06  0.296E-03    5.55       4.6  T
   9    -81.8417991 -0.429266E-07  0.880E-04    5.55      15.6  T
  10    -81.8417991 -0.510197E-08  0.211E-04    5.55      65.2  T

   *** convergence criteria satisfied after 10 iterations ***

         #    Occupation            Energy/Eh            Energy/eV
      -------------------------------------------------------------
         1        2.0000           -0.7981766             -21.7195
       ...           ...                  ...                  ...
        64        2.0000           -0.4958671             -13.4932
        65        2.0000           -0.4950686             -13.4715
        66        2.0000           -0.4894412             -13.3184
        67        2.0000           -0.4860162             -13.2252
        68        2.0000           -0.4842280             -13.1765
        69        2.0000           -0.4814324             -13.1004
        70        2.0000           -0.4726661             -12.8619 (HOMO)
        71                         -0.2686251              -7.3097 (LUMO)
        72                         -0.2646229              -7.2008
        73                         -0.2597194              -7.0673
        74                         -0.2540842              -6.9140
        75                         -0.1552953              -4.2258
       ...                                ...                  ...
       122                          0.5749667              15.6456
      -------------------------------------------------------------
                  HL-Gap            0.2040410 Eh            5.5522 eV
             Fermi-level           -0.3706456 Eh          -10.0858 eV

 SCC (total)                   0 d,  0 h,  0 min,  0.096 sec
 SCC setup                      ...        0 min,  0.000 sec (  0.296%)
 Dispersion                     ...        0 min,  0.001 sec (  0.608%)
 classical contributions        ...        0 min,  0.000 sec (  0.188%)
 integral evaluation            ...        0 min,  0.008 sec (  7.968%)
 iterations                     ...        0 min,  0.060 sec ( 62.116%)
 molecular gradient             ...        0 min,  0.027 sec ( 28.527%)
 printout                       ...        0 min,  0.000 sec (  0.284%)

         :::::::::::::::::::::::::::::::::::::::::::::::::::::
         ::                     SUMMARY                     ::
         :::::::::::::::::::::::::::::::::::::::::::::::::::::
         :: total energy             -80.931234831556 Eh    ::
         :: gradient norm              0.000170906763 Eh/a0 ::
         :: HOMO-LUMO gap              5.552237432852 eV    ::
         ::.................................................::
         :: SCC energy               -81.841799061980 Eh    ::
         :: -> isotropic ES            0.293981102731 Eh    ::
         :: -> anisotropic ES         -0.030997454062 Eh    ::
         :: -> anisotropic XC          0.020909219216 Eh    ::
         :: -> dispersion             -0.042271543960 Eh    ::
         :: repulsion energy           0.909519531807 Eh    ::
         :: add. restraining           0.000000000000 Eh    ::
         :: total charge               1.000000000000 e     ::
         :::::::::::::::::::::::::::::::::::::::::::::::::::::

           ------------------------------------------------- 
          |                Numerical Hessian                |
           ------------------------------------------------- 
step length          :   0.00500
SCC accuracy         :   0.30000
Hessian scale factor :   1.00000
frozen atoms in %    :   0.00000    0
RMS gradient         :   0.00017
estimated CPU  time      0.23 min
estimated wall time      0.23 min

writing file <hessian>.

 projected vibrational frequencies (cm⁻¹)
eigval :       -0.00    -0.00     0.00     0.00     0.00     0.00
eigval :       11.37    12.30    13.79    19.38    27.29    34.44
eigval :       37.99    47.10    58.63    65.12    70.17    73.16
eigval :       75.48    81.53    87.36    95.40   102.74   115.12
eigval :      119.53   123.32   134.64   146.05   157.42   174.08
eigval :      177.88   190.99   193.78   225.21   239.94   276.36
eigval :      306.55   312.19   343.40   345.64   348.72   373.30
eigval :      377.03   390.92   414.48   428.34   444.98   457.05
eigval :      465.02   468.02   472.74   475.80   480.51   486.16
eigval :      507.20   517.90   529.88   530.87   544.06   547.62
eigval :      558.89   577.84   631.75   659.16   671.10   673.47
eigval :      677.07   694.46   722.83   748.77   801.64   808.99
eigval :      857.49   944.57   959.53   972.14   974.02   990.67
eigval :      996.07  1009.57  1010.45  1012.51  1015.51  1034.71
eigval :     1035.01  1044.55  1064.93  1081.53  1084.58  1092.84
eigval :     1095.49  1107.35  1128.89  1132.39  1177.91  1233.61
eigval :     1245.80  1272.42  1309.29  1320.71  1335.62  1353.32
eigval :     1360.36  1363.92  1378.10  1387.42  1403.16  1408.42
eigval :     1418.37  1438.91  1445.96  1453.43  1454.11  1456.66
eigval :     1459.35  1463.23  1466.72  1470.67  1474.10  1479.88
eigval :     1487.23  1491.55  1499.77  1502.26  1514.45  1677.91
eigval :     1703.45  1716.39  1729.11  2888.14  2956.28  2962.98
eigval :     2988.85  3022.26  3023.88  3040.50  3041.82  3044.95
eigval :     3048.24  3051.39  3058.27  3062.33  3155.88  3198.70
eigval :     3250.01  3312.21  3380.90  3427.91  3493.13  3500.45
eigval :     3502.89  3505.24  3520.87  3532.24  3550.66  3556.74
eigval :     3565.08  3569.55  3570.93
           -------------------------------------------------
          |                Property Printout                |
           -------------------------------------------------

    * Orbital Energies and Occupations

         #    Occupation            Energy/Eh            Energy/eV
      -------------------------------------------------------------
         1        2.0000           -0.7981760             -21.7195
       ...           ...                  ...                  ...
        58        2.0000           -0.5073703             -13.8062
        59        2.0000           -0.5037171             -13.7068
        60        2.0000           -0.5010744             -13.6349
        61        2.0000           -0.5004328             -13.6175
        62        2.0000           -0.4996932             -13.5973
        63        2.0000           -0.4988790             -13.5752
        64        2.0000           -0.4958686             -13.4933
        65        2.0000           -0.4950704             -13.4716
        66        2.0000           -0.4894425             -13.3184
        67        2.0000           -0.4860182             -13.2252
        68        2.0000           -0.4842296             -13.1766
        69        2.0000           -0.4814342             -13.1005
        70        2.0000           -0.4726680             -12.8620 (HOMO)
        71                         -0.2686225              -7.3096 (LUMO)
        72                         -0.2646251              -7.2008
        73                         -0.2597222              -7.0674
        74                         -0.2540884              -6.9141
        75                         -0.1552949              -4.2258
        76                         -0.1046624              -2.8480
        77                         -0.0964280              -2.6239
        78                         -0.0920699              -2.5054
        79                         -0.0785525              -2.1375
        80                         -0.0762618              -2.0752
        81                         -0.0643802              -1.7519
       ...                                ...                  ...
       122                          0.5749638              15.6456
      -------------------------------------------------------------
                  HL-Gap            0.2040456 Eh            5.5524 eV
             Fermi-level           -0.3706453 Eh          -10.0858 eV

     #   Z          covCN         q      C6AA      α(0)
     1   8 O        1.653    -0.463    22.118     6.349
     2   6 C        3.673     0.076    19.539     6.335
     3   1 H        0.924     0.049     2.330     2.387
     4   1 H        0.923     0.034     2.525     2.485
     5   6 C        3.774    -0.086    22.165     6.708
     6   1 H        0.924     0.129     1.541     1.942
     7   1 H        0.924     0.120     1.612     1.986
     8   7 N        3.624     0.153    18.652     6.414
     9   6 C        3.721    -0.106    22.649     6.797
    10   1 H        0.924     0.132     1.521     1.929
    11   1 H        0.925     0.084     1.943     2.180
    12   1 H        0.925     0.083     1.950     2.184
    13   6 C        3.740    -0.110    22.694     6.797
    14   1 H        0.925     0.109     1.709     2.045
    15   1 H        0.925     0.123     1.586     1.969
    16   1 H        0.925     0.085     1.932     2.174
    17   6 C        3.721    -0.107    22.656     6.798
    18   1 H        0.924     0.129     1.545     1.944
    19   1 H        0.925     0.082     1.956     2.187
    20   1 H        0.925     0.084     1.937     2.176
    21   1 H        0.802     0.337     0.619     1.236
    22   6 C        2.675     0.340    21.215     7.537
    23   8 O        0.859    -0.535    24.579     6.647
    24   7 N        2.647    -0.296    27.625     7.806
    25   1 H        0.861     0.191     1.151     1.681
    26   1 H        0.860     0.219     1.014     1.577
    27   7 N        2.646    -0.342    28.808     7.971
    28   1 H        0.860     0.213     1.042     1.599
    29   1 H        0.860     0.219     1.013     1.577
    30   6 C        2.675     0.347    21.108     7.518
    31   8 O        0.860    -0.513    24.081     6.579
    32   7 N        2.646    -0.289    27.444     7.780
    33   1 H        0.860     0.201     1.102     1.645
    34   1 H        0.861     0.187     1.176     1.699
    35   7 N        2.646    -0.286    27.388     7.773
    36   1 H        0.861     0.187     1.173     1.697
    37   1 H        0.860     0.202     1.097     1.641
    38   6 C        2.675     0.344    21.154     7.526
    39   8 O        0.860    -0.530    24.461     6.631
    40   7 N        2.644    -0.297    27.657     7.811
    41   1 H        0.860     0.195     1.130     1.665
    42   1 H        0.860     0.180     1.211     1.724
    43   7 N        2.644    -0.317    28.154     7.880
    44   1 H        0.860     0.174     1.250     1.752
    45   1 H        0.860     0.236     0.941     1.520
    46   6 C        2.675     0.343    21.178     7.531
    47   8 O        0.860    -0.524    24.327     6.613
    48   7 N        2.645    -0.297    27.646     7.809
    49   1 H        0.860     0.228     0.972     1.545
    50   1 H        0.861     0.182     1.202     1.718
    51   7 N        2.646    -0.288    27.428     7.778
    52   1 H        0.861     0.186     1.179     1.701
    53   1 H        0.860     0.202     1.094     1.639

 Mol. C6AA /au·bohr⁶  :      21799.029665
 Mol. C8AA /au·bohr⁸  :     454393.555919
 Mol. α(0) /au        :        220.589652


Wiberg/Mayer (AO) data.
largest (>0.10) Wiberg bond orders for each atom

 ---------------------------------------------------------------------------
     #   Z sym  total        # sym  WBO       # sym  WBO       # sym  WBO
 ---------------------------------------------------------------------------
     1   8 O    1.973 --     2 C    1.013    21 H    0.819
     2   6 C    3.966 --     1 O    1.013     5 C    0.993     4 H    0.969
                             3 H    0.968
     3   1 H    0.997 --     2 C    0.968
     4   1 H    0.999 --     2 C    0.969
     5   6 C    3.907 --     2 C    0.993     7 H    0.948     6 H    0.935
                             8 N    0.929
     6   1 H    0.983 --     5 C    0.935
     7   1 H    0.986 --     5 C    0.948
     8   7 N    3.820 --    17 C    0.961     9 C    0.960    13 C    0.955
                             5 C    0.929
     9   6 C    3.928 --    11 H    0.978    12 H    0.975     8 N    0.960
                            10 H    0.958
    10   1 H    0.983 --     9 C    0.958
    11   1 H    0.993 --     9 C    0.978
    12   1 H    0.993 --     9 C    0.975
    13   6 C    3.921 --    16 H    0.977    14 H    0.973    15 H    0.966
                             8 N    0.955
    14   1 H    0.988 --    13 C    0.973
    15   1 H    0.985 --    13 C    0.966
    16   1 H    0.992 --    13 C    0.977
    17   6 C    3.929 --    20 H    0.978    19 H    0.978     8 N    0.961
                            18 H    0.957
    18   1 H    0.983 --    17 C    0.957
    19   1 H    0.993 --    17 C    0.978
    20   1 H    0.993 --    17 C    0.978
    21   1 H    0.886 --     1 O    0.819
    22   6 C    3.959 --    23 O    1.527    24 N    1.244    27 N    1.175
    23   8 O    1.892 --    22 C    1.527    24 N    0.150    27 N    0.128
    24   7 N    3.349 --    22 C    1.244    25 H    0.946    26 H    0.914
                            23 O    0.150
    25   1 H    0.963 --    24 N    0.946
    26   1 H    0.952 --    24 N    0.914
    27   7 N    3.307 --    22 C    1.175    28 H    0.910    29 H    0.897
                            23 O    0.128
    28   1 H    0.955 --    27 N    0.910
    29   1 H    0.952 --    27 N    0.897
    30   6 C    3.959 --    31 O    1.532    35 N    1.212    32 N    1.208
    31   8 O    1.920 --    30 C    1.532    35 N    0.143    32 N    0.143
    32   7 N    3.323 --    30 C    1.208    34 H    0.946    33 H    0.943
                            31 O    0.143
    33   1 H    0.960 --    32 N    0.943
    34   1 H    0.965 --    32 N    0.946
    35   7 N    3.328 --    30 C    1.212    36 H    0.946    37 H    0.942
                            31 O    0.143
    36   1 H    0.965 --    35 N    0.946
    37   1 H    0.959 --    35 N    0.942
    38   6 C    3.959 --    39 O    1.528    43 N    1.229    40 N    1.193
    39   8 O    1.891 --    38 C    1.528    43 N    0.145    40 N    0.137
    40   7 N    3.306 --    38 C    1.193    42 H    0.948    41 H    0.945
                            39 O    0.137
    41   1 H    0.962 --    40 N    0.945
    42   1 H    0.967 --    40 N    0.948
    43   7 N    3.316 --    38 C    1.229    44 H    0.950    45 H    0.878
                            39 O    0.145
    44   1 H    0.970 --    43 N    0.950
    45   1 H    0.944 --    43 N    0.878
    46   6 C    3.960 --    47 O    1.480    48 N    1.258    51 N    1.214
    47   8 O    1.929 --    46 C    1.480    48 N    0.140    51 N    0.131
    48   7 N    3.349 --    46 C    1.258    50 H    0.947    49 H    0.876
                            47 O    0.140
    49   1 H    0.948 --    48 N    0.876
    50   1 H    0.966 --    48 N    0.947
    51   7 N    3.328 --    46 C    1.214    52 H    0.947    53 H    0.941
                            47 O    0.131
    52   1 H    0.965 --    51 N    0.947
    53   1 H    0.959 --    51 N    0.941
 ---------------------------------------------------------------------------

Topologies differ in total number of bonds
Writing topology from bond orders to xtbtopo.mol

molecular dipole:
                 x           y           z       tot (Debye)
 q only:        0.099      -0.205      -0.051
   full:        0.119       0.475      -0.093       1.266
molecular quadrupole (traceless):
                xx          xy          yy          xz          yz          zz
 q only:       19.782      43.795      24.894      19.728      -0.659     -44.677
  q+dip:       30.327      50.818      21.587      24.638      -0.139     -51.914
   full:       29.218      50.506      22.176      24.882      -0.224     -51.394

           -------------------------------------------------
          |               Frequency Printout                |
           -------------------------------------------------
 projected vibrational frequencies (cm⁻¹)
eigval :       -0.00    -0.00     0.00     0.00     0.00     0.00
eigval :       11.37    12.30    13.79    19.38    27.29    34.44
eigval :       37.99    47.10    58.63    65.12    70.17    73.16
eigval :       75.48    81.53    87.36    95.40   102.74   115.12
eigval :      119.53   123.32   134.64   146.05   157.42   174.08
eigval :      177.88   190.99   193.78   225.21   239.94   276.36
eigval :      306.55   312.19   343.40   345.64   348.72   373.30
eigval :      377.03   390.92   414.48   428.34   444.98   457.05
eigval :      465.02   468.02   472.74   475.80   480.51   486.16
eigval :      507.20   517.90   529.88   530.87   544.06   547.62
eigval :      558.89   577.84   631.75   659.16   671.10   673.47
eigval :      677.07   694.46   722.83   748.77   801.64   808.99
eigval :      857.49   944.57   959.53   972.14   974.02   990.67
eigval :      996.07  1009.57  1010.45  1012.51  1015.51  1034.71
eigval :     1035.01  1044.55  1064.93  1081.53  1084.58  1092.84
eigval :     1095.49  1107.35  1128.89  1132.39  1177.91  1233.61
eigval :     1245.80  1272.42  1309.29  1320.71  1335.62  1353.32
eigval :     1360.36  1363.92  1378.10  1387.42  1403.16  1408.42
eigval :     1418.37  1438.91  1445.96  1453.43  1454.11  1456.66
eigval :     1459.35  1463.23  1466.72  1470.67  1474.10  1479.88
eigval :     1487.23  1491.55  1499.77  1502.26  1514.45  1677.91
eigval :     1703.45  1716.39  1729.11  2888.14  2956.28  2962.98
eigval :     2988.85  3022.26  3023.88  3040.50  3041.82  3044.95
eigval :     3048.24  3051.39  3058.27  3062.33  3155.88  3198.70
eigval :     3250.01  3312.21  3380.90  3427.91  3493.13  3500.45
eigval :     3502.89  3505.24  3520.87  3532.24  3550.66  3556.74
eigval :     3565.08  3569.55  3570.93
 reduced masses (amu)
   1: 12.63   2: 11.73   3: 12.57   4: 12.25   5: 12.77   6: 12.85   7: 11.35   8: 12.15
   9: 11.93  10: 11.98  11: 12.39  12: 12.93  13: 13.12  14: 12.12  15: 12.87  16: 12.34
  17: 12.31  18: 12.31  19: 12.66  20: 12.33  21: 13.13  22: 12.44  23: 13.25  24: 10.66
  25:  7.36  26:  9.54  27: 11.46  28: 12.82  29: 11.84  30: 11.72  31: 10.29  32:  7.42
  33:  8.28  34: 11.45  35: 11.20  36:  2.80  37:  3.65  38:  1.69  39:  3.22  40:  2.88
  41:  8.32  42:  8.78  43:  8.26  44:  3.04  45:  2.91  46:  3.24  47:  1.46  48:  8.56
  49:  6.48  50:  1.84  51:  9.00  52:  4.71  53:  7.90  54:  8.55  55:  2.83  56:  9.67
  57: 10.07  58:  9.42  59: 11.17  60: 10.66  61: 11.41  62:  2.34  63:  2.70  64:  5.43
  65: 11.32  66:  9.92  67: 11.80  68:  9.61  69:  2.43  70:  2.62  71:  4.63  72:  6.96
  73:  4.50  74:  5.26  75:  4.95  76:  7.54  77:  6.21  78:  7.17  79:  8.65  80:  8.26
  81:  7.97  82:  7.87  83:  7.79  84:  5.99  85:  5.08  86:  5.50  87:  8.34  88:  9.87
  89:  9.72  90: 11.26  91:  7.98  92:  4.48  93:  5.81  94:  6.23  95:  2.91  96:  6.88
  97:  5.61  98:  8.20  99:  3.59 100:  5.74 101:  5.65 102:  5.84 103:  6.07 104:  4.53
 105:  4.06 106:  3.41 107:  2.52 108:  2.48 109:  2.18 110:  2.56 111:  1.59 112:  3.18
 113:  3.20 114:  1.64 115:  1.73 116:  2.96 117:  3.48 118:  1.62 119:  1.66 120:  1.68
 121:  1.74 122:  7.02 123:  7.88 124:  8.22 125:  9.43 126: 12.69 127: 12.76 128: 12.76
 129: 12.83 130:  1.77 131:  1.77 132:  1.67 133:  1.77 134:  1.69 135:  1.75 136:  1.76
 137:  1.72 138:  1.50 139:  1.90 140:  1.92 141:  1.68 142:  1.67 143:  1.89 144:  1.82
 145:  1.78 146:  1.64 147:  2.02 148:  1.61 149:  1.46 150:  1.44 151:  1.45 152:  1.46
 153:  1.91 154:  1.89 155:  2.05 156:  2.17 157:  2.19 158:  2.19 159:  2.18
 IR intensities (km·mol⁻¹)
   1:  1.00   2:  0.27   3:  2.40   4:  1.70   5:  1.73   6:  1.50   7:  0.63   8:  2.87
   9:  1.91  10:  2.05  11:  3.19  12:  0.64  13:  3.14  14:  2.00  15:  2.10  16:  5.10
  17:  1.78  18:  0.55  19:  2.83  20:  3.74  21:  9.23  22:  3.53  23:  6.61  24:  3.56
  25: 10.16  26:  9.61  27:  0.26  28: 14.99  29:  6.19  30: 14.25  31: 25.50  32:100.07
  33:109.36  34:  6.93  35:  7.23  36:  0.78  37:378.02  38:  2.87  39: 10.63  40:141.52
  41:  7.76  42:  5.58  43:  1.84  44:286.41  45:199.42  46:281.17  47:  8.00  48:  7.37
  49: 15.02  50:  0.64  51:  2.60  52: 15.44  53: 27.20  54: 18.62  55: 37.43  56: 70.10
  57: 38.88  58:  1.26  59: 18.31  60: 13.52  61: 24.56  62: 22.13  63: 59.18  64: 90.75
  65: 24.29  66: 31.68  67: 49.10  68: 44.83  69:155.60  70:349.46  71:377.96  72:152.01
  73: 43.17  74:  1.61  75:  0.96  76: 14.44  77: 10.83  78:  2.65  79:  0.91  80: 26.79
  81:  7.36  82: 12.69  83: 11.18  84:  4.57  85:  0.87  86: 16.73  87: 22.68  88:  0.82
  89:  2.77  90: 48.17  91:  2.66  92:  5.99  93:  7.55  94:  9.56  95: 15.41  96: 16.11
  97:  8.98  98:  3.00  99:  7.62 100:  3.54 101:104.47 102: 63.43 103:183.20 104: 36.72
 105: 24.94 106: 57.85 107: 31.18 108:  3.89 109:  2.89 110: 32.78 111:  0.30 112:  4.40
 113:  3.23 114:  4.68 115:  4.54 116: 15.11 117: 47.03 118: 13.33 119: 12.19 120: 26.50
 121: 16.74 122: 56.50 123:832.35 124:671.89 125:385.78 126:558.53 127:****** 128:886.89
 129:184.25 130: 71.35 131: 87.51 132: 56.14 133: 11.03 134: 39.78 135: 44.37 136:  1.14
 137:  3.31 138: 18.44 139:  9.39 140:  4.07 141:  1.24 142: 10.87 143:146.39 144:******
 145:720.30 146:351.37 147:245.42 148:356.21 149: 16.57 150: 42.33 151: 22.55 152:  5.32
 153: 11.74 154: 12.03 155: 39.61 156:  9.21 157: 14.22 158: 18.27 159: 16.24
 Raman intensities (amu)
Molecule has no symmetry elements
It seems to be the C1 point group
   1:  0.00   2:  0.00   3:  0.00   4:  0.00   5:  0.00   6:  0.00   7:  0.00   8:  0.00
   9:  0.00  10:  0.00  11:  0.00  12:  0.00  13:  0.00  14:  0.00  15:  0.00  16:  0.00
  17:  0.00  18:  0.00  19:  0.00  20:  0.00  21:  0.00  22:  0.00  23:  0.00  24:  0.00
  25:  0.00  26:  0.00  27:  0.00  28:  0.00  29:  0.00  30:  0.00  31:  0.00  32:  0.00
  33:  0.00  34:  0.00  35:  0.00  36:  0.00  37:  0.00  38:  0.00  39:  0.00  40:  0.00
  41:  0.00  42:  0.00  43:  0.00  44:  0.00  45:  0.00  46:  0.00  47:  0.00  48:  0.00
  49:  0.00  50:  0.00  51:  0.00  52:  0.00  53:  0.00  54:  0.00  55:  0.00  56:  0.00
  57:  0.00  58:  0.00  59:  0.00  60:  0.00  61:  0.00  62:  0.00  63:  0.00  64:  0.00
  65:  0.00  66:  0.00  67:  0.00  68:  0.00  69:  0.00  70:  0.00  71:  0.00  72:  0.00
  73:  0.00  74:  0.00  75:  0.00  76:  0.00  77:  0.00  78:  0.00  79:  0.00  80:  0.00
  81:  0.00  82:  0.00  83:  0.00  84:  0.00  85:  0.00  86:  0.00  87:  0.00  88:  0.00
  89:  0.00  90:  0.00  91:  0.00  92:  0.00  93:  0.00  94:  0.00  95:  0.00  96:  0.00
  97:  0.00  98:  0.00  99:  0.00 100:  0.00 101:  0.00 102:  0.00 103:  0.00 104:  0.00
 105:  0.00 106:  0.00 107:  0.00 108:  0.00 109:  0.00 110:  0.00 111:  0.00 112:  0.00
 113:  0.00 114:  0.00 115:  0.00 116:  0.00 117:  0.00 118:  0.00 119:  0.00 120:  0.00
 121:  0.00 122:  0.00 123:  0.00 124:  0.00 125:  0.00 126:  0.00 127:  0.00 128:  0.00
 129:  0.00 130:  0.00 131:  0.00 132:  0.00 133:  0.00 134:  0.00 135:  0.00 136:  0.00
 137:  0.00 138:  0.00 139:  0.00 140:  0.00 141:  0.00 142:  0.00 143:  0.00 144:  0.00
 145:  0.00 146:  0.00 147:  0.00 148:  0.00 149:  0.00 150:  0.00 151:  0.00 152:  0.00
 153:  0.00 154:  0.00 155:  0.00 156:  0.00 157:  0.00 158:  0.00 159:  0.00
 output can be read by thermo (or use thermo option).
 writing <g98.out> molden fake output.
 recommended (thermochemical) frequency scaling factor: 1.0
           -------------------------------------------------
          |             Thermodynamic Functions             |
           -------------------------------------------------

c1  symmetry found (for desy threshold:  0.10E+00) used in thermo

          ...................................................
          :                      SETUP                      :
          :.................................................:
          :  # frequencies                         153      :
          :  # imaginary freq.                       0      :
          :  linear?                             false      :
          :  only rotor calc.                    false      :
          :  symmetry                               c1      :
          :  rotational number                       1      :
          :  scaling factor                  1.0000000      :
          :  rotor cutoff                   50.0000000 cm⁻¹ :
          :  imag. cutoff                  -20.0000000 cm⁻¹ :
          :.................................................:

    mode    ω/cm⁻¹     T·S(HO)/kcal·mol⁻¹    T·S(FR)/kcal·mol⁻¹   T·S(vib)
   ------------------------------------------------------------------------
       1     11.37    -2.31262 (  0.27%)    -1.49528 ( 99.73%)    -1.49745
       2     12.30    -2.26609 (  0.36%)    -1.47202 ( 99.64%)    -1.47491
       3     13.79    -2.19803 (  0.58%)    -1.43799 ( 99.42%)    -1.44236
       4     19.38    -1.99661 (  2.21%)    -1.33725 ( 97.79%)    -1.35180
       5     27.29    -1.79395 (  8.16%)    -1.23583 ( 91.84%)    -1.28135
       6     34.44    -1.65634 ( 18.38%)    -1.16691 ( 81.62%)    -1.25688
       7     37.99    -1.59846 ( 24.99%)    -1.13790 ( 75.01%)    -1.25302
       8     47.10    -1.47152 ( 44.06%)    -1.07421 ( 55.94%)    -1.24925
       9     58.63    -1.34245 ( 65.41%)    -1.00934 ( 34.59%)    -1.22724
      10     65.12    -1.28080 ( 74.20%)    -0.97828 ( 25.80%)    -1.20276
      11     70.17    -1.23688 ( 79.51%)    -0.95613 ( 20.49%)    -1.17934
      12     73.16    -1.21240 ( 82.09%)    -0.94377 ( 17.91%)    -1.16429
      13     75.48    -1.19414 ( 83.85%)    -0.93454 ( 16.15%)    -1.15222
      14     81.53    -1.14901 ( 87.61%)    -0.91170 ( 12.39%)    -1.11960
      15     87.36    -1.10863 ( 90.31%)    -0.89123 (  9.69%)    -1.08756
      16     95.40    -1.05731 ( 92.98%)    -0.86516 (  7.02%)    -1.04383
      17    102.74    -1.01422 ( 94.69%)    -0.84320 (  5.31%)    -1.00514
      18    115.12    -0.94832 ( 96.56%)    -0.80948 (  3.44%)    -0.94355
      19    119.53    -0.92664 ( 97.03%)    -0.79835 (  2.97%)    -0.92282
      20    123.32    -0.90866 ( 97.37%)    -0.78910 (  2.63%)    -0.90551
      21    134.64    -0.85828 ( 98.13%)    -0.76309 (  1.87%)    -0.85651
      22    146.05    -0.81188 ( 98.64%)    -0.73899 (  1.36%)    -0.81090
      23    157.42    -0.76938 ( 98.99%)    -0.71678 (  1.01%)    -0.76885
      24    174.08    -0.71288 ( 99.32%)    -0.68699 (  0.68%)    -0.71270
      25    177.88    -0.70080 ( 99.38%)    -0.68058 (  0.62%)    -0.70067
      26    190.99    -0.66137 ( 99.53%)    -0.65953 (  0.47%)    -0.66136
      27    193.78    -0.65336 ( 99.56%)    -0.65523 (  0.44%)    -0.65337
      28    225.21    -0.57150 ( 99.76%)    -0.61070 (  0.24%)    -0.57159
      29    239.94    -0.53765 ( 99.81%)    -0.59193 (  0.19%)    -0.53776
      30    276.36    -0.46395 ( 99.89%)    -0.55006 (  0.11%)    -0.46404
   ------------------------------------------------------------------------

   temp. (K)  partition function   enthalpy   heat capacity  entropy
                                   cal/mol     cal/K/mol   cal/K/mol   J/K/mol
 298.15  VIB  0.392E+18            19518.721    103.979    129.484
         ROT  0.154E+08              888.752      2.981     35.870
         INT  0.603E+25            20407.473    106.960    165.354
         TR   0.618E+28             1481.254      4.968     43.384
         TOT                       21888.7271   111.9284   208.7380   873.3599

       T/K    H(0)-H(T)+PV         H(T)/Eh          T*S/Eh         G(T)/Eh
   ------------------------------------------------------------------------
    298.15    0.348819E-01    0.474030E+00    0.991782E-01    0.374851E+00
   ------------------------------------------------------------------------

         :::::::::::::::::::::::::::::::::::::::::::::::::::::
         ::                  THERMODYNAMIC                  ::
         :::::::::::::::::::::::::::::::::::::::::::::::::::::
         :: total free energy         -80.556383358479 Eh   ::
         ::.................................................::
         :: total energy              -80.931234832013 Eh   ::
         :: zero point energy           0.439147743758 Eh   ::
         :: G(RRHO) w/o ZPVE           -0.064296270224 Eh   ::
         :: G(RRHO) contrib.            0.374851473534 Eh   ::
         :::::::::::::::::::::::::::::::::::::::::::::::::::::

           -------------------------------------------------
          | TOTAL ENERGY              -80.931234832013 Eh   |
          | TOTAL ENTHALPY            -80.457205181332 Eh   |
          | TOTAL FREE ENERGY         -80.556383358479 Eh   |
          | GRADIENT NORM               0.000170733877 Eh/α |
          | HOMO-LUMO GAP               5.552362764330 eV   |
           -------------------------------------------------

------------------------------------------------------------------------
 * finished run on 2024/01/10 at 18:24:55.461     
------------------------------------------------------------------------
 total:
 * wall-time:     0 d,  0 h,  0 min, 14.279 sec
 *  cpu-time:     0 d,  0 h,  0 min, 14.216 sec
 * ratio c/w:     0.996 speedup
 SCF:
 * wall-time:     0 d,  0 h,  0 min,  0.096 sec
 *  cpu-time:     0 d,  0 h,  0 min,  0.057 sec
 * ratio c/w:     0.590 speedup
 analytical hessian:
 * wall-time:     0 d,  0 h,  0 min, 14.156 sec
 *  cpu-time:     0 d,  0 h,  0 min, 14.133 sec
 * ratio c/w:     0.998 speedup

