      -----------------------------------------------------------      
     |                   =====================                   |     
     |                           x T B                           |     
     |                   =====================                   |     
     |                         S. Grimme                         |     
     |          Mulliken Center for Theoretical Chemistry        |     
     |                    University of Bonn                     |     
      -----------------------------------------------------------      

   * xtb version 6.6.1 (unknown-commit) compiled by '@Linux' on 12/27/2023

   xtb is free software: you can redistribute it and/or modify it under
   the terms of the GNU Lesser General Public License as published by
   the Free Software Foundation, either version 3 of the License, or
   (at your option) any later version.
   
   xtb is distributed in the hope that it will be useful,
   but WITHOUT ANY WARRANTY; without even the implied warranty of
   MERCHANTABILITY or FITNESS FOR A PARTICULAR PURPOSE.  See the
   GNU Lesser General Public License for more details.
   
   Cite this work as:
   * C. Bannwarth, E. Caldeweyher, S. Ehlert, A. Hansen, P. Pracht,
     J. Seibert, S. Spicher, S. Grimme, WIREs Comput. Mol. Sci., 2020, 11,
     e01493. DOI: 10.1002/wcms.1493
   
   for GFN2-xTB:
   * C. Bannwarth, S. Ehlert and S. Grimme., J. Chem. Theory Comput., 2019,
     15, 1652-1671. DOI: 10.1021/acs.jctc.8b01176
   for GFN1-xTB:
   * S. Grimme, C. Bannwarth, P. Shushkov, J. Chem. Theory Comput., 2017,
     13, 1989-2009. DOI: 10.1021/acs.jctc.7b00118
   for GFN0-xTB:
   * P. Pracht, E. Caldeweyher, S. Ehlert, S. Grimme, ChemRxiv, 2019, preprint.
     DOI: 10.26434/chemrxiv.8326202.v1
   for GFN-FF:
   * S. Spicher and S. Grimme, Angew. Chem. Int. Ed., 2020, 59, 15665-15673.
     DOI: 10.1002/anie.202004239
   
   for ALPB and GBSA implicit solvation:
   * S. Ehlert, M. Stahn, S. Spicher, S. Grimme, J. Chem. Theory Comput.,
     2021, 17, 4250-4261. DOI: 10.1021/acs.jctc.1c00471
   
   for DFT-D4:
   * E. Caldeweyher, C. Bannwarth and S. Grimme, J. Chem. Phys., 2017,
     147, 034112. DOI: 10.1063/1.4993215
   * E. Caldeweyher, S. Ehlert, A. Hansen, H. Neugebauer, S. Spicher,
     C. Bannwarth and S. Grimme, J. Chem. Phys., 2019, 150, 154122.
     DOI: 10.1063/1.5090222
   * E. Caldeweyher, J.-M. Mewes, S. Ehlert and S. Grimme, Phys. Chem. Chem. Phys.
     2020, 22, 8499-8512. DOI: 10.1039/D0CP00502A
   
   for sTDA-xTB:
   * S. Grimme and C. Bannwarth, J. Chem. Phys., 2016, 145, 054103.
     DOI: 10.1063/1.4959605
   
   in the mass-spec context:
   * V. Asgeirsson, C. Bauer and S. Grimme, Chem. Sci., 2017, 8, 4879.
     DOI: 10.1039/c7sc00601b
   * J. Koopman and S. Grimme, ACS Omega 2019, 4, 12, 15120-15133.
     DOI: 10.1021/acsomega.9b02011
   
   for metadynamics refer to:
   * S. Grimme, J. Chem. Theory Comput., 2019, 155, 2847-2862
     DOI: 10.1021/acs.jctc.9b00143
   
   for SPH calculations refer to:
   * S. Spicher and S. Grimme, J. Chem. Theory Comput., 2021, 17, 1701-1714
     DOI: 10.1021/acs.jctc.0c01306
   
   with help from (in alphabetical order)
   P. Atkinson, C. Bannwarth, F. Bohle, G. Brandenburg, E. Caldeweyher
   M. Checinski, S. Dohm, S. Ehlert, S. Ehrlich, I. Gerasimov, C. Hölzer
   A. Katbashev, J. Koopman, C. Lavigne, S. Lehtola, F. März, M. Müller,
   F. Musil, H. Neugebauer, J. Pisarek, C. Plett, P. Pracht, F. Pultar,
   J. Seibert, P. Shushkov, S. Spicher, M. Stahn, M. Steiner, T. Strunk,
   J. Stückrath, T. Rose, and J. Unsleber
   
 * started run on 2024/01/10 at 18:23:29.367     

           -------------------------------------------------
          |                Calculation Setup                |
           -------------------------------------------------

          program call               : xtb struc.xyz --gfn2 --hess
          hostname                   : swaroop
          coordinate file            : struc.xyz
          omp threads                :                     1

   ID    Z sym.   atoms
    1    8 O      1, 23, 31, 39, 47
    2    6 C      2, 5, 9, 13, 17, 22, 30, 38, 46
    3    1 H      3, 4, 6, 7, 10-12, 14-16, 18-21, 25, 26, 28, 29, 33, 34,
                  36, 37, 41, 42, 44, 45, 49, 50, 52, 53
    4    7 N      8, 24, 27, 32, 35, 40, 43, 48, 51

molecular fragmentation (1/2 indicates fragments):
11111111111111111111122222222222222222222222222222222
# atoms in fragment 1/2:    21    32
 fragment masses (1/2) :      104.17      240.22
CMA distance (Bohr)    :  11.601
constraining FC (au)   :  0.0500

           -------------------------------------------------
          |                 G F N 2 - x T B                 |
           -------------------------------------------------

        Reference                      10.1021/acs.jctc.8b01176
      * Hamiltonian:
        H0-scaling (s, p, d)           1.850000    2.230000    2.230000
        zeta-weighting                 0.500000
      * Dispersion:
        s8                             2.700000
        a1                             0.520000
        a2                             5.000000
        s9                             5.000000
      * Repulsion:
        kExp                           1.500000    1.000000
        rExp                           1.000000
      * Coulomb:
        alpha                          2.000000
        third order                    shell-resolved
        anisotropic                    true
        a3                             3.000000
        a5                             4.000000
        cn-shift                       1.200000
        cn-exp                         4.000000
        max-rad                        5.000000


          ...................................................
          :                      SETUP                      :
          :.................................................:
          :  # basis functions                 122          :
          :  # atomic orbitals                 122          :
          :  # shells                           76          :
          :  # electrons                       140          :
          :  max. iterations                   250          :
          :  Hamiltonian                  GFN2-xTB          :
          :  restarted?                      false          :
          :  GBSA solvation                  false          :
          :  PC potential                    false          :
          :  electronic temp.          300.0000000     K    :
          :  accuracy                    1.0000000          :
          :  -> integral cutoff          0.2500000E+02      :
          :  -> integral neglect         0.1000000E-07      :
          :  -> SCF convergence          0.1000000E-05 Eh   :
          :  -> wf. convergence          0.1000000E-03 e    :
          :  Broyden damping             0.4000000          :
          ...................................................

 iter      E             dE          RMSdq      gap      omega  full diag
   1    -81.5533466 -0.815533E+02  0.423E+00    4.84       0.0  T
   2    -81.8333048 -0.279958E+00  0.228E+00    5.97       1.0  T
   3    -81.8389043 -0.559955E-02  0.111E+00    5.76       1.0  T
   4    -81.8402708 -0.136648E-02  0.243E-01    5.91       1.0  T
   5    -81.8411706 -0.899784E-03  0.903E-02    5.85       1.0  T
   6    -81.8411945 -0.238681E-04  0.257E-02    5.87       1.0  T
   7    -81.8411987 -0.421626E-05  0.754E-03    5.87       1.8  T
   8    -81.8411990 -0.308849E-06  0.293E-03    5.87       4.7  T
   9    -81.8411990 -0.468077E-07  0.120E-03    5.87      11.4  T
  10    -81.8411990 -0.816706E-08  0.215E-04    5.87      63.8  T
  11    -81.8411990 -0.459522E-09  0.897E-05    5.87     153.1  T

   *** convergence criteria satisfied after 11 iterations ***

         #    Occupation            Energy/Eh            Energy/eV
      -------------------------------------------------------------
         1        2.0000           -0.8131330             -22.1265
       ...           ...                  ...                  ...
        64        2.0000           -0.4949187             -13.4674
        65        2.0000           -0.4931837             -13.4202
        66        2.0000           -0.4908529             -13.3568
        67        2.0000           -0.4889842             -13.3059
        68        2.0000           -0.4869625             -13.2509
        69        2.0000           -0.4859480             -13.2233
        70        2.0000           -0.4858120             -13.2196 (HOMO)
        71                         -0.2702461              -7.3538 (LUMO)
        72                         -0.2654331              -7.2228
        73                         -0.2645460              -7.1987
        74                         -0.2590211              -7.0483
        75                         -0.1700149              -4.6263
       ...                                ...                  ...
       122                          0.5534040              15.0589
      -------------------------------------------------------------
                  HL-Gap            0.2155658 Eh            5.8658 eV
             Fermi-level           -0.3780291 Eh          -10.2867 eV

 SCC (total)                   0 d,  0 h,  0 min,  0.066 sec
 SCC setup                      ...        0 min,  0.000 sec (  0.442%)
 Dispersion                     ...        0 min,  0.001 sec (  0.879%)
 classical contributions        ...        0 min,  0.000 sec (  0.274%)
 integral evaluation            ...        0 min,  0.008 sec ( 11.513%)
 iterations                     ...        0 min,  0.030 sec ( 45.412%)
 molecular gradient             ...        0 min,  0.027 sec ( 41.051%)
 printout                       ...        0 min,  0.000 sec (  0.411%)

         :::::::::::::::::::::::::::::::::::::::::::::::::::::
         ::                     SUMMARY                     ::
         :::::::::::::::::::::::::::::::::::::::::::::::::::::
         :: total energy             -80.937525021191 Eh    ::
         :: gradient norm              0.000090038582 Eh/a0 ::
         :: HOMO-LUMO gap              5.865845138260 eV    ::
         ::.................................................::
         :: SCC energy               -81.841199038935 Eh    ::
         :: -> isotropic ES            0.297950742547 Eh    ::
         :: -> anisotropic ES         -0.031618793433 Eh    ::
         :: -> anisotropic XC          0.020639303922 Eh    ::
         :: -> dispersion             -0.044049370085 Eh    ::
         :: repulsion energy           0.902677579387 Eh    ::
         :: add. restraining           0.000000000000 Eh    ::
         :: total charge               1.000000000000 e     ::
         :::::::::::::::::::::::::::::::::::::::::::::::::::::

           ------------------------------------------------- 
          |                Numerical Hessian                |
           ------------------------------------------------- 
step length          :   0.00500
SCC accuracy         :   0.30000
Hessian scale factor :   1.00000
frozen atoms in %    :   0.00000    0
RMS gradient         :   0.00009
estimated CPU  time      0.24 min
estimated wall time      0.24 min

writing file <hessian>.

 projected vibrational frequencies (cm⁻¹)
eigval :       -0.00    -0.00     0.00     0.00     0.00     0.00
eigval :       15.69    19.13    35.60    37.76    38.24    49.49
eigval :       50.76    52.19    58.79    68.50    72.09    78.55
eigval :       86.45    98.05   103.04   112.22   118.58   125.42
eigval :      133.59   151.71   161.09   168.13   174.60   193.24
eigval :      212.13   235.93   252.66   268.78   291.97   306.48
eigval :      311.30   322.43   336.60   349.73   364.69   367.10
eigval :      414.41   424.06   443.07   454.41   467.52   469.39
eigval :      477.18   485.08   485.82   491.24   499.26   512.44
eigval :      549.80   553.41   561.18   566.19   573.73   578.46
eigval :      601.65   616.64   630.30   667.79   676.01   691.16
eigval :      698.25   720.11   764.16   769.89   784.20   845.40
eigval :      891.81   922.80   960.79   963.58   973.17   996.28
eigval :     1003.40  1006.72  1014.43  1017.47  1019.80  1020.56
eigval :     1026.66  1033.68  1038.98  1077.53  1082.55  1086.67
eigval :     1091.13  1099.39  1123.98  1129.59  1168.52  1226.57
eigval :     1247.94  1267.76  1303.59  1333.96  1340.45  1354.71
eigval :     1361.33  1368.86  1382.85  1400.01  1409.15  1410.71
eigval :     1425.61  1434.00  1442.23  1444.75  1447.27  1453.71
eigval :     1457.93  1460.98  1468.14  1471.75  1477.24  1480.23
eigval :     1493.20  1506.88  1510.50  1520.10  1526.39  1648.62
eigval :     1667.11  1689.83  1719.46  2901.91  2958.87  2978.38
eigval :     2996.08  3000.54  3030.48  3037.38  3038.09  3041.32
eigval :     3043.89  3045.43  3048.07  3051.00  3056.00  3163.44
eigval :     3260.16  3270.06  3360.30  3375.09  3413.29  3425.86
eigval :     3454.14  3491.68  3499.30  3509.68  3536.52  3540.53
eigval :     3544.51  3558.73  3565.69
           -------------------------------------------------
          |                Property Printout                |
           -------------------------------------------------

    * Orbital Energies and Occupations

         #    Occupation            Energy/Eh            Energy/eV
      -------------------------------------------------------------
         1        2.0000           -0.8131331             -22.1265
       ...           ...                  ...                  ...
        58        2.0000           -0.5067964             -13.7906
        59        2.0000           -0.5049959             -13.7416
        60        2.0000           -0.5037185             -13.7069
        61        2.0000           -0.5023649             -13.6700
        62        2.0000           -0.4997618             -13.5992
        63        2.0000           -0.4972945             -13.5321
        64        2.0000           -0.4949193             -13.4674
        65        2.0000           -0.4931841             -13.4202
        66        2.0000           -0.4908531             -13.3568
        67        2.0000           -0.4889849             -13.3060
        68        2.0000           -0.4869631             -13.2509
        69        2.0000           -0.4859485             -13.2233
        70        2.0000           -0.4858126             -13.2196 (HOMO)
        71                         -0.2702463              -7.3538 (LUMO)
        72                         -0.2654333              -7.2228
        73                         -0.2645461              -7.1987
        74                         -0.2590216              -7.0483
        75                         -0.1700149              -4.6263
        76                         -0.1074102              -2.9228
        77                         -0.1028644              -2.7991
        78                         -0.0915360              -2.4908
        79                         -0.0862060              -2.3458
        80                         -0.0775568              -2.1104
        81                         -0.0761004              -2.0708
       ...                                ...                  ...
       122                          0.5534038              15.0589
      -------------------------------------------------------------
                  HL-Gap            0.2155663 Eh            5.8659 eV
             Fermi-level           -0.3780295 Eh          -10.2867 eV

     #   Z          covCN         q      C6AA      α(0)
     1   8 O        1.652    -0.481    22.484     6.401
     2   6 C        3.673     0.075    19.554     6.337
     3   1 H        0.924     0.051     2.304     2.374
     4   1 H        0.923     0.049     2.328     2.386
     5   6 C        3.764    -0.064    21.763     6.649
     6   1 H        0.924     0.125     1.577     1.964
     7   1 H        0.924     0.073     2.049     2.239
     8   7 N        3.623     0.155    18.617     6.408
     9   6 C        3.726    -0.114    22.790     6.816
    10   1 H        0.925     0.126     1.564     1.956
    11   1 H        0.925     0.079     1.987     2.204
    12   1 H        0.925     0.119     1.624     1.993
    13   6 C        3.731    -0.109    22.690     6.799
    14   1 H        0.925     0.136     1.489     1.908
    15   1 H        0.925     0.083     1.951     2.185
    16   1 H        0.925     0.088     1.902     2.157
    17   6 C        3.719    -0.095    22.445     6.767
    18   1 H        0.925     0.107     1.718     2.050
    19   1 H        0.925     0.089     1.892     2.151
    20   1 H        0.925     0.087     1.910     2.161
    21   1 H        0.801     0.339     0.614     1.231
    22   6 C        2.675     0.343    21.172     7.529
    23   8 O        0.859    -0.537    24.621     6.653
    24   7 N        2.643    -0.325    28.357     7.909
    25   1 H        0.860     0.232     0.959     1.534
    26   1 H        0.860     0.213     1.042     1.599
    27   7 N        2.643    -0.321    28.256     7.895
    28   1 H        0.860     0.185     1.183     1.704
    29   1 H        0.860     0.189     1.166     1.691
    30   6 C        2.675     0.341    21.201     7.535
    31   8 O        0.861    -0.526    24.374     6.619
    32   7 N        2.645    -0.286    27.391     7.773
    33   1 H        0.860     0.203     1.092     1.637
    34   1 H        0.861     0.185     1.188     1.708
    35   7 N        2.644    -0.303    27.794     7.830
    36   1 H        0.861     0.180     1.216     1.727
    37   1 H        0.860     0.238     0.932     1.513
    38   6 C        2.675     0.340    21.221     7.538
    39   8 O        0.861    -0.541    24.699     6.663
    40   7 N        2.644    -0.302    27.784     7.828
    41   1 H        0.859     0.248     0.892     1.480
    42   1 H        0.861     0.179     1.217     1.728
    43   7 N        2.644    -0.295    27.605     7.803
    44   1 H        0.861     0.181     1.207     1.721
    45   1 H        0.860     0.208     1.066     1.618
    46   6 C        2.675     0.341    21.211     7.536
    47   8 O        0.861    -0.536    24.587     6.648
    48   7 N        2.646    -0.290    27.482     7.786
    49   1 H        0.860     0.205     1.082     1.630
    50   1 H        0.861     0.192     1.150     1.680
    51   7 N        2.645    -0.303    27.795     7.830
    52   1 H        0.860     0.219     1.013     1.576
    53   1 H        0.860     0.224     0.990     1.558

 Mol. C6AA /au·bohr⁶  :      21807.212720
 Mol. C8AA /au·bohr⁸  :     454650.931822
 Mol. α(0) /au        :        220.615800


Wiberg/Mayer (AO) data.
largest (>0.10) Wiberg bond orders for each atom

 ---------------------------------------------------------------------------
     #   Z sym  total        # sym  WBO       # sym  WBO       # sym  WBO
 ---------------------------------------------------------------------------
     1   8 O    1.945 --     2 C    1.029    21 H    0.792
     2   6 C    3.968 --     1 O    1.029     5 C    0.988     3 H    0.968
                             4 H    0.961
     3   1 H    0.997 --     2 C    0.968
     4   1 H    0.997 --     2 C    0.961
     5   6 C    3.926 --     2 C    0.988     7 H    0.970     6 H    0.951
                             8 N    0.931
     6   1 H    0.984 --     5 C    0.951
     7   1 H    0.995 --     5 C    0.970
     8   7 N    3.821 --    17 C    0.964    13 C    0.957     9 C    0.951
                             5 C    0.931
     9   6 C    3.912 --    11 H    0.979    12 H    0.962    10 H    0.959
                             8 N    0.951
    10   1 H    0.984 --     9 C    0.959
    11   1 H    0.994 --     9 C    0.979
    12   1 H    0.986 --     9 C    0.962
    13   6 C    3.923 --    15 H    0.978    16 H    0.977     8 N    0.957
                            14 H    0.957
    14   1 H    0.981 --    13 C    0.957
    15   1 H    0.993 --    13 C    0.978
    16   1 H    0.992 --    13 C    0.977
    17   6 C    3.937 --    20 H    0.978    19 H    0.976    18 H    0.972
                             8 N    0.964
    18   1 H    0.988 --    17 C    0.972
    19   1 H    0.992 --    17 C    0.976
    20   1 H    0.992 --    17 C    0.978
    21   1 H    0.885 --     1 O    0.792
    22   6 C    3.958 --    23 O    1.531    24 N    1.270    27 N    1.142
    23   8 O    1.889 --    22 C    1.531    24 N    0.154    27 N    0.122
    24   7 N    3.335 --    22 C    1.270    26 H    0.902    25 H    0.880
                            23 O    0.154
    25   1 H    0.946 --    24 N    0.880
    26   1 H    0.954 --    24 N    0.902
    27   7 N    3.261 --    22 C    1.142    29 H    0.947    28 H    0.944
                            23 O    0.122
    28   1 H    0.965 --    27 N    0.944
    29   1 H    0.964 --    27 N    0.947
    30   6 C    3.960 --    31 O    1.483    35 N    1.253    32 N    1.213
    31   8 O    1.911 --    30 C    1.483    35 N    0.143    32 N    0.129
    32   7 N    3.327 --    30 C    1.213    34 H    0.947    33 H    0.942
                            31 O    0.129
    33   1 H    0.959 --    32 N    0.942
    34   1 H    0.966 --    32 N    0.947
    35   7 N    3.346 --    30 C    1.253    36 H    0.948    37 H    0.882
                            31 O    0.143
    36   1 H    0.968 --    35 N    0.948
    37   1 H    0.943 --    35 N    0.882
    38   6 C    3.960 --    39 O    1.454    40 N    1.273    43 N    1.221
    39   8 O    1.898 --    38 C    1.454    40 N    0.139    43 N    0.126
    40   7 N    3.356 --    38 C    1.273    42 H    0.948    41 H    0.864
                            39 O    0.139
    41   1 H    0.939 --    40 N    0.864
    42   1 H    0.968 --    40 N    0.948
    43   7 N    3.329 --    38 C    1.221    44 H    0.948    45 H    0.921
                            39 O    0.126
    44   1 H    0.967 --    43 N    0.948
    45   1 H    0.957 --    43 N    0.921
    46   6 C    3.960 --    47 O    1.454    51 N    1.280    48 N    1.218
    47   8 O    1.926 --    46 C    1.454    51 N    0.137    48 N    0.126
    48   7 N    3.328 --    46 C    1.218    50 H    0.945    49 H    0.939
                            47 O    0.126
    49   1 H    0.958 --    48 N    0.939
    50   1 H    0.963 --    48 N    0.945
    51   7 N    3.358 --    46 C    1.280    52 H    0.904    53 H    0.902
                            47 O    0.137
    52   1 H    0.951 --    51 N    0.904
    53   1 H    0.950 --    51 N    0.902
 ---------------------------------------------------------------------------

Topologies differ in total number of bonds
Writing topology from bond orders to xtbtopo.mol

molecular dipole:
                 x           y           z       tot (Debye)
 q only:       -0.134      -2.472       0.692
   full:        0.210      -1.872       0.328       4.860
molecular quadrupole (traceless):
                xx          xy          yy          xz          yz          zz
 q only:      -32.149      13.786      67.726      -8.559     -29.423     -35.577
  q+dip:      -34.008      13.089      72.507      -9.304     -29.787     -38.499
   full:      -33.745      13.577      72.154      -8.888     -29.400     -38.408

           -------------------------------------------------
          |               Frequency Printout                |
           -------------------------------------------------
 projected vibrational frequencies (cm⁻¹)
eigval :       -0.00    -0.00     0.00     0.00     0.00     0.00
eigval :       15.69    19.13    35.60    37.76    38.24    49.49
eigval :       50.76    52.19    58.79    68.50    72.09    78.55
eigval :       86.45    98.05   103.04   112.22   118.58   125.42
eigval :      133.59   151.71   161.09   168.13   174.60   193.24
eigval :      212.13   235.93   252.66   268.78   291.97   306.48
eigval :      311.30   322.43   336.60   349.73   364.69   367.10
eigval :      414.41   424.06   443.07   454.41   467.52   469.39
eigval :      477.18   485.08   485.82   491.24   499.26   512.44
eigval :      549.80   553.41   561.18   566.19   573.73   578.46
eigval :      601.65   616.64   630.30   667.79   676.01   691.16
eigval :      698.25   720.11   764.16   769.89   784.20   845.40
eigval :      891.81   922.80   960.79   963.58   973.17   996.28
eigval :     1003.40  1006.72  1014.43  1017.47  1019.80  1020.56
eigval :     1026.66  1033.68  1038.98  1077.53  1082.55  1086.67
eigval :     1091.13  1099.39  1123.98  1129.59  1168.52  1226.57
eigval :     1247.94  1267.76  1303.59  1333.96  1340.45  1354.71
eigval :     1361.33  1368.86  1382.85  1400.01  1409.15  1410.71
eigval :     1425.61  1434.00  1442.23  1444.75  1447.27  1453.71
eigval :     1457.93  1460.98  1468.14  1471.75  1477.24  1480.23
eigval :     1493.20  1506.88  1510.50  1520.10  1526.39  1648.62
eigval :     1667.11  1689.83  1719.46  2901.91  2958.87  2978.38
eigval :     2996.08  3000.54  3030.48  3037.38  3038.09  3041.32
eigval :     3043.89  3045.43  3048.07  3051.00  3056.00  3163.44
eigval :     3260.16  3270.06  3360.30  3375.09  3413.29  3425.86
eigval :     3454.14  3491.68  3499.30  3509.68  3536.52  3540.53
eigval :     3544.51  3558.73  3565.69
 reduced masses (amu)
   1: 12.99   2: 12.32   3: 12.04   4: 11.84   5: 12.86   6: 12.46   7: 11.44   8: 12.00
   9: 12.04  10: 12.49  11: 12.27  12: 12.15  13: 12.67  14: 12.79  15: 12.30  16: 12.90
  17: 12.92  18: 12.63  19: 11.64  20: 12.19  21: 12.58  22: 12.82  23: 12.32  24: 12.92
  25: 13.02  26: 13.14  27: 13.29  28: 12.75  29: 12.68  30:  9.93  31: 13.08  32:  2.30
  33:  4.75  34: 10.95  35:  2.13  36:  4.40  37:  8.54  38:  3.39  39:  4.59  40:  4.24
  41:  3.95  42:  7.07  43:  3.12  44:  8.82  45:  3.12  46:  8.17  47:  8.28  48:  7.94
  49:  7.14  50:  2.94  51:  4.85  52:  6.69  53:  7.55  54:  2.49  55: 10.43  56: 11.44
  57: 10.75  58:  8.52  59:  8.55  60:  5.38  61:  5.31  62:  4.52  63:  4.58  64: 11.04
  65: 10.87  66:  8.88  67: 10.56  68:  2.61  69:  9.23  70:  2.20  71:  2.84  72:  2.04
  73:  6.77  74:  8.62  75:  4.82  76:  4.82  77:  4.58  78:  7.46  79:  8.96  80:  7.32
  81:  8.83  82:  6.61  83:  7.63  84:  7.98  85:  9.22  86:  3.14  87:  4.80  88:  9.99
  89:  9.21  90:  8.86  91:  6.40  92:  4.46  93:  6.61  94:  9.25  95:  3.29  96:  5.19
  97:  6.10  98:  8.01  99:  6.75 100:  3.35 101:  4.41 102:  5.12 103:  7.13 104:  4.44
 105:  4.57 106:  2.60 107:  2.61 108:  3.02 109:  2.28 110:  1.90 111:  1.90 112:  3.26
 113:  3.34 114:  1.62 115:  1.71 116:  3.26 117:  1.72 118:  1.61 119:  1.72 120:  3.63
 121:  1.66 122:  5.28 123:  9.29 124:  9.46 125: 10.07 126: 12.40 127: 12.41 128: 12.59
 129: 12.74 130:  1.79 131:  1.65 132:  1.80 133:  1.71 134:  1.93 135:  1.72 136:  1.59
 137:  1.94 138:  1.53 139:  1.80 140:  1.77 141:  1.62 142:  1.93 143:  1.68 144:  1.82
 145:  1.78 146:  1.76 147:  1.88 148:  1.64 149:  2.03 150:  1.66 151:  1.48 152:  1.45
 153:  1.45 154:  2.15 155:  1.92 156:  1.92 157:  2.01 158:  2.19 159:  2.18
 IR intensities (km·mol⁻¹)
   1:  1.64   2:  0.46   3:  2.03   4:  1.31   5:  1.31   6:  2.36   7:  2.83   8:  0.39
   9:  1.70  10:  0.38  11:  0.43  12:  6.72  13:  5.09  14:  1.64  15:  2.61  16:  1.18
  17:  7.62  18:  0.17  19:  2.73  20:  4.04  21:  6.33  22:  1.55  23: 31.61  24: 13.12
  25:  6.73  26: 11.80  27:  4.52  28: 18.63  29: 49.06  30:  7.00  31: 51.84  32:106.64
  33:  3.30  34: 11.45  35:104.39  36:  9.23  37:  0.96  38:148.46  39: 28.44  40:  1.67
  41:130.44  42:  1.74  43:411.17  44:  0.36  45: 60.59  46:  0.60  47: 17.57  48:  1.33
  49:  7.82  50: 16.01  51:  3.70  52: 13.67  53: 21.43  54: 12.80  55: 49.48  56:  5.04
  57: 31.22  58:  9.61  59: 31.55  60:  9.08  61: 73.97  62: 82.63  63:175.27  64: 31.33
  65: 35.21  66: 40.83  67: 86.37  68:124.91  69:  1.14  70:507.11  71:427.26  72:296.68
  73:  3.37  74:  4.55  75: 11.97  76: 24.52  77:  3.46  78: 15.68  79: 18.52  80: 19.07
  81:  2.14  82: 16.98  83:  6.47  84:  6.19  85:  3.98  86:  2.03  87: 23.00  88: 31.38
  89:  0.87  90:  2.38  91: 25.22  92: 11.70  93:  1.96  94: 48.82  95: 14.48  96:  5.17
  97:  2.07  98:  3.22  99:  5.93 100:  8.75 101:  3.57 102:132.45 103:174.39 104: 34.07
 105: 27.51 106:  6.90 107:  5.82 108:120.61 109: 25.29 110:  8.25 111:  2.63 112: 12.17
 113: 12.79 114:  1.53 115: 20.97 116: 28.20 117: 10.08 118: 20.59 119: 26.85 120: 92.42
 121: 17.97 122:156.53 123:327.75 124:****** 125:254.11 126:933.02 127:532.93 128:777.80
 129:905.25 130: 24.37 131:284.30 132:150.84 133:363.04 134:649.40 135: 11.13 136: 72.32
 137: 34.82 138: 13.01 139: 31.44 140: 50.07 141: 11.03 142:  9.89 143:  5.65 144:573.06
 145:373.58 146:****** 147: 82.04 148:498.15 149:404.34 150:122.33 151: 11.91 152: 24.02
 153: 20.41 154:  7.39 155:  7.26 156: 17.39 157: 32.78 158: 20.19 159: 16.33
 Raman intensities (amu)
Molecule has no symmetry elements
It seems to be the C1 point group
   1:  0.00   2:  0.00   3:  0.00   4:  0.00   5:  0.00   6:  0.00   7:  0.00   8:  0.00
   9:  0.00  10:  0.00  11:  0.00  12:  0.00  13:  0.00  14:  0.00  15:  0.00  16:  0.00
  17:  0.00  18:  0.00  19:  0.00  20:  0.00  21:  0.00  22:  0.00  23:  0.00  24:  0.00
  25:  0.00  26:  0.00  27:  0.00  28:  0.00  29:  0.00  30:  0.00  31:  0.00  32:  0.00
  33:  0.00  34:  0.00  35:  0.00  36:  0.00  37:  0.00  38:  0.00  39:  0.00  40:  0.00
  41:  0.00  42:  0.00  43:  0.00  44:  0.00  45:  0.00  46:  0.00  47:  0.00  48:  0.00
  49:  0.00  50:  0.00  51:  0.00  52:  0.00  53:  0.00  54:  0.00  55:  0.00  56:  0.00
  57:  0.00  58:  0.00  59:  0.00  60:  0.00  61:  0.00  62:  0.00  63:  0.00  64:  0.00
  65:  0.00  66:  0.00  67:  0.00  68:  0.00  69:  0.00  70:  0.00  71:  0.00  72:  0.00
  73:  0.00  74:  0.00  75:  0.00  76:  0.00  77:  0.00  78:  0.00  79:  0.00  80:  0.00
  81:  0.00  82:  0.00  83:  0.00  84:  0.00  85:  0.00  86:  0.00  87:  0.00  88:  0.00
  89:  0.00  90:  0.00  91:  0.00  92:  0.00  93:  0.00  94:  0.00  95:  0.00  96:  0.00
  97:  0.00  98:  0.00  99:  0.00 100:  0.00 101:  0.00 102:  0.00 103:  0.00 104:  0.00
 105:  0.00 106:  0.00 107:  0.00 108:  0.00 109:  0.00 110:  0.00 111:  0.00 112:  0.00
 113:  0.00 114:  0.00 115:  0.00 116:  0.00 117:  0.00 118:  0.00 119:  0.00 120:  0.00
 121:  0.00 122:  0.00 123:  0.00 124:  0.00 125:  0.00 126:  0.00 127:  0.00 128:  0.00
 129:  0.00 130:  0.00 131:  0.00 132:  0.00 133:  0.00 134:  0.00 135:  0.00 136:  0.00
 137:  0.00 138:  0.00 139:  0.00 140:  0.00 141:  0.00 142:  0.00 143:  0.00 144:  0.00
 145:  0.00 146:  0.00 147:  0.00 148:  0.00 149:  0.00 150:  0.00 151:  0.00 152:  0.00
 153:  0.00 154:  0.00 155:  0.00 156:  0.00 157:  0.00 158:  0.00 159:  0.00
 output can be read by thermo (or use thermo option).
 writing <g98.out> molden fake output.
 recommended (thermochemical) frequency scaling factor: 1.0
           -------------------------------------------------
          |             Thermodynamic Functions             |
           -------------------------------------------------

c1  symmetry found (for desy threshold:  0.10E+00) used in thermo

          ...................................................
          :                      SETUP                      :
          :.................................................:
          :  # frequencies                         153      :
          :  # imaginary freq.                       0      :
          :  linear?                             false      :
          :  only rotor calc.                    false      :
          :  symmetry                               c1      :
          :  rotational number                       1      :
          :  scaling factor                  1.0000000      :
          :  rotor cutoff                   50.0000000 cm⁻¹ :
          :  imag. cutoff                  -20.0000000 cm⁻¹ :
          :.................................................:

    mode    ω/cm⁻¹     T·S(HO)/kcal·mol⁻¹    T·S(FR)/kcal·mol⁻¹   T·S(vib)
   ------------------------------------------------------------------------
       1     15.69    -2.12174 (  0.96%)    -1.39983 ( 99.04%)    -1.40676
       2     19.13    -2.00438 (  2.10%)    -1.34113 ( 97.90%)    -1.35504
       3     35.60    -1.63677 ( 20.45%)    -1.15710 ( 79.55%)    -1.25521
       4     37.76    -1.60200 ( 24.55%)    -1.13967 ( 75.45%)    -1.25317
       5     38.24    -1.59453 ( 25.50%)    -1.13592 ( 74.50%)    -1.25286
       6     49.49    -1.44232 ( 48.98%)    -1.05955 ( 51.02%)    -1.24703
       7     50.76    -1.42736 ( 51.52%)    -1.05203 ( 48.48%)    -1.24539
       8     52.19    -1.41099 ( 54.28%)    -1.04380 ( 45.72%)    -1.24312
       9     58.79    -1.34091 ( 65.65%)    -1.00856 ( 34.35%)    -1.22674
      10     68.50    -1.25106 ( 77.89%)    -0.96328 ( 22.11%)    -1.18742
      11     72.09    -1.22109 ( 81.20%)    -0.94815 ( 18.80%)    -1.16979
      12     78.55    -1.17076 ( 85.90%)    -0.92271 ( 14.10%)    -1.13578
      13     86.45    -1.11473 ( 89.94%)    -0.89433 ( 10.06%)    -1.09255
      14     98.05    -1.04135 ( 93.67%)    -0.85703 (  6.33%)    -1.02967
      15    103.04    -1.01248 ( 94.75%)    -0.84231 (  5.25%)    -1.00355
      16    112.22    -0.96307 ( 96.21%)    -0.81704 (  3.79%)    -0.95753
      17    118.58    -0.93123 ( 96.94%)    -0.80071 (  3.06%)    -0.92723
      18    125.42    -0.89895 ( 97.54%)    -0.78410 (  2.46%)    -0.89612
      19    133.59    -0.86277 ( 98.08%)    -0.76542 (  1.92%)    -0.86090
      20    151.71    -0.79030 ( 98.83%)    -0.72773 (  1.17%)    -0.78957
      21    161.09    -0.75640 ( 99.08%)    -0.70996 (  0.92%)    -0.75597
      22    168.13    -0.73234 ( 99.22%)    -0.69728 (  0.78%)    -0.73207
      23    174.60    -0.71119 ( 99.33%)    -0.68609 (  0.67%)    -0.71102
      24    193.24    -0.65488 ( 99.55%)    -0.65604 (  0.45%)    -0.65489
      25    212.13    -0.60384 ( 99.69%)    -0.62843 (  0.31%)    -0.60392
      26    235.93    -0.54662 ( 99.80%)    -0.59692 (  0.20%)    -0.54672
      27    252.66    -0.51041 ( 99.85%)    -0.57662 (  0.15%)    -0.51051
      28    268.78    -0.47824 ( 99.88%)    -0.55830 (  0.12%)    -0.47834
      29    291.97    -0.43606 ( 99.91%)    -0.53379 (  0.09%)    -0.43614
   ------------------------------------------------------------------------

   temp. (K)  partition function   enthalpy   heat capacity  entropy
                                   cal/mol     cal/K/mol   cal/K/mol   J/K/mol
 298.15  VIB  0.149E+16            18591.612    103.504    120.713
         ROT  0.138E+08              888.752      2.981     35.647
         INT  0.206E+23            19480.364    106.485    156.360
         TR   0.618E+28             1481.254      4.968     43.384
         TOT                       20961.6183   111.4529   199.7447   835.7320

       T/K    H(0)-H(T)+PV         H(T)/Eh          T*S/Eh         G(T)/Eh
   ------------------------------------------------------------------------
    298.15    0.334045E-01    0.473990E+00    0.949052E-01    0.379085E+00
   ------------------------------------------------------------------------

         :::::::::::::::::::::::::::::::::::::::::::::::::::::
         ::                  THERMODYNAMIC                  ::
         :::::::::::::::::::::::::::::::::::::::::::::::::::::
         :: total free energy         -80.558440184724 Eh   ::
         ::.................................................::
         :: total energy              -80.937525021221 Eh   ::
         :: zero point energy           0.440585540163 Eh   ::
         :: G(RRHO) w/o ZPVE           -0.061500703665 Eh   ::
         :: G(RRHO) contrib.            0.379084836498 Eh   ::
         :::::::::::::::::::::::::::::::::::::::::::::::::::::

           -------------------------------------------------
          | TOTAL ENERGY              -80.937525021221 Eh   |
          | TOTAL ENTHALPY            -80.463535016076 Eh   |
          | TOTAL FREE ENERGY         -80.558440184724 Eh   |
          | GRADIENT NORM               0.000090074714 Eh/α |
          | HOMO-LUMO GAP               5.865858296612 eV   |
           -------------------------------------------------

------------------------------------------------------------------------
 * finished run on 2024/01/10 at 18:23:43.651     
------------------------------------------------------------------------
 total:
 * wall-time:     0 d,  0 h,  0 min, 14.285 sec
 *  cpu-time:     0 d,  0 h,  0 min, 14.239 sec
 * ratio c/w:     0.997 speedup
 SCF:
 * wall-time:     0 d,  0 h,  0 min,  0.066 sec
 *  cpu-time:     0 d,  0 h,  0 min,  0.059 sec
 * ratio c/w:     0.887 speedup
 analytical hessian:
 * wall-time:     0 d,  0 h,  0 min, 14.192 sec
 *  cpu-time:     0 d,  0 h,  0 min, 14.154 sec
 * ratio c/w:     0.997 speedup

