 Entering Gaussian System
 *********************************************
 Gaussian 98:
 frequency output generated by the xtb code
 *********************************************
                         Standard orientation:
 --------------------------------------------------------------------
  Center     Atomic     Atomic              Coordinates (Angstroms)
  Number     Number      Type              X           Y           Z
 --------------------------------------------------------------------
    1          8             0        0.485159    0.460461    2.980204
    2          6             0       -0.890059    0.248422    3.095971
    3          1             0       -1.057467   -0.252078    4.053028
    4          1             0       -1.428463    1.203983    3.124317
    5          6             0       -1.472178   -0.544801    1.916371
    6          1             0       -1.050827   -0.129902    0.997047
    7          1             0       -2.552371   -0.404763    1.880368
    8          7             0       -1.192218   -2.007001    1.901642
    9          6             0        0.261466   -2.237638    1.859039
   10          1             0        0.650019   -1.810351    0.936359
   11          1             0        0.470075   -3.305192    1.881151
   12          1             0        0.741885   -1.750560    2.705050
   13          6             0       -1.793810   -2.560458    0.674769
   14          1             0       -2.860588   -2.351237    0.649413
   15          1             0       -1.635121   -3.636034    0.632627
   16          1             0       -1.319915   -2.090892   -0.189075
   17          6             0       -1.775807   -2.675656    3.074100
   18          1             0       -2.835426   -2.438307    3.150252
   19          1             0       -1.274189   -2.357950    3.985074
   20          1             0       -1.663097   -3.754487    2.979089
   21          1             0        0.609667    1.093841    2.236351
   22          6             0        3.571917   -1.533195   -1.969324
   23          8             0        3.434301   -0.319636   -2.146546
   24          7             0        4.697414   -2.173918   -2.347787
   25          1             0        5.448492   -1.630276   -2.734648
   26          1             0        4.854399   -3.147507   -2.163135
   27          7             0        2.614224   -2.265805   -1.362114
   28          1             0        2.656250   -3.268883   -1.381463
   29          1             0        1.700375   -1.820558   -1.232305
   30          6             0        1.353026    1.801381   -0.065010
   31          8             0        0.439236    1.991503    0.745446
   32          7             0        2.341939    0.920798    0.148589
   33          1             0        2.273655    0.324022    0.955565
   34          1             0        2.907183    0.598792   -0.632503
   35          7             0        1.406344    2.477612   -1.240597
   36          1             0        2.241320    2.416070   -1.797639
   37          1             0        0.836135    3.299773   -1.338407
   38          6             0       -3.276936    2.123046    0.219967
   39          8             0       -3.170794    0.919061   -0.000637
   40          7             0       -4.493904    2.701585    0.389436
   41          1             0       -5.307936    2.152203    0.176172
   42          1             0       -4.602439    3.698957    0.430229
   43          7             0       -2.209979    2.947238    0.304618
   44          1             0       -2.334579    3.887168    0.637905
   45          1             0       -1.277038    2.551370    0.410043
   46          6             0       -0.135424   -0.155462   -1.955119
   47          8             0        0.164730   -0.897487   -1.006939
   48          7             0        0.735422    0.089613   -2.956402
   49          1             0        1.724265   -0.084241   -2.790779
   50          1             0        0.505946    0.767206   -3.661284
   51          7             0       -1.363473    0.376858   -2.069406
   52          1             0       -1.564030    1.014158   -2.818973
   53          1             0       -2.019280    0.365250   -1.289038
 --------------------------------------------------------------------
     1 basis functions        1 primitive gaussians
     1 alpha electrons        1 beta electrons

 Harmonic frequencies (cm**-1), IR intensities (km*mol⁻¹),
 Raman scattering activities (A**4/amu), Raman depolarization ratios,
 reduced masses (AMU), force constants (mDyne/A) and normal coordinates:
                      1                      2                      3
                        a                      a                      a 
 Frequencies --    -9.3497                27.6786                31.1240
 Red. masses --    10.6491                12.5729                11.8589
 Frc consts  --     0.0000                 0.0000                 0.0000
 IR Inten    --     4.0708                 2.7283                 0.8525
 Raman Activ --     0.0000                 0.0000                 0.0000
 Depolar     --     0.0000                 0.0000                 0.0000
 Atom AN      X      Y      Z        X      Y      Z        X      Y      Z
   1   8     0.31  -0.12   0.02     0.12   0.05  -0.23     0.09  -0.13  -0.22
   2   6     0.28  -0.04   0.24     0.12   0.00  -0.07     0.08  -0.08  -0.14
   3   1     0.12  -0.05   0.06     0.07  -0.01  -0.02     0.03  -0.02  -0.04
   4   1     0.10  -0.00   0.14     0.03  -0.00   0.00     0.03  -0.02  -0.04
   5   6     0.02   0.16   0.24     0.03   0.01  -0.03     0.03  -0.08  -0.11
   6   1    -0.02   0.06   0.06    -0.01   0.01  -0.02     0.03  -0.05  -0.03
   7   1     0.01   0.08   0.12     0.01   0.00   0.01     0.01   0.00  -0.05
   8   7    -0.16   0.14   0.03     0.02   0.01  -0.07    -0.11  -0.12  -0.03
   9   6    -0.17  -0.03  -0.07     0.02   0.00  -0.10    -0.12  -0.24   0.08
  10   1    -0.05   0.01  -0.01     0.00   0.01  -0.03    -0.00  -0.08   0.03
  11   1    -0.09  -0.02  -0.07     0.00   0.00  -0.04    -0.06  -0.07   0.04
  12   1    -0.02  -0.06  -0.01     0.01  -0.01  -0.03    -0.04  -0.07   0.03
  13   6    -0.27   0.36  -0.02    -0.01   0.04  -0.06    -0.07  -0.11  -0.05
  14   1    -0.06   0.17   0.00    -0.00   0.02  -0.01    -0.01  -0.01  -0.03
  15   1    -0.14   0.10  -0.03    -0.01   0.01  -0.02    -0.04  -0.04   0.00
  16   1    -0.05   0.10   0.01    -0.01   0.01  -0.02     0.01  -0.05  -0.01
  17   6    -0.17   0.05  -0.03     0.04  -0.00  -0.06    -0.25  -0.01  -0.04
  18   1    -0.04   0.03   0.00     0.01  -0.01  -0.02    -0.07   0.02  -0.04
  19   1    -0.04  -0.02  -0.00     0.01  -0.00  -0.02    -0.09  -0.00  -0.01
  20   1    -0.07   0.02  -0.04     0.02  -0.00  -0.02    -0.09  -0.01   0.01
  21   1     0.05  -0.03   0.00     0.00   0.02  -0.05     0.02  -0.03  -0.05
  22   6     0.05   0.05  -0.01    -0.04  -0.15   0.14     0.09   0.08   0.06
  23   8     0.03   0.05  -0.05     0.04  -0.17   0.10     0.00   0.05  -0.15
  24   7     0.06   0.07  -0.01    -0.04  -0.24   0.29     0.14   0.10   0.15
  25   1     0.01   0.02  -0.01     0.01  -0.08   0.09     0.02   0.02   0.01
  26   1     0.02   0.02   0.01    -0.03  -0.06   0.09     0.06   0.04   0.08
  27   7     0.07   0.06   0.01    -0.13  -0.09   0.09     0.17   0.12   0.22
  28   1     0.03   0.01   0.01    -0.05  -0.03   0.03     0.07   0.03   0.11
  29   1     0.02   0.01   0.00    -0.03  -0.01   0.00     0.04   0.02   0.05
  30   6    -0.02  -0.03   0.00     0.01   0.12  -0.10    -0.01   0.08  -0.14
  31   8    -0.01  -0.10   0.03    -0.02   0.16  -0.16     0.02   0.03  -0.11
  32   7     0.03   0.01  -0.03    -0.04   0.07  -0.08     0.05   0.15  -0.19
  33   1     0.02  -0.00  -0.01    -0.03   0.02  -0.02     0.03   0.03  -0.05
  34   1     0.01   0.01  -0.01    -0.01   0.01  -0.01     0.01   0.04  -0.06
  35   7    -0.08  -0.01   0.02     0.10   0.16  -0.09    -0.12   0.07  -0.16
  36   1    -0.03   0.01  -0.00     0.04   0.04  -0.01    -0.04   0.03  -0.05
  37   1    -0.03  -0.01   0.01     0.04   0.05  -0.02    -0.05   0.01  -0.04
  38   6    -0.00  -0.13  -0.05    -0.10  -0.11   0.11     0.02   0.11   0.09
  39   8     0.02  -0.15  -0.03    -0.03  -0.09  -0.05    -0.03   0.12   0.12
  40   7    -0.02  -0.15  -0.10    -0.14  -0.24   0.31     0.04   0.15   0.16
  41   1    -0.00  -0.04  -0.03    -0.03  -0.07   0.07     0.00   0.05   0.06
  42   1    -0.01  -0.04  -0.03    -0.06  -0.07   0.11     0.02   0.04   0.04
  43   7    -0.02  -0.12  -0.02    -0.16  -0.05   0.14     0.05   0.09   0.00
  44   1    -0.01  -0.03  -0.01    -0.05  -0.02   0.06     0.02   0.03   0.00
  45   1    -0.00  -0.03   0.00    -0.03   0.01  -0.00     0.01   0.02  -0.01
  46   6     0.02  -0.02  -0.04     0.04   0.11  -0.03    -0.01  -0.09   0.10
  47   8     0.04   0.01  -0.02    -0.05   0.05  -0.06     0.04  -0.06   0.13
  48   7     0.03  -0.01  -0.04     0.10   0.10   0.01    -0.07  -0.13   0.05
  49   1     0.01   0.00  -0.01     0.02  -0.00   0.01    -0.02  -0.03  -0.00
  50   1     0.00  -0.01  -0.02     0.05   0.04   0.01    -0.03  -0.04   0.01
  51   7     0.01  -0.07  -0.07     0.11   0.25  -0.02    -0.02  -0.10   0.15
  52   1    -0.00  -0.02  -0.02     0.04   0.08  -0.00    -0.01  -0.03   0.04
  53   1     0.00  -0.02  -0.02     0.01   0.05  -0.02     0.00  -0.01   0.05
                      4                      5                      6
                        a                      a                      a 
 Frequencies --    36.8213                40.8585                51.7329
 Red. masses --    11.9386                12.0755                12.0132
 Frc consts  --     0.0000                 0.0000                 0.0000
 IR Inten    --     0.2969                 0.4286                 2.0939
 Raman Activ --     0.0000                 0.0000                 0.0000
 Depolar     --     0.0000                 0.0000                 0.0000
 Atom AN      X      Y      Z        X      Y      Z        X      Y      Z
   1   8    -0.01  -0.05   0.12     0.21  -0.13  -0.13     0.01  -0.06   0.18
   2   6    -0.01  -0.06   0.08     0.20  -0.15   0.04    -0.02   0.03  -0.05
   3   1    -0.01  -0.03   0.02     0.10  -0.06   0.01    -0.06   0.02  -0.02
   4   1    -0.01  -0.02   0.03     0.05  -0.05   0.04     0.01   0.02  -0.05
   5   6    -0.01  -0.01   0.05     0.09  -0.12   0.08     0.12   0.02  -0.11
   6   1    -0.02   0.02   0.02     0.00  -0.03   0.01     0.08  -0.01  -0.02
   7   1    -0.01  -0.02   0.03     0.02  -0.03   0.05     0.04   0.02  -0.08
   8   7     0.08   0.00  -0.06     0.09  -0.13   0.02     0.06   0.01  -0.03
   9   6     0.09   0.09  -0.15     0.08  -0.12  -0.07     0.05  -0.05   0.13
  10   1     0.00   0.05  -0.04     0.01  -0.02  -0.02     0.05  -0.02   0.05
  11   1     0.04   0.03  -0.07     0.02  -0.04  -0.04     0.00  -0.02   0.06
  12   1     0.03   0.02  -0.04     0.04  -0.05  -0.02    -0.01  -0.01   0.05
  13   6     0.04   0.04  -0.05     0.01  -0.08   0.03     0.15  -0.01  -0.07
  14   1     0.01  -0.01   0.00     0.00  -0.02   0.03     0.04  -0.00  -0.04
  15   1     0.03   0.01  -0.03     0.00  -0.02  -0.00     0.05  -0.00  -0.01
  16   1    -0.01   0.03  -0.01    -0.01  -0.02   0.01     0.06   0.00  -0.01
  17   6     0.19  -0.10  -0.06     0.15  -0.16   0.03    -0.10   0.08  -0.07
  18   1     0.05  -0.05   0.01     0.04  -0.05   0.02    -0.03   0.04  -0.05
  19   1     0.07  -0.04  -0.02     0.05  -0.05   0.00    -0.05   0.02  -0.01
  20   1     0.07  -0.03  -0.04     0.04  -0.04  -0.00    -0.05   0.02  -0.01
  21   1    -0.00  -0.01   0.03     0.02  -0.01  -0.02     0.04  -0.03   0.04
  22   6    -0.03   0.00   0.13    -0.10  -0.03   0.07    -0.09  -0.05   0.00
  23   8    -0.08  -0.03  -0.03    -0.09  -0.03   0.07    -0.00  -0.07  -0.14
  24   7     0.04   0.01   0.34    -0.10  -0.05   0.13    -0.25  -0.23  -0.14
  25   1     0.01  -0.00   0.09    -0.02  -0.02   0.04    -0.06  -0.10  -0.08
  26   1     0.02   0.01   0.12    -0.03  -0.01   0.03    -0.08  -0.06   0.01
  27   7    -0.05   0.03   0.15    -0.15  -0.02   0.04    -0.07   0.13   0.28
  28   1    -0.00   0.01   0.08    -0.04  -0.01   0.01    -0.05   0.03   0.10
  29   1    -0.02   0.01   0.01    -0.04  -0.00   0.00    -0.01   0.06   0.07
  30   6    -0.12  -0.04   0.01    -0.04   0.11   0.04     0.04   0.05   0.02
  31   8    -0.02  -0.04   0.14    -0.03   0.14   0.06     0.11  -0.11   0.12
  32   7    -0.04   0.05  -0.06    -0.08   0.07   0.01     0.18   0.17  -0.11
  33   1     0.04   0.03   0.00    -0.03   0.01  -0.00     0.08   0.03  -0.04
  34   1    -0.03   0.01  -0.03    -0.02   0.02  -0.00     0.03   0.06  -0.05
  35   7    -0.36  -0.14  -0.06    -0.02   0.16   0.07    -0.15   0.13   0.06
  36   1    -0.12  -0.03  -0.05    -0.01   0.05   0.02    -0.05   0.08  -0.01
  37   1    -0.12  -0.06  -0.01     0.00   0.05   0.03    -0.07   0.01   0.04
  38   6     0.12   0.10   0.04     0.01   0.06  -0.15    -0.01  -0.10  -0.04
  39   8     0.19   0.14  -0.07     0.03   0.01   0.16    -0.07  -0.11  -0.12
  40   7     0.10   0.05   0.03     0.00   0.12  -0.44     0.01  -0.04  -0.18
  41   1     0.03   0.01  -0.02     0.00   0.02  -0.09    -0.00   0.01  -0.08
  42   1     0.02   0.01   0.03    -0.00   0.03  -0.17     0.02  -0.01  -0.03
  43   7     0.10   0.13   0.18     0.01   0.09  -0.29     0.03  -0.19   0.17
  44   1     0.01   0.02   0.07    -0.00   0.04  -0.13     0.01  -0.05   0.05
  45   1     0.03   0.03   0.05    -0.00   0.03  -0.02     0.00  -0.06   0.05
  46   6    -0.05  -0.03  -0.18    -0.07   0.06   0.06     0.01   0.10   0.02
  47   8    -0.06   0.06  -0.13    -0.10   0.01   0.03     0.05   0.26   0.13
  48   7    -0.06  -0.16  -0.23    -0.05   0.14   0.11     0.01   0.07   0.02
  49   1    -0.02  -0.04  -0.05    -0.02   0.02   0.03     0.01   0.02   0.00
  50   1    -0.01  -0.06  -0.08    -0.01   0.04   0.04    -0.01  -0.02  -0.02
  51   7    -0.04  -0.02  -0.22    -0.08   0.05   0.07    -0.04  -0.03  -0.07
  52   1    -0.01  -0.02  -0.07    -0.02   0.03   0.03    -0.02  -0.04  -0.04
  53   1     0.00   0.02  -0.05    -0.02   0.00   0.02    -0.01  -0.00  -0.02
                      7                      8                      9
                        a                      a                      a 
 Frequencies --    54.9158                62.1376                63.9870
 Red. masses --    12.4258                12.9415                11.8308
 Frc consts  --     0.0000                 0.0000                 0.0000
 IR Inten    --     2.5669                 4.4486                 4.1474
 Raman Activ --     0.0000                 0.0000                 0.0000
 Depolar     --     0.0000                 0.0000                 0.0000
 Atom AN      X      Y      Z        X      Y      Z        X      Y      Z
   1   8    -0.05  -0.02   0.13     0.11   0.04  -0.19     0.12  -0.05   0.07
   2   6    -0.05   0.01   0.05     0.11   0.00  -0.09     0.06   0.10  -0.14
   3   1    -0.03   0.01   0.01     0.05  -0.00  -0.02    -0.04   0.06  -0.04
   4   1    -0.01   0.01   0.00     0.03  -0.00  -0.01     0.05   0.05  -0.09
   5   6    -0.01   0.01   0.03     0.06  -0.00  -0.06     0.17   0.07  -0.17
   6   1     0.00   0.01   0.01     0.02  -0.02  -0.02     0.10  -0.01  -0.04
   7   1    -0.00   0.00  -0.00     0.02   0.01  -0.02     0.05   0.05  -0.10
   8   7    -0.01   0.02   0.03    -0.01  -0.02  -0.01     0.06   0.05  -0.03
   9   6    -0.01   0.01   0.02    -0.02  -0.08   0.05     0.04  -0.06  -0.03
  10   1    -0.00  -0.01  -0.00     0.01  -0.03   0.02     0.01  -0.07  -0.03
  11   1    -0.00   0.00   0.02    -0.02  -0.03   0.02    -0.01  -0.02   0.04
  12   1     0.00   0.01   0.00    -0.01  -0.03   0.02     0.02   0.01  -0.03
  13   6    -0.01   0.01   0.03     0.01  -0.02  -0.02    -0.01  -0.02   0.03
  14   1    -0.00   0.00   0.01     0.01   0.00  -0.02    -0.00  -0.00   0.02
  15   1    -0.00   0.00   0.01    -0.01  -0.01   0.00    -0.01  -0.01   0.03
  16   1     0.00  -0.00   0.01     0.02  -0.02  -0.00    -0.01  -0.03  -0.01
  17   6    -0.00   0.02   0.04    -0.09   0.04  -0.02     0.02   0.21   0.05
  18   1     0.00   0.01   0.02    -0.03   0.02  -0.02     0.02   0.11   0.03
  19   1     0.01   0.00   0.01    -0.04   0.01  -0.00     0.04   0.05  -0.00
  20   1    -0.01   0.00   0.01    -0.04   0.01   0.01    -0.05   0.05   0.03
  21   1     0.00  -0.01   0.03     0.01   0.05  -0.02     0.07  -0.02   0.02
  22   6     0.11  -0.14  -0.10    -0.02  -0.00  -0.00    -0.00   0.04   0.01
  23   8     0.11  -0.15  -0.06    -0.02   0.02   0.19    -0.11   0.01  -0.12
  24   7     0.14  -0.11  -0.11    -0.07   0.03  -0.19     0.19   0.16   0.38
  25   1     0.04  -0.02  -0.02    -0.02   0.02  -0.03     0.05   0.05   0.11
  26   1     0.04  -0.03  -0.04    -0.01   0.00  -0.07     0.05   0.04   0.09
  27   7     0.11  -0.20  -0.18    -0.00  -0.07  -0.05    -0.06  -0.03  -0.17
  28   1     0.04  -0.05  -0.06    -0.01  -0.02  -0.05     0.02  -0.01  -0.01
  29   1     0.03  -0.06  -0.04     0.00  -0.02   0.01    -0.03  -0.02  -0.07
  30   6    -0.16   0.06  -0.05     0.00   0.12   0.09     0.08  -0.09   0.04
  31   8    -0.10  -0.06   0.07     0.08   0.41   0.13     0.11  -0.09   0.06
  32   7    -0.15   0.04  -0.26    -0.14  -0.00   0.16     0.04  -0.16  -0.02
  33   1    -0.02  -0.01  -0.08    -0.04   0.03   0.07     0.00  -0.06  -0.02
  34   1    -0.05   0.03  -0.09    -0.04  -0.03   0.05     0.00  -0.03  -0.01
  35   7    -0.32   0.22   0.02     0.04  -0.05  -0.01     0.12  -0.03   0.08
  36   1    -0.09   0.10  -0.01     0.00  -0.06  -0.01     0.03  -0.02   0.01
  37   1    -0.09   0.06   0.06     0.05   0.01  -0.02     0.04   0.00   0.03
  38   6    -0.05   0.07   0.02     0.01   0.04   0.04    -0.10  -0.03   0.02
  39   8     0.01   0.09   0.03     0.17   0.09  -0.08    -0.22  -0.04   0.00
  40   7    -0.09   0.05  -0.20    -0.09  -0.08  -0.18    -0.08   0.10  -0.20
  41   1    -0.01   0.01  -0.08     0.00  -0.04  -0.11    -0.03   0.05  -0.09
  42   1    -0.03   0.01  -0.05    -0.05  -0.03  -0.02     0.01   0.03  -0.04
  43   7    -0.08   0.09   0.22    -0.10   0.12   0.44    -0.04  -0.16   0.27
  44   1    -0.04   0.02   0.05    -0.06   0.03   0.12     0.00  -0.04   0.06
  45   1    -0.02   0.03   0.07    -0.01   0.06   0.10    -0.02  -0.06   0.07
  46   6     0.14  -0.02   0.06     0.00  -0.12  -0.03    -0.10  -0.00  -0.03
  47   8     0.11  -0.19  -0.05     0.02  -0.03   0.04    -0.11  -0.11  -0.12
  48   7     0.14   0.00   0.06     0.02  -0.14  -0.02    -0.13   0.07  -0.03
  49   1     0.04  -0.03  -0.00     0.01  -0.01   0.01    -0.03   0.00  -0.02
  50   1     0.05   0.03   0.04     0.00  -0.06  -0.02    -0.03   0.04   0.01
  51   7     0.22   0.16   0.18    -0.05  -0.26  -0.15    -0.09   0.06   0.06
  52   1     0.07   0.07   0.07    -0.01  -0.08  -0.05    -0.03   0.03   0.03
  53   1     0.05   0.02   0.04    -0.00  -0.03  -0.03    -0.03  -0.01   0.01
                     10                     11                     12
                        a                      a                      a 
 Frequencies --    68.3404                74.0879                83.2523
 Red. masses --    11.8964                11.9236                12.0876
 Frc consts  --     0.0000                 0.0000                 0.0000
 IR Inten    --     2.0517                 1.3474                 1.0806
 Raman Activ --     0.0000                 0.0000                 0.0000
 Depolar     --     0.0000                 0.0000                 0.0000
 Atom AN      X      Y      Z        X      Y      Z        X      Y      Z
   1   8    -0.13  -0.03  -0.03    -0.05   0.01  -0.13     0.07   0.02   0.08
   2   6    -0.12   0.02   0.01    -0.02  -0.04   0.05     0.05   0.03  -0.02
   3   1    -0.03   0.02   0.01     0.03  -0.02   0.02    -0.01   0.01  -0.01
   4   1    -0.03   0.01  -0.01    -0.02  -0.02   0.04     0.02   0.01  -0.02
   5   6    -0.17  -0.04   0.07    -0.13  -0.05   0.11     0.12   0.05  -0.07
   6   1    -0.08  -0.01   0.01    -0.09   0.00   0.02     0.06   0.01  -0.01
   7   1    -0.05  -0.03   0.05    -0.04  -0.04   0.08     0.04   0.03  -0.05
   8   7    -0.09  -0.02   0.07    -0.02  -0.03   0.03     0.06   0.04  -0.04
   9   6    -0.07   0.06  -0.09    -0.01   0.08  -0.11     0.05  -0.02   0.01
  10   1    -0.06   0.02  -0.04    -0.03   0.05  -0.03     0.02  -0.04  -0.01
  11   1    -0.00   0.02  -0.03     0.02   0.03  -0.07     0.00  -0.01   0.03
  12   1    -0.00   0.03  -0.04     0.01   0.01  -0.03     0.01   0.01  -0.01
  13   6    -0.18  -0.07   0.13    -0.08  -0.02   0.06     0.07   0.04  -0.04
  14   1    -0.06  -0.04   0.07    -0.03  -0.02   0.04     0.02   0.02  -0.02
  15   1    -0.04  -0.02   0.04    -0.01  -0.00   0.01     0.01   0.01  -0.01
  16   1    -0.08  -0.02   0.02    -0.05   0.00   0.01     0.02   0.01  -0.01
  17   6     0.09  -0.04   0.14     0.15  -0.13   0.05    -0.01   0.09  -0.04
  18   1     0.03  -0.03   0.08     0.04  -0.08   0.04     0.00   0.05  -0.01
  19   1     0.05   0.00   0.02     0.05  -0.02   0.01     0.01   0.01  -0.01
  20   1     0.04  -0.01   0.04     0.08  -0.03   0.01    -0.03   0.02  -0.01
  21   1    -0.03  -0.02  -0.02    -0.04  -0.01  -0.05     0.03   0.02   0.03
  22   6     0.03  -0.00  -0.03     0.04   0.06   0.02     0.04   0.01   0.03
  23   8     0.06  -0.01  -0.14     0.05   0.05  -0.14    -0.01  -0.03  -0.15
  24   7     0.05  -0.03   0.08    -0.06  -0.03  -0.12    -0.04  -0.05  -0.11
  25   1     0.01  -0.02   0.01    -0.02  -0.03  -0.08    -0.02  -0.02  -0.07
  26   1     0.01  -0.01   0.03    -0.01   0.00   0.02     0.02   0.00   0.04
  27   7     0.01   0.05  -0.01     0.14   0.19   0.33     0.18   0.10   0.38
  28   1     0.01   0.01   0.02     0.03   0.05   0.11     0.05   0.03   0.12
  29   1     0.00   0.01  -0.01     0.03   0.05   0.07     0.04   0.02   0.06
  30   6     0.09   0.13  -0.03     0.07  -0.12  -0.09    -0.11  -0.06   0.07
  31   8     0.10   0.01  -0.01    -0.00  -0.12  -0.20    -0.08   0.06   0.11
  32   7     0.05   0.04  -0.19     0.05  -0.14   0.00    -0.40  -0.41  -0.08
  33   1    -0.00  -0.03  -0.08    -0.01  -0.04  -0.00    -0.14  -0.14  -0.05
  34   1     0.01   0.03  -0.06     0.03  -0.03   0.01    -0.10  -0.09  -0.02
  35   7     0.15   0.38   0.11     0.22  -0.14  -0.10     0.08   0.12   0.19
  36   1     0.04   0.12   0.03     0.07  -0.05  -0.01     0.02  -0.01   0.05
  37   1     0.05   0.11   0.07     0.07  -0.03  -0.05     0.09   0.08   0.09
  38   6     0.10  -0.03   0.01    -0.09   0.05   0.02    -0.00   0.02   0.00
  39   8     0.12  -0.01  -0.08    -0.05   0.06   0.01     0.05   0.03   0.04
  40   7     0.10  -0.04   0.02    -0.13   0.07  -0.28    -0.02  -0.04   0.12
  41   1     0.03  -0.01  -0.02    -0.02   0.02  -0.12    -0.00  -0.03   0.05
  42   1     0.03  -0.01   0.02    -0.03   0.02  -0.06    -0.02  -0.01   0.02
  43   7     0.10  -0.04   0.13    -0.10   0.02   0.35    -0.04   0.10  -0.16
  44   1     0.02  -0.02   0.05    -0.03   0.01   0.08    -0.02   0.03  -0.04
  45   1     0.03  -0.01   0.02    -0.03   0.01   0.07    -0.01   0.03  -0.03
  46   6    -0.06  -0.07  -0.04     0.01   0.05   0.03    -0.01  -0.03  -0.08
  47   8    -0.10  -0.11  -0.06    -0.02   0.03   0.03    -0.00  -0.11  -0.16
  48   7     0.05   0.20   0.14    -0.03  -0.05  -0.03    -0.01   0.09  -0.05
  49   1     0.01   0.05   0.04    -0.01  -0.02  -0.02    -0.00   0.00  -0.03
  50   1     0.01   0.04   0.03    -0.00  -0.00   0.00    -0.01   0.03  -0.00
  51   7    -0.17  -0.34  -0.23     0.07   0.20   0.11    -0.03  -0.05  -0.05
  52   1    -0.03  -0.06  -0.04     0.02   0.04   0.02    -0.00   0.01   0.01
  53   1    -0.04  -0.08  -0.06     0.01   0.05   0.02     0.00  -0.02  -0.01
                     13                     14                     15
                        a                      a                      a 
 Frequencies --    89.9451                91.0860                98.4632
 Red. masses --    11.4321                12.0681                12.8148
 Frc consts  --     0.0000                 0.0000                 0.0000
 IR Inten    --     2.1572                 4.2468                 3.6495
 Raman Activ --     0.0000                 0.0000                 0.0000
 Depolar     --     0.0000                 0.0000                 0.0000
 Atom AN      X      Y      Z        X      Y      Z        X      Y      Z
   1   8    -0.03   0.14   0.06     0.13  -0.12   0.00    -0.12   0.05   0.04
   2   6     0.00  -0.05   0.14     0.08   0.03  -0.10    -0.11   0.03  -0.02
   3   1     0.04  -0.06   0.02    -0.01   0.02  -0.03    -0.04  -0.00  -0.01
   4   1    -0.03  -0.03   0.09     0.05   0.02  -0.05    -0.04   0.01  -0.00
   5   6    -0.00   0.04   0.08     0.10   0.05  -0.12    -0.07   0.05  -0.06
   6   1    -0.01   0.05   0.03     0.04   0.01  -0.03    -0.03   0.03  -0.01
   7   1    -0.00  -0.00   0.03     0.03   0.03  -0.05    -0.02   0.00  -0.01
   8   7     0.07   0.06  -0.10     0.06   0.05  -0.11    -0.02   0.07  -0.16
   9   6     0.08   0.13   0.04     0.05   0.00  -0.31    -0.02   0.13  -0.28
  10   1     0.05   0.08   0.04    -0.02  -0.01  -0.11    -0.03   0.06  -0.08
  11   1     0.04   0.04  -0.03     0.01  -0.00  -0.09     0.01   0.04  -0.11
  12   1    -0.01   0.00   0.05     0.05   0.00  -0.11     0.01   0.03  -0.08
  13   6     0.22   0.18  -0.23    -0.14   0.01   0.01    -0.12   0.09  -0.11
  14   1     0.07   0.06  -0.10    -0.04   0.00   0.05    -0.03   0.03  -0.01
  15   1     0.06   0.05  -0.09    -0.04   0.00   0.00    -0.04   0.03  -0.04
  16   1     0.10   0.07  -0.03    -0.08  -0.00  -0.02    -0.05   0.03  -0.04
  17   6    -0.04  -0.13  -0.25     0.24   0.10   0.01     0.12  -0.02  -0.12
  18   1    -0.02  -0.08  -0.12     0.08   0.07   0.07     0.03  -0.02  -0.00
  19   1    -0.07  -0.04  -0.04     0.14   0.01  -0.03     0.06  -0.01  -0.05
  20   1     0.04  -0.03  -0.10     0.03   0.03  -0.01     0.04  -0.00  -0.06
  21   1    -0.04   0.02  -0.00     0.05  -0.03   0.00    -0.02   0.03   0.03
  22   6     0.01  -0.09  -0.02     0.05  -0.03   0.07     0.00  -0.07   0.00
  23   8    -0.06  -0.12  -0.08     0.11  -0.01   0.24    -0.16  -0.11  -0.08
  24   7     0.10  -0.04   0.13    -0.04  -0.07  -0.16     0.03   0.02  -0.07
  25   1     0.02  -0.00   0.03    -0.01  -0.01  -0.03    -0.01   0.02  -0.04
  26   1     0.03  -0.01   0.03    -0.01  -0.02  -0.05     0.05   0.02   0.01
  27   7     0.01  -0.14  -0.08     0.08  -0.05   0.10     0.13  -0.13   0.15
  28   1     0.01  -0.04  -0.00     0.00  -0.01  -0.01     0.06  -0.03   0.05
  29   1     0.01  -0.04  -0.01     0.03  -0.01   0.04     0.03  -0.05   0.03
  30   6     0.02  -0.03  -0.06    -0.05  -0.04   0.04     0.10   0.16   0.09
  31   8    -0.08  -0.12  -0.17    -0.16  -0.21  -0.02     0.26   0.36   0.22
  32   7     0.02  -0.03  -0.01     0.08   0.12   0.12     0.04   0.08   0.02
  33   1    -0.02  -0.03  -0.02     0.03   0.03   0.03     0.03   0.05   0.03
  34   1     0.01  -0.01   0.00     0.04   0.04   0.04    -0.02  -0.01  -0.01
  35   7     0.16   0.07   0.00    -0.08  -0.02   0.06    -0.01   0.03   0.01
  36   1     0.06   0.02   0.02    -0.01   0.03   0.03    -0.02  -0.02  -0.03
  37   1     0.04   0.02  -0.01    -0.06  -0.03   0.00     0.02   0.03   0.01
  38   6    -0.08   0.08   0.06    -0.14   0.11  -0.03    -0.01  -0.10   0.03
  39   8    -0.07   0.08   0.14    -0.23   0.15  -0.18    -0.13  -0.15   0.15
  40   7    -0.10   0.09  -0.04    -0.10   0.17   0.14     0.05   0.01  -0.02
  41   1    -0.02   0.02  -0.01    -0.04   0.07   0.03    -0.00   0.02   0.02
  42   1    -0.03   0.03  -0.02    -0.01   0.05   0.06     0.04   0.01  -0.02
  43   7    -0.09   0.09   0.08    -0.10   0.06  -0.04     0.06  -0.18  -0.07
  44   1    -0.02   0.03   0.01    -0.01   0.01   0.03     0.03  -0.04  -0.05
  45   1    -0.02   0.02   0.02    -0.03  -0.00  -0.02     0.01  -0.05  -0.00
  46   6    -0.03  -0.04   0.08     0.00  -0.07   0.07    -0.01  -0.08   0.07
  47   8     0.15   0.08   0.13     0.02  -0.05   0.10     0.07  -0.10   0.05
  48   7    -0.08   0.10   0.09     0.07   0.02   0.16    -0.12  -0.16  -0.03
  49   1    -0.02   0.03   0.01     0.02   0.01   0.06    -0.03  -0.05  -0.03
  50   1    -0.05  -0.00   0.00     0.02  -0.01   0.03    -0.04  -0.04   0.00
  51   7    -0.18  -0.36   0.04    -0.06  -0.23  -0.04     0.02   0.02   0.24
  52   1    -0.07  -0.10   0.01    -0.01  -0.06  -0.01    -0.02  -0.01   0.06
  53   1    -0.02  -0.07   0.03    -0.02  -0.04  -0.01     0.01  -0.01   0.06
                     16                     17                     18
                        a                      a                      a 
 Frequencies --   116.3234               121.0636               125.2525
 Red. masses --    13.8620                12.6726                12.5493
 Frc consts  --     0.0000                 0.0000                 0.0000
 IR Inten    --    11.1427                11.0649                 5.0611
 Raman Activ --     0.0000                 0.0000                 0.0000
 Depolar     --     0.0000                 0.0000                 0.0000
 Atom AN      X      Y      Z        X      Y      Z        X      Y      Z
   1   8     0.01  -0.06  -0.06    -0.07   0.03   0.04     0.01   0.07  -0.12
   2   6     0.01  -0.01  -0.02    -0.09   0.08  -0.13     0.03  -0.00   0.02
   3   1     0.00   0.00  -0.00    -0.07   0.04  -0.04     0.04  -0.01   0.01
   4   1     0.01   0.00  -0.01    -0.02   0.03  -0.08    -0.00  -0.01   0.03
   5   6    -0.04  -0.02   0.01     0.03   0.05  -0.16    -0.05  -0.01   0.06
   6   1    -0.02  -0.01  -0.00     0.04   0.00  -0.04    -0.04   0.00   0.01
   7   1    -0.01  -0.01   0.02     0.01   0.03  -0.08    -0.02  -0.01   0.04
   8   7    -0.01  -0.02   0.01    -0.03   0.05  -0.11     0.00   0.00   0.02
   9   6    -0.01   0.01  -0.07    -0.04  -0.01  -0.18     0.01   0.05   0.07
  10   1    -0.02   0.02  -0.02    -0.03  -0.03  -0.07     0.01   0.03   0.03
  11   1     0.00   0.00  -0.04    -0.02  -0.00  -0.03     0.01   0.02   0.00
  12   1     0.01  -0.01  -0.02     0.01   0.02  -0.07    -0.01   0.00   0.03
  13   6    -0.06  -0.03   0.05    -0.14   0.01  -0.03     0.07   0.01  -0.02
  14   1    -0.02  -0.02   0.03    -0.04   0.00   0.02     0.02   0.01  -0.03
  15   1    -0.00  -0.01   0.00    -0.04   0.00  -0.01     0.01   0.00  -0.00
  16   1    -0.04   0.00   0.01    -0.06  -0.00  -0.02     0.04  -0.00   0.00
  17   6     0.08  -0.03   0.05     0.03   0.14  -0.02    -0.03  -0.06  -0.03
  18   1     0.02  -0.01   0.04     0.02   0.09   0.03    -0.02  -0.06  -0.04
  19   1     0.04  -0.01   0.00     0.06   0.02  -0.03    -0.05   0.01   0.00
  20   1     0.03  -0.01   0.01    -0.04   0.03  -0.01     0.03  -0.01  -0.00
  21   1     0.00  -0.00  -0.01     0.01  -0.00   0.01    -0.02   0.04  -0.02
  22   6     0.06   0.01  -0.09     0.01   0.01   0.01     0.10  -0.00   0.05
  23   8     0.15   0.01  -0.18     0.09   0.02   0.01     0.20   0.02   0.16
  24   7     0.10  -0.06   0.13    -0.01  -0.06   0.05     0.03  -0.07  -0.04
  25   1     0.04  -0.04   0.03     0.01  -0.03   0.02     0.02  -0.02   0.00
  26   1    -0.01  -0.02   0.02    -0.02  -0.02   0.01    -0.01  -0.02  -0.02
  27   7    -0.07   0.09  -0.23    -0.05   0.06  -0.03     0.07   0.03   0.04
  28   1    -0.03   0.02  -0.02    -0.03   0.02  -0.00     0.00   0.01  -0.01
  29   1     0.00   0.05  -0.02    -0.01   0.03  -0.00     0.02   0.01   0.00
  30   6    -0.06  -0.03   0.01    -0.06  -0.10  -0.06    -0.06  -0.05  -0.07
  31   8     0.04   0.14   0.11    -0.06  -0.08  -0.07     0.09   0.19   0.05
  32   7    -0.25  -0.26  -0.11    -0.03  -0.06  -0.01    -0.15  -0.12  -0.09
  33   1    -0.08  -0.08  -0.04    -0.00  -0.01   0.01     0.00   0.03   0.02
  34   1    -0.06  -0.06  -0.03    -0.00  -0.02   0.00    -0.04  -0.05  -0.02
  35   7    -0.03  -0.01   0.03    -0.10  -0.20  -0.12    -0.23  -0.27  -0.22
  36   1    -0.02  -0.04  -0.01    -0.02  -0.05  -0.03    -0.07  -0.10  -0.07
  37   1     0.04   0.03   0.03    -0.03  -0.06  -0.04    -0.04  -0.05  -0.05
  38   6    -0.02  -0.01  -0.07     0.14  -0.06   0.11     0.01  -0.05   0.01
  39   8    -0.11   0.01  -0.21     0.38  -0.10   0.40    -0.22  -0.06  -0.04
  40   7     0.01   0.04   0.05     0.03  -0.25  -0.13     0.13   0.19   0.01
  41   1    -0.01   0.03   0.00     0.04  -0.12  -0.01     0.00   0.10  -0.01
  42   1     0.02   0.01   0.04    -0.04  -0.07  -0.07     0.09   0.06   0.01
  43   7     0.02  -0.06  -0.04     0.02   0.11   0.03     0.15  -0.23   0.08
  44   1     0.02  -0.02   0.01    -0.03   0.04  -0.04     0.07  -0.06   0.02
  45   1     0.00  -0.02  -0.02     0.02   0.06   0.03     0.03  -0.08   0.01
  46   6     0.05   0.10   0.15     0.01   0.09   0.11    -0.05   0.07   0.02
  47   8     0.12   0.45   0.42     0.06   0.12   0.13    -0.08  -0.09  -0.11
  48   7     0.02  -0.18   0.06     0.02   0.22   0.17     0.05   0.40   0.19
  49   1     0.01  -0.02   0.02     0.00   0.05   0.03     0.01   0.07   0.04
  50   1    -0.01  -0.12  -0.04    -0.01   0.05   0.04     0.02   0.13   0.07
  51   7     0.02  -0.02   0.00    -0.07  -0.08   0.08    -0.11  -0.05  -0.03
  52   1    -0.01  -0.08  -0.06    -0.02  -0.00   0.04    -0.02   0.03   0.02
  53   1    -0.00   0.03  -0.00     0.01  -0.01   0.04    -0.04  -0.05  -0.02
                     19                     20                     21
                        a                      a                      a 
 Frequencies --   137.7403               150.9958               154.1880
 Red. masses --    13.0474                13.4410                12.7867
 Frc consts  --     0.0000                 0.0000                 0.0000
 IR Inten    --    11.1596                10.6659                 5.4891
 Raman Activ --     0.0000                 0.0000                 0.0000
 Depolar     --     0.0000                 0.0000                 0.0000
 Atom AN      X      Y      Z        X      Y      Z        X      Y      Z
   1   8     0.01   0.09  -0.07    -0.06   0.09   0.17    -0.04   0.16   0.26
   2   6     0.02   0.03  -0.03    -0.04  -0.05   0.08    -0.01  -0.09   0.14
   3   1     0.02   0.00  -0.01    -0.01  -0.04   0.01     0.01  -0.07   0.02
   4   1    -0.00   0.00  -0.00    -0.03  -0.03   0.04    -0.04  -0.05   0.08
   5   6     0.02   0.04  -0.04     0.08  -0.01  -0.01     0.13   0.01   0.00
   6   1     0.00   0.02  -0.01     0.06  -0.00   0.01     0.08   0.01   0.02
   7   1     0.01   0.01  -0.01     0.03   0.01  -0.04     0.04   0.02  -0.04
   8   7     0.03   0.04  -0.07     0.01  -0.03  -0.02     0.05  -0.01  -0.07
   9   6     0.03   0.05  -0.05     0.00  -0.08  -0.02     0.04  -0.07  -0.05
  10   1     0.01   0.02  -0.01     0.00  -0.05  -0.02     0.01  -0.06  -0.03
  11   1     0.01   0.01  -0.02    -0.01  -0.02   0.03     0.00  -0.02   0.02
  12   1     0.01   0.01  -0.01     0.01   0.00  -0.02     0.02   0.00  -0.03
  13   6     0.03   0.05  -0.07    -0.03   0.02  -0.02    -0.00   0.07  -0.08
  14   1     0.01   0.02  -0.02    -0.01   0.00   0.01     0.00   0.02  -0.01
  15   1     0.00   0.01  -0.02    -0.00   0.01  -0.02    -0.00   0.02  -0.04
  16   1     0.01   0.01  -0.02    -0.02   0.02  -0.00    -0.01   0.03  -0.02
  17   6     0.02   0.02  -0.08    -0.02  -0.01  -0.03     0.01  -0.05  -0.10
  18   1     0.00  -0.00  -0.03     0.01   0.05   0.02     0.02   0.04   0.00
  19   1    -0.00   0.01  -0.02     0.03  -0.05  -0.01     0.04  -0.08  -0.03
  20   1     0.01   0.01  -0.02    -0.06  -0.01  -0.03    -0.06  -0.02  -0.08
  21   1    -0.01   0.01  -0.03    -0.01   0.02   0.04    -0.02   0.04   0.07
  22   6    -0.11   0.08   0.12     0.19   0.03   0.06    -0.09   0.11  -0.05
  23   8    -0.11   0.13   0.33     0.48   0.08   0.27     0.08   0.14  -0.16
  24   7    -0.14   0.15  -0.03     0.04  -0.20  -0.06    -0.14  -0.04   0.10
  25   1    -0.04   0.06   0.02     0.06  -0.08   0.04    -0.02  -0.05   0.00
  26   1    -0.04   0.03  -0.06    -0.04  -0.06  -0.02    -0.09  -0.02   0.01
  27   7    -0.11   0.00   0.02     0.04   0.11  -0.08    -0.20   0.27  -0.08
  28   1    -0.03   0.00  -0.03    -0.04   0.03  -0.08    -0.06   0.07   0.02
  29   1    -0.03  -0.00   0.02     0.02   0.06  -0.02    -0.05   0.08  -0.02
  30   6    -0.11  -0.01  -0.11     0.04   0.06  -0.04     0.06   0.02  -0.04
  31   8    -0.23  -0.16  -0.19     0.04   0.04  -0.04     0.13   0.11  -0.00
  32   7    -0.19  -0.07  -0.12    -0.00   0.01  -0.09     0.02  -0.03  -0.07
  33   1    -0.09  -0.05  -0.06    -0.00   0.00  -0.03     0.03   0.02  -0.00
  34   1    -0.03  -0.01  -0.02     0.02   0.01  -0.02     0.02   0.00  -0.01
  35   7     0.05   0.22   0.03     0.07   0.12  -0.02     0.02  -0.07  -0.11
  36   1     0.03   0.08   0.03     0.03   0.05   0.02     0.00  -0.03  -0.03
  37   1     0.02   0.07   0.03     0.04   0.05   0.02     0.03  -0.00  -0.03
  38   6     0.18  -0.08   0.00    -0.06  -0.01   0.10    -0.02   0.03  -0.07
  39   8     0.07  -0.10  -0.08    -0.10  -0.05   0.32     0.03   0.07  -0.22
  40   7     0.25   0.04  -0.06    -0.04   0.08  -0.04    -0.05  -0.06   0.04
  41   1     0.05   0.04  -0.04    -0.02   0.02   0.02    -0.00  -0.02  -0.00
  42   1     0.10   0.01   0.01     0.00   0.03  -0.05    -0.03  -0.02   0.04
  43   7     0.26  -0.22   0.16    -0.03  -0.04  -0.01    -0.06   0.08  -0.03
  44   1     0.09  -0.06   0.04     0.00   0.01  -0.05    -0.02   0.01   0.02
  45   1     0.07  -0.07   0.02    -0.01  -0.01   0.01    -0.01   0.03  -0.02
  46   6    -0.00  -0.08   0.08    -0.15  -0.03  -0.11     0.01  -0.16   0.12
  47   8    -0.01  -0.08   0.10    -0.17   0.06  -0.06    -0.18  -0.37   0.07
  48   7    -0.04  -0.21   0.02    -0.16  -0.25  -0.21     0.13  -0.11   0.26
  49   1    -0.01  -0.03   0.02    -0.05  -0.05  -0.04     0.03  -0.03   0.08
  50   1    -0.01  -0.05   0.01    -0.03  -0.07  -0.07     0.05  -0.00   0.09
  51   7     0.06   0.03   0.16    -0.12   0.05  -0.10     0.09  -0.02   0.10
  52   1     0.01  -0.01   0.03    -0.04  -0.01  -0.04     0.07   0.03   0.04
  53   1     0.01   0.01   0.04    -0.02   0.02  -0.02     0.00  -0.01   0.01
                     22                     23                     24
                        a                      a                      a 
 Frequencies --   165.5964               177.3196               191.3793
 Red. masses --    10.1480                13.3027                13.2351
 Frc consts  --     0.0000                 0.0000                 0.0000
 IR Inten    --    17.5665                 3.3624                 9.2054
 Raman Activ --     0.0000                 0.0000                 0.0000
 Depolar     --     0.0000                 0.0000                 0.0000
 Atom AN      X      Y      Z        X      Y      Z        X      Y      Z
   1   8    -0.10   0.28   0.24    -0.04   0.03  -0.02     0.02   0.23  -0.19
   2   6    -0.03  -0.14   0.16    -0.02  -0.01   0.01     0.05   0.01  -0.04
   3   1     0.04  -0.11   0.02     0.00  -0.00   0.00     0.06  -0.02  -0.02
   4   1    -0.08  -0.08   0.11    -0.01  -0.01   0.00    -0.02  -0.02   0.02
   5   6     0.18  -0.07   0.00    -0.01  -0.02   0.01     0.02   0.01  -0.03
   6   1     0.13  -0.03   0.03     0.00  -0.01   0.01    -0.00  -0.00  -0.01
   7   1     0.06   0.01  -0.08    -0.00  -0.00  -0.00     0.01   0.00  -0.00
   8   7     0.00  -0.11   0.03    -0.02  -0.03   0.02     0.01   0.01  -0.03
   9   6    -0.02  -0.26  -0.04    -0.02  -0.04  -0.03     0.01   0.01  -0.01
  10   1    -0.02  -0.16  -0.06    -0.01  -0.03  -0.02     0.00  -0.02  -0.01
  11   1    -0.03  -0.08   0.08    -0.01  -0.01   0.00     0.00   0.00   0.02
  12   1     0.03  -0.01  -0.07     0.00  -0.00  -0.02     0.00   0.02  -0.01
  13   6    -0.14  -0.03   0.07    -0.07  -0.02   0.04     0.00  -0.00  -0.02
  14   1    -0.05  -0.03   0.07    -0.02   0.01   0.01     0.00   0.00  -0.00
  15   1    -0.02  -0.00  -0.02    -0.04  -0.01   0.02    -0.00  -0.00  -0.00
  16   1    -0.09   0.03   0.01    -0.02  -0.03   0.01     0.00  -0.01  -0.01
  17   6    -0.00  -0.03   0.08     0.02   0.00   0.06    -0.02   0.02  -0.03
  18   1     0.04   0.16   0.14     0.01   0.02   0.04    -0.00   0.01  -0.01
  19   1     0.14  -0.15  -0.00     0.03  -0.01   0.01    -0.01   0.01  -0.01
  20   1    -0.19  -0.02  -0.06    -0.02  -0.00   0.01    -0.01   0.01  -0.01
  21   1    -0.06   0.07   0.06    -0.02   0.01  -0.00    -0.05   0.07  -0.05
  22   6    -0.00  -0.07   0.00    -0.15   0.07   0.02     0.07  -0.03  -0.16
  23   8    -0.19  -0.11  -0.01    -0.04   0.10  -0.03     0.10  -0.07  -0.40
  24   7     0.08   0.09  -0.05    -0.19  -0.03   0.11     0.07  -0.18   0.04
  25   1    -0.01   0.06  -0.02    -0.03  -0.03   0.03     0.03  -0.09  -0.02
  26   1     0.07   0.04   0.00    -0.08  -0.01   0.03    -0.00  -0.04   0.07
  27   7     0.12  -0.18   0.08    -0.23   0.16  -0.04     0.04   0.09  -0.06
  28   1     0.05  -0.05   0.01    -0.07   0.04   0.01     0.01   0.02   0.04
  29   1     0.03  -0.06   0.01    -0.06   0.07  -0.01     0.01   0.03  -0.03
  30   6    -0.04   0.05  -0.09    -0.02   0.01  -0.00    -0.14   0.05   0.14
  31   8    -0.10   0.10  -0.17    -0.02   0.05  -0.01    -0.34  -0.02  -0.02
  32   7    -0.06   0.06   0.04    -0.05  -0.01   0.01    -0.07   0.18   0.39
  33   1    -0.05   0.02   0.01    -0.02  -0.00   0.00    -0.03   0.06   0.11
  34   1    -0.02  -0.01   0.02    -0.01  -0.01   0.00     0.03   0.06   0.14
  35   7     0.07  -0.01  -0.13     0.00  -0.01  -0.02    -0.01   0.02   0.18
  36   1     0.03  -0.03  -0.02     0.01  -0.01   0.00    -0.01  -0.01   0.04
  37   1     0.02  -0.01  -0.07     0.02   0.01  -0.00    -0.08  -0.06  -0.03
  38   6     0.04  -0.01  -0.03    -0.09  -0.00   0.10     0.07  -0.05   0.05
  39   8    -0.02   0.00  -0.13    -0.20  -0.04   0.29    -0.02  -0.07   0.11
  40   7     0.06   0.04   0.01    -0.02   0.19   0.01     0.12   0.09  -0.02
  41   1     0.01   0.03  -0.02    -0.03   0.07   0.02     0.02   0.05  -0.00
  42   1     0.03   0.01   0.01     0.03   0.06  -0.05     0.06   0.03  -0.02
  43   7     0.06  -0.06   0.06    -0.02  -0.08   0.01     0.12  -0.12   0.06
  44   1     0.02  -0.02   0.03     0.02  -0.01  -0.03     0.04  -0.03   0.01
  45   1     0.02  -0.02  -0.01    -0.01  -0.03   0.01     0.03  -0.04   0.02
  46   6     0.02   0.12  -0.02     0.30  -0.07  -0.14    -0.03  -0.05  -0.01
  47   8     0.08   0.20   0.01     0.45  -0.04  -0.16    -0.16  -0.08   0.00
  48   7     0.00   0.15  -0.04     0.22   0.04  -0.19     0.07  -0.08   0.08
  49   1    -0.00   0.03  -0.01     0.07   0.04  -0.06     0.02  -0.04   0.03
  50   1    -0.01   0.03  -0.02     0.03   0.00  -0.05     0.03  -0.05  -0.01
  51   7    -0.02   0.02  -0.07     0.22  -0.24  -0.03     0.02   0.06  -0.08
  52   1    -0.01  -0.00  -0.02     0.02  -0.06   0.00     0.02   0.01  -0.03
  53   1    -0.00   0.02  -0.02     0.08  -0.09   0.00    -0.01   0.01  -0.03
                     25                     26                     27
                        a                      a                      a 
 Frequencies --   201.4549               227.1967               236.9834
 Red. masses --    12.4872                 4.4762                12.9981
 Frc consts  --     0.0000                 0.0000                 0.0000
 IR Inten    --    93.6281                 1.4804                18.3699
 Raman Activ --     0.0000                 0.0000                 0.0000
 Depolar     --     0.0000                 0.0000                 0.0000
 Atom AN      X      Y      Z        X      Y      Z        X      Y      Z
   1   8    -0.01   0.04  -0.06     0.02   0.17   0.28     0.01  -0.61   0.28
   2   6     0.01  -0.01   0.01     0.00   0.12  -0.03    -0.10  -0.03   0.05
   3   1     0.02  -0.01   0.00    -0.05   0.09   0.01    -0.13   0.04   0.02
   4   1    -0.01  -0.01   0.02    -0.01   0.03  -0.09     0.07   0.04  -0.05
   5   6    -0.01  -0.01   0.01     0.15  -0.04  -0.01    -0.05   0.04   0.01
   6   1    -0.00  -0.00   0.00     0.06  -0.04  -0.00    -0.01   0.02   0.01
   7   1    -0.00  -0.00   0.01     0.05   0.01  -0.02    -0.02   0.00  -0.01
   8   7    -0.02  -0.01   0.02     0.02  -0.09   0.01     0.03   0.07   0.02
   9   6    -0.02  -0.02  -0.00    -0.01  -0.22  -0.10     0.03   0.05   0.04
  10   1    -0.01  -0.03  -0.01     0.01   0.04   0.03     0.03   0.08   0.05
  11   1    -0.01  -0.01   0.02    -0.03  -0.07  -0.17    -0.01   0.01  -0.07
  12   1     0.00   0.01  -0.01     0.01  -0.19   0.04     0.00  -0.06   0.06
  13   6    -0.03  -0.02   0.03    -0.16   0.01   0.05     0.10   0.05   0.00
  14   1    -0.01   0.00   0.00    -0.01   0.18  -0.04     0.03   0.02  -0.02
  15   1    -0.02  -0.01   0.01    -0.23  -0.03   0.08     0.03   0.01   0.01
  16   1    -0.00  -0.02   0.00     0.05  -0.12   0.00     0.05   0.01   0.01
  17   6     0.00   0.01   0.04     0.04  -0.09   0.01     0.04   0.09   0.04
  18   1     0.01   0.02   0.03    -0.08  -0.35  -0.23     0.02   0.06   0.04
  19   1     0.02  -0.01   0.01    -0.25   0.28   0.04     0.04   0.00   0.00
  20   1    -0.02   0.00   0.01     0.38  -0.00   0.19    -0.02   0.02   0.00
  21   1    -0.02   0.01  -0.01     0.04   0.03   0.07     0.08  -0.12   0.12
  22   6     0.05   0.01   0.00     0.00  -0.00  -0.01     0.02  -0.00  -0.03
  23   8     0.20   0.02  -0.00    -0.00  -0.01  -0.01     0.02  -0.01  -0.08
  24   7    -0.03  -0.20   0.04     0.01  -0.01  -0.00     0.01  -0.05  -0.00
  25   1     0.04  -0.09   0.06     0.00  -0.00   0.00     0.02  -0.02   0.01
  26   1    -0.04  -0.05   0.07     0.01   0.00   0.01     0.01  -0.00   0.05
  27   7    -0.04   0.10  -0.04     0.01  -0.00   0.00     0.01   0.02  -0.01
  28   1    -0.04   0.03  -0.03    -0.00  -0.00  -0.01     0.00   0.01  -0.00
  29   1    -0.00   0.05  -0.03     0.00  -0.00  -0.00     0.00   0.00  -0.01
  30   6    -0.02   0.02   0.06    -0.03   0.03  -0.02    -0.11   0.15  -0.10
  31   8    -0.07   0.02   0.02    -0.04   0.04  -0.05    -0.18   0.23  -0.22
  32   7     0.01   0.07   0.11    -0.03   0.02   0.02    -0.16   0.14   0.14
  33   1     0.00   0.02   0.03    -0.02   0.01   0.01    -0.09   0.04   0.04
  34   1    -0.00   0.01   0.03    -0.00   0.00   0.01    -0.02   0.02   0.07
  35   7    -0.00   0.00   0.06     0.04   0.00  -0.04     0.17  -0.02  -0.20
  36   1    -0.00  -0.01   0.01     0.02  -0.01  -0.00     0.07  -0.07  -0.01
  37   1    -0.01  -0.01  -0.00     0.02   0.00  -0.03     0.08   0.01  -0.13
  38   6     0.07   0.01  -0.11     0.01   0.01  -0.01     0.03  -0.02   0.00
  39   8     0.10   0.05  -0.34     0.00   0.01  -0.04    -0.01  -0.02  -0.01
  40   7     0.04  -0.10   0.01     0.01   0.01   0.00     0.05   0.03   0.00
  41   1     0.02  -0.03  -0.02     0.00   0.00  -0.00     0.01   0.02  -0.01
  42   1    -0.01  -0.03   0.07     0.00   0.00   0.01     0.03   0.01  -0.01
  43   7     0.03   0.03   0.02     0.00   0.00   0.01     0.04  -0.05   0.05
  44   1    -0.00  -0.00   0.04     0.00  -0.00   0.00     0.01  -0.01  -0.01
  45   1     0.02   0.02  -0.01     0.00   0.00  -0.01     0.02  -0.00  -0.01
  46   6    -0.05  -0.00   0.01    -0.00   0.02  -0.01    -0.01  -0.01  -0.00
  47   8     0.30  -0.07  -0.15     0.01   0.03  -0.01    -0.02  -0.03  -0.02
  48   7    -0.36   0.17  -0.23    -0.01   0.02  -0.02     0.00   0.01   0.01
  49   1    -0.09   0.03  -0.14    -0.00   0.00  -0.01     0.00  -0.00   0.00
  50   1    -0.15   0.07  -0.02    -0.00   0.00  -0.00     0.00   0.00   0.00
  51   7    -0.10  -0.08   0.43    -0.00   0.01  -0.01    -0.00   0.00   0.01
  52   1    -0.10  -0.03   0.12    -0.00   0.00  -0.00     0.00   0.00   0.00
  53   1     0.01  -0.03   0.15     0.00   0.00  -0.00    -0.00  -0.00   0.00
                     28                     29                     30
                        a                      a                      a 
 Frequencies --   254.1765               279.8356               295.4840
 Red. masses --     2.7859                 4.3177                 5.8619
 Frc consts  --     0.0000                 0.0000                 0.0000
 IR Inten    --   154.9858                 0.9303                 0.5497
 Raman Activ --     0.0000                 0.0000                 0.0000
 Depolar     --     0.0000                 0.0000                 0.0000
 Atom AN      X      Y      Z        X      Y      Z        X      Y      Z
   1   8     0.01   0.02  -0.01     0.14  -0.05   0.16    -0.03   0.06   0.01
   2   6     0.01   0.00  -0.00     0.12  -0.13   0.10     0.05  -0.32   0.15
   3   1     0.01  -0.00   0.00     0.05  -0.08   0.01     0.11  -0.22  -0.01
   4   1     0.00  -0.00   0.00     0.03  -0.04   0.09    -0.05  -0.13   0.21
   5   6    -0.00   0.00   0.00     0.03   0.05  -0.02     0.01   0.02  -0.08
   6   1    -0.00   0.00  -0.00     0.03   0.02   0.01     0.03   0.03  -0.00
   7   1    -0.00   0.00   0.00     0.01   0.05  -0.01     0.01   0.03  -0.04
   8   7    -0.00   0.00  -0.00    -0.09   0.03  -0.07    -0.02   0.04  -0.08
   9   6    -0.00   0.01   0.00    -0.05   0.23  -0.09    -0.01   0.19  -0.14
  10   1    -0.00  -0.01  -0.01    -0.09  -0.15  -0.16     0.00   0.30   0.07
  11   1     0.00   0.00   0.02     0.06   0.09   0.25     0.02   0.05  -0.32
  12   1    -0.00   0.02  -0.01     0.00   0.32  -0.18    -0.02  -0.15   0.09
  13   6     0.00  -0.01  -0.00    -0.05  -0.25   0.05     0.06  -0.32   0.05
  14   1    -0.00  -0.01   0.00    -0.07  -0.33   0.13     0.04   0.02  -0.09
  15   1     0.01   0.00  -0.00     0.24  -0.03  -0.04    -0.10  -0.11   0.18
  16   1    -0.01   0.00  -0.00    -0.21   0.06  -0.02     0.12  -0.25  -0.02
  17   6    -0.01  -0.01  -0.01    -0.15   0.06  -0.09    -0.10   0.33   0.05
  18   1    -0.00  -0.01  -0.01    -0.10  -0.16  -0.19    -0.02   0.15  -0.01
  19   1    -0.01   0.00  -0.00    -0.22   0.19   0.01    -0.03   0.12   0.00
  20   1     0.01  -0.00   0.00     0.16   0.03   0.09    -0.07   0.08   0.08
  21   1    -0.00   0.00  -0.00     0.03   0.00   0.05    -0.07   0.04   0.01
  22   6     0.01   0.04   0.06    -0.00  -0.00  -0.00    -0.00   0.00   0.00
  23   8    -0.02   0.03  -0.01    -0.00  -0.00  -0.00     0.00   0.00   0.00
  24   7    -0.14  -0.06  -0.31     0.00  -0.00   0.01    -0.00   0.00  -0.01
  25   1     0.15   0.09   0.41    -0.01  -0.01  -0.02     0.00   0.00   0.01
  26   1     0.28   0.18   0.72    -0.01  -0.01  -0.03     0.01   0.00   0.01
  27   7    -0.02  -0.01  -0.02     0.00   0.00   0.01    -0.00  -0.00  -0.00
  28   1    -0.05  -0.00  -0.16     0.00   0.00   0.01     0.00  -0.00   0.00
  29   1    -0.02  -0.01  -0.06     0.00   0.00  -0.00    -0.00  -0.00   0.00
  30   6     0.01  -0.01  -0.01    -0.02   0.02  -0.02     0.02  -0.01  -0.00
  31   8     0.03  -0.02   0.01    -0.02   0.03  -0.03     0.02  -0.02   0.01
  32   7     0.02  -0.02  -0.02    -0.02   0.03   0.02     0.00  -0.03  -0.03
  33   1    -0.01  -0.02  -0.02    -0.02  -0.01  -0.01     0.02   0.02   0.01
  34   1    -0.01  -0.00  -0.01    -0.00   0.00   0.01     0.00  -0.01  -0.01
  35   7     0.00  -0.00   0.01     0.03  -0.01  -0.05    -0.00   0.01   0.01
  36   1    -0.01  -0.01  -0.02     0.02  -0.01  -0.00    -0.00   0.01  -0.00
  37   1    -0.01  -0.01  -0.00     0.02   0.01  -0.02    -0.01  -0.00   0.01
  38   6    -0.00  -0.00   0.00     0.00  -0.00   0.00     0.00   0.00  -0.00
  39   8    -0.00  -0.00   0.01    -0.00  -0.01   0.00     0.01   0.00   0.00
  40   7    -0.00   0.00   0.00     0.00   0.00   0.00    -0.00  -0.01   0.00
  41   1    -0.00   0.00   0.00     0.00   0.00  -0.00     0.00  -0.00  -0.01
  42   1    -0.00   0.00  -0.00     0.00   0.00  -0.01    -0.00  -0.00  -0.01
  43   7    -0.00   0.00  -0.00     0.00  -0.01   0.01     0.00   0.01  -0.00
  44   1    -0.00  -0.00  -0.00     0.00  -0.00  -0.00    -0.00  -0.00   0.01
  45   1    -0.00  -0.00   0.00     0.00  -0.00  -0.00    -0.00   0.00   0.00
  46   6     0.01  -0.01   0.02     0.02   0.00   0.00    -0.00   0.01  -0.00
  47   8    -0.02  -0.01   0.03     0.03   0.01   0.00    -0.00   0.02   0.00
  48   7     0.03  -0.00   0.05     0.00   0.01  -0.02     0.00   0.00  -0.00
  49   1     0.01  -0.01  -0.00     0.00   0.00  -0.01     0.00   0.00  -0.00
  50   1     0.00  -0.03  -0.01    -0.00   0.00  -0.00     0.00   0.00  -0.00
  51   7     0.02   0.00  -0.02     0.01  -0.02   0.01     0.00   0.01  -0.01
  52   1     0.01   0.00  -0.01    -0.00  -0.00   0.01    -0.00   0.00  -0.00
  53   1    -0.00   0.00  -0.01     0.01   0.00   0.01    -0.00  -0.01  -0.00
                     31                     32                     33
                        a                      a                      a 
 Frequencies --   318.7447               332.0218               333.3788
 Red. masses --     3.0655                 6.9044                 3.5405
 Frc consts  --     0.0000                 0.0000                 0.0000
 IR Inten    --     0.9464                22.6809               160.9064
 Raman Activ --     0.0000                 0.0000                 0.0000
 Depolar     --     0.0000                 0.0000                 0.0000
 Atom AN      X      Y      Z        X      Y      Z        X      Y      Z
   1   8    -0.12  -0.15  -0.13    -0.22  -0.09  -0.23    -0.09  -0.03  -0.10
   2   6    -0.08  -0.18   0.08    -0.14  -0.10   0.15    -0.06  -0.03   0.05
   3   1     0.03  -0.10   0.00     0.03  -0.06   0.03     0.01  -0.02   0.01
   4   1    -0.03  -0.06   0.10    -0.06  -0.04   0.12    -0.03  -0.01   0.04
   5   6    -0.04  -0.00  -0.01    -0.02   0.03   0.06    -0.01   0.01   0.02
   6   1    -0.01   0.02   0.01     0.02   0.05   0.05     0.01   0.02   0.02
   7   1    -0.01  -0.02  -0.01    -0.01  -0.03  -0.03    -0.01  -0.01  -0.01
   8   7     0.06   0.04  -0.04     0.12   0.08   0.00     0.05   0.03  -0.00
   9   6     0.07   0.00   0.06     0.06  -0.34  -0.08     0.03  -0.14  -0.03
  10   1     0.00  -0.31  -0.13     0.04  -0.10  -0.01     0.02  -0.04  -0.01
  11   1     0.02   0.01   0.39    -0.09  -0.12  -0.07    -0.04  -0.05  -0.02
  12   1     0.04   0.30  -0.16     0.07  -0.18  -0.01     0.03  -0.07  -0.00
  13   6    -0.01   0.11  -0.04     0.12   0.18  -0.03     0.05   0.08  -0.02
  14   1     0.07   0.36  -0.17    -0.00  -0.13   0.08     0.00  -0.05   0.03
  15   1    -0.33  -0.02   0.14     0.22   0.09  -0.14     0.09   0.03  -0.06
  16   1     0.23  -0.20  -0.01    -0.09   0.22   0.01    -0.03   0.09   0.00
  17   6     0.12   0.12   0.04     0.06   0.30   0.09     0.03   0.11   0.03
  18   1     0.02  -0.02  -0.02    -0.01  -0.00  -0.07    -0.00  -0.00  -0.03
  19   1     0.01   0.11  -0.00    -0.08   0.23   0.03    -0.03   0.09   0.01
  20   1     0.10   0.04   0.07     0.13   0.09   0.15     0.05   0.03   0.06
  21   1    -0.06  -0.03  -0.03    -0.10  -0.02  -0.07    -0.04  -0.00  -0.02
  22   6     0.00  -0.00   0.00    -0.00   0.00   0.00     0.00   0.00   0.00
  23   8    -0.01  -0.01   0.01    -0.00   0.00  -0.00     0.00   0.00   0.00
  24   7     0.01   0.01  -0.00    -0.00   0.00  -0.00    -0.00  -0.00   0.00
  25   1    -0.00   0.00  -0.01    -0.00   0.00   0.00     0.00  -0.00   0.00
  26   1     0.00   0.00  -0.01     0.00   0.00  -0.00    -0.00  -0.00   0.00
  27   7     0.00  -0.00   0.01    -0.00   0.00   0.00     0.00   0.00  -0.00
  28   1    -0.01  -0.00  -0.01    -0.00   0.00  -0.01     0.00   0.00  -0.00
  29   1     0.00   0.01  -0.01    -0.00  -0.00  -0.00     0.00  -0.00  -0.00
  30   6     0.01  -0.00  -0.00     0.02  -0.01   0.01     0.01  -0.01   0.01
  31   8     0.01   0.01   0.00     0.03  -0.01   0.01     0.01  -0.00   0.01
  32   7     0.01   0.01   0.00     0.02  -0.02  -0.01     0.01  -0.01  -0.00
  33   1    -0.01  -0.02  -0.01     0.01   0.00   0.01     0.01   0.00   0.00
  34   1     0.00   0.00  -0.00     0.00  -0.00  -0.00     0.00  -0.00  -0.00
  35   7    -0.01  -0.01  -0.01    -0.02   0.01   0.02    -0.02  -0.01  -0.00
  36   1    -0.00  -0.00  -0.00    -0.01   0.01  -0.01     0.00   0.02   0.01
  37   1     0.00   0.00   0.00    -0.02  -0.01   0.01     0.01   0.01   0.02
  38   6     0.00   0.00  -0.00    -0.01   0.00   0.02     0.01  -0.01  -0.06
  39   8     0.00   0.00  -0.00    -0.01   0.00   0.01     0.02  -0.01  -0.03
  40   7     0.00  -0.00  -0.00     0.02   0.01  -0.14    -0.04  -0.01   0.34
  41   1     0.00  -0.00   0.00    -0.03  -0.01   0.13     0.06   0.04  -0.33
  42   1    -0.00  -0.00   0.00    -0.02  -0.02   0.30     0.04   0.05  -0.77
  43   7     0.00   0.01   0.00    -0.00  -0.00   0.00     0.00   0.00  -0.02
  44   1    -0.00   0.00   0.00     0.01   0.02  -0.05    -0.02  -0.05   0.15
  45   1     0.00   0.00  -0.00     0.00   0.00  -0.01    -0.01  -0.01   0.03
  46   6    -0.01   0.02   0.01    -0.00  -0.01   0.00    -0.00  -0.00   0.01
  47   8    -0.02   0.03   0.02    -0.00  -0.02  -0.01    -0.01  -0.00   0.01
  48   7     0.00  -0.01   0.01     0.01  -0.01   0.01    -0.02  -0.00  -0.00
  49   1     0.00   0.00   0.01     0.00  -0.00   0.00    -0.00   0.00  -0.00
  50   1     0.00  -0.01   0.00     0.00  -0.00   0.00    -0.01   0.00   0.01
  51   7    -0.01   0.02  -0.02     0.00  -0.01  -0.00    -0.01   0.00   0.02
  52   1    -0.00  -0.00  -0.01     0.00  -0.00  -0.00    -0.00   0.01   0.01
  53   1    -0.01  -0.00  -0.01    -0.00   0.01  -0.00     0.00  -0.01   0.01
                     34                     35                     36
                        a                      a                      a 
 Frequencies --   369.4462               412.0704               419.1480
 Red. masses --     7.4543                 3.1812                 2.6670
 Frc consts  --     0.0000                 0.0000                 0.0000
 IR Inten    --     0.9225                84.3633               122.9433
 Raman Activ --     0.0000                 0.0000                 0.0000
 Depolar     --     0.0000                 0.0000                 0.0000
 Atom AN      X      Y      Z        X      Y      Z        X      Y      Z
   1   8     0.09   0.11   0.14    -0.01  -0.02   0.01     0.01   0.03  -0.00
   2   6     0.06   0.24   0.07    -0.01   0.02   0.02     0.02  -0.02  -0.01
   3   1    -0.02   0.18   0.07    -0.01   0.02   0.01     0.01  -0.01  -0.01
   4   1     0.04   0.09  -0.11     0.00   0.01  -0.01    -0.00  -0.01   0.01
   5   6    -0.20  -0.06   0.30     0.01  -0.01   0.02    -0.02   0.00  -0.02
   6   1    -0.23   0.04   0.03     0.01  -0.00   0.01    -0.01  -0.00  -0.01
   7   1    -0.07  -0.09   0.26     0.00  -0.00   0.00    -0.01   0.00   0.00
   8   7    -0.00  -0.06  -0.05     0.01  -0.01   0.01    -0.03   0.01  -0.02
   9   6    -0.03  -0.21  -0.32     0.01  -0.01  -0.03    -0.03   0.00   0.04
  10   1    -0.07  -0.15  -0.16    -0.01  -0.01  -0.02     0.01   0.01   0.02
  11   1    -0.05  -0.07  -0.01     0.00  -0.00   0.01    -0.01  -0.00  -0.00
  12   1     0.08  -0.00  -0.17     0.01   0.01  -0.02    -0.02  -0.01   0.02
  13   6     0.27  -0.21  -0.14     0.01  -0.00   0.00     0.00  -0.00  -0.03
  14   1     0.09  -0.03  -0.16     0.00   0.01  -0.00    -0.00  -0.01  -0.01
  15   1     0.06  -0.07   0.05    -0.00  -0.00   0.01     0.01   0.00  -0.01
  16   1     0.17  -0.12  -0.02     0.01  -0.01   0.00    -0.00   0.00  -0.01
  17   6    -0.13   0.14   0.00    -0.02  -0.00  -0.00     0.04   0.01   0.02
  18   1    -0.02   0.14   0.01    -0.00   0.01  -0.01     0.01  -0.01   0.02
  19   1     0.00   0.04  -0.02    -0.01  -0.00   0.00     0.02   0.01  -0.00
  20   1    -0.14   0.03   0.04    -0.01  -0.00   0.00     0.02   0.00   0.01
  21   1     0.05  -0.01   0.01     0.00  -0.01  -0.01     0.00   0.02   0.01
  22   6     0.00  -0.00  -0.00     0.02  -0.02   0.07    -0.00   0.01  -0.02
  23   8    -0.01  -0.00   0.00     0.01  -0.02   0.08    -0.00   0.01  -0.02
  24   7     0.00   0.00   0.00     0.00   0.00  -0.07     0.00  -0.01   0.02
  25   1    -0.00  -0.00  -0.00     0.01   0.03   0.03     0.00  -0.01  -0.01
  26   1    -0.00  -0.00  -0.01     0.02   0.00  -0.04    -0.01  -0.00   0.00
  27   7     0.00   0.00   0.01    -0.07   0.03  -0.12     0.02  -0.01   0.03
  28   1    -0.01   0.00  -0.01     0.11   0.01   0.31    -0.02  -0.00  -0.08
  29   1     0.00   0.01  -0.01    -0.01   0.01   0.03    -0.00  -0.00  -0.02
  30   6    -0.01   0.00  -0.00     0.00   0.01  -0.03    -0.01  -0.01   0.02
  31   8    -0.00   0.01   0.00    -0.01   0.01  -0.01    -0.01  -0.04   0.01
  32   7     0.01   0.02   0.01    -0.04  -0.05  -0.09     0.06   0.08   0.08
  33   1    -0.02  -0.02  -0.02     0.07   0.07   0.04    -0.08  -0.08  -0.06
  34   1    -0.00   0.01   0.00     0.00  -0.00  -0.02    -0.01   0.01   0.00
  35   7    -0.00  -0.01  -0.02     0.17   0.13   0.17    -0.13  -0.09  -0.12
  36   1     0.01  -0.00   0.01    -0.16  -0.21  -0.22     0.06   0.01   0.10
  37   1     0.02   0.02   0.01    -0.26  -0.23  -0.25     0.33   0.26   0.23
  38   6    -0.01  -0.00  -0.00    -0.01  -0.00   0.01    -0.01  -0.01  -0.01
  39   8    -0.00  -0.00  -0.01    -0.02   0.00  -0.00     0.01  -0.01  -0.02
  40   7     0.00   0.01  -0.00    -0.01  -0.01  -0.00     0.01   0.01  -0.00
  41   1    -0.00   0.01   0.00     0.00  -0.01  -0.01    -0.01   0.02  -0.01
  42   1     0.00   0.00   0.01    -0.01  -0.00  -0.01     0.01   0.00   0.04
  43   7    -0.01  -0.00   0.00     0.01   0.01  -0.03    -0.00  -0.02  -0.00
  44   1    -0.00   0.00  -0.01    -0.00  -0.02   0.07     0.00  -0.01   0.01
  45   1    -0.00   0.00  -0.01    -0.00  -0.00   0.03    -0.00  -0.01  -0.00
  46   6    -0.01   0.01   0.01    -0.02  -0.01  -0.03     0.02   0.05   0.04
  47   8    -0.00   0.02   0.01     0.04  -0.01  -0.05     0.04   0.01   0.01
  48   7     0.00  -0.02   0.01     0.04   0.11   0.13    -0.03  -0.02   0.03
  49   1     0.00   0.00   0.01     0.01  -0.06  -0.06    -0.00  -0.01  -0.05
  50   1     0.01   0.00   0.01    -0.13  -0.41  -0.34    -0.09  -0.20  -0.15
  51   7    -0.00   0.00  -0.00    -0.05  -0.01  -0.01    -0.10  -0.14  -0.13
  52   1    -0.00  -0.01  -0.01     0.09   0.23   0.16     0.27   0.55   0.38
  53   1    -0.01  -0.00  -0.01     0.03   0.02   0.04     0.05   0.02   0.03
                     37                     38                     39
                        a                      a                      a 
 Frequencies --   425.6364               435.0289               457.9782
 Red. masses --     8.6269                 3.1705                 3.0569
 Frc consts  --     0.0000                 0.0000                 0.0000
 IR Inten    --     2.3857               195.4297               300.8809
 Raman Activ --     0.0000                 0.0000                 0.0000
 Depolar     --     0.0000                 0.0000                 0.0000
 Atom AN      X      Y      Z        X      Y      Z        X      Y      Z
   1   8     0.13   0.12   0.15    -0.01   0.00  -0.03    -0.01   0.01  -0.03
   2   6     0.11  -0.08  -0.04    -0.01  -0.00  -0.00    -0.00   0.01   0.02
   3   1     0.04  -0.06  -0.03     0.00  -0.00  -0.00     0.01  -0.01   0.00
   4   1     0.02  -0.03   0.04    -0.01  -0.00  -0.00    -0.00   0.00   0.02
   5   6    -0.13   0.05  -0.08     0.02  -0.01   0.00    -0.01   0.04  -0.00
   6   1    -0.08   0.02  -0.04     0.01  -0.01   0.00    -0.00   0.02   0.00
   7   1    -0.04   0.04   0.05     0.01  -0.00  -0.01    -0.00   0.01  -0.00
   8   7    -0.29   0.02  -0.19     0.03  -0.01   0.03     0.01   0.03  -0.01
   9   6    -0.32  -0.08   0.23     0.03   0.01  -0.03     0.00  -0.03   0.01
  10   1     0.03  -0.04   0.11    -0.02   0.01  -0.01     0.01  -0.01   0.01
  11   1    -0.12  -0.03   0.10     0.01   0.00  -0.01    -0.01  -0.01  -0.00
  12   1    -0.16  -0.04   0.11     0.02   0.01  -0.01     0.00  -0.02   0.01
  13   6     0.04  -0.07  -0.33     0.01   0.02   0.02    -0.00  -0.03   0.03
  14   1    -0.00  -0.09  -0.16     0.00   0.01   0.01    -0.00  -0.01   0.01
  15   1     0.09  -0.01  -0.10    -0.01   0.01  -0.00    -0.00  -0.01   0.02
  16   1     0.05   0.03  -0.05     0.00   0.01   0.01    -0.01  -0.02  -0.00
  17   6     0.35   0.07   0.15    -0.03  -0.01   0.00     0.01  -0.01  -0.04
  18   1     0.09  -0.08   0.20    -0.01   0.01  -0.02     0.00  -0.01  -0.01
  19   1     0.22   0.12  -0.05    -0.02  -0.01   0.01     0.00  -0.01  -0.01
  20   1     0.20   0.03   0.09    -0.02  -0.00   0.00     0.01  -0.00  -0.02
  21   1     0.04   0.04   0.05    -0.01   0.01   0.00    -0.01   0.01   0.00
  22   6     0.01  -0.00   0.01     0.05  -0.04   0.07    -0.00   0.00  -0.00
  23   8     0.00  -0.00   0.01    -0.01  -0.05   0.08     0.01   0.00  -0.01
  24   7     0.00  -0.00  -0.02     0.01  -0.03  -0.15    -0.00   0.01   0.02
  25   1     0.00   0.01   0.01     0.03   0.04   0.09    -0.01  -0.00  -0.01
  26   1     0.01   0.00   0.00     0.07   0.01   0.03    -0.01  -0.00  -0.02
  27   7    -0.02   0.01  -0.04    -0.12   0.08  -0.25     0.01  -0.02   0.04
  28   1     0.03   0.00   0.09     0.29   0.03   0.75    -0.05  -0.00  -0.12
  29   1    -0.00  -0.00   0.01    -0.04  -0.02   0.00     0.01   0.01   0.01
  30   6    -0.01   0.00  -0.00    -0.03  -0.00   0.02    -0.03  -0.01   0.00
  31   8    -0.00  -0.00   0.00    -0.03  -0.03   0.03    -0.02  -0.05   0.03
  32   7    -0.00   0.00  -0.01     0.05   0.08   0.04     0.03   0.06  -0.02
  33   1     0.00   0.00  -0.00    -0.04  -0.04  -0.03    -0.03  -0.05  -0.05
  34   1    -0.00  -0.00  -0.01    -0.05  -0.02  -0.03     0.02   0.04  -0.01
  35   7     0.03   0.01   0.01    -0.06  -0.07  -0.08     0.01   0.02   0.04
  36   1    -0.01  -0.02  -0.01     0.06   0.00   0.09    -0.10  -0.22  -0.12
  37   1    -0.03  -0.03  -0.03     0.22   0.17   0.14     0.12   0.09   0.01
  38   6     0.00   0.00   0.01     0.00   0.00  -0.02    -0.00   0.09  -0.05
  39   8    -0.00   0.00   0.01     0.02   0.00  -0.01     0.02   0.09  -0.04
  40   7    -0.00  -0.01  -0.00     0.00   0.00   0.02    -0.09  -0.05   0.14
  41   1     0.00  -0.01   0.00    -0.00   0.01  -0.01     0.02  -0.01  -0.17
  42   1    -0.01  -0.00  -0.01     0.00   0.00   0.01    -0.06  -0.01  -0.03
  43   7     0.01  -0.00   0.00    -0.01  -0.02   0.04     0.06  -0.17   0.20
  44   1     0.00   0.00  -0.01     0.00   0.04  -0.11     0.03   0.24  -0.76
  45   1     0.00  -0.00   0.00     0.00   0.01  -0.02     0.04   0.02   0.06
  46   6    -0.01  -0.01  -0.00    -0.00   0.00  -0.01    -0.02  -0.02  -0.02
  47   8    -0.00  -0.01  -0.00    -0.01   0.00   0.01     0.01  -0.02  -0.03
  48   7    -0.00   0.01   0.00    -0.03  -0.01  -0.03     0.04   0.05   0.07
  49   1    -0.00  -0.01  -0.00    -0.01  -0.05  -0.01     0.01  -0.01  -0.00
  50   1     0.01   0.01   0.01     0.04   0.12   0.09    -0.03  -0.13  -0.11
  51   7     0.01   0.02   0.01     0.01   0.01  -0.01     0.00   0.04   0.03
  52   1    -0.03  -0.06  -0.04    -0.02  -0.07  -0.06    -0.04  -0.10  -0.07
  53   1    -0.01   0.00  -0.01    -0.01   0.01  -0.01     0.00   0.03   0.01
                     40                     41                     42
                        a                      a                      a 
 Frequencies --   463.5313               467.6955               469.1708
 Red. masses --     8.2807                 6.0084                 6.4362
 Frc consts  --     0.0000                 0.0000                 0.0000
 IR Inten    --    12.9464                59.1851                36.2646
 Raman Activ --     0.0000                 0.0000                 0.0000
 Depolar     --     0.0000                 0.0000                 0.0000
 Atom AN      X      Y      Z        X      Y      Z        X      Y      Z
   1   8    -0.04  -0.07  -0.09    -0.00   0.04   0.02    -0.03  -0.02  -0.07
   2   6    -0.05   0.18   0.17     0.02   0.00   0.00    -0.02   0.02   0.02
   3   1     0.01  -0.02   0.02     0.01   0.00   0.01     0.00  -0.03  -0.01
   4   1     0.02   0.07   0.13    -0.00  -0.00  -0.00    -0.00   0.01   0.04
   5   6    -0.03   0.38  -0.01    -0.10  -0.01   0.04     0.10   0.09  -0.07
   6   1     0.05   0.11   0.02    -0.15   0.06  -0.01     0.18  -0.04   0.02
   7   1    -0.01   0.11  -0.06    -0.04  -0.07   0.13     0.05   0.10  -0.16
   8   7    -0.01   0.32  -0.05     0.14   0.03  -0.16    -0.15   0.03   0.19
   9   6    -0.09  -0.21   0.04     0.14  -0.07   0.16    -0.17   0.03  -0.18
  10   1     0.05  -0.12   0.02     0.12  -0.01   0.08    -0.13  -0.00  -0.09
  11   1    -0.17  -0.09   0.03     0.01  -0.03   0.05    -0.05   0.01  -0.07
  12   1     0.02  -0.12   0.02    -0.02  -0.04   0.09     0.03   0.01  -0.10
  13   6     0.04  -0.26   0.20    -0.19  -0.08   0.04     0.23   0.05   0.01
  14   1     0.01  -0.10   0.02    -0.06  -0.02   0.11     0.07   0.00  -0.12
  15   1     0.03  -0.08   0.24    -0.07  -0.03   0.03     0.08   0.02   0.01
  16   1     0.00  -0.21  -0.02    -0.13  -0.05  -0.04     0.15   0.02   0.05
  17   6     0.13  -0.15  -0.27     0.05   0.11  -0.20    -0.04  -0.16   0.17
  18   1     0.03  -0.11  -0.03     0.02   0.06  -0.07    -0.02  -0.09   0.07
  19   1     0.03  -0.15  -0.04     0.01   0.02  -0.05    -0.01  -0.06   0.05
  20   1     0.08  -0.03  -0.22    -0.02   0.03  -0.05     0.03  -0.04   0.01
  21   1    -0.02  -0.01  -0.02     0.00  -0.00  -0.01    -0.01   0.01  -0.01
  22   6     0.00  -0.04   0.01     0.01   0.10  -0.01     0.01   0.14  -0.02
  23   8     0.02  -0.04   0.00    -0.06   0.11   0.01    -0.10   0.15   0.01
  24   7     0.03   0.03  -0.03    -0.08  -0.08   0.05    -0.11  -0.11   0.07
  25   1    -0.01   0.04  -0.00     0.05  -0.10   0.04     0.06  -0.14   0.03
  26   1     0.05   0.01  -0.01    -0.13  -0.04   0.01    -0.17  -0.05   0.03
  27   7    -0.05   0.03   0.00     0.13  -0.08  -0.03     0.17  -0.09  -0.05
  28   1    -0.02   0.01   0.05     0.09  -0.02  -0.04     0.12  -0.02  -0.04
  29   1    -0.01   0.03  -0.00     0.01  -0.08   0.01     0.02  -0.10   0.00
  30   6     0.03  -0.01  -0.01    -0.10   0.02   0.03    -0.02   0.01  -0.02
  31   8     0.02   0.02  -0.03    -0.06  -0.07   0.11     0.01  -0.05   0.02
  32   7     0.00  -0.03   0.04     0.05   0.14  -0.10     0.02   0.05   0.02
  33   1    -0.02   0.00   0.02    -0.02  -0.09  -0.12    -0.08  -0.08  -0.07
  34   1    -0.00  -0.02   0.02    -0.00   0.08  -0.06     0.03   0.05   0.02
  35   7    -0.04   0.01  -0.00     0.09  -0.02   0.05    -0.02   0.03   0.00
  36   1     0.01   0.08   0.02    -0.12  -0.40  -0.15    -0.11  -0.22  -0.13
  37   1    -0.05  -0.02   0.02     0.24   0.13  -0.04     0.15   0.12   0.04
  38   6     0.01   0.01   0.01     0.00  -0.07   0.01     0.02   0.08   0.02
  39   8    -0.02   0.01   0.01     0.01  -0.07   0.01    -0.08   0.08   0.02
  40   7    -0.00  -0.02  -0.02     0.06   0.06  -0.04    -0.05  -0.07  -0.06
  41   1     0.01  -0.04   0.03    -0.02   0.04   0.07     0.03  -0.15   0.18
  42   1    -0.03  -0.01  -0.01     0.06   0.02   0.00    -0.12  -0.03  -0.09
  43   7     0.03   0.00  -0.01    -0.08   0.08  -0.05     0.12  -0.01  -0.02
  44   1     0.02  -0.01   0.05    -0.05  -0.06   0.21     0.08  -0.06   0.17
  45   1     0.00  -0.01  -0.01    -0.01   0.03  -0.02     0.01  -0.06  -0.05
  46   6     0.01   0.00   0.01     0.01  -0.04   0.04    -0.03  -0.01  -0.02
  47   8    -0.01   0.01   0.02     0.02  -0.03   0.04     0.01  -0.01  -0.02
  48   7    -0.01  -0.00  -0.03    -0.05   0.06   0.01     0.03   0.01   0.05
  49   1    -0.00   0.01  -0.01    -0.02  -0.02  -0.05     0.00  -0.02   0.02
  50   1    -0.00   0.02   0.02    -0.04   0.02   0.01     0.01  -0.04  -0.03
  51   7     0.01  -0.01  -0.02     0.06   0.06  -0.05     0.01   0.04   0.01
  52   1     0.02   0.03   0.02    -0.00  -0.11  -0.11    -0.04  -0.09  -0.07
  53   1    -0.00  -0.02  -0.01    -0.02   0.03  -0.05    -0.01   0.02  -0.01
                     43                     44                     45
                        a                      a                      a 
 Frequencies --   470.8964               473.8232               487.0258
 Red. masses --     6.7615                 7.0282                 8.1199
 Frc consts  --     0.0000                 0.0000                 0.0000
 IR Inten    --    27.0500                19.8826                45.5762
 Raman Activ --     0.0000                 0.0000                 0.0000
 Depolar     --     0.0000                 0.0000                 0.0000
 Atom AN      X      Y      Z        X      Y      Z        X      Y      Z
   1   8    -0.01   0.01  -0.03     0.02   0.02   0.05     0.01  -0.03   0.05
   2   6     0.00  -0.01  -0.01     0.02  -0.03  -0.02     0.00  -0.02  -0.01
   3   1     0.00  -0.01  -0.01    -0.00   0.02   0.00    -0.01   0.00   0.00
   4   1    -0.00  -0.00   0.01     0.00  -0.01  -0.03     0.00  -0.00  -0.01
   5   6     0.02  -0.00  -0.02    -0.07  -0.08   0.04    -0.01  -0.02   0.01
   6   1     0.03  -0.01   0.00    -0.12   0.02  -0.01    -0.03   0.01  -0.00
   7   1     0.01   0.01  -0.03    -0.03  -0.07   0.11    -0.01  -0.02   0.03
   8   7    -0.03  -0.01   0.04     0.10  -0.04  -0.10     0.02  -0.02  -0.03
   9   6    -0.03   0.02  -0.03     0.12  -0.01   0.10     0.03   0.01   0.03
  10   1    -0.02   0.01  -0.01     0.07   0.01   0.05     0.02   0.01   0.02
  11   1    -0.00   0.01  -0.02     0.04  -0.00   0.03     0.01   0.00   0.00
  12   1     0.00   0.00  -0.01    -0.02  -0.00   0.06    -0.01  -0.00   0.02
  13   6     0.04   0.03  -0.01    -0.14  -0.01  -0.01    -0.04  -0.00  -0.01
  14   1     0.01   0.00  -0.02    -0.04   0.01   0.07    -0.01   0.00   0.02
  15   1     0.02   0.01  -0.01    -0.05  -0.00  -0.02    -0.01  -0.00  -0.01
  16   1     0.03   0.02   0.01    -0.09   0.00  -0.03    -0.02   0.00  -0.01
  17   6    -0.02  -0.02   0.05     0.01   0.10  -0.09     0.00   0.02  -0.02
  18   1    -0.01  -0.01   0.01     0.01   0.06  -0.04     0.00   0.01  -0.01
  19   1    -0.00  -0.00   0.01    -0.00   0.04  -0.03     0.00   0.01  -0.01
  20   1     0.00  -0.01   0.01    -0.03   0.02   0.01    -0.01   0.01   0.01
  21   1    -0.00   0.01  -0.00     0.01   0.01   0.02     0.01   0.01   0.03
  22   6    -0.02  -0.23   0.05    -0.00  -0.02  -0.00     0.00  -0.00  -0.01
  23   8     0.18  -0.24  -0.03     0.01  -0.02  -0.00    -0.01  -0.01   0.01
  24   7     0.18   0.20  -0.10     0.02   0.01  -0.01     0.01  -0.00  -0.01
  25   1    -0.11   0.24  -0.08    -0.01   0.02  -0.01     0.01   0.00   0.02
  26   1     0.26   0.08  -0.09     0.03   0.01   0.00    -0.01  -0.01  -0.02
  27   7    -0.29   0.14   0.12    -0.03   0.02  -0.00    -0.01   0.02   0.00
  28   1    -0.27   0.03  -0.06    -0.01   0.00   0.03     0.00   0.00   0.03
  29   1    -0.02   0.18   0.00    -0.00   0.01  -0.00    -0.00   0.01  -0.01
  30   6    -0.07   0.02   0.03     0.04   0.01  -0.05     0.19  -0.07  -0.18
  31   8    -0.06  -0.05   0.08     0.05   0.00  -0.05     0.20   0.02  -0.25
  32   7     0.03   0.11  -0.04    -0.03  -0.04   0.10     0.06  -0.15   0.37
  33   1    -0.01  -0.05  -0.07    -0.05   0.02   0.04    -0.29  -0.12   0.02
  34   1     0.01   0.06  -0.02     0.02  -0.03   0.06     0.11  -0.08   0.19
  35   7     0.03  -0.04   0.01    -0.06   0.05  -0.04    -0.29   0.21  -0.03
  36   1    -0.07  -0.27  -0.08    -0.01   0.08  -0.01    -0.24   0.05  -0.25
  37   1     0.24   0.15   0.02    -0.03   0.01   0.04    -0.05   0.11   0.25
  38   6     0.01  -0.01   0.00     0.03   0.23   0.03    -0.01  -0.07  -0.02
  39   8    -0.02  -0.02   0.00    -0.17   0.24   0.01     0.05  -0.08  -0.00
  40   7     0.03   0.01  -0.04    -0.18  -0.19  -0.08     0.05   0.06   0.01
  41   1    -0.00  -0.04   0.13     0.07  -0.35   0.29    -0.03   0.09  -0.04
  42   1    -0.01   0.00  -0.05    -0.31  -0.07  -0.19     0.09   0.02   0.04
  43   7    -0.01   0.04  -0.03     0.32  -0.13   0.02    -0.11   0.06  -0.01
  44   1    -0.00  -0.06   0.19     0.23  -0.03   0.05    -0.07  -0.01   0.06
  45   1    -0.00  -0.00  -0.04     0.04  -0.16  -0.06    -0.01   0.05  -0.04
  46   6    -0.03  -0.00  -0.07     0.01  -0.00  -0.01    -0.02  -0.02  -0.04
  47   8    -0.03   0.00  -0.07     0.02  -0.00  -0.01    -0.01  -0.01  -0.04
  48   7     0.08   0.01   0.04     0.01   0.00  -0.00     0.04   0.05   0.05
  49   1     0.02  -0.04   0.02     0.00   0.01   0.00     0.01   0.03   0.02
  50   1     0.03  -0.08  -0.06    -0.00  -0.02  -0.01    -0.04  -0.14  -0.12
  51   7    -0.02   0.02   0.12    -0.00  -0.01  -0.01     0.01   0.06   0.07
  52   1    -0.12  -0.13  -0.05     0.01   0.01   0.00    -0.09  -0.13  -0.08
  53   1     0.01  -0.02   0.04    -0.00   0.02  -0.00    -0.00  -0.01   0.01
                     46                     47                     48
                        a                      a                      a 
 Frequencies --   490.5626               501.1850               505.8331
 Red. masses --     3.9513                 2.0350                 3.3161
 Frc consts  --     0.0000                 0.0000                 0.0000
 IR Inten    --     3.5962                 2.2756                76.9562
 Raman Activ --     0.0000                 0.0000                 0.0000
 Depolar     --     0.0000                 0.0000                 0.0000
 Atom AN      X      Y      Z        X      Y      Z        X      Y      Z
   1   8    -0.00  -0.00  -0.00    -0.00  -0.01   0.00     0.00   0.02   0.00
   2   6    -0.00  -0.00   0.00    -0.00   0.01   0.01     0.01  -0.01  -0.02
   3   1    -0.00  -0.00   0.00    -0.00   0.01   0.01     0.01  -0.02  -0.01
   4   1     0.00  -0.00  -0.00     0.00   0.00  -0.01    -0.00  -0.01   0.01
   5   6     0.01   0.00  -0.00     0.01  -0.00   0.01    -0.02   0.01  -0.02
   6   1     0.01   0.00   0.00     0.01   0.00   0.01    -0.03   0.01  -0.01
   7   1     0.00   0.00  -0.01     0.00   0.00  -0.00    -0.01  -0.01   0.02
   8   7    -0.01  -0.00   0.00    -0.00  -0.01  -0.01     0.02   0.02  -0.00
   9   6    -0.01   0.00  -0.00    -0.00   0.00   0.00     0.01  -0.02   0.01
  10   1    -0.00   0.00  -0.00    -0.00  -0.00  -0.00     0.01  -0.00   0.01
  11   1     0.00   0.00  -0.00     0.00   0.00   0.01    -0.01  -0.01  -0.00
  12   1    -0.00   0.00  -0.00    -0.00   0.01  -0.00     0.01  -0.01   0.01
  13   6     0.00  -0.00  -0.00    -0.00  -0.01  -0.01    -0.01  -0.00   0.03
  14   1     0.00   0.00  -0.00    -0.00  -0.00  -0.00    -0.00  -0.00   0.02
  15   1     0.00  -0.00  -0.00    -0.00  -0.00  -0.00    -0.00  -0.00   0.01
  16   1     0.00   0.00   0.00    -0.00  -0.00  -0.00    -0.01  -0.00   0.00
  17   6    -0.00  -0.00   0.01     0.00   0.00  -0.00     0.00   0.00  -0.02
  18   1    -0.00  -0.00   0.00     0.00   0.00   0.00     0.00  -0.00  -0.01
  19   1     0.00  -0.00   0.00     0.00   0.00  -0.00    -0.00  -0.01  -0.00
  20   1     0.00  -0.00   0.00    -0.00   0.00   0.00     0.00   0.00  -0.01
  21   1    -0.00  -0.00   0.00    -0.00  -0.01  -0.01     0.01   0.02   0.01
  22   6    -0.00   0.01  -0.00     0.03   0.04   0.08     0.01   0.04   0.02
  23   8    -0.01   0.01  -0.00     0.03   0.05   0.09    -0.01   0.04   0.02
  24   7    -0.01  -0.00   0.00    -0.01  -0.03   0.08    -0.03  -0.02   0.04
  25   1     0.01  -0.00   0.02    -0.29  -0.14  -0.72    -0.08  -0.07  -0.22
  26   1    -0.02  -0.01  -0.01     0.19   0.10   0.43     0.02   0.02   0.12
  27   7     0.01  -0.01   0.00    -0.02  -0.05  -0.17     0.03  -0.05  -0.05
  28   1     0.01  -0.00  -0.00     0.03  -0.01   0.01     0.04  -0.01  -0.01
  29   1     0.00  -0.01  -0.00     0.02  -0.01   0.06     0.00  -0.03   0.00
  30   6     0.00  -0.02   0.03     0.02   0.00  -0.03    -0.06  -0.00   0.04
  31   8    -0.02   0.03  -0.01     0.02  -0.03  -0.02    -0.02   0.05   0.07
  32   7     0.03  -0.01  -0.02    -0.04  -0.04   0.01     0.05   0.07  -0.04
  33   1     0.03  -0.00  -0.00     0.04   0.07   0.07    -0.07  -0.13  -0.12
  34   1    -0.03  -0.02  -0.03     0.05   0.01   0.05    -0.09  -0.00  -0.09
  35   7    -0.01  -0.03   0.01    -0.01   0.07   0.02    -0.00  -0.17  -0.11
  36   1     0.05   0.10   0.07    -0.08  -0.09  -0.10     0.25   0.28   0.30
[...]
  44   1     0.01  -0.04  -0.01     0.02  -0.07  -0.02    -0.02   0.08   0.02
  45   1    -0.34   0.15  -0.04    -0.50   0.22  -0.05     0.60  -0.26   0.06
  46   6    -0.02   0.00   0.00     0.00  -0.00   0.00    -0.00  -0.00   0.01
  47   8     0.00  -0.00   0.00    -0.00   0.00  -0.00    -0.00   0.00  -0.00
  48   7    -0.08   0.01  -0.01    -0.08   0.01  -0.00    -0.15   0.02  -0.01
  49   1     0.32  -0.06   0.05     0.31  -0.06   0.05     0.59  -0.12   0.09
  50   1    -0.01   0.03  -0.03    -0.01   0.03  -0.03    -0.03   0.05  -0.06
  51   7    -0.14   0.01   0.15     0.09  -0.01  -0.09     0.00  -0.00  -0.00
  52   1     0.01  -0.05   0.08    -0.01   0.04  -0.05     0.00  -0.00   0.00
  53   1     0.52   0.03  -0.61    -0.32  -0.02   0.38     0.00  -0.00   0.00
                    142                    143                    144
                        a                      a                      a 
 Frequencies --  3313.8843              3482.3956              3492.7661
 Red. masses --     1.7600                 1.4557                 1.4523
 Frc consts  --     0.0000                 0.0000                 0.0000
 IR Inten    --   651.0363                20.8580                19.0630
 Raman Activ --     0.0000                 0.0000                 0.0000
 Depolar     --     0.0000                 0.0000                 0.0000
 Atom AN      X      Y      Z        X      Y      Z        X      Y      Z
   1   8    -0.00  -0.01   0.01     0.00   0.00  -0.00    -0.00   0.00  -0.00
   2   6    -0.00  -0.00  -0.00    -0.00   0.00   0.00     0.00  -0.00   0.00
   3   1     0.00  -0.00   0.00    -0.00   0.00  -0.00    -0.00   0.00  -0.00
   4   1     0.00   0.00  -0.00     0.00  -0.00   0.00     0.00   0.00   0.00
   5   6    -0.00  -0.00   0.00     0.00   0.00  -0.00    -0.00  -0.00  -0.00
   6   1     0.00   0.00  -0.01    -0.00  -0.00   0.00     0.00  -0.00   0.00
   7   1    -0.00  -0.00   0.00     0.00   0.00  -0.00     0.00  -0.00   0.00
   8   7    -0.00  -0.00   0.00     0.00  -0.00  -0.00    -0.00   0.00   0.00
   9   6    -0.00  -0.00   0.00     0.00   0.00  -0.00     0.00  -0.00  -0.00
  10   1     0.00   0.01  -0.01    -0.00  -0.00   0.00     0.00  -0.00   0.00
  11   1    -0.00  -0.00   0.00    -0.00   0.00  -0.00    -0.00   0.00  -0.00
  12   1    -0.00   0.00   0.00    -0.00  -0.00  -0.00     0.00  -0.00   0.00
  13   6    -0.00  -0.00   0.00     0.00   0.00  -0.00     0.00  -0.00  -0.00
  14   1     0.00  -0.00   0.00     0.00   0.00  -0.00    -0.00  -0.00  -0.00
  15   1    -0.00  -0.00   0.00     0.00   0.00  -0.00    -0.00   0.00   0.00
  16   1     0.01   0.01  -0.01    -0.00  -0.00   0.00     0.00  -0.00   0.00
  17   6    -0.00   0.00  -0.00    -0.00   0.00   0.00    -0.00  -0.00   0.00
  18   1     0.00  -0.00  -0.00    -0.00   0.00  -0.00    -0.00  -0.00  -0.00
  19   1    -0.00   0.00   0.00     0.00   0.00   0.00     0.00  -0.00   0.00
  20   1    -0.00  -0.00  -0.00     0.00  -0.00  -0.00    -0.00   0.00  -0.00
  21   1     0.01   0.04  -0.05    -0.00  -0.01   0.01     0.00   0.00  -0.00
  22   6     0.00  -0.02   0.01     0.00   0.00  -0.00     0.00  -0.00  -0.00
  23   8    -0.00   0.01  -0.00    -0.00  -0.00   0.00    -0.00   0.00   0.00
  24   7     0.00   0.01  -0.00    -0.00  -0.00   0.00     0.00   0.00  -0.00
  25   1    -0.02  -0.01   0.01     0.00   0.00  -0.00    -0.00  -0.00   0.00
  26   1    -0.00   0.01  -0.00     0.00  -0.00   0.00     0.00  -0.00   0.00
  27   7     0.04  -0.01  -0.01    -0.00   0.00   0.00    -0.00  -0.00   0.00
  28   1     0.00  -0.02   0.00    -0.00   0.00  -0.00    -0.00   0.00  -0.00
  29   1    -0.14   0.07   0.02     0.00  -0.00  -0.00     0.00  -0.00  -0.00
  30   6     0.00  -0.01   0.00    -0.00  -0.00   0.00     0.00  -0.00  -0.00
  31   8    -0.00   0.00   0.00     0.00  -0.00  -0.00    -0.00   0.00   0.00
  32   7     0.11  -0.07  -0.12    -0.01   0.01   0.00    -0.00   0.00  -0.00
  33   1     0.01   0.06  -0.09     0.00  -0.01   0.01    -0.00  -0.00   0.00
  34   1    -0.41   0.22   0.54     0.02  -0.01  -0.02     0.00  -0.00  -0.00
  35   7    -0.01  -0.00   0.00    -0.07  -0.12   0.13     0.00   0.00  -0.00
  36   1     0.03  -0.00  -0.02     0.63  -0.06  -0.42    -0.00   0.00   0.00
  37   1    -0.01   0.01  -0.00    -0.37   0.50  -0.06     0.00  -0.00   0.00
  38   6    -0.00   0.00  -0.00     0.00   0.00   0.00     0.00  -0.00   0.00
  39   8    -0.00  -0.00   0.00     0.00  -0.00  -0.00     0.00   0.00   0.00
  40   7     0.00  -0.00  -0.00     0.00  -0.00   0.00     0.16  -0.09   0.02
  41   1     0.00   0.00   0.00    -0.00  -0.00  -0.00    -0.54  -0.38  -0.13
  42   1     0.00  -0.00   0.00    -0.00   0.00   0.00    -0.06   0.71   0.04
  43   7    -0.04   0.01  -0.01     0.00  -0.00   0.00    -0.01   0.01   0.00
  44   1    -0.01   0.03   0.01     0.00  -0.00  -0.00     0.01  -0.04  -0.02
  45   1     0.17  -0.07   0.02    -0.02   0.01  -0.00     0.01  -0.00   0.00
  46   6     0.00   0.00  -0.00    -0.00  -0.00  -0.00     0.00  -0.00  -0.00
  47   8     0.00  -0.00   0.00     0.00   0.00   0.00    -0.00   0.00   0.00
  48   7     0.14  -0.02   0.01    -0.00   0.00  -0.00    -0.00  -0.00   0.00
  49   1    -0.55   0.11  -0.09     0.01  -0.00   0.00     0.00  -0.00   0.00
  50   1     0.03  -0.05   0.06     0.00  -0.01   0.00    -0.00   0.00  -0.00
  51   7    -0.03   0.00   0.03     0.00   0.00  -0.00    -0.00   0.00   0.00
  52   1     0.00  -0.01   0.02     0.00  -0.00   0.00     0.00  -0.00   0.00
  53   1     0.10   0.00  -0.11    -0.00  -0.00   0.00     0.01  -0.00  -0.01
                    145                    146                    147
                        a                      a                      a 
 Frequencies --  3497.5945              3517.8859              3518.3352
 Red. masses --     1.4466                 1.9043                 1.9145
 Frc consts  --     0.0000                 0.0000                 0.0000
 IR Inten    --    27.2954                15.1147                31.1759
 Raman Activ --     0.0000                 0.0000                 0.0000
 Depolar     --     0.0000                 0.0000                 0.0000
 Atom AN      X      Y      Z        X      Y      Z        X      Y      Z
   1   8    -0.00   0.00   0.00     0.00  -0.00   0.00    -0.00  -0.00   0.00
   2   6     0.00  -0.00  -0.00    -0.00   0.00  -0.00    -0.00   0.00   0.00
   3   1    -0.00  -0.00   0.00     0.00   0.00   0.00    -0.00  -0.00   0.00
   4   1    -0.00   0.00   0.00     0.00  -0.00   0.00     0.00  -0.00  -0.00
   5   6     0.00  -0.00   0.00    -0.00   0.00   0.00    -0.00  -0.00   0.00
   6   1     0.00   0.00  -0.00    -0.00   0.00  -0.00     0.00   0.00  -0.00
   7   1    -0.00   0.00   0.00     0.00   0.00  -0.00    -0.00  -0.00   0.00
   8   7     0.00   0.00  -0.00     0.00  -0.00   0.00     0.00   0.00   0.00
   9   6    -0.00  -0.00   0.00    -0.00  -0.00   0.00    -0.00  -0.00   0.00
  10   1     0.00   0.00  -0.00     0.00   0.00  -0.00     0.00   0.00  -0.00
  11   1    -0.00   0.00  -0.00     0.00  -0.00   0.00     0.00  -0.00   0.00
  12   1     0.00  -0.00  -0.00    -0.00  -0.00   0.00    -0.00  -0.00   0.00
  13   6    -0.00  -0.00   0.00    -0.00  -0.00   0.00    -0.00  -0.00   0.00
  14   1    -0.00   0.00   0.00     0.00  -0.00  -0.00     0.00  -0.00   0.00
  15   1     0.00   0.00  -0.00    -0.00  -0.00   0.00    -0.00   0.00  -0.00
  16   1     0.00   0.00  -0.00     0.00   0.00  -0.00     0.00   0.00  -0.00
  17   6     0.00   0.00  -0.00    -0.00  -0.00  -0.00    -0.00  -0.00   0.00
  18   1    -0.00   0.00   0.00     0.00  -0.00  -0.00     0.00  -0.00   0.00
  19   1    -0.00  -0.00  -0.00    -0.00   0.00   0.00    -0.00  -0.00   0.00
  20   1    -0.00   0.00  -0.00    -0.00  -0.00   0.00    -0.00   0.00   0.00
  21   1     0.00  -0.00  -0.00     0.00   0.00  -0.00     0.00   0.01  -0.01
  22   6     0.00  -0.00   0.00     0.00   0.00  -0.00    -0.00   0.00  -0.00
  23   8    -0.00   0.00  -0.00    -0.00  -0.00  -0.00    -0.00  -0.00  -0.00
  24   7     0.16  -0.07  -0.04     0.00  -0.00  -0.00     0.00  -0.00  -0.00
  25   1    -0.52  -0.39   0.27    -0.00  -0.00   0.00    -0.01  -0.01   0.00
  26   1    -0.09   0.67  -0.13    -0.00   0.01  -0.00    -0.00   0.01  -0.00
  27   7    -0.01   0.01   0.00    -0.00  -0.00   0.00    -0.00  -0.01   0.00
  28   1     0.00  -0.04  -0.00    -0.00   0.01  -0.00    -0.00   0.03   0.00
  29   1     0.01  -0.01  -0.00     0.00  -0.00  -0.00     0.00  -0.00  -0.00
  30   6     0.00  -0.00  -0.00    -0.00  -0.00   0.00    -0.00  -0.00   0.01
  31   8    -0.00   0.00   0.00    -0.00   0.00   0.00    -0.00   0.00  -0.00
  32   7    -0.00   0.00  -0.00    -0.02  -0.06   0.11    -0.03  -0.12   0.20
  33   1    -0.00  -0.01   0.02     0.03   0.27  -0.37     0.05   0.50  -0.67
  34   1     0.01  -0.00  -0.01     0.03  -0.03  -0.04     0.06  -0.04  -0.07
  35   7    -0.00  -0.00   0.00     0.01  -0.00  -0.00     0.01  -0.01  -0.00
  36   1     0.00  -0.00  -0.00    -0.01   0.00   0.01    -0.02   0.00   0.01
  37   1    -0.00   0.00  -0.00    -0.01   0.02  -0.00    -0.02   0.04  -0.00
  38   6     0.00  -0.00  -0.00     0.01  -0.01  -0.00    -0.00   0.00   0.00
  39   8    -0.00   0.00   0.00    -0.00   0.00   0.00     0.00  -0.00  -0.00
  40   7     0.00   0.00   0.00     0.02   0.01   0.00    -0.01  -0.01  -0.00
  41   1    -0.00  -0.00  -0.00    -0.06  -0.04  -0.01     0.03   0.02   0.01
  42   1     0.00  -0.00  -0.00     0.00  -0.01   0.00    -0.00   0.01  -0.00
  43   7    -0.00  -0.00  -0.00     0.05  -0.21  -0.07    -0.03   0.12   0.04
  44   1    -0.00   0.00   0.00    -0.10   0.79   0.27     0.06  -0.43  -0.15
  45   1     0.00  -0.00   0.00    -0.08   0.02  -0.02     0.05  -0.01   0.01
  46   6     0.00  -0.00  -0.00    -0.00  -0.00   0.00     0.00  -0.00   0.00
  47   8    -0.00   0.00   0.00    -0.00  -0.00   0.00    -0.00  -0.00   0.00
  48   7    -0.00  -0.00   0.00    -0.00  -0.00   0.00    -0.00  -0.00   0.00
  49   1     0.01  -0.00   0.00     0.00  -0.00   0.00     0.01  -0.00   0.00
  50   1    -0.00   0.01  -0.01    -0.00   0.00  -0.00    -0.00   0.00  -0.00
  51   7    -0.00   0.00  -0.00     0.00  -0.00   0.00    -0.00   0.00  -0.00
  52   1     0.00  -0.00   0.00    -0.00   0.00  -0.00     0.00  -0.01   0.01
  53   1     0.00   0.00  -0.00     0.00   0.00  -0.00     0.00   0.00  -0.00
                    148                    149                    150
                        a                      a                      a 
 Frequencies --  3525.5098              3526.0438              3531.5937
 Red. masses --     1.9079                 1.8949                 1.8927
 Frc consts  --     0.0000                 0.0000                 0.0000
 IR Inten    --    11.1298                 5.9124                15.5055
 Raman Activ --     0.0000                 0.0000                 0.0000
 Depolar     --     0.0000                 0.0000                 0.0000
 Atom AN      X      Y      Z        X      Y      Z        X      Y      Z
   1   8    -0.00  -0.00   0.00     0.00   0.00  -0.00    -0.00   0.00  -0.00
   2   6     0.00  -0.00   0.00     0.00  -0.00  -0.00     0.00  -0.00   0.00
   3   1     0.00   0.00   0.00     0.00   0.00  -0.00     0.00  -0.00   0.00
   4   1     0.00   0.00   0.00    -0.00   0.00   0.00    -0.00   0.00   0.00
   5   6    -0.00  -0.00  -0.00    -0.00  -0.00   0.00    -0.00  -0.00   0.00
   6   1    -0.00   0.00  -0.00     0.00  -0.00  -0.00     0.00  -0.00  -0.00
   7   1     0.00  -0.00   0.00     0.00  -0.00   0.00     0.00  -0.00   0.00
   8   7    -0.00   0.00  -0.00     0.00  -0.00  -0.00    -0.00   0.00  -0.00
   9   6    -0.00   0.00  -0.00     0.00  -0.00   0.00     0.00  -0.00   0.00
  10   1    -0.00   0.00   0.00     0.00  -0.00  -0.00    -0.00   0.00  -0.00
  11   1     0.00  -0.00   0.00    -0.00   0.00  -0.00    -0.00   0.00   0.00
  12   1     0.00   0.00   0.00    -0.00  -0.00  -0.00    -0.00  -0.00  -0.00
  13   6     0.00   0.00  -0.00    -0.00  -0.00   0.00    -0.00  -0.00   0.00
  14   1     0.00  -0.00  -0.00    -0.00  -0.00   0.00     0.00  -0.00   0.00
  15   1    -0.00  -0.00   0.00    -0.00   0.00   0.00    -0.00   0.00   0.00
  16   1    -0.00   0.00   0.00     0.00   0.00  -0.00     0.00   0.00  -0.00
  17   6    -0.00   0.00  -0.00     0.00  -0.00  -0.00     0.00   0.00  -0.00
  18   1     0.00  -0.00  -0.00    -0.00  -0.00   0.00    -0.00  -0.00   0.00
  19   1     0.00  -0.00   0.00    -0.00  -0.00  -0.00     0.00   0.00   0.00
  20   1     0.00  -0.00   0.00    -0.00   0.00   0.00     0.00  -0.00   0.00
  21   1     0.00   0.00  -0.00    -0.00  -0.00   0.00    -0.00  -0.00   0.00
  22   6    -0.00   0.00   0.00     0.01  -0.01  -0.00    -0.00  -0.00   0.00
  23   8     0.00  -0.00   0.00    -0.00   0.00   0.00    -0.00   0.00  -0.00
  24   7    -0.00  -0.01   0.00     0.01   0.01  -0.01    -0.00   0.00  -0.00
  25   1     0.01   0.01  -0.01    -0.06  -0.04   0.03    -0.00  -0.00   0.00
  26   1    -0.00   0.01  -0.00     0.00  -0.01   0.00     0.00  -0.01   0.00
  27   7    -0.01   0.07   0.00     0.03  -0.25  -0.00     0.00  -0.00  -0.00
  28   1     0.01  -0.27  -0.00    -0.04   0.92   0.01    -0.00   0.01   0.00
  29   1     0.02  -0.01  -0.00    -0.07   0.02   0.01    -0.01   0.00   0.00
  30   6     0.00  -0.00   0.00    -0.00   0.00  -0.00    -0.00  -0.00   0.00
  31   8    -0.00   0.00   0.00     0.00  -0.00  -0.00     0.00   0.00  -0.00
  32   7    -0.00  -0.00   0.01     0.00   0.00  -0.01     0.00  -0.00   0.00
  33   1     0.00   0.01  -0.01    -0.00  -0.02   0.02     0.00   0.01  -0.01
  34   1     0.00  -0.00  -0.01    -0.00   0.00   0.00    -0.00   0.00   0.00
  35   7    -0.00   0.00  -0.00     0.00  -0.00  -0.00    -0.00   0.00   0.00
  36   1    -0.00  -0.00   0.00    -0.00   0.00   0.00     0.01  -0.00  -0.01
  37   1     0.00  -0.00   0.00    -0.00   0.00  -0.00     0.00  -0.00   0.00
  38   6    -0.00   0.00   0.00     0.00   0.00   0.00    -0.00   0.00   0.00
  39   8     0.00  -0.00  -0.00    -0.00  -0.00  -0.00     0.00  -0.00  -0.00
  40   7     0.00  -0.00  -0.00     0.00  -0.00   0.00    -0.00  -0.00  -0.00
  41   1     0.00   0.00   0.00    -0.00  -0.00  -0.00     0.00   0.00   0.00
  42   1    -0.00   0.01   0.00    -0.00   0.00   0.00    -0.00   0.01   0.00
  43   7    -0.00   0.00   0.00    -0.00  -0.00  -0.00    -0.00   0.00   0.00
  44   1     0.00  -0.01  -0.00    -0.00   0.00   0.00     0.00  -0.01  -0.00
  45   1     0.00  -0.00   0.00     0.00  -0.00  -0.00     0.00  -0.00   0.00
  46   6    -0.01   0.00   0.00    -0.00  -0.00   0.00     0.00  -0.01   0.01
  47   8     0.00  -0.00  -0.00     0.00   0.00  -0.00    -0.00   0.00  -0.00
  48   7    -0.07   0.13  -0.14    -0.02   0.04  -0.04     0.05  -0.10   0.10
  49   1     0.09  -0.00   0.00     0.02  -0.00  -0.00    -0.06   0.00  -0.00
  50   1     0.17  -0.51   0.53     0.05  -0.15   0.16    -0.12   0.36  -0.39
  51   7     0.02  -0.09   0.11     0.01  -0.02   0.03     0.03  -0.13   0.17
  52   1    -0.10   0.33  -0.39    -0.03   0.09  -0.11    -0.16   0.50  -0.59
  53   1     0.03  -0.01  -0.03     0.01  -0.00  -0.01     0.05  -0.01  -0.05
                    151                    152                    153
                        a                      a                      a 
 Frequencies --  3548.8751              3557.2978              3564.3317
 Red. masses --     2.1769                 2.1777                 2.1877
 Frc consts  --     0.0000                 0.0000                 0.0000
 IR Inten    --    19.5444                11.9999                17.1013
 Raman Activ --     0.0000                 0.0000                 0.0000
 Depolar     --     0.0000                 0.0000                 0.0000
 Atom AN      X      Y      Z        X      Y      Z        X      Y      Z
   1   8     0.00   0.00  -0.00     0.00   0.00  -0.00    -0.00  -0.00   0.00
   2   6     0.00  -0.00   0.00    -0.00  -0.00  -0.00    -0.00   0.00  -0.00
   3   1    -0.00   0.00  -0.00     0.00   0.00   0.00    -0.00  -0.00   0.00
   4   1    -0.00   0.00   0.00     0.00  -0.00   0.00    -0.00  -0.00  -0.00
   5   6     0.00   0.00  -0.00     0.00   0.00   0.00    -0.00   0.00  -0.00
   6   1    -0.00  -0.00   0.00    -0.00  -0.00   0.00    -0.00   0.00   0.00
   7   1    -0.00   0.00  -0.00    -0.00   0.00  -0.00     0.00  -0.00   0.00
   8   7     0.00   0.00  -0.00     0.00  -0.00  -0.00     0.00   0.00  -0.00
   9   6     0.00  -0.00   0.00    -0.00   0.00  -0.00     0.00   0.00  -0.00
  10   1     0.00   0.00   0.00    -0.00  -0.00   0.00    -0.00   0.00   0.00
  11   1    -0.00   0.00   0.00     0.00  -0.00   0.00     0.00  -0.00   0.00
  12   1     0.00  -0.00  -0.00     0.00  -0.00   0.00     0.00   0.00   0.00
  13   6     0.00  -0.00   0.00    -0.00   0.00  -0.00     0.00   0.00  -0.00
  14   1    -0.00   0.00   0.00     0.00   0.00  -0.00     0.00  -0.00  -0.00
  15   1     0.00   0.00  -0.00     0.00  -0.00   0.00     0.00  -0.00   0.00
  16   1     0.00   0.00  -0.00    -0.00  -0.00   0.00    -0.00  -0.00   0.00
  17   6     0.00   0.00  -0.00    -0.00   0.00  -0.00    -0.00   0.00   0.00
  18   1    -0.00   0.00   0.00     0.00   0.00  -0.00     0.00  -0.00  -0.00
  19   1     0.00  -0.00   0.00     0.00  -0.00   0.00     0.00   0.00   0.00
  20   1     0.00   0.00  -0.00     0.00  -0.00   0.00     0.00  -0.00   0.00
  21   1    -0.00  -0.00   0.00    -0.00  -0.00   0.00     0.00   0.00  -0.00
  22   6    -0.00  -0.00   0.00     0.00   0.00  -0.00     0.01   0.01  -0.00
  23   8     0.00   0.00  -0.00     0.00   0.00   0.00    -0.00  -0.00   0.00
  24   7    -0.00   0.00  -0.00     0.00   0.00  -0.00     0.10   0.27  -0.10
  25   1     0.00   0.00  -0.00    -0.00  -0.00   0.00    -0.50  -0.35   0.26
  26   1     0.00  -0.00   0.00     0.00  -0.00   0.00     0.12  -0.66   0.12
  27   7     0.00   0.00  -0.00     0.00  -0.00  -0.00    -0.00   0.02   0.00
  28   1     0.00  -0.00   0.00    -0.00   0.00   0.00     0.00  -0.06  -0.00
  29   1    -0.00   0.00   0.00    -0.00   0.00   0.00     0.01  -0.00  -0.00
  30   6     0.01  -0.01  -0.00     0.00  -0.00  -0.00     0.00  -0.00   0.00
  31   8    -0.00   0.00   0.00    -0.00   0.00   0.00    -0.00   0.00   0.00
  32   7     0.00   0.01  -0.01    -0.00   0.00  -0.00    -0.00  -0.00   0.00
  33   1    -0.00  -0.03   0.04    -0.00  -0.00   0.00     0.00   0.00  -0.00
  34   1    -0.01   0.01   0.01     0.00  -0.00  -0.00     0.00  -0.00  -0.01
  35   7     0.24  -0.17  -0.07     0.00  -0.00  -0.00    -0.00   0.00   0.00
  36   1    -0.50   0.03   0.34    -0.00   0.00   0.00     0.00  -0.00  -0.00
  37   1    -0.41   0.60  -0.08    -0.00   0.00  -0.00     0.00  -0.00   0.00
  38   6     0.00   0.00  -0.00    -0.01  -0.01  -0.00     0.00   0.00   0.00
  39   8     0.00  -0.00  -0.00     0.00   0.00  -0.00    -0.00  -0.00  -0.00
  40   7     0.00   0.00   0.00    -0.13  -0.27  -0.04     0.00   0.00   0.00
  41   1    -0.00  -0.00  -0.00     0.57   0.37   0.14    -0.00  -0.00  -0.00
  42   1     0.00  -0.00  -0.00    -0.08   0.65   0.03     0.00  -0.00  -0.00
  43   7     0.00  -0.00   0.00     0.00  -0.02  -0.00    -0.00   0.00   0.00
  44   1     0.00  -0.00  -0.00    -0.01   0.06   0.02     0.00  -0.00  -0.00
  45   1    -0.01   0.00  -0.00    -0.01   0.00  -0.00     0.00  -0.00   0.00
  46   6     0.00  -0.00   0.00    -0.00   0.00  -0.00    -0.00   0.00  -0.00
  47   8    -0.00   0.00  -0.00     0.00  -0.00   0.00     0.00  -0.00   0.00
  48   7     0.00  -0.00   0.00    -0.00   0.00  -0.00    -0.00   0.00  -0.00
  49   1    -0.01   0.00  -0.00    -0.00   0.00  -0.00     0.01  -0.00   0.00
  50   1    -0.00   0.00  -0.00     0.00  -0.00   0.00     0.00  -0.00   0.00
  51   7     0.00  -0.00   0.00     0.00   0.00  -0.00    -0.00   0.00  -0.00
  52   1    -0.00   0.01  -0.01     0.00  -0.01   0.01     0.00  -0.00   0.00
  53   1    -0.00  -0.00   0.00    -0.01   0.00   0.01    -0.00   0.00   0.00
