 Entering Gaussian System
 *********************************************
 Gaussian 98:
 frequency output generated by the xtb code
 *********************************************
                         Standard orientation:
 --------------------------------------------------------------------
  Center     Atomic     Atomic              Coordinates (Angstroms)
  Number     Number      Type              X           Y           Z
 --------------------------------------------------------------------
    1          8             0       -0.555442    0.919740   -1.260666
    2          6             0        0.407132    1.085451   -0.239628
    3          1             0        1.164651    0.303405   -0.287051
    4          1             0        0.897921    2.043111   -0.439552
    5          6             0       -0.202175    1.198361    1.163432
    6          1             0       -1.155520    1.725289    1.080953
    7          1             0        0.494149    1.773895    1.775764
    8          7             0       -0.471391   -0.068132    1.902266
    9          6             0       -1.347377   -0.963101    1.134589
   10          1             0       -2.257686   -0.423293    0.874284
   11          1             0       -1.605593   -1.830126    1.739774
   12          1             0       -0.845754   -1.305913    0.233152
   13          6             0       -1.163465    0.312935    3.145505
   14          1             0       -1.367073   -0.571575    3.746093
   15          1             0       -2.105828    0.800326    2.898670
   16          1             0       -0.537657    0.993971    3.718447
   17          6             0        0.780932   -0.761707    2.240809
   18          1             0        0.571880   -1.592943    2.910144
   19          1             0        1.462537   -0.058769    2.720331
   20          1             0        1.263600   -1.142411    1.343125
   21          1             0       -0.626697   -0.027359   -1.502446
   22          6             0        2.869964   -1.940451   -1.223605
   23          8             0        2.560963   -1.251954   -0.256079
   24          7             0        4.168151   -2.225000   -1.504771
   25          1             0        4.857929   -2.000486   -0.809309
   26          1             0        4.415183   -2.910803   -2.195380
   27          7             0        1.951933   -2.454039   -2.068535
   28          1             0        2.238932   -2.892214   -2.925059
   29          1             0        0.984243   -2.162507   -1.987578
   30          6             0        3.584301    1.808683    2.039908
   31          8             0        2.480589    1.719993    2.559177
   32          7             0        4.059970    0.898310    1.157511
   33          1             0        3.450344    0.178819    0.788439
   34          1             0        4.907075    1.086787    0.652431
   35          7             0        4.416756    2.850198    2.312802
   36          1             0        5.383349    2.834073    2.041332
   37          1             0        4.160813    3.455269    3.073533
   38          6             0       -3.885994    1.777158   -0.116227
   39          8             0       -3.379513    1.340598    0.906466
   40          7             0       -5.124799    2.318029   -0.131324
   41          1             0       -5.636996    2.366805    0.731287
   42          1             0       -5.547023    2.690608   -0.961701
   43          7             0       -3.259969    1.672835   -1.329662
   44          1             0       -3.590204    2.255574   -2.081754
   45          1             0       -2.243753    1.554522   -1.291030
   46          6             0       -1.932605   -2.025341   -2.464667
   47          8             0       -0.871359   -1.698961   -1.927160
   48          7             0       -3.028703   -1.245944   -2.420234
   49          1             0       -2.993495   -0.330236   -1.991093
   50          1             0       -3.871772   -1.511417   -2.895644
   51          7             0       -2.050860   -3.197670   -3.123547
   52          1             0       -2.918142   -3.503109   -3.525136
   53          1             0       -1.273173   -3.832990   -3.128904
 --------------------------------------------------------------------
     1 basis functions        1 primitive gaussians
     1 alpha electrons        1 beta electrons

 Harmonic frequencies (cm**-1), IR intensities (km*mol⁻¹),
 Raman scattering activities (A**4/amu), Raman depolarization ratios,
 reduced masses (AMU), force constants (mDyne/A) and normal coordinates:
                      1                      2                      3
                        a                      a                      a 
 Frequencies --    18.4045                26.0890                28.4812
 Red. masses --    12.1541                12.3227                11.9226
 Frc consts  --     0.0000                 0.0000                 0.0000
 IR Inten    --     0.1696                 0.5836                 3.4214
 Raman Activ --     0.0000                 0.0000                 0.0000
 Depolar     --     0.0000                 0.0000                 0.0000
 Atom AN      X      Y      Z        X      Y      Z        X      Y      Z
   1   8    -0.03  -0.09  -0.08    -0.05  -0.14  -0.06     0.15  -0.02   0.11
   2   6    -0.01  -0.03  -0.09    -0.02  -0.09  -0.08     0.06  -0.07   0.17
   3   1    -0.00  -0.01  -0.02     0.00  -0.02  -0.03     0.01  -0.03   0.06
   4   1    -0.01  -0.01  -0.04    -0.02  -0.02  -0.03     0.03  -0.02   0.07
   5   6     0.02   0.01  -0.08     0.02  -0.09  -0.07    -0.04  -0.09   0.13
   6   1     0.01   0.01  -0.02     0.01  -0.02  -0.01    -0.01  -0.03   0.02
   7   1     0.01  -0.00  -0.03     0.01  -0.03  -0.02    -0.03  -0.02   0.05
   8   7    -0.01   0.04  -0.06     0.02  -0.10  -0.07    -0.06  -0.11   0.11
   9   6    -0.08   0.06   0.00    -0.04  -0.06  -0.04    -0.02  -0.09   0.05
  10   1    -0.02   0.03   0.00    -0.01  -0.01  -0.00    -0.00  -0.03   0.00
  11   1    -0.03   0.03   0.01    -0.02  -0.02  -0.01    -0.01  -0.03   0.01
  12   1    -0.03   0.00  -0.00    -0.02  -0.02  -0.01     0.01  -0.02   0.02
  13   6     0.06   0.09  -0.03     0.08  -0.09  -0.03    -0.12  -0.12   0.08
  14   1     0.01   0.03  -0.00     0.02  -0.02  -0.01    -0.04  -0.04   0.01
  15   1     0.02   0.04  -0.00     0.02  -0.02   0.00    -0.03  -0.03   0.01
  16   1     0.03   0.02  -0.02     0.04  -0.03  -0.02    -0.04  -0.04   0.04
  17   6    -0.02  -0.02  -0.09     0.01  -0.13  -0.12    -0.07  -0.10   0.14
  18   1    -0.01  -0.00  -0.03     0.00  -0.05  -0.04    -0.02  -0.02   0.05
  19   1     0.00  -0.01  -0.03     0.01  -0.04  -0.03    -0.02  -0.03   0.04
  20   1    -0.02  -0.01  -0.03    -0.00  -0.03  -0.04    -0.02  -0.04   0.05
  21   1    -0.01  -0.02  -0.01    -0.00  -0.04  -0.01     0.03  -0.01   0.03
  22   6     0.05   0.15  -0.14     0.09  -0.06  -0.00    -0.00   0.08  -0.02
  23   8     0.06   0.06  -0.08     0.12   0.04  -0.08    -0.07  -0.17   0.14
  24   7     0.06   0.30  -0.27     0.08  -0.11   0.00     0.03   0.28  -0.10
  25   1     0.02   0.08  -0.08     0.03  -0.00  -0.01    -0.00   0.04  -0.01
  26   1     0.02   0.10  -0.09     0.02  -0.05   0.02     0.02   0.12  -0.06
  27   7     0.04   0.15  -0.13     0.07  -0.16   0.07     0.04   0.21  -0.14
  28   1     0.00   0.06  -0.05     0.01  -0.07   0.03     0.02   0.11  -0.06
  29   1     0.00   0.01  -0.01     0.02  -0.04   0.01     0.00   0.03  -0.02
  30   6     0.02  -0.08   0.17    -0.17   0.11   0.03    -0.08  -0.03  -0.13
  31   8    -0.03  -0.06   0.09    -0.14  -0.06   0.12    -0.02  -0.11  -0.02
  32   7     0.03  -0.06   0.15    -0.12   0.24  -0.05    -0.07  -0.07  -0.10
  33   1     0.01  -0.00   0.02    -0.01   0.04  -0.01    -0.01  -0.04   0.01
  34   1     0.03  -0.02   0.07    -0.05   0.10  -0.02    -0.04  -0.00  -0.06
  35   7     0.07  -0.17   0.33    -0.31   0.23   0.03    -0.18   0.11  -0.36
  36   1     0.02  -0.05   0.11    -0.09   0.10  -0.01    -0.05   0.04  -0.12
  37   1     0.01  -0.05   0.09    -0.09   0.04   0.02    -0.04   0.04  -0.10
  38   6     0.01   0.07  -0.07     0.09   0.17   0.10     0.11   0.05  -0.10
  39   8     0.02   0.15  -0.06     0.09   0.08   0.07     0.02  -0.05  -0.11
  40   7     0.04   0.13  -0.09     0.18   0.39   0.20     0.15   0.13  -0.16
  41   1     0.02   0.06  -0.02     0.06   0.11   0.06     0.02   0.03  -0.05
  42   1     0.01   0.02  -0.03     0.04   0.11   0.06     0.06   0.05  -0.04
  43   7    -0.02  -0.04  -0.08     0.01   0.14   0.07     0.19   0.09  -0.07
  44   1    -0.00  -0.02  -0.03     0.01   0.05   0.03     0.07   0.04  -0.02
  45   1    -0.01  -0.02  -0.03    -0.00   0.00   0.00     0.05   0.01  -0.00
  46   6    -0.06  -0.15   0.14     0.00  -0.07  -0.02    -0.00   0.01   0.09
  47   8    -0.04  -0.12   0.07     0.03  -0.16  -0.03     0.01   0.00   0.07
  48   7    -0.07  -0.17   0.15     0.04  -0.03   0.02     0.03   0.06   0.05
  49   1    -0.01  -0.04   0.02     0.02  -0.01   0.01     0.02   0.02  -0.00
  50   1    -0.03  -0.06   0.06     0.01   0.01   0.00     0.00   0.02   0.02
  51   7    -0.10  -0.22   0.25    -0.07  -0.06  -0.05    -0.06  -0.03   0.17
  52   1    -0.03  -0.07   0.09    -0.02   0.00  -0.02    -0.02  -0.01   0.05
  53   1    -0.03  -0.06   0.07    -0.03  -0.02  -0.03    -0.02  -0.02   0.06
                      4                      5                      6
                        a                      a                      a 
 Frequencies --    34.0012                39.8588                44.5436
 Red. masses --    12.4540                12.1714                12.5441
 Frc consts  --     0.0000                 0.0000                 0.0000
 IR Inten    --     2.5749                 3.2904                 4.2170
 Raman Activ --     0.0000                 0.0000                 0.0000
 Depolar     --     0.0000                 0.0000                 0.0000
 Atom AN      X      Y      Z        X      Y      Z        X      Y      Z
   1   8    -0.13  -0.14   0.03     0.05  -0.17   0.04     0.08   0.14   0.06
   2   6    -0.09  -0.04  -0.01     0.04  -0.09   0.03     0.07   0.08   0.07
   3   1    -0.02  -0.01   0.01     0.01  -0.03   0.02     0.02   0.02   0.01
   4   1    -0.03  -0.01  -0.02     0.01  -0.03  -0.01     0.02   0.02   0.03
   5   6    -0.06   0.03   0.00     0.05  -0.02   0.03     0.07   0.04   0.07
   6   1    -0.01   0.02   0.00     0.01  -0.01   0.00     0.03   0.03   0.03
   7   1    -0.01   0.01  -0.01     0.02   0.00  -0.00     0.03  -0.01   0.03
   8   7    -0.10   0.07   0.05     0.07   0.02   0.11    -0.01   0.03   0.01
   9   6    -0.14   0.07   0.09     0.01  -0.00   0.20    -0.15   0.16   0.02
  10   1    -0.04   0.03   0.03     0.00   0.00   0.06    -0.03   0.08   0.03
  11   1    -0.05   0.03   0.04     0.00   0.01   0.08    -0.06   0.05  -0.00
  12   1    -0.05   0.00   0.03    -0.02  -0.02   0.06    -0.07   0.05  -0.01
  13   6    -0.05   0.13   0.05     0.15   0.10   0.12     0.12   0.03   0.08
  14   1    -0.02   0.04   0.02     0.05   0.04   0.05     0.01   0.00   0.01
  15   1    -0.01   0.04   0.01     0.04   0.03   0.04     0.05   0.05   0.05
  16   1    -0.00   0.04   0.00     0.06   0.03   0.02     0.07  -0.02   0.03
  17   6    -0.11   0.03   0.04     0.07   0.01   0.08    -0.06  -0.12  -0.11
  18   1    -0.03   0.02   0.02     0.03   0.01   0.03    -0.03  -0.04  -0.05
  19   1    -0.02   0.01  -0.00     0.03   0.01   0.01     0.01  -0.06  -0.03
  20   1    -0.04  -0.01   0.01     0.01  -0.01   0.02    -0.04  -0.03  -0.05
  21   1    -0.01  -0.04   0.01    -0.01  -0.05   0.05     0.02   0.04   0.01
  22   6     0.03   0.06   0.04    -0.08  -0.00  -0.04    -0.02  -0.05  -0.06
  23   8    -0.07  -0.04   0.09     0.05  -0.04   0.03     0.01  -0.00  -0.10
  24   7     0.07   0.21   0.06    -0.12   0.11  -0.30    -0.03  -0.12  -0.06
  25   1     0.00   0.05   0.03    -0.00   0.04  -0.11    -0.01  -0.03  -0.02
  26   1     0.04   0.07   0.01    -0.05   0.03  -0.09    -0.02  -0.04  -0.01
  27   7     0.11   0.05  -0.03    -0.21  -0.07   0.13    -0.05  -0.06  -0.04
  28   1     0.05   0.03  -0.01    -0.09  -0.01   0.02    -0.02  -0.02  -0.01
  29   1     0.02  -0.02  -0.00    -0.06  -0.04   0.07    -0.01   0.00  -0.01
  30   6     0.04  -0.10  -0.11    -0.01   0.08   0.06    -0.06  -0.06   0.01
  31   8     0.03  -0.03  -0.14    -0.00   0.07   0.09     0.06  -0.31   0.23
  32   7     0.04  -0.19  -0.03    -0.02   0.11   0.04    -0.09   0.10  -0.18
  33   1     0.00  -0.05  -0.00     0.00   0.02   0.02    -0.01   0.00  -0.03
  34   1     0.01  -0.06  -0.01    -0.00   0.03   0.02    -0.06   0.07  -0.08
  35   7     0.08  -0.11  -0.17    -0.02   0.09   0.07    -0.18   0.04  -0.06
  36   1     0.02  -0.05  -0.03    -0.01   0.03   0.01    -0.06   0.06  -0.06
  37   1     0.02  -0.02  -0.06    -0.00   0.02   0.02    -0.03  -0.02   0.01
  38   6    -0.06   0.10   0.12     0.06  -0.05  -0.06    -0.01   0.02  -0.03
  39   8    -0.05   0.18   0.15     0.07   0.02  -0.04     0.04   0.38   0.08
  40   7    -0.00   0.25   0.14     0.06  -0.08  -0.11    -0.09  -0.16  -0.19
  41   1     0.01   0.09   0.04     0.01  -0.01  -0.03    -0.02   0.02  -0.05
  42   1    -0.01   0.04   0.03     0.01  -0.04  -0.04    -0.03  -0.10  -0.07
  43   7    -0.14  -0.07   0.10     0.08  -0.10  -0.05    -0.01  -0.23  -0.02
  44   1    -0.04  -0.03   0.02     0.03  -0.03  -0.02    -0.02  -0.12  -0.04
  45   1    -0.04  -0.04   0.02     0.02  -0.03  -0.01     0.00  -0.02   0.01
  46   6     0.14  -0.11  -0.10    -0.08  -0.01  -0.08     0.08   0.03   0.06
  47   8     0.08  -0.16   0.07    -0.23  -0.19   0.27     0.06   0.14   0.05
  48   7     0.11  -0.18  -0.09    -0.01   0.11  -0.35    -0.02  -0.12   0.16
  49   1     0.01  -0.06   0.01    -0.02   0.01  -0.05    -0.03  -0.03   0.05
  50   1     0.05  -0.03  -0.07     0.02   0.06  -0.16     0.00  -0.05   0.04
  51   7     0.29  -0.01  -0.33    -0.01   0.08  -0.27     0.22   0.06  -0.02
  52   1     0.09  -0.00  -0.11     0.02   0.05  -0.13     0.06  -0.01   0.00
  53   1     0.08   0.00  -0.08    -0.02  -0.01  -0.01     0.08   0.04  -0.02
                      7                      8                      9
                        a                      a                      a 
 Frequencies --    50.7208                57.8691                60.8506
 Red. masses --    12.3290                12.2426                12.3191
 Frc consts  --     0.0000                 0.0000                 0.0000
 IR Inten    --     0.4610                 2.9815                 2.5223
 Raman Activ --     0.0000                 0.0000                 0.0000
 Depolar     --     0.0000                 0.0000                 0.0000
 Atom AN      X      Y      Z        X      Y      Z        X      Y      Z
   1   8    -0.09   0.06   0.09     0.03   0.02   0.08     0.05   0.12   0.02
   2   6    -0.09   0.10   0.08    -0.04   0.08   0.12     0.04   0.05   0.04
   3   1    -0.01   0.05   0.02     0.01   0.04   0.04     0.00   0.01   0.01
   4   1    -0.05   0.04   0.03    -0.03   0.04   0.05     0.02   0.01   0.02
   5   6    -0.09   0.01   0.09    -0.10  -0.01   0.10     0.02   0.04   0.03
   6   1    -0.03  -0.00   0.03    -0.04  -0.03   0.02     0.00   0.01   0.01
   7   1    -0.03   0.00   0.03    -0.05   0.01   0.04     0.00   0.01   0.01
   8   7    -0.05  -0.04   0.03    -0.02  -0.06   0.06     0.04   0.03   0.02
   9   6    -0.09   0.01   0.02     0.05  -0.09   0.01     0.12  -0.01  -0.04
  10   1    -0.02   0.01   0.02     0.01  -0.04   0.00     0.03  -0.02  -0.02
  11   1    -0.02  -0.00  -0.00     0.03  -0.04  -0.00     0.04  -0.01  -0.02
  12   1    -0.03   0.01  -0.00     0.03  -0.01   0.00     0.06   0.01  -0.00
  13   6     0.01  -0.11   0.08    -0.06  -0.15   0.06    -0.06  -0.00  -0.02
  14   1     0.01  -0.04   0.01    -0.00  -0.05   0.00    -0.02  -0.00  -0.01
  15   1    -0.00  -0.03   0.05    -0.03  -0.06   0.02    -0.02  -0.01  -0.02
  16   1     0.01  -0.04   0.03    -0.03  -0.04   0.03    -0.04   0.01   0.00
  17   6    -0.03  -0.05  -0.08     0.03   0.03   0.04     0.04   0.08   0.09
  18   1     0.00  -0.02  -0.03     0.03   0.00   0.01     0.01   0.02   0.03
  19   1     0.00  -0.02  -0.03    -0.00   0.02   0.01    -0.00   0.03   0.03
  20   1    -0.02   0.00  -0.04     0.01   0.02   0.01     0.03   0.02   0.03
  21   1    -0.00   0.01   0.02     0.02   0.00   0.02     0.01   0.03  -0.00
  22   6    -0.00   0.02  -0.02    -0.08   0.02  -0.01    -0.16  -0.04  -0.08
  23   8     0.01   0.20  -0.15    -0.07   0.16  -0.10    -0.20  -0.10  -0.05
  24   7     0.00   0.09  -0.07    -0.08   0.07  -0.05    -0.18  -0.13  -0.00
  25   1     0.01   0.08  -0.05    -0.01   0.06  -0.03    -0.06  -0.07   0.02
  26   1     0.00  -0.01   0.01    -0.02  -0.00   0.01    -0.05  -0.02  -0.01
  27   7    -0.03  -0.27   0.18    -0.10  -0.18   0.13    -0.15   0.12  -0.21
  28   1    -0.01  -0.10   0.06    -0.03  -0.06   0.04    -0.03   0.05  -0.06
  29   1    -0.01  -0.06   0.04    -0.03  -0.04   0.03    -0.04   0.04  -0.06
  30   6     0.06  -0.06  -0.07     0.06   0.04  -0.04    -0.05   0.06   0.05
  31   8     0.08  -0.15  -0.09     0.03   0.07  -0.12    -0.03   0.13   0.13
  32   7     0.06   0.05  -0.20     0.02   0.14  -0.16    -0.22   0.11  -0.09
  33   1     0.02   0.02  -0.07    -0.00   0.05  -0.06    -0.07   0.04  -0.01
  34   1     0.01   0.03  -0.05     0.02   0.03  -0.02    -0.06   0.01  -0.03
  35   7     0.07  -0.10   0.06     0.14  -0.08   0.16     0.07  -0.06   0.10
  36   1     0.02  -0.02   0.01     0.04  -0.03   0.05     0.01  -0.03  -0.00
  37   1     0.02  -0.05   0.04     0.04  -0.04   0.06     0.05  -0.02   0.04
  38   6    -0.09   0.05  -0.03     0.04  -0.01  -0.12     0.07  -0.03   0.05
  39   8    -0.15  -0.06  -0.07    -0.07  -0.17  -0.15     0.07  -0.07   0.05
  40   7    -0.10   0.06  -0.02     0.16   0.25  -0.12     0.19   0.23   0.12
  41   1    -0.04  -0.01  -0.01     0.03   0.07  -0.04     0.06   0.07   0.04
  42   1    -0.02   0.03  -0.00     0.06   0.08  -0.04     0.04   0.04   0.03
  43   7    -0.05   0.19  -0.02     0.05  -0.07  -0.12    -0.02  -0.20   0.02
  44   1    -0.00   0.08   0.01     0.03  -0.00  -0.03     0.00  -0.04   0.01
  45   1    -0.02   0.04   0.00     0.01  -0.04  -0.02    -0.00  -0.06  -0.00
  46   6     0.13  -0.00   0.04    -0.00  -0.01   0.05     0.07  -0.07  -0.06
  47   8     0.10  -0.00   0.14     0.00   0.02   0.02     0.01   0.14  -0.06
  48   7     0.24   0.16  -0.32    -0.14  -0.22   0.40     0.01  -0.15  -0.31
  49   1     0.06   0.05  -0.10    -0.04  -0.06   0.11    -0.03  -0.03  -0.09
  50   1     0.06   0.03  -0.08    -0.03  -0.05   0.08     0.01  -0.09  -0.06
  51   7     0.09  -0.15   0.32     0.12   0.14  -0.25     0.23  -0.22   0.18
  52   1     0.04  -0.03   0.05     0.02   0.02  -0.03     0.08  -0.10   0.03
  53   1     0.01  -0.06   0.14     0.05   0.06  -0.11     0.08  -0.03   0.09
                     10                     11                     12
                        a                      a                      a 
 Frequencies --    64.5030                67.9157                74.0857
 Red. masses --    12.3045                12.2036                12.8318
 Frc consts  --     0.0000                 0.0000                 0.0000
 IR Inten    --     0.8422                 2.0323                 1.9737
 Raman Activ --     0.0000                 0.0000                 0.0000
 Depolar     --     0.0000                 0.0000                 0.0000
 Atom AN      X      Y      Z        X      Y      Z        X      Y      Z
   1   8    -0.07  -0.15   0.02    -0.11  -0.04   0.08    -0.05  -0.04   0.01
   2   6    -0.01  -0.12  -0.03    -0.09   0.02   0.06    -0.02  -0.01  -0.01
   3   1    -0.01  -0.05  -0.01    -0.01   0.02   0.01    -0.01  -0.01  -0.00
   4   1     0.01  -0.04  -0.03    -0.05   0.02   0.02    -0.00  -0.01  -0.01
   5   6     0.06  -0.02  -0.01    -0.06  -0.03   0.07    -0.01   0.03  -0.01
   6   1     0.03   0.01  -0.00    -0.03  -0.02   0.03    -0.01  -0.01  -0.01
   7   1     0.03  -0.01  -0.02    -0.02  -0.00   0.02    -0.01   0.02  -0.01
   8   7     0.01   0.02   0.04     0.03  -0.05   0.07     0.05   0.05   0.05
   9   6     0.00   0.01   0.06    -0.07  -0.02   0.14    -0.00   0.02   0.14
  10   1     0.01   0.01   0.00    -0.02   0.00   0.06    -0.00   0.00   0.05
  11   1    -0.01   0.01   0.03    -0.01  -0.00   0.05     0.01   0.01   0.06
  12   1     0.01  -0.02   0.03    -0.05  -0.01   0.03    -0.01  -0.00   0.04
  13   6    -0.01   0.10   0.01     0.17  -0.08   0.16     0.14   0.10   0.09
  14   1    -0.01   0.04   0.02     0.06  -0.03   0.04     0.05   0.04   0.04
  15   1    -0.00   0.03  -0.01     0.04  -0.02   0.08     0.04   0.03   0.04
  16   1    -0.00   0.04  -0.01     0.07  -0.03   0.03     0.05   0.04   0.00
  17   6    -0.02   0.00   0.10     0.06  -0.06  -0.09     0.07   0.06  -0.01
  18   1    -0.02   0.01   0.03     0.04  -0.02  -0.03     0.03   0.03   0.01
  19   1    -0.00  -0.00   0.03     0.03  -0.02  -0.04     0.03   0.02  -0.02
  20   1    -0.00  -0.01   0.04    -0.01  -0.01  -0.04     0.00   0.00  -0.01
  21   1    -0.02  -0.04   0.01    -0.03  -0.01   0.04    -0.00  -0.01   0.01
  22   6     0.04   0.03   0.07     0.06   0.06  -0.03    -0.01  -0.13  -0.16
  23   8    -0.08  -0.05   0.10     0.16   0.15  -0.06    -0.07  -0.21  -0.15
  24   7     0.07   0.02   0.23     0.01  -0.39   0.18     0.01  -0.14  -0.11
  25   1    -0.01  -0.02   0.10    -0.00  -0.15   0.07    -0.01  -0.05  -0.01
  26   1     0.04   0.02   0.05    -0.02  -0.11   0.04     0.01  -0.03  -0.04
  27   7     0.14   0.18  -0.12     0.04   0.43  -0.20     0.04  -0.07  -0.26
  28   1     0.06   0.04  -0.02    -0.00   0.06  -0.03     0.02  -0.00  -0.07
  29   1     0.03   0.02  -0.04     0.02   0.13  -0.05     0.01  -0.03  -0.06
  30   6     0.05   0.00  -0.04     0.07   0.01  -0.01    -0.15   0.02   0.03
  31   8     0.15  -0.14   0.13     0.05  -0.03  -0.09    -0.19   0.21   0.03
  32   7    -0.18   0.33  -0.49     0.20  -0.01   0.08    -0.28  -0.07   0.06
  33   1    -0.05   0.08  -0.11     0.06  -0.00   0.00    -0.09  -0.01   0.02
  34   1    -0.05   0.10  -0.14     0.05   0.01   0.03    -0.06  -0.06   0.03
  35   7     0.16  -0.15   0.20    -0.02   0.08  -0.01    -0.01  -0.10   0.01
  36   1     0.03  -0.02  -0.00     0.00   0.03   0.02    -0.00  -0.06  -0.00
  37   1     0.08  -0.10   0.12    -0.03   0.03  -0.01     0.02  -0.00  -0.01
  38   6    -0.01   0.00  -0.03    -0.07   0.01  -0.10    -0.06   0.03  -0.04
  39   8     0.01  -0.01  -0.06    -0.13  -0.07  -0.12    -0.09  -0.14  -0.11
  40   7    -0.06  -0.11  -0.03    -0.00   0.17  -0.10    -0.11  -0.07  -0.01
  41   1    -0.02  -0.04  -0.01    -0.01   0.04  -0.03    -0.04  -0.06  -0.01
  42   1    -0.02  -0.02  -0.00     0.00   0.04  -0.03    -0.02   0.03   0.01
  43   7     0.00   0.11  -0.03    -0.08  -0.02  -0.11     0.01   0.33  -0.02
  44   1    -0.00   0.03  -0.00    -0.01   0.01  -0.03     0.01   0.11   0.01
  45   1    -0.00   0.02  -0.01    -0.02  -0.02  -0.02    -0.00   0.07  -0.01
  46   6    -0.05  -0.02  -0.03    -0.05  -0.02   0.02     0.16   0.02   0.11
  47   8    -0.03  -0.14  -0.03    -0.12  -0.03   0.14     0.18  -0.06   0.17
  48   7     0.01   0.07   0.00    -0.07  -0.03  -0.09     0.18   0.03   0.22
  49   1     0.02   0.01   0.00    -0.03  -0.01  -0.02     0.06   0.01   0.06
  50   1    -0.00   0.04  -0.00    -0.01  -0.01  -0.04     0.05   0.04   0.04
  51   7    -0.17   0.01  -0.08     0.02  -0.02  -0.01     0.16   0.11  -0.04
  52   1    -0.05   0.03  -0.02     0.02  -0.01  -0.02     0.03   0.03   0.00
  53   1    -0.06  -0.02  -0.03     0.01  -0.00   0.02     0.03   0.02  -0.01
                     13                     14                     15
                        a                      a                      a 
 Frequencies --    80.1116                89.0972                95.6197
 Red. masses --    13.5481                13.1176                13.0571
 Frc consts  --     0.0000                 0.0000                 0.0000
 IR Inten    --     5.8382                 3.5551                10.8197
 Raman Activ --     0.0000                 0.0000                 0.0000
 Depolar     --     0.0000                 0.0000                 0.0000
 Atom AN      X      Y      Z        X      Y      Z        X      Y      Z
   1   8     0.18  -0.02  -0.07    -0.04  -0.11   0.06    -0.14   0.08   0.05
   2   6     0.02   0.00   0.07    -0.07   0.12   0.06    -0.07  -0.05   0.02
   3   1     0.02   0.01   0.04     0.02   0.08   0.01    -0.04  -0.03  -0.01
   4   1     0.00   0.01   0.04    -0.08   0.06   0.01    -0.00  -0.02   0.02
   5   6    -0.14  -0.03  -0.00    -0.06   0.01   0.07    -0.03  -0.08   0.04
   6   1    -0.05  -0.03  -0.02    -0.03  -0.02   0.03    -0.01  -0.02   0.02
   7   1    -0.07   0.01   0.01    -0.03   0.01   0.02    -0.01  -0.03   0.01
   8   7    -0.11  -0.05  -0.01     0.06  -0.04   0.03    -0.03  -0.10   0.01
   9   6    -0.12  -0.05   0.01     0.06  -0.04   0.03     0.04  -0.10  -0.05
  10   1    -0.04  -0.02   0.03     0.02  -0.01   0.01     0.02  -0.03  -0.04
  11   1    -0.02  -0.02  -0.00     0.02  -0.01   0.01    -0.00  -0.03  -0.02
  12   1    -0.05   0.00  -0.01     0.02  -0.01   0.01     0.03  -0.03  -0.00
  13   6    -0.08  -0.06   0.01     0.10  -0.13   0.08    -0.11  -0.14  -0.02
  14   1    -0.03  -0.02  -0.00     0.04  -0.05   0.01    -0.04  -0.05  -0.02
  15   1    -0.02  -0.01   0.01     0.02  -0.04   0.05    -0.03  -0.04  -0.02
  16   1    -0.01  -0.03   0.01     0.03  -0.04   0.03    -0.05  -0.04   0.01
  17   6    -0.08  -0.02  -0.05     0.10   0.01  -0.06    -0.01  -0.05   0.06
  18   1    -0.01   0.00   0.00     0.05  -0.01  -0.02    -0.00  -0.02   0.01
  19   1    -0.02   0.00  -0.04     0.03   0.01  -0.02    -0.02  -0.01   0.03
  20   1    -0.03  -0.02  -0.02     0.02   0.02  -0.03     0.02  -0.00   0.02
  21   1     0.04  -0.01  -0.00     0.02  -0.03   0.03    -0.05   0.02   0.01
  22   6     0.05  -0.02  -0.03    -0.11   0.11  -0.03    -0.02  -0.02   0.04
  23   8     0.07  -0.03  -0.03    -0.34   0.31  -0.24     0.09  -0.11   0.14
  24   7     0.04  -0.11   0.00    -0.06   0.10   0.28    -0.05  -0.05  -0.09
  25   1     0.01  -0.04   0.00    -0.05   0.08   0.10     0.00  -0.04  -0.03
  26   1     0.00  -0.03  -0.00     0.03   0.00   0.12    -0.04  -0.00  -0.05
  27   7     0.05   0.06  -0.08     0.05  -0.06  -0.10    -0.10   0.09   0.06
  28   1     0.01   0.01  -0.02     0.05  -0.07   0.01    -0.04   0.05  -0.00
  29   1     0.01   0.02  -0.01     0.00  -0.03  -0.07    -0.02   0.03   0.03
  30   6    -0.09   0.06  -0.13    -0.05  -0.01   0.03     0.02   0.05  -0.03
  31   8    -0.26   0.21  -0.47    -0.04   0.10   0.08    -0.02   0.06  -0.15
  32   7    -0.03   0.10  -0.12    -0.10  -0.15   0.13     0.08   0.07  -0.03
  33   1    -0.00   0.04  -0.07    -0.06  -0.01   0.02     0.03   0.01  -0.01
  34   1     0.05  -0.01   0.04    -0.05  -0.04   0.00     0.04   0.01   0.02
  35   7     0.02  -0.12   0.23     0.02  -0.04  -0.11     0.03   0.02   0.08
  36   1     0.02  -0.06   0.12     0.00  -0.04  -0.04     0.01   0.00   0.04
  37   1    -0.03  -0.03   0.05     0.02   0.01  -0.04    -0.01   0.00   0.02
  38   6     0.10  -0.00   0.10     0.14   0.04  -0.04     0.06   0.15  -0.07
  39   8     0.06   0.22   0.24     0.30   0.24  -0.03     0.42   0.32  -0.18
  40   7     0.06  -0.11  -0.08     0.06  -0.15  -0.01    -0.10  -0.21   0.18
  41   1     0.01   0.02  -0.03     0.04  -0.01   0.01     0.04  -0.05   0.09
  42   1     0.04  -0.05  -0.04    -0.00  -0.06  -0.00    -0.08  -0.04   0.08
  43   7     0.20  -0.18   0.17     0.06  -0.02  -0.07    -0.16   0.29  -0.19
  44   1     0.06  -0.08   0.02    -0.01  -0.03  -0.03    -0.10   0.06  -0.04
  45   1     0.06  -0.03   0.06     0.02   0.00  -0.03    -0.04   0.09  -0.09
  46   6     0.01   0.04   0.05    -0.02  -0.06  -0.04     0.03  -0.04   0.03
  47   8     0.01  -0.04   0.11     0.02  -0.17  -0.07    -0.02   0.04   0.09
  48   7     0.07   0.13  -0.02     0.05   0.04  -0.03    -0.04  -0.14   0.02
  49   1     0.03   0.03   0.01     0.04   0.01  -0.01    -0.02  -0.03  -0.01
  50   1     0.02   0.05  -0.01     0.01   0.03  -0.00     0.01  -0.04  -0.02
  51   7    -0.05   0.05   0.06    -0.16  -0.06  -0.04     0.17  -0.03  -0.01
  52   1    -0.01   0.03  -0.00    -0.05   0.01  -0.01     0.05  -0.04  -0.00
  53   1    -0.02  -0.00   0.02    -0.06  -0.04  -0.02     0.06   0.00   0.02
                     16                     17                     18
                        a                      a                      a 
 Frequencies --   102.4737               106.3498               118.9626
 Red. masses --    13.2189                12.6116                12.2400
 Frc consts  --     0.0000                 0.0000                 0.0000
 IR Inten    --     5.9536                 3.6099                 9.6123
 Raman Activ --     0.0000                 0.0000                 0.0000
 Depolar     --     0.0000                 0.0000                 0.0000
 Atom AN      X      Y      Z        X      Y      Z        X      Y      Z
   1   8    -0.15   0.04   0.16    -0.01   0.15  -0.17     0.14   0.03   0.00
   2   6    -0.05  -0.07   0.07    -0.00   0.03  -0.14     0.10  -0.01   0.03
   3   1    -0.04  -0.04   0.00    -0.01  -0.00  -0.06     0.02  -0.01   0.01
   4   1     0.01  -0.03   0.02     0.01   0.01  -0.03     0.04  -0.01   0.02
   5   6     0.03  -0.05   0.10     0.03  -0.03  -0.12     0.07  -0.00   0.02
   6   1     0.00  -0.02   0.04     0.00  -0.02  -0.02     0.02   0.00   0.00
   7   1     0.01  -0.01   0.02     0.01  -0.00  -0.04     0.02  -0.00   0.00
   8   7     0.08  -0.06   0.12     0.10  -0.03  -0.09     0.06   0.01   0.04
   9   6     0.01  -0.01   0.13    -0.00  -0.03   0.03    -0.09   0.10   0.10
  10   1     0.00   0.01   0.06    -0.01  -0.01   0.04    -0.03   0.05   0.07
  11   1     0.01  -0.01   0.03     0.02  -0.01   0.02    -0.02   0.03   0.03
  12   1    -0.01   0.01   0.02    -0.03  -0.01  -0.01    -0.06   0.03   0.01
  13   6     0.18  -0.08   0.17     0.26   0.01  -0.01     0.23   0.07   0.12
  14   1     0.06  -0.03   0.05     0.08   0.01   0.01     0.06   0.02   0.04
  15   1     0.05  -0.01   0.08     0.07   0.01   0.03     0.07   0.05   0.07
  16   1     0.07  -0.03   0.04     0.10  -0.00  -0.03     0.11  -0.00   0.02
  17   6     0.10  -0.06   0.02     0.10  -0.07  -0.18     0.02  -0.10  -0.07
  18   1     0.04  -0.01   0.01     0.03  -0.02  -0.04     0.00  -0.02  -0.01
  19   1     0.04  -0.01  -0.01     0.04  -0.03  -0.07     0.03  -0.05  -0.04
  20   1     0.01  -0.02  -0.00     0.00  -0.03  -0.06    -0.02  -0.04  -0.03
  21   1    -0.02   0.02  -0.01    -0.04   0.03  -0.02     0.03   0.01  -0.02
  22   6     0.12  -0.10   0.02     0.01   0.09   0.17    -0.11   0.04   0.07
  23   8     0.08  -0.24   0.09     0.01   0.06   0.22    -0.13   0.02   0.11
  24   7     0.16   0.09  -0.06     0.01   0.14   0.16    -0.12   0.09   0.07
  25   1     0.04   0.02  -0.01     0.00   0.04   0.04    -0.03   0.02   0.02
  26   1     0.06   0.04  -0.03     0.01   0.05   0.03    -0.03   0.03   0.01
  27   7     0.16  -0.19   0.03    -0.01   0.10   0.21    -0.11   0.04   0.07
  28   1     0.05   0.00  -0.02    -0.01   0.03   0.05    -0.02   0.03   0.01
  29   1     0.04  -0.04  -0.01    -0.00   0.03   0.07    -0.03   0.02   0.01
  30   6    -0.03   0.07  -0.01    -0.15  -0.12  -0.08    -0.03   0.00  -0.05
  31   8    -0.07   0.22  -0.07    -0.18  -0.05  -0.09    -0.10  -0.02  -0.20
  32   7    -0.10   0.02   0.01    -0.24  -0.12  -0.12     0.08   0.02  -0.01
  33   1    -0.03   0.01   0.01    -0.07  -0.04  -0.03     0.03   0.01  -0.02
  34   1    -0.01  -0.03   0.02    -0.05  -0.05  -0.02     0.04   0.01   0.02
  35   7     0.09  -0.04   0.02    -0.07  -0.22  -0.04    -0.08   0.00   0.09
  36   1     0.02  -0.04   0.01    -0.02  -0.07  -0.01    -0.01   0.01   0.05
  37   1     0.03   0.01  -0.01    -0.01  -0.06  -0.01    -0.05  -0.00   0.02
  38   6    -0.10   0.03  -0.07     0.05  -0.08  -0.03     0.04   0.06   0.04
  39   8    -0.06   0.18  -0.05     0.12  -0.17  -0.10    -0.08  -0.08   0.05
  40   7    -0.06   0.14  -0.08     0.11   0.04   0.11    -0.05  -0.13  -0.05
  41   1    -0.01   0.07  -0.02     0.05  -0.00   0.04    -0.03  -0.06  -0.02
  42   1    -0.03  -0.01  -0.04     0.00   0.00   0.04     0.04   0.05  -0.00
  43   7    -0.19  -0.20  -0.11    -0.07  -0.12  -0.10     0.21   0.36   0.13
  44   1    -0.06  -0.07  -0.04    -0.03  -0.02  -0.01     0.08   0.12   0.05
  45   1    -0.05  -0.03  -0.02    -0.01  -0.01  -0.04     0.05   0.05   0.04
  46   6    -0.05   0.09  -0.13    -0.02   0.10   0.09    -0.02  -0.12  -0.15
  47   8     0.04   0.20  -0.38    -0.09   0.14   0.22    -0.01   0.06  -0.34
  48   7    -0.07   0.06  -0.08    -0.06   0.06  -0.01    -0.12  -0.27  -0.05
  49   1    -0.03   0.02  -0.03    -0.04   0.01   0.01    -0.02  -0.06  -0.04
  50   1    -0.04  -0.03   0.04    -0.00   0.00  -0.02    -0.04  -0.09   0.02
  51   7    -0.14  -0.02   0.08     0.10   0.12   0.06     0.05  -0.20  -0.06
  52   1    -0.04  -0.01   0.03     0.04   0.02  -0.00     0.01  -0.09   0.02
  53   1    -0.02   0.02  -0.03     0.03   0.04   0.04     0.04  -0.02  -0.04
                     19                     20                     21
                        a                      a                      a 
 Frequencies --   124.1213               130.1573               141.8190
 Red. masses --    12.7452                12.5834                11.7875
 Frc consts  --     0.0000                 0.0000                 0.0000
 IR Inten    --    12.8055                13.1383                 6.3826
 Raman Activ --     0.0000                 0.0000                 0.0000
 Depolar     --     0.0000                 0.0000                 0.0000
 Atom AN      X      Y      Z        X      Y      Z        X      Y      Z
   1   8     0.03  -0.01  -0.08    -0.13  -0.07  -0.03     0.08   0.11  -0.16
   2   6     0.03  -0.01  -0.08    -0.03  -0.15  -0.09    -0.10   0.10   0.02
   3   1     0.02   0.01  -0.03    -0.04  -0.07  -0.03    -0.02   0.04   0.03
   4   1    -0.00   0.01  -0.01     0.02  -0.06  -0.04    -0.03   0.04   0.03
   5   6     0.05  -0.10  -0.06     0.06  -0.06  -0.06    -0.28   0.03  -0.05
   6   1     0.01  -0.03  -0.00     0.03  -0.00  -0.01    -0.10  -0.03  -0.04
   7   1     0.02  -0.04  -0.01     0.04  -0.02  -0.04    -0.12   0.04   0.00
   8   7     0.08  -0.16  -0.15     0.02  -0.01   0.02    -0.19   0.01  -0.04
   9   6     0.04  -0.08  -0.17    -0.04  -0.02   0.09    -0.27  -0.01   0.10
  10   1     0.01  -0.01  -0.03    -0.01   0.00   0.02    -0.10  -0.02   0.09
  11   1     0.01  -0.03  -0.06    -0.01   0.01   0.04    -0.03  -0.02   0.03
  12   1     0.00  -0.01  -0.06    -0.02  -0.02   0.03    -0.12   0.02  -0.01
  13   6     0.11  -0.26  -0.09     0.07   0.12   0.01     0.02  -0.01   0.08
  14   1     0.03  -0.09  -0.05     0.02   0.05   0.03     0.01  -0.01   0.01
  15   1     0.03  -0.06  -0.00     0.02   0.04   0.00     0.01   0.02   0.07
  16   1     0.04  -0.09  -0.01     0.04   0.04  -0.02     0.04  -0.03   0.01
  17   6     0.09  -0.15  -0.20    -0.02  -0.07   0.04    -0.10   0.05  -0.23
  18   1     0.04  -0.05  -0.06    -0.02  -0.02   0.01     0.01   0.04  -0.02
  19   1     0.03  -0.04  -0.06     0.00  -0.03   0.01     0.00   0.03  -0.13
  20   1     0.02  -0.04  -0.06    -0.01  -0.03   0.01    -0.09  -0.03  -0.08
  21   1     0.01  -0.01  -0.01    -0.02  -0.01  -0.03     0.00   0.02  -0.01
  22   6    -0.13  -0.02   0.09    -0.19  -0.02  -0.02     0.05  -0.12  -0.01
  23   8    -0.20  -0.19   0.21    -0.33  -0.10  -0.00    -0.12  -0.27   0.02
  24   7    -0.12   0.11   0.09    -0.16   0.09   0.08     0.11   0.08   0.05
  25   1    -0.04   0.01   0.04    -0.07   0.02   0.05     0.00   0.01   0.04
  26   1    -0.01   0.06  -0.00    -0.01   0.03   0.02     0.07   0.03   0.01
  27   7    -0.09   0.07  -0.00    -0.09  -0.04  -0.12     0.16  -0.17  -0.13
  28   1    -0.01   0.05  -0.01     0.01   0.02  -0.04     0.07   0.01  -0.06
  29   1    -0.03  -0.01   0.01    -0.03  -0.02  -0.05     0.04  -0.05  -0.04
  30   6     0.10   0.13   0.05     0.06   0.03  -0.01     0.13   0.08   0.08
  31   8     0.14   0.20   0.10    -0.00  -0.16  -0.21     0.19   0.04   0.16
  32   7     0.02   0.09   0.05     0.33   0.09   0.06     0.11   0.10   0.05
  33   1    -0.01   0.02   0.04     0.10   0.03  -0.01     0.02   0.02   0.03
  34   1     0.00   0.00  -0.00     0.09   0.07   0.03     0.01   0.03  -0.01
  35   7     0.18   0.10  -0.02    -0.15   0.15   0.17     0.12   0.13   0.00
  36   1     0.05   0.01  -0.02    -0.03   0.09   0.09     0.03   0.04  -0.02
  37   1     0.07   0.04  -0.01    -0.10   0.02   0.04     0.05   0.03   0.01
  38   6    -0.13   0.09   0.03     0.01  -0.08  -0.04     0.11  -0.06   0.00
  39   8    -0.26   0.19   0.12     0.09  -0.07  -0.08     0.16  -0.15  -0.04
  40   7    -0.15   0.07  -0.17     0.07   0.05   0.07     0.11  -0.08   0.12
  41   1    -0.07   0.05  -0.06     0.03   0.01   0.03     0.05  -0.04   0.04
  42   1    -0.01   0.01  -0.07    -0.01  -0.02   0.02     0.02   0.00   0.05
  43   7    -0.01   0.03   0.10    -0.10  -0.18  -0.10     0.07   0.03  -0.02
  44   1     0.02  -0.01   0.01    -0.04  -0.05  -0.02     0.01   0.02   0.01
  45   1    -0.00   0.01   0.05    -0.02  -0.03  -0.03     0.02  -0.00  -0.02
  46   6     0.04  -0.02   0.07     0.12   0.11   0.04    -0.08   0.02   0.01
  47   8     0.02  -0.10   0.18     0.21   0.06  -0.05    -0.14   0.08   0.07
  48   7     0.08   0.03   0.04     0.19   0.18   0.10    -0.14  -0.04  -0.06
  49   1     0.02   0.00   0.02     0.06   0.05   0.03    -0.05  -0.01  -0.02
  50   1     0.03   0.02  -0.01     0.03   0.05   0.06    -0.02  -0.02  -0.04
  51   7     0.05   0.02  -0.00     0.01   0.10   0.09     0.02   0.01  -0.01
  52   1     0.02   0.02  -0.02    -0.00   0.05   0.03     0.01  -0.02   0.00
  53   1     0.00  -0.01   0.01     0.00   0.02  -0.00     0.01   0.01   0.03
                     22                     23                     24
                        a                      a                      a 
 Frequencies --   147.2348               151.6283               158.4507
 Red. masses --    12.1829                11.4491                10.2324
 Frc consts  --     0.0000                 0.0000                 0.0000
 IR Inten    --    26.5949                18.8047                 3.7255
 Raman Activ --     0.0000                 0.0000                 0.0000
 Depolar     --     0.0000                 0.0000                 0.0000
 Atom AN      X      Y      Z        X      Y      Z        X      Y      Z
   1   8    -0.10  -0.12  -0.14    -0.00   0.10  -0.06    -0.02  -0.03   0.21
   2   6    -0.11  -0.21  -0.08     0.09  -0.33  -0.07     0.10   0.00   0.07
   3   1    -0.06  -0.08  -0.02    -0.06  -0.17  -0.04     0.03   0.00  -0.00
   4   1     0.00  -0.08  -0.02     0.13  -0.14  -0.01     0.02   0.00   0.00
   5   6    -0.16  -0.14  -0.11     0.15  -0.20  -0.06     0.25   0.02   0.12
   6   1    -0.05  -0.05  -0.05     0.06  -0.02  -0.02     0.12   0.09   0.07
   7   1    -0.06  -0.02  -0.04     0.06  -0.07  -0.03     0.14  -0.08   0.04
   8   7    -0.13  -0.08   0.02    -0.00  -0.12   0.04    -0.08  -0.00  -0.04
   9   6    -0.19  -0.14   0.16    -0.03  -0.11   0.07    -0.26   0.27  -0.16
  10   1    -0.07  -0.06   0.09    -0.00  -0.02   0.01    -0.02   0.16  -0.07
  11   1    -0.01  -0.04   0.06    -0.02  -0.02   0.03    -0.18   0.10  -0.05
  12   1    -0.09  -0.03   0.02    -0.01  -0.04   0.02    -0.07   0.03  -0.03
  13   6    -0.02   0.04   0.04    -0.06   0.07  -0.04    -0.03   0.01  -0.02
  14   1    -0.01   0.03   0.03    -0.04   0.04   0.01    -0.05  -0.00  -0.02
  15   1    -0.00   0.02   0.02    -0.01   0.02  -0.05     0.01   0.04   0.00
  16   1     0.02   0.01  -0.01    -0.02   0.03  -0.03     0.01  -0.03   0.01
  17   6    -0.08  -0.01  -0.02    -0.06  -0.16   0.18    -0.23  -0.31  -0.10
  18   1     0.00   0.02   0.03    -0.04  -0.04   0.05    -0.13  -0.13  -0.10
  19   1    -0.01   0.02  -0.05    -0.02  -0.05   0.07    -0.05  -0.16   0.05
  20   1    -0.04  -0.03  -0.01     0.00  -0.05   0.06    -0.06  -0.04  -0.04
  21   1    -0.02  -0.03  -0.06    -0.07   0.03  -0.03     0.01  -0.00   0.04
  22   6    -0.04   0.11   0.03     0.04   0.04  -0.09    -0.00   0.02  -0.00
  23   8     0.15   0.23   0.02    -0.11   0.22  -0.28     0.03   0.06  -0.01
  24   7    -0.12  -0.09  -0.10     0.09   0.05   0.14    -0.02  -0.02  -0.01
  25   1     0.00  -0.03  -0.06    -0.00   0.07   0.05     0.00  -0.00  -0.01
  26   1    -0.08  -0.04  -0.03     0.06  -0.01   0.08    -0.01  -0.01  -0.00
  27   7    -0.19   0.16   0.16     0.14  -0.17  -0.08    -0.02   0.04   0.02
  28   1    -0.08   0.02   0.05     0.06  -0.06  -0.01    -0.01  -0.01   0.01
  29   1    -0.04   0.07   0.05     0.04  -0.02  -0.05    -0.01   0.00   0.01
  30   6     0.05   0.03   0.04     0.02   0.05   0.00     0.01   0.11  -0.01
  31   8     0.12   0.13   0.21     0.01   0.12  -0.02    -0.01   0.28  -0.03
  32   7    -0.12  -0.02   0.01     0.01  -0.02   0.06    -0.08   0.03   0.04
  33   1    -0.05  -0.00   0.02    -0.02   0.03  -0.01    -0.04   0.02   0.02
  34   1    -0.04  -0.02  -0.02    -0.01   0.01  -0.01    -0.01  -0.03   0.02
  35   7     0.18  -0.02  -0.13     0.07   0.03  -0.03     0.16   0.02  -0.05
  36   1     0.04  -0.04  -0.07     0.02  -0.01   0.00     0.05  -0.04  -0.00
  37   1     0.10   0.01  -0.03     0.03   0.02  -0.01     0.07   0.03  -0.02
  38   6     0.07  -0.00   0.01    -0.02   0.05   0.01     0.04  -0.10  -0.03
  39   8     0.05   0.02   0.04    -0.07   0.06   0.04     0.10  -0.22  -0.10
  40   7     0.05  -0.06  -0.04    -0.05  -0.02  -0.07     0.09  -0.01   0.13
  41   1     0.02   0.02  -0.01    -0.02   0.02  -0.02     0.04  -0.04   0.05
  42   1     0.04   0.02  -0.01     0.02   0.03  -0.02    -0.01  -0.01   0.05
  43   7     0.10  -0.02   0.03     0.04   0.08   0.04    -0.04  -0.07  -0.08
  44   1     0.03  -0.02   0.00     0.02   0.03   0.01    -0.02  -0.00  -0.00
  45   1     0.03  -0.01   0.01     0.01   0.01   0.02    -0.01  -0.01  -0.02
  46   6     0.12   0.06  -0.05    -0.08   0.07   0.06     0.01  -0.02   0.01
  47   8     0.22   0.12  -0.25    -0.19   0.22   0.18     0.03  -0.08   0.02
  48   7     0.14   0.06   0.08    -0.20  -0.06  -0.08     0.05   0.03   0.03
  49   1     0.05   0.02   0.02    -0.09  -0.01  -0.03     0.02   0.00   0.01
  50   1     0.01  -0.00   0.08    -0.03  -0.04  -0.05     0.01   0.02   0.01
  51   7     0.04  -0.00   0.09     0.17   0.06   0.05    -0.05   0.00  -0.02
  52   1     0.01   0.01   0.02     0.07  -0.03   0.01    -0.02   0.02  -0.01
  53   1     0.03   0.03  -0.04     0.07   0.04   0.06    -0.02  -0.01  -0.01
                     25                     26                     27
                        a                      a                      a 
 Frequencies --   189.0020               220.5898               234.9416
 Red. masses --    12.2580                 2.8733                 2.7118
 Frc consts  --     0.0000                 0.0000                 0.0000
 IR Inten    --    31.3286               162.2424               122.3857
 Raman Activ --     0.0000                 0.0000                 0.0000
 Depolar     --     0.0000                 0.0000                 0.0000
 Atom AN      X      Y      Z        X      Y      Z        X      Y      Z
   1   8    -0.55  -0.21   0.16     0.06   0.01  -0.00     0.04  -0.01  -0.01
   2   6    -0.28   0.06  -0.10     0.04   0.02   0.02     0.02  -0.01   0.01
   3   1    -0.05   0.05  -0.06     0.01   0.01   0.01     0.01  -0.00   0.01
   4   1    -0.14   0.03  -0.08     0.01   0.01   0.01     0.01  -0.00   0.00
   5   6     0.04   0.07   0.03     0.01   0.01   0.01    -0.00  -0.00   0.00
   6   1     0.03   0.06   0.07     0.00  -0.00  -0.00    -0.00  -0.00  -0.00
   7   1     0.07  -0.02  -0.02    -0.00   0.01   0.01    -0.00   0.00   0.00
   8   7     0.03   0.04  -0.04     0.01   0.01   0.00     0.00   0.00   0.01
   9   6     0.05   0.07  -0.10     0.01   0.01  -0.00    -0.01   0.01   0.01
  10   1     0.04   0.04  -0.08    -0.00   0.00   0.01    -0.00   0.00  -0.00
  11   1    -0.04   0.04  -0.02     0.01  -0.00  -0.01    -0.00   0.00   0.00
  12   1     0.05  -0.02   0.01    -0.00   0.01  -0.01     0.00   0.00   0.00
  13   6    -0.01  -0.03  -0.04    -0.00   0.00  -0.00     0.01   0.00   0.01
  14   1     0.04  -0.01  -0.00    -0.00  -0.00  -0.00     0.01   0.00   0.01
  15   1    -0.03  -0.05  -0.01    -0.00  -0.00  -0.00    -0.00  -0.01   0.00
  16   1    -0.03   0.02  -0.02    -0.00   0.00   0.00     0.00   0.00  -0.00
  17   6     0.02   0.02  -0.06     0.00   0.01   0.01     0.00   0.00   0.00
  18   1    -0.01  -0.04  -0.08    -0.00   0.00   0.00     0.00   0.00   0.00
  19   1    -0.02  -0.02   0.05     0.00   0.00  -0.00     0.00   0.00  -0.00
  20   1     0.03   0.07  -0.03    -0.00  -0.00   0.00    -0.00  -0.00   0.00
  21   1    -0.11  -0.06   0.04     0.01   0.00   0.00     0.02  -0.00  -0.01
  22   6     0.02  -0.04   0.02     0.00  -0.01  -0.00    -0.00   0.01   0.00
  23   8     0.01  -0.10   0.05    -0.01  -0.01  -0.01     0.01   0.01   0.01
  24   7     0.03   0.02  -0.02     0.01   0.01   0.00    -0.01  -0.01   0.00
  25   1     0.01  -0.01   0.00    -0.00   0.00   0.00     0.00  -0.00  -0.00
  26   1     0.01   0.01  -0.01     0.01  -0.00   0.01    -0.01   0.00  -0.01
  27   7     0.03  -0.03  -0.00     0.01   0.00  -0.02    -0.01  -0.01   0.02
  28   1     0.01   0.02  -0.02     0.00  -0.02   0.01    -0.00   0.02  -0.01
  29   1     0.01   0.00  -0.00    -0.00  -0.02   0.01     0.00   0.02  -0.01
  30   6    -0.00  -0.01  -0.00    -0.00  -0.00   0.00     0.00  -0.00   0.00
  31   8    -0.01  -0.02  -0.01    -0.00  -0.01  -0.00     0.00  -0.00   0.00
  32   7     0.01   0.00  -0.01     0.00   0.00  -0.00    -0.00   0.00  -0.00
  33   1     0.01  -0.01   0.00     0.00  -0.00  -0.00     0.00  -0.00   0.00
  34   1     0.01  -0.00   0.01     0.00   0.00   0.00     0.00  -0.00   0.00
  35   7    -0.02   0.00   0.01    -0.01   0.00   0.00     0.00   0.00  -0.00
  36   1    -0.01   0.01   0.01    -0.00  -0.00   0.01     0.00  -0.00  -0.00
  37   1    -0.01  -0.00   0.00    -0.00  -0.00   0.00     0.00  -0.00   0.00
  38   6     0.17  -0.01   0.02     0.00   0.07  -0.01    -0.01   0.03   0.00
  39   8     0.03  -0.03   0.11    -0.01  -0.03  -0.04    -0.01  -0.00  -0.01
  40   7     0.13  -0.13  -0.19    -0.14  -0.24  -0.02    -0.10  -0.15  -0.00
  41   1     0.03   0.04  -0.06     0.15   0.32   0.09     0.11   0.24   0.06
  42   1     0.13   0.08  -0.05     0.23   0.59   0.15     0.16   0.40   0.10
  43   7     0.32   0.03   0.12    -0.06  -0.03  -0.01    -0.06  -0.07  -0.01
  44   1     0.11   0.01   0.02    -0.05  -0.09  -0.05    -0.03  -0.05  -0.02
  45   1     0.08  -0.03   0.05    -0.02  -0.04  -0.03    -0.02  -0.03  -0.01
  46   6    -0.03   0.07   0.02    -0.00  -0.00   0.00     0.01  -0.00   0.02
  47   8    -0.05   0.17   0.03    -0.01  -0.04   0.04     0.04   0.00  -0.05
  48   7    -0.09  -0.01  -0.02     0.04   0.05  -0.10     0.00  -0.01   0.07
  49   1    -0.04   0.00  -0.02    -0.06  -0.07   0.14     0.05   0.07  -0.13
  50   1    -0.02  -0.03  -0.00    -0.07  -0.09   0.19     0.08   0.11  -0.19
  51   7     0.13   0.05   0.05    -0.06  -0.06   0.15     0.05   0.11  -0.25
  52   1     0.05  -0.03   0.02     0.09   0.15  -0.32    -0.16  -0.22   0.51
  53   1     0.05   0.04   0.04     0.08   0.10  -0.24    -0.14  -0.17   0.36
                     28                     29                     30
                        a                      a                      a 
 Frequencies --   261.2134               265.0215               291.9879
 Red. masses --    12.7591                 5.2217                 5.3703
 Frc consts  --     0.0000                 0.0000                 0.0000
 IR Inten    --     3.3798                 3.2367                 5.2084
 Raman Activ --     0.0000                 0.0000                 0.0000
 Depolar     --     0.0000                 0.0000                 0.0000
 Atom AN      X      Y      Z        X      Y      Z        X      Y      Z
   1   8     0.24  -0.68   0.15    -0.16   0.10   0.13     0.12  -0.02  -0.14
   2   6     0.14  -0.07   0.07     0.01  -0.32   0.07    -0.01  -0.32   0.04
   3   1     0.11   0.05   0.09    -0.13  -0.22   0.04    -0.10  -0.18   0.06
   4   1    -0.04   0.01  -0.03     0.17  -0.19  -0.02     0.14  -0.17   0.00
   5   6    -0.02   0.04  -0.02    -0.02   0.09   0.01    -0.11   0.06  -0.00
   6   1    -0.02  -0.01  -0.06    -0.01   0.02  -0.04    -0.04   0.00  -0.02
   7   1    -0.05   0.04   0.01    -0.03   0.05   0.00    -0.04   0.05  -0.02
   8   7    -0.01   0.04  -0.07    -0.00   0.11  -0.01    -0.03   0.10   0.06
   9   6    -0.00   0.03  -0.06     0.04   0.21  -0.18    -0.02   0.25  -0.11
  10   1     0.01   0.02  -0.05    -0.03   0.04   0.06     0.07   0.14  -0.14
  11   1    -0.03   0.03  -0.00     0.10  -0.03  -0.14    -0.15   0.12  -0.03
  12   1     0.01  -0.02   0.00    -0.02   0.19  -0.12     0.05  -0.01   0.03
  13   6    -0.01  -0.03  -0.06    -0.01  -0.15   0.05     0.03  -0.22   0.19
  14   1    -0.04  -0.02  -0.05    -0.21  -0.11  -0.15     0.30  -0.08   0.13
  15   1     0.02   0.03  -0.01     0.10   0.16   0.04    -0.13  -0.31   0.11
  16   1     0.01  -0.05   0.01     0.09  -0.25   0.16    -0.11   0.13  -0.05
  17   6     0.03   0.08  -0.13     0.06   0.17  -0.08     0.05   0.20  -0.08
  18   1     0.04   0.08   0.04     0.08   0.20   0.18     0.03  -0.09  -0.20
  19   1     0.04   0.05  -0.13     0.10   0.13  -0.25    -0.07   0.02   0.16
  20   1    -0.04  -0.05  -0.03    -0.10  -0.16   0.00     0.12   0.25  -0.05
  21   1     0.11  -0.19   0.08    -0.06   0.05  -0.05    -0.02   0.00  -0.05
  22   6    -0.01   0.02  -0.00    -0.01   0.02  -0.00    -0.01  -0.00  -0.00
  23   8    -0.02   0.03  -0.02    -0.01   0.04  -0.01    -0.01   0.00  -0.00
  24   7    -0.01   0.02   0.03    -0.01   0.00   0.01    -0.01   0.01   0.03
  25   1    -0.01   0.01   0.01    -0.00   0.01   0.00    -0.00   0.02   0.00
  26   1     0.00  -0.00   0.02    -0.00  -0.00   0.01     0.01   0.03  -0.01
  27   7    -0.01  -0.03   0.02    -0.01   0.02   0.00    -0.01   0.01   0.00
  28   1     0.00   0.03  -0.02    -0.01  -0.02   0.01    -0.01  -0.02   0.01
  29   1     0.01   0.03  -0.01    -0.01  -0.01   0.01    -0.01  -0.00   0.00
  30   6    -0.01  -0.01  -0.01    -0.00  -0.01  -0.01    -0.01  -0.02   0.00
  31   8    -0.01  -0.00  -0.01    -0.01  -0.02  -0.01    -0.00  -0.02   0.01
  32   7    -0.01  -0.01  -0.01    -0.00  -0.01   0.00     0.01  -0.01   0.00
  33   1    -0.00  -0.00  -0.00    -0.00  -0.00  -0.00    -0.00   0.01  -0.01
  34   1    -0.00   0.00  -0.00     0.01  -0.01   0.01    -0.02   0.03  -0.03
  35   7    -0.01  -0.01   0.01    -0.04  -0.01   0.03    -0.01  -0.00  -0.02
  36   1    -0.01   0.00  -0.01    -0.01   0.03  -0.01     0.01  -0.03   0.03
  37   1    -0.01  -0.00  -0.00    -0.02   0.00  -0.00     0.00  -0.02   0.01
  38   6    -0.07   0.02  -0.01     0.04  -0.02  -0.00    -0.00  -0.00  -0.00
  39   8    -0.00   0.03  -0.05     0.02  -0.04   0.00     0.00  -0.00  -0.00
  40   7    -0.08   0.01   0.10     0.05  -0.01  -0.01     0.00   0.00   0.03
  41   1     0.00  -0.02   0.04     0.01  -0.00  -0.01     0.00  -0.01   0.01
  42   1    -0.06  -0.02   0.04     0.02   0.01  -0.00    -0.01  -0.01   0.01
  43   7    -0.10   0.04  -0.04     0.05  -0.01   0.00    -0.01  -0.01  -0.01
  44   1    -0.00   0.03  -0.00     0.01  -0.00   0.00    -0.01  -0.01  -0.00
  45   1    -0.03  -0.04  -0.02     0.01   0.01   0.01     0.00   0.01  -0.01
  46   6    -0.04   0.16   0.01     0.00  -0.04   0.02     0.00   0.01   0.01
  47   8    -0.05   0.25  -0.03    -0.00  -0.07   0.06     0.00   0.00   0.01
  48   7    -0.14   0.03  -0.01     0.04   0.01  -0.00     0.00   0.01   0.00
  49   1    -0.05   0.02  -0.03     0.01  -0.01   0.02    -0.00   0.00   0.00
  50   1    -0.02  -0.02  -0.01     0.00   0.00   0.01    -0.00  -0.00   0.00
  51   7     0.16   0.09   0.13    -0.02  -0.01  -0.04     0.01   0.01   0.01
  52   1     0.07  -0.03   0.02    -0.01   0.00   0.00     0.01   0.01  -0.01
  53   1     0.09   0.08   0.05    -0.02  -0.02   0.01     0.00   0.01  -0.00
                     31                     32                     33
                        a                      a                      a 
 Frequencies --   309.8320               327.7138               335.0993
 Red. masses --     6.7529                 2.8441                 2.8988
 Frc consts  --     0.0000                 0.0000                 0.0000
 IR Inten    --     8.0139                56.5498                75.6104
 Raman Activ --     0.0000                 0.0000                 0.0000
 Depolar     --     0.0000                 0.0000                 0.0000
 Atom AN      X      Y      Z        X      Y      Z        X      Y      Z
   1   8    -0.08   0.15   0.39     0.03  -0.01  -0.13    -0.01  -0.02   0.12
   2   6     0.15  -0.07   0.15    -0.05   0.02  -0.04     0.07  -0.04   0.03
   3   1    -0.02  -0.08   0.03     0.00   0.02  -0.01     0.01  -0.02  -0.00
   4   1     0.11  -0.06   0.03    -0.03   0.02  -0.00     0.03  -0.02  -0.00
   5   6     0.06   0.01   0.04     0.01  -0.02   0.01     0.03   0.02  -0.01
   6   1     0.02   0.01  -0.02     0.01   0.01   0.03     0.02   0.02  -0.02
   7   1    -0.00  -0.01   0.04     0.03  -0.02  -0.01     0.01  -0.00   0.01
   8   7    -0.03  -0.03  -0.13     0.00  -0.02   0.04    -0.03   0.03  -0.03
   9   6    -0.06  -0.17   0.06    -0.02   0.06  -0.02    -0.01  -0.09   0.08
  10   1    -0.01  -0.06  -0.02     0.03   0.05  -0.05    -0.07  -0.09   0.13
  11   1    -0.03   0.00   0.09    -0.07   0.04  -0.00     0.14  -0.08   0.01
  12   1    -0.03  -0.12   0.04     0.01  -0.02   0.02    -0.06   0.06  -0.04
  13   6    -0.07   0.13  -0.20     0.00  -0.06   0.05    -0.05   0.03  -0.04
  14   1     0.23   0.10   0.12     0.03  -0.02   0.02    -0.09  -0.00  -0.05
  15   1    -0.15  -0.23  -0.10    -0.01  -0.04   0.02     0.03   0.08  -0.02
  16   1    -0.16   0.29  -0.21    -0.01  -0.00   0.01     0.02  -0.05   0.03
  17   6     0.07   0.05  -0.29    -0.01  -0.01   0.08     0.00   0.08  -0.12
  18   1     0.09   0.12   0.07    -0.00   0.02   0.06    -0.00  -0.11  -0.20
  19   1     0.09   0.07  -0.27     0.01   0.01  -0.01    -0.07  -0.03   0.14
  20   1    -0.10  -0.13  -0.09    -0.02  -0.04   0.03     0.09   0.20  -0.06
  21   1    -0.03   0.05   0.06     0.00  -0.01  -0.01     0.02   0.00  -0.00
  22   6    -0.01   0.01   0.00    -0.00   0.02  -0.00     0.00  -0.02  -0.02
  23   8    -0.01   0.01   0.00    -0.01   0.03  -0.02    -0.00  -0.02  -0.01
  24   7    -0.01   0.01   0.02     0.01   0.02  -0.02    -0.07  -0.16   0.19
  25   1    -0.00   0.01   0.01    -0.01  -0.03   0.02     0.08   0.22  -0.15
  26   1     0.01   0.01   0.00    -0.02  -0.06   0.06     0.13   0.45  -0.38
  27   7    -0.01   0.01   0.01     0.00  -0.03   0.01     0.01   0.09  -0.06
  28   1    -0.00  -0.01   0.01     0.01   0.05  -0.03    -0.04  -0.33   0.15
  29   1    -0.00   0.00  -0.00     0.01   0.01  -0.01    -0.02  -0.08   0.03
  30   6     0.01  -0.01  -0.00     0.03   0.01  -0.01     0.01  -0.01   0.00
  31   8     0.00  -0.00  -0.00     0.02   0.02  -0.01     0.01   0.00   0.00
  32   7    -0.02   0.00  -0.01    -0.06   0.05  -0.06    -0.01   0.03  -0.03
  33   1     0.00  -0.01   0.01     0.04  -0.06   0.05     0.02  -0.03   0.01
  34   1     0.03  -0.04   0.04     0.21  -0.25   0.26     0.07  -0.07   0.10
  35   7    -0.02  -0.02   0.03     0.04  -0.18   0.22     0.00  -0.03   0.04
  36   1    -0.02   0.06  -0.06    -0.17   0.46  -0.57    -0.03   0.09  -0.11
  37   1    -0.02   0.02  -0.02    -0.05   0.20  -0.17    -0.02   0.04  -0.04
  38   6     0.01   0.00   0.00    -0.00  -0.00  -0.00     0.00   0.00  -0.00
  39   8     0.02   0.02   0.00    -0.00  -0.00  -0.00     0.01   0.01  -0.01
  40   7     0.01   0.00  -0.02    -0.00  -0.00   0.01    -0.00  -0.00   0.00
  41   1     0.00   0.01  -0.01     0.00  -0.00   0.00     0.00   0.00   0.00
  42   1     0.01  -0.00  -0.01    -0.00   0.00   0.00    -0.00  -0.00   0.00
  43   7     0.01  -0.01   0.00    -0.00   0.00  -0.00    -0.01   0.00  -0.01
  44   1     0.00  -0.00   0.00    -0.00  -0.00  -0.00     0.01   0.01   0.00
  45   1     0.00   0.02   0.01     0.00  -0.00  -0.00    -0.00  -0.01   0.00
  46   6     0.01  -0.03  -0.01    -0.00   0.00   0.00    -0.00   0.01  -0.00
  47   8     0.01  -0.03   0.00    -0.00   0.00   0.00    -0.00   0.02  -0.01
  48   7     0.02  -0.02  -0.00    -0.00   0.00  -0.00    -0.01  -0.00  -0.00
  49   1     0.01  -0.01   0.00    -0.00   0.00   0.00    -0.01  -0.00   0.00
  50   1     0.00   0.00  -0.00    -0.00  -0.00   0.01    -0.00  -0.00  -0.00
  51   7    -0.04  -0.02  -0.02     0.00   0.00   0.00     0.02   0.00   0.01
  52   1    -0.02   0.01  -0.00     0.00   0.00  -0.00     0.00  -0.01   0.01
  53   1    -0.02  -0.02  -0.01     0.00   0.00  -0.00     0.00   0.00   0.01
                     34                     35                     36
                        a                      a                      a 
 Frequencies --   341.3247               356.6082               375.1484
 Red. masses --     3.5676                 2.4102                 7.7836
 Frc consts  --     0.0000                 0.0000                 0.0000
 IR Inten    --    17.9466                 5.5658                 9.8255
 Raman Activ --     0.0000                 0.0000                 0.0000
 Depolar     --     0.0000                 0.0000                 0.0000
 Atom AN      X      Y      Z        X      Y      Z        X      Y      Z
   1   8     0.02   0.00  -0.18     0.01  -0.13  -0.10     0.02   0.01  -0.15
   2   6    -0.11   0.09  -0.05    -0.05   0.03  -0.05     0.06   0.08  -0.19
   3   1     0.00   0.06  -0.00     0.02   0.04  -0.01     0.05   0.06  -0.10
   4   1    -0.07   0.05   0.00    -0.05   0.03  -0.02    -0.04   0.05  -0.05
   5   6    -0.06  -0.04   0.01     0.09   0.03   0.04     0.34  -0.03   0.01
   6   1    -0.03  -0.03   0.04     0.04   0.04   0.06     0.16   0.12   0.09
   7   1    -0.01   0.00  -0.02     0.08  -0.02  -0.02     0.21  -0.11  -0.02
   8   7     0.05  -0.06   0.06     0.02   0.04   0.06     0.02   0.01   0.05
   9   6     0.01   0.13  -0.12     0.04   0.13  -0.05    -0.25   0.04   0.31
  10   1     0.11   0.14  -0.20    -0.17  -0.09   0.35    -0.05   0.06   0.11
  11   1    -0.20   0.12  -0.01     0.37  -0.20  -0.20    -0.10   0.06   0.15
  12   1     0.09  -0.09   0.06    -0.14   0.40  -0.23    -0.15  -0.07   0.07
  13   6     0.06  -0.03   0.06    -0.05  -0.04   0.06    -0.26  -0.31   0.00
  14   1     0.11   0.01   0.07     0.22   0.00   0.12    -0.08  -0.15  -0.08
  15   1    -0.03  -0.09   0.03    -0.13  -0.25   0.02    -0.08  -0.11  -0.03
  16   1    -0.01   0.07  -0.04    -0.14   0.19  -0.09    -0.15  -0.10   0.10
  17   6    -0.02  -0.13   0.20    -0.07  -0.12   0.08     0.16   0.24  -0.02
  18   1     0.00   0.17   0.31    -0.04   0.02   0.08     0.14   0.10   0.06
  19   1     0.10   0.04  -0.21     0.03  -0.04  -0.03     0.04   0.13  -0.09
  20   1    -0.13  -0.31   0.10    -0.07  -0.11   0.03     0.01   0.04  -0.02
  21   1     0.01  -0.01  -0.01     0.06  -0.03  -0.07    -0.01  -0.01   0.00
  22   6     0.02   0.00  -0.02     0.00   0.00   0.00    -0.01  -0.01  -0.00
  23   8     0.01   0.00  -0.02    -0.00   0.00  -0.00    -0.01  -0.01  -0.00
  24   7    -0.05  -0.15   0.10     0.00  -0.01  -0.01    -0.00   0.01   0.01
  25   1     0.07   0.14  -0.12     0.00  -0.00  -0.01    -0.00  -0.00   0.01
  26   1     0.08   0.31  -0.28    -0.01  -0.01   0.00     0.00   0.01  -0.00
  27   7     0.02   0.05  -0.03     0.01   0.01  -0.01    -0.00  -0.00  -0.01
  28   1    -0.02  -0.21   0.10     0.00  -0.01   0.00    -0.00  -0.01   0.00
  29   1    -0.01  -0.04   0.01    -0.00  -0.01   0.01    -0.00  -0.00   0.00
  30   6     0.01   0.00   0.01     0.00   0.01   0.00     0.01  -0.03  -0.01
  31   8     0.01   0.00   0.00     0.00   0.00  -0.00     0.01  -0.01  -0.00
  32   7    -0.00   0.00   0.00    -0.01   0.00   0.00    -0.03  -0.02  -0.03
  33   1    -0.00  -0.00   0.00    -0.00  -0.00   0.00    -0.00  -0.01  -0.00
  34   1    -0.01   0.01  -0.00     0.00  -0.01   0.00     0.01  -0.03   0.02
  35   7    -0.01   0.05  -0.02     0.00   0.01  -0.00    -0.06   0.03  -0.01
  36   1     0.03  -0.05   0.09     0.01  -0.01   0.02     0.02  -0.04   0.11
  37   1    -0.00  -0.02   0.02     0.00  -0.00   0.00    -0.04  -0.03   0.02
  38   6    -0.00  -0.00   0.00     0.01   0.01  -0.01    -0.00  -0.00  -0.00
  39   8    -0.01  -0.01   0.01     0.01   0.01  -0.02    -0.00  -0.00  -0.01
  40   7     0.00  -0.00   0.01    -0.00  -0.00   0.01    -0.00  -0.00   0.00
  41   1     0.00  -0.00   0.00     0.00  -0.01   0.01     0.00  -0.00   0.00
  42   1    -0.00   0.00   0.00    -0.02  -0.02   0.00    -0.00  -0.00   0.00
  43   7     0.01  -0.00   0.01    -0.01   0.02  -0.02    -0.01  -0.00  -0.01
  44   1    -0.00  -0.01  -0.00     0.01   0.02  -0.00     0.00   0.00   0.00
  45   1     0.00  -0.00  -0.01    -0.01  -0.02  -0.01    -0.00  -0.00  -0.00
  46   6     0.01   0.02  -0.00    -0.03   0.01   0.02     0.01   0.01  -0.01
  47   8     0.01   0.02  -0.01    -0.02   0.00   0.02     0.01   0.01  -0.02
  48   7    -0.02  -0.01   0.01    -0.00   0.03  -0.03    -0.00  -0.00   0.01
  49   1    -0.00   0.01  -0.02    -0.01  -0.01   0.04     0.00   0.00  -0.01
  50   1     0.01   0.01  -0.02    -0.03  -0.02   0.06     0.00   0.00  -0.01
  51   7     0.01   0.01   0.02     0.04   0.02  -0.01    -0.00  -0.00   0.01
  52   1     0.01   0.01  -0.01     0.01  -0.03   0.03    -0.00  -0.00   0.00
  53   1     0.01   0.01  -0.01     0.01   0.01   0.03     0.00   0.00  -0.01
                     37                     38                     39
                        a                      a                      a 
 Frequencies --   383.4477               392.8838               409.1159
 Red. masses --     3.6084                 3.6588                 3.4074
 Frc consts  --     0.0000                 0.0000                 0.0000
 IR Inten    --   204.1524               115.5026               615.6753
 Raman Activ --     0.0000                 0.0000                 0.0000
 Depolar     --     0.0000                 0.0000                 0.0000
 Atom AN      X      Y      Z        X      Y      Z        X      Y      Z
   1   8     0.01  -0.01   0.01     0.00   0.00   0.00    -0.01  -0.01   0.03
   2   6     0.00   0.01   0.00    -0.01  -0.02   0.02     0.01   0.00   0.00
   3   1     0.01   0.01   0.00    -0.01  -0.01   0.01     0.01   0.01  -0.01
   4   1    -0.01   0.01   0.00     0.01  -0.02   0.00    -0.00   0.01   0.01
   5   6    -0.01  -0.01  -0.01    -0.02   0.01   0.00    -0.03  -0.03  -0.02
   6   1    -0.01  -0.01  -0.01    -0.01  -0.00  -0.00    -0.02  -0.02  -0.02
   7   1    -0.01   0.00   0.00    -0.01   0.01  -0.00    -0.02   0.00  -0.00
   8   7     0.00  -0.01  -0.00    -0.01   0.01   0.00    -0.01  -0.03  -0.01
   9   6    -0.01  -0.01   0.01     0.04  -0.01  -0.03    -0.01  -0.01  -0.03
  10   1     0.02   0.02  -0.03     0.00  -0.02  -0.01     0.01   0.02  -0.03
  11   1    -0.05   0.03   0.02     0.02  -0.01  -0.02    -0.03   0.01  -0.00
  12   1     0.01  -0.04   0.03     0.02   0.01  -0.01     0.01  -0.01   0.00
  13   6    -0.01   0.00  -0.01     0.03   0.02   0.02     0.03   0.01   0.00
  14   1    -0.02   0.00  -0.01     0.01   0.01   0.01     0.01   0.01   0.01
  15   1     0.01   0.01  -0.01     0.01   0.01   0.01     0.01   0.01   0.01
  16   1     0.00  -0.01   0.00     0.02   0.00  -0.00     0.02   0.00  -0.01
  17   6     0.01   0.01  -0.00    -0.03  -0.01  -0.01    -0.00   0.01   0.03
  18   1     0.01  -0.00  -0.00    -0.02  -0.02  -0.02     0.00   0.00   0.01
  19   1    -0.00   0.00   0.00    -0.01  -0.01   0.01    -0.01   0.01   0.01
  20   1     0.01   0.01  -0.00    -0.00   0.01  -0.00     0.01   0.01   0.01
  21   1     0.01   0.00  -0.02    -0.01  -0.00   0.01     0.04   0.01  -0.03
  22   6     0.00   0.04  -0.02    -0.01   0.06  -0.02    -0.01  -0.09   0.03
  23   8     0.02   0.03  -0.00    -0.00   0.06  -0.02    -0.04  -0.08   0.01
  24   7    -0.03  -0.06   0.05    -0.04  -0.06   0.06     0.08   0.18  -0.15
  25   1     0.02   0.03  -0.03     0.01   0.03  -0.02    -0.05  -0.09   0.08
  26   1     0.01   0.09  -0.08    -0.00   0.05  -0.04    -0.03  -0.25   0.23
  27   7    -0.00  -0.09   0.03     0.01  -0.13   0.02     0.02   0.24  -0.08
  28   1     0.02   0.19  -0.10     0.04   0.29  -0.15    -0.04  -0.62   0.32
  29   1     0.01   0.04  -0.02     0.02   0.03  -0.02    -0.03  -0.05  -0.01
  30   6     0.00  -0.00   0.01     0.06  -0.06   0.07     0.03  -0.02   0.02
  31   8     0.00  -0.01   0.00     0.05  -0.08   0.04     0.03  -0.03   0.02
  32   7    -0.01   0.01  -0.01    -0.18   0.15  -0.16    -0.08   0.06  -0.06
  33   1     0.01  -0.01   0.00     0.05  -0.06   0.02     0.01  -0.01  -0.02
  34   1     0.02  -0.02   0.03     0.36  -0.39   0.49     0.17  -0.18   0.23
  35   7    -0.00   0.01  -0.02    -0.03   0.16  -0.16    -0.02   0.08  -0.07
  36   1     0.01  -0.02   0.03     0.09  -0.17   0.29     0.04  -0.07   0.13
  37   1    -0.00  -0.00   0.00    -0.02  -0.05   0.03    -0.01  -0.02   0.02
  38   6     0.01   0.02  -0.00    -0.00  -0.00   0.00     0.00   0.01  -0.00
  39   8     0.00  -0.01  -0.01    -0.00   0.00   0.00    -0.00   0.00  -0.00
  40   7     0.01   0.02   0.00    -0.00  -0.00  -0.00    -0.00   0.00   0.01
  41   1    -0.02  -0.04  -0.01     0.00   0.01   0.00    -0.00  -0.01   0.00
  42   1    -0.03  -0.06  -0.02     0.00   0.01   0.00    -0.01  -0.02  -0.00
  43   7     0.01   0.03   0.02    -0.00  -0.01  -0.01     0.00   0.01   0.00
  44   1    -0.03  -0.05  -0.02     0.00   0.01   0.00     0.01   0.00  -0.00
  45   1     0.00   0.01  -0.02    -0.00   0.00   0.00     0.00  -0.01  -0.00
  46   6    -0.05  -0.07   0.12     0.01   0.00  -0.02    -0.01   0.01   0.03
  47   8    -0.03  -0.02   0.04     0.00  -0.01  -0.00    -0.00   0.01   0.01
  48   7     0.12   0.14  -0.26    -0.02  -0.02   0.05    -0.00   0.02  -0.07
  49   1    -0.07  -0.08   0.19     0.02   0.01  -0.03    -0.03  -0.01   0.02
  50   1    -0.25  -0.32   0.64     0.04   0.06  -0.11    -0.06  -0.09   0.14
  51   7     0.06   0.08  -0.20    -0.02  -0.02   0.03     0.04   0.04  -0.04
  52   1    -0.07  -0.12   0.23     0.02   0.03  -0.06    -0.02  -0.05   0.10
  53   1    -0.03  -0.04   0.11     0.01   0.01  -0.02     0.00  -0.00   0.03
                     40                     41                     42
                        a                      a                      a 
 Frequencies --   435.5861               461.8298               465.3168
 Red. masses --     8.6596                 7.7193                 3.4273
 Frc consts  --     0.0000                 0.0000                 0.0000
 IR Inten    --    11.3794                 1.3204                21.7978
 Raman Activ --     0.0000                 0.0000                 0.0000
 Depolar     --     0.0000                 0.0000                 0.0000
 Atom AN      X      Y      Z        X      Y      Z        X      Y      Z
   1   8    -0.09   0.02   0.26     0.03  -0.01   0.02     0.01  -0.00  -0.00
   2   6     0.16   0.08  -0.03     0.08   0.01  -0.06     0.00   0.01  -0.00
   3   1     0.07   0.05  -0.04     0.01  -0.00  -0.01     0.01   0.01  -0.00
   4   1    -0.00   0.05   0.00     0.03  -0.00  -0.03    -0.01   0.01   0.00
   5   6    -0.05  -0.15  -0.15     0.15   0.10  -0.01     0.03   0.00   0.02
   6   1    -0.05  -0.11  -0.12     0.11   0.16   0.05     0.03   0.03   0.02
   7   1    -0.11   0.02   0.01     0.14  -0.09  -0.00     0.04  -0.03   0.00
   8   7     0.01  -0.18  -0.22    -0.28   0.09  -0.13    -0.07   0.00  -0.01
   9   6    -0.34   0.06  -0.14     0.04  -0.26  -0.11     0.01  -0.06  -0.04
  10   1    -0.09   0.09   0.09    -0.02  -0.17  -0.11     0.00  -0.03  -0.03
  11   1    -0.09  -0.01  -0.07     0.06  -0.06   0.01     0.00  -0.01  -0.01
  12   1    -0.20   0.05  -0.11     0.09  -0.09   0.02     0.03  -0.02   0.00
  13   6     0.24  -0.09  -0.14     0.20  -0.09   0.19     0.04   0.01   0.05
  14   1     0.13  -0.01  -0.00     0.15  -0.05   0.05     0.03   0.00   0.02
  15   1     0.05  -0.04   0.03     0.02  -0.02   0.21     0.01   0.01   0.04
  16   1     0.10  -0.01  -0.10     0.14  -0.05  -0.01     0.04  -0.00  -0.01
  17   6     0.07   0.22   0.36    -0.31   0.18   0.04    -0.06   0.04   0.00
  18   1     0.02   0.07   0.12    -0.09   0.08   0.05    -0.01   0.02   0.01
  19   1    -0.12   0.16   0.16    -0.09   0.07  -0.01    -0.02   0.02  -0.01
  20   1     0.18   0.07   0.18    -0.06   0.00   0.04    -0.01   0.00   0.01
  21   1     0.02   0.01   0.02    -0.01  -0.01   0.03     0.01   0.00  -0.00
  22   6    -0.00   0.00  -0.00     0.01   0.05   0.04    -0.01  -0.09  -0.06
  23   8    -0.00   0.01  -0.00    -0.06   0.06   0.02     0.11  -0.10  -0.02
  24   7    -0.01  -0.02   0.01    -0.02  -0.02  -0.07     0.01  -0.03   0.10
  25   1     0.01   0.01  -0.01     0.01  -0.19   0.02     0.02   0.59  -0.18
  26   1     0.00   0.01  -0.01    -0.07   0.05  -0.10     0.14  -0.20   0.27
  27   7     0.01  -0.02  -0.01     0.08  -0.03   0.01    -0.12   0.10  -0.06
  28   1     0.01   0.05  -0.03     0.05  -0.04   0.03    -0.07   0.06  -0.05
  29   1     0.00  -0.01   0.01     0.02   0.01  -0.05    -0.04  -0.03   0.09
  30   6    -0.00  -0.02  -0.00     0.05  -0.01  -0.03     0.05  -0.02  -0.02
  31   8     0.00   0.00   0.01     0.06   0.04  -0.01     0.07   0.04   0.01
  32   7     0.02  -0.00  -0.01    -0.04  -0.06  -0.03    -0.05  -0.05  -0.05
  33   1     0.01  -0.01  -0.00    -0.03  -0.02   0.03    -0.02  -0.04   0.05
  34   1    -0.00   0.01  -0.01    -0.04  -0.02  -0.06    -0.04  -0.01  -0.06
  35   7    -0.01  -0.01   0.00    -0.03   0.02   0.06    -0.02  -0.00   0.06
  36   1    -0.00   0.00   0.00     0.01   0.04   0.08     0.02   0.04   0.11
  37   1    -0.01  -0.00  -0.00    -0.11   0.04  -0.04    -0.15   0.10  -0.11
  38   6     0.01  -0.00  -0.02     0.02  -0.03   0.11     0.02  -0.01   0.06
  39   8    -0.01  -0.00  -0.01     0.10  -0.04   0.07     0.05  -0.04   0.04
  40   7     0.01  -0.01   0.02     0.03  -0.00  -0.13     0.03   0.02  -0.08
  41   1     0.02  -0.01   0.02    -0.06   0.09  -0.08    -0.07  -0.03  -0.06
  42   1    -0.01  -0.00   0.01     0.09  -0.03  -0.09     0.07   0.02  -0.04
  43   7     0.03  -0.01  -0.00    -0.16   0.05  -0.01    -0.08   0.05   0.02
  44   1     0.02  -0.01  -0.01    -0.05   0.09   0.06    -0.12  -0.07  -0.02
  45   1     0.01  -0.01   0.01    -0.04   0.02  -0.05    -0.02   0.06  -0.05
  46   6    -0.00  -0.01  -0.00     0.01   0.02   0.01    -0.08  -0.03  -0.03
  47   8    -0.01  -0.00   0.01     0.02  -0.00   0.01    -0.08  -0.04  -0.04
  48   7     0.00   0.00   0.01    -0.02  -0.02  -0.01     0.03   0.12   0.02
  49   1     0.01  -0.00   0.01    -0.02   0.02  -0.05     0.04  -0.03   0.13
  50   1     0.01   0.02  -0.02    -0.01  -0.05   0.04     0.00   0.13  -0.04
  51   7    -0.00  -0.01   0.00    -0.01   0.03  -0.01     0.08  -0.07   0.02
  52   1     0.00   0.00  -0.01     0.01   0.04  -0.04     0.01  -0.17   0.15
  53   1    -0.00  -0.00   0.00    -0.04  -0.04   0.06     0.14   0.13  -0.15
                     43                     44                     45
                        a                      a                      a 
 Frequencies --   467.6325               469.4242               471.8305
 Red. masses --     3.8275                 5.6674                 5.1010
 Frc consts  --     0.0000                 0.0000                 0.0000
 IR Inten    --    10.2309                 6.9869                 4.7254
 Raman Activ --     0.0000                 0.0000                 0.0000
 Depolar     --     0.0000                 0.0000                 0.0000
 Atom AN      X      Y      Z        X      Y      Z        X      Y      Z
   1   8     0.00   0.00   0.02     0.02   0.01  -0.05    -0.01  -0.02   0.01
   2   6     0.03   0.01  -0.01    -0.09  -0.03   0.07     0.01  -0.00  -0.01
   3   1     0.00  -0.00   0.00    -0.01   0.01   0.00    -0.00  -0.01   0.00
   4   1     0.01  -0.00  -0.01    -0.04   0.00   0.05     0.01  -0.00  -0.01
   5   6    -0.00   0.03  -0.02    -0.02  -0.12   0.09    -0.00   0.02  -0.02
   6   1    -0.01  -0.01  -0.02     0.01  -0.01   0.05    -0.00  -0.00  -0.01
   7   1    -0.02   0.02  -0.00     0.02  -0.05   0.01    -0.01   0.01  -0.00
   8   7     0.02   0.02  -0.01    -0.01  -0.11   0.06     0.01   0.02  -0.01
   9   6    -0.00   0.01   0.03    -0.02   0.02  -0.09     0.01  -0.01   0.01
  10   1     0.00   0.01   0.01     0.01   0.04  -0.01     0.00  -0.01   0.00
  11   1    -0.00   0.01   0.02    -0.03  -0.02  -0.07     0.01   0.00   0.01
  12   1    -0.01  -0.01   0.01     0.00   0.05  -0.04     0.00  -0.01   0.01
  13   6    -0.00  -0.03  -0.01    -0.02   0.13  -0.01     0.01  -0.02  -0.00
  14   1     0.01  -0.02  -0.01    -0.05   0.07   0.04     0.01  -0.01  -0.01
  15   1    -0.01  -0.02  -0.00     0.02   0.06  -0.04    -0.00  -0.01   0.01
  16   1    -0.01  -0.01   0.01     0.01   0.04  -0.03    -0.00  -0.01   0.00
  17   6    -0.01  -0.02   0.01     0.11   0.04  -0.05    -0.02  -0.02   0.00
  18   1    -0.02   0.00   0.01     0.08  -0.02  -0.04    -0.02  -0.00  -0.00
  19   1     0.00  -0.01   0.01     0.01   0.03  -0.00    -0.00  -0.01   0.01
  20   1    -0.00  -0.01   0.01     0.03   0.06  -0.04    -0.00  -0.01   0.00
  21   1    -0.01  -0.00   0.01     0.00   0.00  -0.02     0.01  -0.00  -0.01
  22   6     0.02   0.03   0.00     0.03   0.03   0.00    -0.01   0.04   0.07
  23   8    -0.04   0.03  -0.02    -0.05   0.04  -0.02    -0.07   0.05   0.06
  24   7     0.03   0.04  -0.02     0.03   0.02  -0.03    -0.06  -0.06  -0.07
  25   1    -0.03  -0.33   0.14    -0.01  -0.27   0.11     0.04  -0.01  -0.08
  26   1    -0.04   0.13  -0.15    -0.04   0.09  -0.12    -0.08  -0.03  -0.03
  27   7     0.02  -0.05   0.04     0.02  -0.03   0.05     0.11  -0.01  -0.02
  28   1     0.01  -0.04   0.02     0.00  -0.02   0.02     0.07   0.02  -0.00
  29   1     0.01   0.03  -0.02     0.01   0.03  -0.01     0.02  -0.05  -0.02
  30   6    -0.05   0.02   0.02     0.16  -0.05  -0.07     0.02  -0.00  -0.00
  31   8    -0.07  -0.04  -0.01     0.20   0.11   0.02     0.02   0.01   0.00
  32   7     0.05   0.05   0.05    -0.14  -0.16  -0.12    -0.02  -0.01  -0.01
  33   1     0.02   0.03  -0.04    -0.09  -0.06   0.08    -0.01  -0.01   0.02
  34   1     0.04   0.01   0.06    -0.10  -0.08  -0.14    -0.02  -0.00  -0.02
  35   7     0.02   0.00  -0.07    -0.07   0.03   0.18     0.00  -0.00   0.02
  36   1    -0.02  -0.04  -0.11     0.05   0.12   0.29     0.01   0.01   0.04
  37   1     0.15  -0.10   0.11    -0.38   0.21  -0.23    -0.05   0.04  -0.05
  38   6     0.03  -0.01   0.07    -0.02   0.03  -0.08    -0.00   0.03  -0.03
  39   8     0.06  -0.05   0.05    -0.07   0.04  -0.06    -0.02   0.02  -0.03
  40   7     0.05   0.03  -0.10    -0.03   0.01   0.10    -0.03  -0.01   0.04
  41   1    -0.10  -0.08  -0.09     0.03  -0.08   0.06     0.03   0.01   0.03
  42   1     0.09   0.04  -0.05    -0.07   0.04   0.07    -0.05  -0.04   0.02
  43   7    -0.09   0.06   0.04     0.12  -0.04   0.01     0.05  -0.01   0.00
  44   1    -0.20  -0.16  -0.05     0.03  -0.09  -0.05     0.09   0.05   0.01
  45   1    -0.01   0.12  -0.08     0.04   0.01   0.04     0.00  -0.08   0.03
  46   6    -0.14  -0.05  -0.04    -0.06  -0.02  -0.02     0.16   0.04   0.13
  47   8    -0.14  -0.08  -0.06    -0.06  -0.04  -0.03     0.17   0.06   0.14
  48   7     0.04   0.20   0.03     0.01   0.08   0.04    -0.01  -0.19  -0.23
  49   1     0.07  -0.05   0.22     0.04   0.00   0.06    -0.21  -0.12   0.10
  50   1     0.01   0.23  -0.09    -0.01   0.09  -0.01     0.10  -0.12  -0.20
  51   7     0.13  -0.12   0.03     0.07  -0.05   0.00    -0.22   0.14   0.04
  52   1     0.02  -0.27   0.22     0.03  -0.08   0.02    -0.22  -0.02   0.40
  53   1     0.24   0.22  -0.25     0.07   0.05  -0.02     0.03   0.15  -0.51
                     46                     47                     48
                        a                      a                      a 
 Frequencies --   475.0502               478.4149               480.7052
 Red. masses --     8.2223                 7.5032                 6.2895
 Frc consts  --     0.0000                 0.0000                 0.0000
 IR Inten    --    49.7348                 9.9171                 9.8558
 Raman Activ --     0.0000                 0.0000                 0.0000
 Depolar     --     0.0000                 0.0000                 0.0000
 Atom AN      X      Y      Z        X      Y      Z        X      Y      Z
   1   8     0.02  -0.04   0.01    -0.02   0.01   0.04    -0.05   0.00   0.06
   2   6    -0.00  -0.01   0.03     0.05   0.01  -0.02     0.09   0.04  -0.08
   3   1     0.02   0.01   0.01    -0.01  -0.02   0.01    -0.00  -0.02   0.01
   4   1    -0.02   0.01   0.02     0.04  -0.02  -0.03     0.06  -0.01  -0.06
   5   6    -0.09  -0.08  -0.01    -0.05   0.09  -0.07    -0.03   0.18  -0.13
   6   1    -0.06  -0.10  -0.05    -0.05  -0.04  -0.06    -0.04  -0.01  -0.08
   7   1    -0.09   0.05   0.00    -0.07   0.08  -0.01    -0.06   0.09  -0.02
   8   7     0.13  -0.06   0.07     0.10   0.07  -0.03     0.06   0.15  -0.07
   9   6    -0.05   0.16   0.03     0.01   0.05   0.12     0.05  -0.01   0.13
  10   1     0.00   0.10   0.05     0.00   0.02   0.04    -0.00  -0.04   0.02
  11   1    -0.04   0.03  -0.03     0.01   0.04   0.07     0.04   0.03   0.10
  12   1    -0.05   0.07  -0.02    -0.03  -0.03   0.03    -0.00  -0.06   0.05
  13   6    -0.09   0.05  -0.08    -0.03  -0.08  -0.06     0.02  -0.15  -0.01
  14   1    -0.07   0.03  -0.01    -0.00  -0.05  -0.05     0.05  -0.09  -0.05
  15   1    -0.01   0.01  -0.10    -0.02  -0.05  -0.03    -0.02  -0.08   0.03
  16   1    -0.07   0.03  -0.00    -0.05  -0.02   0.02    -0.03  -0.05   0.04
  17   6     0.15  -0.08  -0.01     0.00  -0.10   0.01    -0.13  -0.11   0.07
  18   1     0.05  -0.05  -0.03    -0.05  -0.03  -0.01    -0.13   0.00   0.03
  19   1     0.04  -0.03   0.01     0.02  -0.06   0.02    -0.00  -0.07   0.03
  20   1     0.04   0.01  -0.02    -0.00  -0.04   0.01    -0.03  -0.09   0.04
  21   1     0.02  -0.01  -0.00    -0.00   0.00   0.01    -0.02  -0.00   0.03
  22   6     0.00  -0.00  -0.03    -0.04   0.11   0.21     0.01  -0.05  -0.13
  23   8     0.01  -0.01  -0.03    -0.15   0.13   0.20     0.09  -0.06  -0.12
  24   7     0.03   0.03   0.02    -0.20  -0.15  -0.21     0.12   0.10   0.12
  25   1    -0.02  -0.07   0.06     0.14   0.08  -0.28    -0.09  -0.10   0.19
  26   1     0.02   0.04  -0.02    -0.23  -0.14  -0.02     0.13   0.10  -0.00
  27   7    -0.04  -0.00   0.02     0.34  -0.03  -0.09    -0.20   0.00   0.05
  28   1    -0.03  -0.00  -0.00     0.25  -0.04   0.04    -0.14  -0.01  -0.01
  29   1    -0.00   0.02   0.02     0.05  -0.12  -0.14    -0.03   0.08   0.06
  30   6     0.04  -0.02  -0.01    -0.03  -0.02   0.04    -0.07  -0.03   0.08
  31   8     0.05   0.03   0.02    -0.04  -0.02   0.03    -0.09  -0.02   0.08
  32   7    -0.04  -0.03  -0.04     0.03   0.08  -0.03     0.08   0.17  -0.04
  33   1    -0.02  -0.02   0.02     0.05  -0.03   0.03     0.11  -0.03   0.01
  34   1    -0.02  -0.02  -0.03    -0.01   0.06  -0.01     0.02   0.12   0.02
  35   7    -0.01  -0.01   0.05     0.06  -0.09  -0.01     0.10  -0.18  -0.05
  36   1     0.02   0.03   0.09     0.03  -0.06   0.07     0.06  -0.13   0.12
[...]
  44   1    -0.00  -0.00  -0.00    -0.00   0.00  -0.00     0.00  -0.00   0.00
  45   1     0.05  -0.00   0.00    -0.09   0.00  -0.00     0.00   0.00   0.00
  46   6    -0.01  -0.00  -0.01     0.00  -0.01  -0.00     0.00   0.00   0.00
  47   8     0.01   0.00   0.00    -0.00  -0.00  -0.00    -0.00  -0.00  -0.00
  48   7    -0.01   0.07   0.03     0.03  -0.20  -0.08    -0.00   0.02   0.01
  49   1    -0.02  -0.29  -0.14     0.04   0.80   0.38    -0.00  -0.09  -0.04
  50   1     0.05   0.02   0.03    -0.15  -0.06  -0.09     0.02   0.01   0.01
  51   7     0.00  -0.00   0.00     0.00  -0.00   0.00    -0.00   0.00  -0.00
  52   1     0.00   0.00   0.00     0.02   0.00   0.01    -0.00  -0.00  -0.00
  53   1    -0.01   0.01  -0.00    -0.02   0.02  -0.00     0.01  -0.01   0.00
                    142                    143                    144
                        a                      a                      a 
 Frequencies --  3491.9088              3493.9208              3493.9606
 Red. masses --     1.4534                 1.5333                 1.7798
 Frc consts  --     0.0000                 0.0000                 0.0000
 IR Inten    --    16.4970                17.8227                 2.3278
 Raman Activ --     0.0000                 0.0000                 0.0000
 Depolar     --     0.0000                 0.0000                 0.0000
 Atom AN      X      Y      Z        X      Y      Z        X      Y      Z
   1   8    -0.00  -0.00  -0.00     0.00  -0.00   0.00    -0.00  -0.00   0.00
   2   6     0.00  -0.00   0.00     0.00  -0.00  -0.00    -0.00  -0.00  -0.00
   3   1    -0.00   0.00   0.00    -0.00   0.00   0.00     0.00  -0.00   0.00
   4   1     0.00   0.00   0.00    -0.00  -0.00   0.00     0.00   0.00   0.00
   5   6    -0.00  -0.00  -0.00    -0.00  -0.00   0.00     0.00   0.00   0.00
   6   1    -0.00  -0.00  -0.00     0.00   0.00   0.00     0.00   0.00   0.00
   7   1     0.00   0.00   0.00     0.00   0.00   0.00    -0.00  -0.00  -0.00
   8   7     0.00  -0.00  -0.00    -0.00  -0.00  -0.00     0.00  -0.00   0.00
   9   6    -0.00   0.00  -0.00    -0.00   0.00   0.00    -0.00   0.00   0.00
  10   1     0.00  -0.00   0.00     0.00  -0.00   0.00     0.00  -0.00   0.00
  11   1    -0.00  -0.00   0.00    -0.00   0.00  -0.00    -0.00  -0.00   0.00
  12   1    -0.00   0.00   0.00    -0.00  -0.00  -0.00     0.00  -0.00  -0.00
  13   6    -0.00   0.00  -0.00     0.00  -0.00   0.00    -0.00   0.00  -0.00
  14   1    -0.00  -0.00   0.00    -0.00  -0.00   0.00    -0.00  -0.00   0.00
  15   1    -0.00  -0.00  -0.00     0.00   0.00   0.00     0.00  -0.00   0.00
  16   1     0.00  -0.00  -0.00    -0.00  -0.00  -0.00    -0.00  -0.00  -0.00
  17   6    -0.00  -0.00  -0.00     0.00  -0.00  -0.00    -0.00   0.00   0.00
  18   1    -0.00  -0.00   0.00     0.00   0.00  -0.00    -0.00  -0.00   0.00
  19   1     0.00   0.00   0.00     0.00   0.00   0.00    -0.00  -0.00  -0.00
  20   1    -0.00  -0.00   0.00    -0.00   0.00   0.00     0.00  -0.00  -0.00
  21   1     0.00   0.00   0.00     0.00   0.00   0.00     0.00   0.00   0.00
  22   6     0.00   0.00   0.00    -0.00   0.00   0.00     0.00  -0.00  -0.00
  23   8    -0.00  -0.00  -0.00     0.00  -0.00  -0.00    -0.00   0.00   0.00
  24   7     0.00  -0.00  -0.00    -0.15   0.08   0.01     0.07  -0.04  -0.01
  25   1    -0.01  -0.00  -0.01     0.40   0.15   0.41    -0.20  -0.07  -0.20
  26   1    -0.00   0.01   0.01     0.15  -0.44  -0.46    -0.07   0.21   0.22
  27   7    -0.00   0.00  -0.00     0.01  -0.00  -0.01    -0.00   0.00   0.00
  28   1     0.00   0.00   0.00    -0.01   0.01   0.02     0.00  -0.01  -0.01
  29   1     0.00  -0.00  -0.00    -0.02   0.00   0.00     0.01  -0.00  -0.00
  30   6     0.00  -0.00   0.00     0.00  -0.00  -0.00    -0.00   0.00   0.00
  31   8    -0.00   0.00   0.00    -0.00  -0.00   0.00     0.00   0.00  -0.00
  32   7    -0.01  -0.01   0.00    -0.00  -0.00  -0.00     0.00   0.00   0.00
  33   1     0.01   0.01   0.01     0.01   0.01   0.01    -0.00  -0.01  -0.00
  34   1     0.02   0.01  -0.01    -0.01  -0.00   0.00     0.00   0.00  -0.00
  35   7     0.13   0.10   0.07     0.00   0.00   0.00    -0.00  -0.00  -0.00
  36   1    -0.69   0.02   0.21    -0.01   0.00   0.00     0.00   0.00  -0.00
  37   1     0.19  -0.40  -0.50     0.00  -0.01  -0.01    -0.00   0.00   0.00
  38   6     0.00  -0.00   0.00    -0.00   0.00  -0.00    -0.00   0.01  -0.00
  39   8    -0.00   0.00  -0.00     0.00  -0.00   0.00     0.00  -0.00   0.00
  40   7     0.00   0.00  -0.00     0.02  -0.01   0.01     0.04  -0.02   0.01
  41   1    -0.00   0.00   0.00    -0.03   0.00   0.05    -0.06   0.00   0.11
  42   1     0.00  -0.00   0.00    -0.03   0.03  -0.07    -0.07   0.06  -0.15
  43   7     0.00  -0.00   0.00    -0.04   0.06  -0.08    -0.09   0.12  -0.16
  44   1    -0.00   0.00  -0.00     0.14  -0.23   0.31     0.28  -0.48   0.63
  45   1     0.00  -0.00   0.00     0.03   0.00  -0.01     0.07   0.01  -0.01
  46   6     0.00   0.00   0.00    -0.00   0.00  -0.00     0.00   0.00  -0.00
  47   8    -0.00  -0.00  -0.00     0.00  -0.00  -0.00    -0.00  -0.00   0.00
  48   7    -0.00  -0.00  -0.00     0.00  -0.00   0.00     0.00  -0.00   0.00
  49   1     0.00   0.00   0.00    -0.00   0.00   0.00    -0.00   0.01   0.00
  50   1    -0.00  -0.00  -0.00    -0.00  -0.00  -0.00    -0.01  -0.00  -0.01
  51   7     0.00  -0.00  -0.00     0.00   0.00   0.00    -0.00  -0.00  -0.00
  52   1     0.00   0.00   0.00    -0.00  -0.00  -0.00     0.00   0.00   0.00
  53   1    -0.00   0.00  -0.00     0.00  -0.00  -0.00    -0.00   0.00  -0.00
                    145                    146                    147
                        a                      a                      a 
 Frequencies --  3498.7250              3501.7183              3530.3113
 Red. masses --     1.4703                 1.4530                 1.9694
 Frc consts  --     0.0000                 0.0000                 0.0000
 IR Inten    --    30.4120                23.2064                18.3913
 Raman Activ --     0.0000                 0.0000                 0.0000
 Depolar     --     0.0000                 0.0000                 0.0000
 Atom AN      X      Y      Z        X      Y      Z        X      Y      Z
   1   8     0.00  -0.00   0.00     0.00   0.00   0.00     0.00   0.00   0.00
   2   6    -0.00  -0.00  -0.00    -0.00  -0.00  -0.00    -0.00   0.00  -0.00
   3   1    -0.00   0.00   0.00    -0.00   0.00   0.00     0.00  -0.00  -0.00
   4   1     0.00   0.00   0.00     0.00   0.00  -0.00     0.00   0.00  -0.00
   5   6     0.00  -0.00   0.00     0.00   0.00   0.00    -0.00  -0.00  -0.00
   6   1    -0.00   0.00  -0.00     0.00  -0.00   0.00     0.00   0.00   0.00
   7   1    -0.00  -0.00  -0.00    -0.00   0.00  -0.00    -0.00   0.00   0.00
   8   7    -0.00  -0.00   0.00    -0.00   0.00   0.00    -0.00   0.00   0.00
   9   6     0.00  -0.00   0.00    -0.00   0.00   0.00    -0.00   0.00   0.00
  10   1    -0.00   0.00  -0.00     0.00  -0.00   0.00     0.00  -0.00   0.00
  11   1    -0.00  -0.00   0.00    -0.00   0.00   0.00     0.00   0.00  -0.00
  12   1     0.00  -0.00  -0.00     0.00  -0.00  -0.00     0.00  -0.00  -0.00
  13   6     0.00  -0.00   0.00    -0.00   0.00  -0.00    -0.00  -0.00  -0.00
  14   1     0.00  -0.00   0.00    -0.00   0.00  -0.00    -0.00  -0.00  -0.00
  15   1    -0.00   0.00  -0.00     0.00  -0.00   0.00     0.00  -0.00   0.00
  16   1     0.00   0.00   0.00     0.00   0.00   0.00     0.00   0.00   0.00
  17   6     0.00   0.00  -0.00     0.00   0.00  -0.00    -0.00   0.00   0.00
  18   1    -0.00  -0.00   0.00    -0.00  -0.00   0.00     0.00  -0.00   0.00
  19   1    -0.00  -0.00  -0.00    -0.00  -0.00   0.00    -0.00  -0.00   0.00
  20   1    -0.00   0.00   0.00    -0.00   0.00   0.00     0.00  -0.00  -0.00
  21   1     0.00   0.00   0.00    -0.00  -0.01  -0.00    -0.00  -0.00  -0.00
  22   6    -0.00   0.00   0.00    -0.00   0.00   0.00     0.00   0.00  -0.00
  23   8     0.00  -0.00  -0.00     0.00  -0.00  -0.00    -0.00  -0.00  -0.00
  24   7    -0.00  -0.00  -0.00    -0.00   0.00  -0.00     0.01   0.00   0.00
  25   1     0.00   0.00   0.00     0.00   0.00   0.00    -0.02  -0.01  -0.02
  26   1     0.00  -0.00  -0.00     0.00  -0.00  -0.00    -0.00   0.00   0.00
  27   7     0.00  -0.00   0.00     0.00   0.00   0.00     0.03  -0.04  -0.07
  28   1     0.00  -0.00  -0.00     0.01  -0.01  -0.02    -0.09   0.13   0.26
  29   1    -0.00   0.00   0.00    -0.02   0.01   0.00    -0.05   0.01  -0.00
  30   6    -0.00  -0.00  -0.00    -0.00   0.00   0.00     0.01   0.01  -0.00
  31   8     0.00   0.00   0.00     0.00   0.00  -0.00    -0.00  -0.00   0.00
  32   7     0.00   0.00   0.00     0.00  -0.00  -0.00     0.22   0.07  -0.10
  33   1    -0.00  -0.00  -0.00     0.00   0.00   0.00    -0.10  -0.13  -0.08
  34   1     0.00   0.00  -0.00    -0.00  -0.00   0.00    -0.75  -0.16   0.44
  35   7     0.00   0.00   0.00     0.00  -0.00  -0.00    -0.02   0.02   0.02
  36   1    -0.00   0.00   0.00    -0.00   0.00   0.00     0.04  -0.00  -0.01
  37   1     0.00  -0.00  -0.00    -0.00   0.00   0.00     0.02  -0.06  -0.07
  38   6    -0.00   0.00  -0.00     0.00  -0.00   0.00     0.00  -0.00  -0.00
  39   8     0.00  -0.00   0.00    -0.00   0.00  -0.00     0.00   0.00   0.00
  40   7    -0.16   0.07   0.00     0.00  -0.00  -0.00    -0.00   0.00   0.00
  41   1     0.33  -0.03  -0.58    -0.00   0.00   0.00     0.00  -0.00  -0.00
  42   1     0.27  -0.25   0.57    -0.00   0.00  -0.00     0.00  -0.00   0.00
  43   7    -0.02   0.03  -0.05     0.00  -0.00   0.00    -0.00   0.00  -0.00
  44   1     0.08  -0.13   0.17    -0.00   0.00  -0.00     0.00  -0.00   0.00
  45   1     0.01   0.00  -0.00     0.00  -0.00   0.00     0.00  -0.00  -0.00
  46   6    -0.00   0.00   0.00    -0.00  -0.00  -0.00     0.00   0.00   0.00
  47   8    -0.00  -0.00  -0.00     0.00   0.00   0.00    -0.00  -0.00  -0.00
  48   7     0.00  -0.00   0.00     0.01   0.01   0.01    -0.00   0.00  -0.00
  49   1     0.00   0.01   0.01    -0.00  -0.03  -0.01    -0.00  -0.00  -0.00
  50   1    -0.01  -0.00  -0.01    -0.04  -0.01  -0.02     0.00   0.00   0.00
  51   7    -0.00  -0.00  -0.00    -0.03  -0.17  -0.08    -0.00  -0.00  -0.00
  52   1     0.00   0.00   0.00     0.63   0.20   0.29     0.00   0.00   0.00
  53   1    -0.00   0.00  -0.00    -0.53   0.41  -0.00    -0.00   0.00   0.00
                    148                    149                    150
                        a                      a                      a 
 Frequencies --  3530.8169              3536.7861              3556.2527
 Red. masses --     1.9664                 1.9643                 2.1726
 Frc consts  --     0.0000                 0.0000                 0.0000
 IR Inten    --    14.8451                20.2238                10.6380
 Raman Activ --     0.0000                 0.0000                 0.0000
 Depolar     --     0.0000                 0.0000                 0.0000
 Atom AN      X      Y      Z        X      Y      Z        X      Y      Z
   1   8    -0.00  -0.00  -0.00     0.00   0.00   0.00     0.00   0.00   0.00
   2   6    -0.00   0.00   0.00    -0.00   0.00  -0.00    -0.00   0.00  -0.00
   3   1     0.00  -0.00  -0.00     0.00  -0.00  -0.00     0.00  -0.00  -0.00
   4   1    -0.00   0.00  -0.00    -0.00  -0.00  -0.00     0.00   0.00  -0.00
   5   6    -0.00   0.00  -0.00     0.00  -0.00   0.00     0.00   0.00   0.00
   6   1    -0.00   0.00   0.00    -0.00   0.00  -0.00    -0.00   0.00   0.00
   7   1    -0.00   0.00  -0.00    -0.00  -0.00  -0.00    -0.00  -0.00  -0.00
   8   7     0.00  -0.00  -0.00     0.00  -0.00  -0.00     0.00   0.00   0.00
   9   6     0.00  -0.00  -0.00     0.00  -0.00   0.00     0.00  -0.00   0.00
  10   1    -0.00   0.00   0.00    -0.00   0.00  -0.00    -0.00   0.00   0.00
  11   1     0.00   0.00   0.00    -0.00  -0.00   0.00     0.00   0.00  -0.00
  12   1     0.00   0.00   0.00     0.00  -0.00   0.00     0.00  -0.00  -0.00
  13   6    -0.00  -0.00  -0.00     0.00  -0.00   0.00    -0.00  -0.00   0.00
  14   1     0.00   0.00   0.00     0.00  -0.00   0.00     0.00   0.00  -0.00
  15   1    -0.00   0.00   0.00    -0.00   0.00  -0.00    -0.00   0.00   0.00
  16   1     0.00   0.00   0.00    -0.00  -0.00  -0.00    -0.00   0.00   0.00
  17   6    -0.00   0.00   0.00     0.00   0.00  -0.00     0.00   0.00   0.00
  18   1     0.00   0.00   0.00    -0.00  -0.00   0.00     0.00   0.00   0.00
  19   1    -0.00  -0.00   0.00    -0.00  -0.00  -0.00    -0.00  -0.00  -0.00
  20   1     0.00  -0.00  -0.00    -0.00   0.00   0.00     0.00  -0.00  -0.00
  21   1     0.00   0.01   0.00     0.00  -0.00   0.00    -0.00  -0.00  -0.00
  22   6    -0.01   0.00   0.01    -0.00   0.00   0.00    -0.00  -0.00  -0.00
  23   8     0.00  -0.00  -0.00     0.00  -0.00  -0.00     0.00  -0.00   0.00
  24   7    -0.01  -0.01  -0.02    -0.00  -0.00  -0.00    -0.01  -0.01  -0.02
  25   1     0.06   0.02   0.06     0.00   0.00   0.00     0.05   0.01   0.04
  26   1    -0.01   0.03   0.03    -0.00   0.00   0.00    -0.02   0.04   0.04
  27   7    -0.11   0.12   0.20    -0.00   0.00   0.00     0.00  -0.00  -0.00
  28   1     0.25  -0.39  -0.76     0.00  -0.00  -0.01    -0.00   0.00   0.01
  29   1     0.16  -0.04   0.00     0.00  -0.00  -0.00    -0.00   0.00  -0.00
  30   6     0.00   0.00  -0.00    -0.00  -0.00   0.00     0.01  -0.00  -0.01
  31   8    -0.00  -0.00   0.00     0.00  -0.00  -0.00    -0.00   0.00   0.00
  32   7     0.08   0.03  -0.03    -0.00  -0.00   0.00     0.02   0.01  -0.01
  33   1    -0.04  -0.05  -0.03     0.00   0.00   0.00    -0.01  -0.02  -0.01
  34   1    -0.25  -0.05   0.15     0.00   0.00  -0.00    -0.09  -0.02   0.05
  35   7    -0.01   0.01   0.01     0.00  -0.00  -0.00     0.21  -0.11  -0.18
  36   1     0.01  -0.00  -0.00    -0.00   0.00   0.00    -0.62   0.00   0.17
  37   1     0.01  -0.02  -0.02    -0.00   0.00   0.00    -0.17   0.42   0.52
  38   6    -0.00   0.00   0.00     0.00   0.00  -0.00    -0.00   0.00  -0.00
  39   8    -0.00  -0.00  -0.00     0.00  -0.00   0.00     0.00  -0.00   0.00
  40   7     0.00  -0.00  -0.00    -0.00   0.00   0.00     0.00  -0.00   0.00
  41   1    -0.00   0.00   0.00     0.01  -0.00  -0.01     0.00  -0.00  -0.00
  42   1    -0.00   0.00  -0.00     0.00  -0.00   0.00    -0.00   0.00  -0.00
  43   7    -0.00  -0.00  -0.00     0.00   0.00  -0.00     0.00  -0.00   0.00
  44   1    -0.00   0.00  -0.00     0.00  -0.01   0.01     0.00  -0.00   0.00
  45   1     0.00   0.00   0.00    -0.01   0.00  -0.00    -0.00   0.00  -0.00
  46   6    -0.00  -0.00  -0.00    -0.00  -0.01  -0.01     0.00  -0.00  -0.00
  47   8     0.00   0.00   0.00     0.00   0.00   0.00    -0.00   0.00   0.00
  48   7     0.00  -0.00   0.00    -0.21  -0.11  -0.13     0.00   0.00   0.00
  49   1     0.00   0.00   0.00    -0.01   0.16   0.07    -0.00  -0.00  -0.00
  50   1    -0.01  -0.00  -0.00     0.79   0.25   0.44    -0.00  -0.00  -0.00
  51   7     0.00   0.00   0.00     0.03  -0.01   0.00    -0.00   0.00  -0.00
  52   1    -0.01  -0.01  -0.01    -0.02  -0.01  -0.01     0.00   0.00   0.00
  53   1     0.00  -0.00  -0.00    -0.07   0.06   0.00     0.00  -0.00  -0.00
                    151                    152                    153
                        a                      a                      a 
 Frequencies --  3557.2839              3565.1560              3566.3989
 Red. masses --     2.1732                 2.1882                 2.1842
 Frc consts  --     0.0000                 0.0000                 0.0000
 IR Inten    --     9.9294                14.9523                19.3542
 Raman Activ --     0.0000                 0.0000                 0.0000
 Depolar     --     0.0000                 0.0000                 0.0000
 Atom AN      X      Y      Z        X      Y      Z        X      Y      Z
   1   8    -0.00  -0.00  -0.00     0.00  -0.00   0.00     0.00   0.00   0.00
   2   6    -0.00   0.00   0.00    -0.00   0.00  -0.00     0.00  -0.00  -0.00
   3   1     0.00  -0.00   0.00     0.00  -0.00   0.00    -0.00   0.00  -0.00
   4   1    -0.00   0.00  -0.00    -0.00  -0.00   0.00     0.00   0.00   0.00
   5   6     0.00   0.00   0.00    -0.00   0.00  -0.00    -0.00   0.00   0.00
   6   1    -0.00   0.00   0.00     0.00  -0.00  -0.00     0.00  -0.00   0.00
   7   1    -0.00  -0.00  -0.00    -0.00   0.00   0.00    -0.00  -0.00  -0.00
   8   7    -0.00   0.00   0.00     0.00  -0.00  -0.00    -0.00   0.00   0.00
   9   6     0.00  -0.00  -0.00    -0.00   0.00  -0.00    -0.00   0.00   0.00
  10   1    -0.00   0.00   0.00     0.00  -0.00   0.00     0.00  -0.00   0.00
  11   1     0.00   0.00   0.00    -0.00  -0.00   0.00    -0.00   0.00  -0.00
  12   1     0.00   0.00   0.00    -0.00   0.00  -0.00     0.00  -0.00  -0.00
  13   6    -0.00   0.00  -0.00    -0.00   0.00  -0.00     0.00   0.00  -0.00
  14   1     0.00   0.00   0.00    -0.00   0.00   0.00    -0.00   0.00  -0.00
  15   1    -0.00   0.00   0.00     0.00  -0.00   0.00     0.00  -0.00   0.00
  16   1    -0.00  -0.00  -0.00    -0.00   0.00   0.00    -0.00   0.00   0.00
  17   6    -0.00   0.00   0.00    -0.00  -0.00   0.00     0.00  -0.00  -0.00
  18   1    -0.00   0.00   0.00    -0.00   0.00   0.00    -0.00   0.00  -0.00
  19   1    -0.00  -0.00  -0.00     0.00   0.00   0.00    -0.00   0.00   0.00
  20   1     0.00  -0.00  -0.00     0.00   0.00  -0.00    -0.00   0.00   0.00
  21   1     0.00   0.00   0.00     0.00   0.00  -0.00    -0.00  -0.01  -0.00
  22   6     0.00   0.01   0.01     0.00  -0.00  -0.00     0.00   0.00   0.00
  23   8    -0.00  -0.00  -0.00    -0.00   0.00   0.00     0.00  -0.00  -0.00
  24   7     0.08   0.15   0.24    -0.00  -0.00  -0.00    -0.00  -0.00  -0.00
  25   1    -0.49  -0.15  -0.47     0.00   0.00   0.00     0.00   0.00   0.00
  26   1     0.17  -0.44  -0.44    -0.00   0.00   0.00    -0.00   0.00   0.00
  27   7    -0.01   0.01   0.02     0.00  -0.00  -0.00     0.00  -0.00  -0.00
  28   1     0.03  -0.04  -0.08    -0.00   0.00   0.00    -0.00   0.00   0.01
  29   1     0.02  -0.00  -0.00    -0.00   0.00  -0.00    -0.01   0.00   0.00
  30   6     0.00  -0.00  -0.00     0.00   0.00  -0.00    -0.00   0.00   0.00
  31   8    -0.00   0.00   0.00    -0.00  -0.00   0.00     0.00   0.00  -0.00
  32   7     0.01   0.00  -0.00     0.00   0.00  -0.00    -0.00  -0.00   0.00
  33   1    -0.01  -0.01  -0.01     0.00   0.00   0.00     0.00   0.00   0.00
  34   1    -0.02  -0.00   0.01    -0.00  -0.00   0.00     0.00   0.00  -0.00
  35   7     0.02  -0.01  -0.02     0.00  -0.00  -0.00     0.00  -0.00  -0.00
  36   1    -0.06   0.00   0.02    -0.00  -0.00   0.00    -0.00   0.00   0.00
  37   1    -0.02   0.04   0.05    -0.00   0.00   0.00    -0.00   0.00   0.00
  38   6     0.00  -0.00   0.00     0.00   0.00  -0.01    -0.00  -0.00   0.00
  39   8    -0.00   0.00  -0.00    -0.00  -0.00   0.00    -0.00   0.00  -0.00
  40   7    -0.00   0.00  -0.00     0.02   0.06  -0.30    -0.00  -0.00   0.01
  41   1    -0.00   0.00   0.00    -0.36   0.04   0.58     0.01  -0.00  -0.02
  42   1     0.00  -0.00   0.00     0.29  -0.25   0.54    -0.01   0.01  -0.02
  43   7    -0.00   0.00  -0.00    -0.00   0.01  -0.01    -0.00  -0.00   0.00
  44   1     0.00  -0.00   0.00     0.01  -0.02   0.03    -0.00   0.00  -0.00
  45   1     0.00  -0.00   0.00     0.00  -0.00  -0.00     0.00  -0.00   0.00
  46   6    -0.00  -0.00  -0.00     0.00  -0.00   0.00     0.01  -0.00   0.00
  47   8     0.00   0.00   0.00    -0.00   0.00   0.00    -0.00   0.00  -0.00
  48   7     0.00  -0.00  -0.00    -0.00  -0.00  -0.00     0.02   0.01   0.01
  49   1     0.00   0.00   0.00    -0.00   0.00   0.00     0.00  -0.02  -0.01
  50   1     0.00  -0.00   0.00     0.00   0.00   0.00    -0.07  -0.02  -0.04
  51   7     0.00  -0.00   0.00     0.01  -0.00   0.00     0.29  -0.06   0.07
  52   1    -0.01  -0.00  -0.00    -0.02  -0.01  -0.01    -0.56  -0.21  -0.26
  53   1    -0.00   0.00   0.00    -0.02   0.01   0.00    -0.53   0.45   0.01
