      -----------------------------------------------------------      
     |                   =====================                   |     
     |                           x T B                           |     
     |                   =====================                   |     
     |                         S. Grimme                         |     
     |          Mulliken Center for Theoretical Chemistry        |     
     |                    University of Bonn                     |     
      -----------------------------------------------------------      

   * xtb version 6.6.1 (unknown-commit) compiled by '@Linux' on 12/27/2023

   xtb is free software: you can redistribute it and/or modify it under
   the terms of the GNU Lesser General Public License as published by
   the Free Software Foundation, either version 3 of the License, or
   (at your option) any later version.
   
   xtb is distributed in the hope that it will be useful,
   but WITHOUT ANY WARRANTY; without even the implied warranty of
   MERCHANTABILITY or FITNESS FOR A PARTICULAR PURPOSE.  See the
   GNU Lesser General Public License for more details.
   
   Cite this work as:
   * C. Bannwarth, E. Caldeweyher, S. Ehlert, A. Hansen, P. Pracht,
     J. Seibert, S. Spicher, S. Grimme, WIREs Comput. Mol. Sci., 2020, 11,
     e01493. DOI: 10.1002/wcms.1493
   
   for GFN2-xTB:
   * C. Bannwarth, S. Ehlert and S. Grimme., J. Chem. Theory Comput., 2019,
     15, 1652-1671. DOI: 10.1021/acs.jctc.8b01176
   for GFN1-xTB:
   * S. Grimme, C. Bannwarth, P. Shushkov, J. Chem. Theory Comput., 2017,
     13, 1989-2009. DOI: 10.1021/acs.jctc.7b00118
   for GFN0-xTB:
   * P. Pracht, E. Caldeweyher, S. Ehlert, S. Grimme, ChemRxiv, 2019, preprint.
     DOI: 10.26434/chemrxiv.8326202.v1
   for GFN-FF:
   * S. Spicher and S. Grimme, Angew. Chem. Int. Ed., 2020, 59, 15665-15673.
     DOI: 10.1002/anie.202004239
   
   for ALPB and GBSA implicit solvation:
   * S. Ehlert, M. Stahn, S. Spicher, S. Grimme, J. Chem. Theory Comput.,
     2021, 17, 4250-4261. DOI: 10.1021/acs.jctc.1c00471
   
   for DFT-D4:
   * E. Caldeweyher, C. Bannwarth and S. Grimme, J. Chem. Phys., 2017,
     147, 034112. DOI: 10.1063/1.4993215
   * E. Caldeweyher, S. Ehlert, A. Hansen, H. Neugebauer, S. Spicher,
     C. Bannwarth and S. Grimme, J. Chem. Phys., 2019, 150, 154122.
     DOI: 10.1063/1.5090222
   * E. Caldeweyher, J.-M. Mewes, S. Ehlert and S. Grimme, Phys. Chem. Chem. Phys.
     2020, 22, 8499-8512. DOI: 10.1039/D0CP00502A
   
   for sTDA-xTB:
   * S. Grimme and C. Bannwarth, J. Chem. Phys., 2016, 145, 054103.
     DOI: 10.1063/1.4959605
   
   in the mass-spec context:
   * V. Asgeirsson, C. Bauer and S. Grimme, Chem. Sci., 2017, 8, 4879.
     DOI: 10.1039/c7sc00601b
   * J. Koopman and S. Grimme, ACS Omega 2019, 4, 12, 15120-15133.
     DOI: 10.1021/acsomega.9b02011
   
   for metadynamics refer to:
   * S. Grimme, J. Chem. Theory Comput., 2019, 155, 2847-2862
     DOI: 10.1021/acs.jctc.9b00143
   
   for SPH calculations refer to:
   * S. Spicher and S. Grimme, J. Chem. Theory Comput., 2021, 17, 1701-1714
     DOI: 10.1021/acs.jctc.0c01306
   
   with help from (in alphabetical order)
   P. Atkinson, C. Bannwarth, F. Bohle, G. Brandenburg, E. Caldeweyher
   M. Checinski, S. Dohm, S. Ehlert, S. Ehrlich, I. Gerasimov, C. Hölzer
   A. Katbashev, J. Koopman, C. Lavigne, S. Lehtola, F. März, M. Müller,
   F. Musil, H. Neugebauer, J. Pisarek, C. Plett, P. Pracht, F. Pultar,
   J. Seibert, P. Shushkov, S. Spicher, M. Stahn, M. Steiner, T. Strunk,
   J. Stückrath, T. Rose, and J. Unsleber
   
 * started run on 2024/01/10 at 15:33:29.164     

           -------------------------------------------------
          |                Calculation Setup                |
           -------------------------------------------------

          program call               : xtb struc.xyz --gfn2 --hess
          hostname                   : swaroop
          coordinate file            : struc.xyz
          omp threads                :                     1

   ID    Z sym.   atoms
    1    8 O      1, 23, 31, 39, 47
    2    6 C      2, 5, 9, 13, 17, 22, 30, 38, 46
    3    1 H      3, 4, 6, 7, 10-12, 14-16, 18-21, 25, 26, 28, 29, 33, 34,
                  36, 37, 41, 42, 44, 45, 49, 50, 52, 53
    4    7 N      8, 24, 27, 32, 35, 40, 43, 48, 51

molecular fragmentation (1/2 indicates fragments):
11111111111111111111122222222222222222222222222222222
# atoms in fragment 1/2:    21    32
 fragment masses (1/2) :      104.17      240.22
CMA distance (Bohr)    :   5.759
constraining FC (au)   :  0.0500

           -------------------------------------------------
          |                 G F N 2 - x T B                 |
           -------------------------------------------------

        Reference                      10.1021/acs.jctc.8b01176
      * Hamiltonian:
        H0-scaling (s, p, d)           1.850000    2.230000    2.230000
        zeta-weighting                 0.500000
      * Dispersion:
        s8                             2.700000
        a1                             0.520000
        a2                             5.000000
        s9                             5.000000
      * Repulsion:
        kExp                           1.500000    1.000000
        rExp                           1.000000
      * Coulomb:
        alpha                          2.000000
        third order                    shell-resolved
        anisotropic                    true
        a3                             3.000000
        a5                             4.000000
        cn-shift                       1.200000
        cn-exp                         4.000000
        max-rad                        5.000000


          ...................................................
          :                      SETUP                      :
          :.................................................:
          :  # basis functions                 122          :
          :  # atomic orbitals                 122          :
          :  # shells                           76          :
          :  # electrons                       140          :
          :  max. iterations                   250          :
          :  Hamiltonian                  GFN2-xTB          :
          :  restarted?                      false          :
          :  GBSA solvation                  false          :
          :  PC potential                    false          :
          :  electronic temp.          300.0000000     K    :
          :  accuracy                    1.0000000          :
          :  -> integral cutoff          0.2500000E+02      :
          :  -> integral neglect         0.1000000E-07      :
          :  -> SCF convergence          0.1000000E-05 Eh   :
          :  -> wf. convergence          0.1000000E-03 e    :
          :  Broyden damping             0.4000000          :
          ...................................................

 iter      E             dE          RMSdq      gap      omega  full diag
   1    -81.5649678 -0.815650E+02  0.428E+00    5.12       0.0  T
   2    -81.8401771 -0.275209E+00  0.235E+00    5.89       1.0  T
   3    -81.8457045 -0.552738E-02  0.113E+00    5.64       1.0  T
   4    -81.8470711 -0.136662E-02  0.244E-01    5.78       1.0  T
   5    -81.8480037 -0.932543E-03  0.918E-02    5.70       1.0  T
   6    -81.8480279 -0.242551E-04  0.255E-02    5.70       1.0  T
   7    -81.8480316 -0.366429E-05  0.756E-03    5.70       1.8  T
   8    -81.8480319 -0.295996E-06  0.264E-03    5.70       5.2  T
   9    -81.8480319 -0.136754E-07  0.877E-04    5.70      15.7  T
  10    -81.8480319 -0.573108E-08  0.185E-04    5.70      74.2  T

   *** convergence criteria satisfied after 10 iterations ***

         #    Occupation            Energy/Eh            Energy/eV
      -------------------------------------------------------------
         1        2.0000           -0.8084786             -21.9998
       ...           ...                  ...                  ...
        64        2.0000           -0.5048224             -13.7369
        65        2.0000           -0.5022097             -13.6658
        66        2.0000           -0.5002058             -13.6113
        67        2.0000           -0.4980875             -13.5537
        68        2.0000           -0.4951115             -13.4727
        69        2.0000           -0.4910084             -13.3610
        70        2.0000           -0.4900537             -13.3350 (HOMO)
        71                         -0.2805071              -7.6330 (LUMO)
        72                         -0.2773422              -7.5469
        73                         -0.2694962              -7.3334
        74                         -0.2681734              -7.2974
        75                         -0.1625604              -4.4235
       ...                                ...                  ...
       122                          0.5462662              14.8647
      -------------------------------------------------------------
                  HL-Gap            0.2095465 Eh            5.7021 eV
             Fermi-level           -0.3852804 Eh          -10.4840 eV

 SCC (total)                   0 d,  0 h,  0 min,  0.086 sec
 SCC setup                      ...        0 min,  0.000 sec (  0.335%)
 Dispersion                     ...        0 min,  0.001 sec (  0.670%)
 classical contributions        ...        0 min,  0.000 sec (  0.209%)
 integral evaluation            ...        0 min,  0.008 sec (  9.642%)
 iterations                     ...        0 min,  0.048 sec ( 55.419%)
 molecular gradient             ...        0 min,  0.029 sec ( 33.401%)
 printout                       ...        0 min,  0.000 sec (  0.312%)

         :::::::::::::::::::::::::::::::::::::::::::::::::::::
         ::                     SUMMARY                     ::
         :::::::::::::::::::::::::::::::::::::::::::::::::::::
         :: total energy             -80.938205130831 Eh    ::
         :: gradient norm              0.000086230902 Eh/a0 ::
         :: HOMO-LUMO gap              5.702051370557 eV    ::
         ::.................................................::
         :: SCC energy               -81.848031897395 Eh    ::
         :: -> isotropic ES            0.296954142193 Eh    ::
         :: -> anisotropic ES         -0.028894084355 Eh    ::
         :: -> anisotropic XC          0.020082074263 Eh    ::
         :: -> dispersion             -0.047303434949 Eh    ::
         :: repulsion energy           0.907443004055 Eh    ::
         :: add. restraining           0.000000000000 Eh    ::
         :: total charge               1.000000000000 e     ::
         :::::::::::::::::::::::::::::::::::::::::::::::::::::

           ------------------------------------------------- 
          |                Numerical Hessian                |
           ------------------------------------------------- 
step length          :   0.00500
SCC accuracy         :   0.30000
Hessian scale factor :   1.00000
frozen atoms in %    :   0.00000    0
RMS gradient         :   0.00009
estimated CPU  time      0.25 min
estimated wall time      0.25 min

writing file <hessian>.

 projected vibrational frequencies (cm⁻¹)
eigval :       -0.00    -0.00     0.00     0.00     0.00     0.00
eigval :       11.34    19.06    27.33    30.76    38.73    44.84
eigval :       50.04    52.31    55.41    57.61    71.15    75.42
eigval :       77.36    93.77   105.40   115.38   124.57   133.00
eigval :      136.45   147.12   161.36   171.87   175.73   186.95
eigval :      198.60   208.77   221.50   252.50   285.46   292.19
eigval :      301.13   323.02   343.05   344.38   371.00   411.29
eigval :      425.70   430.11   438.09   451.38   460.24   463.19
eigval :      465.73   468.38   471.19   480.58   484.07   488.05
eigval :      492.04   496.14   543.08   548.57   553.45   557.40
eigval :      560.29   598.40   660.02   669.23   673.20   674.89
eigval :      678.42   725.26   734.10   762.94   772.66   788.44
eigval :      914.89   918.06   963.45   968.53   972.06   995.40
eigval :      998.75  1011.31  1017.95  1019.17  1021.78  1025.34
eigval :     1027.68  1034.25  1037.01  1085.90  1086.56  1087.95
eigval :     1091.71  1102.22  1113.31  1126.10  1165.30  1221.43
eigval :     1244.70  1271.42  1318.15  1327.81  1351.27  1355.97
eigval :     1357.34  1362.09  1384.58  1386.65  1407.22  1411.04
eigval :     1416.10  1435.27  1439.92  1447.89  1450.83  1454.38
eigval :     1454.66  1456.29  1460.77  1464.80  1468.41  1479.85
eigval :     1485.45  1506.99  1513.02  1513.52  1517.36  1656.86
eigval :     1661.08  1690.94  1699.61  2914.81  2975.68  3013.86
eigval :     3016.24  3022.79  3026.69  3040.60  3041.90  3045.88
eigval :     3049.53  3056.07  3061.09  3062.22  3148.34  3153.53
eigval :     3227.53  3288.99  3325.49  3380.43  3482.53  3493.76
eigval :     3498.22  3502.51  3530.75  3531.88  3537.68  3547.82
eigval :     3557.12  3562.58  3568.57
           -------------------------------------------------
          |                Property Printout                |
           -------------------------------------------------

    * Orbital Energies and Occupations

         #    Occupation            Energy/Eh            Energy/eV
      -------------------------------------------------------------
         1        2.0000           -0.8084781             -21.9998
       ...           ...                  ...                  ...
        58        2.0000           -0.5158420             -14.0368
        59        2.0000           -0.5144318             -13.9984
        60        2.0000           -0.5122790             -13.9398
        61        2.0000           -0.5078204             -13.8185
        62        2.0000           -0.5065048             -13.7827
        63        2.0000           -0.5048964             -13.7389
        64        2.0000           -0.5048235             -13.7369
        65        2.0000           -0.5022106             -13.6658
        66        2.0000           -0.5002061             -13.6113
        67        2.0000           -0.4980885             -13.5537
        68        2.0000           -0.4951121             -13.4727
        69        2.0000           -0.4910090             -13.3610
        70        2.0000           -0.4900543             -13.3351 (HOMO)
        71                         -0.2805090              -7.6330 (LUMO)
        72                         -0.2773432              -7.5469
        73                         -0.2694985              -7.3334
        74                         -0.2681751              -7.2974
        75                         -0.1625598              -4.4235
        76                         -0.1113856              -3.0310
        77                         -0.0976196              -2.6564
        78                         -0.0932637              -2.5378
        79                         -0.0857695              -2.3339
        80                         -0.0843894              -2.2964
        81                         -0.0752276              -2.0470
       ...                                ...                  ...
       122                          0.5462645              14.8646
      -------------------------------------------------------------
                  HL-Gap            0.2095453 Eh            5.7020 eV
             Fermi-level           -0.3852816 Eh          -10.4840 eV

     #   Z          covCN         q      C6AA      α(0)
     1   8 O        1.654    -0.457    21.979     6.329
     2   6 C        3.673     0.072    19.602     6.345
     3   1 H        0.924     0.054     2.274     2.358
     4   1 H        0.924     0.046     2.370     2.408
     5   6 C        3.770    -0.078    22.024     6.688
     6   1 H        0.924     0.119     1.620     1.990
     7   1 H        0.925     0.106     1.735     2.060
     8   7 N        3.623     0.156    18.611     6.407
     9   6 C        3.736    -0.116    22.814     6.816
    10   1 H        0.925     0.104     1.753     2.070
    11   1 H        0.925     0.084     1.938     2.177
    12   1 H        0.924     0.126     1.565     1.956
    13   6 C        3.721    -0.106    22.642     6.796
    14   1 H        0.925     0.091     1.869     2.138
    15   1 H        0.925     0.086     1.923     2.168
    16   1 H        0.924     0.118     1.627     1.995
    17   6 C        3.721    -0.103    22.594     6.789
    18   1 H        0.925     0.120     1.616     1.988
    19   1 H        0.925     0.103     1.754     2.071
    20   1 H        0.925     0.080     1.983     2.202
    21   1 H        0.803     0.332     0.633     1.250
    22   6 C        2.675     0.340    21.228     7.539
    23   8 O        0.861    -0.542    24.736     6.668
    24   7 N        2.644    -0.309    27.943     7.851
    25   1 H        0.859     0.245     0.903     1.489
    26   1 H        0.861     0.181     1.210     1.723
    27   7 N        2.645    -0.289    27.451     7.781
    28   1 H        0.861     0.187     1.175     1.698
    29   1 H        0.860     0.201     1.101     1.643
    30   6 C        2.675     0.341    21.210     7.536
    31   8 O        0.860    -0.527    24.399     6.623
    32   7 N        2.645    -0.296    27.640     7.808
    33   1 H        0.860     0.201     1.103     1.645
    34   1 H        0.860     0.191     1.156     1.684
    35   7 N        2.644    -0.321    28.261     7.895
    36   1 H        0.860     0.216     1.028     1.588
    37   1 H        0.860     0.223     0.995     1.562
    38   6 C        2.675     0.340    21.222     7.538
    39   8 O        0.860    -0.550    24.912     6.692
    40   7 N        2.644    -0.297    27.666     7.812
    41   1 H        0.860     0.195     1.131     1.666
    42   1 H        0.860     0.183     1.197     1.714
    43   7 N        2.644    -0.305    27.847     7.837
    44   1 H        0.861     0.180     1.213     1.725
    45   1 H        0.859     0.250     0.885     1.474
    46   6 C        2.675     0.342    21.190     7.533
    47   8 O        0.860    -0.526    24.372     6.619
    48   7 N        2.644    -0.310    27.980     7.856
    49   1 H        0.860     0.238     0.931     1.512
    50   1 H        0.861     0.179     1.219     1.730
    51   7 N        2.645    -0.285    27.362     7.769
    52   1 H        0.861     0.187     1.175     1.698
    53   1 H        0.860     0.204     1.088     1.634

 Mol. C6AA /au·bohr⁶  :      21793.416127
 Mol. C8AA /au·bohr⁸  :     454459.283085
 Mol. α(0) /au        :        220.544885


Wiberg/Mayer (AO) data.
largest (>0.10) Wiberg bond orders for each atom

 ---------------------------------------------------------------------------
     #   Z sym  total        # sym  WBO       # sym  WBO       # sym  WBO
 ---------------------------------------------------------------------------
     1   8 O    1.960 --     2 C    1.024    21 H    0.838
     2   6 C    3.967 --     1 O    1.024     5 C    0.992     3 H    0.964
                             4 H    0.962
     3   1 H    0.997 --     2 C    0.964
     4   1 H    0.998 --     2 C    0.962
     5   6 C    3.920 --     2 C    0.992     7 H    0.953     6 H    0.946
                             8 N    0.928
     6   1 H    0.986 --     5 C    0.946
     7   1 H    0.989 --     5 C    0.953
     8   7 N    3.821 --    13 C    0.961    17 C    0.958     9 C    0.956
                             5 C    0.928
     9   6 C    3.922 --    11 H    0.978    10 H    0.972    12 H    0.959
                             8 N    0.956
    10   1 H    0.989 --     9 C    0.972
    11   1 H    0.993 --     9 C    0.978
    12   1 H    0.984 --     9 C    0.959
    13   6 C    3.930 --    15 H    0.977    14 H    0.973    16 H    0.962
                             8 N    0.961
    14   1 H    0.992 --    13 C    0.973
    15   1 H    0.993 --    13 C    0.977
    16   1 H    0.986 --    13 C    0.962
    17   6 C    3.925 --    20 H    0.979    19 H    0.972    18 H    0.965
                             8 N    0.958
    18   1 H    0.986 --    17 C    0.965
    19   1 H    0.989 --    17 C    0.972
    20   1 H    0.994 --    17 C    0.979
    21   1 H    0.890 --     1 O    0.838
    22   6 C    3.960 --    23 O    1.472    24 N    1.263    27 N    1.213
    23   8 O    1.887 --    22 C    1.472    24 N    0.143    27 N    0.128
    24   7 N    3.346 --    22 C    1.263    26 H    0.948    25 H    0.865
                            23 O    0.143
    25   1 H    0.940 --    24 N    0.865
    26   1 H    0.967 --    24 N    0.948
    27   7 N    3.327 --    22 C    1.213    28 H    0.946    29 H    0.942
                            23 O    0.128
    28   1 H    0.965 --    27 N    0.946
    29   1 H    0.959 --    27 N    0.942
    30   6 C    3.959 --    31 O    1.481    35 N    1.257    32 N    1.203
    31   8 O    1.920 --    30 C    1.481    35 N    0.141    32 N    0.126
    32   7 N    3.310 --    30 C    1.203    34 H    0.945    33 H    0.942
                            31 O    0.126
    33   1 H    0.960 --    32 N    0.942
    34   1 H    0.963 --    32 N    0.945
    35   7 N    3.333 --    30 C    1.257    36 H    0.900    37 H    0.895
                            31 O    0.141
    36   1 H    0.953 --    35 N    0.900
    37   1 H    0.950 --    35 N    0.895
    38   6 C    3.959 --    39 O    1.478    43 N    1.277    40 N    1.194
    39   8 O    1.872 --    38 C    1.478    43 N    0.148    40 N    0.126
    40   7 N    3.306 --    38 C    1.194    42 H    0.947    41 H    0.945
                            39 O    0.126
    41   1 H    0.962 --    40 N    0.945
    42   1 H    0.966 --    40 N    0.947
    43   7 N    3.358 --    38 C    1.277    44 H    0.948    45 H    0.859
                            39 O    0.148
    44   1 H    0.967 --    43 N    0.948
    45   1 H    0.938 --    43 N    0.859
    46   6 C    3.960 --    47 O    1.481    48 N    1.247    51 N    1.220
    47   8 O    1.915 --    46 C    1.481    48 N    0.138    51 N    0.132
    48   7 N    3.332 --    46 C    1.247    50 H    0.948    49 H    0.872
                            47 O    0.138
    49   1 H    0.943 --    48 N    0.872
    50   1 H    0.968 --    48 N    0.948
    51   7 N    3.335 --    46 C    1.220    52 H    0.946    53 H    0.942
                            47 O    0.132
    52   1 H    0.965 --    51 N    0.946
    53   1 H    0.958 --    51 N    0.942
 ---------------------------------------------------------------------------

Topologies differ in total number of bonds
Writing topology from bond orders to xtbtopo.mol

molecular dipole:
                 x           y           z       tot (Debye)
 q only:        1.126      -1.596       0.688
   full:        1.298      -1.095       1.360       5.531
molecular quadrupole (traceless):
                xx          xy          yy          xz          yz          zz
 q only:       13.051      13.225       1.789     -12.292       3.691     -14.840
  q+dip:       19.815      16.072      -0.377     -15.674       1.898     -19.438
   full:       20.260      16.129      -0.828     -15.078       2.231     -19.432

           -------------------------------------------------
          |               Frequency Printout                |
           -------------------------------------------------
 projected vibrational frequencies (cm⁻¹)
eigval :       -0.00    -0.00     0.00     0.00     0.00     0.00
eigval :       11.34    19.06    27.33    30.76    38.73    44.84
eigval :       50.04    52.31    55.41    57.61    71.15    75.42
eigval :       77.36    93.77   105.40   115.38   124.57   133.00
eigval :      136.45   147.12   161.36   171.87   175.73   186.95
eigval :      198.60   208.77   221.50   252.50   285.46   292.19
eigval :      301.13   323.02   343.05   344.38   371.00   411.29
eigval :      425.70   430.11   438.09   451.38   460.24   463.19
eigval :      465.73   468.38   471.19   480.58   484.07   488.05
eigval :      492.04   496.14   543.08   548.57   553.45   557.40
eigval :      560.29   598.40   660.02   669.23   673.20   674.89
eigval :      678.42   725.26   734.10   762.94   772.66   788.44
eigval :      914.89   918.06   963.45   968.53   972.06   995.40
eigval :      998.75  1011.31  1017.95  1019.17  1021.78  1025.34
eigval :     1027.68  1034.25  1037.01  1085.90  1086.56  1087.95
eigval :     1091.71  1102.22  1113.31  1126.10  1165.30  1221.43
eigval :     1244.70  1271.42  1318.15  1327.81  1351.27  1355.97
eigval :     1357.34  1362.09  1384.58  1386.65  1407.22  1411.04
eigval :     1416.10  1435.27  1439.92  1447.89  1450.83  1454.38
eigval :     1454.66  1456.29  1460.77  1464.80  1468.41  1479.85
eigval :     1485.45  1506.99  1513.02  1513.52  1517.36  1656.86
eigval :     1661.08  1690.94  1699.61  2914.81  2975.68  3013.86
eigval :     3016.24  3022.79  3026.69  3040.60  3041.90  3045.88
eigval :     3049.53  3056.07  3061.09  3062.22  3148.34  3153.53
eigval :     3227.53  3288.99  3325.49  3380.43  3482.53  3493.76
eigval :     3498.22  3502.51  3530.75  3531.88  3537.68  3547.82
eigval :     3557.12  3562.58  3568.57
 reduced masses (amu)
   1: 12.74   2: 12.25   3: 12.60   4: 12.29   5: 12.75   6: 12.62   7: 12.02   8: 12.41
   9: 12.31  10: 12.56  11: 12.61  12: 12.34  13: 12.47  14: 12.27  15: 12.10  16: 12.39
  17: 10.73  18: 11.44  19: 11.07  20: 13.43  21: 11.47  22: 13.25  23: 13.38  24: 13.03
  25: 13.10  26: 12.63  27: 12.87  28: 11.12  29: 13.39  30: 12.49  31: 12.27  32:  9.11
  33:  6.69  34:  4.58  35:  2.51  36:  3.63  37:  7.99  38:  5.11  39:  3.73  40:  2.48
  41:  7.02  42:  3.36  43:  8.68  44:  3.28  45:  3.27  46:  2.88  47:  5.50  48:  8.29
  49:  6.77  50:  7.37  51:  6.65  52:  2.40  53:  2.09  54:  4.46  55:  8.42  56:  7.98
  57:  8.07  58: 11.11  59: 11.48  60: 11.65  61: 11.59  62:  2.45  63:  4.59  64: 10.95
  65: 11.00  66: 11.19  67: 10.18  68:  2.61  69:  2.41  70:  9.09  71:  2.28  72:  2.36
  73:  7.38  74:  7.94  75:  5.10  76:  4.97  77:  4.68  78:  7.31  79:  5.08  80:  7.35
  81:  9.41  82:  9.22  83:  6.01  84:  9.95  85:  9.47  86:  6.95  87:  3.86  88:  8.64
  89:  8.06  90:  8.05  91:  8.22  92:  4.08  93:  7.17  94:  7.97  95:  2.88  96:  5.21
  97:  7.29  98:  8.21  99:  6.29 100:  3.12 101:  4.33 102:  4.84 103:  4.69 104:  3.71
 105:  4.80 106:  4.82 107:  2.54 108:  2.57 109:  2.06 110:  2.61 111:  1.62 112:  3.17
 113:  3.29 114:  2.11 115:  2.78 116:  2.02 117:  2.44 118:  2.27 119:  1.64 120:  1.66
 121:  1.70 122:  8.46 123:  9.32 124:  9.11 125:  9.30 126: 12.36 127: 12.36 128: 12.64
 129: 12.65 130:  1.79 131:  1.64 132:  1.67 133:  1.82 134:  1.75 135:  1.70 136:  1.76
 137:  1.68 138:  1.69 139:  1.92 140:  1.78 141:  1.66 142:  1.67 143:  1.81 144:  1.82
 145:  1.79 146:  1.87 147:  1.64 148:  2.07 149:  1.45 150:  1.46 151:  1.45 152:  1.45
 153:  1.90 154:  1.89 155:  1.90 156:  2.18 157:  2.17 158:  2.18 159:  2.19
 IR intensities (km·mol⁻¹)
   1:  1.50   2:  1.58   3:  1.34   4:  1.83   5:  2.56   6:  0.80   7:  0.04   8:  2.02
   9:  0.42  10:  3.06  11:  7.12  12:  0.62  13:  3.74  14:  0.95  15:  0.35  16:  0.68
  17:  0.84  18:  2.07  19:  1.50  20:  1.04  21:  2.83  22:  4.06  23: 13.21  24: 18.40
  25: 20.97  26:  9.89  27:  3.59  28: 20.53  29: 33.63  30: 22.59  31: 14.77  32: 42.23
  33:169.97  34:  2.42  35:123.82  36: 14.20  37:  6.38  38: 10.90  39:  0.22  40: 71.33
  41:  1.07  42: 78.57  43: 10.08  44:429.80  45:208.14  46:148.48  47: 49.65  48:  0.50
  49: 26.97  50: 17.99  51: 11.03  52:  5.51  53: 17.65  54: 47.23  55: 65.40  56: 68.11
  57:  2.93  58:  1.35  59: 10.16  60: 15.65  61: 34.78  62:113.17  63:132.52  64: 17.93
  65: 19.46  66: 47.09  67: 66.58  68:131.31  69: 44.86  70:  7.18  71:286.37  72:543.05
  73:  8.32  74:  6.80  75:  7.93  76:  3.60  77:  3.05  78: 14.58  79: 12.15  80: 31.07
  81:  7.22  82:  2.31  83: 20.88  84:  0.35  85:  1.27  86:  5.17  87:  1.81  88:  0.39
  89: 11.46  90: 14.89  91:  1.39  92: 23.57  93:  2.61  94: 30.34  95: 21.78  96:  5.22
  97:  2.97  98:  3.74  99:  5.07 100:  8.44 101:102.07 102: 86.90 103:169.49 104:155.05
 105: 12.77 106:  4.77 107: 16.31 108: 21.43 109:  6.43 110: 13.38 111:  0.46 112:  5.10
 113: 16.86 114:  4.96 115:  4.05 116:  2.04 117:  7.08 118:  8.67 119:  7.50 120: 51.83
 121: 13.93 122:416.05 123:407.76 124:718.77 125:428.61 126:538.09 127:260.21 128:******
 129:****** 130: 22.48 131: 35.73 132:  3.32 133:  6.33 134: 45.73 135: 39.50 136:  1.77
 137:  1.01 138: 18.60 139:  3.15 140:  0.78 141:  1.50 142:  1.27 143:994.14 144:174.71
 145:****** 146:384.88 147:558.10 148:415.65 149: 20.93 150: 15.64 151: 22.27 152: 24.61
 153: 19.91 154: 11.86 155: 14.37 156: 16.30 157: 12.66 158: 15.46 159: 17.70
 Raman intensities (amu)
Molecule has no symmetry elements
It seems to be the C1 point group
   1:  0.00   2:  0.00   3:  0.00   4:  0.00   5:  0.00   6:  0.00   7:  0.00   8:  0.00
   9:  0.00  10:  0.00  11:  0.00  12:  0.00  13:  0.00  14:  0.00  15:  0.00  16:  0.00
  17:  0.00  18:  0.00  19:  0.00  20:  0.00  21:  0.00  22:  0.00  23:  0.00  24:  0.00
  25:  0.00  26:  0.00  27:  0.00  28:  0.00  29:  0.00  30:  0.00  31:  0.00  32:  0.00
  33:  0.00  34:  0.00  35:  0.00  36:  0.00  37:  0.00  38:  0.00  39:  0.00  40:  0.00
  41:  0.00  42:  0.00  43:  0.00  44:  0.00  45:  0.00  46:  0.00  47:  0.00  48:  0.00
  49:  0.00  50:  0.00  51:  0.00  52:  0.00  53:  0.00  54:  0.00  55:  0.00  56:  0.00
  57:  0.00  58:  0.00  59:  0.00  60:  0.00  61:  0.00  62:  0.00  63:  0.00  64:  0.00
  65:  0.00  66:  0.00  67:  0.00  68:  0.00  69:  0.00  70:  0.00  71:  0.00  72:  0.00
  73:  0.00  74:  0.00  75:  0.00  76:  0.00  77:  0.00  78:  0.00  79:  0.00  80:  0.00
  81:  0.00  82:  0.00  83:  0.00  84:  0.00  85:  0.00  86:  0.00  87:  0.00  88:  0.00
  89:  0.00  90:  0.00  91:  0.00  92:  0.00  93:  0.00  94:  0.00  95:  0.00  96:  0.00
  97:  0.00  98:  0.00  99:  0.00 100:  0.00 101:  0.00 102:  0.00 103:  0.00 104:  0.00
 105:  0.00 106:  0.00 107:  0.00 108:  0.00 109:  0.00 110:  0.00 111:  0.00 112:  0.00
 113:  0.00 114:  0.00 115:  0.00 116:  0.00 117:  0.00 118:  0.00 119:  0.00 120:  0.00
 121:  0.00 122:  0.00 123:  0.00 124:  0.00 125:  0.00 126:  0.00 127:  0.00 128:  0.00
 129:  0.00 130:  0.00 131:  0.00 132:  0.00 133:  0.00 134:  0.00 135:  0.00 136:  0.00
 137:  0.00 138:  0.00 139:  0.00 140:  0.00 141:  0.00 142:  0.00 143:  0.00 144:  0.00
 145:  0.00 146:  0.00 147:  0.00 148:  0.00 149:  0.00 150:  0.00 151:  0.00 152:  0.00
 153:  0.00 154:  0.00 155:  0.00 156:  0.00 157:  0.00 158:  0.00 159:  0.00
 output can be read by thermo (or use thermo option).
 writing <g98.out> molden fake output.
 recommended (thermochemical) frequency scaling factor: 1.0
           -------------------------------------------------
          |             Thermodynamic Functions             |
           -------------------------------------------------

c1  symmetry found (for desy threshold:  0.10E+00) used in thermo

          ...................................................
          :                      SETUP                      :
          :.................................................:
          :  # frequencies                         153      :
          :  # imaginary freq.                       0      :
          :  linear?                             false      :
          :  only rotor calc.                    false      :
          :  symmetry                               c1      :
          :  rotational number                       1      :
          :  scaling factor                  1.0000000      :
          :  rotor cutoff                   50.0000000 cm⁻¹ :
          :  imag. cutoff                  -20.0000000 cm⁻¹ :
          :.................................................:

    mode    ω/cm⁻¹     T·S(HO)/kcal·mol⁻¹    T·S(FR)/kcal·mol⁻¹   T·S(vib)
   ------------------------------------------------------------------------
       1     11.34    -2.31425 (  0.26%)    -1.49604 ( 99.74%)    -1.49820
       2     19.06    -2.00646 (  2.07%)    -1.34215 ( 97.93%)    -1.35589
       3     27.33    -1.79321 (  8.19%)    -1.23544 ( 91.81%)    -1.28114
       4     30.76    -1.72332 ( 12.52%)    -1.20044 ( 87.48%)    -1.26593
       5     38.73    -1.58712 ( 26.46%)    -1.13220 ( 73.54%)    -1.25258
       6     44.84    -1.50060 ( 39.27%)    -1.08880 ( 60.73%)    -1.25051
       7     50.04    -1.43579 ( 50.09%)    -1.05626 ( 49.91%)    -1.24635
       8     52.31    -1.40965 ( 54.51%)    -1.04312 ( 45.49%)    -1.24291
       9     55.41    -1.37574 ( 60.13%)    -1.02607 ( 39.87%)    -1.23634
      10     57.61    -1.35282 ( 63.80%)    -1.01454 ( 36.20%)    -1.23037
      11     71.15    -1.22874 ( 80.40%)    -0.95201 ( 19.60%)    -1.17449
      12     75.42    -1.19457 ( 83.81%)    -0.93475 ( 16.19%)    -1.15251
      13     77.36    -1.17969 ( 85.14%)    -0.92722 ( 14.86%)    -1.14218
      14     93.77    -1.06732 ( 92.52%)    -0.87024 (  7.48%)    -1.05258
      15    105.40    -0.99938 ( 95.18%)    -0.83562 (  4.82%)    -0.99148
      16    115.38    -0.94705 ( 96.59%)    -0.80883 (  3.41%)    -0.94234
      17    124.57    -0.90287 ( 97.47%)    -0.78612 (  2.53%)    -0.89991
      18    133.00    -0.86527 ( 98.04%)    -0.76671 (  1.96%)    -0.86334
      19    136.45    -0.85062 ( 98.23%)    -0.75912 (  1.77%)    -0.84900
      20    147.12    -0.80772 ( 98.68%)    -0.73682 (  1.32%)    -0.80679
      21    161.36    -0.75543 ( 99.09%)    -0.70945 (  0.91%)    -0.75501
      22    171.87    -0.72002 ( 99.29%)    -0.69077 (  0.71%)    -0.71981
      23    175.73    -0.70760 ( 99.35%)    -0.68418 (  0.65%)    -0.70744
      24    186.95    -0.67317 ( 99.49%)    -0.66585 (  0.51%)    -0.67314
      25    198.60    -0.63985 ( 99.60%)    -0.64795 (  0.40%)    -0.63988
      26    208.77    -0.61251 ( 99.67%)    -0.63314 (  0.33%)    -0.61257
      27    221.50    -0.58044 ( 99.74%)    -0.61562 (  0.26%)    -0.58053
      28    252.50    -0.51075 ( 99.85%)    -0.57681 (  0.15%)    -0.51085
      29    285.46    -0.44744 ( 99.91%)    -0.54046 (  0.09%)    -0.44753
      30    292.19    -0.43567 ( 99.91%)    -0.53357 (  0.09%)    -0.43576
   ------------------------------------------------------------------------

   temp. (K)  partition function   enthalpy   heat capacity  entropy
                                   cal/mol     cal/K/mol   cal/K/mol   J/K/mol
 298.15  VIB  0.641E+16            18881.577    103.906    122.890
         ROT  0.103E+08              888.752      2.981     35.072
         INT  0.661E+23            19770.330    106.887    157.962
         TR   0.618E+28             1481.254      4.968     43.384
         TOT                       21251.5836   111.8547   201.3468   842.4348

       T/K    H(0)-H(T)+PV         H(T)/Eh          T*S/Eh         G(T)/Eh
   ------------------------------------------------------------------------
    298.15    0.338666E-01    0.474133E+00    0.956663E-01    0.378466E+00
   ------------------------------------------------------------------------

         :::::::::::::::::::::::::::::::::::::::::::::::::::::
         ::                  THERMODYNAMIC                  ::
         :::::::::::::::::::::::::::::::::::::::::::::::::::::
         :: total free energy         -80.559738808736 Eh   ::
         ::.................................................::
         :: total energy              -80.938205131239 Eh   ::
         :: zero point energy           0.440266106604 Eh   ::
         :: G(RRHO) w/o ZPVE           -0.061799784101 Eh   ::
         :: G(RRHO) contrib.            0.378466322503 Eh   ::
         :::::::::::::::::::::::::::::::::::::::::::::::::::::

           -------------------------------------------------
          | TOTAL ENERGY              -80.938205131239 Eh   |
          | TOTAL ENTHALPY            -80.464072470434 Eh   |
          | TOTAL FREE ENERGY         -80.559738808736 Eh   |
          | GRADIENT NORM               0.000086190043 Eh/α |
          | HOMO-LUMO GAP               5.702017575186 eV   |
           -------------------------------------------------

------------------------------------------------------------------------
 * finished run on 2024/01/10 at 15:33:44.320     
------------------------------------------------------------------------
 total:
 * wall-time:     0 d,  0 h,  0 min, 15.156 sec
 *  cpu-time:     0 d,  0 h,  0 min, 15.014 sec
 * ratio c/w:     0.991 speedup
 SCF:
 * wall-time:     0 d,  0 h,  0 min,  0.087 sec
 *  cpu-time:     0 d,  0 h,  0 min,  0.059 sec
 * ratio c/w:     0.683 speedup
 analytical hessian:
 * wall-time:     0 d,  0 h,  0 min, 15.043 sec
 *  cpu-time:     0 d,  0 h,  0 min, 14.928 sec
 * ratio c/w:     0.992 speedup

