 Entering Gaussian System
 *********************************************
 Gaussian 98:
 frequency output generated by the xtb code
 *********************************************
                         Standard orientation:
 --------------------------------------------------------------------
  Center     Atomic     Atomic              Coordinates (Angstroms)
  Number     Number      Type              X           Y           Z
 --------------------------------------------------------------------
    1          8             0       -2.084204   -0.543143   -1.161734
    2          6             0       -0.933272   -1.200442   -1.619947
    3          1             0       -1.203173   -2.031726   -2.280531
    4          1             0       -0.368987   -0.463524   -2.201429
    5          6             0        0.040619   -1.662075   -0.524004
    6          1             0        0.358441   -0.789569    0.052525
    7          1             0        0.911072   -2.066680   -1.043356
    8          7             0       -0.429760   -2.686581    0.451014
    9          6             0        0.758252   -3.185408    1.168603
   10          1             0        1.250447   -2.338588    1.651721
   11          1             0        1.445663   -3.669880    0.478471
   12          1             0        0.458852   -3.902441    1.930090
   13          6             0       -1.109566   -3.807125   -0.217453
   14          1             0       -1.264279   -4.615654    0.494835
   15          1             0       -0.501061   -4.177964   -1.040205
   16          1             0       -2.083948   -3.493417   -0.589749
   17          6             0       -1.328929   -2.074583    1.445666
   18          1             0       -1.612672   -2.819172    2.186474
   19          1             0       -2.227868   -1.699520    0.966312
   20          1             0       -0.799391   -1.259607    1.938244
   21          1             0       -2.777162   -1.218197   -0.961830
   22          6             0        4.025686    3.272433   -0.687917
   23          8             0        3.679041    3.265690    0.497299
   24          7             0        5.067764    4.028354   -1.103347
   25          1             0        5.592584    4.536672   -0.414351
   26          1             0        5.412702    3.997491   -2.044885
   27          7             0        3.405377    2.518379   -1.612777
   28          1             0        3.620199    2.624538   -2.587608
   29          1             0        2.526289    2.054341   -1.359194
   30          6             0        1.968441    0.539141    2.168852
   31          8             0        1.140798   -0.370241    2.163268
   32          7             0        1.949361    1.518792    3.107630
   33          1             0        1.389007    1.380843    3.930121
   34          1             0        2.708488    2.175764    3.154612
   35          7             0        2.967317    0.628234    1.261296
   36          1             0        3.406428    1.536091    1.130302
   37          1             0        2.846323    0.097906    0.413325
   38          6             0       -4.987661   -2.225235   -1.309430
   39          8             0       -3.903755   -2.452963   -0.766814
   40          7             0       -5.195343   -1.108404   -2.035337
   41          1             0       -4.448450   -0.441888   -2.135921
   42          1             0       -6.074200   -0.913971   -2.478603
   43          7             0       -6.018262   -3.086713   -1.213720
   44          1             0       -6.913176   -2.904104   -1.629039
   45          1             0       -5.905340   -3.917727   -0.661145
   46          6             0        0.328428    2.046631   -0.005119
   47          8             0        0.985948    1.355961   -0.786949
   48          7             0        0.842556    3.136087    0.602736
   49          1             0        1.852861    3.269961    0.593771
   50          1             0        0.329579    3.592112    1.335630
   51          7             0       -0.957830    1.742253    0.290780
   52          1             0       -1.526255    2.388880    0.806741
   53          1             0       -1.426465    1.036529   -0.261335
 --------------------------------------------------------------------
     1 basis functions        1 primitive gaussians
     1 alpha electrons        1 beta electrons

 Harmonic frequencies (cm**-1), IR intensities (km*mol⁻¹),
 Raman scattering activities (A**4/amu), Raman depolarization ratios,
 reduced masses (AMU), force constants (mDyne/A) and normal coordinates:
                      1                      2                      3
                        a                      a                      a 
 Frequencies --    14.8603                19.0430                28.3893
 Red. masses --    11.9884                11.9511                12.0404
 Frc consts  --     0.0000                 0.0000                 0.0000
 IR Inten    --     0.4323                 1.3575                 0.5757
 Raman Activ --     0.0000                 0.0000                 0.0000
 Depolar     --     0.0000                 0.0000                 0.0000
 Atom AN      X      Y      Z        X      Y      Z        X      Y      Z
   1   8     0.04  -0.01  -0.17     0.14  -0.15  -0.25    -0.09   0.06  -0.10
   2   6     0.04  -0.01  -0.13     0.12  -0.22  -0.11    -0.09   0.01  -0.05
   3   1     0.01  -0.00  -0.04     0.03  -0.08  -0.01    -0.03  -0.01  -0.00
   4   1     0.01  -0.00  -0.04     0.05  -0.08  -0.04    -0.02  -0.01  -0.02
   5   6     0.03   0.01  -0.11     0.06  -0.16  -0.03    -0.09   0.05  -0.02
   6   1    -0.00   0.00  -0.03     0.02  -0.03  -0.03    -0.03   0.02  -0.01
   7   1     0.02   0.01  -0.03     0.02  -0.07   0.01    -0.03   0.01  -0.00
   8   7     0.05  -0.03  -0.15    -0.02  -0.05   0.05    -0.10   0.08   0.01
   9   6     0.06   0.01  -0.12    -0.07  -0.06   0.11    -0.10   0.10   0.03
  10   1     0.00   0.01  -0.03    -0.01  -0.02   0.01    -0.03   0.03   0.00
  11   1     0.03   0.02  -0.03    -0.03  -0.05   0.05    -0.03   0.02   0.01
  12   1     0.02  -0.01  -0.04    -0.04   0.01   0.05    -0.03   0.04   0.01
  13   6     0.11  -0.04  -0.17    -0.08  -0.06   0.13    -0.09   0.05   0.04
  14   1     0.04  -0.02  -0.05    -0.04   0.00   0.06    -0.03   0.02   0.02
  15   1     0.04   0.00  -0.05    -0.03  -0.05   0.05    -0.03   0.01   0.02
  16   1     0.03  -0.02  -0.05    -0.02  -0.01   0.03    -0.03   0.01   0.01
  17   6     0.00  -0.08  -0.14    -0.00   0.09  -0.02    -0.10   0.11  -0.02
  18   1     0.02  -0.03  -0.04    -0.02   0.05   0.01    -0.03   0.04   0.00
  19   1    -0.01  -0.05  -0.04     0.01   0.03  -0.02    -0.03   0.03  -0.01
  20   1    -0.02  -0.01  -0.04     0.01   0.03  -0.02    -0.03   0.04  -0.01
  21   1     0.02  -0.00  -0.03     0.03  -0.02  -0.04    -0.02   0.02  -0.01
  22   6     0.08  -0.04   0.11    -0.09   0.14   0.05     0.10   0.07   0.11
  23   8    -0.02   0.02   0.10    -0.10   0.08   0.06     0.12  -0.08   0.13
  24   7     0.12  -0.07   0.18    -0.17   0.27   0.08     0.12   0.10   0.21
  25   1     0.02  -0.01   0.05    -0.06   0.08   0.03     0.03   0.00   0.07
  26   1     0.05  -0.03   0.06    -0.04   0.09   0.02     0.03   0.06   0.05
  27   7     0.15  -0.08   0.11    -0.03   0.14   0.03     0.08   0.20   0.03
  28   1     0.06  -0.03   0.03    -0.01   0.05   0.01     0.02   0.08   0.01
  29   1     0.03  -0.01   0.01     0.00   0.01   0.00     0.02   0.04  -0.01
  30   6    -0.15   0.04   0.01     0.07  -0.03  -0.04     0.06  -0.02  -0.06
  31   8    -0.14   0.02  -0.05     0.10  -0.05  -0.06    -0.08   0.11  -0.05
  32   7    -0.30   0.08  -0.03     0.06  -0.05  -0.03     0.31  -0.09   0.01
  33   1    -0.10   0.02  -0.02     0.02  -0.02  -0.01     0.09  -0.01   0.01
  34   1    -0.09   0.03   0.01     0.01  -0.01  -0.01     0.10  -0.05  -0.01
  35   7    -0.07   0.04   0.12     0.07  -0.00  -0.04    -0.01  -0.11  -0.15
  36   1    -0.02   0.01   0.04     0.01   0.00  -0.01     0.03  -0.04  -0.03
  37   1     0.01  -0.00   0.03     0.02   0.00  -0.01    -0.05   0.00  -0.05
  38   6    -0.01   0.01   0.22    -0.00   0.15   0.04    -0.07  -0.16   0.03
  39   8     0.07   0.00   0.08    -0.02   0.08   0.05    -0.06   0.03   0.07
  40   7    -0.11   0.00   0.25     0.14   0.08  -0.12    -0.17  -0.34  -0.19
  41   1    -0.03  -0.00   0.03     0.06  -0.01  -0.06    -0.07  -0.07  -0.08
  42   1    -0.05   0.00   0.10     0.04   0.04  -0.03    -0.05  -0.13  -0.05
  43   7    -0.01   0.03   0.42    -0.14   0.34   0.22    -0.00  -0.25   0.20
  44   1    -0.02   0.01   0.14    -0.03   0.11   0.06    -0.00  -0.11   0.04
  45   1     0.02   0.01   0.11    -0.06   0.11   0.09     0.02  -0.04   0.09
  46   6     0.01   0.02  -0.12    -0.00  -0.13  -0.03     0.07   0.02  -0.06
  47   8     0.07  -0.01  -0.05     0.06  -0.10  -0.02     0.08   0.07  -0.10
  48   7    -0.03   0.05  -0.14    -0.08  -0.13   0.00     0.09  -0.05   0.05
  49   1    -0.01   0.01  -0.02    -0.02  -0.02   0.01     0.03  -0.02   0.02
  50   1    -0.02   0.02  -0.05    -0.04  -0.04  -0.00     0.02  -0.02   0.02
  51   7    -0.01   0.04  -0.21    -0.00  -0.21  -0.09     0.05   0.05  -0.13
  52   1    -0.01   0.02  -0.07    -0.02  -0.06  -0.04     0.02   0.01  -0.02
  53   1     0.01   0.00  -0.05     0.01  -0.05  -0.04     0.01   0.03  -0.05
                      4                      5                      6
                        a                      a                      a 
 Frequencies --    31.0525                35.8942                41.4614
 Red. masses --    12.0110                11.8689                12.4007
 Frc consts  --     0.0000                 0.0000                 0.0000
 IR Inten    --     2.4544                 3.0813                 0.6433
 Raman Activ --     0.0000                 0.0000                 0.0000
 Depolar     --     0.0000                 0.0000                 0.0000
 Atom AN      X      Y      Z        X      Y      Z        X      Y      Z
   1   8     0.05  -0.11  -0.06     0.08  -0.02   0.01    -0.10  -0.05   0.29
   2   6     0.07  -0.09  -0.01     0.14   0.04   0.09    -0.12  -0.03   0.15
   3   1     0.03  -0.03  -0.00     0.07   0.02   0.01    -0.05  -0.00   0.04
   4   1     0.02  -0.03   0.00     0.05   0.03   0.05    -0.04  -0.01   0.04
   5   6     0.03  -0.06   0.04     0.04   0.03   0.16    -0.07  -0.09   0.08
   6   1     0.01  -0.01   0.01    -0.02   0.00   0.08    -0.01  -0.03   0.03
   7   1     0.01  -0.03   0.02     0.04   0.04   0.07    -0.03  -0.02   0.00
   8   7    -0.03  -0.01   0.08     0.02  -0.07   0.05    -0.02  -0.14   0.07
   9   6    -0.06   0.00   0.14    -0.01  -0.02   0.13     0.02  -0.17  -0.03
  10   1    -0.02   0.00   0.03    -0.03  -0.00   0.06     0.02  -0.06  -0.01
  11   1    -0.01  -0.02   0.05     0.02   0.02   0.05    -0.01  -0.05  -0.03
  12   1    -0.03   0.01   0.05    -0.01  -0.02   0.02     0.02  -0.05  -0.01
  13   6    -0.02  -0.02   0.09     0.16  -0.07  -0.09    -0.08  -0.09   0.06
  14   1    -0.02   0.00   0.04     0.05  -0.04  -0.04    -0.01  -0.03   0.01
  15   1     0.00  -0.02   0.04     0.08   0.01  -0.02    -0.04  -0.02   0.00
  16   1     0.00  -0.01   0.01     0.05  -0.03  -0.04    -0.03  -0.02   0.04
  17   6    -0.05   0.06   0.01    -0.12  -0.19   0.01     0.04  -0.16   0.14
  18   1    -0.04   0.03   0.00    -0.02  -0.07  -0.01     0.02  -0.05   0.04
  19   1     0.00   0.03  -0.02    -0.04  -0.09  -0.01     0.01  -0.04   0.06
  20   1    -0.01   0.02   0.00    -0.07  -0.04   0.02     0.02  -0.05   0.04
  21   1     0.00  -0.03  -0.04     0.03  -0.02   0.00    -0.02  -0.01   0.08
  22   6     0.03   0.07   0.04    -0.03  -0.02  -0.03     0.07   0.09   0.10
  23   8     0.02   0.01   0.04    -0.00  -0.17  -0.03     0.04   0.03   0.11
  24   7     0.01   0.13   0.09     0.04  -0.08   0.05     0.09   0.12   0.20
  25   1    -0.00   0.03   0.03     0.02  -0.05   0.03     0.02   0.02   0.07
  26   1     0.01   0.05   0.02    -0.00   0.01   0.01     0.03   0.05   0.05
  27   7     0.06   0.11  -0.00    -0.13   0.18  -0.13     0.10   0.16   0.05
  28   1     0.02   0.04   0.00    -0.03   0.07  -0.03     0.04   0.06   0.02
  29   1     0.02   0.02  -0.01    -0.04   0.05  -0.04     0.03   0.04  -0.00
  30   6     0.03   0.01  -0.03    -0.12  -0.04  -0.02    -0.02  -0.04  -0.18
  31   8    -0.01   0.05  -0.00    -0.29   0.09   0.06     0.08  -0.14  -0.17
  32   7     0.10   0.01  -0.02     0.20  -0.12   0.06    -0.19   0.05  -0.30
  33   1     0.03   0.01  -0.00     0.08  -0.02   0.04    -0.06   0.02  -0.08
  34   1     0.03  -0.00  -0.02     0.07  -0.05  -0.01    -0.07   0.03  -0.09
  35   7     0.01  -0.02  -0.06    -0.28  -0.12  -0.20     0.04  -0.04  -0.13
  36   1     0.01  -0.01  -0.01    -0.04  -0.05  -0.05    -0.00  -0.00  -0.04
  37   1    -0.01  -0.00  -0.02    -0.15   0.00  -0.07     0.05  -0.04  -0.02
  38   6    -0.08  -0.00  -0.02     0.13   0.06   0.04    -0.01   0.00   0.01
  39   8     0.00  -0.11  -0.26     0.14  -0.06   0.01    -0.11  -0.05   0.19
  40   7    -0.32   0.30   0.51     0.23   0.10   0.06     0.15   0.01  -0.02
  41   1    -0.10   0.09   0.15     0.08   0.01   0.02     0.05  -0.00   0.03
  42   1    -0.10   0.08   0.16     0.06   0.05   0.02     0.06   0.02  -0.03
  43   7     0.03  -0.17  -0.27     0.05   0.17   0.06    -0.06   0.04  -0.15
  44   1    -0.02  -0.02  -0.01     0.02   0.07   0.02     0.00   0.02  -0.07
  45   1     0.05  -0.10  -0.16    -0.00   0.04   0.01    -0.05   0.01  -0.03
  46   6     0.04  -0.04  -0.08    -0.07   0.07  -0.07     0.04   0.10  -0.11
  47   8     0.08  -0.02  -0.08    -0.12   0.14  -0.18     0.05   0.10  -0.10
  48   7     0.01  -0.04  -0.05    -0.02  -0.00   0.01     0.02   0.16  -0.17
  49   1     0.00  -0.01  -0.00    -0.00  -0.01  -0.00     0.01   0.03  -0.03
  50   1    -0.00  -0.02  -0.01     0.00  -0.01   0.02     0.00   0.04  -0.05
  51   7     0.04  -0.05  -0.13    -0.07   0.09  -0.08     0.04   0.12  -0.10
  52   1     0.01  -0.02  -0.03    -0.01   0.00   0.01     0.01   0.03  -0.03
  53   1     0.02  -0.02  -0.04    -0.02   0.02  -0.02     0.01   0.01  -0.00
                      7                      8                      9
                        a                      a                      a 
 Frequencies --    53.8910                57.0011                57.6227
 Red. masses --    12.3469                12.0892                12.4506
 Frc consts  --     0.0000                 0.0000                 0.0000
 IR Inten    --     6.4078                 6.0592                 1.2603
 Raman Activ --     0.0000                 0.0000                 0.0000
 Depolar     --     0.0000                 0.0000                 0.0000
 Atom AN      X      Y      Z        X      Y      Z        X      Y      Z
   1   8     0.06   0.09  -0.08     0.14   0.15   0.02     0.14  -0.02   0.03
   2   6     0.04   0.04  -0.04     0.12   0.08   0.07     0.18   0.05   0.06
   3   1     0.01   0.01  -0.00     0.03   0.04   0.00     0.07   0.03  -0.01
   4   1     0.02   0.00  -0.02     0.06   0.02   0.05     0.06   0.03   0.05
   5   6     0.02   0.05  -0.02     0.01  -0.03   0.12     0.11  -0.01   0.10
   6   1     0.00   0.02  -0.01     0.00  -0.03   0.06     0.03  -0.01   0.04
   7   1     0.01   0.01  -0.00     0.01  -0.01   0.05     0.03  -0.01   0.04
   8   7     0.02   0.06  -0.01    -0.11  -0.08   0.02     0.01  -0.01   0.05
   9   6     0.01   0.09   0.02    -0.17  -0.15   0.08    -0.06  -0.09   0.10
  10   1    -0.01   0.03   0.01    -0.05  -0.06   0.04    -0.01  -0.04   0.04
  11   1     0.01   0.03   0.01    -0.04  -0.04   0.03    -0.02  -0.04   0.04
  12   1     0.00   0.02   0.00    -0.07  -0.05   0.01    -0.04  -0.02   0.03
  13   6     0.04   0.04  -0.00    -0.08  -0.02  -0.10    -0.01   0.04  -0.02
  14   1     0.01   0.01   0.00    -0.04  -0.02  -0.05    -0.03   0.01  -0.01
  15   1     0.02   0.01   0.00    -0.01   0.01  -0.02     0.01   0.01   0.00
  16   1     0.01   0.01  -0.01    -0.01   0.01  -0.05     0.01   0.03  -0.02
  17   6    -0.01   0.06  -0.03    -0.16  -0.11  -0.02    -0.01   0.02   0.00
  18   1     0.00   0.02  -0.00    -0.06  -0.04  -0.02    -0.04   0.00  -0.02
  19   1    -0.01   0.00  -0.01    -0.04  -0.03  -0.02     0.02   0.04  -0.02
  20   1    -0.01   0.03  -0.02    -0.06  -0.03   0.01     0.01  -0.02   0.03
  21   1     0.02   0.03  -0.00     0.02   0.05  -0.01     0.02  -0.01  -0.06
  22   6    -0.09  -0.12   0.09     0.01   0.07  -0.11     0.01  -0.01  -0.00
  23   8     0.00  -0.29   0.14     0.18  -0.10  -0.08    -0.02  -0.02  -0.01
  24   7    -0.27   0.07   0.05    -0.24   0.38  -0.21     0.19  -0.21   0.08
  25   1    -0.06   0.01   0.01    -0.05   0.09  -0.06     0.05  -0.07   0.03
  26   1    -0.08   0.03   0.01    -0.07   0.10  -0.06     0.03  -0.03   0.01
  27   7    -0.07  -0.17   0.10     0.06  -0.00  -0.10    -0.12   0.17  -0.06
  28   1    -0.06  -0.01   0.02    -0.03   0.05  -0.03    -0.01   0.03  -0.01
  29   1    -0.01  -0.06   0.04     0.03  -0.02  -0.01    -0.04   0.05  -0.02
  30   6     0.03  -0.02  -0.13    -0.10  -0.07   0.04     0.02  -0.00  -0.09
  31   8    -0.05   0.06   0.05    -0.07  -0.13  -0.01     0.13  -0.11   0.02
  32   7     0.06   0.24  -0.41    -0.24  -0.07   0.04    -0.14   0.16  -0.27
  33   1    -0.00   0.15  -0.11    -0.07  -0.03   0.00    -0.03   0.05  -0.07
  34   1     0.02   0.06  -0.16    -0.06  -0.02   0.04    -0.05   0.06  -0.09
  35   7     0.12  -0.35  -0.08    -0.05  -0.03   0.12     0.04  -0.02  -0.07
  36   1     0.05  -0.11  -0.06    -0.01  -0.01   0.03    -0.01   0.00  -0.04
  37   1     0.04  -0.15   0.01     0.01  -0.02   0.04     0.05  -0.05   0.00
  38   6     0.08   0.03   0.03     0.03   0.01   0.01    -0.07  -0.04  -0.09
  39   8     0.09   0.10   0.07     0.08   0.17  -0.01     0.05  -0.05  -0.39
  40   7     0.04   0.03   0.05    -0.11  -0.05  -0.04    -0.22  -0.08  -0.13
  41   1     0.00   0.02   0.01    -0.05   0.01  -0.02    -0.06  -0.02  -0.08
  42   1     0.02  -0.01  -0.00    -0.04  -0.05  -0.01    -0.09  -0.01   0.04
  43   7     0.15  -0.05  -0.03     0.14  -0.11   0.08    -0.11   0.03   0.26
  44   1     0.04  -0.02  -0.00     0.03  -0.06   0.03    -0.04  -0.01   0.10
  45   1     0.05  -0.01  -0.00     0.06  -0.02   0.04     0.01   0.00   0.05
  46   6    -0.06  -0.00   0.07     0.14   0.02   0.02    -0.02   0.05   0.09
  47   8    -0.06  -0.10   0.18     0.13  -0.01   0.02    -0.07   0.14  -0.01
  48   7    -0.05   0.02   0.03     0.19   0.03  -0.01    -0.05   0.09   0.05
  49   1    -0.01  -0.03   0.03     0.05  -0.00  -0.00    -0.02   0.03  -0.01
  50   1    -0.02   0.02  -0.00     0.06   0.01  -0.00     0.00  -0.00   0.04
  51   7    -0.11   0.10  -0.01     0.15   0.07   0.04     0.04  -0.10   0.27
  52   1    -0.03   0.04  -0.03     0.05   0.03   0.01     0.01  -0.03   0.08
  53   1    -0.02   0.02  -0.00     0.03   0.02   0.01     0.01  -0.02   0.06
                     10                     11                     12
                        a                      a                      a 
 Frequencies --    60.1865                62.4971                74.5994
 Red. masses --    12.9027                12.7000                12.9993
 Frc consts  --     0.0000                 0.0000                 0.0000
 IR Inten    --     3.7837                 3.0039                10.9393
 Raman Activ --     0.0000                 0.0000                 0.0000
 Depolar     --     0.0000                 0.0000                 0.0000
 Atom AN      X      Y      Z        X      Y      Z        X      Y      Z
   1   8     0.05   0.08  -0.16     0.19   0.09  -0.12    -0.01  -0.01  -0.03
   2   6    -0.02  -0.07  -0.10     0.15  -0.01  -0.02    -0.02  -0.01  -0.04
   3   1    -0.03  -0.03  -0.01     0.04  -0.00  -0.01    -0.01  -0.01  -0.00
   4   1     0.01  -0.04  -0.05     0.06  -0.01   0.00    -0.01  -0.01  -0.02
   5   6    -0.04  -0.06  -0.08     0.06  -0.05   0.04     0.02   0.03  -0.05
   6   1    -0.00  -0.01  -0.03     0.02  -0.02   0.01     0.01   0.02  -0.03
   7   1    -0.02  -0.04  -0.02     0.02  -0.03   0.03     0.00   0.01  -0.02
   8   7    -0.08   0.00  -0.03    -0.05  -0.02   0.03     0.06   0.05  -0.02
   9   6    -0.08   0.02   0.01    -0.10  -0.15   0.04     0.08   0.00  -0.09
  10   1    -0.03   0.01  -0.00    -0.00  -0.06   0.01     0.04  -0.01  -0.02
  11   1    -0.02  -0.00   0.01    -0.05  -0.07   0.01     0.01   0.00  -0.04
  12   1    -0.03   0.02   0.01    -0.05  -0.03   0.01     0.03  -0.00  -0.03
  13   6    -0.08  -0.02   0.03    -0.14   0.05   0.02    -0.02   0.07   0.03
  14   1    -0.03   0.00   0.02    -0.06   0.02   0.00     0.00   0.02   0.01
  15   1    -0.03  -0.02   0.01    -0.05  -0.00   0.01    -0.03   0.02  -0.00
  16   1    -0.02  -0.01   0.01    -0.03   0.04   0.01    -0.01   0.03   0.03
  17   6    -0.07   0.06  -0.06     0.01   0.07   0.02     0.14   0.08   0.04
  18   1     0.00   0.03   0.01    -0.03   0.03  -0.00     0.02   0.02  -0.00
  19   1    -0.04  -0.02  -0.02     0.02   0.05   0.00     0.05   0.06   0.02
  20   1    -0.03   0.04  -0.05     0.03  -0.00   0.01     0.07  -0.00   0.02
  21   1     0.01   0.04   0.02     0.04   0.04  -0.01    -0.00  -0.00   0.00
  22   6     0.02   0.02  -0.03    -0.06  -0.03   0.02    -0.05   0.01  -0.06
  23   8    -0.00   0.01  -0.04    -0.18   0.16  -0.01     0.05  -0.26  -0.03
  24   7     0.20  -0.18   0.05     0.05  -0.18   0.03     0.05  -0.07   0.06
  25   1     0.06  -0.06   0.02     0.00  -0.03   0.00     0.04  -0.07   0.04
  26   1     0.03  -0.01   0.01     0.03  -0.08   0.01    -0.03   0.07  -0.00
  27   7    -0.12   0.23  -0.09    -0.04  -0.10   0.07    -0.29   0.41  -0.21
  28   1    -0.01   0.05  -0.02     0.02  -0.07   0.02    -0.08   0.13  -0.05
  29   1    -0.03   0.06  -0.03    -0.02  -0.00   0.02    -0.05   0.06  -0.05
  30   6    -0.09   0.06  -0.08     0.09  -0.13  -0.02     0.01  -0.08   0.21
  31   8    -0.10   0.07  -0.15     0.22  -0.25  -0.01     0.12  -0.19   0.39
  32   7    -0.17   0.07  -0.09     0.08  -0.22   0.07    -0.12   0.07   0.07
  33   1    -0.06   0.01  -0.03     0.04  -0.09   0.03    -0.02   0.02   0.03
  34   1    -0.04   0.01  -0.00    -0.00  -0.03   0.01    -0.04   0.03   0.00
  35   7    -0.03   0.05  -0.01    -0.00   0.07  -0.11    -0.01  -0.11   0.21
  36   1    -0.00   0.01   0.00    -0.03   0.03  -0.02    -0.02  -0.03   0.02
  37   1     0.01   0.01  -0.00    -0.01   0.03  -0.04     0.02  -0.07   0.08
  38   6     0.11   0.04   0.10     0.07   0.03   0.05    -0.02   0.02   0.01
  39   8     0.04   0.21   0.36     0.08   0.24   0.14    -0.05   0.06   0.07
  40   7     0.09   0.04   0.12    -0.07  -0.00   0.03    -0.02   0.01  -0.01
  41   1     0.01   0.03   0.05    -0.04   0.02   0.00    -0.01   0.01   0.00
  42   1     0.05  -0.03  -0.04    -0.01  -0.05  -0.02    -0.00  -0.01  -0.02
  43   7     0.25  -0.14  -0.17     0.22  -0.15  -0.03    -0.00  -0.02  -0.05
  44   1     0.07  -0.05  -0.06     0.05  -0.07   0.00     0.00  -0.01  -0.02
  45   1     0.06  -0.02  -0.01     0.08  -0.02   0.02    -0.00   0.00  -0.00
  46   6     0.02  -0.10   0.09    -0.13   0.15  -0.05     0.02  -0.03  -0.10
  47   8    -0.01   0.03  -0.06    -0.10   0.09   0.05     0.04  -0.13  -0.01
  48   7    -0.01  -0.09   0.10    -0.16   0.17  -0.07     0.04  -0.03  -0.13
  49   1    -0.00  -0.00  -0.00    -0.04   0.04  -0.01     0.02  -0.03  -0.01
  50   1     0.02  -0.06   0.06    -0.06   0.07  -0.04     0.01   0.01  -0.05
  51   7     0.11  -0.29   0.28    -0.18   0.21  -0.16    -0.03   0.09  -0.21
  52   1     0.03  -0.09   0.09    -0.06   0.07  -0.08    -0.01   0.04  -0.08
  53   1     0.02  -0.05   0.05    -0.03   0.04  -0.04    -0.01   0.02  -0.05
                     13                     14                     15
                        a                      a                      a 
 Frequencies --    84.0066               100.4138               103.7878
 Red. masses --    13.0123                11.3924                12.8708
 Frc consts  --     0.0000                 0.0000                 0.0000
 IR Inten    --     3.2150                 2.4790                 6.0094
 Raman Activ --     0.0000                 0.0000                 0.0000
 Depolar     --     0.0000                 0.0000                 0.0000
 Atom AN      X      Y      Z        X      Y      Z        X      Y      Z
   1   8    -0.05   0.02  -0.03    -0.16  -0.01  -0.08     0.01   0.13   0.11
   2   6     0.03   0.12   0.02     0.05   0.22   0.06    -0.04   0.05   0.06
   3   1     0.04   0.04  -0.01     0.08   0.08  -0.03    -0.03   0.02   0.02
   4   1     0.00   0.05   0.02     0.01   0.11   0.08    -0.00   0.01   0.02
   5   6     0.00   0.14   0.05    -0.09   0.19   0.16    -0.03  -0.01   0.03
   6   1    -0.02   0.04   0.03    -0.05   0.04   0.08    -0.01  -0.01   0.02
   7   1     0.01   0.06   0.02     0.00   0.08   0.07    -0.01   0.01  -0.00
   8   7     0.01   0.09  -0.01    -0.17   0.07  -0.01    -0.02  -0.07  -0.02
   9   6     0.01   0.01  -0.06    -0.22   0.01   0.06    -0.01   0.02   0.02
  10   1     0.01  -0.01   0.00    -0.06  -0.01   0.03    -0.03   0.01   0.02
  11   1    -0.00   0.01  -0.03    -0.05   0.01   0.02     0.02   0.03   0.01
  12   1     0.00  -0.01  -0.03    -0.08  -0.00   0.00     0.01  -0.01  -0.01
  13   6    -0.01   0.13  -0.07    -0.04   0.12  -0.21     0.09  -0.08  -0.09
  14   1     0.00   0.02  -0.04    -0.01   0.00  -0.10     0.03  -0.03  -0.04
  15   1    -0.01   0.06  -0.03     0.01   0.08  -0.06     0.04  -0.01  -0.02
  16   1    -0.01   0.05  -0.00    -0.01   0.03  -0.07     0.03  -0.03  -0.04
  17   6     0.04   0.03   0.05    -0.26  -0.06  -0.02    -0.10  -0.16  -0.04
  18   1    -0.01  -0.01  -0.01    -0.09  -0.04  -0.04     0.01  -0.05  -0.00
  19   1     0.02   0.05   0.02    -0.06  -0.00  -0.02    -0.05  -0.09  -0.01
  20   1     0.03  -0.02   0.05    -0.09  -0.03   0.03    -0.07  -0.02  -0.02
  21   1    -0.00  -0.01  -0.00     0.00  -0.04  -0.02    -0.01   0.04   0.02
  22   6     0.02  -0.02   0.02    -0.03   0.04  -0.00    -0.07   0.06   0.03
  23   8    -0.15  -0.01  -0.03    -0.07   0.12  -0.01    -0.15   0.13   0.01
  24   7    -0.07   0.15   0.11     0.06  -0.07   0.01     0.03  -0.06   0.08
  25   1    -0.05   0.05   0.05     0.00  -0.00  -0.00    -0.01   0.00   0.02
  26   1     0.04   0.01   0.05     0.00  -0.01  -0.00     0.00  -0.00   0.02
  27   7     0.28  -0.21  -0.01    -0.06   0.06   0.01    -0.10   0.11   0.02
  28   1     0.09  -0.04   0.00     0.00  -0.01   0.00     0.00  -0.01   0.01
  29   1     0.05  -0.03  -0.04    -0.01   0.01   0.00    -0.01  -0.00   0.01
  30   6    -0.01  -0.05   0.09     0.17   0.01   0.01     0.05   0.02   0.02
  31   8     0.12  -0.17   0.39     0.24  -0.03  -0.06    -0.04   0.11   0.03
  32   7     0.04   0.08  -0.04     0.00   0.05  -0.04     0.22  -0.02   0.05
  33   1     0.07   0.02   0.03    -0.03   0.02  -0.03     0.05   0.02   0.01
  34   1    -0.00   0.04  -0.07    -0.01   0.03   0.01     0.06  -0.01  -0.01
  35   7    -0.20  -0.03  -0.12     0.30   0.03   0.14     0.03  -0.04  -0.02
  36   1    -0.07  -0.00  -0.06     0.06   0.02   0.04     0.01  -0.01  -0.00
  37   1    -0.06  -0.04  -0.01     0.12  -0.01   0.04    -0.03   0.02  -0.02
  38   6    -0.01   0.02   0.03     0.08  -0.08   0.05    -0.02   0.06  -0.02
  39   8    -0.05   0.07   0.12     0.06  -0.23   0.06    -0.00   0.15  -0.03
  40   7    -0.00  -0.00  -0.01     0.21  -0.03   0.11    -0.10   0.02  -0.07
  41   1    -0.01   0.01   0.01     0.07  -0.02   0.05    -0.04   0.02  -0.02
  42   1     0.01  -0.01  -0.02     0.06   0.03   0.03    -0.03  -0.01  -0.01
  43   7     0.02  -0.03  -0.04    -0.00   0.01   0.01     0.03   0.00   0.01
  44   1     0.01  -0.01  -0.02     0.01   0.03  -0.01     0.01  -0.02   0.00
  45   1    -0.00   0.00   0.00    -0.02  -0.01  -0.02     0.02   0.01   0.01
  46   6    -0.01  -0.07  -0.12    -0.01  -0.10  -0.06     0.05  -0.11  -0.02
  47   8    -0.05   0.10  -0.33     0.01  -0.12  -0.05     0.14  -0.36   0.24
  48   7    -0.09  -0.03  -0.15     0.00  -0.17   0.02    -0.07   0.21  -0.49
  49   1    -0.03   0.02  -0.06     0.00  -0.04   0.01    -0.02   0.05  -0.10
  50   1    -0.01  -0.06   0.00    -0.01  -0.04  -0.01    -0.04   0.11  -0.17
  51   7     0.11  -0.34   0.15    -0.05  -0.05  -0.15     0.11  -0.17   0.14
  52   1     0.03  -0.11   0.07    -0.01  -0.01  -0.04     0.02   0.00  -0.04
  53   1     0.01  -0.06   0.02    -0.02   0.00  -0.05     0.03  -0.08   0.08
                     16                     17                     18
                        a                      a                      a 
 Frequencies --   108.8502               116.1287               126.8954
 Red. masses --    12.5153                12.6080                12.9067
 Frc consts  --     0.0000                 0.0000                 0.0000
 IR Inten    --     7.3271                 9.5244                17.6793
 Raman Activ --     0.0000                 0.0000                 0.0000
 Depolar     --     0.0000                 0.0000                 0.0000
 Atom AN      X      Y      Z        X      Y      Z        X      Y      Z
   1   8     0.11   0.00   0.08    -0.01   0.14   0.21     0.04  -0.23  -0.16
   2   6     0.16   0.08   0.13    -0.01   0.16   0.09     0.20   0.01  -0.04
   3   1     0.08   0.03   0.01    -0.01   0.06   0.01     0.12   0.01  -0.04
   4   1     0.05   0.04   0.06    -0.01   0.06   0.03     0.04   0.04   0.02
   5   6     0.12   0.07   0.16     0.03   0.08   0.01     0.14   0.09   0.05
   6   1     0.01   0.01   0.07     0.04   0.02  -0.00     0.01   0.03   0.02
   7   1     0.05   0.05   0.05    -0.01   0.00  -0.02     0.06   0.03   0.04
   8   7     0.14  -0.04   0.05     0.03   0.15   0.07     0.07   0.09   0.00
   9   6     0.14  -0.08   0.01     0.05   0.03  -0.04     0.00   0.03   0.06
  10   1     0.04  -0.03   0.02     0.05  -0.00  -0.03     0.01   0.00   0.02
  11   1     0.04  -0.01  -0.01    -0.02  -0.01  -0.03     0.00  -0.00   0.03
  12   1     0.04  -0.04  -0.01     0.01   0.02  -0.00    -0.02   0.02   0.02
  13   6     0.14   0.04  -0.08    -0.11   0.17   0.14     0.07   0.12  -0.06
  14   1     0.05  -0.02  -0.05    -0.04   0.06   0.05     0.02   0.02  -0.03
  15   1     0.04   0.04  -0.04    -0.05   0.02   0.04     0.02   0.05  -0.02
  16   1     0.04   0.02  -0.01    -0.03   0.07   0.05     0.02   0.04  -0.01
  17   6     0.10  -0.16   0.10     0.16   0.23   0.12     0.02   0.09  -0.04
  18   1     0.03  -0.07   0.00     0.04   0.07   0.04    -0.01   0.02  -0.02
  19   1     0.03  -0.03   0.03     0.05   0.10   0.05     0.02   0.04  -0.02
  20   1     0.02  -0.06   0.05     0.08   0.05   0.02     0.01   0.02   0.00
  21   1     0.02   0.01   0.00     0.00   0.02   0.03     0.03  -0.08  -0.04
  22   6    -0.04  -0.01   0.03    -0.08  -0.06   0.05    -0.01  -0.07  -0.03
  23   8    -0.02   0.04   0.04    -0.06  -0.15   0.07    -0.02  -0.23  -0.05
  24   7    -0.01  -0.07   0.00    -0.11  -0.02   0.10    -0.05   0.04   0.05
  25   1    -0.01  -0.00  -0.01    -0.03  -0.01   0.03    -0.01  -0.02   0.04
  26   1    -0.02  -0.01  -0.01    -0.04   0.02   0.02     0.00   0.03   0.02
  27   7    -0.07  -0.01   0.06    -0.09  -0.02   0.02     0.04  -0.02  -0.12
  28   1    -0.01  -0.02   0.02    -0.02   0.01   0.01    -0.00   0.04  -0.03
  29   1    -0.02  -0.01   0.01    -0.02  -0.02  -0.00     0.01  -0.00  -0.04
  30   6     0.01   0.09  -0.05    -0.07  -0.06  -0.08     0.01  -0.05  -0.01
  31   8    -0.05   0.16  -0.16    -0.15   0.00  -0.35    -0.11   0.05  -0.23
  32   7    -0.00   0.06  -0.01    -0.12  -0.23   0.08    -0.00  -0.16   0.09
  33   1    -0.03   0.02  -0.02    -0.07  -0.09  -0.01    -0.05  -0.04  -0.01
  34   1     0.00   0.01   0.01    -0.03  -0.07   0.08     0.01  -0.06   0.07
  35   7     0.09   0.06   0.04     0.03  -0.01   0.04     0.16  -0.11   0.14
  36   1     0.04   0.01   0.02     0.02  -0.00   0.04     0.04  -0.03   0.04
  37   1     0.03   0.03   0.00     0.02   0.03  -0.01     0.06  -0.02   0.03
  38   6    -0.17   0.10  -0.01     0.12  -0.01  -0.03    -0.14  -0.06   0.06
  39   8    -0.23   0.33   0.15     0.21  -0.05  -0.19    -0.25  -0.10   0.24
  40   7    -0.27   0.01  -0.14     0.07   0.01   0.02     0.00  -0.06   0.03
  41   1    -0.09   0.03  -0.03     0.01   0.01  -0.00     0.01  -0.03   0.03
  42   1    -0.06  -0.05  -0.08    -0.00   0.02   0.05     0.02  -0.01  -0.04
  43   7    -0.06  -0.05  -0.10     0.12   0.03   0.13    -0.20  -0.04  -0.14
  44   1    -0.02  -0.04  -0.04     0.03  -0.01   0.04    -0.04   0.02  -0.05
  45   1    -0.01   0.02   0.02     0.06  -0.01  -0.00    -0.10   0.00  -0.01
  46   6    -0.03  -0.13  -0.07    -0.01  -0.10  -0.12    -0.00   0.13   0.04
  47   8    -0.04  -0.09  -0.15    -0.06  -0.12  -0.19     0.03   0.15   0.08
  48   7     0.02  -0.29   0.13     0.01  -0.08  -0.21    -0.10   0.31  -0.15
  49   1     0.00  -0.07   0.03     0.00  -0.03  -0.04    -0.02   0.07  -0.03
  50   1     0.00  -0.09   0.04     0.01  -0.02  -0.05    -0.02   0.07  -0.03
  51   7    -0.07  -0.06  -0.21     0.03  -0.12  -0.00     0.06  -0.02   0.18
  52   1    -0.01  -0.04  -0.01     0.02  -0.03   0.02    -0.00   0.00   0.02
  53   1    -0.02  -0.01  -0.06    -0.01  -0.04   0.02     0.03  -0.01   0.05
                     19                     20                     21
                        a                      a                      a 
 Frequencies --   130.2137               141.4552               148.2992
 Red. masses --    12.2675                12.4066                12.2617
 Frc consts  --     0.0000                 0.0000                 0.0000
 IR Inten    --    13.6461                 4.6591                 6.4757
 Raman Activ --     0.0000                 0.0000                 0.0000
 Depolar     --     0.0000                 0.0000                 0.0000
 Atom AN      X      Y      Z        X      Y      Z        X      Y      Z
   1   8    -0.02   0.11   0.04    -0.09   0.10  -0.05    -0.05   0.01  -0.12
   2   6    -0.15  -0.10  -0.00    -0.10  -0.01   0.04    -0.02  -0.02  -0.02
   3   1    -0.09  -0.04   0.04    -0.04  -0.03   0.05     0.00  -0.03   0.02
   4   1    -0.03  -0.07  -0.04    -0.03  -0.03  -0.03    -0.01  -0.02  -0.02
   5   6    -0.09  -0.09  -0.04    -0.08   0.13   0.08    -0.02   0.11   0.03
   6   1    -0.02  -0.02  -0.02    -0.05   0.05   0.02    -0.03   0.04   0.00
   7   1    -0.03  -0.03  -0.02    -0.01   0.07   0.03     0.01   0.05   0.02
   8   7    -0.02  -0.09   0.01     0.06   0.09   0.10     0.06   0.11   0.06
   9   6     0.02   0.11   0.08     0.12   0.22   0.09     0.06   0.27   0.17
  10   1    -0.03   0.06   0.02     0.01   0.08   0.02    -0.02   0.10   0.05
  11   1     0.03   0.05   0.04     0.05   0.09   0.02     0.05   0.09   0.07
  12   1     0.02   0.03   0.03     0.06   0.06   0.03     0.03   0.08   0.05
  13   6     0.13  -0.20   0.06     0.20  -0.01   0.11     0.26  -0.02   0.06
  14   1     0.04  -0.04   0.03     0.08  -0.00   0.04     0.09  -0.00   0.02
  15   1     0.06  -0.06   0.04     0.07   0.01   0.04     0.11   0.01   0.03
  16   1     0.04  -0.09  -0.01     0.05  -0.04   0.02     0.07  -0.05  -0.01
  17   6    -0.13  -0.13  -0.06    -0.04  -0.03   0.08    -0.11   0.02  -0.05
  18   1     0.02  -0.02   0.02     0.02  -0.02   0.03    -0.01   0.01  -0.00
  19   1    -0.07  -0.12  -0.03    -0.03  -0.05   0.02    -0.04  -0.05  -0.04
  20   1    -0.08   0.02  -0.05    -0.05   0.01   0.02    -0.08   0.04  -0.02
  21   1    -0.03   0.06   0.02    -0.03   0.03   0.01    -0.01   0.00  -0.02
  22   6    -0.05  -0.07   0.01    -0.03   0.03  -0.12     0.08   0.00   0.09
  23   8    -0.07  -0.17   0.01    -0.32   0.06  -0.22     0.35  -0.01   0.18
  24   7    -0.09   0.00   0.08     0.07   0.01   0.10    -0.01   0.01  -0.14
  25   1    -0.03  -0.01   0.04    -0.03   0.01   0.06     0.05  -0.01  -0.07
  26   1    -0.01   0.02   0.03     0.08   0.00   0.05    -0.06  -0.00  -0.06
  27   7     0.00  -0.06  -0.05     0.16  -0.00  -0.23    -0.12   0.03   0.21
  28   1    -0.01   0.02  -0.01     0.08  -0.01  -0.05    -0.07   0.01   0.05
  29   1    -0.02   0.00  -0.03     0.04   0.00  -0.08    -0.02  -0.00   0.08
  30   6     0.16   0.01   0.10    -0.04  -0.16  -0.07     0.00  -0.10  -0.07
  31   8     0.16   0.03  -0.03    -0.01  -0.21  -0.09     0.19  -0.29  -0.04
  32   7     0.05   0.01   0.10    -0.14  -0.18  -0.08    -0.17  -0.14  -0.04
  33   1    -0.03   0.01   0.00    -0.07  -0.05  -0.04    -0.00  -0.11   0.01
  34   1     0.01  -0.00   0.06    -0.06  -0.02  -0.02    -0.06  -0.02   0.00
  35   7     0.33  -0.02   0.27     0.00  -0.16  -0.02    -0.13   0.15  -0.17
  36   1     0.07   0.00   0.06    -0.02  -0.03  -0.02    -0.04   0.05  -0.02
  37   1     0.13  -0.03   0.08     0.01  -0.04  -0.01    -0.01   0.03  -0.04
  38   6     0.02   0.06  -0.04     0.00   0.04  -0.03    -0.04   0.01   0.00
  39   8     0.06   0.13  -0.08     0.02   0.08  -0.06    -0.07   0.02   0.04
  40   7    -0.07   0.04  -0.05    -0.06   0.03  -0.03    -0.04   0.01  -0.00
  41   1    -0.03   0.02  -0.03    -0.02   0.01  -0.02    -0.00  -0.01  -0.01
  42   1    -0.03  -0.01  -0.01    -0.02  -0.00  -0.01     0.00  -0.01  -0.03
  43   7     0.07   0.02   0.03     0.03   0.02   0.01    -0.05   0.00  -0.05
  44   1     0.01  -0.01   0.02     0.00  -0.00   0.01    -0.02   0.01  -0.00
  45   1     0.04   0.01   0.01     0.02   0.01   0.00    -0.03   0.01   0.01
  46   6    -0.07   0.11  -0.13     0.06  -0.01   0.08    -0.04  -0.04  -0.04
  47   8    -0.17   0.29  -0.37     0.24   0.02   0.21    -0.14  -0.12  -0.05
  48   7    -0.05   0.08  -0.07    -0.06  -0.04   0.23     0.04  -0.02  -0.15
  49   1    -0.01   0.01  -0.02    -0.02   0.02   0.05     0.01  -0.02  -0.03
  50   1     0.01  -0.03   0.04    -0.05  -0.00   0.03     0.03   0.01  -0.04
  51   7     0.00  -0.02   0.05     0.01  -0.04  -0.13    -0.03  -0.00   0.10
  52   1     0.01  -0.03   0.05    -0.02  -0.00  -0.07     0.00   0.02   0.01
  53   1    -0.01   0.01   0.00     0.02  -0.00  -0.06    -0.02   0.01   0.02
                     22                     23                     24
                        a                      a                      a 
 Frequencies --   161.7065               168.9047               188.2833
 Red. masses --    12.6092                10.9125                12.8771
 Frc consts  --     0.0000                 0.0000                 0.0000
 IR Inten    --     2.7219                 6.9212                10.6405
 Raman Activ --     0.0000                 0.0000                 0.0000
 Depolar     --     0.0000                 0.0000                 0.0000
 Atom AN      X      Y      Z        X      Y      Z        X      Y      Z
   1   8    -0.07   0.04  -0.15     0.09  -0.02   0.45    -0.03   0.00   0.06
   2   6    -0.04  -0.02   0.01     0.05   0.14   0.06    -0.02   0.02   0.02
   3   1    -0.00  -0.02   0.02    -0.01   0.09  -0.04    -0.01   0.01   0.00
   4   1     0.00  -0.02  -0.00    -0.01   0.09   0.06    -0.01   0.01   0.00
   5   6    -0.10   0.06   0.10     0.17  -0.14  -0.17    -0.01  -0.01   0.00
   6   1    -0.06   0.02   0.04     0.15  -0.06  -0.07     0.01  -0.01   0.01
   7   1    -0.00   0.05   0.04    -0.01  -0.11  -0.10    -0.01  -0.00  -0.00
   8   7    -0.03  -0.03   0.05     0.03   0.02  -0.10    -0.03  -0.01  -0.02
   9   6     0.04  -0.07  -0.09    -0.11   0.07   0.15    -0.04   0.00   0.01
  10   1     0.03  -0.03  -0.04    -0.06   0.03   0.06    -0.01   0.00  -0.00
  11   1    -0.01  -0.02  -0.05     0.01   0.02   0.09    -0.01  -0.01   0.01
  12   1     0.03  -0.03  -0.02    -0.07   0.02   0.03    -0.02   0.01   0.01
  13   6    -0.07   0.01   0.01     0.08  -0.03  -0.06     0.00  -0.01  -0.05
  14   1     0.00  -0.01  -0.01    -0.03   0.02   0.01     0.00  -0.01  -0.02
  15   1    -0.04   0.03  -0.02     0.06  -0.06   0.03     0.00   0.01  -0.02
  16   1    -0.03   0.01   0.03     0.05  -0.01  -0.08    -0.00  -0.01  -0.01
  17   6     0.04  -0.12   0.16    -0.07   0.19  -0.28    -0.05  -0.02  -0.03
  18   1    -0.00  -0.06   0.01     0.03   0.11  -0.01    -0.02  -0.01  -0.01
  19   1     0.02   0.01   0.06    -0.05  -0.04  -0.10    -0.01  -0.01  -0.01
  20   1     0.03  -0.07   0.08    -0.06   0.12  -0.16    -0.01  -0.01  -0.00
  21   1    -0.01   0.01  -0.01     0.01  -0.02   0.04    -0.01  -0.00   0.01
  22   6     0.23  -0.01  -0.04     0.10   0.02  -0.05    -0.10  -0.20   0.02
  23   8     0.33  -0.22  -0.04     0.03  -0.07  -0.09    -0.03  -0.41   0.06
  24   7     0.13   0.18  -0.04     0.10   0.11   0.07    -0.17  -0.08   0.13
  25   1     0.07  -0.01   0.01     0.01   0.01   0.04    -0.05  -0.05   0.06
  26   1     0.05   0.04  -0.00     0.06   0.04   0.03    -0.06   0.04   0.03
  27   7     0.23   0.06  -0.12     0.20   0.03  -0.13    -0.13  -0.08  -0.05
  28   1     0.01   0.08  -0.04     0.05   0.03  -0.03    -0.04   0.02  -0.01
  29   1     0.07   0.02  -0.03     0.05   0.01  -0.05    -0.03  -0.04  -0.01
  30   6     0.03   0.06  -0.00     0.01  -0.01   0.01     0.05   0.15  -0.06
  31   8     0.02   0.08  -0.07     0.05  -0.05   0.03     0.22   0.02  -0.06
  32   7     0.01   0.03   0.05    -0.03  -0.00   0.00    -0.02   0.10   0.04
  33   1     0.01  -0.01   0.01     0.00  -0.01   0.00     0.08  -0.07   0.05
  34   1     0.02  -0.01   0.04    -0.01   0.00   0.00     0.00   0.01   0.03
  35   7     0.05   0.10   0.03    -0.02   0.03  -0.01    -0.12   0.43  -0.18
  36   1     0.01   0.03   0.01    -0.01   0.01  -0.01    -0.06   0.14  -0.04
  37   1     0.01   0.03   0.01    -0.00   0.00  -0.00    -0.03   0.12  -0.05
  38   6     0.05   0.03  -0.03    -0.03  -0.00   0.03     0.00   0.00   0.00
  39   8     0.09   0.06  -0.09    -0.06   0.02   0.09     0.00   0.01   0.01
  40   7    -0.02   0.04  -0.00     0.02  -0.04  -0.05     0.02  -0.02  -0.03
  41   1    -0.00   0.00  -0.03    -0.02   0.03   0.06    -0.02   0.03   0.05
  42   1    -0.01  -0.01  -0.01    -0.01   0.03   0.04    -0.02   0.04   0.06
  43   7     0.09   0.00   0.04    -0.04   0.01   0.01    -0.01   0.02   0.04
  44   1     0.01  -0.00   0.04     0.02  -0.04  -0.07     0.03  -0.04  -0.07
  45   1     0.04   0.01   0.02     0.00  -0.02  -0.04     0.02  -0.03  -0.05
  46   6    -0.24  -0.08   0.05    -0.14  -0.09   0.01     0.12   0.02   0.03
  47   8    -0.12  -0.07   0.19    -0.12  -0.12   0.06     0.32   0.09   0.12
  48   7    -0.38   0.05  -0.03    -0.14  -0.11   0.04    -0.08   0.09   0.09
  49   1    -0.11   0.01   0.00    -0.04  -0.03   0.00    -0.02   0.03   0.06
  50   1    -0.10   0.00   0.00    -0.04  -0.02   0.01    -0.05  -0.01   0.03
  51   7    -0.26  -0.16   0.01    -0.18   0.01  -0.07     0.13  -0.11  -0.18
  52   1    -0.09  -0.03  -0.05    -0.04  -0.00  -0.00     0.01  -0.07  -0.03
  53   1    -0.05  -0.05  -0.01    -0.05  -0.03   0.02     0.07  -0.05  -0.05
                     25                     26                     27
                        a                      a                      a 
 Frequencies --   195.0378               201.5781               222.6487
 Red. masses --     4.2615                10.9681                 2.9782
 Frc consts  --     0.0000                 0.0000                 0.0000
 IR Inten    --    23.4498                84.8154               154.9365
 Raman Activ --     0.0000                 0.0000                 0.0000
 Depolar     --     0.0000                 0.0000                 0.0000
 Atom AN      X      Y      Z        X      Y      Z        X      Y      Z
   1   8     0.01   0.03   0.04    -0.03  -0.02   0.21     0.01   0.01  -0.03
   2   6     0.00   0.03   0.02    -0.03   0.05   0.05     0.01  -0.00  -0.01
   3   1    -0.00   0.01  -0.00    -0.02   0.03   0.00     0.00  -0.00  -0.00
   4   1     0.00   0.01   0.01    -0.03   0.03   0.02     0.00  -0.00  -0.00
   5   6     0.01  -0.02  -0.01     0.04  -0.01  -0.04    -0.00  -0.00   0.00
   6   1     0.02  -0.01  -0.00     0.04  -0.01  -0.01    -0.00   0.00   0.00
   7   1    -0.00  -0.01  -0.01    -0.01  -0.02  -0.03     0.00   0.00   0.00
   8   7    -0.00  -0.01  -0.01     0.00   0.03  -0.03     0.00  -0.00   0.00
   9   6    -0.02  -0.01   0.01    -0.03   0.01   0.02     0.00  -0.00  -0.00
  10   1    -0.00  -0.00   0.00    -0.02  -0.00   0.02     0.00   0.00  -0.00
  11   1    -0.00  -0.01   0.01     0.00   0.01   0.01    -0.00  -0.00  -0.00
  12   1    -0.01   0.00   0.00    -0.02  -0.00  -0.01     0.00   0.00   0.00
  13   6     0.00  -0.01  -0.01     0.00   0.03  -0.03     0.00  -0.01   0.00
  14   1    -0.01  -0.00  -0.00    -0.01   0.01  -0.01     0.00  -0.00   0.00
  15   1     0.01  -0.01   0.00     0.01  -0.00   0.00    -0.00   0.00  -0.00
  16   1     0.00  -0.01  -0.01     0.01   0.01  -0.02    -0.00  -0.00   0.00
  17   6    -0.00   0.01  -0.03    -0.01   0.06  -0.05    -0.00  -0.01   0.00
  18   1    -0.00   0.01  -0.00     0.01   0.03   0.00    -0.00  -0.00  -0.00
  19   1    -0.00   0.00  -0.01    -0.01  -0.00  -0.01     0.00   0.00   0.00
  20   1    -0.00   0.01  -0.01    -0.01   0.03  -0.03     0.00  -0.00   0.00
  21   1     0.00   0.01   0.02    -0.01  -0.01   0.03     0.00   0.00  -0.00
  22   6    -0.02  -0.04  -0.02     0.02   0.02   0.04     0.00  -0.06   0.02
  23   8    -0.09  -0.11  -0.03     0.18   0.12   0.08    -0.07  -0.02   0.00
  24   7    -0.01   0.01   0.13    -0.04  -0.03  -0.27    -0.19   0.27  -0.02
  25   1    -0.05   0.02   0.06     0.10  -0.08  -0.10     0.25  -0.39   0.11
  26   1    -0.01   0.07   0.03     0.02  -0.17  -0.06     0.44  -0.60   0.19
  27   7     0.05  -0.02  -0.08    -0.14   0.02   0.16    -0.02   0.02  -0.03
  28   1     0.03   0.00  -0.02    -0.08   0.01   0.03    -0.08   0.13  -0.01
  29   1     0.02  -0.01  -0.03    -0.04   0.03   0.07    -0.04   0.05  -0.02
  30   6     0.01   0.06  -0.02    -0.02  -0.08   0.03     0.01   0.03  -0.01
  31   8     0.07   0.02  -0.02    -0.10  -0.03   0.06     0.04   0.01  -0.02
  32   7    -0.01   0.03   0.01     0.02  -0.04  -0.02     0.00   0.01   0.00
  33   1     0.02  -0.02   0.01    -0.01   0.02  -0.01    -0.01   0.01  -0.01
  34   1    -0.00   0.01   0.01     0.01  -0.01  -0.02    -0.02   0.02  -0.01
  35   7    -0.03   0.14  -0.05     0.02  -0.18   0.06     0.01   0.04  -0.02
  36   1    -0.01   0.04  -0.01     0.01  -0.05   0.01    -0.01   0.02   0.00
  37   1    -0.01   0.04  -0.02     0.02  -0.06   0.02    -0.02   0.03  -0.02
  38   6    -0.00  -0.02  -0.00     0.01   0.01  -0.00    -0.00  -0.00   0.00
  39   8     0.01  -0.05  -0.04     0.02   0.01  -0.01    -0.01  -0.01   0.00
  40   7    -0.06   0.10   0.19    -0.02   0.04   0.05     0.00  -0.00   0.00
  41   1     0.11  -0.17  -0.28     0.04  -0.05  -0.10     0.00  -0.00   0.00
  42   1     0.13  -0.20  -0.34     0.05  -0.07  -0.12    -0.00   0.00   0.00
  43   7     0.05  -0.12  -0.21     0.05  -0.04  -0.06    -0.01   0.00  -0.00
  44   1    -0.16   0.26   0.43    -0.05   0.09   0.16    -0.00  -0.00  -0.00
  45   1    -0.13   0.20   0.32    -0.03   0.07   0.12    -0.00  -0.00  -0.00
  46   6     0.01  -0.02   0.02     0.02   0.04  -0.05     0.02  -0.02   0.00
  47   8    -0.05  -0.09   0.03     0.28   0.25  -0.02    -0.04  -0.07  -0.01
  48   7     0.09  -0.05  -0.01    -0.30   0.12   0.08     0.09  -0.06  -0.01
  49   1     0.03  -0.03  -0.01    -0.09   0.09   0.04     0.02  -0.01  -0.02
  50   1     0.04  -0.00   0.00    -0.13  -0.00   0.01     0.02   0.02  -0.03
  51   7    -0.01   0.09   0.05     0.07  -0.30  -0.26     0.01   0.06   0.04
  52   1     0.01   0.04   0.01    -0.03  -0.15  -0.03     0.01   0.03   0.00
  53   1    -0.02   0.03   0.02     0.07  -0.11  -0.08    -0.01   0.02   0.01
                     28                     29                     30
                        a                      a                      a 
 Frequencies --   233.9877               274.4405               283.2406
 Red. masses --     4.2485                 6.9230                10.2620
 Frc consts  --     0.0000                 0.0000                 0.0000
 IR Inten    --     2.7888                 3.5469                 3.3643
 Raman Activ --     0.0000                 0.0000                 0.0000
 Depolar     --     0.0000                 0.0000                 0.0000
 Atom AN      X      Y      Z        X      Y      Z        X      Y      Z
   1   8     0.07   0.16  -0.19     0.13  -0.22   0.18     0.37   0.56  -0.00
   2   6     0.15   0.21  -0.03    -0.08  -0.38  -0.01     0.05  -0.03  -0.01
   3   1     0.08   0.09  -0.07    -0.08  -0.18   0.12    -0.11  -0.04   0.08
   4   1     0.08   0.09   0.07    -0.07  -0.19  -0.14     0.05  -0.11  -0.09
   5   6    -0.01  -0.02   0.02     0.05   0.10   0.03     0.03  -0.04  -0.01
   6   1     0.03  -0.03   0.02    -0.05   0.07  -0.03     0.02  -0.01  -0.02
   7   1    -0.02  -0.02  -0.01     0.05   0.05   0.06     0.00  -0.03   0.00
   8   7    -0.04  -0.02   0.03    -0.02   0.14   0.02    -0.01  -0.00   0.01
   9   6     0.07   0.00  -0.12    -0.10  -0.03   0.01    -0.01   0.03   0.03
  10   1    -0.06  -0.01   0.07    -0.08  -0.04   0.12     0.04   0.02  -0.06
  11   1     0.07   0.15  -0.09     0.03   0.10  -0.02    -0.04  -0.07   0.02
  12   1     0.08  -0.12  -0.13    -0.04  -0.12  -0.10    -0.01   0.07   0.07
  13   6    -0.13  -0.03   0.16    -0.05   0.32  -0.26    -0.01   0.01  -0.02
  14   1    -0.22   0.09   0.12     0.03   0.01  -0.15     0.23  -0.11  -0.08
  15   1     0.03  -0.17   0.17    -0.04   0.19  -0.14    -0.12   0.17  -0.17
  16   1     0.04   0.04  -0.12    -0.04   0.10  -0.00    -0.11  -0.06   0.21
  17   6     0.02  -0.09   0.12    -0.02   0.02   0.09    -0.00  -0.01   0.02
  18   1     0.34   0.06   0.24     0.23   0.05   0.16     0.01  -0.00   0.01
  19   1    -0.18  -0.37   0.11    -0.14  -0.23   0.09    -0.01  -0.02   0.01
  20   1    -0.12   0.20  -0.21    -0.10   0.16  -0.13    -0.01   0.00  -0.00
  21   1     0.04   0.03   0.00     0.00  -0.02   0.06     0.06   0.20   0.06
  22   6    -0.00  -0.00   0.00    -0.00  -0.00  -0.00     0.00   0.00   0.00
  23   8     0.01  -0.01   0.01    -0.00  -0.00  -0.00     0.01   0.00   0.00
  24   7    -0.01  -0.01  -0.01    -0.00   0.00   0.01     0.01  -0.00  -0.01
  25   1     0.00  -0.00  -0.00    -0.00  -0.00   0.01     0.00   0.00  -0.01
  26   1    -0.00  -0.00  -0.00     0.00   0.00   0.00    -0.00   0.00  -0.01
  27   7    -0.01  -0.00   0.01     0.00  -0.00  -0.00     0.00   0.00   0.00
  28   1    -0.00  -0.00   0.00     0.00  -0.00  -0.00    -0.00   0.00   0.00
  29   1    -0.00  -0.00   0.00     0.00  -0.00  -0.00    -0.00   0.00   0.00
  30   6     0.01  -0.01   0.01     0.01  -0.00  -0.00    -0.00  -0.00   0.01
  31   8     0.03  -0.02   0.03     0.02  -0.01  -0.00    -0.00  -0.00   0.01
  32   7    -0.00   0.01  -0.00    -0.01   0.00  -0.00     0.01  -0.00   0.00
  33   1     0.01  -0.00   0.01     0.00  -0.01   0.00    -0.00   0.01  -0.00
  34   1     0.00   0.00  -0.00     0.00  -0.00   0.00    -0.00   0.01  -0.01
  35   7    -0.01   0.01  -0.01     0.00   0.02  -0.01    -0.00  -0.01   0.01
  36   1    -0.01   0.01  -0.01    -0.00   0.01  -0.00    -0.00  -0.00  -0.00
  37   1     0.00  -0.00   0.00     0.00   0.00  -0.00    -0.00  -0.00   0.00
  38   6    -0.04  -0.06   0.00     0.02   0.02  -0.03    -0.05  -0.16   0.03
  39   8    -0.05  -0.10  -0.01     0.04   0.03  -0.06    -0.07  -0.21   0.02
  40   7     0.00  -0.03   0.03    -0.01   0.03  -0.01     0.05  -0.09   0.10
  41   1     0.01  -0.02   0.01     0.00   0.00  -0.02     0.03  -0.05   0.01
  42   1     0.00   0.00   0.01    -0.00  -0.00  -0.01     0.03  -0.00   0.01
  43   7    -0.11   0.00  -0.03     0.06  -0.00   0.04    -0.25   0.02  -0.07
  44   1    -0.02   0.02  -0.02     0.01  -0.02   0.01    -0.03   0.05  -0.08
  45   1    -0.05  -0.01  -0.02     0.04  -0.00   0.01    -0.13  -0.03  -0.07
  46   6     0.00   0.00  -0.01    -0.00   0.00   0.00    -0.02  -0.02  -0.02
  47   8     0.03   0.02  -0.00    -0.03  -0.01  -0.00     0.01   0.00  -0.02
  48   7    -0.02   0.00   0.01     0.03  -0.01  -0.00    -0.07  -0.02   0.01
  49   1    -0.01   0.00   0.01     0.01  -0.01  -0.00    -0.02   0.00   0.01
  50   1    -0.01  -0.00   0.00     0.02  -0.00   0.00    -0.03  -0.02   0.01
  51   7     0.01  -0.02  -0.02    -0.01   0.02   0.02    -0.01  -0.06  -0.03
  52   1    -0.00   0.00  -0.02    -0.01   0.02  -0.01    -0.01  -0.00  -0.04
  53   1     0.00   0.00  -0.02     0.00  -0.00   0.01     0.00  -0.00  -0.03
                     31                     32                     33
                        a                      a                      a 
 Frequencies --   306.5112               324.1498               343.2064
 Red. masses --     6.2073                 7.4765                 1.6139
 Frc consts  --     0.0000                 0.0000                 0.0000
 IR Inten    --     3.3213                 3.1150                 1.3338
 Raman Activ --     0.0000                 0.0000                 0.0000
 Depolar     --     0.0000                 0.0000                 0.0000
 Atom AN      X      Y      Z        X      Y      Z        X      Y      Z
   1   8     0.06  -0.31   0.12    -0.36   0.03  -0.26     0.03   0.01  -0.00
   2   6     0.19   0.13  -0.07    -0.11   0.16   0.08     0.04   0.04  -0.02
   3   1     0.12   0.09  -0.11     0.03   0.08  -0.04     0.01   0.03  -0.03
   4   1     0.05   0.13   0.08    -0.01   0.09   0.10     0.02   0.02   0.02
   5   6     0.01  -0.06  -0.04    -0.03  -0.09   0.00     0.01  -0.09  -0.05
   6   1     0.02  -0.03  -0.00     0.07  -0.05  -0.01     0.05  -0.04  -0.02
   7   1     0.00  -0.05   0.01    -0.06  -0.05  -0.07    -0.02  -0.05  -0.04
   8   7    -0.14   0.01  -0.03     0.10  -0.10   0.07    -0.01  -0.03   0.00
   9   6     0.06   0.29  -0.16    -0.06  -0.27   0.21     0.03   0.11   0.04
  10   1     0.06   0.14  -0.19    -0.01  -0.11   0.11    -0.28  -0.01   0.39
  11   1    -0.05  -0.01  -0.04     0.00  -0.08   0.08     0.26   0.49  -0.05
  12   1     0.09   0.19   0.08    -0.08  -0.09   0.02     0.08  -0.34  -0.32
  13   6    -0.18  -0.07   0.13     0.15  -0.08  -0.05    -0.10  -0.03   0.08
  14   1     0.25  -0.13  -0.02     0.28  -0.16  -0.11     0.09  -0.06  -0.01
  15   1    -0.22   0.16  -0.17    -0.05   0.19  -0.18    -0.12   0.06  -0.07
  16   1    -0.18  -0.11   0.31    -0.06  -0.09   0.19    -0.09  -0.03   0.16
  17   6    -0.14  -0.11   0.06     0.20   0.19  -0.03    -0.01  -0.01  -0.00
  18   1     0.07  -0.04   0.06     0.17   0.16   0.14    -0.15  -0.05  -0.10
  19   1    -0.10  -0.13   0.05    -0.01  -0.09   0.00     0.08   0.16  -0.03
  20   1    -0.09   0.03  -0.04     0.04   0.17  -0.18     0.05  -0.11   0.12
  21   1     0.04  -0.12  -0.03    -0.05  -0.02  -0.04     0.01  -0.00  -0.02
  22   6    -0.00   0.00  -0.00    -0.00  -0.00   0.00     0.00  -0.00  -0.00
  23   8    -0.00   0.00  -0.00    -0.00   0.00   0.00     0.00  -0.00  -0.00
  24   7     0.00   0.00   0.00    -0.00  -0.00  -0.00     0.00   0.00   0.00
  25   1    -0.00   0.00   0.00     0.00  -0.00  -0.00    -0.00  -0.00   0.00
  26   1     0.00   0.00   0.00    -0.00  -0.00  -0.00     0.00   0.00   0.00
  27   7     0.00  -0.00   0.00    -0.00   0.00   0.00    -0.00  -0.00  -0.00
  28   1     0.00  -0.00   0.00     0.00  -0.00   0.00     0.00  -0.00  -0.00
  29   1    -0.00   0.00  -0.00     0.00  -0.00   0.00     0.00  -0.00   0.00
  30   6     0.01  -0.01   0.00    -0.01   0.00   0.01     0.01   0.00  -0.02
  31   8     0.02  -0.02   0.02    -0.01   0.01   0.00     0.00   0.01  -0.02
  32   7    -0.02  -0.01  -0.01     0.01   0.01   0.00     0.00  -0.03   0.01
  33   1     0.00  -0.01   0.00     0.00   0.00   0.00    -0.03   0.00  -0.02
  34   1    -0.01   0.00  -0.00     0.01  -0.00   0.00    -0.02   0.01  -0.00
  35   7    -0.00  -0.01  -0.00    -0.01  -0.00   0.00     0.01   0.02  -0.01
  36   1    -0.00  -0.00  -0.00    -0.00  -0.00  -0.00    -0.00   0.01  -0.01
  37   1    -0.00  -0.00  -0.00    -0.00  -0.01   0.00     0.02  -0.01   0.00
  38   6     0.01   0.06  -0.02     0.01   0.04  -0.03    -0.00  -0.00   0.01
  39   8     0.02   0.07  -0.03     0.01   0.03  -0.02     0.00  -0.00   0.00
  40   7    -0.03   0.04  -0.04    -0.02   0.04  -0.01     0.01  -0.01   0.00
  41   1    -0.01   0.02  -0.00    -0.00   0.00  -0.02     0.00   0.00   0.01
  42   1    -0.01   0.00  -0.00    -0.00  -0.01  -0.02    -0.00   0.01   0.01
  43   7     0.09  -0.02   0.02     0.05   0.01   0.03    -0.00  -0.00  -0.01
  44   1     0.00  -0.02   0.05     0.01  -0.03  -0.01    -0.00   0.01   0.01
  45   1     0.05   0.01   0.03     0.04  -0.00  -0.00    -0.01   0.00   0.00
  46   6     0.00   0.01   0.01     0.01   0.01   0.00    -0.00  -0.00   0.01
  47   8    -0.00   0.00   0.01     0.01   0.01   0.00    -0.00  -0.00   0.00
  48   7     0.02   0.00   0.00     0.02   0.01  -0.00    -0.00  -0.00   0.00
  49   1     0.01   0.00  -0.00     0.01  -0.00   0.00    -0.00   0.00  -0.00
  50   1     0.00   0.01  -0.01     0.01   0.00   0.00    -0.01   0.01  -0.01
  51   7     0.00   0.03  -0.02     0.01   0.00   0.02    -0.00   0.01  -0.01
  52   1     0.01  -0.03   0.05    -0.00   0.02  -0.03     0.01  -0.02   0.04
  53   1     0.00  -0.02   0.03    -0.01   0.02  -0.01     0.00  -0.01   0.01
                     34                     35                     36
                        a                      a                      a 
 Frequencies --   350.7479               366.6645               375.6410
 Red. masses --     3.7370                 6.2146                 3.7348
 Frc consts  --     0.0000                 0.0000                 0.0000
 IR Inten    --   456.6250                30.0992                55.6611
 Raman Activ --     0.0000                 0.0000                 0.0000
 Depolar     --     0.0000                 0.0000                 0.0000
 Atom AN      X      Y      Z        X      Y      Z        X      Y      Z
   1   8     0.01   0.04  -0.01    -0.02   0.04  -0.08    -0.01  -0.04   0.02
   2   6    -0.01  -0.01  -0.01    -0.05   0.05  -0.16    -0.01   0.06  -0.08
   3   1    -0.02  -0.01   0.01    -0.02   0.06  -0.10     0.00   0.06  -0.08
   4   1     0.00  -0.02  -0.01     0.01   0.04   0.01     0.01   0.05   0.03
   5   6    -0.01   0.01   0.01    -0.03  -0.20  -0.21    -0.00  -0.15  -0.14
   6   1    -0.01   0.00   0.00     0.10  -0.06  -0.12     0.07  -0.05  -0.07
   7   1    -0.00   0.01   0.00    -0.08  -0.16  -0.10    -0.05  -0.11  -0.07
   8   7     0.00  -0.00   0.01    -0.01   0.02   0.06    -0.02  -0.00   0.01
   9   6    -0.01  -0.02   0.01    -0.07   0.14   0.25    -0.03   0.14   0.14
  10   1     0.00  -0.01   0.00    -0.03   0.07   0.03    -0.04   0.07   0.02
  11   1    -0.00  -0.01   0.00     0.00  -0.02   0.14     0.02   0.02   0.08
  12   1    -0.01  -0.00   0.00    -0.05   0.10   0.12    -0.01   0.07   0.06
  13   6     0.01  -0.00  -0.00     0.02   0.16  -0.19    -0.02   0.08  -0.12
  14   1     0.02  -0.01  -0.01    -0.09   0.02  -0.10    -0.06   0.01  -0.06
  15   1    -0.00   0.01  -0.01     0.06   0.05  -0.02     0.02   0.03  -0.02
  16   1    -0.00  -0.01   0.01     0.05   0.10  -0.12     0.02   0.06  -0.07
  17   6     0.01   0.01   0.01     0.14  -0.18   0.32     0.09  -0.12   0.19
  18   1     0.02   0.01   0.01     0.07  -0.11   0.05     0.02  -0.08   0.01
  19   1    -0.00  -0.01   0.00     0.02  -0.01   0.17     0.02   0.02   0.10
  20   1     0.00   0.01  -0.01     0.08  -0.10   0.13     0.06  -0.08   0.09
  21   1     0.00   0.01  -0.03     0.01   0.00   0.01     0.01  -0.02   0.03
  22   6    -0.00   0.00   0.00     0.01  -0.00  -0.01    -0.01   0.00   0.01
  23   8     0.00   0.00   0.00     0.01  -0.00  -0.01    -0.01   0.00   0.02
  24   7    -0.00  -0.00  -0.00     0.01   0.01   0.01    -0.01  -0.02  -0.02
  25   1     0.00  -0.00  -0.00    -0.00   0.00   0.01     0.01  -0.00  -0.01
  26   1    -0.00  -0.00  -0.00     0.00   0.01   0.00    -0.01  -0.02  -0.01
  27   7    -0.00   0.00   0.00     0.00  -0.00  -0.00    -0.01   0.01   0.01
  28   1     0.00  -0.00   0.00     0.00  -0.01  -0.00     0.00   0.00   0.00
  29   1     0.00  -0.00  -0.00    -0.00   0.00   0.00     0.01  -0.01  -0.00
  30   6     0.00  -0.00  -0.00     0.00   0.00  -0.01    -0.01   0.01  -0.00
  31   8    -0.00   0.00  -0.00     0.00  -0.00   0.00    -0.00   0.01  -0.00
  32   7    -0.01   0.01  -0.00     0.01  -0.04   0.01     0.00  -0.00   0.00
  33   1     0.01  -0.01   0.01    -0.03   0.02  -0.02    -0.02   0.00  -0.01
  34   1     0.01  -0.01   0.01    -0.05   0.05  -0.04     0.02  -0.03   0.03
  35   7    -0.00  -0.00   0.00     0.01   0.00   0.00    -0.02   0.00  -0.02
  36   1     0.00  -0.00  -0.00    -0.00   0.00  -0.00     0.00  -0.00  -0.01
  37   1     0.00  -0.00   0.00     0.00  -0.00   0.00     0.01  -0.02   0.01
  38   6    -0.05   0.06   0.12    -0.00  -0.00   0.00     0.00   0.00  -0.01
  39   8    -0.01   0.01   0.01     0.00  -0.01  -0.01    -0.00   0.01  -0.01
  40   7     0.11  -0.16  -0.26     0.00  -0.01  -0.01    -0.01   0.02   0.01
  41   1    -0.09   0.14   0.25    -0.00   0.01   0.01     0.01  -0.01  -0.02
  42   1    -0.18   0.29   0.50    -0.01   0.02   0.03     0.01  -0.02  -0.04
  43   7     0.07  -0.14  -0.24    -0.00  -0.01  -0.01     0.00   0.01   0.02
  44   1    -0.15   0.25   0.43    -0.01   0.02   0.03     0.01  -0.03  -0.03
  45   1    -0.07   0.11   0.18    -0.01   0.00   0.01     0.01  -0.01  -0.01
  46   6     0.00   0.00  -0.01    -0.01  -0.00   0.03     0.02   0.01  -0.05
  47   8    -0.00   0.00  -0.01    -0.02  -0.00   0.02     0.03   0.02  -0.05
  48   7    -0.00   0.00  -0.00     0.02  -0.01   0.01    -0.03   0.02   0.00
  49   1    -0.00  -0.00   0.00     0.00   0.02  -0.01     0.00  -0.02   0.01
  50   1     0.01  -0.03   0.02    -0.04   0.14  -0.12     0.07  -0.21   0.20
  51   7    -0.00  -0.02   0.02    -0.01   0.07  -0.12     0.03  -0.10   0.19
  52   1    -0.02   0.05  -0.07     0.08  -0.24   0.37    -0.13   0.39  -0.60
  53   1     0.01   0.01  -0.02    -0.01  -0.05   0.07     0.03   0.05  -0.08
                     37                     38                     39
                        a                      a                      a 
 Frequencies --   386.2713               429.8184               430.4032
 Red. masses --     3.8122                 3.3646                 8.5357
 Frc consts  --     0.0000                 0.0000                 0.0000
 IR Inten    --   354.1109               244.9682                 7.0948
 Raman Activ --     0.0000                 0.0000                 0.0000
 Depolar     --     0.0000                 0.0000                 0.0000
 Atom AN      X      Y      Z        X      Y      Z        X      Y      Z
   1   8     0.01   0.01  -0.01     0.05  -0.01   0.03     0.18  -0.06   0.12
   2   6    -0.01   0.01  -0.03     0.01   0.01  -0.04     0.07   0.02  -0.16
   3   1    -0.00   0.01  -0.01     0.00   0.01  -0.02     0.02   0.03  -0.07
   4   1     0.00   0.01  -0.00     0.00   0.01  -0.01     0.03   0.03  -0.02
   5   6    -0.00  -0.01  -0.03    -0.03   0.01  -0.01    -0.17   0.03  -0.01
   6   1     0.01   0.00  -0.02    -0.02   0.01  -0.01    -0.10   0.02  -0.00
   7   1    -0.01  -0.02  -0.01    -0.00  -0.00   0.01    -0.00   0.01   0.07
   8   7     0.01   0.02   0.02    -0.06   0.02   0.00    -0.31   0.08   0.00
   9   6     0.00   0.00   0.03    -0.05  -0.01  -0.04    -0.25  -0.03  -0.20
  10   1    -0.00  -0.01   0.02    -0.01  -0.01   0.00    -0.05  -0.05  -0.01
  11   1     0.01   0.01   0.01    -0.02   0.01  -0.02    -0.09   0.04  -0.11
  12   1    -0.00  -0.01  -0.00    -0.01  -0.02  -0.02    -0.05  -0.07  -0.10
  13   6     0.02   0.02   0.01     0.07  -0.05  -0.00     0.31  -0.27  -0.05
  14   1     0.00   0.00  -0.00     0.03  -0.02   0.00     0.15  -0.09  -0.01
  15   1     0.01   0.01   0.00     0.05   0.00   0.01     0.23   0.00   0.05
  16   1     0.01   0.01   0.00     0.02  -0.05  -0.02     0.08  -0.22  -0.11
  17   6    -0.00  -0.02   0.03     0.01   0.04   0.07     0.07   0.24   0.29
  18   1    -0.01  -0.02  -0.00     0.01   0.01   0.02     0.04   0.09   0.11
  19   1     0.00   0.00   0.01     0.00   0.03   0.04     0.01   0.14   0.17
  20   1    -0.00  -0.01   0.03     0.02   0.00   0.01     0.14   0.02   0.03
  21   1    -0.00   0.00  -0.01     0.01  -0.00   0.01     0.06  -0.03   0.03
  22   6    -0.04   0.06   0.00     0.09  -0.08  -0.04    -0.02   0.02   0.01
  23   8    -0.04   0.07  -0.00     0.03  -0.07  -0.05    -0.01   0.01   0.01
  24   7     0.02  -0.03  -0.00    -0.04   0.16  -0.01     0.01  -0.03   0.00
  25   1    -0.00   0.01  -0.01     0.03  -0.06   0.04    -0.01   0.01  -0.01
  26   1     0.02  -0.04   0.01     0.08  -0.01   0.03    -0.02   0.00  -0.01
  27   7     0.05  -0.05  -0.00    -0.21   0.20   0.06     0.04  -0.04  -0.01
  28   1    -0.11   0.15  -0.01     0.50  -0.68   0.06    -0.10   0.14  -0.01
  29   1    -0.01   0.03  -0.00    -0.01  -0.03  -0.00     0.00   0.01   0.00
  30   6     0.03  -0.06   0.01    -0.01  -0.02   0.01     0.00   0.01  -0.00
  31   8    -0.01  -0.00  -0.01    -0.02  -0.01  -0.03     0.00   0.01  -0.00
  32   7    -0.22   0.25  -0.13    -0.04   0.08  -0.05     0.01  -0.01   0.01
  33   1     0.36  -0.32   0.20     0.11  -0.08   0.06    -0.03   0.02  -0.01
  34   1     0.32  -0.38   0.24     0.12  -0.13   0.06    -0.02   0.03  -0.01
  35   7     0.03  -0.10   0.02     0.02  -0.02   0.03    -0.01  -0.00  -0.01
  36   1     0.00  -0.02   0.01    -0.07   0.03  -0.04     0.02  -0.01   0.01
  37   1    -0.01   0.01  -0.01     0.01  -0.04   0.03    -0.01   0.00  -0.00
  38   6     0.00  -0.00  -0.00     0.01  -0.00   0.00     0.02  -0.00   0.02
  39   8     0.00  -0.00   0.00     0.01   0.00   0.00     0.03   0.01   0.02
  40   7    -0.00  -0.00   0.01    -0.02  -0.01   0.00    -0.06  -0.03  -0.01
  41   1    -0.00  -0.00  -0.00    -0.01   0.00  -0.00    -0.03   0.01  -0.01
  42   1     0.00  -0.01  -0.01    -0.00  -0.01  -0.01    -0.02  -0.04  -0.01
  43   7    -0.01   0.00   0.00    -0.01   0.01  -0.00    -0.02   0.04  -0.03
  44   1     0.00  -0.00  -0.01     0.00   0.00  -0.01     0.01   0.03  -0.03
  45   1    -0.00  -0.00  -0.00    -0.01   0.00  -0.00    -0.04   0.00  -0.01
  46   6     0.03  -0.04   0.04    -0.01   0.02  -0.01     0.00  -0.00   0.00
  47   8    -0.01  -0.08   0.02    -0.01   0.01  -0.01     0.00  -0.00   0.00
  48   7    -0.06   0.12  -0.09    -0.01  -0.02   0.03     0.00   0.00  -0.00
  49   1    -0.00  -0.03   0.03    -0.01   0.03  -0.03     0.00  -0.01   0.01
  50   1     0.10  -0.25   0.23    -0.02   0.03  -0.02    -0.00  -0.00   0.00
  51   7     0.01   0.08  -0.08    -0.01  -0.00   0.01     0.00  -0.00  -0.00
  52   1     0.06  -0.07   0.15    -0.00   0.00   0.00    -0.00   0.00  -0.01
  53   1    -0.02   0.01   0.02    -0.01   0.01  -0.00     0.00  -0.01   0.01
                     40                     41                     42
                        a                      a                      a 
 Frequencies --   453.5163               459.8566               464.0958
 Red. masses --     4.0185                 7.9781                 5.4652
 Frc consts  --     0.0000                 0.0000                 0.0000
 IR Inten    --    73.2090                 3.8341                 0.5569
 Raman Activ --     0.0000                 0.0000                 0.0000
 Depolar     --     0.0000                 0.0000                 0.0000
 Atom AN      X      Y      Z        X      Y      Z        X      Y      Z
   1   8     0.00   0.01   0.01    -0.04   0.02  -0.10     0.02   0.00   0.02
   2   6     0.01  -0.01   0.04     0.03  -0.11   0.26     0.00   0.01  -0.04
   3   1     0.00   0.00   0.00     0.02  -0.01   0.03     0.00  -0.00   0.00
   4   1     0.01  -0.00   0.02     0.06  -0.04   0.12    -0.01   0.00  -0.02
   5   6    -0.01  -0.04   0.03    -0.07  -0.32   0.20    -0.02   0.09   0.01
   6   1    -0.01  -0.01   0.02     0.09  -0.11   0.03    -0.09   0.03   0.04
   7   1    -0.00  -0.00   0.01    -0.09  -0.17   0.00     0.05   0.10   0.04
   8   7    -0.02  -0.06  -0.01    -0.14  -0.15   0.22     0.01  -0.06  -0.11
   9   6     0.02   0.06   0.01     0.24   0.16  -0.18    -0.06   0.04   0.09
  10   1    -0.02   0.04  -0.01     0.06   0.10  -0.13    -0.05   0.03   0.03
  11   1     0.02   0.03   0.01     0.02   0.10  -0.14     0.03   0.01   0.08
  12   1     0.02   0.02   0.01     0.23   0.03  -0.00    -0.05   0.02   0.03
  13   6    -0.04  -0.02  -0.06     0.01   0.06  -0.27    -0.08  -0.08  -0.01
  14   1    -0.03  -0.01  -0.03    -0.09  -0.05  -0.17    -0.02  -0.00   0.02
  15   1    -0.00  -0.00  -0.01     0.08   0.09  -0.05    -0.05  -0.05  -0.01
  16   1    -0.00   0.01  -0.02     0.05   0.08  -0.15    -0.03  -0.02   0.01
  17   6     0.04   0.02  -0.01    -0.11   0.25   0.00     0.14  -0.02  -0.03
  18   1    -0.00   0.02   0.01    -0.10   0.15   0.05     0.06   0.00   0.01
  19   1     0.02   0.03   0.00     0.01   0.09  -0.07     0.02  -0.00   0.03
  20   1     0.03   0.00  -0.01     0.01   0.08  -0.05     0.06  -0.01  -0.03
  21   1     0.00   0.00   0.01    -0.03   0.02  -0.03     0.01  -0.00   0.01
  22   6    -0.01  -0.00  -0.02     0.00   0.00   0.02    -0.01  -0.00   0.14
  23   8     0.02   0.01  -0.02    -0.02  -0.01   0.02    -0.11  -0.07   0.12
  24   7     0.01  -0.01   0.03    -0.01  -0.00  -0.03    -0.08  -0.06  -0.15
  25   1    -0.03   0.01   0.02     0.02  -0.01  -0.02     0.11  -0.03  -0.13
  26   1     0.00   0.04   0.01    -0.02  -0.02  -0.01    -0.14  -0.07  -0.08
  27   7     0.00  -0.05  -0.01     0.02   0.03  -0.01     0.14   0.13  -0.06
  28   1    -0.09   0.08  -0.01     0.05  -0.03   0.01     0.21  -0.04   0.02
  29   1    -0.01   0.01   0.02     0.00   0.01  -0.02     0.02   0.03  -0.11
  30   6     0.04   0.03   0.00     0.03   0.01   0.00     0.11   0.06   0.01
  31   8     0.05   0.03   0.02     0.02   0.03   0.02     0.09   0.11   0.05
  32   7    -0.16   0.13  -0.05    -0.04  -0.02   0.02    -0.18  -0.02   0.07
  33   1     0.12  -0.17   0.07    -0.02  -0.03  -0.00     0.04  -0.14   0.06
  34   1     0.13  -0.17   0.17    -0.06   0.05  -0.00    -0.22   0.20  -0.05
  35   7     0.05  -0.12  -0.03     0.01  -0.05  -0.03     0.10  -0.21  -0.10
  36   1     0.06  -0.05   0.05     0.04  -0.03   0.02     0.21  -0.12   0.16
  37   1    -0.14   0.13  -0.09    -0.06   0.04  -0.04    -0.31   0.31  -0.21
  38   6    -0.01   0.00  -0.00     0.01  -0.01   0.01    -0.01   0.00  -0.01
  39   8    -0.01   0.00  -0.01     0.01  -0.00   0.01    -0.01   0.00  -0.01
  40   7     0.01   0.01   0.00    -0.00  -0.01   0.02     0.01   0.01   0.00
  41   1     0.01  -0.01  -0.00     0.01  -0.02  -0.05     0.01  -0.00   0.01
  42   1     0.00   0.01   0.00    -0.02   0.02   0.05     0.01   0.01  -0.01
  43   7     0.00  -0.01   0.01    -0.00   0.00  -0.02    -0.00  -0.01   0.01
  44   1     0.00  -0.02  -0.01     0.02  -0.01  -0.05    -0.00  -0.01   0.00
  45   1     0.01   0.00   0.01    -0.03   0.03   0.04     0.01  -0.00   0.00
  46   6    -0.07   0.09  -0.03     0.01  -0.00   0.01    -0.01  -0.01   0.00
  47   8    -0.01   0.13  -0.03    -0.01  -0.01   0.01     0.02  -0.00   0.01
  48   7     0.14  -0.19   0.11    -0.02   0.04  -0.02    -0.03   0.03  -0.03
  49   1     0.03  -0.02   0.06    -0.00  -0.00  -0.01    -0.00  -0.02  -0.01
  50   1    -0.19   0.49  -0.48     0.04  -0.08   0.08     0.04  -0.10   0.09
  51   7    -0.03  -0.16   0.10     0.00   0.02  -0.02    -0.01   0.03  -0.00
  52   1    -0.09   0.06  -0.19     0.01  -0.03   0.05     0.02  -0.01   0.05
  53   1     0.03   0.00  -0.06    -0.00   0.01  -0.00    -0.02   0.01   0.01
                     43                     44                     45
                        a                      a                      a 
 Frequencies --   464.6178               465.3705               465.9067
 Red. masses --     7.9320                 5.0775                 2.5099
 Frc consts  --     0.0000                 0.0000                 0.0000
 IR Inten    --    21.7795                11.7587                 4.5758
 Raman Activ --     0.0000                 0.0000                 0.0000
 Depolar     --     0.0000                 0.0000                 0.0000
 Atom AN      X      Y      Z        X      Y      Z        X      Y      Z
   1   8    -0.06  -0.07  -0.00     0.00   0.02  -0.02     0.02   0.03  -0.01
   2   6    -0.02   0.00   0.01    -0.01   0.01  -0.02     0.01  -0.02   0.03
   3   1     0.01   0.00  -0.01    -0.01   0.01  -0.01    -0.00  -0.01   0.01
   4   1    -0.01   0.01   0.01     0.00   0.00  -0.00     0.01  -0.01   0.01
   5   6     0.02  -0.02  -0.02     0.04  -0.08  -0.07    -0.04  -0.00   0.06
   6   1     0.03  -0.01  -0.02     0.10  -0.03  -0.07    -0.05   0.00   0.04
   7   1    -0.01  -0.03  -0.02    -0.05  -0.11  -0.05     0.01   0.03   0.03
   8   7     0.03   0.03   0.03    -0.00   0.12   0.12    -0.02  -0.08  -0.03
   9   6     0.03  -0.03  -0.00     0.04  -0.10  -0.09     0.01   0.06   0.02
  10   1     0.02  -0.02   0.00     0.06  -0.08  -0.00    -0.02   0.04  -0.01
  11   1    -0.00  -0.01  -0.01    -0.04  -0.02  -0.08     0.02   0.02   0.02
  12   1     0.00  -0.01  -0.00     0.02  -0.06  -0.06     0.02   0.03   0.02
  13   6    -0.02   0.07   0.03     0.13   0.10   0.08    -0.05  -0.05  -0.07
  14   1    -0.01   0.02   0.00     0.05   0.01   0.01    -0.03  -0.02  -0.03
  15   1    -0.02   0.02  -0.00     0.06   0.06   0.02    -0.01  -0.02  -0.02
  16   1    -0.00   0.03   0.02     0.03   0.00   0.01    -0.00   0.00  -0.03
  17   6    -0.05  -0.03  -0.02    -0.18  -0.00   0.06     0.07   0.04  -0.02
  18   1    -0.01  -0.02  -0.01    -0.07  -0.03  -0.02     0.02   0.04   0.02
  19   1    -0.01  -0.03  -0.02    -0.03  -0.01  -0.02     0.02   0.02   0.00
  20   1    -0.04  -0.00   0.01    -0.09  -0.00   0.06     0.05   0.01  -0.03
  21   1    -0.02  -0.02  -0.03     0.00   0.00  -0.01     0.00   0.01  -0.01
  22   6    -0.00  -0.00   0.00    -0.01  -0.01   0.04     0.00   0.01  -0.02
  23   8    -0.00  -0.00   0.00    -0.03  -0.02   0.03     0.01   0.01  -0.01
  24   7    -0.00  -0.00  -0.00    -0.03  -0.02  -0.04     0.01   0.01   0.02
  25   1     0.00  -0.00  -0.00     0.02  -0.00  -0.04    -0.01   0.00   0.02
  26   1    -0.01   0.00  -0.00    -0.04  -0.01  -0.02     0.02   0.00   0.01
  27   7     0.01   0.00  -0.01     0.05   0.03  -0.03    -0.02  -0.01   0.02
  28   1     0.00   0.00  -0.00     0.03   0.03  -0.00    -0.01  -0.02   0.00
  29   1    -0.00   0.00  -0.01     0.01   0.01  -0.03    -0.00  -0.00   0.02
  30   6    -0.02  -0.01   0.01    -0.13  -0.06   0.04     0.07   0.04  -0.02
  31   8    -0.00  -0.02  -0.02    -0.07  -0.13  -0.14     0.04   0.08   0.08
  32   7     0.00   0.01  -0.01     0.09   0.07  -0.07    -0.05  -0.04   0.04
  33   1     0.07  -0.01   0.04     0.36  -0.01   0.20    -0.20   0.00  -0.11
  34   1    -0.03   0.04  -0.06    -0.06   0.15  -0.34     0.03  -0.08   0.19
  35   7     0.01  -0.01   0.03     0.01   0.05   0.20    -0.00  -0.04  -0.11
  36   1     0.03  -0.01   0.05     0.05   0.01   0.17    -0.03  -0.01  -0.09
  37   1    -0.04   0.07  -0.03    -0.02   0.17  -0.04     0.01  -0.09   0.02
  38   6     0.27  -0.03   0.13    -0.09   0.02  -0.03    -0.06   0.01  -0.01
  39   8     0.31  -0.03   0.13    -0.10   0.01  -0.03    -0.06   0.00  -0.01
  40   7    -0.30  -0.25  -0.02     0.11   0.05  -0.04     0.09  -0.00  -0.08
  41   1    -0.27   0.15  -0.02     0.02   0.06   0.19    -0.08   0.17   0.34
  42   1    -0.13  -0.32  -0.02     0.11  -0.00  -0.17     0.15  -0.14  -0.33
  43   7    -0.04   0.34  -0.17    -0.00  -0.08   0.10    -0.03  -0.01   0.11
  44   1     0.03   0.35  -0.01    -0.08  -0.01   0.21    -0.14   0.13   0.38
  45   1    -0.18  -0.06  -0.23     0.16  -0.12  -0.15     0.21  -0.25  -0.38
  46   6    -0.01   0.01   0.00    -0.02   0.01  -0.01     0.01  -0.00   0.00
  47   8    -0.00   0.02   0.01     0.01   0.03  -0.01    -0.01  -0.02   0.00
  48   7     0.02  -0.01   0.00     0.01  -0.03   0.02    -0.01   0.02  -0.01
  49   1     0.01  -0.01  -0.01     0.00   0.00  -0.02    -0.00   0.00   0.01
  50   1     0.01   0.02  -0.02    -0.02   0.05  -0.05     0.01  -0.03   0.03
  51   7    -0.01  -0.02   0.01    -0.01  -0.01   0.03     0.01   0.00  -0.02
  52   1    -0.02   0.01  -0.03    -0.02   0.03  -0.06     0.01  -0.02   0.03
  53   1     0.01  -0.01   0.00     0.01  -0.01   0.01     0.00   0.00  -0.01
                     46                     47                     48
                        a                      a                      a 
 Frequencies --   474.5244               477.0017               491.8149
 Red. masses --     6.9467                 7.1927                 2.1142
 Frc consts  --     0.0000                 0.0000                 0.0000
 IR Inten    --    19.5348                28.7832                 7.4654
 Raman Activ --     0.0000                 0.0000                 0.0000
 Depolar     --     0.0000                 0.0000                 0.0000
 Atom AN      X      Y      Z        X      Y      Z        X      Y      Z
   1   8     0.01   0.01   0.01     0.02  -0.01   0.01    -0.00   0.00   0.00
   2   6     0.01   0.00   0.01     0.03  -0.03   0.06     0.00   0.00   0.00
   3   1     0.00  -0.00   0.01     0.02  -0.02   0.02     0.00   0.00   0.00
   4   1     0.00  -0.00   0.00     0.01  -0.01   0.02     0.00   0.00   0.00
   5   6    -0.02   0.03   0.04    -0.08   0.06   0.14    -0.00   0.00   0.00
   6   1    -0.05   0.01   0.04    -0.15   0.02   0.10    -0.00   0.00   0.00
   7   1     0.02   0.05   0.03     0.06   0.13   0.08     0.00   0.00   0.00
   8   7    -0.01  -0.06  -0.06    -0.03  -0.21  -0.14    -0.00  -0.01  -0.01
   9   6    -0.02   0.06   0.04    -0.01   0.22   0.12    -0.00   0.01   0.00
  10   1    -0.03   0.04   0.00    -0.10   0.14  -0.01    -0.00   0.00  -0.00
  11   1     0.02   0.02   0.04     0.08   0.07   0.11     0.00   0.00   0.00
  12   1    -0.00   0.03   0.02     0.02   0.10   0.08    -0.00   0.00   0.00
  13   6    -0.05  -0.06  -0.04    -0.18  -0.16  -0.17    -0.00  -0.01  -0.00
  14   1    -0.02  -0.01  -0.01    -0.09  -0.03  -0.04    -0.00  -0.00  -0.00
  15   1    -0.02  -0.03  -0.01    -0.06  -0.07  -0.04    -0.00  -0.00  -0.00
  16   1    -0.01  -0.01  -0.01    -0.04   0.00  -0.05    -0.00  -0.00  -0.00
  17   6     0.09   0.02  -0.02     0.26   0.06  -0.06     0.01   0.00  -0.00
  18   1     0.03   0.02   0.01     0.08   0.08   0.04     0.00   0.00   0.00
  19   1     0.02   0.01   0.01     0.06   0.05   0.03     0.00   0.00   0.00
  20   1     0.05   0.00  -0.03     0.15   0.01  -0.09     0.00   0.00  -0.00
  21   1     0.00   0.00   0.01     0.01   0.00   0.01    -0.00   0.00   0.00
  22   6     0.03  -0.03  -0.23    -0.00   0.01   0.03    -0.04   0.08  -0.07
  23   8     0.20   0.09  -0.20    -0.04  -0.01   0.03    -0.04   0.09  -0.08
  24   7     0.10   0.12   0.22    -0.01  -0.03  -0.04     0.01   0.10   0.07
  25   1    -0.20   0.07   0.21     0.03  -0.00  -0.04     0.47  -0.63   0.15
  26   1     0.25   0.10   0.14    -0.04  -0.03  -0.02    -0.29   0.40  -0.10
  27   7    -0.28  -0.18   0.09     0.06   0.03  -0.02     0.03  -0.17   0.06
  28   1    -0.20  -0.10  -0.01     0.00   0.05  -0.00    -0.04  -0.05   0.00
  29   1    -0.07  -0.01   0.14     0.02  -0.01  -0.02    -0.05   0.05   0.03
  30   6     0.01  -0.00   0.02    -0.13  -0.07   0.02    -0.00  -0.01  -0.00
  31   8    -0.01   0.01  -0.02    -0.09  -0.14  -0.15    -0.02  -0.00   0.01
  32   7    -0.05  -0.02   0.02     0.13   0.03  -0.07     0.00  -0.00  -0.01
  33   1     0.14  -0.07   0.10     0.29   0.01   0.15     0.01  -0.00   0.00
  34   1    -0.16   0.18  -0.16     0.03   0.03  -0.24     0.00  -0.00  -0.01
  35   7     0.03  -0.08   0.02    -0.05   0.14   0.19     0.01   0.00   0.01
  36   1     0.12  -0.06   0.11    -0.10   0.07  -0.01    -0.01   0.01   0.00
[...]
  44   1     0.00  -0.00   0.00     0.00  -0.00   0.00     0.00  -0.00   0.00
  45   1    -0.00   0.00  -0.00    -0.00   0.00  -0.00    -0.00   0.00  -0.00
  46   6    -0.01  -0.01  -0.01    -0.00  -0.00  -0.00    -0.01  -0.00   0.00
  47   8    -0.00   0.00   0.00    -0.00  -0.00   0.00     0.00  -0.00  -0.00
  48   7    -0.22  -0.04  -0.01    -0.08  -0.02  -0.01     0.01   0.01   0.00
  49   1     0.87   0.13  -0.02     0.32   0.05  -0.01    -0.05  -0.01   0.00
  50   1    -0.07   0.05   0.07    -0.03   0.02   0.03     0.00  -0.00  -0.00
  51   7    -0.00  -0.00  -0.01    -0.00  -0.00  -0.00    -0.15  -0.13  -0.10
  52   1     0.01  -0.01  -0.00     0.00  -0.00  -0.00     0.14  -0.18  -0.15
  53   1     0.02   0.03   0.03     0.01   0.02   0.02     0.42   0.66   0.51
                    142                    143                    144
                        a                      a                      a 
 Frequencies --  3484.5974              3486.6977              3499.8777
 Red. masses --     1.4737                 1.4521                 1.4464
 Frc consts  --     0.0000                 0.0000                 0.0000
 IR Inten    --    64.9744                20.5551                23.4211
 Raman Activ --     0.0000                 0.0000                 0.0000
 Depolar     --     0.0000                 0.0000                 0.0000
 Atom AN      X      Y      Z        X      Y      Z        X      Y      Z
   1   8    -0.00  -0.00   0.00    -0.00  -0.00   0.00    -0.00  -0.00   0.00
   2   6    -0.00   0.00   0.00     0.00   0.00   0.00     0.00   0.00   0.00
   3   1     0.00  -0.00  -0.00    -0.00  -0.00  -0.00    -0.00  -0.00  -0.00
   4   1    -0.00  -0.00   0.00     0.00   0.00   0.00     0.00   0.00   0.00
   5   6     0.00   0.00   0.00    -0.00  -0.00  -0.00     0.00   0.00  -0.00
   6   1    -0.00  -0.00  -0.00     0.00   0.00   0.00     0.00  -0.00  -0.00
   7   1     0.00  -0.00   0.00     0.00  -0.00  -0.00    -0.00   0.00   0.00
   8   7    -0.00  -0.00   0.00    -0.00   0.00   0.00    -0.00   0.00   0.00
   9   6    -0.00  -0.00  -0.00    -0.00  -0.00  -0.00     0.00   0.00  -0.00
  10   1    -0.00   0.00  -0.00     0.00   0.00   0.00    -0.00  -0.00  -0.00
  11   1    -0.00   0.00  -0.00     0.00  -0.00  -0.00     0.00   0.00  -0.00
  12   1    -0.00  -0.00   0.00    -0.00  -0.00   0.00    -0.00  -0.00   0.00
  13   6    -0.00   0.00  -0.00    -0.00   0.00  -0.00    -0.00   0.00  -0.00
  14   1    -0.00  -0.00   0.00    -0.00  -0.00   0.00    -0.00  -0.00   0.00
  15   1    -0.00   0.00   0.00    -0.00   0.00   0.00     0.00   0.00  -0.00
  16   1     0.00  -0.00   0.00     0.00  -0.00   0.00     0.00  -0.00   0.00
  17   6    -0.00   0.00  -0.00    -0.00  -0.00  -0.00    -0.00  -0.00  -0.00
  18   1    -0.00  -0.00   0.00    -0.00  -0.00   0.00    -0.00  -0.00   0.00
  19   1     0.00   0.00   0.00     0.00  -0.00  -0.00     0.00   0.00   0.00
  20   1    -0.00   0.00  -0.00     0.00   0.00   0.00     0.00   0.00   0.00
  21   1     0.02   0.02  -0.01     0.00   0.00  -0.00     0.00   0.00  -0.00
  22   6    -0.00  -0.00  -0.00    -0.00  -0.00  -0.00     0.00   0.00  -0.00
  23   8     0.00  -0.00   0.00     0.00   0.00   0.00    -0.00   0.00   0.00
  24   7    -0.00  -0.00   0.00     0.00   0.00   0.00     0.15   0.09  -0.05
  25   1     0.00   0.00   0.00    -0.00  -0.00  -0.00    -0.34  -0.34  -0.47
  26   1     0.00  -0.00  -0.00    -0.00   0.00   0.00    -0.23   0.03   0.67
  27   7     0.00   0.00   0.00     0.00   0.00  -0.00    -0.01  -0.00   0.01
  28   1     0.00   0.00  -0.00     0.00  -0.00   0.00     0.01   0.01  -0.05
  29   1    -0.00  -0.00   0.00    -0.00  -0.00   0.00     0.01   0.01  -0.00
  30   6    -0.00  -0.00  -0.00     0.00   0.00   0.00     0.00   0.00   0.00
  31   8     0.00   0.00   0.00    -0.00  -0.00   0.00    -0.00  -0.00  -0.00
  32   7    -0.00  -0.00  -0.00     0.05   0.11   0.14    -0.00   0.00   0.00
  33   1    -0.01  -0.00   0.01     0.36   0.09  -0.50     0.00   0.00  -0.00
  34   1     0.01   0.01   0.00    -0.57  -0.49  -0.02    -0.00  -0.00  -0.00
  35   7    -0.00  -0.00   0.00     0.00  -0.01  -0.01     0.00   0.01   0.02
  36   1     0.00   0.00  -0.00    -0.01  -0.01   0.00     0.00   0.00   0.00
  37   1    -0.00   0.00   0.00     0.00   0.03   0.05    -0.01  -0.04  -0.07
  38   6    -0.00  -0.00   0.00     0.00  -0.00   0.00     0.00   0.00   0.00
  39   8    -0.00   0.00  -0.00    -0.00  -0.00  -0.00    -0.00  -0.00   0.00
  40   7    -0.03  -0.16   0.08    -0.00  -0.00   0.00     0.00  -0.00   0.00
  41   1     0.60   0.53  -0.08     0.01   0.01  -0.00     0.00   0.00  -0.00
  42   1    -0.48   0.09  -0.23    -0.01   0.00  -0.01    -0.00   0.00  -0.00
  43   7    -0.02  -0.01   0.00    -0.00  -0.00   0.00    -0.00  -0.00   0.00
  44   1     0.10  -0.02   0.05     0.00  -0.00   0.00     0.00  -0.00   0.00
  45   1    -0.01   0.09  -0.06    -0.00   0.00  -0.00    -0.00   0.00  -0.00
  46   6    -0.00  -0.00  -0.00     0.00  -0.00   0.00     0.00   0.00  -0.00
  47   8     0.00   0.00   0.00    -0.00   0.00  -0.00    -0.00  -0.00   0.00
  48   7     0.00   0.00   0.00     0.00   0.00  -0.00    -0.00  -0.00  -0.00
  49   1    -0.00  -0.00  -0.00    -0.01  -0.00   0.00     0.01   0.00  -0.00
  50   1    -0.00   0.00   0.00    -0.00   0.00   0.00    -0.01   0.01   0.01
  51   7     0.00   0.00   0.00    -0.00  -0.00  -0.00    -0.00   0.00   0.00
  52   1    -0.01   0.01   0.00    -0.00   0.00   0.00     0.00  -0.00  -0.00
  53   1    -0.01  -0.01  -0.01     0.00   0.00   0.00     0.00   0.00   0.00
                    145                    146                    147
                        a                      a                      a 
 Frequencies --  3501.6276              3503.1607              3527.7125
 Red. masses --     1.4568                 1.8870                 1.9130
 Frc consts  --     0.0000                 0.0000                 0.0000
 IR Inten    --    21.2881                11.5221                11.6414
 Raman Activ --     0.0000                 0.0000                 0.0000
 Depolar     --     0.0000                 0.0000                 0.0000
 Atom AN      X      Y      Z        X      Y      Z        X      Y      Z
   1   8    -0.00  -0.00   0.00     0.00   0.00  -0.00     0.00   0.00  -0.00
   2   6     0.00   0.00   0.00    -0.00  -0.00  -0.00     0.00  -0.00  -0.00
   3   1     0.00  -0.00  -0.00    -0.00  -0.00  -0.00    -0.00   0.00   0.00
   4   1    -0.00  -0.00   0.00    -0.00   0.00  -0.00    -0.00  -0.00   0.00
   5   6     0.00  -0.00  -0.00    -0.00  -0.00  -0.00    -0.00  -0.00  -0.00
   6   1    -0.00   0.00  -0.00     0.00   0.00   0.00    -0.00   0.00   0.00
   7   1    -0.00   0.00   0.00     0.00  -0.00  -0.00     0.00  -0.00  -0.00
   8   7    -0.00   0.00  -0.00     0.00  -0.00  -0.00     0.00   0.00  -0.00
   9   6    -0.00  -0.00  -0.00    -0.00  -0.00  -0.00    -0.00  -0.00  -0.00
  10   1     0.00   0.00   0.00     0.00   0.00   0.00     0.00   0.00   0.00
  11   1    -0.00   0.00   0.00    -0.00  -0.00  -0.00     0.00  -0.00   0.00
  12   1    -0.00  -0.00   0.00     0.00   0.00  -0.00     0.00   0.00  -0.00
  13   6    -0.00   0.00  -0.00    -0.00  -0.00   0.00    -0.00   0.00   0.00
  14   1    -0.00   0.00  -0.00     0.00   0.00  -0.00    -0.00   0.00  -0.00
  15   1    -0.00   0.00   0.00    -0.00  -0.00  -0.00     0.00  -0.00  -0.00
  16   1     0.00  -0.00   0.00    -0.00  -0.00   0.00    -0.00  -0.00   0.00
  17   6    -0.00   0.00  -0.00    -0.00  -0.00  -0.00    -0.00  -0.00  -0.00
  18   1    -0.00   0.00  -0.00     0.00   0.00  -0.00    -0.00  -0.00  -0.00
  19   1     0.00  -0.00   0.00    -0.00  -0.00   0.00     0.00  -0.00   0.00
  20   1    -0.00   0.00  -0.00     0.00   0.00   0.00     0.00   0.00   0.00
  21   1     0.01   0.01  -0.00    -0.00  -0.00   0.00    -0.00  -0.00   0.00
  22   6     0.00   0.00  -0.00    -0.00   0.00   0.00    -0.00  -0.00   0.00
  23   8    -0.00  -0.00   0.00     0.00   0.00  -0.00     0.00  -0.00  -0.00
  24   7     0.00   0.00   0.00     0.01   0.01  -0.01     0.00  -0.00  -0.00
  25   1    -0.00  -0.00  -0.00    -0.03  -0.03  -0.04     0.00   0.00   0.00
  26   1    -0.00   0.00   0.00    -0.02   0.00   0.06    -0.00   0.00   0.01
  27   7    -0.00  -0.00   0.00    -0.00  -0.00  -0.00    -0.01  -0.00   0.02
  28   1     0.00   0.00  -0.00    -0.00  -0.00   0.01     0.02   0.01  -0.09
  29   1     0.00   0.00  -0.00     0.00   0.00  -0.00     0.01   0.00  -0.00
  30   6     0.00   0.00   0.00    -0.00  -0.00  -0.01    -0.00   0.00   0.00
  31   8    -0.00  -0.00  -0.00    -0.00  -0.00   0.00    -0.00  -0.00  -0.00
  32   7    -0.00   0.00   0.00     0.00  -0.00  -0.01     0.00   0.00   0.00
  33   1     0.00   0.00  -0.00    -0.03  -0.01   0.05     0.00   0.00  -0.00
  34   1    -0.00  -0.00  -0.00     0.02   0.02   0.00    -0.00  -0.00  -0.00
  35   7     0.00   0.00   0.00    -0.04  -0.16  -0.20    -0.00  -0.00   0.00
  36   1    -0.00  -0.00   0.00     0.04   0.09  -0.03     0.00   0.01  -0.00
  37   1    -0.00  -0.01  -0.01     0.10   0.51   0.80    -0.00  -0.00  -0.00
  38   6     0.00   0.00   0.00    -0.00  -0.00   0.00    -0.00  -0.00  -0.00
  39   8    -0.00   0.00  -0.00    -0.00   0.00  -0.00     0.00   0.00  -0.00
  40   7    -0.01  -0.03   0.01    -0.00  -0.00   0.00    -0.00   0.00  -0.00
  41   1     0.11   0.09  -0.01     0.00   0.00  -0.00    -0.00  -0.00  -0.00
  42   1    -0.06   0.01  -0.03    -0.00   0.00  -0.00     0.00  -0.00   0.00
  43   7     0.14   0.11  -0.02     0.00   0.00  -0.00     0.00   0.00   0.00
  44   1    -0.62   0.14  -0.30    -0.01   0.00  -0.01    -0.00   0.00  -0.00
  45   1     0.09  -0.55   0.37     0.00  -0.01   0.01     0.00  -0.00   0.00
  46   6     0.00   0.00  -0.00     0.00   0.00   0.00    -0.01  -0.00   0.00
  47   8    -0.00  -0.00   0.00    -0.00  -0.00  -0.00     0.00   0.00  -0.00
  48   7     0.00  -0.00  -0.00    -0.00  -0.00   0.00    -0.14   0.11   0.17
  49   1     0.00   0.00  -0.00     0.01   0.00  -0.00     0.09   0.02   0.01
  50   1    -0.00   0.00   0.00     0.00  -0.00  -0.00     0.47  -0.42  -0.66
  51   7    -0.00  -0.00  -0.00    -0.00   0.00   0.00     0.03  -0.06  -0.05
  52   1     0.00  -0.00  -0.00     0.00  -0.00  -0.00    -0.16   0.18   0.14
  53   1     0.00   0.00   0.00    -0.00  -0.00  -0.00     0.04   0.05   0.04
                    148                    149                    150
                        a                      a                      a 
 Frequencies --  3529.5430              3537.6519              3554.4489
 Red. masses --     1.8876                 1.9945                 2.1674
 Frc consts  --     0.0000                 0.0000                 0.0000
 IR Inten    --     8.8488                26.9996                23.6377
 Raman Activ --     0.0000                 0.0000                 0.0000
 Depolar     --     0.0000                 0.0000                 0.0000
 Atom AN      X      Y      Z        X      Y      Z        X      Y      Z
   1   8    -0.00  -0.00  -0.00    -0.00  -0.00   0.00     0.00   0.00  -0.00
   2   6     0.00   0.00   0.00    -0.00   0.00   0.00     0.00  -0.00  -0.00
   3   1    -0.00  -0.00  -0.00     0.00  -0.00  -0.00    -0.00   0.00   0.00
   4   1     0.00   0.00   0.00     0.00   0.00  -0.00     0.00   0.00  -0.00
   5   6    -0.00  -0.00  -0.00     0.00   0.00   0.00    -0.00  -0.00  -0.00
   6   1    -0.00   0.00  -0.00    -0.00  -0.00   0.00     0.00   0.00   0.00
   7   1     0.00   0.00  -0.00     0.00  -0.00  -0.00    -0.00   0.00  -0.00
   8   7    -0.00   0.00   0.00     0.00   0.00   0.00    -0.00   0.00  -0.00
   9   6     0.00   0.00   0.00     0.00   0.00   0.00     0.00   0.00   0.00
  10   1    -0.00  -0.00  -0.00    -0.00  -0.00  -0.00     0.00  -0.00   0.00
  11   1     0.00   0.00  -0.00     0.00  -0.00  -0.00     0.00  -0.00  -0.00
  12   1    -0.00  -0.00   0.00     0.00   0.00  -0.00     0.00   0.00  -0.00
  13   6    -0.00   0.00  -0.00     0.00  -0.00  -0.00     0.00  -0.00   0.00
  14   1    -0.00  -0.00   0.00     0.00   0.00   0.00     0.00   0.00  -0.00
  15   1    -0.00   0.00   0.00     0.00   0.00  -0.00     0.00  -0.00   0.00
  16   1     0.00  -0.00   0.00    -0.00   0.00  -0.00    -0.00   0.00  -0.00
  17   6    -0.00   0.00  -0.00     0.00  -0.00   0.00     0.00  -0.00   0.00
  18   1    -0.00  -0.00   0.00     0.00  -0.00   0.00     0.00   0.00  -0.00
  19   1     0.00   0.00   0.00    -0.00   0.00  -0.00    -0.00  -0.00  -0.00
  20   1    -0.00   0.00  -0.00    -0.00   0.00   0.00     0.00  -0.00   0.00
  21   1     0.00   0.00  -0.00     0.01   0.01  -0.00    -0.00  -0.00   0.00
  22   6     0.01   0.01  -0.01    -0.00   0.00   0.00     0.00   0.00   0.00
  23   8    -0.00  -0.00   0.00     0.00  -0.00  -0.00    -0.00  -0.00  -0.00
  24   7     0.01   0.01   0.02    -0.00  -0.00  -0.00    -0.00   0.00   0.00
  25   1    -0.04  -0.04  -0.05     0.00   0.00   0.00    -0.00  -0.00  -0.00
  26   1     0.00  -0.00  -0.01    -0.00   0.00   0.00     0.00  -0.00  -0.00
  27   7     0.07   0.03  -0.25    -0.00  -0.00   0.01    -0.00  -0.00   0.00
  28   1    -0.21  -0.10   0.93     0.00   0.00  -0.02     0.00   0.00  -0.00
  29   1    -0.06  -0.03  -0.00     0.01   0.00  -0.00     0.00   0.00  -0.00
  30   6    -0.00   0.00   0.00    -0.00   0.00   0.00     0.00   0.00   0.00
  31   8     0.00   0.00   0.00     0.00   0.00  -0.00    -0.00   0.00  -0.00
  32   7     0.00   0.00  -0.00     0.00   0.00  -0.00     0.00   0.00  -0.00
  33   1    -0.00  -0.00   0.00    -0.00  -0.00   0.00    -0.00  -0.00   0.00
  34   1    -0.00  -0.00  -0.00    -0.01  -0.01  -0.00    -0.00  -0.00  -0.00
  35   7     0.00   0.00   0.00    -0.00   0.00   0.00    -0.00  -0.00  -0.00
  36   1    -0.00  -0.00   0.00     0.00   0.00  -0.00     0.00   0.00  -0.00
  37   1    -0.00  -0.01  -0.02    -0.00  -0.00  -0.00     0.00   0.00   0.00
  38   6     0.00   0.00   0.00     0.00   0.00   0.00     0.01   0.01   0.00
  39   8    -0.00  -0.00  -0.00    -0.00  -0.00   0.00    -0.00  -0.00  -0.00
  40   7     0.00  -0.00   0.00     0.00  -0.00   0.00     0.28   0.05   0.08
  41   1     0.00   0.00   0.00     0.00  -0.00   0.00    -0.37  -0.34   0.06
  42   1    -0.00   0.00  -0.00    -0.01   0.00  -0.00    -0.68   0.16  -0.35
  43   7    -0.00   0.00  -0.00    -0.00   0.00  -0.00    -0.04   0.04  -0.04
  44   1    -0.00   0.00  -0.00     0.00  -0.00   0.00     0.12  -0.02   0.05
  45   1     0.00  -0.00   0.00     0.00  -0.00   0.00     0.02  -0.14   0.09
  46   6    -0.00  -0.00  -0.00    -0.00   0.01   0.01     0.00   0.00   0.00
  47   8    -0.00   0.00   0.00     0.00  -0.00  -0.00    -0.00  -0.00  -0.00
  48   7    -0.01   0.01   0.02    -0.05   0.03   0.05    -0.00  -0.00  -0.00
  49   1     0.01   0.00   0.00     0.03   0.01   0.00     0.00   0.00  -0.00
  50   1     0.05  -0.04  -0.07     0.14  -0.13  -0.21    -0.00   0.00   0.00
  51   7     0.00  -0.00  -0.00    -0.10   0.19   0.15     0.00  -0.00  -0.00
  52   1    -0.00   0.00   0.00     0.50  -0.57  -0.46    -0.00   0.00   0.00
  53   1     0.00   0.00   0.00    -0.12  -0.15  -0.12     0.00   0.00   0.00
                    151                    152                    153
                        a                      a                      a 
 Frequencies --  3555.6525              3566.9159              3567.5232
 Red. masses --     2.1804                 2.1854                 2.1877
 Frc consts  --     0.0000                 0.0000                 0.0000
 IR Inten    --    14.0907                23.3149                14.7815
 Raman Activ --     0.0000                 0.0000                 0.0000
 Depolar     --     0.0000                 0.0000                 0.0000
 Atom AN      X      Y      Z        X      Y      Z        X      Y      Z
   1   8     0.00   0.00   0.00    -0.00  -0.00   0.00     0.00   0.00  -0.00
   2   6     0.00   0.00  -0.00    -0.00   0.00   0.00     0.00   0.00   0.00
   3   1     0.00   0.00   0.00     0.00  -0.00  -0.00    -0.00  -0.00   0.00
   4   1     0.00   0.00   0.00    -0.00  -0.00   0.00     0.00   0.00   0.00
   5   6     0.00   0.00   0.00     0.00   0.00  -0.00     0.00   0.00   0.00
   6   1    -0.00  -0.00  -0.00    -0.00   0.00  -0.00    -0.00  -0.00  -0.00
   7   1    -0.00   0.00   0.00    -0.00   0.00   0.00    -0.00   0.00  -0.00
   8   7    -0.00  -0.00  -0.00    -0.00   0.00  -0.00    -0.00  -0.00   0.00
   9   6     0.00   0.00   0.00     0.00  -0.00  -0.00     0.00   0.00   0.00
  10   1    -0.00  -0.00  -0.00    -0.00   0.00  -0.00    -0.00  -0.00  -0.00
  11   1     0.00   0.00   0.00    -0.00   0.00   0.00     0.00   0.00  -0.00
  12   1    -0.00  -0.00   0.00    -0.00  -0.00   0.00     0.00   0.00   0.00
  13   6     0.00  -0.00   0.00    -0.00   0.00  -0.00     0.00  -0.00  -0.00
  14   1    -0.00  -0.00   0.00    -0.00  -0.00   0.00    -0.00  -0.00   0.00
  15   1     0.00   0.00   0.00    -0.00   0.00  -0.00    -0.00   0.00   0.00
  16   1    -0.00   0.00  -0.00     0.00  -0.00   0.00     0.00  -0.00   0.00
  17   6     0.00   0.00   0.00    -0.00   0.00  -0.00     0.00   0.00   0.00
  18   1     0.00   0.00   0.00    -0.00  -0.00   0.00    -0.00   0.00   0.00
  19   1    -0.00   0.00   0.00     0.00   0.00   0.00     0.00   0.00   0.00
  20   1    -0.00  -0.00  -0.00    -0.00   0.00  -0.00    -0.00  -0.00  -0.00
  21   1    -0.00  -0.00   0.00     0.01   0.01  -0.00    -0.00  -0.00   0.00
  22   6    -0.00  -0.00  -0.00    -0.00  -0.00   0.00    -0.00  -0.00  -0.01
  23   8     0.00   0.00   0.00     0.00   0.00  -0.00     0.00   0.00   0.00
  24   7    -0.00  -0.00  -0.00     0.00   0.00   0.00    -0.03  -0.10  -0.28
  25   1     0.00   0.00   0.00    -0.00  -0.00  -0.00     0.37   0.35   0.46
  26   1     0.00   0.00  -0.00     0.00  -0.00  -0.00    -0.23   0.01   0.62
  27   7     0.00   0.00   0.00     0.00   0.00  -0.00     0.01   0.00  -0.01
  28   1     0.00   0.00  -0.00    -0.00  -0.00   0.00    -0.01  -0.01   0.06
  29   1    -0.00  -0.00   0.00    -0.00  -0.00   0.00    -0.01  -0.00   0.00
  30   6     0.01   0.00  -0.00     0.00   0.00  -0.00    -0.00  -0.00   0.00
  31   8    -0.00  -0.00   0.00    -0.00  -0.00  -0.00     0.00   0.00  -0.00
  32   7     0.23   0.13  -0.15     0.00   0.00  -0.00    -0.00   0.00   0.00
  33   1    -0.41  -0.09   0.61    -0.00  -0.00   0.00     0.00   0.00  -0.00
  34   1    -0.45  -0.40  -0.04    -0.00  -0.00  -0.00    -0.00  -0.00   0.00
  35   7     0.00   0.01   0.01     0.00   0.00   0.00     0.00   0.00   0.00
  36   1    -0.01  -0.01   0.00    -0.00  -0.00   0.00    -0.00  -0.01   0.00
  37   1    -0.00  -0.01  -0.02    -0.00  -0.00  -0.00    -0.00  -0.00  -0.00
  38   6    -0.00  -0.00   0.00    -0.01   0.01  -0.01    -0.00   0.00  -0.00
  39   8     0.00   0.00   0.00     0.00  -0.00   0.00     0.00   0.00  -0.00
  40   7    -0.00  -0.00  -0.00    -0.06  -0.01  -0.02     0.00   0.00   0.00
  41   1     0.00   0.00  -0.00     0.08   0.08  -0.01    -0.00  -0.00   0.00
  42   1     0.00  -0.00   0.00     0.16  -0.04   0.08    -0.00   0.00  -0.00
  43   7     0.00  -0.00   0.00    -0.17   0.17  -0.16    -0.00   0.00  -0.00
  44   1    -0.00   0.00  -0.00     0.58  -0.11   0.26     0.00  -0.00   0.00
  45   1    -0.00   0.00  -0.00     0.06  -0.56   0.37     0.00  -0.00   0.00
  46   6     0.00  -0.00  -0.00    -0.00  -0.00  -0.00     0.00  -0.00  -0.00
  47   8    -0.00   0.00   0.00     0.00  -0.00   0.00    -0.00   0.00   0.00
  48   7     0.00  -0.00  -0.00     0.00   0.00   0.00     0.00  -0.00  -0.00
  49   1    -0.00  -0.00   0.00    -0.00  -0.00   0.00    -0.01  -0.00   0.00
  50   1    -0.00   0.00   0.00     0.00  -0.00  -0.00    -0.00   0.00   0.00
  51   7     0.00  -0.00  -0.00     0.00   0.00   0.00     0.00  -0.00  -0.00
  52   1    -0.00   0.01   0.00     0.00  -0.00  -0.00    -0.00   0.00   0.00
  53   1     0.00   0.00   0.00    -0.00   0.00  -0.00     0.00   0.00   0.00
