      -----------------------------------------------------------      
     |                   =====================                   |     
     |                           x T B                           |     
     |                   =====================                   |     
     |                         S. Grimme                         |     
     |          Mulliken Center for Theoretical Chemistry        |     
     |                    University of Bonn                     |     
      -----------------------------------------------------------      

   * xtb version 6.6.1 (unknown-commit) compiled by '@Linux' on 12/27/2023

   xtb is free software: you can redistribute it and/or modify it under
   the terms of the GNU Lesser General Public License as published by
   the Free Software Foundation, either version 3 of the License, or
   (at your option) any later version.
   
   xtb is distributed in the hope that it will be useful,
   but WITHOUT ANY WARRANTY; without even the implied warranty of
   MERCHANTABILITY or FITNESS FOR A PARTICULAR PURPOSE.  See the
   GNU Lesser General Public License for more details.
   
   Cite this work as:
   * C. Bannwarth, E. Caldeweyher, S. Ehlert, A. Hansen, P. Pracht,
     J. Seibert, S. Spicher, S. Grimme, WIREs Comput. Mol. Sci., 2020, 11,
     e01493. DOI: 10.1002/wcms.1493
   
   for GFN2-xTB:
   * C. Bannwarth, S. Ehlert and S. Grimme., J. Chem. Theory Comput., 2019,
     15, 1652-1671. DOI: 10.1021/acs.jctc.8b01176
   for GFN1-xTB:
   * S. Grimme, C. Bannwarth, P. Shushkov, J. Chem. Theory Comput., 2017,
     13, 1989-2009. DOI: 10.1021/acs.jctc.7b00118
   for GFN0-xTB:
   * P. Pracht, E. Caldeweyher, S. Ehlert, S. Grimme, ChemRxiv, 2019, preprint.
     DOI: 10.26434/chemrxiv.8326202.v1
   for GFN-FF:
   * S. Spicher and S. Grimme, Angew. Chem. Int. Ed., 2020, 59, 15665-15673.
     DOI: 10.1002/anie.202004239
   
   for ALPB and GBSA implicit solvation:
   * S. Ehlert, M. Stahn, S. Spicher, S. Grimme, J. Chem. Theory Comput.,
     2021, 17, 4250-4261. DOI: 10.1021/acs.jctc.1c00471
   
   for DFT-D4:
   * E. Caldeweyher, C. Bannwarth and S. Grimme, J. Chem. Phys., 2017,
     147, 034112. DOI: 10.1063/1.4993215
   * E. Caldeweyher, S. Ehlert, A. Hansen, H. Neugebauer, S. Spicher,
     C. Bannwarth and S. Grimme, J. Chem. Phys., 2019, 150, 154122.
     DOI: 10.1063/1.5090222
   * E. Caldeweyher, J.-M. Mewes, S. Ehlert and S. Grimme, Phys. Chem. Chem. Phys.
     2020, 22, 8499-8512. DOI: 10.1039/D0CP00502A
   
   for sTDA-xTB:
   * S. Grimme and C. Bannwarth, J. Chem. Phys., 2016, 145, 054103.
     DOI: 10.1063/1.4959605
   
   in the mass-spec context:
   * V. Asgeirsson, C. Bauer and S. Grimme, Chem. Sci., 2017, 8, 4879.
     DOI: 10.1039/c7sc00601b
   * J. Koopman and S. Grimme, ACS Omega 2019, 4, 12, 15120-15133.
     DOI: 10.1021/acsomega.9b02011
   
   for metadynamics refer to:
   * S. Grimme, J. Chem. Theory Comput., 2019, 155, 2847-2862
     DOI: 10.1021/acs.jctc.9b00143
   
   for SPH calculations refer to:
   * S. Spicher and S. Grimme, J. Chem. Theory Comput., 2021, 17, 1701-1714
     DOI: 10.1021/acs.jctc.0c01306
   
   with help from (in alphabetical order)
   P. Atkinson, C. Bannwarth, F. Bohle, G. Brandenburg, E. Caldeweyher
   M. Checinski, S. Dohm, S. Ehlert, S. Ehrlich, I. Gerasimov, C. Hölzer
   A. Katbashev, J. Koopman, C. Lavigne, S. Lehtola, F. März, M. Müller,
   F. Musil, H. Neugebauer, J. Pisarek, C. Plett, P. Pracht, F. Pultar,
   J. Seibert, P. Shushkov, S. Spicher, M. Stahn, M. Steiner, T. Strunk,
   J. Stückrath, T. Rose, and J. Unsleber
   
 * started run on 2024/01/10 at 15:42:00.132     

           -------------------------------------------------
          |                Calculation Setup                |
           -------------------------------------------------

          program call               : xtb struc.xyz --gfn2 --hess
          hostname                   : swaroop
          coordinate file            : struc.xyz
          omp threads                :                     1

   ID    Z sym.   atoms
    1    8 O      1, 23, 31, 39, 47
    2    6 C      2, 5, 9, 13, 17, 22, 30, 38, 46
    3    1 H      3, 4, 6, 7, 10-12, 14-16, 18-21, 25, 26, 28, 29, 33, 34,
                  36, 37, 41, 42, 44, 45, 49, 50, 52, 53
    4    7 N      8, 24, 27, 32, 35, 40, 43, 48, 51

molecular fragmentation (1/2 indicates fragments):
11111111111111111111122222222222222222222222222222222
# atoms in fragment 1/2:    21    32
 fragment masses (1/2) :      104.17      240.22
CMA distance (Bohr)    :   6.189
constraining FC (au)   :  0.0500

           -------------------------------------------------
          |                 G F N 2 - x T B                 |
           -------------------------------------------------

        Reference                      10.1021/acs.jctc.8b01176
      * Hamiltonian:
        H0-scaling (s, p, d)           1.850000    2.230000    2.230000
        zeta-weighting                 0.500000
      * Dispersion:
        s8                             2.700000
        a1                             0.520000
        a2                             5.000000
        s9                             5.000000
      * Repulsion:
        kExp                           1.500000    1.000000
        rExp                           1.000000
      * Coulomb:
        alpha                          2.000000
        third order                    shell-resolved
        anisotropic                    true
        a3                             3.000000
        a5                             4.000000
        cn-shift                       1.200000
        cn-exp                         4.000000
        max-rad                        5.000000


          ...................................................
          :                      SETUP                      :
          :.................................................:
          :  # basis functions                 122          :
          :  # atomic orbitals                 122          :
          :  # shells                           76          :
          :  # electrons                       140          :
          :  max. iterations                   250          :
          :  Hamiltonian                  GFN2-xTB          :
          :  restarted?                      false          :
          :  GBSA solvation                  false          :
          :  PC potential                    false          :
          :  electronic temp.          300.0000000     K    :
          :  accuracy                    1.0000000          :
          :  -> integral cutoff          0.2500000E+02      :
          :  -> integral neglect         0.1000000E-07      :
          :  -> SCF convergence          0.1000000E-05 Eh   :
          :  -> wf. convergence          0.1000000E-03 e    :
          :  Broyden damping             0.4000000          :
          ...................................................

 iter      E             dE          RMSdq      gap      omega  full diag
   1    -81.5475258 -0.815475E+02  0.425E+00    4.93       0.0  T
   2    -81.8328700 -0.285344E+00  0.230E+00    5.72       1.0  T
   3    -81.8387125 -0.584246E-02  0.113E+00    5.27       1.0  T
   4    -81.8400935 -0.138099E-02  0.245E-01    5.18       1.0  T
   5    -81.8410530 -0.959565E-03  0.901E-02    5.09       1.0  T
   6    -81.8410771 -0.240302E-04  0.278E-02    5.10       1.0  T
   7    -81.8410817 -0.465837E-05  0.755E-03    5.10       1.8  T
   8    -81.8410820 -0.259615E-06  0.294E-03    5.10       4.7  T
   9    -81.8410820 -0.550398E-07  0.104E-03    5.10      13.2  T
  10    -81.8410821 -0.700807E-08  0.228E-04    5.10      60.3  T
  11    -81.8410821 -0.451507E-09  0.870E-05    5.10     157.8  T

   *** convergence criteria satisfied after 11 iterations ***

         #    Occupation            Energy/Eh            Energy/eV
      -------------------------------------------------------------
         1        2.0000           -0.8084244             -21.9983
       ...           ...                  ...                  ...
        64        2.0000           -0.4873887             -13.2625
        65        2.0000           -0.4862193             -13.2307
        66        2.0000           -0.4816205             -13.1056
        67        2.0000           -0.4795941             -13.0504
        68        2.0000           -0.4769812             -12.9793
        69        2.0000           -0.4756258             -12.9424
        70        2.0000           -0.4737857             -12.8924 (HOMO)
        71                         -0.2864283              -7.7941 (LUMO)
        72                         -0.2583483              -7.0300
        73                         -0.2539615              -6.9106
        74                         -0.2458644              -6.6903
        75                         -0.1643542              -4.4723
       ...                                ...                  ...
       122                          0.5624008              15.3037
      -------------------------------------------------------------
                  HL-Gap            0.1873574 Eh            5.0983 eV
             Fermi-level           -0.3801070 Eh          -10.3432 eV

 SCC (total)                   0 d,  0 h,  0 min,  0.098 sec
 SCC setup                      ...        0 min,  0.000 sec (  0.288%)
 Dispersion                     ...        0 min,  0.001 sec (  0.602%)
 classical contributions        ...        0 min,  0.000 sec (  0.185%)
 integral evaluation            ...        0 min,  0.008 sec (  8.036%)
 iterations                     ...        0 min,  0.061 sec ( 62.497%)
 molecular gradient             ...        0 min,  0.028 sec ( 28.115%)
 printout                       ...        0 min,  0.000 sec (  0.265%)

         :::::::::::::::::::::::::::::::::::::::::::::::::::::
         ::                     SUMMARY                     ::
         :::::::::::::::::::::::::::::::::::::::::::::::::::::
         :: total energy             -80.932019039053 Eh    ::
         :: gradient norm              0.000182818295 Eh/a0 ::
         :: HOMO-LUMO gap              5.098254868327 eV    ::
         ::.................................................::
         :: SCC energy               -81.841082054631 Eh    ::
         :: -> isotropic ES            0.299227309384 Eh    ::
         :: -> anisotropic ES         -0.030156145629 Eh    ::
         :: -> anisotropic XC          0.020957170375 Eh    ::
         :: -> dispersion             -0.046149876555 Eh    ::
         :: repulsion energy           0.908008883881 Eh    ::
         :: add. restraining           0.000000000000 Eh    ::
         :: total charge               1.000000000000 e     ::
         :::::::::::::::::::::::::::::::::::::::::::::::::::::

           ------------------------------------------------- 
          |                Numerical Hessian                |
           ------------------------------------------------- 
step length          :   0.00500
SCC accuracy         :   0.30000
Hessian scale factor :   1.00000
frozen atoms in %    :   0.00000    0
RMS gradient         :   0.00018
estimated CPU  time      0.24 min
estimated wall time      0.24 min

writing file <hessian>.

 projected vibrational frequencies (cm⁻¹)
eigval :       -0.00    -0.00     0.00     0.00     0.00     0.00
eigval :       14.86    19.04    28.39    31.05    35.89    41.46
eigval :       53.89    57.00    57.62    60.19    62.50    74.60
eigval :       84.01   100.41   103.79   108.85   116.13   126.90
eigval :      130.21   141.46   148.30   161.71   168.90   188.28
eigval :      195.04   201.58   222.65   233.99   274.44   283.24
eigval :      306.51   324.15   343.21   350.75   366.66   375.64
eigval :      386.27   429.82   430.40   453.52   459.86   464.10
eigval :      464.62   465.37   465.91   474.52   477.00   491.81
eigval :      503.21   510.58   535.95   547.29   554.18   557.90
eigval :      563.20   565.42   614.66   659.76   668.51   671.10
eigval :      676.74   708.11   738.52   758.41   784.37   817.29
eigval :      892.86   918.63   951.26   966.71   987.49   993.18
eigval :      997.35  1005.62  1008.64  1018.11  1020.08  1024.80
eigval :     1027.78  1039.30  1044.70  1081.38  1090.01  1091.84
eigval :     1097.39  1107.64  1117.70  1127.83  1181.84  1222.12
eigval :     1257.44  1268.78  1301.67  1341.88  1347.08  1356.31
eigval :     1358.83  1361.32  1382.47  1385.27  1402.51  1414.08
eigval :     1427.20  1438.00  1443.57  1448.76  1449.47  1450.83
eigval :     1454.20  1460.11  1463.91  1472.80  1474.54  1476.00
eigval :     1484.50  1502.97  1510.67  1515.04  1517.84  1662.59
eigval :     1685.45  1696.27  1710.77  2924.20  2959.92  2991.25
eigval :     2998.70  3001.93  3038.86  3040.47  3043.50  3044.67
eigval :     3047.06  3048.71  3051.74  3069.56  3084.34  3131.55
eigval :     3253.46  3314.03  3407.91  3484.60  3486.70  3499.88
eigval :     3501.63  3503.16  3527.71  3529.54  3537.65  3554.45
eigval :     3555.65  3566.92  3567.52
           -------------------------------------------------
          |                Property Printout                |
           -------------------------------------------------

    * Orbital Energies and Occupations

         #    Occupation            Energy/Eh            Energy/eV
      -------------------------------------------------------------
         1        2.0000           -0.8084241             -21.9983
       ...           ...                  ...                  ...
        58        2.0000           -0.5252963             -14.2940
        59        2.0000           -0.5190313             -14.1236
        60        2.0000           -0.5143296             -13.9956
        61        2.0000           -0.5128121             -13.9543
        62        2.0000           -0.4930699             -13.4171
        63        2.0000           -0.4893328             -13.3154
        64        2.0000           -0.4873890             -13.2625
        65        2.0000           -0.4862198             -13.2307
        66        2.0000           -0.4816210             -13.1056
        67        2.0000           -0.4795945             -13.0504
        68        2.0000           -0.4769816             -12.9793
        69        2.0000           -0.4756263             -12.9425
        70        2.0000           -0.4737860             -12.8924 (HOMO)
        71                         -0.2864282              -7.7941 (LUMO)
        72                         -0.2583484              -7.0300
        73                         -0.2539621              -6.9107
        74                         -0.2458644              -6.6903
        75                         -0.1643539              -4.4723
        76                         -0.1181008              -3.2137
        77                         -0.0984021              -2.6777
        78                         -0.0881279              -2.3981
        79                         -0.0860065              -2.3404
        80                         -0.0787086              -2.1418
        81                         -0.0630181              -1.7148
       ...                                ...                  ...
       122                          0.5624006              15.3037
      -------------------------------------------------------------
                  HL-Gap            0.1873578 Eh            5.0983 eV
             Fermi-level           -0.3801071 Eh          -10.3432 eV

     #   Z          covCN         q      C6AA      α(0)
     1   8 O        1.652    -0.483    22.527     6.407
     2   6 C        3.672     0.071    19.618     6.348
     3   1 H        0.924     0.033     2.541     2.493
     4   1 H        0.924     0.083     1.952     2.185
     5   6 C        3.765    -0.064    21.777     6.651
     6   1 H        0.924     0.136     1.489     1.909
     7   1 H        0.924     0.074     2.040     2.234
     8   7 N        3.623     0.155    18.631     6.411
     9   6 C        3.736    -0.111    22.714     6.801
    10   1 H        0.924     0.138     1.475     1.899
    11   1 H        0.925     0.080     1.981     2.201
    12   1 H        0.925     0.086     1.922     2.168
    13   6 C        3.717    -0.105    22.628     6.795
    14   1 H        0.925     0.085     1.927     2.171
    15   1 H        0.925     0.081     1.965     2.192
    16   1 H        0.925     0.125     1.576     1.963
    17   6 C        3.726    -0.114    22.798     6.817
    18   1 H        0.925     0.083     1.952     2.185
    19   1 H        0.925     0.111     1.686     2.031
    20   1 H        0.925     0.132     1.516     1.926
    21   1 H        0.802     0.331     0.636     1.253
    22   6 C        2.675     0.342    21.195     7.534
    23   8 O        0.861    -0.528    24.410     6.624
    24   7 N        2.644    -0.287    27.396     7.774
    25   1 H        0.860     0.202     1.094     1.638
    26   1 H        0.861     0.183     1.197     1.714
    27   7 N        2.643    -0.312    28.023     7.862
    28   1 H        0.861     0.175     1.245     1.748
    29   1 H        0.859     0.245     0.903     1.488
    30   6 C        2.675     0.344    21.154     7.526
    31   8 O        0.860    -0.543    24.759     6.671
    32   7 N        2.646    -0.297    27.651     7.810
    33   1 H        0.860     0.192     1.146     1.677
    34   1 H        0.860     0.195     1.131     1.666
    35   7 N        2.645    -0.314    28.093     7.872
    36   1 H        0.860     0.224     0.992     1.560
    37   1 H        0.860     0.193     1.143     1.675
    38   6 C        2.675     0.345    21.144     7.524
    39   8 O        0.861    -0.527    24.399     6.623
    40   7 N        2.645    -0.286    27.382     7.772
    41   1 H        0.860     0.216     1.028     1.588
    42   1 H        0.861     0.192     1.149     1.679
    43   7 N        2.646    -0.277    27.168     7.741
    44   1 H        0.861     0.193     1.142     1.674
    45   1 H        0.860     0.209     1.063     1.615
    46   6 C        2.675     0.342    21.182     7.531
    47   8 O        0.860    -0.532    24.500     6.636
    48   7 N        2.644    -0.314    28.079     7.870
    49   1 H        0.860     0.235     0.945     1.523
    50   1 H        0.860     0.175     1.244     1.747
    51   7 N        2.644    -0.309    27.949     7.852
    52   1 H        0.861     0.173     1.254     1.754
    53   1 H        0.860     0.225     0.986     1.555

 Mol. C6AA /au·bohr⁶  :      21796.908973
 Mol. C8AA /au·bohr⁸  :     454397.999669
 Mol. α(0) /au        :        220.564372


Wiberg/Mayer (AO) data.
largest (>0.10) Wiberg bond orders for each atom

 ---------------------------------------------------------------------------
     #   Z sym  total        # sym  WBO       # sym  WBO       # sym  WBO
 ---------------------------------------------------------------------------
     1   8 O    1.960 --     2 C    1.014    21 H    0.796
     2   6 C    3.960 --     1 O    1.014     5 C    0.992     3 H    0.970
                             4 H    0.960
     3   1 H    0.999 --     2 C    0.970
     4   1 H    0.993 --     2 C    0.960
     5   6 C    3.924 --     2 C    0.992     7 H    0.969     6 H    0.945
                             8 N    0.930
     6   1 H    0.981 --     5 C    0.945
     7   1 H    0.994 --     5 C    0.969
     8   7 N    3.821 --    13 C    0.962     9 C    0.956    17 C    0.954
                             5 C    0.930
     9   6 C    3.921 --    11 H    0.979    12 H    0.977     8 N    0.956
                            10 H    0.950
    10   1 H    0.981 --     9 C    0.950
    11   1 H    0.994 --     9 C    0.979
    12   1 H    0.992 --     9 C    0.977
    13   6 C    3.931 --    15 H    0.979    14 H    0.977     8 N    0.962
                            16 H    0.958
    14   1 H    0.993 --    13 C    0.977
    15   1 H    0.993 --    13 C    0.979
    16   1 H    0.984 --    13 C    0.958
    17   6 C    3.914 --    18 H    0.978    19 H    0.966    20 H    0.959
                             8 N    0.954
    18   1 H    0.993 --    17 C    0.978
    19   1 H    0.988 --    17 C    0.966
    20   1 H    0.982 --    17 C    0.959
    21   1 H    0.890 --     1 O    0.796
    22   6 C    3.959 --    23 O    1.480    27 N    1.253    24 N    1.214
    23   8 O    1.910 --    22 C    1.480    27 N    0.142    24 N    0.129
    24   7 N    3.329 --    22 C    1.214    26 H    0.948    25 H    0.942
                            23 O    0.129
    25   1 H    0.959 --    24 N    0.942
    26   1 H    0.966 --    24 N    0.948
    27   7 N    3.334 --    22 C    1.253    28 H    0.950    29 H    0.863
                            23 O    0.142
    28   1 H    0.969 --    27 N    0.950
    29   1 H    0.940 --    27 N    0.863
    30   6 C    3.958 --    31 O    1.516    35 N    1.227    32 N    1.204
    31   8 O    1.877 --    30 C    1.516    35 N    0.139    32 N    0.136
    32   7 N    3.313 --    30 C    1.204    33 H    0.945    34 H    0.943
                            31 O    0.136
    33   1 H    0.963 --    32 N    0.945
    34   1 H    0.962 --    32 N    0.943
    35   7 N    3.306 --    30 C    1.227    37 H    0.940    36 H    0.890
                            31 O    0.139
    36   1 H    0.950 --    35 N    0.890
    37   1 H    0.963 --    35 N    0.940
    38   6 C    3.960 --    39 O    1.485    43 N    1.235    40 N    1.233
    39   8 O    1.915 --    38 C    1.485    40 N    0.138    43 N    0.135
    40   7 N    3.343 --    38 C    1.233    42 H    0.945    41 H    0.932
                            39 O    0.138
    41   1 H    0.953 --    40 N    0.932
    42   1 H    0.963 --    40 N    0.945
    43   7 N    3.346 --    38 C    1.235    44 H    0.944    45 H    0.940
                            39 O    0.135
    44   1 H    0.962 --    43 N    0.944
    45   1 H    0.956 --    43 N    0.940
    46   6 C    3.960 --    47 O    1.500    48 N    1.235    51 N    1.216
    47   8 O    1.908 --    46 C    1.500    48 N    0.140    51 N    0.134
    48   7 N    3.321 --    46 C    1.235    50 H    0.949    49 H    0.879
                            47 O    0.140
    49   1 H    0.945 --    48 N    0.879
    50   1 H    0.969 --    48 N    0.949
    51   7 N    3.313 --    46 C    1.216    52 H    0.951    53 H    0.904
                            47 O    0.134
    52   1 H    0.970 --    51 N    0.951
    53   1 H    0.949 --    51 N    0.904
 ---------------------------------------------------------------------------

Topologies differ in total number of bonds
Writing topology from bond orders to xtbtopo.mol

molecular dipole:
                 x           y           z       tot (Debye)
 q only:       -2.099      -2.289      -0.756
   full:       -2.326      -1.958      -1.050       8.177
molecular quadrupole (traceless):
                xx          xy          yy          xz          yz          zz
 q only:       35.818      39.409       0.657       6.891       0.298     -36.475
  q+dip:       41.819      47.366      -1.262       7.353       1.522     -40.557
   full:       42.025      46.296      -1.551       7.340       1.281     -40.474

           -------------------------------------------------
          |               Frequency Printout                |
           -------------------------------------------------
 projected vibrational frequencies (cm⁻¹)
eigval :       -0.00    -0.00     0.00     0.00     0.00     0.00
eigval :       14.86    19.04    28.39    31.05    35.89    41.46
eigval :       53.89    57.00    57.62    60.19    62.50    74.60
eigval :       84.01   100.41   103.79   108.85   116.13   126.90
eigval :      130.21   141.46   148.30   161.71   168.90   188.28
eigval :      195.04   201.58   222.65   233.99   274.44   283.24
eigval :      306.51   324.15   343.21   350.75   366.66   375.64
eigval :      386.27   429.82   430.40   453.52   459.86   464.10
eigval :      464.62   465.37   465.91   474.52   477.00   491.81
eigval :      503.21   510.58   535.95   547.29   554.18   557.90
eigval :      563.20   565.42   614.66   659.76   668.51   671.10
eigval :      676.74   708.11   738.52   758.41   784.37   817.29
eigval :      892.86   918.63   951.26   966.71   987.49   993.18
eigval :      997.35  1005.62  1008.64  1018.11  1020.08  1024.80
eigval :     1027.78  1039.30  1044.70  1081.38  1090.01  1091.84
eigval :     1097.39  1107.64  1117.70  1127.83  1181.84  1222.12
eigval :     1257.44  1268.78  1301.67  1341.88  1347.08  1356.31
eigval :     1358.83  1361.32  1382.47  1385.27  1402.51  1414.08
eigval :     1427.20  1438.00  1443.57  1448.76  1449.47  1450.83
eigval :     1454.20  1460.11  1463.91  1472.80  1474.54  1476.00
eigval :     1484.50  1502.97  1510.67  1515.04  1517.84  1662.59
eigval :     1685.45  1696.27  1710.77  2924.20  2959.92  2991.25
eigval :     2998.70  3001.93  3038.86  3040.47  3043.50  3044.67
eigval :     3047.06  3048.71  3051.74  3069.56  3084.34  3131.55
eigval :     3253.46  3314.03  3407.91  3484.60  3486.70  3499.88
eigval :     3501.63  3503.16  3527.71  3529.54  3537.65  3554.45
eigval :     3555.65  3566.92  3567.52
 reduced masses (amu)
   1: 12.93   2: 12.42   3: 12.08   4: 12.50   5: 12.37   6: 12.66   7: 11.99   8: 11.95
   9: 12.04  10: 12.01  11: 11.87  12: 12.40  13: 12.35  14: 12.09  15: 12.45  16: 12.90
  17: 12.70  18: 13.00  19: 13.01  20: 11.39  21: 12.87  22: 12.52  23: 12.61  24: 12.91
  25: 12.27  26: 12.41  27: 12.26  28: 12.61  29: 10.91  30: 12.88  31:  4.26  32: 10.97
  33:  2.98  34:  4.25  35:  6.92  36: 10.26  37:  6.21  38:  7.48  39:  1.61  40:  3.74
  41:  6.21  42:  3.73  43:  3.81  44:  3.36  45:  8.54  46:  4.02  47:  7.98  48:  5.47
  49:  7.93  50:  5.08  51:  2.51  52:  6.95  53:  7.19  54:  2.11  55:  7.10  56:  6.75
  57:  1.55  58: 10.59  59: 11.17  60: 11.44  61:  9.54  62: 11.42  63:  2.02  64:  7.72
  65: 11.52  66: 11.70  67: 11.05  68:  6.25  69:  3.62  70:  9.10  71:  2.51  72:  2.08
  73:  6.57  74:  8.76  75:  5.23  76:  5.14  77:  4.42  78:  5.22  79:  7.86  80:  7.45
  81:  8.08  82:  9.58  83:  9.86  84:  7.39  85:  9.91  86:  2.94  87:  5.50  88: 10.13
  89:  7.99  90:  7.27  91:  7.60  92:  5.28  93:  7.57  94:  7.46  95:  4.36  96:  5.39
  97:  5.27  98:  7.84  99:  6.88 100:  4.17 101:  3.68 102:  5.22 103:  5.27 104:  4.78
 105:  4.27 106:  4.24 107:  2.45 108:  2.52 109:  2.06 110:  2.39 111:  1.72 112:  2.30
 113:  2.87 114:  2.93 115:  1.83 116:  2.57 117:  2.64 118:  3.06 119:  1.97 120:  1.67
 121:  1.64 122:  7.33 123:  8.47 124:  9.29 125:  8.71 126: 12.40 127: 12.66 128: 12.63
 129: 12.74 130:  1.78 131:  1.66 132:  1.81 133:  1.83 134:  1.62 135:  1.88 136:  1.69
 137:  1.74 138:  1.89 139:  1.63 140:  1.52 141:  1.80 142:  1.89 143:  1.74 144:  1.83
 145:  1.78 146:  1.76 147:  1.64 148:  1.47 149:  1.45 150:  1.45 151:  1.46 152:  1.89
 153:  1.91 154:  1.89 155:  1.99 156:  2.17 157:  2.18 158:  2.19 159:  2.19
 IR intensities (km·mol⁻¹)
   1:  1.55   2:  2.10   3:  2.29   4:  1.20   5:  1.29   6:  1.39   7:  0.43   8:  1.36
   9:  0.58  10:  2.45  11:  3.08  12:  0.64  13:  6.41  14:  6.06  15:  1.26  16:  3.78
  17:  3.00  18: 10.94  19:  3.22  20:  2.48  21:  6.01  22:  7.33  23:  9.52  24: 17.68
  25: 13.65  26:  4.66  27:  6.48  28:  2.72  29:  6.92  30: 10.64  31: 23.45  32: 84.82
  33:154.94  34:  2.79  35:  3.55  36:  3.36  37:  3.32  38:  3.12  39:  1.33  40:456.62
  41: 30.10  42: 55.66  43:354.11  44:244.97  45:  7.09  46: 73.21  47:  3.83  48:  0.56
  49: 21.78  50: 11.76  51:  4.58  52: 19.53  53: 28.78  54:  7.47  55: 10.22  56: 52.54
  57: 47.30  58: 47.85  59: 41.37  60:  5.34  61: 35.09  62: 32.22  63: 57.35  64: 33.84
  65: 36.76  66: 17.43  67: 26.16  68:352.57  69:245.73  70:  2.83  71:262.26  72:249.38
  73:  5.88  74:  5.11  75:  4.86  76:  6.20  77:  1.46  78:  5.83  79: 42.03  80:  3.52
  81:  6.03  82:  0.06  83:  3.98  84: 30.09  85:  1.49  86:  0.32  87:  3.53  88:  0.56
  89:  4.02  90: 40.01  91:  0.61  92:  5.80  93:  1.52  94: 26.03  95: 17.41  96: 20.55
  97:  2.59  98:  6.05  99:  5.64 100: 15.66 101: 23.36 102:224.32 103: 55.34 104: 77.25
 105: 30.98 106: 58.60 107: 36.92 108:  8.82 109: 22.28 110:  4.98 111:  2.36 112: 11.19
 113:  5.76 114:  0.82 115:  9.64 116:  1.55 117: 15.31 118: 32.13 119: 39.63 120: 26.63
 121: 38.71 122:538.91 123: 22.75 124:874.15 125:364.28 126:365.36 127:****** 128:******
 129:621.93 130: 52.55 131: 18.75 132:  2.90 133: 56.91 134: 91.73 135: 55.50 136: 30.58
 137:  6.97 138: 43.50 139: 53.25 140: 13.27 141: 34.65 142:****** 143: 41.91 144:609.80
 145:661.30 146:952.51 147:255.18 148: 64.97 149: 20.56 150: 23.42 151: 21.29 152: 11.52
 153: 11.64 154:  8.85 155: 27.00 156: 23.64 157: 14.09 158: 23.31 159: 14.78
 Raman intensities (amu)
Molecule has no symmetry elements
It seems to be the C1 point group
   1:  0.00   2:  0.00   3:  0.00   4:  0.00   5:  0.00   6:  0.00   7:  0.00   8:  0.00
   9:  0.00  10:  0.00  11:  0.00  12:  0.00  13:  0.00  14:  0.00  15:  0.00  16:  0.00
  17:  0.00  18:  0.00  19:  0.00  20:  0.00  21:  0.00  22:  0.00  23:  0.00  24:  0.00
  25:  0.00  26:  0.00  27:  0.00  28:  0.00  29:  0.00  30:  0.00  31:  0.00  32:  0.00
  33:  0.00  34:  0.00  35:  0.00  36:  0.00  37:  0.00  38:  0.00  39:  0.00  40:  0.00
  41:  0.00  42:  0.00  43:  0.00  44:  0.00  45:  0.00  46:  0.00  47:  0.00  48:  0.00
  49:  0.00  50:  0.00  51:  0.00  52:  0.00  53:  0.00  54:  0.00  55:  0.00  56:  0.00
  57:  0.00  58:  0.00  59:  0.00  60:  0.00  61:  0.00  62:  0.00  63:  0.00  64:  0.00
  65:  0.00  66:  0.00  67:  0.00  68:  0.00  69:  0.00  70:  0.00  71:  0.00  72:  0.00
  73:  0.00  74:  0.00  75:  0.00  76:  0.00  77:  0.00  78:  0.00  79:  0.00  80:  0.00
  81:  0.00  82:  0.00  83:  0.00  84:  0.00  85:  0.00  86:  0.00  87:  0.00  88:  0.00
  89:  0.00  90:  0.00  91:  0.00  92:  0.00  93:  0.00  94:  0.00  95:  0.00  96:  0.00
  97:  0.00  98:  0.00  99:  0.00 100:  0.00 101:  0.00 102:  0.00 103:  0.00 104:  0.00
 105:  0.00 106:  0.00 107:  0.00 108:  0.00 109:  0.00 110:  0.00 111:  0.00 112:  0.00
 113:  0.00 114:  0.00 115:  0.00 116:  0.00 117:  0.00 118:  0.00 119:  0.00 120:  0.00
 121:  0.00 122:  0.00 123:  0.00 124:  0.00 125:  0.00 126:  0.00 127:  0.00 128:  0.00
 129:  0.00 130:  0.00 131:  0.00 132:  0.00 133:  0.00 134:  0.00 135:  0.00 136:  0.00
 137:  0.00 138:  0.00 139:  0.00 140:  0.00 141:  0.00 142:  0.00 143:  0.00 144:  0.00
 145:  0.00 146:  0.00 147:  0.00 148:  0.00 149:  0.00 150:  0.00 151:  0.00 152:  0.00
 153:  0.00 154:  0.00 155:  0.00 156:  0.00 157:  0.00 158:  0.00 159:  0.00
 output can be read by thermo (or use thermo option).
 writing <g98.out> molden fake output.
 recommended (thermochemical) frequency scaling factor: 1.0
           -------------------------------------------------
          |             Thermodynamic Functions             |
           -------------------------------------------------

c1  symmetry found (for desy threshold:  0.10E+00) used in thermo

          ...................................................
          :                      SETUP                      :
          :.................................................:
          :  # frequencies                         153      :
          :  # imaginary freq.                       0      :
          :  linear?                             false      :
          :  only rotor calc.                    false      :
          :  symmetry                               c1      :
          :  rotational number                       1      :
          :  scaling factor                  1.0000000      :
          :  rotor cutoff                   50.0000000 cm⁻¹ :
          :  imag. cutoff                  -20.0000000 cm⁻¹ :
          :.................................................:

    mode    ω/cm⁻¹     T·S(HO)/kcal·mol⁻¹    T·S(FR)/kcal·mol⁻¹   T·S(vib)
   ------------------------------------------------------------------------
       1     14.86    -2.15387 (  0.77%)    -1.41590 ( 99.23%)    -1.42161
       2     19.04    -2.00701 (  2.06%)    -1.34245 ( 97.94%)    -1.35615
       3     28.39    -1.77068 (  9.41%)    -1.22418 ( 90.59%)    -1.27563
       4     31.05    -1.71765 ( 12.95%)    -1.19762 ( 87.05%)    -1.26497
       5     35.89    -1.63198 ( 20.99%)    -1.15470 ( 79.01%)    -1.25486
       6     41.46    -1.54680 ( 32.10%)    -1.11199 ( 67.90%)    -1.25158
       7     53.89    -1.39213 ( 57.44%)    -1.03433 ( 42.56%)    -1.23984
       8     57.00    -1.35909 ( 62.81%)    -1.01771 ( 37.19%)    -1.23214
       9     57.62    -1.35270 ( 63.82%)    -1.01449 ( 36.18%)    -1.23034
      10     60.19    -1.32708 ( 67.74%)    -1.00160 ( 32.26%)    -1.22207
      11     62.50    -1.30493 ( 70.94%)    -0.99044 ( 29.06%)    -1.21353
      12     74.60    -1.20100 ( 83.21%)    -0.93800 ( 16.79%)    -1.15683
      13     84.01    -1.13148 ( 88.85%)    -0.90282 ( 11.15%)    -1.10599
      14    100.41    -1.02750 ( 94.21%)    -0.84997 (  5.79%)    -1.01722
      15    103.79    -1.00831 ( 94.89%)    -0.84018 (  5.11%)    -0.99972
      16    108.85    -0.98071 ( 95.74%)    -0.82608 (  4.26%)    -0.97412
      17    116.13    -0.94329 ( 96.68%)    -0.80690 (  3.32%)    -0.93876
      18    126.90    -0.89223 ( 97.65%)    -0.78064 (  2.35%)    -0.88961
      19    130.21    -0.87742 ( 97.87%)    -0.77299 (  2.13%)    -0.87520
      20    141.46    -0.83008 ( 98.46%)    -0.74846 (  1.54%)    -0.82882
      21    148.30    -0.80320 ( 98.72%)    -0.73446 (  1.28%)    -0.80232
      22    161.71    -0.75424 ( 99.09%)    -0.70883 (  0.91%)    -0.75383
      23    168.90    -0.72976 ( 99.24%)    -0.69592 (  0.76%)    -0.72950
      24    188.28    -0.66925 ( 99.51%)    -0.66375 (  0.49%)    -0.66922
      25    195.04    -0.64979 ( 99.57%)    -0.65331 (  0.43%)    -0.64980
      26    201.58    -0.63167 ( 99.62%)    -0.64354 (  0.38%)    -0.63172
      27    222.65    -0.57765 ( 99.75%)    -0.61409 (  0.25%)    -0.57774
      28    233.99    -0.55102 ( 99.79%)    -0.59937 (  0.21%)    -0.55112
      29    274.44    -0.46752 ( 99.89%)    -0.55213 (  0.11%)    -0.46761
      30    283.24    -0.45140 ( 99.90%)    -0.54278 (  0.10%)    -0.45149
   ------------------------------------------------------------------------

   temp. (K)  partition function   enthalpy   heat capacity  entropy
                                   cal/mol     cal/K/mol   cal/K/mol   J/K/mol
 298.15  VIB  0.721E+16            19044.469    104.401    124.005
         ROT  0.137E+08              888.752      2.981     35.641
         INT  0.990E+23            19933.221    107.382    159.646
         TR   0.618E+28             1481.254      4.968     43.384
         TOT                       21414.4752   112.3497   203.0300   849.4777

       T/K    H(0)-H(T)+PV         H(T)/Eh          T*S/Eh         G(T)/Eh
   ------------------------------------------------------------------------
    298.15    0.341261E-01    0.474260E+00    0.964661E-01    0.377794E+00
   ------------------------------------------------------------------------

         :::::::::::::::::::::::::::::::::::::::::::::::::::::
         ::                  THERMODYNAMIC                  ::
         :::::::::::::::::::::::::::::::::::::::::::::::::::::
         :: total free energy         -80.554225297094 Eh   ::
         ::.................................................::
         :: total energy              -80.932019039079 Eh   ::
         :: zero point energy           0.440133731729 Eh   ::
         :: G(RRHO) w/o ZPVE           -0.062339989744 Eh   ::
         :: G(RRHO) contrib.            0.377793741985 Eh   ::
         :::::::::::::::::::::::::::::::::::::::::::::::::::::

           -------------------------------------------------
          | TOTAL ENERGY              -80.932019039079 Eh   |
          | TOTAL ENTHALPY            -80.457759168928 Eh   |
          | TOTAL FREE ENERGY         -80.554225297094 Eh   |
          | GRADIENT NORM               0.000182599917 Eh/α |
          | HOMO-LUMO GAP               5.098265324994 eV   |
           -------------------------------------------------

------------------------------------------------------------------------
 * finished run on 2024/01/10 at 15:42:14.599     
------------------------------------------------------------------------
 total:
 * wall-time:     0 d,  0 h,  0 min, 14.467 sec
 *  cpu-time:     0 d,  0 h,  0 min, 14.391 sec
 * ratio c/w:     0.995 speedup
 SCF:
 * wall-time:     0 d,  0 h,  0 min,  0.098 sec
 *  cpu-time:     0 d,  0 h,  0 min,  0.059 sec
 * ratio c/w:     0.599 speedup
 analytical hessian:
 * wall-time:     0 d,  0 h,  0 min, 14.342 sec
 *  cpu-time:     0 d,  0 h,  0 min, 14.306 sec
 * ratio c/w:     0.997 speedup

