      -----------------------------------------------------------      
     |                   =====================                   |     
     |                           x T B                           |     
     |                   =====================                   |     
     |                         S. Grimme                         |     
     |          Mulliken Center for Theoretical Chemistry        |     
     |                    University of Bonn                     |     
      -----------------------------------------------------------      

   * xtb version 6.6.1 (unknown-commit) compiled by '@Linux' on 12/27/2023

   xtb is free software: you can redistribute it and/or modify it under
   the terms of the GNU Lesser General Public License as published by
   the Free Software Foundation, either version 3 of the License, or
   (at your option) any later version.
   
   xtb is distributed in the hope that it will be useful,
   but WITHOUT ANY WARRANTY; without even the implied warranty of
   MERCHANTABILITY or FITNESS FOR A PARTICULAR PURPOSE.  See the
   GNU Lesser General Public License for more details.
   
   Cite this work as:
   * C. Bannwarth, E. Caldeweyher, S. Ehlert, A. Hansen, P. Pracht,
     J. Seibert, S. Spicher, S. Grimme, WIREs Comput. Mol. Sci., 2020, 11,
     e01493. DOI: 10.1002/wcms.1493
   
   for GFN2-xTB:
   * C. Bannwarth, S. Ehlert and S. Grimme., J. Chem. Theory Comput., 2019,
     15, 1652-1671. DOI: 10.1021/acs.jctc.8b01176
   for GFN1-xTB:
   * S. Grimme, C. Bannwarth, P. Shushkov, J. Chem. Theory Comput., 2017,
     13, 1989-2009. DOI: 10.1021/acs.jctc.7b00118
   for GFN0-xTB:
   * P. Pracht, E. Caldeweyher, S. Ehlert, S. Grimme, ChemRxiv, 2019, preprint.
     DOI: 10.26434/chemrxiv.8326202.v1
   for GFN-FF:
   * S. Spicher and S. Grimme, Angew. Chem. Int. Ed., 2020, 59, 15665-15673.
     DOI: 10.1002/anie.202004239
   
   for ALPB and GBSA implicit solvation:
   * S. Ehlert, M. Stahn, S. Spicher, S. Grimme, J. Chem. Theory Comput.,
     2021, 17, 4250-4261. DOI: 10.1021/acs.jctc.1c00471
   
   for DFT-D4:
   * E. Caldeweyher, C. Bannwarth and S. Grimme, J. Chem. Phys., 2017,
     147, 034112. DOI: 10.1063/1.4993215
   * E. Caldeweyher, S. Ehlert, A. Hansen, H. Neugebauer, S. Spicher,
     C. Bannwarth and S. Grimme, J. Chem. Phys., 2019, 150, 154122.
     DOI: 10.1063/1.5090222
   * E. Caldeweyher, J.-M. Mewes, S. Ehlert and S. Grimme, Phys. Chem. Chem. Phys.
     2020, 22, 8499-8512. DOI: 10.1039/D0CP00502A
   
   for sTDA-xTB:
   * S. Grimme and C. Bannwarth, J. Chem. Phys., 2016, 145, 054103.
     DOI: 10.1063/1.4959605
   
   in the mass-spec context:
   * V. Asgeirsson, C. Bauer and S. Grimme, Chem. Sci., 2017, 8, 4879.
     DOI: 10.1039/c7sc00601b
   * J. Koopman and S. Grimme, ACS Omega 2019, 4, 12, 15120-15133.
     DOI: 10.1021/acsomega.9b02011
   
   for metadynamics refer to:
   * S. Grimme, J. Chem. Theory Comput., 2019, 155, 2847-2862
     DOI: 10.1021/acs.jctc.9b00143
   
   for SPH calculations refer to:
   * S. Spicher and S. Grimme, J. Chem. Theory Comput., 2021, 17, 1701-1714
     DOI: 10.1021/acs.jctc.0c01306
   
   with help from (in alphabetical order)
   P. Atkinson, C. Bannwarth, F. Bohle, G. Brandenburg, E. Caldeweyher
   M. Checinski, S. Dohm, S. Ehlert, S. Ehrlich, I. Gerasimov, C. Hölzer
   A. Katbashev, J. Koopman, C. Lavigne, S. Lehtola, F. März, M. Müller,
   F. Musil, H. Neugebauer, J. Pisarek, C. Plett, P. Pracht, F. Pultar,
   J. Seibert, P. Shushkov, S. Spicher, M. Stahn, M. Steiner, T. Strunk,
   J. Stückrath, T. Rose, and J. Unsleber
   
 * started run on 2024/01/10 at 15:39:34.601     

           -------------------------------------------------
          |                Calculation Setup                |
           -------------------------------------------------

          program call               : xtb struc.xyz --gfn2 --hess
          hostname                   : swaroop
          coordinate file            : struc.xyz
          omp threads                :                     1

   ID    Z sym.   atoms
    1    8 O      1, 23, 31, 39, 47
    2    6 C      2, 5, 9, 13, 17, 22, 30, 38, 46
    3    1 H      3, 4, 6, 7, 10-12, 14-16, 18-21, 25, 26, 28, 29, 33, 34,
                  36, 37, 41, 42, 44, 45, 49, 50, 52, 53
    4    7 N      8, 24, 27, 32, 35, 40, 43, 48, 51

molecular fragmentation (1/2 indicates fragments):
11111111111111111111122222222222222222222222222222222
# atoms in fragment 1/2:    21    32
 fragment masses (1/2) :      104.17      240.22
CMA distance (Bohr)    :  10.899
constraining FC (au)   :  0.0500

           -------------------------------------------------
          |                 G F N 2 - x T B                 |
           -------------------------------------------------

        Reference                      10.1021/acs.jctc.8b01176
      * Hamiltonian:
        H0-scaling (s, p, d)           1.850000    2.230000    2.230000
        zeta-weighting                 0.500000
      * Dispersion:
        s8                             2.700000
        a1                             0.520000
        a2                             5.000000
        s9                             5.000000
      * Repulsion:
        kExp                           1.500000    1.000000
        rExp                           1.000000
      * Coulomb:
        alpha                          2.000000
        third order                    shell-resolved
        anisotropic                    true
        a3                             3.000000
        a5                             4.000000
        cn-shift                       1.200000
        cn-exp                         4.000000
        max-rad                        5.000000


          ...................................................
          :                      SETUP                      :
          :.................................................:
          :  # basis functions                 122          :
          :  # atomic orbitals                 122          :
          :  # shells                           76          :
          :  # electrons                       140          :
          :  max. iterations                   250          :
          :  Hamiltonian                  GFN2-xTB          :
          :  restarted?                      false          :
          :  GBSA solvation                  false          :
          :  PC potential                    false          :
          :  electronic temp.          300.0000000     K    :
          :  accuracy                    1.0000000          :
          :  -> integral cutoff          0.2500000E+02      :
          :  -> integral neglect         0.1000000E-07      :
          :  -> SCF convergence          0.1000000E-05 Eh   :
          :  -> wf. convergence          0.1000000E-03 e    :
          :  Broyden damping             0.4000000          :
          ...................................................

 iter      E             dE          RMSdq      gap      omega  full diag
   1    -81.5415071 -0.815415E+02  0.426E+00    5.00       0.0  T
   2    -81.8308080 -0.289301E+00  0.230E+00    5.69       1.0  T
   3    -81.8365356 -0.572758E-02  0.114E+00    5.35       1.0  T
   4    -81.8378516 -0.131603E-02  0.240E-01    5.35       1.0  T
   5    -81.8387315 -0.879853E-03  0.905E-02    5.26       1.0  T
   6    -81.8387557 -0.242571E-04  0.266E-02    5.26       1.0  T
   7    -81.8387606 -0.485204E-05  0.777E-03    5.26       1.8  T
   8    -81.8387609 -0.300585E-06  0.289E-03    5.25       4.8  T
   9    -81.8387609 -0.290987E-07  0.108E-03    5.25      12.7  T
  10    -81.8387609 -0.838270E-08  0.229E-04    5.25      59.9  T
  11    -81.8387609 -0.643013E-09  0.914E-05    5.25     150.3  T

   *** convergence criteria satisfied after 11 iterations ***

         #    Occupation            Energy/Eh            Energy/eV
      -------------------------------------------------------------
         1        2.0000           -0.8081843             -21.9918
       ...           ...                  ...                  ...
        64        2.0000           -0.4919563             -13.3868
        65        2.0000           -0.4875377             -13.2666
        66        2.0000           -0.4861905             -13.2299
        67        2.0000           -0.4854979             -13.2111
        68        2.0000           -0.4800395             -13.0625
        69        2.0000           -0.4784141             -13.0183
        70        2.0000           -0.4713387             -12.8258 (HOMO)
        71                         -0.2782790              -7.5724 (LUMO)
        72                         -0.2608429              -7.0979
        73                         -0.2552003              -6.9444
        74                         -0.2529104              -6.8820
        75                         -0.1654220              -4.5014
       ...                                ...                  ...
       122                          0.5822705              15.8444
      -------------------------------------------------------------
                  HL-Gap            0.1930597 Eh            5.2534 eV
             Fermi-level           -0.3748089 Eh          -10.1991 eV

 SCC (total)                   0 d,  0 h,  0 min,  0.097 sec
 SCC setup                      ...        0 min,  0.000 sec (  0.300%)
 Dispersion                     ...        0 min,  0.001 sec (  0.605%)
 classical contributions        ...        0 min,  0.000 sec (  0.188%)
 integral evaluation            ...        0 min,  0.008 sec (  7.780%)
 iterations                     ...        0 min,  0.061 sec ( 63.069%)
 molecular gradient             ...        0 min,  0.027 sec ( 27.772%)
 printout                       ...        0 min,  0.000 sec (  0.274%)

         :::::::::::::::::::::::::::::::::::::::::::::::::::::
         ::                     SUMMARY                     ::
         :::::::::::::::::::::::::::::::::::::::::::::::::::::
         :: total energy             -80.931522985374 Eh    ::
         :: gradient norm              0.000050206410 Eh/a0 ::
         :: HOMO-LUMO gap              5.253421939558 eV    ::
         ::.................................................::
         :: SCC energy               -81.838760919576 Eh    ::
         :: -> isotropic ES            0.298165809819 Eh    ::
         :: -> anisotropic ES         -0.031077093924 Eh    ::
         :: -> anisotropic XC          0.021197389789 Eh    ::
         :: -> dispersion             -0.043272844363 Eh    ::
         :: repulsion energy           0.906433900076 Eh    ::
         :: add. restraining           0.000000000000 Eh    ::
         :: total charge               1.000000000000 e     ::
         :::::::::::::::::::::::::::::::::::::::::::::::::::::

           ------------------------------------------------- 
          |                Numerical Hessian                |
           ------------------------------------------------- 
step length          :   0.00500
SCC accuracy         :   0.30000
Hessian scale factor :   1.00000
frozen atoms in %    :   0.00000    0
RMS gradient         :   0.00005
estimated CPU  time      0.24 min
estimated wall time      0.24 min

writing file <hessian>.

 projected vibrational frequencies (cm⁻¹)
eigval :       -0.00    -0.00    -0.00    -0.00     0.00     0.00
eigval :       11.37    14.49    21.84    25.57    29.93    37.35
eigval :       38.40    47.82    55.60    60.02    69.12    71.79
eigval :       75.69    82.67    91.54    98.05   100.78   110.53
eigval :      127.29   128.55   146.98   170.37   175.81   183.42
eigval :      185.32   189.89   247.67   251.65   267.95   309.41
eigval :      313.51   319.33   334.27   335.24   352.77   366.58
eigval :      422.74   454.39   455.14   462.91   467.27   472.11
eigval :      477.51   483.00   492.42   497.20   501.80   506.70
eigval :      528.73   541.16   542.32   551.22   554.12   564.83
eigval :      574.35   578.50   608.27   659.38   671.41   674.71
eigval :      681.16   684.67   731.71   759.70   766.18   878.31
eigval :      891.37   926.85   949.70   972.25   973.43   996.62
eigval :     1003.30  1007.99  1008.89  1013.23  1019.42  1020.98
eigval :     1022.62  1031.08  1042.45  1081.49  1087.11  1094.09
eigval :     1101.20  1107.82  1113.78  1133.62  1172.26  1227.07
eigval :     1247.09  1268.08  1303.47  1327.43  1337.17  1342.53
eigval :     1359.98  1367.94  1376.00  1398.70  1408.92  1413.33
eigval :     1425.46  1433.94  1443.44  1448.42  1450.22  1454.43
eigval :     1459.54  1461.62  1469.50  1472.66  1476.50  1478.97
eigval :     1482.31  1495.29  1504.71  1509.69  1519.96  1662.08
eigval :     1692.01  1702.99  1736.44  2888.49  2910.60  2955.62
eigval :     2972.46  2996.37  3024.72  3033.01  3038.03  3040.48
eigval :     3043.50  3046.26  3049.24  3053.46  3061.11  3186.57
eigval :     3315.25  3334.41  3418.99  3437.34  3468.07  3482.34
eigval :     3489.62  3500.37  3515.01  3517.98  3524.66  3555.18
eigval :     3559.17  3560.70  3565.31
           -------------------------------------------------
          |                Property Printout                |
           -------------------------------------------------

    * Orbital Energies and Occupations

         #    Occupation            Energy/Eh            Energy/eV
      -------------------------------------------------------------
         1        2.0000           -0.8081843             -21.9918
       ...           ...                  ...                  ...
        58        2.0000           -0.5161807             -14.0460
        59        2.0000           -0.5111249             -13.9084
        60        2.0000           -0.5098199             -13.8729
        61        2.0000           -0.5002430             -13.6123
        62        2.0000           -0.4984696             -13.5640
        63        2.0000           -0.4933988             -13.4261
        64        2.0000           -0.4919566             -13.3868
        65        2.0000           -0.4875386             -13.2666
        66        2.0000           -0.4861906             -13.2299
        67        2.0000           -0.4854987             -13.2111
        68        2.0000           -0.4800403             -13.0626
        69        2.0000           -0.4784150             -13.0183
        70        2.0000           -0.4713397             -12.8258 (HOMO)
        71                         -0.2782798              -7.5724 (LUMO)
        72                         -0.2608430              -7.0979
        73                         -0.2552007              -6.9444
        74                         -0.2529110              -6.8821
        75                         -0.1654220              -4.5014
        76                         -0.1119656              -3.0467
        77                         -0.0996631              -2.7120
        78                         -0.0874320              -2.3791
        79                         -0.0865414              -2.3549
        80                         -0.0805348              -2.1915
        81                         -0.0720238              -1.9599
       ...                                ...                  ...
       122                          0.5822701              15.8444
      -------------------------------------------------------------
                  HL-Gap            0.1930600 Eh            5.2534 eV
             Fermi-level           -0.3748098 Eh          -10.1991 eV

     #   Z          covCN         q      C6AA      α(0)
     1   8 O        1.651    -0.488    22.643     6.424
     2   6 C        3.673     0.077    19.529     6.333
     3   1 H        0.924     0.050     2.324     2.384
     4   1 H        0.923     0.045     2.381     2.413
     5   6 C        3.764    -0.066    21.811     6.657
     6   1 H        0.924     0.129     1.542     1.942
     7   1 H        0.924     0.072     2.064     2.247
     8   7 N        3.623     0.156    18.606     6.406
     9   6 C        3.726    -0.114    22.782     6.815
    10   1 H        0.925     0.130     1.532     1.936
    11   1 H        0.925     0.079     1.991     2.206
    12   1 H        0.925     0.117     1.640     2.003
    13   6 C        3.732    -0.110    22.695     6.800
    14   1 H        0.924     0.138     1.473     1.898
    15   1 H        0.925     0.081     1.968     2.194
    16   1 H        0.925     0.086     1.913     2.163
    17   6 C        3.718    -0.095    22.438     6.766
    18   1 H        0.925     0.085     1.926     2.170
    19   1 H        0.925     0.108     1.710     2.045
    20   1 H        0.925     0.088     1.903     2.157
    21   1 H        0.800     0.341     0.610     1.228
    22   6 C        2.675     0.344    21.161     7.528
    23   8 O        0.860    -0.496    23.687     6.525
    24   7 N        2.646    -0.319    28.213     7.889
    25   1 H        0.860     0.191     1.153     1.682
    26   1 H        0.860     0.205     1.081     1.628
    27   7 N        2.647    -0.293    27.543     7.794
    28   1 H        0.860     0.213     1.042     1.599
    29   1 H        0.861     0.198     1.115     1.654
    30   6 C        2.675     0.341    21.204     7.535
    31   8 O        0.860    -0.551    24.939     6.696
    32   7 N        2.644    -0.330    28.494     7.928
    33   1 H        0.860     0.182     1.204     1.719
    34   1 H        0.860     0.211     1.052     1.606
    35   7 N        2.644    -0.321    28.268     7.896
    36   1 H        0.860     0.190     1.158     1.686
    37   1 H        0.860     0.231     0.960     1.535
    38   6 C        2.675     0.341    21.201     7.535
    39   8 O        0.861    -0.531    24.470     6.632
    40   7 N        2.646    -0.293    27.561     7.797
    41   1 H        0.860     0.209     1.060     1.613
    42   1 H        0.861     0.185     1.188     1.708
    43   7 N        2.644    -0.296    27.639     7.808
    44   1 H        0.860     0.182     1.203     1.718
    45   1 H        0.859     0.253     0.873     1.463
    46   6 C        2.675     0.345    21.146     7.525
    47   8 O        0.860    -0.527    24.381     6.620
    48   7 N        2.645    -0.282    27.294     7.759
    49   1 H        0.860     0.206     1.075     1.624
    50   1 H        0.861     0.190     1.157     1.685
    51   7 N        2.645    -0.289    27.454     7.782
    52   1 H        0.861     0.189     1.163     1.690
    53   1 H        0.860     0.212     1.048     1.604

 Mol. C6AA /au·bohr⁶  :      21810.968800
 Mol. C8AA /au·bohr⁸  :     454596.006071
 Mol. α(0) /au        :        220.649440


Wiberg/Mayer (AO) data.
largest (>0.10) Wiberg bond orders for each atom

 ---------------------------------------------------------------------------
     #   Z sym  total        # sym  WBO       # sym  WBO       # sym  WBO
 ---------------------------------------------------------------------------
     1   8 O    1.939 --     2 C    1.028    21 H    0.782
     2   6 C    3.968 --     1 O    1.028     5 C    0.988     3 H    0.968
                             4 H    0.961
     3   1 H    0.997 --     2 C    0.968
     4   1 H    0.998 --     2 C    0.961
     5   6 C    3.925 --     2 C    0.988     7 H    0.970     6 H    0.945
                             8 N    0.931
     6   1 H    0.983 --     5 C    0.945
     7   1 H    0.995 --     5 C    0.970
     8   7 N    3.821 --    17 C    0.965    13 C    0.957     9 C    0.951
                             5 C    0.931
     9   6 C    3.911 --    11 H    0.979    12 H    0.963    10 H    0.958
                             8 N    0.951
    10   1 H    0.983 --     9 C    0.958
    11   1 H    0.994 --     9 C    0.979
    12   1 H    0.986 --     9 C    0.963
    13   6 C    3.923 --    15 H    0.978    16 H    0.977     8 N    0.957
                            14 H    0.956
    14   1 H    0.981 --    13 C    0.956
    15   1 H    0.993 --    13 C    0.978
    16   1 H    0.992 --    13 C    0.977
    17   6 C    3.938 --    18 H    0.978    20 H    0.977    19 H    0.972
                             8 N    0.965
    18   1 H    0.993 --    17 C    0.978
    19   1 H    0.988 --    17 C    0.972
    20   1 H    0.992 --    17 C    0.977
    21   1 H    0.884 --     1 O    0.782
    22   6 C    3.959 --    23 O    1.554    27 N    1.235    24 N    1.158
    23   8 O    1.950 --    22 C    1.554    27 N    0.153    24 N    0.132
    24   7 N    3.289 --    22 C    1.158    25 H    0.945    26 H    0.924
                            23 O    0.132
    25   1 H    0.963 --    24 N    0.945
    26   1 H    0.958 --    24 N    0.924
    27   7 N    3.345 --    22 C    1.235    29 H    0.943    28 H    0.923
                            23 O    0.153
    28   1 H    0.954 --    27 N    0.923
    29   1 H    0.961 --    27 N    0.943
    30   6 C    3.959 --    31 O    1.507    35 N    1.250    32 N    1.190
    31   8 O    1.871 --    30 C    1.507    35 N    0.145    32 N    0.129
    32   7 N    3.283 --    30 C    1.190    33 H    0.949    34 H    0.900
                            31 O    0.129
    33   1 H    0.967 --    32 N    0.949
    34   1 H    0.955 --    32 N    0.900
    35   7 N    3.328 --    30 C    1.250    36 H    0.919    37 H    0.888
                            31 O    0.145
    36   1 H    0.964 --    35 N    0.919
    37   1 H    0.947 --    35 N    0.888
    38   6 C    3.960 --    39 O    1.458    43 N    1.276    40 N    1.217
    39   8 O    1.930 --    38 C    1.458    43 N    0.136    40 N    0.128
    40   7 N    3.328 --    38 C    1.217    42 H    0.947    41 H    0.934
                            39 O    0.128
    41   1 H    0.956 --    40 N    0.934
    42   1 H    0.966 --    40 N    0.947
    43   7 N    3.351 --    38 C    1.276    44 H    0.947    45 H    0.862
                            39 O    0.136
    44   1 H    0.966 --    43 N    0.947
    45   1 H    0.936 --    43 N    0.862
    46   6 C    3.959 --    47 O    1.502    51 N    1.224    48 N    1.224
    47   8 O    1.905 --    46 C    1.502    51 N    0.140    48 N    0.138
    48   7 N    3.338 --    46 C    1.224    50 H    0.945    49 H    0.940
                            47 O    0.138
    49   1 H    0.957 --    48 N    0.940
    50   1 H    0.963 --    48 N    0.945
    51   7 N    3.335 --    46 C    1.224    52 H    0.946    53 H    0.933
                            47 O    0.140
    52   1 H    0.964 --    51 N    0.946
    53   1 H    0.955 --    51 N    0.933
 ---------------------------------------------------------------------------

Topologies differ in total number of bonds
Writing topology from bond orders to xtbtopo.mol

molecular dipole:
                 x           y           z       tot (Debye)
 q only:       -0.364       0.927      -2.490
   full:        0.049       1.491      -1.891       6.122
molecular quadrupole (traceless):
                xx          xy          yy          xz          yz          zz
 q only:      -33.129      40.035      19.275      14.016      35.674      13.854
  q+dip:      -34.727      46.053      22.324      15.020      37.292      12.402
   full:      -34.773      45.510      22.327      14.937      36.709      12.446

           -------------------------------------------------
          |               Frequency Printout                |
           -------------------------------------------------
 projected vibrational frequencies (cm⁻¹)
eigval :       -0.00    -0.00    -0.00    -0.00     0.00     0.00
eigval :       11.37    14.49    21.84    25.57    29.93    37.35
eigval :       38.40    47.82    55.60    60.02    69.12    71.79
eigval :       75.69    82.67    91.54    98.05   100.78   110.53
eigval :      127.29   128.55   146.98   170.37   175.81   183.42
eigval :      185.32   189.89   247.67   251.65   267.95   309.41
eigval :      313.51   319.33   334.27   335.24   352.77   366.58
eigval :      422.74   454.39   455.14   462.91   467.27   472.11
eigval :      477.51   483.00   492.42   497.20   501.80   506.70
eigval :      528.73   541.16   542.32   551.22   554.12   564.83
eigval :      574.35   578.50   608.27   659.38   671.41   674.71
eigval :      681.16   684.67   731.71   759.70   766.18   878.31
eigval :      891.37   926.85   949.70   972.25   973.43   996.62
eigval :     1003.30  1007.99  1008.89  1013.23  1019.42  1020.98
eigval :     1022.62  1031.08  1042.45  1081.49  1087.11  1094.09
eigval :     1101.20  1107.82  1113.78  1133.62  1172.26  1227.07
eigval :     1247.09  1268.08  1303.47  1327.43  1337.17  1342.53
eigval :     1359.98  1367.94  1376.00  1398.70  1408.92  1413.33
eigval :     1425.46  1433.94  1443.44  1448.42  1450.22  1454.43
eigval :     1459.54  1461.62  1469.50  1472.66  1476.50  1478.97
eigval :     1482.31  1495.29  1504.71  1509.69  1519.96  1662.08
eigval :     1692.01  1702.99  1736.44  2888.49  2910.60  2955.62
eigval :     2972.46  2996.37  3024.72  3033.01  3038.03  3040.48
eigval :     3043.50  3046.26  3049.24  3053.46  3061.11  3186.57
eigval :     3315.25  3334.41  3418.99  3437.34  3468.07  3482.34
eigval :     3489.62  3500.37  3515.01  3517.98  3524.66  3555.18
eigval :     3559.17  3560.70  3565.31
 reduced masses (amu)
   1: 12.31   2: 12.45   3: 12.61   4: 12.89   5: 12.38   6: 12.00   7: 12.34   8: 11.75
   9: 12.11  10: 12.02  11: 12.15  12: 12.60  13: 12.56  14: 12.57  15: 13.26  16: 12.84
  17: 12.81  18: 12.13  19: 12.99  20: 12.57  21: 12.30  22: 12.25  23: 12.07  24: 11.87
  25: 13.47  26: 12.95  27: 12.86  28: 12.29  29: 12.10  30:  4.15  31: 12.66  32:  9.78
  33:  3.01  34:  8.04  35:  7.60  36:  4.33  37:  8.44  38:  3.42  39:  5.46  40:  3.60
  41:  3.12  42:  7.43  43:  8.92  44:  6.63  45:  8.11  46:  3.04  47:  5.23  48:  7.21
  49:  1.96  50:  8.82  51:  4.36  52:  7.31  53:  8.69  54:  2.51  55:  6.59  56:  6.52
  57:  9.21  58:  5.25  59:  3.84  60:  6.63  61:  8.67  62: 11.54  63:  3.23  64:  4.96
  65: 11.22  66: 10.92  67: 11.40  68: 10.22  69:  3.80  70:  2.05  71:  9.23  72:  3.28
  73:  5.48  74:  8.54  75:  5.19  76:  6.19  77:  4.75  78:  7.39  79:  8.26  80:  7.26
  81:  8.44  82:  4.81  83:  8.98  84:  9.25  85:  8.38  86:  2.99  87:  4.74  88:  9.84
  89:  9.07  90:  5.87  91:  4.57  92:  8.07  93:  7.33  94:  9.80  95:  3.49  96:  5.24
  97:  5.86  98:  8.05  99:  6.73 100:  6.04 101:  3.24 102:  4.50 103:  5.18 104:  4.62
 105:  6.15 106:  2.57 107:  2.59 108:  2.93 109:  2.30 110:  2.00 111:  1.78 112:  3.32
 113:  3.22 114:  1.67 115:  1.69 116:  3.11 117:  1.72 118:  1.63 119:  1.82 120:  5.88
 121:  4.20 122:  1.66 123:  8.28 124:  8.74 125:  9.37 126: 12.57 127: 12.68 128: 12.66
 129: 12.89 130:  1.77 131:  1.95 132:  1.68 133:  1.75 134:  1.75 135:  1.73 136:  1.62
 137:  1.95 138:  1.57 139:  1.92 140:  1.59 141:  1.72 142:  1.71 143:  1.78 144:  1.82
 145:  1.68 146:  1.76 147:  1.82 148:  1.68 149:  1.52 150:  1.47 151:  1.46 152:  1.46
 153:  1.93 154:  1.88 155:  2.07 156:  2.17 157:  2.17 158:  2.13 159:  2.18
 IR intensities (km·mol⁻¹)
   1:  2.09   2:  0.75   3:  0.57   4:  1.74   5:  1.72   6:  2.95   7:  1.71   8:  4.01
   9:  1.54  10:  3.10  11:  0.41  12:  5.60  13:  0.72  14:  0.08  15:  9.11  16:  1.04
  17:  2.59  18:  1.11  19:  3.68  20:  2.81  21:  7.31  22:  1.23  23: 15.61  24:  0.97
  25: 10.48  26: 16.28  27:  9.66  28:  5.14  29:  3.08  30:  1.04  31: 27.59  32:  8.02
  33:142.59  34: 24.70  35: 35.77  36:  5.79  37:  3.95  38:171.10  39:  0.65  40:480.80
  41:  1.24  42:  0.45  43:  0.13  44: 12.43  45:  2.70  46:  4.39  47: 63.45  48:  4.34
  49:123.86  50: 23.10  51: 68.56  52: 20.58  53: 66.11  54: 13.64  55:  7.88  56: 53.61
  57: 81.60  58: 33.69  59: 40.45  60:106.18  61:  6.95  62: 34.39  63:286.35  64:118.43
  65: 18.75  66: 14.21  67:103.91  68: 16.10  69:343.57  70:223.13  71:  2.03  72:196.67
  73: 39.46  74:  2.39  75:  7.78  76:  1.74  77: 11.17  78: 14.29  79:  5.71  80: 21.68
  81:  5.62  82: 17.23  83: 35.42  84: 10.90  85: 10.69  86:  1.12  87: 19.75  88:  0.13
  89:  2.42  90: 20.77  91: 10.06  92: 12.90  93: 11.74  94: 51.28  95: 19.25  96:  3.32
  97:  2.94  98:  2.00  99:  8.35 100: 92.54 101:  5.54 102: 12.41 103:122.68 104: 26.69
 105:125.25 106: 10.99 107:  4.23 108:166.65 109: 27.10 110:  7.41 111:  1.82 112:  3.32
 113: 36.88 114:  1.09 115: 14.34 116:  3.14 117: 10.37 118: 18.64 119: 52.60 120:146.94
 121:129.29 122: 17.83 123:781.89 124:521.51 125:516.76 126:718.19 127:****** 128:834.71
 129:507.74 130: 78.43 131:****** 132: 16.62 133: 91.39 134: 10.04 135:  4.20 136:128.95
 137:  1.90 138:  0.54 139:  3.69 140:  7.87 141: 25.44 142:  0.92 143:  8.15 144:984.38
 145:885.28 146:233.95 147:243.40 148: 58.34 149:122.17 150: 87.89 151: 33.95 152: 18.89
 153: 15.73 154: 11.26 155: 33.20 156: 24.95 157: 21.53 158: 45.87 159: 26.65
 Raman intensities (amu)
Molecule has no symmetry elements
It seems to be the C1 point group
   1:  0.00   2:  0.00   3:  0.00   4:  0.00   5:  0.00   6:  0.00   7:  0.00   8:  0.00
   9:  0.00  10:  0.00  11:  0.00  12:  0.00  13:  0.00  14:  0.00  15:  0.00  16:  0.00
  17:  0.00  18:  0.00  19:  0.00  20:  0.00  21:  0.00  22:  0.00  23:  0.00  24:  0.00
  25:  0.00  26:  0.00  27:  0.00  28:  0.00  29:  0.00  30:  0.00  31:  0.00  32:  0.00
  33:  0.00  34:  0.00  35:  0.00  36:  0.00  37:  0.00  38:  0.00  39:  0.00  40:  0.00
  41:  0.00  42:  0.00  43:  0.00  44:  0.00  45:  0.00  46:  0.00  47:  0.00  48:  0.00
  49:  0.00  50:  0.00  51:  0.00  52:  0.00  53:  0.00  54:  0.00  55:  0.00  56:  0.00
  57:  0.00  58:  0.00  59:  0.00  60:  0.00  61:  0.00  62:  0.00  63:  0.00  64:  0.00
  65:  0.00  66:  0.00  67:  0.00  68:  0.00  69:  0.00  70:  0.00  71:  0.00  72:  0.00
  73:  0.00  74:  0.00  75:  0.00  76:  0.00  77:  0.00  78:  0.00  79:  0.00  80:  0.00
  81:  0.00  82:  0.00  83:  0.00  84:  0.00  85:  0.00  86:  0.00  87:  0.00  88:  0.00
  89:  0.00  90:  0.00  91:  0.00  92:  0.00  93:  0.00  94:  0.00  95:  0.00  96:  0.00
  97:  0.00  98:  0.00  99:  0.00 100:  0.00 101:  0.00 102:  0.00 103:  0.00 104:  0.00
 105:  0.00 106:  0.00 107:  0.00 108:  0.00 109:  0.00 110:  0.00 111:  0.00 112:  0.00
 113:  0.00 114:  0.00 115:  0.00 116:  0.00 117:  0.00 118:  0.00 119:  0.00 120:  0.00
 121:  0.00 122:  0.00 123:  0.00 124:  0.00 125:  0.00 126:  0.00 127:  0.00 128:  0.00
 129:  0.00 130:  0.00 131:  0.00 132:  0.00 133:  0.00 134:  0.00 135:  0.00 136:  0.00
 137:  0.00 138:  0.00 139:  0.00 140:  0.00 141:  0.00 142:  0.00 143:  0.00 144:  0.00
 145:  0.00 146:  0.00 147:  0.00 148:  0.00 149:  0.00 150:  0.00 151:  0.00 152:  0.00
 153:  0.00 154:  0.00 155:  0.00 156:  0.00 157:  0.00 158:  0.00 159:  0.00
 output can be read by thermo (or use thermo option).
 writing <g98.out> molden fake output.
 recommended (thermochemical) frequency scaling factor: 1.0
           -------------------------------------------------
          |             Thermodynamic Functions             |
           -------------------------------------------------

c1  symmetry found (for desy threshold:  0.10E+00) used in thermo

          ...................................................
          :                      SETUP                      :
          :.................................................:
          :  # frequencies                         153      :
          :  # imaginary freq.                       0      :
          :  linear?                             false      :
          :  only rotor calc.                    false      :
          :  symmetry                               c1      :
          :  rotational number                       1      :
          :  scaling factor                  1.0000000      :
          :  rotor cutoff                   50.0000000 cm⁻¹ :
          :  imag. cutoff                  -20.0000000 cm⁻¹ :
          :.................................................:

    mode    ω/cm⁻¹     T·S(HO)/kcal·mol⁻¹    T·S(FR)/kcal·mol⁻¹   T·S(vib)
   ------------------------------------------------------------------------
       1     11.37    -2.31249 (  0.27%)    -1.49521 ( 99.73%)    -1.49739
       2     14.49    -2.16895 (  0.70%)    -1.42344 ( 99.30%)    -1.42866
       3     21.84    -1.92592 (  3.51%)    -1.30188 ( 96.49%)    -1.32379
       4     25.57    -1.83260 (  6.40%)    -1.25518 ( 93.60%)    -1.29214
       5     29.93    -1.73949 ( 11.37%)    -1.20856 ( 88.63%)    -1.26895
       6     37.35    -1.60842 ( 23.75%)    -1.14289 ( 76.25%)    -1.25347
       7     38.40    -1.59212 ( 25.81%)    -1.13472 ( 74.19%)    -1.25277
       8     47.82    -1.46255 ( 45.56%)    -1.06971 ( 54.44%)    -1.24869
       9     55.60    -1.37378 ( 60.45%)    -1.02510 ( 39.55%)    -1.23589
      10     60.02    -1.32870 ( 67.50%)    -1.00241 ( 32.50%)    -1.22265
      11     69.12    -1.24572 ( 78.51%)    -0.96059 ( 21.49%)    -1.18444
      12     71.79    -1.22350 ( 80.95%)    -0.94937 ( 19.05%)    -1.17128
      13     75.69    -1.19251 ( 84.00%)    -0.93371 ( 16.00%)    -1.15110
      14     82.67    -1.14089 ( 88.20%)    -0.90759 ( 11.80%)    -1.11335
      15     91.54    -1.08136 ( 91.83%)    -0.87739 (  8.17%)    -1.06469
      16     98.05    -1.04135 ( 93.67%)    -0.85703 (  6.33%)    -1.02967
      17    100.78    -1.02538 ( 94.29%)    -0.84889 (  5.71%)    -1.01530
      18    110.53    -0.97186 ( 95.98%)    -0.82155 (  4.02%)    -0.96582
      19    127.29    -0.89046 ( 97.67%)    -0.77972 (  2.33%)    -0.88789
      20    128.55    -0.88480 ( 97.76%)    -0.77680 (  2.24%)    -0.88238
      21    146.98    -0.80826 ( 98.68%)    -0.73711 (  1.32%)    -0.80732
      22    170.37    -0.72491 ( 99.26%)    -0.69336 (  0.74%)    -0.72468
      23    175.81    -0.70733 ( 99.35%)    -0.68405 (  0.65%)    -0.70718
      24    183.42    -0.68375 ( 99.45%)    -0.67150 (  0.55%)    -0.68369
      25    185.32    -0.67802 ( 99.47%)    -0.66844 (  0.53%)    -0.67797
      26    189.89    -0.66456 ( 99.52%)    -0.66124 (  0.48%)    -0.66454
      27    247.67    -0.52090 ( 99.83%)    -0.58254 (  0.17%)    -0.52100
      28    251.65    -0.51251 ( 99.84%)    -0.57781 (  0.16%)    -0.51262
      29    267.95    -0.47984 ( 99.88%)    -0.55922 (  0.12%)    -0.47994
   ------------------------------------------------------------------------

   temp. (K)  partition function   enthalpy   heat capacity  entropy
                                   cal/mol     cal/K/mol   cal/K/mol   J/K/mol
 298.15  VIB  0.616E+17            19061.439    102.791    125.486
         ROT  0.153E+08              888.752      2.981     35.852
         INT  0.939E+24            19950.192    105.771    161.338
         TR   0.618E+28             1481.254      4.968     43.384
         TOT                       21431.4457   110.7396   204.7227   856.5598

       T/K    H(0)-H(T)+PV         H(T)/Eh          T*S/Eh         G(T)/Eh
   ------------------------------------------------------------------------
    298.15    0.341532E-01    0.474218E+00    0.972704E-01    0.376948E+00
   ------------------------------------------------------------------------

         :::::::::::::::::::::::::::::::::::::::::::::::::::::
         ::                  THERMODYNAMIC                  ::
         :::::::::::::::::::::::::::::::::::::::::::::::::::::
         :: total free energy         -80.554575163206 Eh   ::
         ::.................................................::
         :: total energy              -80.931522985409 Eh   ::
         :: zero point energy           0.440065002029 Eh   ::
         :: G(RRHO) w/o ZPVE           -0.063117179826 Eh   ::
         :: G(RRHO) contrib.            0.376947822203 Eh   ::
         :::::::::::::::::::::::::::::::::::::::::::::::::::::

           -------------------------------------------------
          | TOTAL ENERGY              -80.931522985409 Eh   |
          | TOTAL ENTHALPY            -80.457304800676 Eh   |
          | TOTAL FREE ENERGY         -80.554575163206 Eh   |
          | GRADIENT NORM               0.000050340702 Eh/α |
          | HOMO-LUMO GAP               5.253429618788 eV   |
           -------------------------------------------------

------------------------------------------------------------------------
 * finished run on 2024/01/10 at 15:39:49.005     
------------------------------------------------------------------------
 total:
 * wall-time:     0 d,  0 h,  0 min, 14.404 sec
 *  cpu-time:     0 d,  0 h,  0 min, 14.282 sec
 * ratio c/w:     0.992 speedup
 SCF:
 * wall-time:     0 d,  0 h,  0 min,  0.097 sec
 *  cpu-time:     0 d,  0 h,  0 min,  0.057 sec
 * ratio c/w:     0.590 speedup
 analytical hessian:
 * wall-time:     0 d,  0 h,  0 min, 14.280 sec
 *  cpu-time:     0 d,  0 h,  0 min, 14.198 sec
 * ratio c/w:     0.994 speedup

