 Entering Gaussian System
 *********************************************
 Gaussian 98:
 frequency output generated by the xtb code
 *********************************************
                         Standard orientation:
 --------------------------------------------------------------------
  Center     Atomic     Atomic              Coordinates (Angstroms)
  Number     Number      Type              X           Y           Z
 --------------------------------------------------------------------
    1          8             0        1.833454   -4.762153   -2.450912
    2          6             0        2.364794   -3.463515   -2.456354
    3          1             0        2.659088   -3.252890   -1.426706
    4          1             0        3.268363   -3.408272   -3.074970
    5          6             0        1.398690   -2.387220   -2.975476
    6          1             0        1.082209   -2.646712   -3.989142
    7          1             0        1.941137   -1.437987   -3.001931
    8          7             0        0.174671   -2.158555   -2.163131
    9          6             0       -0.718875   -3.328102   -2.146465
   10          1             0       -1.038996   -3.572236   -3.157659
   11          1             0       -1.592625   -3.083009   -1.544268
   12          1             0       -0.205926   -4.187470   -1.720160
   13          6             0       -0.553006   -1.022086   -2.756641
   14          1             0       -0.872524   -1.265276   -3.767772
   15          1             0        0.098757   -0.152760   -2.780408
   16          1             0       -1.425409   -0.808493   -2.139089
   17          6             0        0.514965   -1.807255   -0.774479
   18          1             0        1.208301   -0.969985   -0.773816
   19          1             0        0.948238   -2.659764   -0.259827
   20          1             0       -0.409513   -1.516196   -0.273430
   21          1             0        1.843541   -5.136320   -3.338345
   22          6             0        3.189789    0.896395   -1.201388
   23          8             0        2.249227    0.567482   -1.932824
   24          7             0        3.014616    1.174393    0.098476
   25          1             0        2.067331    1.209084    0.491796
   26          1             0        3.779886    1.482557    0.669727
   27          7             0        4.461628    0.922679   -1.671379
   28          1             0        5.213425    1.306590   -1.127918
   29          1             0        4.604155    0.825970   -2.661196
   30          6             0       -0.385148    1.933885    0.239783
   31          8             0        0.398965    1.402914    1.042095
   32          7             0       -1.491662    2.575985    0.647166
   33          1             0       -1.805121    2.466919    1.612902
   34          1             0       -2.170317    2.889230   -0.023128
   35          7             0       -0.147665    1.895227   -1.087289
   36          1             0       -0.713562    2.423611   -1.725446
   37          1             0        0.728325    1.502197   -1.422026
   38          6             0       -2.738942   -0.403707    0.671729
   39          8             0       -2.378795   -1.090015   -0.282313
   40          7             0       -2.077186   -0.371304    1.847883
   41          1             0       -1.147963   -0.755410    1.878034
   42          1             0       -2.266745    0.389603    2.493334
   43          7             0       -3.837091    0.395337    0.606861
   44          1             0       -4.178308    0.824583    1.449977
   45          1             0       -4.501170    0.220493   -0.127511
   46          6             0       -1.359961    2.233548    4.102029
   47          8             0       -2.283452    2.053090    3.301439
   48          7             0       -0.081705    1.974076    3.776311
   49          1             0        0.142982    1.731030    2.809197
   50          1             0        0.669000    2.199441    4.402734
   51          7             0       -1.601238    2.683736    5.352512
   52          1             0       -0.875527    2.795045    6.036058
   53          1             0       -2.554070    2.835848    5.630909
 --------------------------------------------------------------------
     1 basis functions        1 primitive gaussians
     1 alpha electrons        1 beta electrons

 Harmonic frequencies (cm**-1), IR intensities (km*mol⁻¹),
 Raman scattering activities (A**4/amu), Raman depolarization ratios,
 reduced masses (AMU), force constants (mDyne/A) and normal coordinates:
                      1                      2                      3
                        a                      a                      a 
 Frequencies --    13.6825                22.6423                33.6515
 Red. masses --    12.7428                12.2309                12.1145
 Frc consts  --     0.0000                 0.0000                 0.0000
 IR Inten    --     0.8086                 0.0594                 0.3025
 Raman Activ --     0.0000                 0.0000                 0.0000
 Depolar     --     0.0000                 0.0000                 0.0000
 Atom AN      X      Y      Z        X      Y      Z        X      Y      Z
   1   8     0.03   0.02   0.49    -0.35  -0.34  -0.15    -0.16   0.05   0.44
   2   6     0.03   0.02   0.25    -0.13  -0.37  -0.01    -0.05   0.01   0.05
   3   1     0.01   0.05   0.06    -0.04  -0.14   0.01     0.02   0.06  -0.01
   4   1     0.01  -0.02   0.07    -0.03  -0.13   0.01    -0.03  -0.05  -0.01
   5   6     0.03  -0.05   0.10     0.04  -0.20   0.01    -0.03  -0.03  -0.08
   6   1     0.02  -0.05   0.04     0.00  -0.04   0.00    -0.01  -0.04  -0.01
   7   1     0.01  -0.01   0.00     0.05  -0.08   0.01     0.00  -0.02  -0.06
   8   7     0.00   0.03   0.05     0.08  -0.05   0.01    -0.02   0.11  -0.11
   9   6    -0.01   0.04   0.09    -0.06   0.06   0.06    -0.13   0.19  -0.09
  10   1     0.01  -0.01   0.03    -0.02   0.01   0.02    -0.04   0.06  -0.03
  11   1    -0.01   0.03   0.01    -0.01   0.05   0.01    -0.03   0.08  -0.03
  12   1    -0.01   0.02   0.05    -0.05   0.00   0.03    -0.06   0.04  -0.02
  13   6     0.04  -0.01  -0.06     0.19   0.02  -0.04     0.09   0.16  -0.12
  14   1     0.02  -0.02  -0.02     0.05   0.00  -0.01     0.03   0.05  -0.04
  15   1     0.01  -0.00  -0.03     0.08  -0.02  -0.02     0.05   0.03  -0.03
  16   1     0.00   0.01  -0.03     0.06   0.04  -0.01     0.03   0.07  -0.04
  17   6    -0.04   0.11   0.03     0.11  -0.02  -0.01    -0.00   0.08  -0.10
  18   1    -0.01   0.03   0.00     0.05  -0.02  -0.01     0.02   0.01  -0.03
  19   1    -0.02   0.04   0.03     0.02  -0.01   0.01    -0.02   0.01  -0.03
  20   1    -0.02   0.05  -0.01     0.04   0.02  -0.00     0.00   0.05  -0.03
  21   1     0.01  -0.03   0.14    -0.09  -0.07  -0.05    -0.06  -0.05   0.13
  22   6    -0.02   0.07  -0.12     0.00   0.18  -0.01     0.05  -0.01   0.02
  23   8    -0.03   0.05  -0.11     0.03   0.01   0.04     0.07   0.06  -0.03
  24   7     0.01   0.05  -0.12     0.01   0.26  -0.03     0.02  -0.08   0.03
  25   1     0.01   0.00  -0.02     0.01   0.04   0.00     0.00  -0.02  -0.00
  26   1     0.00   0.02  -0.04    -0.00   0.11  -0.02     0.00  -0.03   0.02
  27   7    -0.04   0.15  -0.17    -0.02   0.34  -0.06     0.07  -0.03   0.07
  28   1    -0.01   0.05  -0.05    -0.01   0.13  -0.03     0.02  -0.02   0.03
  29   1    -0.02   0.04  -0.05    -0.01   0.07  -0.01     0.03   0.00   0.02
  30   6     0.01  -0.01  -0.01    -0.01   0.01   0.04    -0.00  -0.04  -0.03
  31   8     0.02  -0.07  -0.06     0.01   0.07   0.06    -0.01  -0.06  -0.03
  32   7     0.04   0.01   0.04    -0.02   0.01   0.04    -0.05  -0.13  -0.03
  33   1     0.02  -0.00   0.01    -0.00   0.00   0.01    -0.02  -0.04  -0.01
  34   1     0.01   0.01   0.02    -0.01  -0.01   0.01    -0.01  -0.03  -0.01
  35   7    -0.03   0.01  -0.02    -0.03  -0.04   0.05     0.06   0.05  -0.02
  36   1    -0.01   0.01   0.00    -0.02  -0.03   0.01     0.01   0.01  -0.01
  37   1    -0.01   0.00  -0.02    -0.01  -0.01   0.01     0.02   0.02  -0.00
  38   6    -0.09   0.09  -0.12     0.09   0.04  -0.04     0.04  -0.07   0.04
  39   8    -0.09   0.11  -0.14     0.15   0.10  -0.07     0.03   0.13  -0.12
  40   7    -0.17   0.00  -0.09     0.07   0.00  -0.02     0.22  -0.10  -0.06
  41   1    -0.06  -0.02  -0.01     0.02   0.01  -0.01     0.09   0.04  -0.08
  42   1    -0.04  -0.00  -0.02     0.01  -0.01   0.00     0.05  -0.05   0.01
  43   7    -0.04   0.18  -0.18     0.07   0.01  -0.03    -0.14  -0.32   0.34
  44   1    -0.02   0.04  -0.05     0.01  -0.01  -0.00    -0.02  -0.12   0.11
  45   1    -0.00   0.07  -0.06     0.02   0.01  -0.01    -0.06  -0.09   0.11
  46   6     0.09  -0.18   0.03    -0.05  -0.02   0.04    -0.01   0.00  -0.04
  47   8     0.07  -0.06   0.03    -0.04  -0.04   0.03    -0.01  -0.15  -0.01
  48   7     0.07  -0.26  -0.01    -0.04   0.05   0.05     0.01   0.12  -0.05
  49   1     0.01  -0.05  -0.01    -0.00   0.02   0.01     0.00   0.02  -0.01
  50   1     0.02  -0.10  -0.00    -0.02   0.01   0.02    -0.00   0.06  -0.02
  51   7     0.14  -0.30   0.07    -0.10  -0.06   0.05    -0.03   0.06  -0.07
  52   1     0.04  -0.11   0.02    -0.03  -0.01   0.02    -0.01   0.05  -0.02
  53   1     0.04  -0.07   0.03    -0.03  -0.03   0.01    -0.01  -0.00  -0.02
                      4                      5                      6
                        a                      a                      a 
 Frequencies --    35.5033                43.1705                44.0798
 Red. masses --    12.4778                11.4925                12.6505
 Frc consts  --     0.0000                 0.0000                 0.0000
 IR Inten    --     5.2293                 0.7426                 0.9894
 Raman Activ --     0.0000                 0.0000                 0.0000
 Depolar     --     0.0000                 0.0000                 0.0000
 Atom AN      X      Y      Z        X      Y      Z        X      Y      Z
   1   8    -0.15   0.01  -0.20    -0.06   0.10   0.24    -0.11   0.03  -0.04
   2   6    -0.09  -0.01   0.01    -0.06   0.09  -0.16    -0.08   0.02   0.01
   3   1    -0.04  -0.04   0.02     0.05   0.09  -0.08    -0.02  -0.01   0.00
   4   1    -0.02   0.01   0.02    -0.06  -0.01  -0.11    -0.03   0.01  -0.00
   5   6    -0.04   0.08   0.09    -0.17  -0.01  -0.16    -0.08   0.05   0.06
   6   1    -0.02   0.04   0.02    -0.09  -0.04  -0.03    -0.03   0.02   0.02
   7   1     0.00   0.02   0.04    -0.06   0.00  -0.09    -0.02   0.01   0.02
   8   7    -0.02   0.10   0.13    -0.08   0.03  -0.02    -0.05   0.06   0.11
   9   6    -0.01   0.09   0.21    -0.10   0.05   0.10    -0.04   0.05   0.16
  10   1    -0.01   0.01   0.07    -0.06   0.01   0.04    -0.02   0.01   0.05
  11   1     0.00   0.03   0.07    -0.01   0.02   0.06    -0.01   0.02   0.05
  12   1     0.00   0.03   0.07    -0.02   0.01   0.02    -0.01   0.02   0.05
  13   6    -0.05   0.06   0.09    -0.13   0.03   0.04    -0.08   0.04   0.11
  14   1    -0.02   0.00   0.03    -0.06   0.01   0.02    -0.03   0.01   0.04
  15   1    -0.02   0.02   0.01    -0.04   0.01  -0.00    -0.03   0.01   0.03
  16   1    -0.01   0.02   0.03    -0.02   0.01   0.03    -0.02   0.01   0.04
  17   6     0.03   0.17   0.09     0.09   0.04  -0.07     0.01   0.08   0.08
  18   1     0.00   0.05   0.01     0.03   0.01  -0.05    -0.01   0.03   0.01
  19   1     0.02   0.06   0.03     0.04   0.01  -0.03     0.02   0.03   0.02
  20   1     0.01   0.05   0.03     0.05   0.02   0.01     0.01   0.01   0.04
  21   1    -0.03   0.04  -0.07    -0.06  -0.03   0.08    -0.04   0.02  -0.01
  22   6     0.11   0.10   0.06     0.07   0.03  -0.04     0.11  -0.01  -0.06
  23   8     0.18   0.07   0.03     0.08   0.02  -0.05     0.09  -0.02  -0.00
  24   7     0.05   0.02   0.08     0.08  -0.05  -0.02     0.15   0.29  -0.12
  25   1     0.01  -0.02   0.01     0.02  -0.02  -0.00     0.04   0.09  -0.02
  26   1     0.00   0.01   0.03     0.02  -0.01  -0.01     0.05   0.06  -0.04
  27   7     0.13   0.25   0.11     0.06   0.15  -0.07     0.13  -0.29  -0.05
  28   1     0.03   0.07   0.04     0.01   0.03  -0.01     0.04  -0.06  -0.04
  29   1     0.05   0.07   0.03     0.01   0.04  -0.02     0.03  -0.12  -0.01
  30   6     0.02  -0.12  -0.10     0.08  -0.08   0.04     0.10   0.12  -0.06
  31   8    -0.05  -0.26  -0.12     0.08  -0.07   0.06     0.16   0.25  -0.04
  32   7     0.01  -0.15  -0.11     0.08  -0.06   0.01     0.04   0.04  -0.09
  33   1    -0.00  -0.04  -0.03     0.01  -0.02  -0.00     0.01   0.01  -0.02
  34   1     0.02  -0.01  -0.03     0.02  -0.03  -0.00     0.01  -0.01  -0.03
  35   7     0.11  -0.00  -0.10     0.08  -0.11   0.04     0.12   0.11  -0.06
  36   1     0.05   0.03  -0.02     0.03  -0.02   0.01     0.02   0.02  -0.02
  37   1     0.04   0.01  -0.02     0.03  -0.02   0.01     0.04   0.04  -0.01
  38   6    -0.13  -0.09   0.04     0.11  -0.05   0.05    -0.04  -0.11   0.02
  39   8    -0.07  -0.10   0.08     0.07  -0.18   0.13    -0.08  -0.21   0.07
  40   7    -0.19  -0.05   0.07    -0.03  -0.20   0.14     0.02   0.01  -0.01
  41   1    -0.05  -0.00   0.03    -0.04  -0.14   0.08     0.00   0.00  -0.00
  42   1    -0.06  -0.01   0.01     0.01  -0.04   0.03     0.00   0.01  -0.02
  43   7    -0.18  -0.16  -0.02     0.35   0.26  -0.11    -0.06  -0.14   0.00
  44   1    -0.07  -0.04  -0.01     0.10   0.09  -0.04    -0.01  -0.02  -0.01
  45   1    -0.03  -0.05  -0.01     0.10   0.10  -0.05    -0.02  -0.06   0.01
  46   6     0.07  -0.01  -0.11    -0.13  -0.01  -0.03    -0.07  -0.08  -0.03
  47   8     0.04   0.07  -0.08    -0.12  -0.11  -0.06    -0.03  -0.01  -0.12
  48   7     0.03  -0.25  -0.12    -0.13  -0.02   0.04    -0.03   0.14  -0.05
  49   1    -0.00  -0.08  -0.03    -0.02  -0.02   0.02     0.01   0.06  -0.01
  50   1     0.02  -0.07  -0.04    -0.04   0.02   0.01    -0.02  -0.00   0.02
  51   7     0.18   0.15  -0.15    -0.21   0.12  -0.10    -0.18  -0.44   0.07
  52   1     0.06   0.01  -0.04    -0.06   0.04  -0.02    -0.05  -0.09   0.02
  53   1     0.06   0.07  -0.03    -0.06   0.03  -0.04    -0.05  -0.12   0.01
                      7                      8                      9
                        a                      a                      a 
 Frequencies --    46.5116                54.3957                55.7604
 Red. masses --    12.2957                11.7418                12.6740
 Frc consts  --     0.0000                 0.0000                 0.0000
 IR Inten    --     0.7877                 7.2891                 0.5046
 Raman Activ --     0.0000                 0.0000                 0.0000
 Depolar     --     0.0000                 0.0000                 0.0000
 Atom AN      X      Y      Z        X      Y      Z        X      Y      Z
   1   8     0.08   0.05  -0.05    -0.05  -0.04  -0.22    -0.03  -0.00   0.03
   2   6    -0.01   0.08   0.06    -0.00  -0.04   0.17     0.00  -0.01   0.03
   3   1    -0.04   0.02   0.03    -0.06  -0.08   0.08    -0.00  -0.01   0.01
   4   1     0.02   0.05   0.05     0.03   0.01   0.10     0.00  -0.01   0.01
   5   6    -0.02   0.04   0.01     0.12   0.07   0.18     0.03   0.01   0.02
   6   1     0.02   0.01  -0.00     0.05   0.05   0.04     0.02   0.01   0.00
   7   1    -0.02   0.02   0.02     0.05   0.01   0.08     0.01   0.00   0.02
   8   7    -0.09  -0.03  -0.07     0.07   0.10   0.11     0.02   0.01  -0.01
   9   6    -0.01  -0.09  -0.11     0.08   0.08   0.10    -0.01   0.03  -0.07
  10   1     0.02  -0.03  -0.03     0.04   0.01   0.03     0.00   0.02  -0.03
  11   1    -0.02  -0.04  -0.04     0.01   0.03   0.01    -0.01   0.01  -0.03
  12   1     0.01  -0.01  -0.02     0.02   0.03   0.05    -0.01   0.00  -0.02
  13   6    -0.13  -0.09  -0.13     0.09   0.05  -0.00     0.06   0.05   0.01
  14   1    -0.02  -0.04  -0.04     0.03  -0.00   0.00     0.02   0.02  -0.00
  15   1    -0.05  -0.01  -0.04     0.03   0.01  -0.01     0.02   0.01   0.01
  16   1    -0.05  -0.03  -0.05     0.02   0.03  -0.01     0.01   0.01  -0.00
  17   6    -0.19   0.02  -0.06    -0.02   0.16   0.10    -0.02  -0.04   0.01
  18   1    -0.06   0.01  -0.01    -0.01   0.05   0.03    -0.01  -0.01   0.02
  19   1    -0.06   0.01  -0.00    -0.01   0.06   0.05    -0.01  -0.02  -0.00
  20   1    -0.07   0.01  -0.04    -0.02   0.05   0.01    -0.01  -0.01  -0.00
  21   1     0.05   0.03  -0.02     0.02   0.05  -0.08    -0.01  -0.00   0.01
  22   6     0.11   0.06   0.04    -0.02  -0.06  -0.06    -0.03   0.03   0.03
  23   8     0.13  -0.18   0.15    -0.04   0.13  -0.14    -0.05  -0.01   0.08
  24   7     0.14   0.36  -0.03    -0.03  -0.22  -0.03    -0.07   0.51  -0.08
  25   1     0.04   0.06   0.01    -0.01  -0.03  -0.02    -0.02   0.12  -0.01
  26   1     0.04   0.12  -0.02    -0.00  -0.09   0.00    -0.01   0.10  -0.02
  27   7     0.10   0.08  -0.01    -0.01  -0.14  -0.03     0.01  -0.37   0.11
  28   1     0.02   0.07  -0.03     0.00  -0.07   0.01     0.00  -0.06   0.00
  29   1     0.02  -0.03   0.00    -0.00  -0.00  -0.01     0.01  -0.15   0.03
  30   6     0.06  -0.18   0.05    -0.06  -0.05  -0.04    -0.08   0.04  -0.03
  31   8     0.14  -0.04   0.10    -0.03  -0.04  -0.08    -0.08   0.05  -0.05
  32   7     0.04  -0.21   0.02    -0.10  -0.14  -0.00    -0.11  -0.01  -0.02
  33   1     0.02  -0.04   0.01    -0.03  -0.06  -0.00    -0.03  -0.01  -0.01
  34   1    -0.01  -0.10  -0.00    -0.04  -0.05   0.01    -0.04  -0.01  -0.00
  35   7     0.01  -0.36   0.05    -0.07   0.05  -0.05    -0.07   0.10  -0.03
  36   1    -0.01  -0.12   0.01    -0.03   0.01  -0.00    -0.02   0.03  -0.01
  37   1     0.01  -0.08   0.02    -0.01   0.03  -0.02    -0.02   0.03  -0.00
  38   6    -0.12   0.05  -0.03     0.02   0.04   0.04     0.07  -0.01   0.03
  39   8    -0.21   0.13  -0.11    -0.05   0.15  -0.06     0.01   0.01  -0.01
  40   7    -0.08  -0.07  -0.05    -0.03  -0.27   0.08     0.08  -0.13   0.03
  41   1    -0.03  -0.03  -0.03    -0.03  -0.12   0.02     0.01  -0.06   0.01
  42   1    -0.00  -0.03   0.00     0.02  -0.09   0.04     0.04  -0.04   0.02
  43   7    -0.10   0.11   0.09     0.18   0.26   0.12     0.17   0.12   0.07
  44   1    -0.01   0.01   0.04     0.06   0.05   0.05     0.06   0.03   0.02
  45   1    -0.04   0.05   0.03     0.05   0.13   0.02     0.04   0.06   0.02
  46   6     0.03   0.05   0.02    -0.01  -0.03  -0.05     0.02  -0.09  -0.03
  47   8     0.06  -0.12   0.04    -0.03  -0.29   0.02    -0.02  -0.12   0.01
  48   7     0.07   0.23   0.03     0.02   0.27  -0.13    -0.03  -0.43   0.03
  49   1     0.03   0.04   0.02     0.00   0.05  -0.03    -0.02  -0.09  -0.00
  50   1     0.01   0.08   0.01     0.00   0.11  -0.05     0.00  -0.06  -0.02
  51   7    -0.02   0.08   0.00    -0.04  -0.06  -0.05     0.11   0.27  -0.15
  52   1    -0.01   0.07  -0.00    -0.00   0.06  -0.03     0.03   0.00  -0.03
  53   1    -0.01  -0.00  -0.00    -0.01  -0.05  -0.00     0.03   0.07  -0.03
                     10                     11                     12
                        a                      a                      a 
 Frequencies --    57.5378                59.2533                65.1932
 Red. masses --    12.4189                12.0428                12.2914
 Frc consts  --     0.0000                 0.0000                 0.0000
 IR Inten    --     1.3883                 1.7810                 7.3053
 Raman Activ --     0.0000                 0.0000                 0.0000
 Depolar     --     0.0000                 0.0000                 0.0000
 Atom AN      X      Y      Z        X      Y      Z        X      Y      Z
   1   8    -0.05   0.00   0.13     0.06  -0.00  -0.03     0.06  -0.01  -0.04
   2   6    -0.02  -0.01  -0.11    -0.02   0.03   0.04     0.03   0.00  -0.11
   3   1     0.03   0.03  -0.05    -0.02   0.00   0.02     0.02   0.01  -0.04
   4   1    -0.03  -0.03  -0.07     0.00   0.03   0.03     0.00  -0.00  -0.04
   5   6    -0.07  -0.05  -0.12    -0.05  -0.01   0.03    -0.01  -0.04  -0.11
   6   1    -0.04  -0.03  -0.02    -0.00  -0.00   0.01    -0.03  -0.03  -0.02
   7   1    -0.02  -0.01  -0.06    -0.03   0.00   0.02    -0.00  -0.01  -0.07
   8   7    -0.02  -0.01  -0.05    -0.09  -0.07   0.01     0.06   0.03  -0.04
   9   6    -0.04   0.01   0.02    -0.01  -0.12   0.01     0.09   0.01   0.19
  10   1    -0.03   0.00   0.01     0.01  -0.04   0.00    -0.00  -0.04   0.07
  11   1    -0.00   0.01   0.02    -0.01  -0.05  -0.00     0.04   0.02   0.07
  12   1    -0.01   0.00   0.00     0.01  -0.03   0.01     0.04   0.02   0.07
  13   6    -0.03  -0.00  -0.02    -0.14  -0.12  -0.02    -0.03  -0.06  -0.12
  14   1    -0.02  -0.00  -0.00    -0.04  -0.04  -0.00    -0.04  -0.06  -0.01
  15   1    -0.01  -0.00  -0.01    -0.05  -0.02  -0.01    -0.01  -0.02  -0.09
  16   1     0.00   0.00   0.00    -0.04  -0.04  -0.01     0.01   0.00  -0.02
  17   6     0.07  -0.00  -0.07    -0.12  -0.02   0.00     0.16   0.21  -0.10
  18   1     0.02  -0.00  -0.04    -0.04  -0.00  -0.00     0.05   0.06  -0.08
  19   1     0.03  -0.00  -0.03    -0.03   0.00   0.01     0.05   0.08  -0.01
  20   1     0.03   0.00  -0.00    -0.04  -0.01  -0.01     0.06   0.08  -0.02
  21   1    -0.04  -0.03   0.05     0.03   0.01  -0.01     0.01  -0.01  -0.01
  22   6    -0.03   0.04   0.20    -0.00   0.03   0.10     0.04  -0.03  -0.05
  23   8     0.02   0.07   0.15     0.05  -0.09   0.11     0.07   0.08  -0.14
  24   7    -0.13   0.11   0.18    -0.05  -0.03   0.12    -0.03   0.03  -0.08
  25   1    -0.04   0.03   0.03    -0.02  -0.02   0.02    -0.01   0.01  -0.03
  26   1    -0.04   0.02   0.07    -0.03   0.03   0.03    -0.00  -0.03  -0.00
  27   7     0.02  -0.04   0.33    -0.01   0.26   0.11     0.10  -0.25   0.06
  28   1    -0.01  -0.01   0.10    -0.01   0.08   0.04     0.02  -0.07   0.03
  29   1     0.03  -0.01   0.09     0.01   0.06   0.03     0.04  -0.06   0.02
  30   6    -0.15  -0.01  -0.08    -0.01   0.04  -0.13    -0.07  -0.13  -0.02
  31   8    -0.15   0.03  -0.08    -0.10  -0.03  -0.12    -0.03  -0.05   0.00
  32   7    -0.16  -0.02  -0.08     0.04   0.15  -0.18    -0.07  -0.13  -0.05
  33   1    -0.02   0.00  -0.01     0.00   0.04  -0.05    -0.01   0.00  -0.01
  34   1    -0.05  -0.02  -0.02     0.02   0.05  -0.05    -0.03  -0.05  -0.02
  35   7    -0.18  -0.09  -0.09     0.03   0.01  -0.13    -0.13  -0.30  -0.03
  36   1    -0.04  -0.02  -0.03     0.03   0.02  -0.04    -0.04  -0.09  -0.01
  37   1    -0.03  -0.00  -0.01     0.01  -0.02  -0.02    -0.02  -0.05  -0.01
  38   6     0.03  -0.03  -0.04     0.12   0.10   0.10     0.04   0.17   0.09
  39   8     0.07  -0.13   0.03    -0.08   0.14   0.02     0.22   0.35   0.06
  40   7    -0.08  -0.03   0.01     0.32   0.03   0.00    -0.05   0.15   0.15
  41   1    -0.04  -0.04   0.03     0.09   0.02  -0.05     0.01   0.09   0.04
  42   1    -0.01   0.00  -0.01     0.11   0.01   0.01    -0.04   0.03   0.04
  43   7     0.12   0.08  -0.21     0.16   0.17   0.35    -0.08   0.01   0.10
  44   1     0.01   0.03  -0.07     0.10   0.06   0.11    -0.05  -0.02   0.03
  45   1     0.04   0.02  -0.07     0.00   0.07   0.12     0.00   0.00   0.01
  46   6     0.18   0.02  -0.02    -0.03  -0.09  -0.10    -0.08   0.01   0.05
  47   8     0.17  -0.02   0.03    -0.02   0.08  -0.18    -0.11   0.23   0.03
  48   7     0.21   0.30  -0.17    -0.04  -0.15  -0.10    -0.12  -0.12   0.05
  49   1     0.04   0.07  -0.05    -0.01  -0.02  -0.03    -0.03  -0.01   0.01
  50   1     0.06   0.06  -0.05    -0.01  -0.09  -0.01    -0.03  -0.08   0.02
  51   7     0.22  -0.22   0.07    -0.05  -0.28  -0.05    -0.05  -0.12   0.11
  52   1     0.07  -0.01  -0.01    -0.02  -0.09  -0.01    -0.01  -0.06   0.03
  53   1     0.06  -0.08   0.04    -0.01  -0.05  -0.02    -0.01   0.01   0.03
                     13                     14                     15
                        a                      a                      a 
 Frequencies --    75.1823                87.1212                95.4821
 Red. masses --    11.7575                12.6222                13.1615
 Frc consts  --     0.0000                 0.0000                 0.0000
 IR Inten    --     1.2274                 2.9058                18.2293
 Raman Activ --     0.0000                 0.0000                 0.0000
 Depolar     --     0.0000                 0.0000                 0.0000
 Atom AN      X      Y      Z        X      Y      Z        X      Y      Z
   1   8    -0.02  -0.04  -0.07     0.11  -0.04  -0.02    -0.10   0.06  -0.02
   2   6    -0.06  -0.02   0.02     0.01  -0.01  -0.11    -0.03   0.03   0.14
   3   1    -0.04  -0.01   0.01     0.02   0.01  -0.04    -0.04  -0.02   0.05
   4   1    -0.01   0.01   0.02    -0.01   0.01  -0.05     0.01   0.01   0.07
   5   6    -0.07  -0.04  -0.00    -0.08  -0.08  -0.08     0.07   0.10   0.11
   6   1    -0.03  -0.03   0.01    -0.05  -0.05  -0.01     0.04   0.05   0.02
   7   1    -0.02  -0.01  -0.02    -0.03  -0.02  -0.05     0.03   0.03   0.06
   8   7    -0.04   0.01   0.02    -0.02  -0.08   0.02     0.01   0.12   0.02
   9   6     0.05  -0.06   0.29     0.04  -0.12   0.19    -0.02   0.13  -0.06
  10   1     0.00  -0.08   0.10    -0.01  -0.06   0.07     0.01   0.04  -0.02
  11   1     0.02  -0.00   0.08     0.02  -0.03   0.07    -0.02   0.04  -0.03
  12   1     0.04   0.02   0.12     0.04  -0.02   0.06    -0.02   0.03  -0.01
  13   6    -0.16  -0.15  -0.14    -0.11  -0.14   0.00     0.06   0.12  -0.02
  14   1    -0.04  -0.10  -0.03    -0.04  -0.06   0.01     0.02   0.03  -0.00
  15   1    -0.07  -0.02  -0.08    -0.05  -0.03  -0.02     0.03   0.03  -0.01
  16   1    -0.05  -0.04  -0.05    -0.03  -0.05   0.01     0.02   0.05  -0.01
  17   6     0.01   0.29  -0.07     0.08   0.05  -0.04    -0.07   0.07   0.05
  18   1    -0.02   0.10  -0.07     0.02   0.02  -0.05    -0.03   0.02   0.04
  19   1     0.03   0.12   0.02     0.04   0.03   0.00    -0.03   0.02   0.01
  20   1     0.00   0.08  -0.02     0.03   0.02   0.00    -0.03   0.01   0.00
  21   1     0.01   0.00  -0.02     0.01  -0.02  -0.00    -0.01   0.04  -0.01
  22   6     0.00   0.02   0.06    -0.05   0.03  -0.00    -0.06   0.01  -0.06
  23   8    -0.02   0.19   0.02    -0.03  -0.00  -0.01    -0.04   0.04  -0.11
  24   7     0.03  -0.13   0.10    -0.10   0.23  -0.06    -0.12   0.12  -0.09
  25   1     0.01   0.00   0.02    -0.03   0.00  -0.01    -0.03  -0.01  -0.02
  26   1     0.01  -0.06   0.03    -0.02   0.02   0.00    -0.03  -0.01  -0.01
  27   7     0.01  -0.04   0.07    -0.02  -0.10   0.06    -0.03  -0.10   0.02
  28   1     0.01  -0.04   0.03    -0.01   0.00   0.01    -0.01  -0.02   0.01
  29   1     0.00   0.01   0.02     0.00  -0.03   0.02     0.00  -0.02   0.01
  30   6    -0.00   0.09   0.05     0.06  -0.01   0.07    -0.02  -0.18   0.05
  31   8     0.07   0.24   0.07    -0.14  -0.46  -0.00    -0.14  -0.43   0.02
  32   7     0.01   0.14   0.06     0.18   0.12   0.17     0.19   0.15   0.08
  33   1     0.01   0.03   0.02     0.02  -0.02   0.03     0.04   0.05   0.02
  34   1    -0.02  -0.00   0.02     0.09   0.14   0.05     0.07   0.08   0.02
  35   7    -0.13  -0.10   0.03     0.20   0.36   0.09    -0.13  -0.33   0.03
  36   1    -0.04  -0.03   0.01     0.08   0.15   0.05     0.02  -0.01   0.03
  37   1    -0.03  -0.01   0.01     0.02   0.04   0.01    -0.03  -0.08   0.01
  38   6     0.03  -0.06  -0.16    -0.01   0.04  -0.07     0.11  -0.07  -0.04
  39   8    -0.12  -0.14  -0.19     0.03   0.16  -0.14    -0.02  -0.28   0.05
  40   7     0.22   0.03  -0.28    -0.01  -0.04  -0.07     0.25   0.14  -0.13
  41   1     0.05  -0.00  -0.09     0.01   0.02  -0.04     0.07   0.04  -0.04
  42   1     0.07   0.00  -0.06    -0.01  -0.03  -0.00     0.07   0.05  -0.05
  43   7     0.03  -0.06  -0.06    -0.06  -0.02   0.01     0.14  -0.03  -0.08
  44   1     0.04  -0.01  -0.01    -0.02  -0.02   0.01     0.06   0.03  -0.03
  45   1    -0.02  -0.04   0.02    -0.01   0.01  -0.01     0.01  -0.04   0.01
  46   6     0.04  -0.04   0.04    -0.03   0.01  -0.00    -0.02   0.06   0.00
  47   8     0.08  -0.18   0.03    -0.06  -0.14   0.06     0.01   0.16  -0.05
  48   7     0.05  -0.13   0.15    -0.01   0.21  -0.08    -0.02   0.09   0.01
  49   1     0.02  -0.01   0.04    -0.01  -0.01  -0.01    -0.00  -0.01   0.01
  50   1     0.01   0.03   0.03    -0.00   0.04  -0.02    -0.01  -0.03   0.02
  51   7    -0.01   0.21  -0.05    -0.02  -0.00   0.01    -0.06  -0.06   0.04
  52   1    -0.02   0.02   0.01     0.01   0.06  -0.02    -0.02   0.00   0.01
  53   1    -0.01   0.02  -0.02    -0.00  -0.01   0.01    -0.01   0.02  -0.01
                     16                     17                     18
                        a                      a                      a 
 Frequencies --   105.3996               121.6342               127.6393
 Red. masses --    11.3229                12.8210                13.2574
 Frc consts  --     0.0000                 0.0000                 0.0000
 IR Inten    --     1.9083                 0.2459                14.9485
 Raman Activ --     0.0000                 0.0000                 0.0000
 Depolar     --     0.0000                 0.0000                 0.0000
 Atom AN      X      Y      Z        X      Y      Z        X      Y      Z
   1   8    -0.00   0.12  -0.01    -0.01  -0.03  -0.00     0.02  -0.07   0.03
   2   6     0.01   0.10  -0.16    -0.05  -0.01   0.11     0.02  -0.06  -0.07
   3   1     0.07   0.04  -0.07    -0.05  -0.01   0.04     0.04  -0.01  -0.03
   4   1    -0.04   0.02  -0.11     0.01   0.01   0.06    -0.01  -0.02  -0.05
   5   6    -0.09   0.09   0.03    -0.02  -0.02   0.03    -0.03  -0.07  -0.00
   6   1    -0.06   0.04   0.02     0.02  -0.01   0.00    -0.02  -0.01  -0.00
   7   1    -0.03   0.03   0.00    -0.01  -0.00   0.02    -0.01  -0.02   0.00
   8   7     0.01   0.02   0.21    -0.08  -0.04  -0.05    -0.02  -0.14   0.04
   9   6    -0.03   0.05   0.15    -0.03  -0.07  -0.06    -0.04  -0.12  -0.11
  10   1    -0.03   0.04   0.04     0.00  -0.02  -0.02    -0.01  -0.00  -0.04
  11   1     0.00   0.01   0.06    -0.01  -0.03  -0.02    -0.02  -0.05  -0.03
  12   1    -0.01   0.00   0.02    -0.00  -0.01  -0.01    -0.02  -0.05  -0.06
  13   6    -0.00   0.10   0.37    -0.08  -0.07  -0.10    -0.00  -0.05   0.18
  14   1    -0.03   0.06   0.11     0.00  -0.02  -0.04    -0.00   0.02   0.04
  15   1     0.01   0.02   0.11    -0.04  -0.01  -0.01     0.00  -0.01   0.08
  16   1     0.02   0.03   0.14    -0.04  -0.04  -0.05     0.00  -0.03   0.06
  17   6     0.15  -0.17   0.21    -0.14   0.03  -0.04    -0.02  -0.28   0.07
  18   1     0.05  -0.06   0.07    -0.05   0.02  -0.01    -0.00  -0.08   0.05
  19   1     0.05  -0.07   0.02    -0.03   0.02   0.00    -0.01  -0.10  -0.00
  20   1     0.06  -0.05   0.09    -0.05  -0.00  -0.02    -0.01  -0.09   0.03
  21   1    -0.06   0.02  -0.00     0.03   0.00  -0.00    -0.01  -0.03   0.02
  22   6    -0.02  -0.06   0.00     0.07   0.03  -0.03     0.11   0.21  -0.06
  23   8    -0.04  -0.17   0.06     0.09   0.10  -0.08     0.12   0.63  -0.23
  24   7     0.01  -0.03   0.00     0.04  -0.01  -0.03     0.06   0.02  -0.02
  25   1     0.01  -0.00   0.00     0.01  -0.00  -0.01     0.01   0.02  -0.02
  26   1     0.00   0.02  -0.01     0.01  -0.02   0.00     0.02  -0.09   0.03
  27   7    -0.05   0.02  -0.07     0.09   0.02   0.01     0.19  -0.06   0.11
  28   1    -0.01   0.01  -0.03     0.02  -0.00   0.01     0.05  -0.06   0.06
  29   1    -0.02  -0.02  -0.02     0.03   0.02   0.00     0.07   0.07   0.02
  30   6    -0.05  -0.10  -0.02    -0.02  -0.07  -0.04     0.02  -0.01  -0.00
  31   8    -0.02  -0.02  -0.00    -0.02  -0.06  -0.04     0.05  -0.02  -0.03
  32   7    -0.13  -0.22  -0.06    -0.25  -0.45  -0.08     0.08   0.07   0.05
  33   1    -0.03  -0.04  -0.01    -0.05  -0.09  -0.01     0.02   0.01   0.01
  34   1    -0.04  -0.08  -0.02    -0.05  -0.09  -0.02     0.01   0.01   0.02
  35   7    -0.03  -0.11  -0.01     0.19   0.30  -0.01    -0.10  -0.12  -0.02
  36   1    -0.03  -0.06  -0.01     0.02   0.05  -0.00    -0.01   0.01   0.01
  37   1    -0.00  -0.02   0.00     0.05   0.08  -0.01     0.00   0.02  -0.01
  38   6     0.06   0.12  -0.17     0.10   0.03  -0.03    -0.09   0.04   0.00
  39   8     0.02   0.17  -0.24     0.00  -0.18   0.07    -0.20   0.02  -0.01
  40   7     0.20   0.17  -0.27     0.19   0.24  -0.10    -0.01   0.04  -0.05
  41   1     0.07   0.07  -0.10     0.05   0.06  -0.01    -0.00   0.01  -0.03
  42   1     0.04   0.02  -0.05     0.03   0.06  -0.02     0.01   0.01  -0.01
  43   7    -0.00   0.05  -0.06     0.14   0.08  -0.13    -0.08   0.08   0.09
  44   1     0.01  -0.00  -0.00     0.05   0.05  -0.05     0.00   0.03   0.03
  45   1    -0.02  -0.00   0.00     0.02  -0.02  -0.01    -0.04   0.03   0.04
  46   6     0.00  -0.04   0.01    -0.06   0.05   0.14    -0.02  -0.02  -0.00
  47   8    -0.02  -0.12   0.04    -0.14   0.10   0.24    -0.04  -0.06   0.02
  48   7     0.00  -0.01  -0.01    -0.10   0.02   0.03    -0.03   0.00  -0.03
  49   1    -0.00  -0.00  -0.00    -0.04  -0.00   0.01    -0.01  -0.00  -0.01
  50   1     0.00   0.02  -0.01    -0.01  -0.01  -0.00    -0.01   0.01  -0.01
  51   7     0.02   0.02  -0.01     0.08   0.02   0.19    -0.00   0.01  -0.01
  52   1     0.01   0.01  -0.01     0.04   0.00   0.03     0.00   0.01  -0.01
  53   1     0.01  -0.01   0.00     0.03   0.02   0.08    -0.00  -0.00   0.00
                     19                     20                     21
                        a                      a                      a 
 Frequencies --   131.4051               141.1041               149.0654
 Red. masses --    12.7228                13.8451                12.5947
 Frc consts  --     0.0000                 0.0000                 0.0000
 IR Inten    --    22.5372                10.1955                22.0811
 Raman Activ --     0.0000                 0.0000                 0.0000
 Depolar     --     0.0000                 0.0000                 0.0000
 Atom AN      X      Y      Z        X      Y      Z        X      Y      Z
   1   8     0.02  -0.00  -0.01     0.01   0.00   0.01    -0.00   0.06  -0.05
   2   6     0.02  -0.00  -0.03     0.02  -0.00  -0.03    -0.11   0.10   0.20
   3   1     0.01   0.00  -0.01     0.02   0.00  -0.01    -0.09   0.00   0.08
   4   1    -0.00   0.00  -0.01     0.00  -0.01  -0.02     0.00   0.07   0.11
   5   6     0.00  -0.00  -0.00     0.02   0.00  -0.02    -0.11   0.05   0.12
   6   1    -0.01  -0.00   0.00     0.00   0.00  -0.01    -0.00   0.01   0.03
   7   1     0.00  -0.00  -0.01     0.01  -0.00  -0.00    -0.05   0.02   0.05
   8   7     0.02  -0.00   0.02     0.03   0.01  -0.01    -0.18  -0.03   0.04
   9   6     0.00   0.01   0.02     0.01   0.02  -0.01    -0.13  -0.06  -0.06
  10   1    -0.00   0.01   0.01     0.00   0.01  -0.00    -0.04   0.01  -0.02
  11   1     0.00   0.00   0.01     0.01   0.01  -0.00    -0.04  -0.04  -0.01
  12   1     0.00  -0.00  -0.00     0.00   0.00  -0.00    -0.03  -0.02  -0.04
  13   6     0.02   0.01   0.04     0.04   0.02   0.00    -0.17  -0.04   0.03
  14   1     0.00   0.01   0.01     0.00   0.01   0.00    -0.04  -0.01   0.01
  15   1     0.01   0.00   0.01     0.02   0.00  -0.00    -0.05  -0.01   0.01
  16   1     0.01   0.00   0.02     0.01   0.01   0.01    -0.05  -0.01   0.01
  17   6     0.03  -0.02   0.02     0.04   0.01  -0.01    -0.20  -0.09   0.06
  18   1     0.02  -0.02   0.01     0.01  -0.00  -0.01    -0.03  -0.05   0.03
  19   1     0.00  -0.01   0.00     0.01   0.00  -0.00    -0.09  -0.04   0.02
  20   1     0.01   0.00   0.01     0.01   0.00  -0.00    -0.06   0.00   0.01
  21   1     0.00  -0.00  -0.00    -0.01  -0.00   0.00     0.06   0.05  -0.02
  22   6    -0.05  -0.03  -0.11     0.20  -0.12  -0.08     0.03   0.02  -0.03
  23   8     0.15  -0.13  -0.34     0.33  -0.36  -0.09     0.08   0.05  -0.10
  24   7    -0.35   0.02  -0.16     0.10  -0.06  -0.10    -0.04   0.01  -0.04
  25   1    -0.11  -0.01  -0.07     0.02  -0.03  -0.05    -0.01  -0.00  -0.02
  26   1    -0.12   0.01  -0.01     0.00   0.04  -0.02    -0.02  -0.01   0.00
  27   7     0.07   0.07   0.20     0.25   0.10   0.00     0.07   0.03   0.07
  28   1    -0.03   0.04   0.10     0.04   0.06   0.01     0.01   0.01   0.04
  29   1     0.09   0.01   0.06     0.10  -0.01   0.01     0.04   0.01   0.02
  30   6    -0.00   0.02  -0.06    -0.14   0.10  -0.05     0.01   0.03  -0.04
  31   8    -0.11   0.04   0.05    -0.17   0.00  -0.15    -0.01   0.05  -0.02
  32   7    -0.07  -0.03  -0.18    -0.01   0.32   0.05     0.05   0.13  -0.05
  33   1    -0.01   0.01  -0.04    -0.00   0.05   0.01     0.01   0.02  -0.02
  34   1    -0.01  -0.01  -0.06    -0.02   0.08   0.03     0.01   0.02  -0.01
  35   7     0.16   0.05  -0.04    -0.28   0.01  -0.10    -0.01  -0.06  -0.04
  36   1     0.05   0.00  -0.03    -0.03   0.06  -0.02     0.01  -0.01  -0.02
  37   1     0.04   0.00  -0.01    -0.07   0.02  -0.02    -0.00  -0.02  -0.01
  38   6    -0.06  -0.02  -0.01    -0.05  -0.01   0.02     0.19   0.03  -0.02
  39   8    -0.12  -0.01  -0.04    -0.12  -0.08   0.06     0.54   0.21  -0.02
  40   7    -0.04  -0.10  -0.01    -0.00   0.06  -0.01    -0.04   0.03   0.11
  41   1    -0.02  -0.04  -0.01    -0.01  -0.00   0.00     0.01   0.06   0.05
  42   1     0.02  -0.02  -0.01    -0.00   0.01   0.00    -0.05   0.00   0.03
  43   7    -0.02   0.04   0.04    -0.03   0.04   0.02     0.04  -0.21  -0.20
  44   1     0.01   0.01   0.02    -0.00   0.00   0.01    -0.07  -0.10  -0.07
  45   1    -0.01   0.03   0.01    -0.02  -0.01   0.03     0.07  -0.08  -0.10
  46   6     0.09   0.02   0.13    -0.08  -0.04   0.12     0.01  -0.08   0.01
  47   8     0.30   0.02  -0.07    -0.18  -0.20   0.29     0.03  -0.26   0.03
  48   7     0.17   0.00   0.41    -0.10   0.03  -0.03     0.03  -0.00   0.03
  49   1     0.07   0.02   0.12    -0.05  -0.00  -0.01     0.01   0.00   0.01
  50   1     0.02   0.02   0.13    -0.01   0.05  -0.04     0.00   0.05  -0.01
  51   7    -0.20   0.05   0.08     0.09   0.10   0.12    -0.03   0.04  -0.04
  52   1    -0.10  -0.01   0.08     0.05   0.01   0.01    -0.02   0.02  -0.01
  53   1    -0.07  -0.00  -0.04     0.03  -0.02   0.08    -0.01  -0.03  -0.01
                     22                     23                     24
                        a                      a                      a 
 Frequencies --   168.9960               173.6668               176.8393
 Red. masses --    12.9164                12.7374                10.1129
 Frc consts  --     0.0000                 0.0000                 0.0000
 IR Inten    --     4.5985                 4.6566                 3.6010
 Raman Activ --     0.0000                 0.0000                 0.0000
 Depolar     --     0.0000                 0.0000                 0.0000
 Atom AN      X      Y      Z        X      Y      Z        X      Y      Z
   1   8    -0.11   0.03   0.05     0.15  -0.05  -0.05     0.47  -0.19  -0.15
   2   6     0.02  -0.02  -0.06    -0.03   0.02   0.06     0.00  -0.00   0.11
   3   1     0.04  -0.00  -0.03    -0.04   0.00   0.03    -0.09   0.00   0.06
   4   1    -0.01  -0.04  -0.04     0.01   0.04   0.04     0.04   0.09   0.10
   5   6     0.06   0.04  -0.00    -0.10  -0.07   0.00    -0.16  -0.23  -0.08
   6   1     0.02   0.04  -0.01    -0.03  -0.05   0.01    -0.08  -0.16   0.01
   7   1     0.02   0.01   0.02    -0.04  -0.02  -0.03    -0.05  -0.06  -0.13
   8   7     0.05   0.00  -0.02    -0.08  -0.02   0.02    -0.07   0.05  -0.01
   9   6     0.08  -0.02  -0.03    -0.12   0.02   0.02    -0.26   0.20   0.07
  10   1     0.05  -0.03  -0.01    -0.07   0.04   0.01    -0.20   0.14   0.04
  11   1     0.00  -0.00  -0.04    -0.01  -0.00   0.04     0.00   0.06   0.13
  12   1     0.02   0.01   0.02    -0.03  -0.01  -0.03    -0.06   0.01  -0.10
  13   6     0.01  -0.03  -0.02    -0.01   0.03   0.04     0.14   0.19   0.01
  14   1    -0.01  -0.02   0.00     0.02   0.03   0.00     0.06   0.09  -0.01
  15   1    -0.00  -0.00  -0.02     0.00   0.01   0.04     0.07   0.03   0.04
  16   1     0.01  -0.01   0.00    -0.01   0.00  -0.00     0.03   0.07  -0.02
  17   6     0.02   0.01  -0.01    -0.03  -0.04   0.02     0.04   0.03  -0.03
  18   1    -0.03   0.03   0.00     0.01  -0.03   0.00     0.09  -0.05  -0.02
  19   1     0.04   0.01  -0.01    -0.04  -0.02   0.01    -0.07  -0.02   0.01
  20   1    -0.00  -0.03   0.00     0.00   0.02   0.00     0.04   0.10  -0.02
  21   1    -0.07  -0.00   0.02     0.08  -0.00  -0.02     0.23  -0.03  -0.04
  22   6    -0.02   0.04   0.09     0.16   0.00  -0.01    -0.05   0.01   0.03
  23   8    -0.17   0.14   0.24     0.07   0.05   0.12    -0.08   0.03   0.04
  24   7     0.18   0.02   0.12     0.31  -0.03   0.03    -0.03   0.02   0.03
  25   1     0.05   0.01   0.04     0.09  -0.00   0.01    -0.01   0.00   0.01
  26   1     0.07  -0.01   0.01     0.09  -0.00  -0.00    -0.00  -0.00   0.01
  27   7    -0.11  -0.06  -0.15     0.11  -0.03  -0.17    -0.07  -0.01  -0.00
  28   1     0.01  -0.04  -0.08     0.05  -0.02  -0.07    -0.01  -0.01  -0.01
  29   1    -0.09  -0.01  -0.05    -0.01  -0.00  -0.05    -0.03  -0.00  -0.00
  30   6     0.04  -0.06  -0.27    -0.18   0.00   0.03     0.05  -0.02  -0.06
  31   8    -0.04  -0.18  -0.31    -0.20  -0.13  -0.07     0.03  -0.01  -0.03
  32   7     0.12   0.07  -0.25    -0.17  -0.01   0.11     0.06   0.02  -0.10
  33   1     0.04   0.01  -0.07    -0.03  -0.00   0.04     0.01   0.00  -0.03
  34   1     0.02   0.02  -0.06    -0.04   0.04   0.04     0.01  -0.01  -0.03
  35   7     0.02  -0.02  -0.30    -0.25   0.13  -0.00     0.07  -0.08  -0.06
  36   1     0.03   0.04  -0.06    -0.04   0.10   0.02     0.03  -0.02  -0.02
  37   1     0.01  -0.01  -0.07    -0.06   0.06   0.00     0.02  -0.02  -0.01
  38   6    -0.02   0.03   0.04     0.05  -0.07  -0.08    -0.04   0.02   0.04
  39   8     0.01   0.01   0.07     0.06   0.06  -0.19    -0.09  -0.07   0.10
  40   7    -0.05   0.06   0.06    -0.00  -0.29  -0.03     0.01   0.14   0.00
  41   1    -0.01   0.03   0.01     0.01  -0.05  -0.03    -0.01   0.02   0.01
  42   1    -0.01   0.03   0.01     0.01  -0.08  -0.01     0.01   0.04  -0.00
  43   7    -0.03   0.02  -0.01     0.07  -0.07   0.00    -0.03   0.05   0.01
  44   1    -0.02  -0.00  -0.01     0.02  -0.02   0.00    -0.00   0.02   0.00
  45   1    -0.00  -0.01  -0.00     0.04   0.05  -0.03    -0.02  -0.02   0.02
  46   6    -0.02  -0.03   0.19     0.04   0.13   0.03    -0.01  -0.05   0.02
  47   8     0.09  -0.17   0.15     0.16   0.35  -0.14    -0.02  -0.15   0.06
  48   7     0.04   0.03   0.31     0.06   0.01   0.18    -0.00   0.00   0.00
  49   1     0.02   0.00   0.09     0.03   0.00   0.05    -0.00  -0.00   0.00
  50   1     0.00   0.06   0.07     0.01  -0.06   0.08    -0.00   0.03  -0.01
  51   7    -0.16   0.10   0.14    -0.12  -0.03   0.06    -0.00   0.03  -0.00
  52   1    -0.07   0.01   0.07    -0.06  -0.01   0.04     0.00   0.00  -0.00
  53   1    -0.06  -0.03   0.02    -0.04   0.06  -0.04    -0.00  -0.03   0.01
                     25                     26                     27
                        a                      a                      a 
 Frequencies --   193.9722               209.3768               220.3276
 Red. masses --    12.9491                 3.2583                11.7901
 Frc consts  --     0.0000                 0.0000                 0.0000
 IR Inten    --    12.9310               143.0854               117.7218
 Raman Activ --     0.0000                 0.0000                 0.0000
 Depolar     --     0.0000                 0.0000                 0.0000
 Atom AN      X      Y      Z        X      Y      Z        X      Y      Z
   1   8    -0.01  -0.02   0.02    -0.01   0.00   0.00     0.02  -0.01   0.00
   2   6     0.01  -0.03  -0.02     0.00  -0.00  -0.00    -0.01   0.00   0.00
   3   1     0.01  -0.00  -0.01     0.00  -0.00  -0.00    -0.00   0.00   0.00
   4   1     0.00  -0.02  -0.01     0.00  -0.00  -0.00    -0.00   0.00   0.00
   5   6     0.03  -0.01  -0.02     0.01   0.00  -0.00    -0.01  -0.01   0.00
   6   1     0.01   0.00  -0.01     0.00   0.00  -0.00    -0.00  -0.00   0.00
   7   1     0.01  -0.00  -0.00     0.00   0.00   0.00    -0.00  -0.00   0.00
   8   7     0.03   0.00  -0.04     0.00   0.00  -0.00    -0.02  -0.00   0.00
   9   6     0.04  -0.01  -0.03     0.01  -0.00   0.00    -0.02   0.00  -0.01
  10   1     0.02  -0.01  -0.01     0.00  -0.00   0.00    -0.01   0.01  -0.00
  11   1     0.01  -0.01  -0.01     0.00  -0.00  -0.00    -0.00  -0.00   0.00
  12   1     0.01   0.00  -0.00     0.00  -0.00   0.00    -0.01  -0.00  -0.01
  13   6     0.01  -0.01  -0.03    -0.00  -0.00  -0.00    -0.00   0.01   0.01
  14   1     0.00  -0.00  -0.01     0.00  -0.00  -0.00    -0.00   0.01   0.00
  15   1    -0.00   0.00  -0.01    -0.00   0.00  -0.00     0.00  -0.00   0.00
  16   1     0.00  -0.01  -0.01    -0.00  -0.00  -0.00     0.00   0.01   0.00
  17   6    -0.00   0.03  -0.04     0.00   0.00  -0.00    -0.01  -0.00  -0.00
  18   1    -0.01   0.02  -0.01     0.00  -0.00   0.00    -0.01   0.01  -0.00
  19   1     0.01   0.02  -0.01    -0.00   0.00   0.00     0.01   0.00  -0.00
  20   1    -0.01  -0.00  -0.01     0.00   0.00  -0.00    -0.00  -0.01   0.00
  21   1    -0.01  -0.01   0.01    -0.00  -0.00   0.00     0.01  -0.00  -0.00
  22   6     0.08  -0.01  -0.02     0.02   0.01  -0.02    -0.05  -0.02   0.04
  23   8     0.06  -0.01   0.03     0.00   0.04   0.00     0.01  -0.10  -0.01
  24   7     0.14  -0.02  -0.01     0.06  -0.00  -0.01    -0.13   0.01   0.01
  25   1     0.04  -0.01   0.00     0.02  -0.01   0.01    -0.05   0.00  -0.02
  26   1     0.04  -0.01  -0.00     0.02  -0.01  -0.00    -0.04   0.02   0.01
  27   7     0.07  -0.01  -0.09     0.01  -0.02  -0.06    -0.00   0.04   0.16
  28   1     0.03  -0.00  -0.04     0.01  -0.01  -0.02    -0.03   0.05   0.06
  29   1     0.00  -0.00  -0.03    -0.01   0.00  -0.02     0.03   0.01   0.05
  30   6    -0.15  -0.03   0.12    -0.04  -0.01   0.05     0.10  -0.03  -0.06
  31   8    -0.19  -0.10   0.11    -0.14  -0.05   0.13     0.40  -0.03  -0.34
  32   7    -0.18  -0.05   0.10    -0.07   0.03  -0.07     0.16  -0.23   0.37
  33   1    -0.05  -0.03   0.02    -0.03   0.04  -0.02     0.10  -0.09   0.12
  34   1    -0.05  -0.02   0.02     0.02   0.04  -0.04    -0.01  -0.04   0.16
  35   7    -0.09   0.11   0.14     0.09  -0.04   0.08    -0.32   0.16  -0.15
  36   1    -0.02   0.04   0.04     0.05  -0.01   0.00    -0.14   0.06   0.03
  37   1    -0.03   0.03   0.04     0.03  -0.02   0.04    -0.09   0.09  -0.11
  38   6    -0.02   0.14   0.11    -0.00   0.00   0.00     0.01   0.03   0.01
  39   8    -0.01  -0.03   0.26    -0.01   0.00   0.00     0.02   0.00   0.05
  40   7     0.02   0.40   0.06    -0.01  -0.02   0.02     0.02   0.08   0.01
  41   1     0.01   0.12   0.02     0.01   0.02  -0.01     0.01   0.03  -0.00
  42   1     0.00   0.13  -0.00     0.01   0.01  -0.01    -0.01   0.01   0.01
  43   7    -0.07   0.10  -0.04     0.00  -0.00   0.01    -0.01   0.01  -0.01
  44   1    -0.03   0.03  -0.02     0.01   0.02  -0.00    -0.01   0.01  -0.01
  45   1    -0.03  -0.06   0.02     0.01   0.02  -0.00     0.00  -0.01  -0.01
  46   6     0.10  -0.12  -0.13    -0.00  -0.05  -0.02    -0.01  -0.00  -0.02
  47   8     0.22  -0.29  -0.25    -0.00   0.04  -0.03     0.03   0.05  -0.09
  48   7     0.16  -0.02   0.03     0.01   0.04  -0.04     0.01   0.00   0.04
  49   1     0.06  -0.03   0.02    -0.00   0.09  -0.04     0.03   0.03   0.01
  50   1     0.02   0.01   0.03     0.00   0.19  -0.07    -0.01   0.04   0.01
  51   7    -0.20  -0.06  -0.25     0.06   0.26  -0.08    -0.13   0.09  -0.08
  52   1    -0.10   0.08  -0.04    -0.06  -0.71   0.19    -0.09  -0.21   0.07
  53   1    -0.08  -0.01  -0.14    -0.02  -0.46   0.13    -0.06  -0.13  -0.01
                     28                     29                     30
                        a                      a                      a 
 Frequencies --   268.4253               298.4748               304.3494
 Red. masses --     5.9438                 5.5078                 6.6559
 Frc consts  --     0.0000                 0.0000                 0.0000
 IR Inten    --    19.4316                20.2504                 1.4206
 Raman Activ --     0.0000                 0.0000                 0.0000
 Depolar     --     0.0000                 0.0000                 0.0000
 Atom AN      X      Y      Z        X      Y      Z        X      Y      Z
   1   8     0.33  -0.18   0.01     0.02   0.17  -0.03     0.15  -0.31   0.13
   2   6     0.10  -0.09  -0.23     0.18   0.06  -0.15    -0.04  -0.19  -0.17
   3   1     0.14  -0.02  -0.10     0.14  -0.01  -0.06     0.08  -0.04  -0.08
   4   1    -0.04   0.00  -0.17    -0.00  -0.00  -0.13    -0.07  -0.06  -0.14
   5   6    -0.05  -0.04   0.12     0.07   0.03   0.11    -0.02   0.04   0.09
   6   1    -0.02   0.05   0.02     0.03   0.04   0.02    -0.01   0.09   0.01
   7   1     0.00  -0.02   0.08    -0.01   0.03   0.07     0.05  -0.01   0.08
   8   7    -0.10   0.03   0.08    -0.01  -0.12   0.05    -0.03   0.15   0.05
   9   6    -0.18   0.10   0.02    -0.21   0.03   0.22     0.20  -0.02  -0.16
  10   1     0.17  -0.14  -0.03    -0.22   0.08   0.09    -0.14   0.20  -0.04
  11   1    -0.18   0.13  -0.22     0.03   0.03   0.19     0.16  -0.19   0.18
  12   1    -0.16   0.09   0.26    -0.05  -0.04  -0.04     0.20  -0.07  -0.33
  13   6     0.07   0.07  -0.07     0.20  -0.15  -0.28    -0.14   0.11   0.11
  14   1    -0.11  -0.05   0.04     0.29  -0.01  -0.16     0.08   0.10  -0.03
  15   1     0.10  -0.04  -0.17     0.02  -0.01   0.10    -0.11   0.08   0.18
  16   1     0.10   0.16   0.04    -0.08  -0.11  -0.25    -0.12  -0.10  -0.03
  17   6    -0.26   0.06   0.10    -0.15  -0.09   0.08    -0.17   0.26   0.05
  18   1    -0.25   0.16   0.05     0.04  -0.10   0.05    -0.12   0.14   0.01
  19   1     0.13   0.09  -0.02    -0.15  -0.06   0.05     0.03   0.12   0.02
  20   1    -0.13  -0.19   0.06    -0.04   0.08  -0.03    -0.08  -0.00   0.01
  21   1    -0.13  -0.00  -0.02    -0.39   0.18  -0.07    -0.10  -0.08   0.03
  22   6     0.01  -0.00  -0.00     0.00   0.01  -0.00    -0.00  -0.02  -0.01
  23   8     0.01   0.01  -0.02     0.00   0.02  -0.01    -0.00  -0.02  -0.01
  24   7     0.00   0.00  -0.01     0.00  -0.00  -0.00    -0.02   0.00  -0.01
  25   1     0.00   0.00   0.00    -0.00   0.00  -0.00    -0.00   0.00  -0.00
  26   1     0.00  -0.00  -0.00    -0.00   0.01  -0.00    -0.01   0.01  -0.00
  27   7     0.01   0.03   0.01    -0.00   0.02  -0.00    -0.02   0.04  -0.00
  28   1     0.01  -0.02   0.02     0.01  -0.04   0.01     0.01  -0.06   0.02
  29   1     0.01  -0.02   0.01     0.01  -0.02   0.00     0.01  -0.04   0.01
  30   6     0.00   0.00   0.01    -0.00   0.00   0.00     0.01  -0.00   0.00
  31   8    -0.01   0.01   0.02     0.00  -0.00  -0.00     0.00   0.00   0.01
  32   7    -0.01  -0.00  -0.01     0.00  -0.00   0.01     0.01   0.01  -0.01
  33   1    -0.00   0.00  -0.00     0.00  -0.00   0.00    -0.00  -0.00  -0.00
  34   1     0.00   0.01  -0.00    -0.00  -0.00   0.00    -0.00  -0.01  -0.01
  35   7     0.01   0.00   0.01    -0.01  -0.00  -0.00    -0.01  -0.05  -0.01
  36   1     0.00  -0.00   0.00     0.01   0.02   0.00     0.03   0.04   0.01
  37   1    -0.00  -0.00  -0.00     0.00   0.01   0.00     0.02   0.03   0.01
  38   6     0.03  -0.00   0.01     0.01   0.00   0.01     0.03   0.01  -0.01
  39   8     0.04   0.01  -0.00     0.01  -0.01   0.02     0.04   0.04  -0.02
  40   7     0.00  -0.01   0.02    -0.00   0.02   0.02     0.01  -0.02   0.00
  41   1     0.01   0.01   0.01    -0.00   0.01   0.01     0.01   0.00  -0.00
  42   1    -0.01  -0.00   0.00    -0.00   0.01   0.00    -0.00  -0.01   0.00
  43   7     0.02  -0.03  -0.02     0.00  -0.00   0.00     0.01  -0.03  -0.02
  44   1    -0.00  -0.00  -0.01     0.00   0.00  -0.00    -0.01  -0.01  -0.01
  45   1     0.02  -0.01  -0.02     0.00  -0.00  -0.00     0.02  -0.00  -0.02
  46   6     0.00   0.00  -0.00     0.00  -0.00  -0.00    -0.00   0.00  -0.00
  47   8    -0.00   0.00   0.00     0.00  -0.00  -0.00    -0.01  -0.00   0.00
  48   7    -0.00   0.00  -0.00     0.00   0.00  -0.00    -0.00   0.00  -0.00
  49   1    -0.00   0.00  -0.00     0.00  -0.00   0.00    -0.00  -0.00   0.00
  50   1    -0.00  -0.00  -0.00     0.00  -0.00   0.00    -0.00  -0.00   0.00
  51   7     0.00   0.00   0.00    -0.00   0.00  -0.00     0.01   0.00   0.00
  52   1     0.00  -0.00  -0.00    -0.00  -0.00   0.00     0.00  -0.00  -0.00
  53   1     0.00   0.00   0.00    -0.00  -0.00  -0.00     0.00   0.00   0.00
                     31                     32                     33
                        a                      a                      a 
 Frequencies --   316.4174               333.8504               342.0837
 Red. masses --     2.4451                 3.3596                 3.2978
 Frc consts  --     0.0000                 0.0000                 0.0000
 IR Inten    --   104.0824                41.4559               100.0311
 Raman Activ --     0.0000                 0.0000                 0.0000
 Depolar     --     0.0000                 0.0000                 0.0000
 Atom AN      X      Y      Z        X      Y      Z        X      Y      Z
   1   8    -0.01   0.01  -0.01    -0.12   0.04  -0.03    -0.19   0.09  -0.02
   2   6    -0.02   0.01   0.05    -0.06   0.03  -0.15     0.09   0.00  -0.14
   3   1    -0.03   0.00   0.02    -0.01   0.06  -0.05     0.09   0.03  -0.06
   4   1     0.01   0.01   0.04    -0.03  -0.00  -0.06    -0.02  -0.03  -0.09
   5   6    -0.01  -0.02  -0.03    -0.12  -0.03  -0.11     0.07   0.10   0.07
   6   1    -0.00  -0.02  -0.00    -0.09  -0.05  -0.00     0.03   0.09   0.00
   7   1    -0.01   0.00  -0.02    -0.04  -0.01  -0.09     0.03   0.03   0.09
   8   7     0.01  -0.01  -0.02     0.02  -0.00   0.07     0.02  -0.02   0.04
   9   6     0.01  -0.01  -0.01     0.13  -0.08   0.09    -0.10   0.06   0.11
  10   1     0.03  -0.02  -0.01     0.22  -0.17   0.00    -0.22   0.15   0.06
  11   1    -0.01   0.01  -0.03    -0.07   0.02  -0.14     0.09  -0.02   0.21
  12   1    -0.01   0.00   0.03     0.00   0.05   0.22     0.02  -0.05  -0.17
  13   6    -0.00  -0.00   0.02     0.19   0.07   0.01     0.07  -0.09  -0.16
  14   1    -0.02   0.00   0.01     0.36   0.16  -0.12    -0.10  -0.13   0.02
  15   1     0.00  -0.00  -0.00    -0.01   0.07   0.32     0.07  -0.07  -0.22
  16   1     0.01   0.00   0.02    -0.12  -0.14  -0.20     0.09   0.09   0.01
  17   6     0.05  -0.02  -0.02    -0.19   0.05   0.11    -0.11  -0.08   0.08
  18   1     0.02  -0.01  -0.01    -0.03  -0.00   0.06    -0.11   0.04   0.06
  19   1     0.00  -0.01  -0.00    -0.10   0.01   0.07     0.05  -0.01  -0.02
  20   1     0.02   0.00  -0.00    -0.08   0.04  -0.04    -0.06  -0.13   0.04
  21   1    -0.03   0.03  -0.01     0.40  -0.21   0.09     0.56  -0.28   0.14
  22   6     0.00   0.00  -0.01    -0.01  -0.02  -0.00     0.01   0.01  -0.00
  23   8     0.01   0.03  -0.04    -0.00  -0.02  -0.01     0.01   0.02  -0.00
  24   7     0.03  -0.06   0.04    -0.01   0.01  -0.01     0.02  -0.02   0.01
  25   1    -0.01   0.09  -0.03    -0.00  -0.01   0.00     0.00   0.02  -0.01
  26   1    -0.05   0.34  -0.10    -0.00  -0.01   0.00    -0.01   0.07  -0.02
  27   7    -0.12   0.27  -0.05    -0.01   0.02  -0.00     0.01   0.01  -0.00
  28   1     0.19  -0.68   0.20     0.00  -0.02   0.01     0.02  -0.05   0.02
  29   1     0.13  -0.42   0.07     0.01  -0.02   0.00     0.01  -0.02   0.00
  30   6    -0.00  -0.01   0.00     0.01  -0.00   0.00    -0.02  -0.01  -0.01
  31   8    -0.00  -0.02  -0.00     0.01   0.00   0.00    -0.01  -0.02  -0.01
  32   7     0.01  -0.01   0.03     0.01   0.01  -0.01     0.00   0.01   0.01
  33   1     0.01  -0.01   0.01    -0.00  -0.01  -0.00     0.00   0.01   0.00
  34   1     0.00   0.01   0.01    -0.01  -0.04  -0.01     0.02   0.05   0.01
  35   7    -0.00  -0.00   0.00    -0.03  -0.06  -0.01     0.04   0.07   0.02
  36   1     0.01   0.01   0.00     0.06   0.09   0.02    -0.11  -0.15  -0.03
  37   1     0.00   0.00  -0.00     0.03   0.05   0.01    -0.03  -0.05  -0.02
  38   6    -0.00   0.00  -0.00     0.02   0.00   0.01    -0.00  -0.00   0.00
  39   8    -0.01  -0.00   0.00     0.02   0.01   0.01    -0.01  -0.00  -0.00
  40   7    -0.00  -0.00   0.00     0.01   0.01   0.02    -0.00  -0.01   0.00
  41   1     0.00   0.01  -0.00     0.00   0.01   0.01     0.01   0.01  -0.01
  42   1    -0.00   0.00  -0.00    -0.00   0.00   0.00    -0.00  -0.00  -0.00
  43   7    -0.00   0.00   0.00     0.01  -0.01  -0.01     0.00  -0.00  -0.01
  44   1     0.00   0.01  -0.00    -0.01  -0.01  -0.00     0.00   0.01  -0.00
  45   1    -0.00   0.00   0.00     0.01  -0.01  -0.01    -0.00  -0.00  -0.00
  46   6     0.00  -0.00   0.00    -0.00  -0.00  -0.00     0.00   0.00   0.00
  47   8     0.00   0.00  -0.00    -0.00  -0.00   0.00     0.00   0.00   0.00
  48   7     0.00   0.01  -0.00    -0.00   0.00  -0.00     0.00  -0.00   0.00
  49   1     0.00  -0.01   0.00    -0.00  -0.00   0.00     0.00   0.00  -0.00
  50   1     0.00  -0.01   0.01    -0.00   0.00  -0.00     0.00  -0.00   0.00
  51   7    -0.01   0.01  -0.00     0.00  -0.00  -0.00    -0.01   0.00   0.00
  52   1    -0.00  -0.01   0.00     0.00  -0.00  -0.00    -0.00   0.00   0.00
  53   1    -0.00  -0.00  -0.00     0.00  -0.00   0.00    -0.00   0.00  -0.00
                     34                     35                     36
                        a                      a                      a 
 Frequencies --   369.2848               375.5417               380.6957
 Red. masses --     3.0770                 5.6015                 3.0866
 Frc consts  --     0.0000                 0.0000                 0.0000
 IR Inten    --    55.1250                 6.7804                 9.3465
 Raman Activ --     0.0000                 0.0000                 0.0000
 Depolar     --     0.0000                 0.0000                 0.0000
 Atom AN      X      Y      Z        X      Y      Z        X      Y      Z
   1   8     0.08  -0.10   0.04     0.09  -0.16   0.03     0.02  -0.05   0.03
   2   6    -0.08  -0.03  -0.09     0.09  -0.13  -0.09    -0.08   0.00  -0.10
   3   1    -0.01   0.01  -0.03     0.11  -0.05  -0.04    -0.02   0.02  -0.03
   4   1    -0.03  -0.00  -0.05    -0.02  -0.04  -0.10    -0.03  -0.00  -0.04
   5   6    -0.07   0.02  -0.03     0.14   0.15   0.20    -0.06   0.03  -0.05
   6   1    -0.05   0.02  -0.00     0.11   0.18   0.00    -0.05   0.03  -0.01
   7   1     0.01  -0.01  -0.01     0.07   0.03   0.21     0.01  -0.00  -0.02
   8   7    -0.01   0.10   0.04    -0.03   0.06   0.01     0.01   0.08   0.02
   9   6     0.16  -0.03  -0.02    -0.20   0.20  -0.08     0.21  -0.07   0.06
  10   1     0.12  -0.05  -0.02     0.06   0.01  -0.05     0.03  -0.03   0.03
  11   1     0.00  -0.04  -0.06    -0.11   0.15  -0.14     0.07  -0.08   0.06
  12   1     0.07   0.03   0.05    -0.16   0.05   0.09     0.13   0.00  -0.02
  13   6    -0.01   0.07  -0.02    -0.32  -0.13  -0.02     0.07   0.07  -0.10
  14   1    -0.03  -0.01   0.01    -0.02  -0.05  -0.03    -0.20  -0.10   0.07
  15   1     0.02   0.00  -0.05    -0.19   0.04   0.04     0.12  -0.06  -0.28
  16   1     0.01   0.04   0.00    -0.14  -0.15  -0.04     0.15   0.21   0.09
  17   6    -0.10   0.02   0.09     0.21   0.01  -0.04    -0.19  -0.07   0.11
  18   1     0.18  -0.17   0.07     0.26  -0.17  -0.04     0.16  -0.20   0.10
  19   1    -0.29  -0.09   0.09    -0.14  -0.09   0.01    -0.34  -0.13   0.10
  20   1    -0.00   0.24  -0.06     0.14   0.24  -0.01    -0.04   0.22  -0.08
  21   1    -0.09  -0.00  -0.00     0.19  -0.15   0.06    -0.03  -0.02   0.01
  22   6     0.01   0.05  -0.01    -0.00   0.01   0.00    -0.01  -0.01   0.00
  23   8     0.01   0.03   0.00    -0.00  -0.00   0.00    -0.01  -0.00   0.00
  24   7     0.03  -0.05   0.02    -0.01  -0.01   0.01    -0.00   0.02   0.00
  25   1    -0.00   0.04  -0.02    -0.01  -0.00  -0.00     0.00  -0.01   0.01
  26   1    -0.02   0.13  -0.03    -0.01   0.02  -0.00     0.01  -0.04   0.01
  27   7     0.03  -0.05   0.01    -0.01  -0.01  -0.01    -0.02   0.01  -0.00
  28   1    -0.00   0.03  -0.01     0.01  -0.02  -0.01     0.00  -0.02   0.00
  29   1     0.00   0.02  -0.00    -0.01  -0.01  -0.00    -0.00  -0.01   0.00
  30   6    -0.06  -0.04  -0.04     0.01   0.01   0.00     0.04   0.04   0.02
  31   8    -0.02  -0.03  -0.06     0.01   0.00   0.00     0.02   0.03   0.02
  32   7     0.00   0.00   0.03    -0.00  -0.00   0.01    -0.01  -0.02   0.00
  33   1     0.01   0.04   0.01     0.00  -0.01   0.00    -0.00  -0.03  -0.00
  34   1     0.08   0.23   0.03    -0.02  -0.06  -0.00    -0.06  -0.15  -0.01
  35   7     0.11   0.15   0.04    -0.02  -0.02  -0.01    -0.07  -0.07  -0.03
  36   1    -0.37  -0.54  -0.12     0.08   0.12   0.02     0.27   0.40   0.08
  37   1    -0.06  -0.12  -0.04     0.00   0.01   0.01     0.01   0.02   0.02
  38   6    -0.00  -0.02   0.01    -0.00  -0.00  -0.00    -0.00  -0.01   0.01
  39   8    -0.01  -0.03   0.00     0.00  -0.00   0.00    -0.01  -0.01   0.01
  40   7     0.00   0.01   0.00     0.00   0.02  -0.01     0.03   0.01  -0.01
  41   1    -0.01  -0.02   0.01    -0.01  -0.03   0.01    -0.01  -0.03   0.01
  42   1     0.01   0.01  -0.01     0.01   0.00  -0.00     0.01  -0.00   0.00
  43   7     0.01  -0.02  -0.01    -0.00   0.01   0.01     0.00  -0.01  -0.01
  44   1     0.02   0.03  -0.02    -0.00  -0.01   0.01    -0.02  -0.02  -0.00
  45   1    -0.00  -0.00   0.00    -0.00  -0.00   0.01     0.01  -0.00  -0.02
  46   6     0.01  -0.00   0.01     0.00   0.00  -0.00    -0.00   0.01  -0.01
  47   8     0.01  -0.00   0.01    -0.00   0.00  -0.00    -0.00   0.01  -0.01
  48   7     0.00   0.00  -0.00     0.00   0.00  -0.00    -0.00  -0.00  -0.00
  49   1    -0.00   0.00  -0.00    -0.00  -0.00   0.00    -0.00  -0.00   0.00
  50   1     0.00  -0.02   0.01     0.00  -0.00   0.00    -0.00   0.02  -0.01
  51   7    -0.02   0.01   0.00    -0.00  -0.00  -0.00     0.01  -0.01  -0.00
  52   1    -0.01   0.01   0.01    -0.00  -0.00   0.00     0.00  -0.01  -0.00
  53   1    -0.01  -0.00  -0.01    -0.00  -0.00  -0.00     0.00   0.00   0.00
                     37                     38                     39
                        a                      a                      a 
 Frequencies --   397.3754               427.8081               434.3267
 Red. masses --     3.4579                 3.4372                 8.1492
 Frc consts  --     0.0000                 0.0000                 0.0000
 IR Inten    --    36.4139                70.1975                 4.7708
 Raman Activ --     0.0000                 0.0000                 0.0000
 Depolar     --     0.0000                 0.0000                 0.0000
 Atom AN      X      Y      Z        X      Y      Z        X      Y      Z
   1   8     0.01  -0.00   0.00    -0.02   0.02  -0.00    -0.11   0.18  -0.06
   2   6    -0.00  -0.00  -0.00     0.03  -0.01  -0.01     0.15   0.04  -0.07
   3   1     0.00  -0.00  -0.00     0.01  -0.00  -0.00     0.08   0.01  -0.03
   4   1    -0.00   0.00  -0.00     0.01  -0.01  -0.00     0.01  -0.00  -0.07
   5   6    -0.01   0.00   0.00     0.03  -0.00  -0.00    -0.05  -0.15   0.07
   6   1    -0.00   0.00   0.00     0.01   0.00  -0.00    -0.07  -0.11   0.05
   7   1    -0.00   0.00   0.00     0.00   0.00   0.00    -0.06  -0.02  -0.07
   8   7    -0.00   0.00   0.00     0.02  -0.03  -0.01     0.03  -0.23   0.22
   9   6     0.00  -0.00  -0.01    -0.02   0.00  -0.01    -0.16  -0.11  -0.31
  10   1     0.00  -0.00  -0.00    -0.01   0.00  -0.00     0.02   0.11  -0.14
  11   1    -0.00  -0.00  -0.00    -0.00   0.01  -0.00    -0.08  -0.05  -0.13
  12   1     0.00   0.00  -0.00    -0.02  -0.01  -0.00    -0.12  -0.11  -0.15
  13   6    -0.00   0.00  -0.00     0.00  -0.02   0.04     0.15  -0.19   0.18
  14   1     0.00   0.00  -0.00    -0.02  -0.00   0.02    -0.03  -0.07   0.08
  15   1     0.00   0.00   0.00     0.00  -0.01   0.00     0.09  -0.09  -0.03
  16   1    -0.00  -0.00  -0.00     0.01  -0.00   0.03     0.09   0.03   0.08
  17   6     0.00   0.00   0.00    -0.01   0.03  -0.01     0.00   0.41   0.08
  18   1     0.01  -0.00  -0.00     0.02  -0.01  -0.02     0.06   0.07  -0.13
  19   1    -0.00  -0.00   0.00    -0.04   0.01   0.02    -0.06   0.18   0.18
  20   1     0.00   0.01   0.00    -0.00   0.05  -0.02     0.01   0.27  -0.05
  21   1    -0.01   0.00  -0.00     0.03  -0.01   0.01     0.03   0.01   0.00
  22   6     0.00  -0.02   0.00     0.02  -0.11   0.03     0.00   0.01   0.01
  23   8    -0.00  -0.01   0.00     0.01  -0.05   0.02     0.01   0.00   0.00
  24   7    -0.00   0.04  -0.02    -0.03   0.18  -0.06    -0.02  -0.01   0.02
  25   1     0.00  -0.02   0.01     0.01  -0.04   0.03    -0.01  -0.00  -0.00
  26   1     0.02  -0.09   0.02     0.10  -0.53   0.15    -0.02   0.04  -0.00
  27   7    -0.01   0.04  -0.00    -0.04   0.16  -0.05    -0.01  -0.02  -0.01
  28   1     0.01  -0.05   0.02     0.05  -0.17   0.05     0.00   0.01  -0.02
  29   1     0.01  -0.01   0.00     0.02  -0.07   0.01    -0.02  -0.01  -0.01
  30   6    -0.02  -0.06   0.00     0.03   0.09  -0.02     0.00  -0.01   0.01
  31   8    -0.01  -0.05  -0.01    -0.01   0.08   0.01     0.00  -0.01   0.00
  32   7     0.04   0.08   0.02    -0.07  -0.20   0.02     0.01   0.02  -0.01
  33   1    -0.02  -0.05  -0.01    -0.02   0.01   0.01    -0.00  -0.00  -0.00
  34   1    -0.06  -0.15  -0.00     0.22   0.51   0.03    -0.02  -0.05  -0.01
  35   7     0.03   0.05   0.02    -0.04  -0.09  -0.04     0.00   0.01   0.00
  36   1    -0.06  -0.07  -0.01     0.03   0.01  -0.02    -0.00   0.01   0.01
  37   1    -0.01  -0.00  -0.01     0.02   0.02   0.01    -0.00  -0.00  -0.01
  38   6    -0.00  -0.01   0.01    -0.00   0.03  -0.01     0.00  -0.01   0.02
  39   8    -0.01  -0.00   0.00    -0.02  -0.01   0.01    -0.01   0.01   0.00
  40   7     0.02   0.00  -0.02    -0.00   0.03   0.01     0.04   0.03  -0.02
  41   1    -0.00  -0.02   0.02     0.01   0.03  -0.01    -0.03  -0.09   0.03
  42   1    -0.01  -0.03   0.03    -0.01   0.00   0.00     0.04   0.01  -0.00
  43   7     0.01   0.05  -0.03    -0.03  -0.13   0.05     0.00  -0.01  -0.01
  44   1    -0.04  -0.08   0.02     0.08   0.20  -0.08    -0.04  -0.04   0.00
  45   1    -0.03  -0.07   0.03     0.09   0.20  -0.12     0.03   0.00  -0.03
  46   6    -0.01   0.14  -0.07     0.02  -0.01   0.01     0.00   0.00   0.00
  47   8    -0.03   0.10  -0.03     0.01  -0.02   0.02     0.00   0.00  -0.00
  48   7     0.02  -0.27   0.13     0.02  -0.04  -0.00    -0.00   0.00  -0.01
  49   1    -0.02   0.09  -0.02    -0.01   0.00  -0.01    -0.00  -0.00  -0.00
  50   1     0.02   0.80  -0.28     0.01   0.08  -0.04     0.00  -0.01   0.00
  51   7    -0.00  -0.19   0.03    -0.03  -0.01  -0.00    -0.00   0.00   0.00
  52   1     0.03   0.09  -0.04    -0.01   0.06  -0.01    -0.00  -0.01   0.00
  53   1     0.01   0.06  -0.01    -0.01  -0.01  -0.01    -0.00   0.00  -0.00
                     40                     41                     42
                        a                      a                      a 
 Frequencies --   445.0247               456.1101               460.7417
 Red. masses --     3.2832                 3.5340                 7.1872
 Frc consts  --     0.0000                 0.0000                 0.0000
 IR Inten    --   758.3376                64.3839                10.9479
 Raman Activ --     0.0000                 0.0000                 0.0000
 Depolar     --     0.0000                 0.0000                 0.0000
 Atom AN      X      Y      Z        X      Y      Z        X      Y      Z
   1   8     0.01  -0.01   0.01     0.01  -0.01   0.01     0.01  -0.00   0.02
   2   6    -0.03   0.01  -0.01     0.03  -0.02   0.01     0.02  -0.01  -0.02
   3   1    -0.00  -0.00  -0.00     0.00  -0.01   0.00     0.03  -0.01  -0.01
   4   1    -0.02   0.01  -0.01     0.01  -0.01   0.01    -0.01  -0.00  -0.03
   5   6    -0.03   0.03   0.04     0.08   0.04  -0.01     0.07   0.12   0.11
   6   1    -0.00   0.03   0.00     0.07   0.07  -0.03     0.14   0.19  -0.04
   7   1    -0.01   0.01   0.03     0.02   0.01   0.07     0.02   0.04   0.23
   8   7    -0.04  -0.01   0.02    -0.04  -0.05  -0.13    -0.19  -0.19  -0.18
   9   6     0.00  -0.04  -0.01    -0.03  -0.07   0.11    -0.11  -0.29   0.14
  10   1     0.01  -0.01  -0.01    -0.05  -0.07   0.06    -0.07  -0.15   0.07
  11   1    -0.01  -0.03  -0.01     0.01   0.01   0.06    -0.00  -0.06   0.07
  12   1     0.01  -0.01  -0.01     0.01   0.00   0.06     0.02  -0.03   0.07
  13   6     0.02   0.02  -0.02     0.01   0.10   0.09     0.14   0.21   0.17
  14   1     0.00  -0.00  -0.00    -0.02   0.09   0.02    -0.03   0.20   0.04
  15   1     0.03  -0.01  -0.02     0.03   0.01   0.06     0.15  -0.02   0.11
  16   1     0.01   0.03  -0.01     0.02   0.02   0.06     0.09   0.12   0.10
  17   6     0.03   0.00  -0.00    -0.07  -0.02  -0.14    -0.05   0.09  -0.31
  18   1     0.03  -0.02  -0.02    -0.02  -0.00  -0.04     0.04  -0.01  -0.17
  19   1    -0.01  -0.01   0.00    -0.02   0.00  -0.03    -0.05   0.05  -0.02
  20   1     0.03   0.03   0.01    -0.02  -0.00  -0.04     0.02   0.12  -0.08
  21   1     0.00  -0.00   0.00     0.01  -0.01   0.01     0.04  -0.03   0.02
  22   6     0.01  -0.10   0.01     0.01  -0.01   0.01     0.05   0.04   0.06
  23   8    -0.02  -0.05   0.02     0.00  -0.01   0.01     0.10   0.03   0.00
  24   7    -0.00   0.18  -0.07    -0.01   0.03  -0.01    -0.11  -0.04   0.06
  25   1     0.02  -0.01   0.02    -0.00  -0.01  -0.00    -0.05  -0.01  -0.03
  26   1     0.12  -0.56   0.15     0.01  -0.07   0.02    -0.07   0.07   0.03
  27   7    -0.03   0.16  -0.02    -0.00   0.02  -0.01    -0.02  -0.04  -0.10
  28   1     0.04  -0.19   0.08     0.01  -0.05   0.02     0.03   0.05  -0.12
  29   1     0.05  -0.04   0.01     0.00   0.02  -0.00    -0.09  -0.10  -0.03
  30   6    -0.01  -0.04   0.01    -0.02  -0.05   0.02     0.01   0.02  -0.01
  31   8     0.02  -0.06  -0.02     0.02  -0.04  -0.02    -0.01   0.02   0.00
  32   7     0.04   0.15  -0.03     0.02   0.08  -0.03     0.00  -0.04   0.02
  33   1     0.02   0.02  -0.01    -0.01   0.00  -0.01     0.00  -0.01   0.01
  34   1    -0.16  -0.35  -0.02    -0.06  -0.16  -0.03     0.04   0.10   0.02
  35   7     0.03   0.11   0.04     0.01   0.05   0.03     0.00  -0.04  -0.02
  36   1    -0.16  -0.18  -0.01    -0.07  -0.07  -0.00     0.01   0.00  -0.01
  37   1    -0.01   0.03  -0.02    -0.00   0.01  -0.01     0.02   0.03   0.01
  38   6    -0.00  -0.03  -0.02     0.00   0.01   0.08    -0.01   0.00  -0.00
  39   8     0.04  -0.01  -0.01    -0.09   0.05   0.01     0.02  -0.00   0.02
  40   7    -0.04  -0.06   0.00     0.15   0.15  -0.07    -0.01  -0.08   0.02
  41   1     0.01   0.03  -0.02    -0.17  -0.44   0.13     0.06   0.12  -0.06
  42   1    -0.01   0.01  -0.02     0.19   0.08  -0.03    -0.04  -0.04   0.02
  43   7     0.04   0.15  -0.05    -0.05  -0.12   0.05     0.01   0.07  -0.06
  44   1    -0.02  -0.15   0.08    -0.27  -0.23   0.01     0.04   0.03  -0.00
  45   1    -0.14  -0.24   0.19     0.29   0.28  -0.33    -0.10  -0.15   0.11
  46   6    -0.00  -0.01   0.01     0.03   0.01   0.03    -0.02  -0.00  -0.02
  47   8     0.01   0.00  -0.01     0.02   0.02   0.04    -0.01  -0.01  -0.03
  48   7    -0.01   0.06  -0.03    -0.00  -0.00  -0.07    -0.01   0.01   0.04
  49   1     0.01   0.02  -0.00    -0.03  -0.02  -0.02     0.01   0.01   0.01
  50   1    -0.01  -0.23   0.09     0.02  -0.05  -0.02    -0.01   0.03   0.02
  51   7     0.01   0.05   0.00    -0.05   0.01   0.01     0.04  -0.01  -0.00
  52   1    -0.01  -0.06   0.02    -0.04  -0.02   0.04     0.03   0.00  -0.02
  53   1     0.00  -0.01   0.01    -0.03  -0.00  -0.03     0.02   0.01   0.02
                     43                     44                     45
                        a                      a                      a 
 Frequencies --   468.1867               469.8914               472.4400
 Red. masses --     6.4752                 4.6424                 7.0158
 Frc consts  --     0.0000                 0.0000                 0.0000
 IR Inten    --    14.9227                40.3946                 9.1258
 Raman Activ --     0.0000                 0.0000                 0.0000
 Depolar     --     0.0000                 0.0000                 0.0000
 Atom AN      X      Y      Z        X      Y      Z        X      Y      Z
   1   8    -0.03   0.03  -0.01    -0.02   0.01  -0.01    -0.01   0.01  -0.01
   2   6     0.13  -0.04  -0.01     0.06  -0.02   0.00     0.03  -0.01   0.00
   3   1     0.02  -0.01   0.00    -0.00  -0.00   0.01     0.01  -0.00   0.00
   4   1     0.05  -0.04   0.01     0.03  -0.02   0.02     0.01  -0.01   0.00
   5   6     0.13  -0.05  -0.08     0.06  -0.05  -0.08     0.02  -0.02  -0.02
   6   1     0.04  -0.03  -0.02    -0.01  -0.07  -0.00     0.00  -0.02   0.00
   7   1     0.03  -0.01  -0.04     0.01  -0.01  -0.08     0.00  -0.00  -0.02
   8   7     0.08  -0.03  -0.09     0.10   0.04  -0.01     0.02   0.00  -0.01
   9   6    -0.04   0.05   0.06     0.02   0.11   0.01    -0.00   0.02   0.01
  10   1    -0.04  -0.01   0.03    -0.00   0.03   0.00    -0.01   0.00   0.00
  11   1     0.01   0.06   0.02     0.01   0.06  -0.00     0.00   0.01   0.00
  12   1    -0.03   0.01   0.04    -0.02   0.02   0.01    -0.01   0.00   0.00
  13   6    -0.06   0.00   0.14    -0.08  -0.06   0.02    -0.02  -0.01   0.02
  14   1    -0.07   0.04   0.05    -0.03  -0.03   0.01    -0.01   0.00   0.01
  15   1    -0.03   0.01   0.05    -0.07   0.02  -0.01    -0.01   0.00   0.01
  16   1     0.01  -0.04   0.09    -0.02  -0.05   0.02    -0.00  -0.01   0.01
  17   6    -0.14   0.04  -0.06    -0.06  -0.03   0.06    -0.02   0.01  -0.00
  18   1    -0.02  -0.01   0.01    -0.02  -0.01   0.06    -0.01   0.00   0.01
  19   1    -0.10   0.01   0.03    -0.04  -0.02   0.02    -0.01   0.00   0.01
  20   1    -0.06   0.05  -0.07    -0.04  -0.02  -0.02    -0.01   0.00  -0.01
  21   1    -0.00   0.00  -0.00    -0.01   0.01  -0.01    -0.01   0.00  -0.00
  22   6    -0.05  -0.06  -0.08     0.02   0.05   0.06     0.01  -0.01  -0.00
  23   8    -0.15  -0.07   0.03     0.11   0.07  -0.05    -0.01  -0.02   0.02
  24   7     0.13   0.05  -0.09    -0.07  -0.06   0.07    -0.01   0.02  -0.01
  25   1     0.06  -0.03   0.03    -0.03   0.05  -0.01    -0.00  -0.02  -0.00
  26   1     0.05   0.06  -0.07    -0.01  -0.11   0.06    -0.02   0.05  -0.01
  27   7     0.03  -0.01   0.10    -0.04   0.05  -0.05     0.01  -0.03  -0.02
  28   1    -0.03  -0.19   0.23     0.01   0.26  -0.22     0.01  -0.11   0.06
  29   1     0.08   0.44  -0.00    -0.03  -0.56   0.04    -0.02   0.22  -0.03
  30   6     0.03  -0.01   0.03    -0.01   0.02  -0.01    -0.03   0.08  -0.04
  31   8     0.03  -0.02   0.03    -0.01   0.01  -0.01    -0.03   0.06  -0.05
  32   7    -0.00  -0.00  -0.07     0.01  -0.01   0.04    -0.04  -0.06   0.09
  33   1    -0.03   0.01  -0.03    -0.00  -0.03   0.01     0.00  -0.02   0.03
  34   1     0.03   0.02  -0.04     0.01   0.03   0.02     0.04   0.17   0.06
  35   7    -0.06   0.03   0.01     0.02  -0.01  -0.01     0.09  -0.11  -0.02
  36   1    -0.05  -0.00   0.02    -0.01  -0.03  -0.01     0.11   0.01  -0.05
  37   1    -0.02   0.02  -0.02     0.01   0.01   0.00     0.04  -0.04   0.06
  38   6    -0.01   0.05   0.12    -0.01   0.04   0.13     0.01   0.01   0.06
  39   8    -0.13   0.08   0.07    -0.17   0.08   0.07    -0.09   0.03   0.03
  40   7     0.13  -0.15   0.08     0.16  -0.15   0.07     0.08  -0.14   0.05
  41   1     0.13   0.18  -0.14     0.12   0.14  -0.13     0.08   0.10  -0.09
  42   1     0.02  -0.06   0.04     0.04  -0.05   0.03     0.02  -0.03   0.01
  43   7    -0.01   0.02  -0.17     0.00   0.07  -0.19     0.04   0.16  -0.15
  44   1    -0.13  -0.02  -0.09    -0.26  -0.20  -0.04    -0.20  -0.28   0.05
  45   1     0.08  -0.08  -0.10     0.12  -0.10  -0.14    -0.01  -0.22   0.03
  46   6    -0.11  -0.01  -0.07    -0.05   0.00  -0.03     0.18   0.03   0.12
  47   8    -0.05  -0.04  -0.15    -0.02  -0.01  -0.07     0.09   0.08   0.25
  48   7    -0.04   0.06   0.17    -0.02   0.03   0.07     0.06  -0.10  -0.31
  49   1     0.06   0.03   0.06     0.03   0.02   0.02    -0.11  -0.02  -0.12
  50   1    -0.06   0.00   0.11    -0.03  -0.02   0.05     0.11  -0.04  -0.19
  51   7     0.16  -0.02  -0.01     0.07  -0.00  -0.01    -0.27   0.03   0.04
  52   1     0.13  -0.01  -0.10     0.05  -0.02  -0.04    -0.22   0.02   0.17
  53   1     0.08  -0.01   0.13     0.03   0.01   0.05    -0.14   0.02  -0.21
                     46                     47                     48
                        a                      a                      a 
 Frequencies --   476.9678               482.4597               487.1841
 Red. masses --     6.1180                 7.0586                 5.7764
 Frc consts  --     0.0000                 0.0000                 0.0000
 IR Inten    --     2.9100                17.2269                92.7869
 Raman Activ --     0.0000                 0.0000                 0.0000
 Depolar     --     0.0000                 0.0000                 0.0000
 Atom AN      X      Y      Z        X      Y      Z        X      Y      Z
   1   8     0.05  -0.04   0.02     0.01  -0.00   0.01    -0.04   0.03  -0.02
   2   6    -0.19   0.06   0.01    -0.03   0.01  -0.00     0.14  -0.05  -0.00
   3   1    -0.02   0.01  -0.01     0.01  -0.00  -0.00     0.01  -0.00   0.01
   4   1    -0.07   0.06  -0.02    -0.02   0.01  -0.01     0.06  -0.04   0.02
   5   6    -0.19   0.07   0.13    -0.03   0.04   0.06     0.14  -0.08  -0.13
   6   1    -0.05   0.06   0.03     0.02   0.05  -0.00     0.01  -0.09  -0.01
   7   1    -0.04   0.01   0.07    -0.01   0.01   0.06     0.02  -0.02  -0.10
   8   7    -0.11   0.03   0.13    -0.06  -0.03   0.00     0.13   0.02  -0.07
   9   6     0.04  -0.08  -0.09    -0.02  -0.08  -0.00    -0.00   0.13   0.06
  10   1     0.06   0.01  -0.05     0.00  -0.02  -0.00    -0.04   0.02   0.03
  11   1    -0.02  -0.09  -0.04    -0.01  -0.03   0.00     0.02   0.09   0.03
  12   1     0.04  -0.02  -0.05     0.01  -0.01  -0.00    -0.03   0.03   0.03
  13   6     0.10  -0.01  -0.21     0.05   0.04  -0.02    -0.12  -0.03   0.12
  14   1     0.10  -0.06  -0.07     0.02   0.02  -0.01    -0.08   0.01   0.04
  15   1     0.06  -0.02  -0.07     0.04  -0.01   0.00    -0.08   0.02   0.03
  16   1    -0.00   0.06  -0.13     0.02   0.04  -0.01    -0.01  -0.06   0.08
  17   6     0.24  -0.05   0.07     0.06   0.02  -0.05    -0.21  -0.01   0.02
  18   1     0.05  -0.00  -0.03     0.03  -0.00  -0.04    -0.07   0.01   0.07
  19   1     0.13  -0.02  -0.05     0.02   0.01  -0.01    -0.09  -0.00   0.03
  20   1     0.11  -0.04   0.10     0.04   0.03   0.01    -0.10  -0.01  -0.06
  21   1     0.00   0.00   0.00     0.01  -0.01   0.01    -0.01   0.01  -0.00
  22   6     0.06   0.00   0.06    -0.16  -0.02  -0.17     0.04   0.00   0.06
  23   8     0.09  -0.01   0.03    -0.28  -0.01  -0.06     0.10   0.01   0.01
  24   7    -0.11   0.03   0.03     0.33  -0.06  -0.10    -0.10   0.01   0.04
  25   1    -0.05  -0.04  -0.03     0.14   0.06   0.08    -0.04  -0.02  -0.02
  26   1    -0.07   0.03   0.05     0.17   0.00  -0.15    -0.05   0.02   0.04
  27   7     0.00  -0.05  -0.11     0.00   0.08   0.30    -0.00  -0.02  -0.09
  28   1     0.06  -0.15  -0.02    -0.16   0.24   0.14     0.05  -0.05  -0.06
  29   1    -0.09   0.20  -0.07     0.24  -0.25   0.14    -0.08   0.03  -0.04
  30   6     0.03   0.02   0.02     0.06  -0.02   0.06     0.04   0.00   0.02
  31   8     0.02   0.02   0.03     0.06  -0.04   0.06     0.03   0.00   0.05
  32   7    -0.01  -0.09  -0.02    -0.03  -0.07  -0.15    -0.00  -0.09  -0.05
  33   1    -0.04  -0.01  -0.02    -0.08   0.05  -0.06    -0.04   0.02  -0.02
  34   1     0.12   0.23  -0.01     0.15   0.21  -0.09     0.12   0.21  -0.02
  35   7    -0.06  -0.02  -0.01    -0.11   0.02   0.03    -0.09   0.01  -0.01
  36   1     0.00   0.04   0.02    -0.03   0.07   0.06    -0.02   0.05   0.03
[...]
  44   1    -0.00   0.00   0.00    -0.00  -0.00   0.00    -0.01   0.01   0.03
  45   1     0.00   0.00  -0.00    -0.00  -0.00   0.00    -0.01  -0.00  -0.01
  46   6     0.00   0.00   0.01     0.00   0.00   0.00     0.02   0.00   0.01
  47   8    -0.00   0.00  -0.00    -0.00  -0.00  -0.00    -0.01  -0.00  -0.00
  48   7    -0.05   0.03   0.13     0.01  -0.01  -0.03    -0.02   0.01   0.03
  49   1     0.13  -0.14  -0.53    -0.03   0.03   0.12     0.03  -0.04  -0.14
  50   1     0.05   0.01   0.05    -0.01  -0.00  -0.01     0.01   0.00   0.01
  51   7    -0.00  -0.00  -0.00    -0.00   0.00  -0.00    -0.00  -0.00  -0.00
  52   1    -0.00  -0.00  -0.00    -0.00   0.00  -0.00    -0.01  -0.00  -0.01
  53   1     0.01  -0.00  -0.00     0.00  -0.00   0.00     0.02  -0.00  -0.00
                    142                    143                    144
                        a                      a                      a 
 Frequencies --  3480.5047              3496.1680              3500.9057
 Red. masses --     1.4580                 1.4548                 1.4454
 Frc consts  --     0.0000                 0.0000                 0.0000
 IR Inten    --    23.8696                18.5934                23.9056
 Raman Activ --     0.0000                 0.0000                 0.0000
 Depolar     --     0.0000                 0.0000                 0.0000
 Atom AN      X      Y      Z        X      Y      Z        X      Y      Z
   1   8     0.00   0.00   0.00    -0.00   0.00   0.00     0.00  -0.00  -0.00
   2   6    -0.00   0.00   0.00    -0.00   0.00   0.00     0.00  -0.00  -0.00
   3   1    -0.00   0.00  -0.00     0.00   0.00  -0.00     0.00  -0.00  -0.00
   4   1     0.00  -0.00  -0.00     0.00  -0.00   0.00    -0.00  -0.00   0.00
   5   6     0.00   0.00   0.00    -0.00  -0.00   0.00     0.00   0.00  -0.00
   6   1    -0.00  -0.00  -0.00    -0.00  -0.00  -0.00     0.00   0.00   0.00
   7   1    -0.00  -0.00   0.00     0.00   0.00   0.00    -0.00  -0.00  -0.00
   8   7     0.00   0.00   0.00     0.00   0.00   0.00    -0.00   0.00  -0.00
   9   6     0.00  -0.00  -0.00     0.00  -0.00   0.00    -0.00   0.00  -0.00
  10   1     0.00  -0.00  -0.00    -0.00  -0.00  -0.00     0.00   0.00   0.00
  11   1    -0.00   0.00   0.00     0.00  -0.00  -0.00     0.00  -0.00  -0.00
  12   1     0.00  -0.00   0.00    -0.00   0.00  -0.00     0.00  -0.00   0.00
  13   6     0.00  -0.00  -0.00    -0.00  -0.00   0.00    -0.00   0.00   0.00
  14   1     0.00  -0.00  -0.00    -0.00  -0.00  -0.00     0.00   0.00   0.00
  15   1    -0.00  -0.00   0.00     0.00   0.00   0.00    -0.00  -0.00  -0.00
  16   1    -0.00   0.00   0.00     0.00  -0.00  -0.00     0.00  -0.00  -0.00
  17   6     0.00  -0.00  -0.00    -0.00  -0.00   0.00    -0.00   0.00   0.00
  18   1    -0.00  -0.00   0.00     0.00   0.00  -0.00     0.00  -0.00  -0.00
  19   1     0.00  -0.00   0.00    -0.00  -0.00  -0.00     0.00  -0.00  -0.00
  20   1    -0.00   0.00   0.00     0.00  -0.00  -0.00    -0.00  -0.00  -0.00
  21   1     0.00  -0.00  -0.00    -0.00  -0.00  -0.00    -0.00   0.00   0.00
  22   6    -0.00  -0.00  -0.00     0.00   0.00  -0.00     0.00  -0.00  -0.00
  23   8     0.00   0.00   0.00    -0.00  -0.00  -0.00    -0.00   0.00   0.00
  24   7     0.00  -0.00  -0.00    -0.01  -0.00  -0.00    -0.00   0.00   0.00
  25   1    -0.00   0.00   0.00     0.01  -0.00  -0.00     0.00  -0.00  -0.00
  26   1     0.00   0.00   0.00     0.03   0.01   0.02    -0.00  -0.00  -0.00
  27   7     0.00   0.00   0.00     0.17   0.05  -0.06    -0.00  -0.00   0.00
  28   1     0.00   0.00   0.00    -0.54  -0.27  -0.41     0.00   0.00   0.00
  29   1     0.00  -0.00  -0.00    -0.08   0.08   0.65     0.00  -0.00  -0.00
  30   6    -0.00  -0.00   0.00     0.00  -0.00  -0.00     0.00  -0.00  -0.00
  31   8     0.00   0.00   0.00    -0.00   0.00   0.00    -0.00   0.00   0.00
  32   7     0.00   0.00   0.00    -0.00   0.00  -0.00    -0.00   0.00   0.00
  33   1     0.00   0.00  -0.01     0.00   0.00  -0.00     0.00   0.00  -0.01
  34   1    -0.00  -0.00  -0.00     0.00  -0.00   0.00     0.01  -0.00   0.01
  35   7     0.00  -0.00  -0.00    -0.00  -0.00   0.00     0.00  -0.00   0.00
  36   1    -0.00   0.00  -0.00    -0.00   0.00  -0.00    -0.00   0.00  -0.00
  37   1    -0.00   0.00   0.00     0.01  -0.00  -0.00     0.00  -0.00  -0.00
  38   6    -0.00   0.00   0.00     0.00  -0.00  -0.00     0.00  -0.00  -0.00
  39   8     0.00  -0.00  -0.00    -0.00   0.00   0.00    -0.00   0.00   0.00
  40   7     0.01   0.00   0.01     0.00  -0.00   0.00     0.00   0.00   0.00
  41   1    -0.03   0.01  -0.00    -0.00   0.00  -0.00    -0.02   0.01  -0.00
  42   1     0.01  -0.02  -0.02     0.00   0.00   0.00     0.00  -0.01  -0.01
  43   7    -0.17   0.06   0.04    -0.00   0.00   0.00    -0.00   0.00   0.00
  44   1     0.24  -0.33  -0.64     0.00  -0.00  -0.00     0.00  -0.00  -0.00
  45   1     0.40   0.11   0.47    -0.00  -0.00  -0.00     0.00   0.00   0.00
  46   6     0.00  -0.00   0.00     0.00  -0.00  -0.00    -0.00  -0.00  -0.00
  47   8    -0.00   0.00   0.00    -0.00   0.00   0.00     0.00   0.00   0.00
  48   7    -0.00   0.00   0.00    -0.00   0.00   0.00     0.00   0.00   0.01
  49   1     0.00  -0.00  -0.00     0.00  -0.00  -0.00     0.00  -0.00  -0.01
  50   1     0.00   0.00   0.00     0.00   0.00   0.00    -0.03  -0.01  -0.03
  51   7    -0.00   0.00   0.00     0.00  -0.00  -0.00     0.03  -0.05  -0.17
  52   1    -0.00  -0.00  -0.00     0.00   0.00   0.00     0.52   0.08   0.47
  53   1     0.00  -0.00  -0.00    -0.00   0.00   0.00    -0.65   0.10   0.18
                    145                    146                    147
                        a                      a                      a 
 Frequencies --  3519.1236              3529.4814              3534.1001
 Red. masses --     1.9121                 1.8978                 1.8875
 Frc consts  --     0.0000                 0.0000                 0.0000
 IR Inten    --    16.1414                 8.2680                 9.1798
 Raman Activ --     0.0000                 0.0000                 0.0000
 Depolar     --     0.0000                 0.0000                 0.0000
 Atom AN      X      Y      Z        X      Y      Z        X      Y      Z
   1   8     0.00   0.00   0.00     0.00   0.00  -0.00    -0.00   0.00   0.00
   2   6     0.00  -0.00  -0.00    -0.00  -0.00  -0.00    -0.00   0.00  -0.00
   3   1     0.00  -0.00  -0.00     0.00   0.00   0.00     0.00   0.00   0.00
   4   1    -0.00   0.00   0.00     0.00  -0.00  -0.00     0.00   0.00  -0.00
   5   6     0.00  -0.00  -0.00     0.00   0.00   0.00    -0.00  -0.00   0.00
   6   1     0.00   0.00   0.00     0.00  -0.00  -0.00    -0.00  -0.00  -0.00
   7   1     0.00   0.00  -0.00    -0.00  -0.00  -0.00     0.00   0.00  -0.00
   8   7     0.00  -0.00  -0.00    -0.00   0.00   0.00     0.00   0.00   0.00
   9   6     0.00  -0.00  -0.00     0.00   0.00  -0.00     0.00  -0.00   0.00
  10   1     0.00   0.00   0.00    -0.00  -0.00  -0.00     0.00   0.00   0.00
  11   1    -0.00   0.00   0.00    -0.00   0.00   0.00    -0.00   0.00   0.00
  12   1     0.00  -0.00  -0.00     0.00  -0.00   0.00    -0.00   0.00  -0.00
  13   6     0.00   0.00  -0.00     0.00   0.00  -0.00     0.00  -0.00  -0.00
  14   1     0.00  -0.00   0.00    -0.00  -0.00  -0.00     0.00   0.00   0.00
  15   1    -0.00  -0.00  -0.00    -0.00  -0.00   0.00     0.00   0.00  -0.00
  16   1    -0.00   0.00   0.00    -0.00   0.00   0.00    -0.00   0.00   0.00
  17   6     0.00  -0.00  -0.00     0.00   0.00  -0.00     0.00   0.00  -0.00
  18   1     0.00   0.00  -0.00    -0.00  -0.00   0.00    -0.00  -0.00  -0.00
  19   1     0.00  -0.00   0.00     0.00  -0.00   0.00     0.00   0.00   0.00
  20   1    -0.01   0.00   0.00    -0.00   0.00  -0.00    -0.00   0.00   0.00
  21   1     0.00  -0.00  -0.00     0.00   0.00   0.00     0.00  -0.00  -0.00
  22   6     0.00   0.00  -0.00     0.00   0.00   0.00     0.01   0.00  -0.00
  23   8     0.00  -0.00   0.00    -0.00   0.00  -0.00    -0.00  -0.00  -0.00
  24   7     0.00   0.00   0.00     0.01   0.00   0.00     0.20   0.07   0.13
  25   1    -0.00   0.00   0.00    -0.00   0.00   0.00    -0.05   0.01   0.04
  26   1    -0.00  -0.00  -0.00    -0.02  -0.01  -0.02    -0.71  -0.28  -0.53
  27   7    -0.00  -0.00   0.00    -0.00  -0.00  -0.00    -0.00  -0.01  -0.03
  28   1     0.00   0.00   0.00     0.00   0.00   0.00     0.02   0.01   0.01
  29   1     0.00  -0.00  -0.00    -0.00   0.00   0.00    -0.01   0.01   0.09
  30   6    -0.00   0.00  -0.00    -0.00  -0.00  -0.01     0.00  -0.00   0.00
  31   8     0.00  -0.00  -0.00     0.00  -0.00   0.00    -0.00   0.00  -0.00
  32   7    -0.00   0.00  -0.00    -0.15   0.08  -0.18     0.01  -0.00   0.01
  33   1    -0.00  -0.00   0.01    -0.04  -0.00   0.07     0.00   0.00  -0.01
  34   1     0.00  -0.00   0.00     0.61  -0.29   0.61    -0.03   0.01  -0.03
  35   7    -0.00   0.00  -0.00     0.05  -0.05   0.05     0.00  -0.00   0.00
  36   1     0.00  -0.00   0.00    -0.17   0.16  -0.19    -0.01   0.01  -0.01
  37   1    -0.00   0.00  -0.00    -0.03   0.01   0.02    -0.00   0.00   0.00
  38   6     0.01  -0.00  -0.00    -0.00   0.00  -0.00     0.00   0.00   0.00
  39   8    -0.00   0.00  -0.00    -0.00  -0.00   0.00     0.00  -0.00  -0.00
  40   7     0.23  -0.12  -0.01    -0.00  -0.00  -0.00     0.00  -0.00   0.00
  41   1    -0.88   0.37  -0.04     0.01  -0.00   0.00    -0.00   0.00  -0.00
  42   1    -0.00   0.09   0.08    -0.00   0.00   0.00     0.00  -0.00  -0.00
  43   7     0.01   0.01   0.02    -0.00  -0.00  -0.00    -0.00  -0.00  -0.00
  44   1     0.01  -0.01  -0.01    -0.00   0.00   0.00    -0.00   0.00   0.00
  45   1    -0.04  -0.01  -0.04     0.01   0.00   0.01     0.00   0.00   0.00
  46   6    -0.00  -0.00  -0.00    -0.00  -0.00  -0.00    -0.00  -0.00  -0.00
  47   8     0.00   0.00   0.00     0.00  -0.00   0.00     0.00   0.00   0.00
  48   7     0.00   0.00   0.00    -0.01  -0.00  -0.01    -0.04  -0.01  -0.04
  49   1    -0.00   0.00   0.00    -0.00   0.00   0.00    -0.01   0.00   0.01
  50   1    -0.01  -0.00  -0.01     0.02   0.01   0.02     0.16   0.05   0.13
  51   7     0.00   0.00   0.00     0.00   0.00   0.00     0.01  -0.00  -0.00
  52   1    -0.01  -0.00  -0.01    -0.01  -0.00  -0.01    -0.00  -0.00  -0.00
  53   1     0.01  -0.00  -0.00    -0.00   0.00   0.00    -0.02   0.00   0.00
                    148                    149                    150
                        a                      a                      a 
 Frequencies --  3535.1871              3538.7469              3546.9946
 Red. masses --     1.9026                 1.9199                 2.1727
 Frc consts  --     0.0000                 0.0000                 0.0000
 IR Inten    --    17.8927                26.1513                16.1067
 Raman Activ --     0.0000                 0.0000                 0.0000
 Depolar     --     0.0000                 0.0000                 0.0000
 Atom AN      X      Y      Z        X      Y      Z        X      Y      Z
   1   8    -0.00   0.00   0.00    -0.00   0.00   0.00    -0.00   0.00   0.00
   2   6    -0.00   0.00  -0.00     0.00   0.00   0.00     0.00   0.00   0.00
   3   1     0.00   0.00   0.00     0.00   0.00  -0.00    -0.00  -0.00  -0.00
   4   1     0.00   0.00  -0.00    -0.00   0.00   0.00     0.00  -0.00  -0.00
   5   6    -0.00  -0.00   0.00    -0.00  -0.00  -0.00     0.00  -0.00   0.00
   6   1    -0.00  -0.00  -0.00     0.00   0.00   0.00     0.00   0.00   0.00
   7   1     0.00   0.00   0.00     0.00   0.00   0.00    -0.00  -0.00  -0.00
   8   7     0.00   0.00   0.00    -0.00  -0.00  -0.00    -0.00   0.00   0.00
   9   6     0.00  -0.00   0.00    -0.00  -0.00   0.00     0.00  -0.00  -0.00
  10   1    -0.00  -0.00  -0.00     0.00   0.00   0.00     0.00   0.00   0.00
  11   1     0.00  -0.00  -0.00     0.00   0.00  -0.00    -0.00   0.00   0.00
  12   1    -0.00   0.00  -0.00     0.00  -0.00  -0.00     0.00  -0.00  -0.00
  13   6    -0.00  -0.00   0.00    -0.00  -0.00   0.00     0.00  -0.00  -0.00
  14   1    -0.00   0.00  -0.00     0.00  -0.00  -0.00     0.00  -0.00  -0.00
  15   1    -0.00   0.00   0.00     0.00   0.00   0.00    -0.00  -0.00  -0.00
  16   1     0.00   0.00  -0.00     0.00   0.00  -0.00    -0.00   0.00   0.00
  17   6    -0.00   0.00   0.00    -0.00  -0.00  -0.00     0.00  -0.00  -0.00
  18   1    -0.00  -0.00   0.00     0.00   0.00  -0.00     0.00   0.00  -0.00
  19   1     0.00   0.00   0.00     0.00  -0.00   0.00     0.00  -0.00  -0.00
  20   1     0.00   0.00  -0.00    -0.00  -0.00   0.00    -0.00   0.00   0.00
  21   1     0.00  -0.00  -0.00     0.00  -0.00  -0.00     0.00  -0.00  -0.00
  22   6     0.00   0.00  -0.00    -0.00  -0.00  -0.00    -0.00  -0.00  -0.00
  23   8    -0.00  -0.00  -0.00     0.00  -0.00   0.00     0.00   0.00   0.00
  24   7     0.05   0.02   0.03     0.00   0.00   0.00    -0.00  -0.00  -0.00
  25   1    -0.02   0.00   0.01     0.00   0.00  -0.00     0.00   0.00  -0.00
  26   1    -0.16  -0.07  -0.12    -0.02  -0.01  -0.01     0.00   0.00   0.00
  27   7    -0.00  -0.00  -0.01     0.00   0.00   0.00     0.00   0.00   0.00
  28   1     0.01   0.00   0.00    -0.01  -0.00  -0.01    -0.00  -0.00  -0.00
  29   1    -0.00   0.00   0.02     0.00  -0.00  -0.00     0.00  -0.00  -0.00
  30   6     0.00  -0.00   0.00    -0.01   0.01  -0.00     0.00   0.00  -0.00
  31   8    -0.00   0.00  -0.00     0.00  -0.00   0.00    -0.00  -0.00  -0.00
  32   7    -0.01   0.00  -0.01    -0.05   0.03  -0.06     0.00  -0.00   0.00
  33   1    -0.00   0.00  -0.00    -0.01  -0.00   0.02    -0.00   0.00   0.00
  34   1     0.02  -0.01   0.02     0.20  -0.10   0.20    -0.01   0.00  -0.01
  35   7    -0.00   0.00  -0.00    -0.16   0.13  -0.14    -0.00   0.00  -0.00
  36   1     0.01  -0.01   0.01     0.51  -0.47   0.58     0.00  -0.00   0.01
  37   1    -0.00   0.00   0.00     0.10  -0.04  -0.05     0.00  -0.00  -0.00
  38   6    -0.00   0.00  -0.00    -0.00   0.00  -0.00    -0.00  -0.00  -0.01
  39   8    -0.00   0.00   0.00    -0.00  -0.00   0.00     0.00   0.00   0.00
  40   7    -0.00   0.00   0.00    -0.00   0.00  -0.00     0.01  -0.01  -0.00
  41   1     0.02  -0.01   0.00     0.01  -0.00   0.00    -0.05   0.02  -0.00
  42   1    -0.00  -0.00  -0.00    -0.00   0.00   0.00    -0.00   0.02   0.02
  43   7     0.00   0.00   0.00    -0.00   0.00   0.00    -0.07  -0.10  -0.27
  44   1     0.00  -0.00  -0.00     0.00  -0.00  -0.00    -0.21   0.26   0.50
  45   1    -0.00  -0.00  -0.00    -0.00  -0.00  -0.00     0.49   0.12   0.54
  46   6     0.00   0.00   0.01    -0.00  -0.00  -0.00    -0.00   0.00  -0.00
  47   8    -0.00  -0.00  -0.00     0.00  -0.00   0.00     0.00  -0.00  -0.00
  48   7     0.18   0.06   0.17    -0.01  -0.00  -0.01     0.00   0.00   0.00
  49   1     0.04  -0.02  -0.07    -0.00   0.00   0.01    -0.00   0.00   0.00
  50   1    -0.70  -0.21  -0.58     0.02   0.01   0.02    -0.00  -0.00  -0.00
  51   7    -0.02   0.00   0.00     0.00  -0.00   0.00     0.00   0.00   0.00
  52   1     0.01   0.00   0.01    -0.00  -0.00  -0.00    -0.00  -0.00  -0.00
  53   1     0.08  -0.01  -0.02    -0.00   0.00   0.00     0.00  -0.00  -0.00
                    151                    152                    153
                        a                      a                      a 
 Frequencies --  3554.4400              3559.9244              3568.0478
 Red. masses --     1.8785                 2.1746                 2.1881
 Frc consts  --     0.0000                 0.0000                 0.0000
 IR Inten    --    23.6656                13.9185                17.2202
 Raman Activ --     0.0000                 0.0000                 0.0000
 Depolar     --     0.0000                 0.0000                 0.0000
 Atom AN      X      Y      Z        X      Y      Z        X      Y      Z
   1   8     0.01  -0.09  -0.22    -0.00   0.00   0.00     0.00  -0.00  -0.00
   2   6    -0.00  -0.00  -0.01    -0.00  -0.00  -0.00     0.00  -0.00  -0.00
   3   1     0.00  -0.00   0.01     0.00   0.00   0.00    -0.00   0.00   0.00
   4   1    -0.00   0.00   0.01     0.00  -0.00  -0.00    -0.00   0.00   0.00
   5   6     0.00   0.00  -0.00     0.00   0.00   0.00     0.00   0.00   0.00
   6   1     0.00  -0.00   0.00     0.00   0.00   0.00    -0.00  -0.00  -0.00
   7   1    -0.00   0.00  -0.00    -0.00  -0.00  -0.00    -0.00  -0.00  -0.00
   8   7    -0.00   0.00  -0.00    -0.00  -0.00  -0.00    -0.00  -0.00   0.00
   9   6    -0.00   0.00  -0.00    -0.00  -0.00  -0.00    -0.00   0.00  -0.00
  10   1     0.00  -0.00   0.00     0.00   0.00   0.00    -0.00  -0.00   0.00
  11   1    -0.00   0.00   0.00    -0.00   0.00   0.00     0.00  -0.00  -0.00
  12   1     0.00  -0.00  -0.00     0.00   0.00   0.00    -0.00  -0.00   0.00
  13   6    -0.00   0.00   0.00     0.00   0.00  -0.00    -0.00   0.00   0.00
  14   1     0.00  -0.00   0.00     0.00   0.00  -0.00    -0.00   0.00   0.00
  15   1     0.00  -0.00  -0.00    -0.00  -0.00  -0.00     0.00   0.00   0.00
  16   1     0.00  -0.00  -0.00    -0.00   0.00   0.00     0.00  -0.00  -0.00
  17   6    -0.00   0.00  -0.00     0.00   0.00  -0.00    -0.00   0.00   0.00
  18   1     0.00   0.00   0.00    -0.00  -0.00   0.00    -0.00   0.00   0.00
  19   1     0.00  -0.00   0.00     0.00   0.00   0.00    -0.00   0.00   0.00
  20   1     0.00  -0.00   0.00    -0.00   0.00   0.00     0.00  -0.00  -0.00
  21   1    -0.01   0.38   0.89     0.00  -0.00  -0.00    -0.00   0.00   0.00
  22   6    -0.00  -0.00  -0.00     0.00   0.00   0.01     0.00   0.00   0.00
  23   8     0.00   0.00   0.00    -0.00  -0.00  -0.00    -0.00  -0.00  -0.00
  24   7     0.00   0.00   0.00     0.02   0.01   0.01     0.00   0.00   0.00
  25   1    -0.00   0.00   0.00    -0.01   0.00   0.00    -0.00   0.00   0.00
  26   1    -0.00  -0.00  -0.00    -0.07  -0.03  -0.05    -0.00  -0.00  -0.00
  27   7     0.00   0.00   0.00     0.10   0.08   0.27     0.00   0.00   0.00
  28   1    -0.00  -0.00  -0.00    -0.48  -0.24  -0.34    -0.00  -0.00  -0.00
  29   1     0.00  -0.00  -0.00     0.11  -0.07  -0.69     0.00  -0.00  -0.00
  30   6    -0.00  -0.00  -0.00     0.00  -0.00   0.00     0.00  -0.00   0.00
  31   8     0.00   0.00   0.00    -0.00   0.00  -0.00    -0.00   0.00  -0.00
  32   7    -0.00   0.00  -0.00     0.00  -0.00   0.00     0.00  -0.00   0.00
  33   1     0.00   0.00  -0.00     0.00   0.00  -0.00     0.00   0.00  -0.01
  34   1     0.00  -0.00   0.00    -0.00   0.00  -0.00    -0.00   0.00  -0.00
  35   7    -0.00   0.00  -0.00     0.00  -0.00   0.00     0.00  -0.00   0.00
  36   1     0.00  -0.00   0.00    -0.01   0.01  -0.01    -0.00   0.00  -0.00
  37   1     0.00  -0.00  -0.00    -0.01   0.00   0.00    -0.00   0.00   0.00
  38   6     0.00  -0.00  -0.00    -0.00   0.00   0.00    -0.00   0.00  -0.00
  39   8    -0.00   0.00   0.00     0.00  -0.00  -0.00    -0.00   0.00   0.00
  40   7     0.00  -0.00   0.00    -0.00  -0.00  -0.00    -0.00   0.00   0.00
  41   1    -0.00   0.00  -0.00     0.00   0.00   0.00     0.00  -0.00   0.00
  42   1     0.00  -0.00  -0.00     0.00  -0.00  -0.00     0.00  -0.01  -0.01
  43   7    -0.00  -0.00  -0.00     0.00   0.00   0.00    -0.00   0.00  -0.00
  44   1    -0.00   0.00   0.00     0.00  -0.00  -0.00    -0.00  -0.00  -0.00
  45   1     0.00   0.00   0.00    -0.00  -0.00  -0.00     0.00   0.00   0.00
  46   6    -0.00  -0.00  -0.00    -0.00   0.00  -0.00     0.01  -0.00   0.00
  47   8     0.00   0.00   0.00    -0.00  -0.00   0.00    -0.00   0.00  -0.00
  48   7     0.00   0.00   0.00     0.00   0.00   0.00     0.01   0.00   0.01
  49   1     0.00  -0.00  -0.00     0.00  -0.00  -0.00     0.00  -0.00  -0.01
  50   1    -0.00  -0.00  -0.00    -0.00  -0.00  -0.00    -0.06  -0.02  -0.05
  51   7    -0.00   0.00   0.00    -0.00   0.00  -0.00     0.29  -0.01   0.07
  52   1     0.00   0.00   0.00     0.00   0.00   0.00    -0.47  -0.08  -0.46
  53   1     0.00  -0.00  -0.00     0.00  -0.00  -0.00    -0.64   0.11   0.20
