 Entering Gaussian System
 *********************************************
 Gaussian 98:
 frequency output generated by the xtb code
 *********************************************
                         Standard orientation:
 --------------------------------------------------------------------
  Center     Atomic     Atomic              Coordinates (Angstroms)
  Number     Number      Type              X           Y           Z
 --------------------------------------------------------------------
    1          8             0        1.848709   -3.213724   -0.988344
    2          6             0        0.472238   -3.065228   -0.785253
    3          1             0        0.031856   -2.825135   -1.755817
    4          1             0        0.031586   -4.016742   -0.450147
    5          6             0        0.111856   -2.031166    0.285966
    6          1             0        0.638567   -2.311268    1.201877
    7          1             0       -0.966298   -2.060128    0.456260
    8          7             0        0.461411   -0.616066   -0.011276
    9          6             0        1.906054   -0.431523   -0.220141
   10          1             0        2.456163   -0.804528    0.642071
   11          1             0        2.108340    0.628877   -0.366522
   12          1             0        2.228391   -0.984582   -1.099473
   13          6             0        0.036274    0.191734    1.144081
   14          1             0        0.556020   -0.136895    2.041210
   15          1             0       -1.038792    0.075640    1.276079
   16          1             0        0.262323    1.237592    0.956882
   17          6             0       -0.264238   -0.131123   -1.193919
   18          1             0        0.035434   -0.687259   -2.077575
   19          1             0       -0.025336    0.919617   -1.337699
   20          1             0       -1.333719   -0.247085   -1.020577
   21          1             0        2.273205   -3.210102   -0.097818
   22          6             0        3.806575   -3.931044    1.661724
   23          8             0        2.927485   -3.087668    1.495559
   24          7             0        4.467065   -4.047344    2.834310
   25          1             0        4.185259   -3.468376    3.604813
   26          1             0        5.139010   -4.773302    3.001801
   27          7             0        4.167726   -4.791006    0.685031
   28          1             0        4.920688   -5.443893    0.800884
   29          1             0        3.744285   -4.705510   -0.223802
   30          6             0        1.050331    3.623695    0.186433
   31          8             0        1.216926    2.810311   -0.725770
   32          7             0        2.096634    4.279735    0.741982
   33          1             0        3.001853    4.176452    0.318982
   34          1             0        1.968765    5.008668    1.419698
   35          7             0       -0.163254    3.835041    0.728904
   36          1             0       -0.314547    4.573428    1.391795
   37          1             0       -0.977252    3.432590    0.256895
   38          6             0       -2.090066    2.895290   -2.041508
   39          8             0       -2.236699    2.751093   -0.824849
   40          7             0       -0.880681    3.076153   -2.596318
   41          1             0       -0.050606    3.030160   -2.005383
   42          1             0       -0.765224    3.182067   -3.587099
   43          7             0       -3.148823    2.855308   -2.884277
   44          1             0       -3.056796    3.054163   -3.863419
   45          1             0       -4.072786    2.797127   -2.495468
   46          6             0       -3.923318   -0.263264    0.624808
   47          8             0       -2.816409   -0.761738    0.453897
   48          7             0       -4.924000   -0.950469    1.236804
   49          1             0       -4.779983   -1.928538    1.415755
   50          1             0       -5.868758   -0.611036    1.241047
   51          7             0       -4.225779    0.989980    0.222303
   52          1             0       -5.079725    1.423189    0.525311
   53          1             0       -3.476005    1.602243   -0.092879
 --------------------------------------------------------------------
     1 basis functions        1 primitive gaussians
     1 alpha electrons        1 beta electrons

 Harmonic frequencies (cm**-1), IR intensities (km*mol⁻¹),
 Raman scattering activities (A**4/amu), Raman depolarization ratios,
 reduced masses (AMU), force constants (mDyne/A) and normal coordinates:
                      1                      2                      3
                        a                      a                      a 
 Frequencies --     4.5236                13.8884                20.9809
 Red. masses --    12.2627                12.1472                11.6948
 Frc consts  --     0.0000                 0.0000                 0.0000
 IR Inten    --     0.1152                 2.5147                 1.8840
 Raman Activ --     0.0000                 0.0000                 0.0000
 Depolar     --     0.0000                 0.0000                 0.0000
 Atom AN      X      Y      Z        X      Y      Z        X      Y      Z
   1   8     0.03  -0.07   0.03    -0.15  -0.11   0.06    -0.09   0.05   0.15
   2   6     0.02  -0.07  -0.02    -0.13  -0.10   0.08    -0.06   0.01   0.24
   3   1     0.01  -0.04  -0.01    -0.04  -0.04   0.02    -0.05  -0.02   0.07
   4   1     0.01  -0.02   0.01    -0.03  -0.03   0.03    -0.00   0.01   0.10
   5   6    -0.02  -0.02  -0.08    -0.11  -0.08   0.06    -0.01   0.07   0.19
   6   1    -0.01   0.01  -0.02    -0.03  -0.02   0.02     0.00   0.04   0.06
   7   1    -0.01  -0.01  -0.03    -0.03  -0.02   0.02    -0.00   0.03   0.06
   8   7    -0.04  -0.03  -0.16    -0.13  -0.09   0.03    -0.01   0.06   0.10
   9   6    -0.03  -0.02  -0.11    -0.12  -0.08   0.01    -0.00   0.05   0.16
  10   1    -0.02   0.00  -0.02    -0.03  -0.02   0.00    -0.01   0.03   0.06
  11   1    -0.01  -0.01  -0.04    -0.04  -0.02   0.00    -0.00   0.01   0.03
  12   1     0.00  -0.01  -0.02    -0.04  -0.03   0.00     0.01   0.00   0.06
  13   6    -0.08   0.02  -0.20    -0.12  -0.06   0.01    -0.08   0.14   0.01
  14   1    -0.03   0.02  -0.05    -0.03  -0.01   0.00    -0.04   0.06   0.02
  15   1    -0.02   0.01  -0.07    -0.03  -0.02   0.00    -0.03   0.05  -0.02
  16   1    -0.03   0.00  -0.07    -0.03  -0.02  -0.00    -0.02   0.04  -0.02
  17   6    -0.00  -0.10  -0.19    -0.13  -0.11   0.02     0.05  -0.05   0.02
  18   1     0.01  -0.04  -0.04    -0.04  -0.04   0.01     0.04  -0.03   0.02
  19   1    -0.00  -0.03  -0.07    -0.04  -0.03  -0.00     0.01  -0.01  -0.01
  20   1    -0.00  -0.03  -0.06    -0.04  -0.03   0.01     0.01  -0.02  -0.01
  21   1     0.00  -0.00   0.01    -0.03  -0.02   0.01    -0.00   0.01   0.03
  22   6    -0.03   0.09   0.10     0.15   0.18  -0.08     0.08  -0.12  -0.10
  23   8    -0.04   0.09   0.05     0.01   0.06  -0.02     0.14  -0.06   0.02
  24   7    -0.06   0.17   0.13     0.29   0.32  -0.15     0.26  -0.17  -0.21
  25   1    -0.02   0.06   0.03     0.07   0.07  -0.03     0.12  -0.04  -0.05
  26   1    -0.01   0.05   0.05     0.11   0.11  -0.05     0.06  -0.06  -0.08
  27   7     0.00   0.05   0.16     0.22   0.25  -0.11    -0.15  -0.18  -0.15
  28   1     0.00   0.02   0.06     0.09   0.10  -0.05    -0.05  -0.06  -0.07
  29   1     0.01   0.00   0.04     0.03   0.05  -0.02    -0.07  -0.04  -0.03
  30   6     0.14   0.01  -0.05     0.06  -0.11   0.08     0.01   0.15  -0.02
  31   8     0.04  -0.04  -0.04     0.06  -0.14   0.10     0.01   0.05   0.09
  32   7     0.22  -0.02  -0.16     0.07  -0.16   0.12     0.01   0.23  -0.10
  33   1     0.05  -0.02  -0.06     0.02  -0.06   0.04     0.00   0.04  -0.02
  34   1     0.08   0.00  -0.04     0.02  -0.04   0.03     0.00   0.08  -0.05
  35   7     0.20   0.09   0.03     0.05  -0.06   0.03     0.01   0.24  -0.05
  36   1     0.08   0.03   0.01     0.02  -0.01   0.01     0.00   0.08  -0.03
  37   1     0.04   0.03   0.03     0.01  -0.01   0.00     0.00   0.05   0.00
  38   6    -0.05   0.02   0.23     0.11   0.00  -0.02     0.02  -0.09   0.06
  39   8     0.04   0.05   0.28     0.07  -0.00  -0.03     0.02   0.01   0.08
  40   7    -0.10  -0.01   0.15     0.15  -0.06   0.02     0.02  -0.11   0.06
  41   1    -0.01  -0.00   0.02     0.03  -0.03   0.01     0.00  -0.01   0.02
  42   1    -0.05  -0.00   0.04     0.05  -0.01   0.01     0.01  -0.05   0.01
  43   7    -0.13   0.03   0.33     0.14   0.08  -0.06     0.03  -0.21   0.06
  44   1    -0.05   0.00   0.09     0.05   0.02  -0.01     0.01  -0.08   0.01
  45   1    -0.03   0.01   0.11     0.03   0.03  -0.02     0.01  -0.06   0.02
  46   6    -0.03  -0.06  -0.11    -0.11   0.06  -0.03    -0.05  -0.01  -0.13
  47   8    -0.06  -0.07  -0.25    -0.15  -0.00   0.02    -0.04   0.01  -0.10
  48   7    -0.04  -0.14  -0.21    -0.19   0.14  -0.06    -0.09  -0.07  -0.26
  49   1    -0.02  -0.05  -0.10    -0.07   0.04  -0.01    -0.02  -0.02  -0.08
  50   1    -0.01  -0.03  -0.03    -0.04   0.05  -0.03    -0.03  -0.02  -0.08
  51   7    -0.00   0.02   0.11    -0.04   0.07  -0.07    -0.05   0.01  -0.09
  52   1     0.01  -0.00   0.06    -0.01   0.03  -0.03    -0.02  -0.01  -0.03
  53   1     0.00   0.01   0.05     0.00   0.01  -0.02    -0.01   0.01   0.00
                      4                      5                      6
                        a                      a                      a 
 Frequencies --    25.8107                29.2712                34.7954
 Red. masses --    11.8641                12.0924                12.1035
 Frc consts  --     0.0000                 0.0000                 0.0000
 IR Inten    --     0.1469                 1.2071                 2.5854
 Raman Activ --     0.0000                 0.0000                 0.0000
 Depolar     --     0.0000                 0.0000                 0.0000
 Atom AN      X      Y      Z        X      Y      Z        X      Y      Z
   1   8     0.00  -0.07  -0.07    -0.06  -0.05  -0.06     0.02  -0.14   0.11
   2   6     0.01  -0.07  -0.01    -0.05  -0.03  -0.06     0.02  -0.14   0.13
   3   1    -0.01  -0.04  -0.00    -0.01  -0.01  -0.02    -0.00  -0.07   0.04
   4   1     0.01  -0.02   0.02    -0.02  -0.01  -0.01     0.02  -0.03   0.06
   5   6     0.03  -0.03  -0.05    -0.04  -0.01  -0.08     0.03  -0.06   0.05
   6   1     0.02   0.01  -0.02    -0.02  -0.00  -0.02     0.02   0.01   0.02
   7   1     0.01  -0.01  -0.00    -0.01   0.00  -0.03     0.01  -0.02   0.02
   8   7    -0.00  -0.04  -0.14    -0.01  -0.02  -0.10     0.00  -0.08  -0.08
   9   6    -0.02  -0.01  -0.20    -0.00  -0.05  -0.07    -0.00  -0.07  -0.10
  10   1     0.01   0.00  -0.06    -0.01  -0.02  -0.02     0.00  -0.00  -0.02
  11   1    -0.01  -0.00  -0.06     0.01  -0.01  -0.01    -0.01  -0.02  -0.05
  12   1    -0.01  -0.01  -0.06     0.00  -0.01  -0.02    -0.00  -0.04  -0.02
  13   6     0.03   0.01  -0.15    -0.02   0.01  -0.12     0.00   0.02  -0.14
  14   1     0.02   0.02  -0.05    -0.01   0.01  -0.03     0.00   0.03  -0.03
  15   1     0.01  -0.00  -0.03    -0.01   0.01  -0.04     0.00   0.01  -0.03
  16   1     0.00   0.00  -0.06     0.00   0.00  -0.04    -0.00   0.00  -0.07
  17   6    -0.07  -0.11  -0.12     0.02  -0.03  -0.12    -0.02  -0.19  -0.10
  18   1    -0.03  -0.04  -0.03     0.01  -0.02  -0.03    -0.00  -0.07  -0.02
  19   1    -0.03  -0.03  -0.05     0.01  -0.01  -0.04    -0.02  -0.06  -0.05
  20   1    -0.02  -0.04  -0.02     0.00  -0.00  -0.04    -0.00  -0.06  -0.03
  21   1     0.01   0.01  -0.02    -0.02  -0.02  -0.01     0.01  -0.03   0.03
  22   6    -0.04   0.05   0.00    -0.04   0.01  -0.02     0.10  -0.11   0.04
  23   8     0.10   0.18  -0.11    -0.12  -0.07  -0.03     0.09  -0.14   0.07
  24   7     0.13   0.28  -0.07    -0.22  -0.10   0.07    -0.00  -0.24   0.09
  25   1     0.09   0.15  -0.05    -0.10  -0.06   0.03    -0.02  -0.09   0.03
  26   1    -0.00   0.05   0.01    -0.03  -0.00   0.01     0.01  -0.05   0.01
  27   7    -0.39  -0.33   0.21     0.23   0.22  -0.11     0.24   0.03  -0.04
  28   1    -0.12  -0.10   0.07     0.06   0.06  -0.02     0.06   0.00  -0.01
  29   1    -0.12  -0.12   0.06     0.08   0.07  -0.04     0.07   0.02  -0.01
  30   6    -0.06   0.07   0.13    -0.03   0.12   0.09    -0.10   0.08   0.00
  31   8    -0.01   0.03   0.20     0.01   0.05   0.19    -0.09  -0.05   0.13
  32   7    -0.10   0.10   0.18    -0.05   0.16   0.10    -0.12   0.16  -0.06
  33   1    -0.02   0.02   0.07    -0.01   0.03   0.05    -0.03   0.01   0.01
  34   1    -0.04   0.03   0.04    -0.02   0.06   0.01    -0.03   0.06  -0.04
  35   7    -0.10   0.11   0.03    -0.06   0.22  -0.00    -0.13   0.20  -0.08
  36   1    -0.04   0.03   0.00    -0.02   0.07  -0.02    -0.04   0.07  -0.05
  37   1    -0.02   0.02   0.01    -0.01   0.04   0.00    -0.03   0.04  -0.01
  38   6     0.07  -0.01  -0.02     0.08  -0.18   0.02    -0.04   0.17  -0.03
  39   8     0.00  -0.02  -0.03     0.03  -0.01   0.04    -0.12   0.14  -0.05
  40   7     0.12  -0.06   0.05     0.09  -0.14   0.06     0.02  -0.09   0.02
  41   1     0.02  -0.01   0.03     0.02  -0.00   0.03    -0.01  -0.04   0.02
  42   1     0.05   0.00   0.02     0.04  -0.08   0.01     0.02   0.03   0.01
  43   7     0.13   0.01  -0.08     0.14  -0.47  -0.04    -0.03   0.52  -0.06
  44   1     0.05  -0.00  -0.02     0.05  -0.16  -0.02     0.01   0.13  -0.01
  45   1     0.03   0.01  -0.04     0.03  -0.13  -0.02    -0.01   0.17  -0.03
  46   6     0.04  -0.02   0.06     0.02   0.08   0.05     0.02  -0.01   0.02
  47   8     0.02  -0.05   0.02    -0.03   0.06  -0.13     0.02  -0.02  -0.01
  48   7     0.06   0.02   0.15     0.08   0.10   0.17     0.04   0.01   0.07
  49   1     0.01   0.00   0.04     0.02   0.02   0.02     0.01   0.00   0.02
  50   1     0.02   0.01   0.05     0.02   0.04   0.08     0.01   0.00   0.02
  51   7     0.04  -0.03   0.05     0.01   0.12   0.16     0.02  -0.01   0.03
  52   1     0.02  -0.00   0.02     0.02   0.04   0.08     0.00  -0.00   0.01
  53   1     0.01  -0.01  -0.00    -0.00   0.03   0.03    -0.00  -0.00  -0.01
                      7                      8                      9
                        a                      a                      a 
 Frequencies --    36.2788                40.8603                48.4686
 Red. masses --    12.3749                12.5600                12.3908
 Frc consts  --     0.0000                 0.0000                 0.0000
 IR Inten    --     2.4262                 2.3938                 3.0369
 Raman Activ --     0.0000                 0.0000                 0.0000
 Depolar     --     0.0000                 0.0000                 0.0000
 Atom AN      X      Y      Z        X      Y      Z        X      Y      Z
   1   8    -0.14  -0.25   0.08    -0.26  -0.17  -0.05     0.12   0.05   0.07
   2   6    -0.12  -0.03  -0.05    -0.21  -0.01  -0.01     0.08   0.01  -0.09
   3   1    -0.00   0.02  -0.02    -0.06   0.01   0.00     0.06   0.01  -0.04
   4   1    -0.08   0.01  -0.03    -0.09   0.01  -0.01     0.02  -0.00  -0.05
   5   6    -0.07  -0.01  -0.05    -0.07   0.00   0.02    -0.07  -0.04  -0.09
   6   1    -0.05  -0.03  -0.01    -0.02  -0.02  -0.00    -0.05  -0.02  -0.01
   7   1    -0.02   0.03  -0.04    -0.02   0.03   0.02    -0.02  -0.02  -0.06
   8   7     0.13  -0.05   0.01     0.03  -0.02   0.02    -0.06  -0.02   0.01
   9   6     0.15  -0.22   0.09     0.03  -0.14  -0.06    -0.04   0.01   0.18
  10   1     0.02  -0.09   0.03     0.01  -0.06  -0.03    -0.04  -0.00   0.07
  11   1     0.08  -0.07   0.04     0.03  -0.04  -0.01    -0.01   0.00   0.07
  12   1     0.04  -0.06   0.02    -0.02  -0.04  -0.03     0.02   0.01   0.06
  13   6     0.16  -0.03   0.01     0.16  -0.01   0.06    -0.20  -0.08  -0.01
  14   1     0.02  -0.03   0.01     0.06  -0.02   0.01    -0.09  -0.03   0.01
  15   1     0.04   0.03  -0.01     0.05   0.02   0.04    -0.06  -0.03  -0.04
  16   1     0.08  -0.01   0.02     0.07  -0.01   0.02    -0.06  -0.02   0.02
  17   6     0.24   0.09  -0.01     0.01   0.06   0.07     0.07   0.02  -0.05
  18   1     0.06   0.02  -0.00    -0.02   0.02   0.01     0.05   0.01  -0.01
  19   1     0.11   0.02   0.01     0.02   0.01   0.03     0.02   0.01   0.00
  20   1     0.06   0.07  -0.02     0.00   0.04   0.04     0.01   0.00  -0.05
  21   1    -0.05  -0.07   0.03    -0.06  -0.05  -0.02     0.00   0.00   0.03
  22   6     0.03  -0.02   0.03    -0.08   0.05  -0.02     0.02  -0.05   0.03
  23   8    -0.14  -0.19   0.08    -0.19  -0.05  -0.06    -0.07  -0.12   0.14
  24   7     0.24   0.21  -0.06    -0.10   0.15  -0.00     0.20   0.03  -0.06
  25   1     0.05   0.05  -0.01    -0.05   0.03  -0.00     0.06  -0.01  -0.00
  26   1     0.08   0.07  -0.02    -0.01   0.06   0.01     0.05   0.01  -0.03
  27   7     0.01  -0.07   0.06     0.04   0.09  -0.00    -0.06  -0.05   0.00
  28   1     0.04   0.03   0.00     0.02   0.04   0.01     0.01   0.02  -0.03
  29   1    -0.03  -0.05   0.03     0.01   0.00  -0.00    -0.04  -0.01   0.01
  30   6    -0.08  -0.02   0.02     0.02   0.12  -0.02    -0.03   0.00  -0.02
  31   8    -0.09   0.02  -0.01     0.10   0.08   0.04     0.04   0.02  -0.03
  32   7    -0.07  -0.11   0.10    -0.07   0.44  -0.23    -0.12   0.32  -0.23
  33   1    -0.02  -0.02   0.02    -0.02   0.13  -0.06    -0.03   0.11  -0.07
  34   1    -0.02  -0.02   0.02    -0.03   0.10  -0.05    -0.05   0.05  -0.03
  35   7    -0.09   0.01  -0.00     0.04  -0.09   0.10    -0.00  -0.32   0.18
  36   1    -0.02  -0.01   0.01    -0.01  -0.00  -0.00    -0.02  -0.06   0.02
  37   1    -0.03   0.01  -0.01     0.02  -0.05   0.04     0.01  -0.09   0.04
  38   6    -0.13   0.05   0.00     0.09  -0.01   0.05     0.05  -0.01  -0.03
  39   8    -0.18   0.19   0.01     0.11  -0.18   0.03     0.09  -0.14  -0.05
  40   7    -0.13   0.04   0.01     0.09   0.07   0.06     0.05   0.04  -0.04
  41   1    -0.04   0.01   0.01     0.03   0.01   0.01     0.02   0.00  -0.02
  42   1    -0.03  -0.03  -0.00     0.02   0.05   0.02     0.01   0.04  -0.01
  43   7    -0.12  -0.06  -0.02     0.09   0.10   0.05     0.04   0.11  -0.01
  44   1    -0.03  -0.03  -0.01     0.02   0.06   0.02     0.01   0.04  -0.00
  45   1    -0.03   0.00  -0.01     0.02   0.01   0.01     0.01   0.00  -0.00
  46   6     0.08   0.11  -0.08     0.05  -0.12   0.00    -0.03   0.04  -0.00
  47   8     0.14   0.25  -0.18     0.12  -0.06   0.20    -0.14  -0.08  -0.35
  48   7     0.18  -0.02  -0.08     0.02  -0.16  -0.08     0.04   0.11   0.21
  49   1     0.08  -0.01  -0.04     0.02  -0.03   0.01    -0.01   0.02   0.01
  50   1     0.04  -0.03  -0.00    -0.00  -0.06  -0.06     0.02   0.06   0.12
  51   7    -0.05   0.12   0.03     0.01  -0.19  -0.15     0.02   0.11   0.19
  52   1    -0.02   0.01   0.02    -0.01  -0.06  -0.07     0.04   0.05   0.12
  53   1    -0.03   0.05   0.01     0.01  -0.04  -0.02     0.01   0.01   0.01
                     10                     11                     12
                        a                      a                      a 
 Frequencies --    55.4529                57.7704                63.4994
 Red. masses --    12.2696                11.8716                12.7829
 Frc consts  --     0.0000                 0.0000                 0.0000
 IR Inten    --     2.3422                 2.1400                 3.5850
 Raman Activ --     0.0000                 0.0000                 0.0000
 Depolar     --     0.0000                 0.0000                 0.0000
 Atom AN      X      Y      Z        X      Y      Z        X      Y      Z
   1   8     0.18   0.02  -0.17     0.02   0.09  -0.14     0.09  -0.02   0.09
   2   6     0.15  -0.03  -0.17     0.01   0.05  -0.16     0.06   0.03  -0.10
   3   1     0.05   0.01  -0.05     0.01   0.05  -0.04     0.06   0.02  -0.04
   4   1     0.05  -0.02  -0.08    -0.00   0.00  -0.08    -0.01   0.01  -0.06
   5   6     0.10  -0.13  -0.09    -0.03  -0.07  -0.04    -0.04   0.00  -0.11
   6   1     0.03  -0.05  -0.03    -0.02  -0.05  -0.02    -0.03   0.00  -0.02
   7   1     0.03  -0.06  -0.02    -0.01  -0.03  -0.03    -0.01  -0.01  -0.05
   8   7     0.03  -0.10   0.03    -0.02  -0.04   0.14    -0.06   0.02  -0.08
   9   6     0.00  -0.02  -0.06    -0.01  -0.01   0.22    -0.06   0.02  -0.09
  10   1     0.02  -0.02  -0.03    -0.02  -0.03   0.06    -0.02   0.01  -0.02
  11   1    -0.01  -0.00   0.00    -0.00   0.00   0.09    -0.02   0.01  -0.03
  12   1    -0.01   0.02  -0.03     0.01   0.02   0.06    -0.02   0.00  -0.02
  13   6     0.07  -0.20   0.12    -0.08  -0.16   0.19    -0.05  -0.01  -0.04
  14   1     0.04  -0.08   0.02    -0.03  -0.07   0.05    -0.00  -0.00  -0.02
  15   1     0.02  -0.07   0.05    -0.02  -0.05   0.04    -0.01  -0.01  -0.00
  16   1     0.01  -0.05   0.06    -0.02  -0.04   0.09    -0.02  -0.00  -0.01
  17   6    -0.08  -0.01   0.12     0.04   0.08   0.15    -0.09   0.05  -0.04
  18   1    -0.04   0.02   0.02     0.03   0.06   0.03    -0.03   0.02  -0.02
  19   1    -0.02   0.00   0.05     0.01   0.03   0.08    -0.03   0.02  -0.00
  20   1    -0.02  -0.00   0.06     0.01   0.01   0.02    -0.02   0.01  -0.01
  21   1     0.04  -0.01  -0.04    -0.01   0.00  -0.03    -0.01  -0.03   0.04
  22   6     0.08  -0.06   0.02    -0.07   0.03  -0.03     0.04  -0.12   0.08
  23   8     0.12  -0.08  -0.12    -0.15  -0.04  -0.05    -0.12  -0.29   0.19
  24   7     0.03   0.05   0.07    -0.02   0.16  -0.05     0.23   0.01  -0.00
  25   1    -0.01   0.03   0.00    -0.02   0.04  -0.02     0.04  -0.03   0.02
  26   1    -0.00   0.01   0.05    -0.00   0.05  -0.00     0.07   0.01  -0.01
  27   7     0.13  -0.18   0.14    -0.06  -0.00   0.01     0.07  -0.09   0.05
  28   1     0.04  -0.04   0.06     0.01   0.03   0.00     0.07   0.03  -0.01
  29   1     0.06  -0.06   0.03    -0.01  -0.01   0.00     0.00  -0.03   0.02
  30   6    -0.04   0.03   0.00     0.01   0.05  -0.06     0.03   0.06  -0.02
  31   8    -0.07  -0.10   0.11    -0.03  -0.20   0.14    -0.03   0.01   0.02
  32   7    -0.04   0.21  -0.22     0.08  -0.03  -0.09     0.09  -0.05   0.01
  33   1    -0.01   0.04  -0.06     0.03  -0.07  -0.00     0.02  -0.04   0.00
  34   1    -0.00   0.06  -0.06     0.03   0.05  -0.09     0.04   0.01  -0.02
  35   7    -0.00   0.01   0.10    -0.01   0.42  -0.28     0.03   0.27  -0.12
  36   1     0.00   0.04  -0.01     0.01   0.14  -0.11     0.02   0.07  -0.03
  37   1    -0.01  -0.00   0.04    -0.01   0.09  -0.05     0.00   0.06  -0.01
  38   6    -0.03  -0.02   0.06     0.02   0.03  -0.04     0.01   0.05   0.04
  39   8    -0.05   0.15   0.08    -0.01   0.07  -0.04     0.05  -0.11   0.03
  40   7    -0.02  -0.14   0.04     0.05  -0.07  -0.02    -0.04   0.46   0.07
  41   1    -0.01  -0.03   0.01     0.01  -0.04   0.00    -0.01   0.09   0.01
  42   1    -0.00  -0.08   0.01     0.02  -0.03  -0.00    -0.01   0.11   0.02
  43   7    -0.03  -0.09   0.06     0.04   0.12  -0.06     0.02  -0.14   0.03
  44   1    -0.01  -0.05   0.01     0.02   0.03  -0.02    -0.01   0.03   0.02
  45   1    -0.01   0.00   0.02     0.01   0.06  -0.02     0.01  -0.09   0.01
  46   6    -0.12   0.17  -0.02     0.04  -0.12   0.04    -0.05  -0.05   0.01
  47   8    -0.10   0.21   0.18    -0.00  -0.22  -0.06    -0.06  -0.08   0.11
  48   7    -0.22   0.19  -0.16     0.01  -0.13  -0.01    -0.03   0.09   0.22
  49   1    -0.06   0.05  -0.02    -0.02  -0.04  -0.03    -0.00   0.03   0.11
  50   1    -0.06   0.05  -0.08     0.01  -0.01   0.02    -0.01   0.02   0.04
  51   7    -0.10   0.16  -0.12     0.14  -0.05   0.23    -0.10  -0.16  -0.32
  52   1    -0.04   0.04  -0.06     0.04  -0.01   0.07    -0.02  -0.02  -0.08
  53   1    -0.02   0.05  -0.00     0.04  -0.02   0.04    -0.02  -0.05  -0.07
                     13                     14                     15
                        a                      a                      a 
 Frequencies --    70.8750                74.8686                74.9729
 Red. masses --    12.5270                13.5506                12.3569
 Frc consts  --     0.0000                 0.0000                 0.0000
 IR Inten    --     2.9390                 1.5791                12.8289
 Raman Activ --     0.0000                 0.0000                 0.0000
 Depolar     --     0.0000                 0.0000                 0.0000
 Atom AN      X      Y      Z        X      Y      Z        X      Y      Z
   1   8     0.01   0.03  -0.07    -0.04   0.14  -0.12    -0.22   0.08  -0.25
   2   6     0.01  -0.02   0.00    -0.03   0.12  -0.05    -0.15  -0.02   0.13
   3   1    -0.01  -0.01   0.01    -0.02   0.04  -0.01    -0.12  -0.03   0.07
   4   1     0.02  -0.01   0.01    -0.01   0.03  -0.02    -0.00  -0.01   0.09
   5   6     0.01  -0.04   0.02     0.00   0.10  -0.02     0.02   0.02   0.16
   6   1    -0.00  -0.02   0.01     0.01   0.03  -0.01     0.04   0.01   0.03
   7   1     0.00  -0.01  -0.00     0.00   0.03   0.01     0.01   0.01   0.08
   8   7     0.06  -0.05   0.06    -0.02   0.11  -0.03    -0.01   0.01   0.08
   9   6     0.07  -0.04   0.19    -0.02   0.12  -0.01     0.00   0.02   0.16
  10   1    -0.00  -0.02   0.06    -0.01   0.05   0.01    -0.01   0.02   0.06
  11   1     0.03  -0.01   0.07    -0.01   0.03  -0.02    -0.00   0.00   0.03
  12   1     0.04  -0.00   0.06     0.00   0.02   0.01     0.02  -0.01   0.06
  13   6    -0.05  -0.04   0.02    -0.05   0.11  -0.04    -0.11   0.08  -0.01
  14   1    -0.04  -0.02   0.02    -0.02   0.03  -0.01    -0.06   0.04   0.02
  15   1    -0.02  -0.01  -0.02    -0.01   0.03  -0.02    -0.04   0.03  -0.03
  16   1    -0.00  -0.01   0.01    -0.01   0.03  -0.01    -0.03   0.02  -0.01
  17   6     0.17  -0.04  -0.01    -0.01   0.08  -0.04     0.07  -0.09  -0.01
  18   1     0.07  -0.01   0.01     0.01   0.02  -0.01     0.06  -0.03   0.01
  19   1     0.06  -0.01   0.00    -0.01   0.02  -0.01     0.00  -0.02  -0.01
  20   1     0.04  -0.01  -0.03    -0.00   0.01  -0.02     0.02  -0.05  -0.03
  21   1     0.01   0.03  -0.02    -0.01  -0.02  -0.03     0.01  -0.02  -0.09
  22   6    -0.04   0.09  -0.06     0.01  -0.12   0.03     0.11  -0.07  -0.03
  23   8     0.05   0.20  -0.10    -0.17  -0.35  -0.03     0.19  -0.10  -0.37
  24   7    -0.13   0.01  -0.03     0.10   0.14   0.02    -0.12   0.11   0.12
  25   1    -0.01   0.02  -0.01    -0.03   0.02   0.00    -0.06   0.07  -0.01
  26   1    -0.04  -0.00  -0.01     0.03   0.05   0.03    -0.04   0.04   0.10
  27   7    -0.09   0.07  -0.05     0.16  -0.16   0.11     0.30  -0.25   0.19
  28   1    -0.05  -0.01  -0.00     0.10   0.02   0.03     0.07  -0.07   0.12
  29   1    -0.02   0.03  -0.02     0.05  -0.07   0.02     0.13  -0.10   0.03
  30   6     0.02  -0.03   0.01     0.05   0.08  -0.00    -0.02  -0.02  -0.01
  31   8     0.01  -0.12   0.08     0.13   0.24  -0.12    -0.04   0.00  -0.04
  32   7     0.04  -0.01  -0.04     0.02  -0.04   0.23    -0.01  -0.03  -0.02
  33   1     0.01  -0.02  -0.01     0.01   0.02   0.06    -0.00  -0.00  -0.01
  34   1     0.02   0.01  -0.03    -0.02  -0.02   0.06     0.00  -0.01  -0.00
  35   7     0.03   0.06  -0.03     0.01   0.03  -0.08    -0.01  -0.04   0.02
  36   1     0.01   0.02  -0.02    -0.01  -0.04   0.02     0.00  -0.01   0.00
  37   1     0.00   0.00   0.01     0.01  -0.00  -0.03    -0.00  -0.00   0.00
  38   6    -0.03  -0.05   0.09     0.01  -0.13   0.01    -0.00   0.07  -0.02
  39   8    -0.03  -0.06   0.10     0.08  -0.16   0.02     0.01  -0.01  -0.03
  40   7    -0.02  -0.22   0.07     0.01  -0.52  -0.09    -0.03   0.33   0.01
  41   1    -0.01  -0.05   0.02     0.01  -0.07  -0.02    -0.01   0.05  -0.00
  42   1    -0.01  -0.03   0.02    -0.01  -0.03  -0.01    -0.01   0.06  -0.00
  43   7    -0.06   0.12   0.13    -0.08   0.21   0.11     0.01  -0.06  -0.03
  44   1    -0.01  -0.01   0.03    -0.03  -0.02   0.01    -0.00   0.03  -0.00
  45   1    -0.02   0.02   0.03    -0.01   0.04   0.04     0.00  -0.04  -0.01
  46   6    -0.01   0.03  -0.10    -0.04  -0.01   0.02    -0.00  -0.01  -0.03
  47   8    -0.00   0.08  -0.18    -0.03   0.01   0.05    -0.05  -0.07  -0.16
  48   7     0.18   0.16   0.35    -0.04  -0.01   0.03     0.03   0.04   0.07
  49   1     0.07   0.06   0.14    -0.01   0.00   0.02    -0.00   0.00   0.00
  50   1     0.04   0.01   0.09    -0.01  -0.01  -0.00     0.01   0.02   0.04
  51   7    -0.21  -0.13  -0.51    -0.06  -0.03  -0.03     0.03   0.01   0.02
  52   1    -0.03  -0.02  -0.09    -0.01  -0.01  -0.01     0.02   0.01   0.03
  53   1    -0.06  -0.02  -0.12    -0.01  -0.01  -0.00     0.01  -0.00  -0.01
                     16                     17                     18
                        a                      a                      a 
 Frequencies --    92.3345                96.6939               105.8563
 Red. masses --    13.4953                12.7019                11.6548
 Frc consts  --     0.0000                 0.0000                 0.0000
 IR Inten    --     2.8669                 0.2309                 6.4156
 Raman Activ --     0.0000                 0.0000                 0.0000
 Depolar     --     0.0000                 0.0000                 0.0000
 Atom AN      X      Y      Z        X      Y      Z        X      Y      Z
   1   8    -0.01   0.15  -0.04     0.03   0.14  -0.04    -0.12  -0.07   0.10
   2   6    -0.00   0.05   0.05     0.02   0.08   0.00    -0.11   0.09  -0.06
   3   1    -0.02  -0.00   0.02    -0.00   0.01   0.00     0.01   0.06  -0.03
   4   1     0.02   0.01   0.03     0.02   0.02   0.01    -0.07   0.03  -0.05
   5   6     0.02   0.05   0.06     0.02   0.09  -0.01    -0.12   0.05  -0.03
   6   1     0.03   0.03   0.01     0.01   0.03  -0.00    -0.04   0.00  -0.01
   7   1     0.01   0.00   0.04     0.01   0.03  -0.00    -0.04   0.02  -0.02
   8   7    -0.07   0.06  -0.01     0.02   0.09  -0.05    -0.11   0.07   0.03
   9   6    -0.07   0.13  -0.03     0.02   0.09  -0.01    -0.13   0.01  -0.22
  10   1    -0.01   0.07  -0.00    -0.00   0.04   0.01     0.00  -0.02  -0.10
  11   1    -0.04   0.04  -0.03     0.00   0.03  -0.01    -0.03   0.00  -0.06
  12   1    -0.01   0.03   0.00     0.01   0.02   0.00    -0.09   0.01  -0.09
  13   6    -0.09   0.09  -0.04    -0.02   0.12  -0.08     0.13  -0.03   0.18
  14   1    -0.02   0.04  -0.01    -0.02   0.03  -0.01     0.08  -0.04   0.02
  15   1    -0.02   0.01  -0.01    -0.01   0.04  -0.04     0.04   0.00   0.10
  16   1    -0.04   0.03  -0.03     0.01   0.03  -0.03     0.04  -0.00   0.07
  17   6    -0.09  -0.05  -0.04     0.04   0.04  -0.08    -0.28   0.21   0.20
  18   1    -0.01  -0.01  -0.00     0.01  -0.01  -0.01    -0.14   0.07   0.03
  19   1    -0.06  -0.01  -0.02     0.03   0.00  -0.04    -0.07   0.06   0.07
  20   1    -0.02  -0.05  -0.01     0.01   0.03  -0.02    -0.08   0.08   0.11
  21   1     0.00   0.01  -0.01     0.01   0.02  -0.01    -0.04  -0.01   0.03
  22   6    -0.07  -0.04   0.00    -0.01  -0.02   0.00     0.13  -0.02   0.04
  23   8    -0.23  -0.19   0.05    -0.04  -0.06  -0.00     0.26   0.08  -0.00
  24   7     0.04   0.10  -0.04     0.02   0.03  -0.00     0.05  -0.12   0.09
  25   1    -0.02  -0.01  -0.00    -0.01  -0.00   0.00     0.04  -0.01   0.02
  26   1     0.02   0.03  -0.01     0.00   0.01   0.00     0.00  -0.04   0.03
  27   7    -0.00   0.00  -0.01     0.02  -0.03   0.01     0.08  -0.07   0.07
  28   1     0.04   0.04  -0.02     0.02   0.01   0.00    -0.00  -0.05   0.03
  29   1    -0.01  -0.01   0.00     0.01  -0.01   0.00     0.04  -0.01   0.01
  30   6     0.02  -0.08   0.06     0.06  -0.15  -0.03     0.07   0.02  -0.00
  31   8    -0.08  -0.12   0.07     0.16  -0.34   0.13     0.11   0.02  -0.00
  32   7     0.06   0.02  -0.16     0.01  -0.00  -0.12     0.06   0.03   0.01
  33   1     0.01  -0.02  -0.05     0.01  -0.03  -0.00     0.02   0.01   0.01
  34   1     0.04  -0.02  -0.01    -0.01   0.01  -0.05     0.01   0.01   0.01
  35   7     0.08  -0.16   0.26     0.03  -0.12  -0.13     0.07  -0.01  -0.01
  36   1     0.04  -0.01   0.04    -0.01  -0.01  -0.07     0.01   0.00  -0.01
  37   1     0.01   0.01   0.05     0.01  -0.05  -0.03     0.02   0.00  -0.01
  38   6    -0.04   0.10  -0.01     0.03  -0.01   0.03    -0.01   0.01   0.00
  39   8    -0.17   0.51   0.02    -0.17  -0.07  -0.00    -0.09   0.12   0.00
  40   7     0.02  -0.13   0.03     0.11   0.06   0.20     0.03  -0.11   0.04
  41   1    -0.01  -0.02   0.02     0.02  -0.03   0.07     0.00  -0.01   0.02
  42   1     0.03  -0.14  -0.00     0.06  -0.01   0.06     0.02  -0.04   0.01
  43   7     0.04  -0.15  -0.11     0.17   0.03  -0.15     0.04  -0.00  -0.06
  44   1     0.04  -0.06  -0.03     0.09   0.05  -0.03     0.03  -0.03  -0.02
  45   1    -0.00   0.06  -0.04     0.03   0.03  -0.08     0.00   0.02  -0.03
  46   6     0.14  -0.08  -0.02    -0.12   0.02   0.08    -0.01  -0.06  -0.11
  47   8     0.15  -0.15   0.04    -0.01   0.32   0.08    -0.06  -0.06  -0.41
  48   7     0.14   0.00   0.06     0.03  -0.27   0.02     0.15  -0.09   0.11
  49   1     0.03   0.01   0.05     0.07  -0.07  -0.01     0.05  -0.03  -0.00
  50   1     0.04   0.01   0.01    -0.01  -0.14   0.01     0.04  -0.03   0.08
  51   7     0.17  -0.13  -0.17    -0.41  -0.03   0.16    -0.11  -0.05  -0.02
  52   1     0.04  -0.03  -0.06    -0.13  -0.06   0.04    -0.01  -0.02   0.05
  53   1     0.04  -0.03  -0.04    -0.14   0.02   0.04    -0.04  -0.01  -0.02
                     19                     20                     21
                        a                      a                      a 
 Frequencies --   109.5456               118.4662               131.5612
 Red. masses --    13.2856                11.6455                12.5274
 Frc consts  --     0.0000                 0.0000                 0.0000
 IR Inten    --    15.3581                12.9086                17.2874
 Raman Activ --     0.0000                 0.0000                 0.0000
 Depolar     --     0.0000                 0.0000                 0.0000
 Atom AN      X      Y      Z        X      Y      Z        X      Y      Z
   1   8     0.03  -0.08   0.01     0.14   0.05  -0.10    -0.02  -0.09   0.01
   2   6     0.01  -0.08  -0.07     0.14  -0.13   0.18     0.00   0.07   0.03
   3   1     0.02  -0.02  -0.03    -0.03  -0.07   0.08     0.00   0.03   0.01
   4   1     0.00  -0.03  -0.03     0.10  -0.05   0.09    -0.03   0.04   0.01
   5   6    -0.08  -0.10  -0.08     0.24  -0.12   0.21     0.13   0.12   0.02
   6   1    -0.05  -0.04  -0.01     0.12  -0.02   0.04     0.04   0.03   0.00
   7   1    -0.03  -0.03  -0.05     0.08  -0.06   0.11     0.04   0.06   0.02
   8   7    -0.04  -0.10   0.00     0.07  -0.11   0.10     0.24   0.09  -0.03
   9   6    -0.01  -0.11   0.18     0.02   0.04  -0.12     0.23  -0.02  -0.07
  10   1    -0.03  -0.05   0.06     0.05   0.05  -0.05     0.07  -0.01  -0.02
  11   1     0.01  -0.03   0.08    -0.03   0.01  -0.07     0.09  -0.01  -0.03
  12   1     0.02  -0.02   0.05    -0.01   0.00  -0.03     0.05  -0.02  -0.02
  13   6    -0.16  -0.12  -0.03     0.14  -0.09   0.12     0.28   0.13  -0.04
  14   1    -0.07  -0.04   0.01     0.07  -0.02   0.02     0.08   0.04  -0.01
  15   1    -0.05  -0.04  -0.04     0.05  -0.03   0.06     0.08   0.05  -0.00
  16   1    -0.04  -0.03   0.01     0.03  -0.03   0.02     0.09   0.03  -0.02
  17   6     0.10  -0.05  -0.07    -0.14  -0.23   0.17     0.21   0.10  -0.01
  18   1     0.04  -0.02  -0.01    -0.06  -0.07   0.05     0.06   0.03  -0.01
  19   1     0.05  -0.02  -0.02    -0.08  -0.06   0.03     0.06   0.03  -0.00
  20   1     0.02   0.00  -0.05    -0.03  -0.10   0.09     0.06   0.03  -0.00
  21   1    -0.00  -0.01   0.01     0.06   0.01  -0.04    -0.00  -0.02   0.00
  22   6     0.03   0.02  -0.01    -0.14   0.00  -0.04    -0.02   0.00  -0.01
  23   8     0.11   0.09  -0.04    -0.31  -0.13   0.02    -0.04  -0.01   0.01
  24   7    -0.02  -0.04   0.01    -0.05   0.13  -0.09    -0.01   0.01  -0.02
  25   1     0.01   0.01  -0.00    -0.04   0.01  -0.02    -0.00   0.00  -0.00
  26   1    -0.00  -0.01   0.00     0.01   0.05  -0.03     0.00   0.01  -0.01
  27   7    -0.00  -0.01   0.00    -0.07   0.07  -0.07    -0.01   0.03  -0.02
  28   1    -0.02  -0.02   0.01     0.01   0.05  -0.03    -0.01  -0.00  -0.00
  29   1     0.01   0.00  -0.00    -0.04  -0.00  -0.01    -0.01  -0.00  -0.00
  30   6     0.15   0.15  -0.07     0.04   0.07  -0.06     0.02  -0.04   0.02
  31   8     0.27   0.39  -0.24     0.14   0.18  -0.14     0.05  -0.10   0.07
  32   7     0.08   0.12   0.13    -0.01   0.04   0.10     0.01   0.00  -0.01
  33   1     0.03   0.09   0.03     0.00   0.05   0.02     0.00  -0.00   0.00
  34   1    -0.01   0.00   0.06    -0.03   0.01   0.02    -0.00   0.01  -0.01
  35   7     0.12  -0.03  -0.07     0.01  -0.01  -0.13     0.02  -0.05   0.01
  36   1     0.02  -0.05   0.02    -0.01  -0.03  -0.01     0.00  -0.00  -0.01
  37   1     0.03   0.01  -0.04     0.01  -0.01  -0.04     0.00  -0.01  -0.00
  38   6    -0.05   0.10  -0.01    -0.02   0.03   0.02    -0.04   0.03  -0.01
  39   8    -0.23   0.33  -0.00    -0.07  -0.00   0.02    -0.09   0.13  -0.01
  40   7     0.01  -0.01   0.09    -0.01   0.12   0.08    -0.02  -0.03   0.01
  41   1    -0.00   0.02   0.04    -0.00   0.02   0.02    -0.01  -0.00   0.01
  42   1     0.02  -0.05   0.02     0.00   0.03   0.02     0.00  -0.03   0.00
  43   7     0.06  -0.07  -0.15     0.02  -0.01  -0.02    -0.01  -0.01  -0.05
  44   1     0.05  -0.01  -0.04     0.01   0.01  -0.00     0.01  -0.02  -0.02
  45   1    -0.00   0.05  -0.06     0.00  -0.02  -0.02    -0.01   0.01  -0.02
  46   6    -0.08  -0.08   0.09    -0.04   0.03  -0.08    -0.22  -0.12   0.01
  47   8    -0.06  -0.04   0.19    -0.06   0.06  -0.27    -0.37  -0.37  -0.08
  48   7    -0.09  -0.10   0.08     0.06  -0.01   0.03    -0.35   0.12   0.13
  49   1    -0.02  -0.02   0.04     0.02  -0.01  -0.02    -0.16   0.02   0.02
  50   1    -0.03  -0.04   0.01     0.01  -0.01   0.04    -0.07   0.09   0.03
  51   7    -0.12  -0.11   0.02    -0.11   0.05   0.02    -0.04  -0.06   0.03
  52   1    -0.05  -0.04  -0.02    -0.02   0.01   0.05     0.02   0.02   0.04
  53   1    -0.04  -0.02   0.01    -0.04   0.02  -0.01     0.01  -0.04   0.00
                     22                     23                     24
                        a                      a                      a 
 Frequencies --   151.8990               165.7528               183.7163
 Red. masses --    12.4842                13.4338                 4.1492
 Frc consts  --     0.0000                 0.0000                 0.0000
 IR Inten    --     6.9550                23.5940                14.4903
 Raman Activ --     0.0000                 0.0000                 0.0000
 Depolar     --     0.0000                 0.0000                 0.0000
 Atom AN      X      Y      Z        X      Y      Z        X      Y      Z
   1   8    -0.03   0.05   0.01    -0.00  -0.03   0.00    -0.04   0.22  -0.09
   2   6    -0.03   0.04  -0.03    -0.00   0.02  -0.02    -0.05  -0.03   0.03
   3   1    -0.00   0.01  -0.01     0.01   0.02  -0.01    -0.05  -0.04   0.02
   4   1    -0.01   0.01  -0.01    -0.01   0.01  -0.01     0.04  -0.02   0.03
   5   6    -0.05   0.03  -0.03     0.02   0.01  -0.00    -0.08  -0.03   0.01
   6   1    -0.02   0.01  -0.01     0.00  -0.00  -0.00    -0.04  -0.01   0.01
   7   1    -0.02   0.01  -0.01     0.00   0.01  -0.00    -0.03   0.01  -0.01
   8   7    -0.03   0.03  -0.01     0.03   0.01   0.01     0.01  -0.06  -0.01
   9   6    -0.03   0.02  -0.01     0.03  -0.01   0.01     0.02  -0.12  -0.03
  10   1    -0.01  -0.00  -0.00     0.01  -0.00   0.00     0.01  -0.08  -0.03
  11   1    -0.00   0.00   0.00     0.01  -0.00  -0.00     0.02  -0.03   0.03
  12   1    -0.01   0.01  -0.00     0.01  -0.01   0.00    -0.01  -0.00  -0.03
  13   6    -0.02   0.02  -0.00     0.03   0.00   0.01     0.09  -0.01  -0.01
  14   1    -0.00   0.00  -0.00     0.01   0.00   0.00     0.04   0.00  -0.01
  15   1    -0.00   0.00   0.00     0.01   0.00   0.00     0.03   0.00   0.02
  16   1    -0.00   0.01   0.00     0.01   0.00   0.01     0.02  -0.01  -0.02
  17   6    -0.02   0.04  -0.01     0.03   0.02   0.01     0.03  -0.03  -0.01
  18   1    -0.02  -0.00  -0.00     0.01   0.01   0.00    -0.02  -0.03   0.00
  19   1     0.01   0.00  -0.01     0.00   0.01   0.01     0.04  -0.02  -0.02
  20   1    -0.01   0.03   0.00     0.01   0.00   0.00     0.01   0.03   0.01
  21   1    -0.01   0.01   0.00    -0.00  -0.01   0.00    -0.01   0.02  -0.03
  22   6     0.02  -0.00   0.01    -0.00  -0.00  -0.00     0.00   0.02   0.04
  23   8     0.03   0.01   0.01    -0.00   0.00  -0.00     0.05   0.07   0.06
  24   7     0.02  -0.01   0.01    -0.00  -0.00  -0.00     0.24   0.12  -0.04
  25   1     0.00  -0.01   0.01     0.00   0.00  -0.00    -0.26  -0.29   0.11
  26   1    -0.00  -0.01   0.00     0.00   0.00  -0.00    -0.40  -0.37   0.14
  27   7     0.00  -0.01   0.01     0.00   0.00  -0.00    -0.17  -0.11   0.07
  28   1     0.01   0.00   0.00    -0.00  -0.00   0.00     0.25   0.28  -0.12
  29   1     0.01   0.01   0.00    -0.00  -0.00   0.00     0.20   0.23  -0.08
  30   6    -0.07  -0.10  -0.15    -0.23   0.04  -0.13     0.00   0.01   0.00
  31   8     0.22  -0.13  -0.13    -0.45   0.20  -0.34    -0.02   0.03  -0.01
  32   7    -0.27   0.01   0.05    -0.06  -0.24  -0.18     0.02  -0.00  -0.01
  33   1    -0.05   0.04   0.06    -0.05  -0.05  -0.12     0.00  -0.01  -0.00
  34   1    -0.14   0.01  -0.01     0.04  -0.08  -0.02     0.01  -0.01   0.01
  35   7    -0.19  -0.18  -0.43    -0.14   0.05   0.06     0.01   0.01   0.02
  36   1    -0.08  -0.07  -0.10     0.01  -0.03   0.07     0.01   0.00   0.01
  37   1    -0.04  -0.08  -0.12    -0.06   0.04   0.03     0.00   0.00   0.01
  38   6     0.01   0.00   0.19     0.24   0.03   0.12    -0.01  -0.01  -0.00
  39   8    -0.14   0.03   0.22     0.14   0.10   0.14    -0.03  -0.03  -0.01
  40   7     0.05   0.01   0.33     0.27  -0.07   0.17    -0.00  -0.00   0.02
  41   1     0.01  -0.02   0.09     0.07  -0.02   0.06    -0.00  -0.00   0.01
  42   1     0.03  -0.01   0.09     0.07  -0.04   0.04     0.00   0.00   0.01
  43   7     0.08  -0.02   0.13     0.31   0.02   0.05     0.00   0.00  -0.02
  44   1     0.04  -0.03   0.03     0.11   0.01   0.02     0.01   0.01  -0.00
  45   1     0.01  -0.01   0.02     0.07   0.05  -0.00    -0.00   0.01  -0.01
  46   6     0.11   0.04  -0.04    -0.06  -0.03   0.01    -0.01  -0.00  -0.00
  47   8     0.07  -0.12   0.03    -0.06   0.01  -0.03    -0.01  -0.02  -0.01
  48   7    -0.00   0.20  -0.07    -0.02  -0.07   0.06    -0.01   0.01   0.00
  49   1    -0.04   0.05  -0.01     0.01  -0.02   0.00    -0.01   0.00  -0.00
  50   1     0.01   0.09  -0.03    -0.01  -0.03   0.02    -0.00   0.01  -0.00
  51   7     0.28   0.06  -0.08    -0.12  -0.04   0.02     0.01   0.00   0.00
  52   1     0.08   0.03  -0.03    -0.03  -0.01   0.01     0.00   0.00  -0.00
  53   1     0.09   0.01  -0.01    -0.03  -0.01   0.01     0.00  -0.00  -0.00
                     25                     26                     27
                        a                      a                      a 
 Frequencies --   196.2232               198.8333               218.9618
 Red. masses --     9.7149                12.5035                11.6590
 Frc consts  --     0.0000                 0.0000                 0.0000
 IR Inten    --    18.8197                46.4049                 7.1947
 Raman Activ --     0.0000                 0.0000                 0.0000
 Depolar     --     0.0000                 0.0000                 0.0000
 Atom AN      X      Y      Z        X      Y      Z        X      Y      Z
   1   8    -0.02  -0.57   0.08    -0.01  -0.21   0.02     0.28  -0.10   0.46
   2   6     0.02   0.05  -0.10     0.00   0.05  -0.05     0.23  -0.07   0.18
   3   1     0.07   0.10  -0.04     0.03   0.05  -0.02     0.11  -0.07   0.02
   4   1    -0.11   0.05  -0.08    -0.05   0.03  -0.04     0.06  -0.01   0.07
   5   6     0.24   0.02   0.01     0.10   0.02   0.00    -0.13   0.06  -0.04
   6   1     0.14   0.00  -0.04     0.05   0.00  -0.02    -0.13   0.04   0.05
   7   1     0.08  -0.02   0.08     0.03  -0.00   0.03    -0.05   0.01  -0.11
   8   7     0.02   0.09   0.03     0.02   0.05   0.02    -0.07   0.06   0.01
   9   6    -0.01   0.27   0.05     0.01   0.11   0.02    -0.05  -0.07   0.03
  10   1     0.00   0.21   0.07     0.00   0.08   0.03    -0.02  -0.07  -0.01
  11   1    -0.05   0.07  -0.11    -0.01   0.03  -0.04     0.02  -0.02   0.04
  12   1     0.04  -0.02   0.09     0.02  -0.01   0.04    -0.03  -0.00  -0.01
  13   6    -0.17   0.00   0.02    -0.05   0.01   0.02    -0.01   0.07   0.02
  14   1    -0.09  -0.02   0.03    -0.04  -0.01   0.01     0.05   0.06  -0.01
  15   1    -0.06  -0.00  -0.05    -0.02   0.01  -0.02     0.01  -0.02   0.05
  16   1    -0.04   0.01   0.04    -0.00   0.00   0.02    -0.05   0.03  -0.02
  17   6    -0.04  -0.01   0.03    -0.01   0.00   0.02    -0.02   0.15   0.02
  18   1     0.08   0.08  -0.01     0.02   0.03  -0.00    -0.10  -0.03   0.02
  19   1    -0.12   0.03   0.06    -0.04   0.01   0.02     0.10   0.01  -0.05
  20   1    -0.00  -0.12  -0.03    -0.00  -0.04  -0.00    -0.01   0.16   0.05
  21   1    -0.02  -0.10   0.03    -0.01  -0.04   0.01     0.04   0.00   0.14
  22   6    -0.02   0.01  -0.04    -0.01   0.00  -0.01    -0.05  -0.04  -0.20
  23   8     0.01   0.04  -0.07    -0.00   0.01  -0.02    -0.07  -0.08  -0.36
  24   7     0.03   0.08  -0.05     0.00   0.02  -0.01    -0.21   0.22  -0.11
  25   1    -0.13  -0.10   0.03    -0.03  -0.02   0.00    -0.16   0.05  -0.06
  26   1    -0.18  -0.14   0.06    -0.03  -0.02   0.01    -0.12   0.02   0.07
  27   7    -0.06  -0.05  -0.00    -0.00  -0.00  -0.01     0.07  -0.15  -0.07
  28   1     0.09   0.10  -0.04     0.01   0.01  -0.00     0.06   0.02   0.00
  29   1     0.08   0.07  -0.04     0.01   0.01  -0.01     0.07  -0.03  -0.04
  30   6    -0.01  -0.03  -0.01     0.05   0.05   0.02    -0.00  -0.01   0.00
  31   8     0.06  -0.05   0.02    -0.10   0.11  -0.04    -0.01  -0.01   0.01
  32   7    -0.07   0.03   0.03     0.18  -0.05  -0.10     0.00  -0.01  -0.01
  33   1    -0.01   0.01   0.04     0.03  -0.04  -0.06     0.00  -0.01  -0.00
  34   1    -0.04   0.01   0.01     0.10  -0.04   0.01     0.00  -0.00  -0.00
  35   7    -0.04  -0.04  -0.08     0.11   0.08   0.16    -0.00  -0.00   0.01
  36   1    -0.02  -0.00  -0.03     0.05   0.01   0.06     0.00   0.00  -0.00
  37   1    -0.01  -0.01  -0.03     0.02   0.02   0.07    -0.00   0.00   0.00
  38   6     0.05   0.05  -0.00    -0.16  -0.14   0.02     0.00  -0.01   0.00
  39   8     0.13   0.14   0.02    -0.41  -0.39  -0.03    -0.01  -0.01   0.00
  40   7     0.02   0.02  -0.10    -0.05  -0.06   0.34     0.00  -0.01   0.01
  41   1     0.02   0.01  -0.04    -0.04  -0.02   0.13    -0.00   0.00   0.00
  42   1    -0.01  -0.02  -0.03     0.04   0.08   0.11     0.00   0.01   0.00
  43   7    -0.02  -0.03   0.10     0.05   0.09  -0.27     0.01   0.02  -0.00
  44   1    -0.03  -0.03   0.02     0.10   0.04  -0.06     0.01  -0.03  -0.01
  45   1     0.01  -0.00   0.05    -0.02  -0.04  -0.16     0.00  -0.02  -0.01
  46   6    -0.01  -0.00   0.01     0.07   0.06  -0.03     0.01  -0.01  -0.00
  47   8     0.00   0.05   0.01     0.05  -0.03  -0.00     0.00  -0.02  -0.00
  48   7     0.02  -0.05   0.02    -0.00   0.14  -0.07     0.00   0.00   0.00
  49   1     0.02  -0.01   0.01    -0.03   0.03  -0.02    -0.00  -0.00  -0.00
  50   1     0.00  -0.03   0.01     0.01   0.06  -0.03     0.00   0.00  -0.01
  51   7    -0.07  -0.01  -0.01     0.17   0.07   0.01     0.02  -0.01  -0.00
  52   1    -0.02  -0.01   0.01     0.03   0.02  -0.04     0.01   0.00   0.00
  53   1    -0.02   0.00   0.01     0.04   0.01  -0.04     0.01  -0.00   0.00
                     28                     29                     30
                        a                      a                      a 
 Frequencies --   238.1511               266.4544               270.8946
 Red. masses --     2.5860                 3.0687                 4.0640
 Frc consts  --     0.0000                 0.0000                 0.0000
 IR Inten    --   131.4001                78.8291                74.5587
 Raman Activ --     0.0000                 0.0000                 0.0000
 Depolar     --     0.0000                 0.0000                 0.0000
 Atom AN      X      Y      Z        X      Y      Z        X      Y      Z
   1   8     0.01  -0.01   0.03    -0.04  -0.14  -0.15     0.05   0.22   0.19
   2   6     0.01   0.02  -0.00    -0.00  -0.08   0.03     0.00   0.13  -0.06
   3   1     0.01   0.01  -0.00    -0.03  -0.06   0.01     0.05   0.10  -0.02
   4   1    -0.00   0.01  -0.01     0.01  -0.01   0.06    -0.01   0.02  -0.10
   5   6     0.00   0.01   0.00     0.07   0.01  -0.02    -0.09  -0.03   0.05
   6   1    -0.00   0.00   0.00     0.02   0.01  -0.01    -0.03  -0.03   0.01
   7   1     0.00   0.00  -0.00     0.02  -0.00  -0.01    -0.03   0.00   0.01
   8   7     0.00   0.01   0.00     0.02   0.04  -0.00    -0.01  -0.08   0.03
   9   6     0.00   0.00  -0.01     0.02   0.10   0.05    -0.00  -0.18  -0.05
  10   1     0.00   0.01   0.00     0.01  -0.07  -0.03    -0.01   0.11   0.06
  11   1     0.00  -0.00  -0.01     0.01   0.04   0.12    -0.01  -0.08  -0.20
  12   1    -0.00  -0.01   0.00    -0.01   0.12  -0.05     0.01  -0.21   0.09
  13   6     0.01   0.02  -0.00    -0.06  -0.02   0.02     0.10   0.04  -0.02
  14   1    -0.01  -0.01   0.00     0.13   0.13  -0.03    -0.13  -0.12   0.04
  15   1    -0.00   0.02  -0.01     0.01  -0.18   0.12    -0.00   0.20  -0.12
  16   1     0.02   0.00   0.01    -0.22   0.03  -0.07     0.24  -0.02   0.06
  17   6    -0.01   0.00   0.00     0.03   0.08   0.01    -0.02  -0.12   0.01
  18   1    -0.00   0.00  -0.00    -0.12  -0.09   0.03     0.16   0.11  -0.03
  19   1    -0.00   0.00   0.00     0.14  -0.02  -0.09    -0.18   0.02   0.13
  20   1    -0.00  -0.00  -0.00     0.00   0.17   0.07     0.00  -0.23  -0.08
  21   1    -0.00  -0.00   0.01     0.01  -0.02  -0.05    -0.02   0.02   0.07
  22   6    -0.00  -0.00  -0.01    -0.01  -0.00   0.03     0.01  -0.01  -0.04
  23   8    -0.00  -0.00  -0.02    -0.01  -0.00   0.05     0.01   0.00  -0.07
  24   7    -0.01   0.01  -0.01     0.04  -0.02   0.01    -0.06   0.04  -0.01
  25   1    -0.01   0.00  -0.00     0.01  -0.02   0.01    -0.02   0.03  -0.02
  26   1    -0.01   0.00   0.00     0.00  -0.01  -0.01    -0.00   0.02   0.01
  27   7     0.01  -0.01  -0.00     0.00   0.04   0.01     0.01  -0.04  -0.01
  28   1     0.00  -0.00   0.00    -0.02  -0.02   0.01     0.01  -0.01   0.00
  29   1     0.00  -0.00  -0.00    -0.02  -0.01   0.01     0.01  -0.00  -0.01
  30   6     0.00   0.01   0.00     0.01  -0.02   0.01     0.01  -0.02   0.01
  31   8     0.01   0.01   0.01     0.02   0.02  -0.03     0.02   0.02  -0.02
  32   7    -0.01   0.00   0.04    -0.08   0.15  -0.19    -0.06   0.11  -0.13
  33   1    -0.01   0.02  -0.00     0.09  -0.25   0.27     0.07  -0.18   0.20
  34   1    -0.01   0.02  -0.01     0.09  -0.41   0.45     0.06  -0.31   0.34
  35   7     0.00   0.02  -0.01    -0.01   0.01   0.02    -0.01   0.01   0.01
  36   1    -0.00  -0.01   0.02    -0.02   0.14  -0.15    -0.01   0.10  -0.11
  37   1     0.00  -0.02   0.01     0.00   0.06  -0.05     0.00   0.03  -0.03
  38   6    -0.01  -0.01   0.02     0.00  -0.00   0.00     0.00   0.00   0.00
  39   8     0.03  -0.10   0.01     0.01  -0.02   0.00     0.00  -0.00   0.01
  40   7    -0.02   0.00   0.01     0.00  -0.01   0.01     0.00  -0.00   0.00
  41   1     0.00  -0.12  -0.01     0.00   0.01   0.00     0.00   0.01  -0.00
  42   1     0.01  -0.28  -0.03    -0.00   0.01   0.00    -0.00   0.03   0.00
  43   7    -0.03  -0.30  -0.04    -0.01  -0.02   0.01    -0.01  -0.01   0.01
  44   1    -0.06   0.70   0.14    -0.01   0.05   0.01    -0.01   0.00   0.00
  45   1    -0.01   0.51   0.08    -0.00   0.03   0.01     0.00  -0.00   0.01
  46   6     0.00   0.01  -0.03    -0.00   0.00  -0.01    -0.00   0.00   0.00
  47   8    -0.00   0.00  -0.03    -0.00   0.00  -0.01    -0.00   0.01   0.01
  48   7     0.00   0.05   0.03     0.00   0.00   0.02    -0.00  -0.01  -0.00
  49   1    -0.01   0.01  -0.02    -0.00  -0.00  -0.02     0.00   0.00   0.01
  50   1    -0.01  -0.00  -0.05    -0.00  -0.01  -0.03    -0.00  -0.00   0.01
  51   7     0.03   0.02   0.01    -0.01   0.00  -0.00    -0.01  -0.00   0.00
  52   1    -0.02  -0.01  -0.06    -0.00   0.00   0.01    -0.00   0.00  -0.00
  53   1    -0.00  -0.01  -0.04    -0.00   0.00   0.00    -0.00  -0.00  -0.00
                     31                     32                     33
                        a                      a                      a 
 Frequencies --   293.3536               309.2935               319.5022
 Red. masses --     6.8886                 2.8699                 7.7116
 Frc consts  --     0.0000                 0.0000                 0.0000
 IR Inten    --     0.1673               174.4160                 5.7314
 Raman Activ --     0.0000                 0.0000                 0.0000
 Depolar     --     0.0000                 0.0000                 0.0000
 Atom AN      X      Y      Z        X      Y      Z        X      Y      Z
   1   8     0.07  -0.04  -0.01     0.02  -0.03  -0.04     0.15  -0.19  -0.33
   2   6     0.05   0.30  -0.25     0.02  -0.01   0.01     0.17  -0.08   0.07
   3   1     0.10   0.24  -0.07    -0.00  -0.01   0.01    -0.01  -0.07   0.04
   4   1    -0.08   0.08  -0.23     0.01  -0.00   0.02     0.08  -0.01   0.09
   5   6     0.05  -0.04   0.10     0.02   0.01  -0.00     0.11   0.01   0.04
   6   1     0.04  -0.05   0.00     0.00   0.01   0.00     0.06   0.04   0.01
   7   1     0.02  -0.04   0.05     0.00   0.00  -0.01     0.04  -0.05   0.03
   8   7    -0.04  -0.04   0.13     0.01   0.01   0.00    -0.13   0.08   0.03
   9   6    -0.01  -0.27   0.16     0.01  -0.02   0.01    -0.09  -0.29   0.05
  10   1    -0.03  -0.16   0.03    -0.00  -0.02  -0.00    -0.06  -0.11   0.03
  11   1     0.06  -0.08   0.10     0.02  -0.01   0.02     0.07  -0.11  -0.02
  12   1    -0.03  -0.05   0.02    -0.00   0.00  -0.00    -0.07  -0.14   0.03
  13   6     0.04   0.33  -0.11    -0.01   0.03  -0.01    -0.13   0.25  -0.08
  14   1     0.16   0.30  -0.04    -0.03  -0.01   0.01    -0.26  -0.07   0.05
  15   1     0.04  -0.02   0.10    -0.01   0.03  -0.03    -0.08   0.29  -0.20
  16   1    -0.15   0.10  -0.22     0.03   0.00   0.00     0.23   0.03   0.04
  17   6    -0.15  -0.28   0.09    -0.02   0.03   0.02    -0.13   0.25   0.11
  18   1    -0.09  -0.14   0.05    -0.03  -0.01   0.01    -0.15   0.02   0.02
  19   1    -0.03  -0.10  -0.06     0.01   0.00  -0.01     0.07   0.04   0.01
  20   1    -0.04  -0.05   0.08    -0.01   0.03   0.03    -0.04   0.18   0.08
  21   1    -0.02  -0.05   0.01     0.01  -0.00  -0.01     0.08  -0.04  -0.11
  22   6     0.01   0.01  -0.01    -0.00   0.00   0.00    -0.02   0.02   0.05
  23   8     0.01   0.02  -0.01    -0.00   0.00   0.00    -0.02   0.02   0.06
  24   7    -0.02  -0.00  -0.00     0.00  -0.00  -0.00     0.06  -0.03   0.00
  25   1     0.00   0.01  -0.00    -0.00  -0.00   0.00     0.02  -0.04   0.02
  26   1     0.01   0.01  -0.00    -0.00  -0.00   0.00    -0.01  -0.04  -0.01
  27   7    -0.02  -0.01  -0.00    -0.00   0.01   0.00    -0.01   0.06   0.01
  28   1     0.01   0.01  -0.00    -0.00  -0.00   0.00    -0.04  -0.02   0.01
  29   1     0.01   0.01  -0.01    -0.00  -0.00   0.00    -0.02  -0.01   0.01
  30   6     0.01  -0.00  -0.00    -0.00   0.00  -0.00    -0.01  -0.00   0.00
  31   8     0.01  -0.00  -0.00    -0.00   0.00  -0.00    -0.01  -0.01   0.00
  32   7     0.00  -0.01   0.03    -0.00   0.00  -0.01    -0.00  -0.00  -0.01
  33   1    -0.01   0.02  -0.01     0.00  -0.01   0.01     0.00  -0.01   0.00
  34   1    -0.01   0.03  -0.03     0.00  -0.02   0.02     0.00  -0.01   0.01
  35   7     0.00  -0.02   0.00    -0.00   0.00   0.01    -0.00  -0.00   0.00
  36   1     0.00  -0.01   0.01    -0.00   0.01  -0.01    -0.00   0.00  -0.00
  37   1    -0.00   0.00  -0.00     0.00   0.00  -0.00     0.00  -0.01   0.00
  38   6    -0.00   0.00  -0.01     0.00  -0.01   0.01     0.01   0.00  -0.00
  39   8     0.00   0.00  -0.01     0.01  -0.01   0.01     0.00   0.01   0.00
  40   7    -0.00   0.02  -0.00    -0.00   0.01   0.00     0.00  -0.01  -0.01
  41   1    -0.00  -0.01  -0.00     0.00  -0.01  -0.00     0.00   0.01  -0.00
  42   1     0.00  -0.00  -0.00     0.00  -0.04  -0.00    -0.00   0.01  -0.00
  43   7    -0.01   0.00   0.00    -0.00  -0.00   0.01     0.00   0.00   0.01
  44   1    -0.00  -0.01  -0.00    -0.00   0.03   0.01     0.00  -0.01  -0.00
  45   1    -0.00  -0.01   0.00    -0.00   0.02   0.01     0.00  -0.00   0.00
  46   6     0.00   0.01  -0.01    -0.02   0.01   0.04     0.01  -0.01  -0.01
  47   8    -0.00   0.01  -0.02    -0.03  -0.01   0.01     0.01  -0.02  -0.00
  48   7     0.01  -0.00  -0.00    -0.03  -0.10  -0.35     0.00   0.01   0.05
  49   1     0.01  -0.00  -0.00     0.06   0.08   0.38    -0.01  -0.01  -0.04
  50   1     0.00  -0.00   0.00     0.11   0.26   0.75    -0.01  -0.03  -0.09
  51   7    -0.01   0.01  -0.00     0.02   0.01   0.04     0.02  -0.01  -0.00
  52   1     0.00   0.00   0.01    -0.09  -0.04  -0.20     0.01   0.00   0.01
  53   1    -0.00   0.00   0.00    -0.02  -0.01  -0.05     0.00   0.00   0.00
                     34                     35                     36
                        a                      a                      a 
 Frequencies --   335.3918               340.3856               354.6730
 Red. masses --     2.0623                 3.6853                 3.3876
 Frc consts  --     0.0000                 0.0000                 0.0000
 IR Inten    --    17.6620               449.0584                 6.0738
 Raman Activ --     0.0000                 0.0000                 0.0000
 Depolar     --     0.0000                 0.0000                 0.0000
 Atom AN      X      Y      Z        X      Y      Z        X      Y      Z
   1   8     0.00   0.03  -0.09    -0.00  -0.02   0.01    -0.07   0.05   0.15
   2   6    -0.02  -0.09  -0.06     0.00   0.00   0.02    -0.08   0.12  -0.12
   3   1    -0.02  -0.07  -0.02    -0.00   0.01   0.01     0.04   0.08  -0.05
   4   1     0.03  -0.03   0.02    -0.00   0.00   0.01    -0.07   0.03  -0.10
   5   6    -0.10  -0.03  -0.11     0.06   0.00   0.03     0.02  -0.01   0.01
   6   1    -0.07  -0.02  -0.01     0.04   0.01  -0.00     0.03  -0.04  -0.02
   7   1    -0.04   0.01  -0.08     0.02  -0.01   0.03     0.01   0.02   0.04
   8   7    -0.01  -0.01   0.02     0.01   0.01  -0.01     0.07  -0.03   0.02
   9   6    -0.00   0.06   0.10     0.00  -0.00  -0.03     0.04   0.21   0.01
  10   1    -0.04   0.44   0.24     0.01  -0.10  -0.06     0.04  -0.02  -0.05
  11   1    -0.08  -0.03  -0.41     0.02   0.01   0.09    -0.03   0.09   0.12
  12   1     0.11  -0.35   0.30    -0.03   0.08  -0.07     0.02   0.18  -0.07
  13   6     0.12   0.03   0.04    -0.04  -0.00  -0.01     0.03  -0.06   0.02
  14   1     0.11   0.06  -0.01    -0.06  -0.03   0.01    -0.22  -0.23   0.06
  15   1     0.05  -0.03   0.10    -0.02   0.03  -0.05    -0.04   0.21  -0.17
  16   1    -0.02   0.01  -0.05     0.03  -0.00   0.02     0.28  -0.05   0.14
  17   6    -0.01  -0.02   0.02     0.01   0.03  -0.00    -0.02  -0.27  -0.02
  18   1    -0.18  -0.17   0.05     0.00   0.01  -0.00    -0.26  -0.34   0.08
  19   1     0.17  -0.07  -0.15     0.00   0.01   0.01     0.23  -0.16  -0.26
  20   1    -0.01   0.20   0.11     0.00   0.01  -0.00    -0.01   0.21   0.15
  21   1    -0.00  -0.00  -0.02    -0.02  -0.06   0.01    -0.05   0.01   0.05
  22   6     0.02   0.04   0.01     0.09   0.10  -0.04     0.00  -0.02  -0.01
  23   8     0.01   0.03   0.01     0.02   0.03   0.00     0.01  -0.01  -0.02
  24   7    -0.02  -0.06   0.02    -0.21  -0.16   0.06    -0.01   0.03  -0.00
  25   1     0.05   0.02  -0.00     0.14   0.13  -0.04    -0.03   0.00  -0.01
  26   1     0.08   0.05  -0.04     0.34   0.29  -0.14    -0.03  -0.01   0.03
  27   7    -0.05  -0.04   0.03    -0.21  -0.24   0.09     0.03  -0.00  -0.02
  28   1     0.08   0.09  -0.03     0.41   0.44  -0.19    -0.03  -0.04   0.01
  29   1     0.04   0.04  -0.01     0.20   0.20  -0.07    -0.01  -0.01   0.00
  30   6    -0.00   0.00   0.01    -0.00  -0.00  -0.00    -0.01   0.01   0.00
  31   8    -0.01  -0.00   0.01    -0.00   0.00  -0.00    -0.01   0.01   0.00
  32   7     0.00   0.00   0.01     0.00   0.00  -0.01     0.00   0.00  -0.01
  33   1    -0.00   0.01  -0.01     0.00  -0.01   0.01     0.00  -0.01   0.00
  34   1    -0.00   0.02  -0.02     0.01  -0.02   0.02     0.01  -0.03   0.03
  35   7    -0.00   0.01   0.01    -0.00   0.00   0.00    -0.00   0.01   0.01
  36   1     0.00  -0.01   0.02    -0.00   0.01  -0.01    -0.01   0.02  -0.01
  37   1    -0.00  -0.00   0.01     0.00   0.00  -0.00     0.01  -0.01   0.00
  38   6     0.00   0.00  -0.00    -0.00  -0.00   0.00     0.01   0.02  -0.01
  39   8     0.01   0.00  -0.00    -0.00  -0.00   0.00     0.02   0.02  -0.01
  40   7     0.00  -0.00  -0.01    -0.00   0.00   0.00     0.01   0.01  -0.02
  41   1    -0.00   0.00   0.00    -0.00  -0.00   0.00    -0.01   0.00   0.01
  42   1     0.00   0.01  -0.00     0.00  -0.01   0.00     0.00   0.03  -0.00
  43   7    -0.00  -0.00  -0.00     0.00   0.00  -0.00    -0.01  -0.01   0.01
  44   1    -0.00   0.01   0.00     0.00   0.00   0.00    -0.01  -0.02  -0.00
  45   1    -0.00   0.00   0.00    -0.00   0.00  -0.00    -0.00  -0.00   0.01
  46   6    -0.00  -0.01  -0.00     0.00  -0.00   0.00    -0.01  -0.02  -0.00
  47   8    -0.00  -0.01  -0.01     0.00  -0.00   0.00    -0.01  -0.02  -0.01
  48   7    -0.01   0.00  -0.00    -0.00   0.00   0.00    -0.00  -0.00   0.02
  49   1    -0.00   0.00   0.00    -0.00   0.00  -0.00    -0.00  -0.00  -0.01
  50   1     0.00   0.01   0.01    -0.00  -0.00  -0.01    -0.00  -0.01  -0.02
  51   7     0.00  -0.00   0.00     0.01  -0.00  -0.00     0.02  -0.01   0.00
  52   1     0.00  -0.00  -0.00     0.00   0.00   0.00    -0.00  -0.00  -0.02
  53   1     0.00  -0.00   0.00     0.00  -0.00   0.00     0.00  -0.00  -0.00
                     37                     38                     39
                        a                      a                      a 
 Frequencies --   377.4515               384.2045               418.1253
 Red. masses --     7.2925                 3.3222                 3.1330
 Frc consts  --     0.0000                 0.0000                 0.0000
 IR Inten    --     0.9605               221.4499               204.3652
 Raman Activ --     0.0000                 0.0000                 0.0000
 Depolar     --     0.0000                 0.0000                 0.0000
 Atom AN      X      Y      Z        X      Y      Z        X      Y      Z
   1   8     0.04  -0.15  -0.12     0.01  -0.01  -0.01     0.01  -0.01  -0.01
   2   6     0.04  -0.20  -0.03     0.01  -0.01   0.01     0.01   0.02   0.00
   3   1    -0.01  -0.17  -0.03    -0.00  -0.01   0.00     0.00   0.01   0.00
   4   1     0.05  -0.04   0.10     0.01  -0.00   0.01    -0.00   0.00  -0.00
   5   6    -0.19   0.04  -0.25    -0.01   0.01  -0.01     0.00   0.00   0.02
   6   1    -0.18  -0.01  -0.01    -0.01   0.00   0.00     0.01   0.00   0.00
   7   1    -0.07   0.05  -0.19    -0.00   0.00  -0.01     0.00  -0.01   0.01
   8   7    -0.00   0.07  -0.02    -0.00   0.01   0.00    -0.03   0.01   0.01
   9   6     0.02   0.23   0.31     0.00  -0.00   0.03    -0.04  -0.01  -0.00
  10   1    -0.05  -0.04   0.08    -0.00  -0.01   0.01    -0.01  -0.00  -0.00
  11   1    -0.01   0.09   0.23     0.00   0.00   0.02    -0.01  -0.00  -0.00
  12   1     0.08   0.19   0.04     0.00   0.01   0.00    -0.02  -0.00  -0.00
  13   6     0.31   0.21   0.01     0.03   0.00   0.01     0.01  -0.00   0.04
  14   1     0.08   0.01  -0.01     0.02   0.01  -0.00     0.00  -0.02   0.01
  15   1     0.08   0.18   0.04     0.01  -0.00   0.01     0.00   0.01   0.01
  16   1     0.20   0.03  -0.01     0.00   0.00  -0.00     0.02  -0.00   0.02
  17   6    -0.22  -0.16   0.02    -0.02  -0.01  -0.00     0.02  -0.01  -0.03
  18   1     0.03   0.01   0.00     0.01   0.01  -0.00     0.01  -0.02   0.00
  19   1    -0.24  -0.01   0.03    -0.03   0.00  -0.00     0.02  -0.01  -0.02
  20   1    -0.04  -0.22   0.01    -0.00  -0.03  -0.01     0.00   0.01  -0.03
  21   1     0.02   0.00  -0.03     0.00   0.00  -0.00     0.00  -0.00  -0.00
  22   6    -0.00   0.01   0.01     0.00   0.00  -0.00    -0.00   0.00  -0.00
  23   8    -0.01   0.00   0.01     0.00  -0.00  -0.00    -0.00   0.00   0.00
  24   7     0.01  -0.02   0.00    -0.01   0.00   0.00     0.00  -0.00  -0.00
  25   1     0.02  -0.01   0.01     0.00   0.00  -0.00     0.00  -0.00  -0.00
  26   1     0.02   0.00  -0.02     0.01   0.01  -0.00    -0.00  -0.00  -0.00
  27   7    -0.00  -0.00   0.02    -0.00  -0.00  -0.00     0.00   0.00   0.00
  28   1     0.02   0.02  -0.00     0.01   0.01  -0.00     0.00   0.00   0.00
  29   1     0.01   0.00   0.00     0.00   0.00  -0.00     0.00  -0.00  -0.00
  30   6    -0.00   0.01  -0.01     0.00  -0.05   0.04    -0.01   0.02  -0.00
  31   8     0.00  -0.00  -0.00    -0.01  -0.04   0.03    -0.00   0.02   0.00
  32   7     0.00  -0.01  -0.00     0.00   0.02  -0.05     0.02  -0.03   0.00
  33   1     0.00  -0.00   0.00     0.00  -0.02  -0.00    -0.00  -0.01  -0.02
  34   1     0.01  -0.02   0.02     0.01   0.00  -0.01     0.02   0.02  -0.03
  35   7    -0.00  -0.02   0.01    -0.02   0.04  -0.08    -0.02  -0.03   0.02
  36   1    -0.01   0.02  -0.03     0.01  -0.14   0.15    -0.03   0.07  -0.08
  37   1     0.00  -0.00  -0.00    -0.01  -0.04   0.03     0.00  -0.00  -0.02
  38   6    -0.00  -0.01   0.00    -0.00   0.17   0.01    -0.02   0.04  -0.01
  39   8    -0.01  -0.01   0.00     0.02   0.08   0.00    -0.01   0.03  -0.01
  40   7    -0.00   0.02   0.00     0.02  -0.26  -0.02     0.01  -0.08   0.02
  41   1     0.00  -0.01  -0.00     0.00   0.12   0.01    -0.00   0.02   0.01
  42   1     0.00  -0.05  -0.00    -0.05   0.82   0.08     0.00   0.15   0.02
  43   7    -0.00   0.01   0.00     0.01  -0.23  -0.02     0.01  -0.06  -0.04
  44   1     0.00  -0.01  -0.00    -0.02   0.15   0.03    -0.03   0.20   0.03
  45   1    -0.00  -0.01  -0.00     0.00   0.11   0.02     0.01  -0.07   0.00
  46   6     0.00  -0.00   0.00    -0.02  -0.00  -0.03     0.07   0.01   0.08
  47   8     0.00  -0.00  -0.00    -0.02   0.01  -0.02     0.05  -0.03   0.08
  48   7    -0.00   0.00   0.00     0.00  -0.01   0.02    -0.01  -0.02  -0.18
  49   1    -0.00   0.00  -0.00     0.01  -0.00   0.00    -0.01   0.02   0.09
  50   1    -0.00  -0.00  -0.02    -0.00  -0.01   0.01     0.03   0.08   0.11
  51   7    -0.00  -0.00  -0.01     0.03   0.01   0.05    -0.18  -0.04  -0.22
  52   1     0.01   0.01   0.03    -0.07  -0.03  -0.14     0.34   0.21   0.74
  53   1     0.00  -0.00   0.00    -0.01  -0.00  -0.04     0.02  -0.04   0.02
                     40                     41                     42
                        a                      a                      a 
 Frequencies --   437.2538               443.3574               458.9275
 Red. masses --     8.7248                 3.1137                 2.2643
 Frc consts  --     0.0000                 0.0000                 0.0000
 IR Inten    --    13.1450               330.7395                 8.7316
 Raman Activ --     0.0000                 0.0000                 0.0000
 Depolar     --     0.0000                 0.0000                 0.0000
 Atom AN      X      Y      Z        X      Y      Z        X      Y      Z
   1   8     0.10  -0.17  -0.17     0.02  -0.03  -0.02     0.00   0.01   0.03
   2   6     0.12   0.09   0.00     0.01  -0.01  -0.01     0.01   0.02   0.02
   3   1     0.03   0.02   0.00     0.01   0.01  -0.00     0.00   0.01   0.01
   4   1     0.02   0.03   0.00     0.00  -0.01  -0.01    -0.00   0.01   0.01
   5   6    -0.15   0.05   0.04    -0.04  -0.04   0.02     0.02   0.04   0.00
   6   1    -0.12   0.00   0.05    -0.03  -0.02   0.01     0.01   0.02  -0.00
   7   1    -0.06  -0.01  -0.09    -0.01  -0.01  -0.02     0.01   0.01   0.01
   8   7    -0.19   0.10   0.24    -0.03  -0.02   0.07     0.01   0.02  -0.04
   9   6    -0.26   0.02  -0.21    -0.06   0.05  -0.04     0.02  -0.02   0.02
  10   1     0.02  -0.00  -0.13     0.02   0.01  -0.04    -0.01  -0.02   0.02
  11   1    -0.07   0.00  -0.09    -0.04   0.02  -0.00     0.02  -0.01   0.01
  12   1    -0.18   0.00  -0.10    -0.03   0.03  -0.03     0.01  -0.01   0.01
  13   6     0.04   0.13   0.33     0.01   0.06   0.03     0.00  -0.05   0.00
  14   1     0.04  -0.00   0.06    -0.00   0.02   0.01     0.00  -0.03  -0.01
  15   1     0.01   0.07   0.13     0.00   0.04   0.01     0.00  -0.02   0.00
  16   1     0.04   0.03   0.10     0.03   0.01  -0.02    -0.01  -0.01   0.02
  17   6     0.31  -0.18  -0.17     0.07  -0.01   0.01    -0.04  -0.01  -0.02
  18   1     0.23  -0.13   0.05     0.04  -0.01   0.01    -0.02  -0.01  -0.01
  19   1     0.12  -0.07  -0.11     0.04  -0.01   0.00    -0.02  -0.00  -0.01
  20   1     0.06  -0.03  -0.20     0.01   0.01  -0.03    -0.01  -0.01   0.01
  21   1     0.05  -0.03  -0.05     0.01  -0.01  -0.01    -0.01  -0.05   0.01
  22   6    -0.04   0.04   0.01    -0.01   0.01  -0.00    -0.07   0.09  -0.02
  23   8    -0.05   0.03  -0.01    -0.01   0.01  -0.00    -0.08   0.09  -0.05
  24   7     0.03  -0.06  -0.04     0.01  -0.01  -0.01     0.09  -0.01  -0.13
  25   1     0.05  -0.04   0.02     0.00  -0.02   0.01    -0.28  -0.45   0.19
  26   1     0.01  -0.03  -0.06     0.01   0.00  -0.02     0.32   0.22  -0.27
  27   7     0.02   0.01   0.06     0.01  -0.00   0.02    -0.01  -0.09   0.15
  28   1     0.02   0.02   0.04    -0.00  -0.00   0.02    -0.22  -0.24   0.25
  29   1     0.02  -0.03   0.01     0.01  -0.00  -0.00     0.37   0.19  -0.11
  30   6    -0.01   0.02  -0.01     0.02  -0.07   0.10     0.00  -0.01  -0.01
  31   8     0.00   0.01  -0.00    -0.02  -0.04   0.06    -0.00  -0.01  -0.01
  32   7     0.01  -0.02   0.02    -0.01   0.14  -0.12    -0.01   0.00   0.01
  33   1    -0.00   0.01  -0.01     0.03  -0.09   0.08     0.00   0.01   0.01
  34   1    -0.00   0.01  -0.02     0.04  -0.08   0.10    -0.01   0.00  -0.00
  35   7    -0.00  -0.02   0.04    -0.01   0.15  -0.23     0.01   0.01   0.01
  36   1    -0.02   0.09  -0.10     0.09  -0.56   0.62     0.01   0.01  -0.00
  37   1     0.01  -0.01  -0.00    -0.03   0.02   0.02     0.00   0.00   0.01
  38   6     0.00  -0.00  -0.00     0.01  -0.01  -0.02    -0.00   0.00  -0.00
  39   8     0.01  -0.00  -0.00    -0.00  -0.00  -0.02     0.00   0.00  -0.00
  40   7     0.00   0.00   0.00     0.00   0.04  -0.01     0.00  -0.00   0.00
  41   1    -0.00  -0.01   0.00    -0.01   0.03   0.01    -0.00  -0.00   0.00
  42   1     0.00   0.02   0.00     0.02  -0.20  -0.02     0.00   0.00   0.00
  43   7    -0.00  -0.00   0.00    -0.01   0.04   0.00    -0.00  -0.00  -0.00
  44   1    -0.00  -0.01  -0.00    -0.01  -0.01  -0.00    -0.00   0.00   0.00
  45   1    -0.00   0.01   0.00     0.00  -0.06   0.00     0.00  -0.00   0.00
  46   6     0.01  -0.02  -0.00     0.01  -0.01   0.01    -0.01   0.01  -0.00
  47   8     0.02   0.01  -0.02     0.01  -0.01   0.01    -0.01  -0.00   0.00
  48   7    -0.03   0.03   0.01    -0.01   0.00  -0.03     0.01  -0.01   0.00
  49   1    -0.04  -0.00  -0.01    -0.01   0.00   0.01     0.01  -0.00   0.00
  50   1     0.00   0.03  -0.00     0.01   0.02   0.02    -0.00  -0.01   0.00
  51   7    -0.01  -0.02   0.04    -0.03  -0.01  -0.02     0.01   0.01  -0.01
  52   1    -0.05  -0.04  -0.08     0.05   0.03   0.12     0.00   0.01  -0.00
  53   1    -0.01   0.01   0.01    -0.00  -0.01  -0.01     0.01  -0.00  -0.00
                     43                     44                     45
                        a                      a                      a 
 Frequencies --   459.6389               461.0097               463.6390
 Red. masses --     8.1977                 8.1243                 7.4202
 Frc consts  --     0.0000                 0.0000                 0.0000
 IR Inten    --     4.9117                18.4061                18.1620
 Raman Activ --     0.0000                 0.0000                 0.0000
 Depolar     --     0.0000                 0.0000                 0.0000
 Atom AN      X      Y      Z        X      Y      Z        X      Y      Z
   1   8    -0.01   0.01   0.01    -0.00   0.01  -0.00     0.00   0.00   0.02
   2   6    -0.03  -0.14  -0.08    -0.02  -0.11  -0.06     0.02   0.08   0.05
   3   1     0.00  -0.03  -0.03     0.00  -0.03  -0.02     0.01  -0.00   0.01
   4   1     0.01  -0.05  -0.04     0.00  -0.04  -0.03    -0.00   0.03   0.04
   5   6    -0.12  -0.18  -0.02    -0.10  -0.13  -0.03    -0.03   0.14  -0.05
   6   1    -0.12  -0.10   0.03    -0.10  -0.07   0.02    -0.08   0.03   0.02
   7   1    -0.05   0.00  -0.09    -0.04   0.01  -0.08    -0.02   0.06  -0.08
   8   7     0.13  -0.15   0.19     0.11  -0.10   0.16     0.12   0.08  -0.01
   9   6     0.06   0.14  -0.17     0.06   0.11  -0.14     0.15  -0.07  -0.03
  10   1     0.12   0.07  -0.10     0.10   0.05  -0.08     0.03  -0.03  -0.01
  11   1    -0.07   0.06  -0.06    -0.05   0.04  -0.05     0.07  -0.03  -0.02
  12   1    -0.03   0.07  -0.09    -0.02   0.06  -0.07     0.02  -0.05  -0.00
  13   6    -0.13   0.19  -0.13    -0.11   0.15  -0.09    -0.10  -0.08   0.01
  14   1    -0.10   0.16   0.04    -0.09   0.12   0.04    -0.06  -0.03   0.02
  15   1    -0.05   0.06  -0.11    -0.04   0.05  -0.09    -0.03  -0.08  -0.04
  16   1    -0.04   0.04  -0.14    -0.03   0.03  -0.10    -0.07  -0.01   0.05
  17   6     0.14   0.03   0.28     0.11   0.01   0.22    -0.07  -0.08   0.05
  18   1     0.03   0.06   0.05     0.01   0.03   0.04    -0.04  -0.04   0.02
  19   1     0.04   0.02   0.13     0.03   0.00   0.09    -0.07  -0.02  -0.02
  20   1     0.04   0.01   0.07     0.03   0.01   0.06    -0.01  -0.06   0.07
  21   1    -0.01   0.02   0.01    -0.01   0.02   0.00     0.01  -0.01  -0.00
  22   6     0.00   0.00   0.00     0.00   0.00   0.00    -0.17   0.15  -0.03
  23   8     0.00  -0.00  -0.00     0.00  -0.00  -0.00    -0.19   0.16  -0.08
  24   7     0.01   0.01   0.00     0.01   0.00   0.00     0.06  -0.21  -0.21
  25   1    -0.03  -0.04   0.02    -0.02  -0.02   0.01     0.28  -0.00  -0.00
  26   1     0.03   0.03  -0.02     0.02   0.02  -0.01    -0.11  -0.20  -0.17
  27   7    -0.01  -0.01   0.00    -0.00  -0.00   0.00     0.19  -0.01   0.25
  28   1    -0.03  -0.03   0.01    -0.02  -0.02   0.01     0.15   0.13   0.19
  29   1     0.03   0.03  -0.01     0.01   0.02  -0.01     0.03  -0.24   0.06
  30   6    -0.05   0.11   0.09     0.05  -0.11  -0.13     0.01  -0.02  -0.02
  31   8     0.07   0.13   0.11    -0.07  -0.15  -0.13    -0.01  -0.02  -0.02
  32   7     0.15  -0.07  -0.09    -0.17   0.05   0.12    -0.03   0.01   0.01
  33   1    -0.00  -0.17  -0.08    -0.00   0.20   0.09     0.00   0.03   0.02
  34   1     0.17   0.06  -0.08    -0.21  -0.04   0.06    -0.03  -0.00   0.01
  35   7    -0.17  -0.14  -0.04     0.19   0.12   0.09     0.03   0.03   0.01
  36   1    -0.14   0.02  -0.09     0.15   0.06   0.01     0.03  -0.01   0.02
  37   1     0.00  -0.05  -0.09    -0.00   0.06   0.10    -0.00   0.02   0.01
  38   6     0.03   0.02  -0.10    -0.05  -0.03   0.15    -0.00   0.01  -0.03
  39   8    -0.04   0.02  -0.12     0.07  -0.03   0.18    -0.00   0.00  -0.03
  40   7     0.12  -0.01   0.10    -0.19   0.00  -0.13     0.02  -0.00   0.04
  41   1    -0.00  -0.01   0.08     0.00  -0.00  -0.12    -0.01  -0.01   0.03
  42   1     0.10   0.02   0.04    -0.15   0.06  -0.04     0.03  -0.01   0.01
  43   7    -0.11  -0.02   0.08     0.17   0.01  -0.13    -0.03  -0.00   0.01
  44   1    -0.14   0.03   0.02     0.22  -0.07  -0.03    -0.03   0.01   0.00
  45   1     0.01  -0.06   0.12    -0.02   0.17  -0.18     0.00  -0.03   0.02
  46   6    -0.04   0.02  -0.00     0.00   0.01   0.00    -0.09   0.07  -0.01
  47   8    -0.05  -0.01   0.01    -0.00  -0.01   0.01    -0.13  -0.03   0.03
  48   7     0.02  -0.05   0.01     0.01   0.00  -0.02     0.05  -0.11  -0.00
  49   1     0.08   0.01   0.06     0.03   0.01   0.05     0.19   0.02   0.15
  50   1    -0.02  -0.08  -0.03    -0.00  -0.02  -0.02    -0.04  -0.19  -0.05
  51   7     0.05   0.04  -0.01    -0.01   0.01  -0.02     0.10   0.10  -0.04
  52   1     0.02   0.03  -0.03     0.04   0.02   0.07     0.07   0.09   0.00
  53   1     0.03  -0.01  -0.01     0.00  -0.01  -0.01     0.06  -0.02  -0.03
                     46                     47                     48
                        a                      a                      a 
 Frequencies --   467.5388               471.6012               476.5119
 Red. masses --     6.8143                 2.1922                 4.9800
 Frc consts  --     0.0000                 0.0000                 0.0000
 IR Inten    --     5.5641                 5.3141                 5.2465
 Raman Activ --     0.0000                 0.0000                 0.0000
 Depolar     --     0.0000                 0.0000                 0.0000
 Atom AN      X      Y      Z        X      Y      Z        X      Y      Z
   1   8     0.01  -0.05  -0.09     0.00   0.00   0.01     0.00   0.03   0.06
   2   6     0.03   0.06   0.03     0.00   0.01   0.01    -0.02  -0.07  -0.03
   3   1    -0.01  -0.03   0.00     0.00   0.01   0.00     0.01   0.05   0.00
   4   1     0.01   0.03   0.06    -0.00   0.00  -0.00    -0.01  -0.04  -0.08
   5   6    -0.02   0.15  -0.07     0.02  -0.00   0.02     0.07  -0.20   0.12
   6   1    -0.06   0.03   0.01     0.03   0.01  -0.00     0.14  -0.02  -0.02
   7   1    -0.02   0.05  -0.07     0.01  -0.01   0.03     0.04  -0.10   0.15
   8   7     0.04   0.13   0.03    -0.04  -0.00  -0.03    -0.18  -0.14  -0.06
   9   6     0.06  -0.08  -0.04    -0.03  -0.00   0.03    -0.21   0.10   0.09
  10   1     0.01  -0.03  -0.01    -0.02  -0.00   0.02    -0.06   0.04   0.03
  11   1     0.06  -0.04  -0.04    -0.01  -0.00   0.01    -0.11   0.04   0.07
  12   1    -0.03  -0.06  -0.00     0.00  -0.00   0.01     0.01   0.08   0.02
  13   6    -0.06  -0.03   0.12     0.04  -0.02   0.01     0.19   0.05  -0.07
  14   1    -0.02  -0.04   0.03     0.03  -0.02  -0.01     0.10   0.01  -0.05
  15   1    -0.02  -0.05   0.01     0.01   0.00   0.02     0.06   0.09   0.06
  16   1    -0.05   0.01   0.08     0.01  -0.01   0.01     0.11  -0.01  -0.07
  17   6    -0.01  -0.11  -0.03    -0.01   0.02  -0.05     0.08   0.15  -0.11
  18   1     0.01  -0.07   0.02     0.00   0.01  -0.01     0.03   0.07  -0.05
  19   1    -0.04  -0.03  -0.06     0.01   0.00  -0.01     0.10   0.04   0.04
  20   1    -0.00  -0.06  -0.00    -0.00   0.01  -0.02     0.01   0.10  -0.09
  21   1     0.01  -0.01  -0.03     0.00  -0.00   0.00    -0.01   0.00   0.02
  22   6     0.13  -0.11   0.04    -0.00   0.00  -0.00    -0.03   0.02  -0.02
  23   8     0.15  -0.12   0.06    -0.00   0.01  -0.00    -0.04   0.03  -0.01
  24   7    -0.04   0.15   0.17     0.00  -0.00  -0.01     0.00  -0.03  -0.05
  25   1    -0.18   0.03  -0.01     0.00  -0.00   0.00     0.04  -0.00  -0.00
  26   1     0.07   0.13   0.14    -0.00  -0.00  -0.00    -0.02  -0.03  -0.03
  27   7    -0.15   0.02  -0.19     0.01  -0.00   0.01     0.04  -0.01   0.04
  28   1    -0.09  -0.07  -0.16     0.00   0.00   0.01     0.01   0.01   0.05
  29   1    -0.06   0.17  -0.03     0.00  -0.01  -0.00     0.03  -0.04   0.00
  30   6     0.02  -0.03  -0.03    -0.02   0.05   0.05    -0.00   0.00  -0.00
  31   8    -0.02  -0.04  -0.04     0.03   0.07   0.06    -0.00  -0.01   0.00
  32   7    -0.04   0.02   0.02     0.07  -0.02  -0.05     0.00  -0.01   0.01
  33   1     0.00   0.05   0.02     0.00  -0.10  -0.02    -0.01   0.05  -0.04
  34   1    -0.05  -0.01   0.02     0.09   0.02  -0.02    -0.00  -0.03   0.03
  35   7     0.05   0.04   0.01    -0.09  -0.05  -0.04     0.00  -0.00  -0.00
  36   1     0.05  -0.01   0.04    -0.07  -0.04   0.01    -0.01   0.03  -0.04
[...]
  44   1     0.00   0.00  -0.01    -0.00  -0.00   0.01    -0.00  -0.00   0.00
  45   1    -0.01  -0.00   0.00     0.02  -0.00  -0.01     0.00   0.00  -0.00
  46   6    -0.00   0.01  -0.00    -0.00   0.01  -0.00    -0.00   0.00   0.00
  47   8     0.00  -0.00  -0.00     0.01  -0.00  -0.00     0.00  -0.00  -0.00
  48   7    -0.00  -0.00   0.00    -0.00  -0.00   0.00    -0.00  -0.00   0.00
  49   1    -0.00  -0.00   0.00    -0.00  -0.01   0.00    -0.00   0.00  -0.00
  50   1    -0.00   0.00  -0.00    -0.01   0.00  -0.00     0.00  -0.00   0.00
  51   7     0.05   0.04  -0.02     0.15   0.16  -0.07     0.00  -0.00  -0.00
  52   1     0.03  -0.01  -0.01     0.13  -0.05  -0.04     0.00   0.00   0.00
  53   1    -0.20  -0.16   0.08    -0.68  -0.55   0.29    -0.00  -0.00   0.00
                    142                    143                    144
                        a                      a                      a 
 Frequencies --  3495.6676              3498.3182              3501.8467
 Red. masses --     1.4528                 1.4481                 1.4499
 Frc consts  --     0.0000                 0.0000                 0.0000
 IR Inten    --    16.2584                21.6102                19.8658
 Raman Activ --     0.0000                 0.0000                 0.0000
 Depolar     --     0.0000                 0.0000                 0.0000
 Atom AN      X      Y      Z        X      Y      Z        X      Y      Z
   1   8    -0.00   0.00  -0.00     0.00  -0.00   0.00    -0.00   0.00  -0.00
   2   6    -0.00  -0.00   0.00    -0.00   0.00   0.00     0.00  -0.00   0.00
   3   1     0.00  -0.00   0.00     0.00   0.00   0.00     0.00  -0.00  -0.00
   4   1     0.00   0.00  -0.00     0.00  -0.00  -0.00     0.00   0.00  -0.00
   5   6    -0.00  -0.00   0.00     0.00   0.00  -0.00     0.00  -0.00   0.00
   6   1    -0.00   0.00  -0.00    -0.00   0.00  -0.00    -0.00   0.00  -0.00
   7   1     0.00  -0.00  -0.00     0.00  -0.00  -0.00    -0.00   0.00   0.00
   8   7     0.00   0.00  -0.00     0.00  -0.00   0.00     0.00  -0.00   0.00
   9   6    -0.00   0.00   0.00    -0.00  -0.00   0.00     0.00   0.00   0.00
  10   1     0.00  -0.00   0.00    -0.00   0.00   0.00    -0.00   0.00  -0.00
  11   1     0.00   0.00  -0.00    -0.00   0.00   0.00     0.00   0.00   0.00
  12   1    -0.00  -0.00  -0.00    -0.00  -0.00  -0.00     0.00  -0.00  -0.00
  13   6    -0.00  -0.00   0.00    -0.00  -0.00   0.00     0.00   0.00   0.00
  14   1    -0.00  -0.00  -0.00    -0.00   0.00  -0.00    -0.00   0.00  -0.00
  15   1     0.00   0.00  -0.00     0.00  -0.00  -0.00    -0.00  -0.00   0.00
  16   1    -0.00   0.00  -0.00     0.00   0.00  -0.00     0.00   0.00   0.00
  17   6    -0.00  -0.00   0.00    -0.00  -0.00   0.00     0.00   0.00  -0.00
  18   1    -0.00   0.00   0.00     0.00  -0.00  -0.00     0.00  -0.00  -0.00
  19   1    -0.00   0.00  -0.00     0.00   0.00   0.00     0.00  -0.00   0.00
  20   1     0.00   0.00  -0.00     0.00  -0.00  -0.00    -0.00  -0.00   0.00
  21   1     0.00  -0.00   0.00    -0.00   0.00  -0.00     0.00  -0.00   0.00
  22   6     0.00  -0.00  -0.00    -0.00   0.00  -0.00     0.00  -0.00  -0.00
  23   8    -0.00   0.00  -0.00     0.00  -0.00   0.00     0.00  -0.00  -0.00
  24   7    -0.00   0.00  -0.00     0.00  -0.00   0.00    -0.00   0.00  -0.00
  25   1    -0.00   0.00   0.00     0.00  -0.00  -0.00    -0.00   0.01   0.01
  26   1     0.00  -0.00   0.00    -0.00   0.00  -0.00     0.01  -0.01   0.00
  27   7     0.00  -0.00  -0.00    -0.00   0.00   0.00     0.00   0.00   0.00
  28   1    -0.00   0.00  -0.00     0.00  -0.00   0.00     0.00  -0.00   0.00
  29   1     0.00  -0.00   0.00    -0.00   0.00  -0.00    -0.00   0.00  -0.00
  30   6     0.00   0.00   0.00     0.00   0.00   0.00     0.00   0.00   0.00
  31   8    -0.00  -0.00  -0.00     0.00  -0.00  -0.00    -0.00  -0.00  -0.00
  32   7     0.00   0.00   0.00     0.14   0.11   0.05     0.00   0.00   0.00
  33   1    -0.00   0.00   0.00    -0.61   0.08   0.29    -0.00   0.00   0.00
  34   1     0.00  -0.00  -0.00     0.11  -0.51  -0.48     0.00  -0.00  -0.00
  35   7    -0.00  -0.00   0.00    -0.00  -0.01  -0.01    -0.00   0.00   0.00
  36   1     0.00  -0.00  -0.00    -0.01   0.03   0.03     0.00  -0.01  -0.01
  37   1     0.00   0.00   0.00     0.01   0.00   0.01     0.01   0.00   0.00
  38   6     0.00   0.00  -0.00     0.00   0.00   0.00     0.00  -0.00   0.00
  39   8    -0.00  -0.00   0.00    -0.00  -0.00  -0.00     0.00   0.00  -0.00
  40   7    -0.00  -0.00  -0.00    -0.00  -0.00   0.00    -0.00   0.00  -0.01
  41   1     0.00   0.00   0.00     0.01  -0.00   0.01     0.01   0.00   0.01
  42   1     0.00   0.00  -0.00     0.00   0.00  -0.01    -0.00  -0.00   0.04
  43   7     0.00  -0.00   0.00    -0.00   0.00  -0.00     0.14  -0.02   0.12
  44   1     0.00   0.00  -0.00    -0.00  -0.00   0.00     0.08   0.14  -0.70
  45   1    -0.00  -0.00   0.00     0.00   0.00  -0.00    -0.61  -0.05   0.27
  46   6     0.00   0.00   0.00     0.00   0.00  -0.00    -0.00   0.00   0.00
  47   8    -0.00   0.00  -0.00    -0.00  -0.00   0.00     0.00  -0.00  -0.00
  48   7     0.15   0.10  -0.04    -0.00  -0.00   0.00    -0.00  -0.00   0.00
  49   1     0.11  -0.64   0.12    -0.00   0.00  -0.00    -0.00   0.00  -0.00
  50   1    -0.68   0.27   0.01     0.00  -0.00  -0.00     0.00  -0.00  -0.00
  51   7    -0.01   0.00   0.01     0.00  -0.00  -0.00     0.00   0.00  -0.00
  52   1     0.03  -0.02  -0.01    -0.00   0.00   0.00     0.00  -0.00  -0.00
  53   1     0.01   0.01  -0.01     0.00   0.00  -0.00    -0.01  -0.01   0.01
                    145                    146                    147
                        a                      a                      a 
 Frequencies --  3502.4101              3524.5589              3531.2181
 Red. masses --     1.4536                 1.9183                 1.8981
 Frc consts  --     0.0000                 0.0000                 0.0000
 IR Inten    --    18.3871                12.5873                13.8929
 Raman Activ --     0.0000                 0.0000                 0.0000
 Depolar     --     0.0000                 0.0000                 0.0000
 Atom AN      X      Y      Z        X      Y      Z        X      Y      Z
   1   8    -0.00  -0.00  -0.00     0.00  -0.00  -0.00    -0.00  -0.00  -0.00
   2   6     0.00  -0.00   0.00    -0.00   0.00  -0.00     0.00   0.00  -0.00
   3   1    -0.00   0.00  -0.00     0.00  -0.00   0.00     0.00   0.00   0.00
   4   1     0.00   0.00  -0.00     0.00   0.00  -0.00    -0.00  -0.00   0.00
   5   6    -0.00   0.00  -0.00    -0.00  -0.00   0.00    -0.00   0.00   0.00
   6   1     0.00  -0.00   0.00     0.00   0.00  -0.00     0.00  -0.00  -0.00
   7   1    -0.00  -0.00  -0.00     0.00   0.00  -0.00     0.00  -0.00  -0.00
   8   7     0.00  -0.00  -0.00     0.00   0.00  -0.00    -0.00   0.00  -0.00
   9   6    -0.00   0.00  -0.00    -0.00   0.00   0.00     0.00   0.00  -0.00
  10   1     0.00  -0.00   0.00     0.00  -0.00   0.00    -0.00  -0.00   0.00
  11   1    -0.00   0.00  -0.00     0.00  -0.00   0.00    -0.00  -0.00  -0.00
  12   1     0.00   0.00   0.00     0.00  -0.00  -0.00    -0.00   0.00   0.00
  13   6    -0.00  -0.00  -0.00     0.00   0.00  -0.00    -0.00   0.00   0.00
  14   1     0.00  -0.00  -0.00     0.00  -0.00  -0.00     0.00  -0.00   0.00
  15   1     0.00   0.00  -0.00    -0.00   0.00  -0.00     0.00  -0.00  -0.00
  16   1     0.00   0.00  -0.00    -0.00  -0.00   0.00    -0.00   0.00  -0.00
  17   6    -0.00   0.00   0.00     0.00   0.00  -0.00    -0.00  -0.00  -0.00
  18   1    -0.00   0.00   0.00     0.00   0.00   0.00     0.00  -0.00   0.00
  19   1    -0.00  -0.00  -0.00    -0.00  -0.00   0.00     0.00   0.00   0.00
  20   1     0.00   0.00  -0.00    -0.00   0.00   0.00     0.00  -0.00   0.00
  21   1     0.01  -0.00   0.01    -0.00   0.00   0.00     0.00   0.00   0.00
  22   6     0.00  -0.00   0.00    -0.00   0.00  -0.00     0.00  -0.00   0.00
  23   8    -0.00   0.00  -0.00     0.00   0.00   0.00    -0.00   0.00  -0.00
  24   7     0.08  -0.03   0.16     0.00  -0.00   0.00     0.00  -0.00   0.00
  25   1     0.19  -0.39  -0.50     0.00  -0.00  -0.00     0.00  -0.00  -0.00
  26   1    -0.48   0.52  -0.10    -0.00   0.00  -0.00    -0.00   0.00  -0.00
  27   7    -0.00  -0.01  -0.03     0.00  -0.00  -0.00     0.00  -0.00  -0.00
  28   1    -0.04   0.03  -0.01    -0.00   0.00  -0.00    -0.00   0.00  -0.00
  29   1     0.05  -0.01   0.10     0.00  -0.00   0.00     0.00  -0.00   0.00
  30   6     0.00  -0.00  -0.00     0.00   0.00   0.00    -0.00  -0.01  -0.00
  31   8    -0.00   0.00   0.00    -0.00  -0.00  -0.00     0.00   0.00   0.00
  32   7    -0.00  -0.00  -0.00     0.00  -0.00  -0.00    -0.02   0.01   0.01
  33   1     0.00  -0.00  -0.00    -0.00   0.00   0.00     0.08  -0.01  -0.04
  34   1    -0.00   0.00   0.00    -0.00   0.00   0.00     0.00  -0.01  -0.01
  35   7    -0.00   0.00   0.00    -0.00   0.01   0.01     0.02  -0.19  -0.18
  36   1     0.00  -0.00  -0.00     0.00  -0.02  -0.02    -0.14   0.70   0.64
  37   1     0.00  -0.00  -0.00     0.00   0.00   0.00     0.07   0.02   0.03
  38   6     0.00  -0.00   0.00     0.00  -0.00  -0.00     0.00   0.00  -0.00
  39   8     0.00   0.00  -0.00    -0.00  -0.00   0.00    -0.00   0.00   0.00
  40   7    -0.00   0.00  -0.00    -0.00  -0.00   0.00    -0.00   0.00  -0.01
  41   1     0.00  -0.00   0.00     0.00  -0.00   0.00     0.00  -0.00   0.00
  42   1    -0.00  -0.00   0.00     0.00   0.00  -0.01    -0.00  -0.00   0.02
  43   7     0.00  -0.00   0.00     0.00  -0.00   0.00    -0.00  -0.00   0.00
  44   1     0.00   0.00  -0.01     0.00   0.00  -0.00     0.00   0.00  -0.01
  45   1    -0.01  -0.00   0.00    -0.00  -0.00  -0.00     0.00  -0.00  -0.00
  46   6     0.00  -0.00  -0.00     0.01   0.00  -0.01     0.00  -0.00  -0.00
  47   8    -0.00   0.00   0.00    -0.00   0.00   0.00    -0.00   0.00   0.00
  48   7     0.00   0.00  -0.00    -0.01   0.02  -0.00    -0.00   0.00  -0.00
  49   1     0.00  -0.00   0.00     0.01  -0.08   0.02     0.00  -0.00   0.00
  50   1    -0.00   0.00   0.00     0.01  -0.00   0.00     0.00  -0.00   0.00
  51   7    -0.00   0.00   0.00     0.23  -0.09  -0.08     0.01  -0.00  -0.00
  52   1     0.00  -0.00  -0.00    -0.81   0.41   0.28    -0.03   0.01   0.01
  53   1    -0.00  -0.00   0.00    -0.07  -0.08   0.03    -0.01  -0.01   0.00
                    148                    149                    150
                        a                      a                      a 
 Frequencies --  3539.5145              3554.0983              3560.6736
 Red. masses --     1.9103                 2.1615                 2.1756
 Frc consts  --     0.0000                 0.0000                 0.0000
 IR Inten    --    17.3384                22.7913                 8.8963
 Raman Activ --     0.0000                 0.0000                 0.0000
 Depolar     --     0.0000                 0.0000                 0.0000
 Atom AN      X      Y      Z        X      Y      Z        X      Y      Z
   1   8    -0.00   0.00  -0.00    -0.00  -0.00  -0.00     0.00  -0.00   0.00
   2   6    -0.00  -0.00  -0.00    -0.00  -0.00   0.00     0.00   0.00  -0.00
   3   1     0.00  -0.00   0.00    -0.00   0.00  -0.00     0.00  -0.00   0.00
   4   1     0.00   0.00  -0.00     0.00   0.00  -0.00     0.00  -0.00  -0.00
   5   6     0.00  -0.00   0.00     0.00  -0.00   0.00     0.00  -0.00  -0.00
   6   1     0.00  -0.00   0.00     0.00  -0.00  -0.00     0.00   0.00  -0.00
   7   1     0.00   0.00  -0.00    -0.00  -0.00  -0.00    -0.00   0.00   0.00
   8   7    -0.00   0.00   0.00    -0.00  -0.00  -0.00    -0.00  -0.00   0.00
   9   6    -0.00   0.00   0.00     0.00  -0.00  -0.00    -0.00   0.00  -0.00
  10   1     0.00  -0.00  -0.00    -0.00  -0.00  -0.00    -0.00   0.00  -0.00
  11   1    -0.00  -0.00   0.00    -0.00   0.00  -0.00     0.00  -0.00   0.00
  12   1     0.00  -0.00  -0.00    -0.00   0.00   0.00     0.00   0.00   0.00
  13   6     0.00   0.00  -0.00     0.00  -0.00   0.00     0.00   0.00   0.00
  14   1     0.00  -0.00   0.00    -0.00   0.00  -0.00     0.00   0.00  -0.00
  15   1     0.00   0.00  -0.00    -0.00   0.00   0.00    -0.00  -0.00  -0.00
  16   1    -0.00  -0.00   0.00     0.00  -0.00  -0.00     0.00  -0.00  -0.00
  17   6    -0.00   0.00  -0.00     0.00  -0.00   0.00     0.00   0.00  -0.00
  18   1     0.00  -0.00  -0.00    -0.00   0.00  -0.00     0.00   0.00   0.00
  19   1    -0.00  -0.00   0.00    -0.00   0.00  -0.00     0.00  -0.00   0.00
  20   1     0.00   0.00   0.00    -0.00   0.00   0.00    -0.00  -0.00   0.00
  21   1     0.00  -0.00   0.00     0.00   0.00   0.01    -0.00   0.00  -0.00
  22   6     0.00  -0.00  -0.00    -0.01   0.00  -0.01    -0.00   0.00  -0.00
  23   8    -0.00   0.00  -0.00     0.00  -0.00   0.00     0.00  -0.00   0.00
  24   7     0.00  -0.00  -0.00     0.03  -0.05  -0.03     0.00  -0.00  -0.00
  25   1    -0.00   0.00   0.00    -0.04   0.09   0.12    -0.00   0.00   0.00
  26   1    -0.00   0.00  -0.00    -0.08   0.08  -0.02    -0.00   0.00  -0.00
  27   7    -0.00   0.00  -0.00    -0.21   0.15  -0.14    -0.00   0.00  -0.00
  28   1     0.00  -0.00   0.00     0.59  -0.52   0.09     0.00  -0.00   0.00
  29   1     0.00  -0.00   0.00     0.20  -0.03   0.46     0.00   0.00   0.00
  30   6    -0.00   0.00   0.00     0.00   0.00   0.00    -0.00  -0.00   0.00
  31   8     0.00  -0.00  -0.00    -0.00  -0.00  -0.00    -0.00   0.00   0.00
  32   7     0.00  -0.00  -0.00     0.00  -0.00  -0.00    -0.00   0.00   0.00
  33   1    -0.00  -0.00   0.00    -0.00   0.00   0.00     0.00  -0.00  -0.00
  34   1    -0.00   0.01   0.01    -0.00   0.00   0.00     0.00  -0.00  -0.00
  35   7     0.00  -0.00  -0.00    -0.00  -0.00  -0.00    -0.00  -0.00  -0.00
  36   1    -0.00   0.02   0.02     0.00  -0.00   0.00    -0.00   0.00   0.00
  37   1     0.00  -0.00  -0.00     0.00   0.00   0.00     0.00   0.00   0.00
  38   6     0.00  -0.00   0.01    -0.00   0.00   0.00     0.00  -0.00  -0.00
  39   8    -0.00   0.00  -0.00     0.00  -0.00  -0.00    -0.00  -0.00   0.00
  40   7    -0.01  -0.03   0.26    -0.00  -0.00  -0.00    -0.00   0.00  -0.00
  41   1    -0.08   0.00  -0.04     0.00   0.00   0.00     0.00  -0.00   0.00
  42   1     0.11   0.10  -0.94    -0.00  -0.00   0.00    -0.00  -0.00   0.00
  43   7     0.02   0.00  -0.02    -0.00  -0.00   0.00    -0.00  -0.00   0.00
  44   1    -0.00  -0.01   0.02     0.00   0.00  -0.00     0.00   0.00  -0.00
  45   1    -0.09  -0.01   0.04     0.00   0.00  -0.00     0.00   0.00  -0.00
  46   6    -0.00   0.00   0.00    -0.00   0.00   0.00     0.01  -0.01   0.00
  47   8     0.00  -0.00  -0.00     0.00  -0.00  -0.00    -0.00   0.00  -0.00
  48   7     0.00  -0.00   0.00    -0.00   0.00  -0.00     0.18  -0.23   0.03
  49   1    -0.00   0.00  -0.00     0.00  -0.00   0.00    -0.09   0.69  -0.13
  50   1    -0.00   0.00  -0.00     0.00  -0.00   0.00    -0.60   0.21   0.01
  51   7    -0.00   0.00   0.00    -0.00   0.00   0.00     0.02  -0.00  -0.01
  52   1     0.00  -0.00  -0.00     0.00  -0.00  -0.00    -0.06   0.03   0.02
  53   1     0.00   0.00  -0.00     0.00   0.00   0.00    -0.01  -0.01   0.00
                    151                    152                    153
                        a                      a                      a 
 Frequencies --  3564.4951              3567.8027              3568.3842
 Red. masses --     2.1836                 2.1821                 2.1841
 Frc consts  --     0.0000                 0.0000                 0.0000
 IR Inten    --    14.1567                16.9993                18.3604
 Raman Activ --     0.0000                 0.0000                 0.0000
 Depolar     --     0.0000                 0.0000                 0.0000
 Atom AN      X      Y      Z        X      Y      Z        X      Y      Z
   1   8     0.00  -0.00   0.00     0.00  -0.00   0.00     0.00   0.00   0.00
   2   6    -0.00   0.00  -0.00     0.00  -0.00  -0.00     0.00   0.00  -0.00
   3   1     0.00   0.00   0.00     0.00  -0.00   0.00     0.00  -0.00   0.00
   4   1    -0.00  -0.00   0.00    -0.00  -0.00  -0.00    -0.00  -0.00  -0.00
   5   6    -0.00   0.00   0.00    -0.00   0.00  -0.00     0.00  -0.00  -0.00
   6   1    -0.00  -0.00  -0.00     0.00   0.00   0.00    -0.00   0.00   0.00
   7   1     0.00  -0.00  -0.00     0.00   0.00  -0.00     0.00  -0.00   0.00
   8   7     0.00   0.00   0.00     0.00   0.00  -0.00    -0.00   0.00   0.00
   9   6     0.00  -0.00   0.00    -0.00   0.00   0.00     0.00  -0.00   0.00
  10   1    -0.00  -0.00  -0.00     0.00   0.00  -0.00    -0.00   0.00  -0.00
  11   1    -0.00   0.00  -0.00    -0.00  -0.00   0.00     0.00  -0.00   0.00
  12   1    -0.00  -0.00   0.00     0.00  -0.00  -0.00     0.00  -0.00  -0.00
  13   6    -0.00   0.00   0.00    -0.00   0.00  -0.00    -0.00   0.00  -0.00
  14   1     0.00  -0.00  -0.00     0.00  -0.00   0.00     0.00   0.00   0.00
  15   1    -0.00  -0.00   0.00     0.00   0.00  -0.00     0.00   0.00   0.00
  16   1     0.00   0.00  -0.00    -0.00  -0.00   0.00     0.00  -0.00   0.00
  17   6    -0.00  -0.00  -0.00    -0.00   0.00   0.00     0.00  -0.00  -0.00
  18   1    -0.00   0.00   0.00     0.00  -0.00  -0.00     0.00  -0.00  -0.00
  19   1     0.00   0.00   0.00    -0.00  -0.00   0.00     0.00   0.00   0.00
  20   1     0.00  -0.00  -0.00    -0.00   0.00  -0.00    -0.00  -0.00   0.00
  21   1    -0.00   0.00  -0.00    -0.00   0.00  -0.00    -0.00  -0.00  -0.01
  22   6    -0.00  -0.00  -0.00     0.00  -0.00  -0.00     0.01  -0.01  -0.00
  23   8     0.00  -0.00   0.00    -0.00   0.00   0.00    -0.00   0.00   0.00
  24   7     0.00  -0.00  -0.00     0.00  -0.00  -0.00     0.16  -0.22  -0.11
  25   1    -0.00   0.00   0.00    -0.00   0.00   0.00    -0.18   0.39   0.53
  26   1    -0.00   0.00  -0.00    -0.00   0.00  -0.00    -0.43   0.46  -0.12
  27   7     0.00  -0.00   0.00     0.00  -0.00   0.00     0.04  -0.03   0.03
  28   1    -0.00   0.00  -0.00    -0.00   0.00  -0.00    -0.12   0.11  -0.02
  29   1    -0.00   0.00  -0.00    -0.00   0.00  -0.00    -0.04   0.01  -0.09
  30   6     0.01  -0.01  -0.01    -0.00   0.00   0.00    -0.00   0.00   0.00
  31   8    -0.00   0.00   0.00     0.00  -0.00  -0.00     0.00  -0.00  -0.00
  32   7     0.18  -0.14  -0.19    -0.00   0.00   0.00    -0.00   0.00   0.00
  33   1    -0.62   0.06   0.28     0.01  -0.00  -0.01     0.00  -0.00  -0.00
  34   1    -0.07   0.48   0.45     0.00  -0.01  -0.01     0.00  -0.00  -0.00
  35   7     0.00  -0.01  -0.01     0.00   0.00   0.00    -0.00   0.00  -0.00
  36   1    -0.01   0.05   0.05     0.00  -0.00  -0.00     0.00  -0.00  -0.00
  37   1     0.01   0.00   0.00    -0.01  -0.00  -0.00     0.00   0.00   0.00
  38   6    -0.00  -0.00  -0.00    -0.01  -0.00   0.01     0.00   0.00  -0.00
  39   8     0.00   0.00   0.00     0.00   0.00  -0.00    -0.00  -0.00  -0.00
  40   7    -0.00   0.00  -0.00     0.00  -0.00   0.02    -0.00   0.00  -0.00
  41   1     0.01  -0.00   0.00    -0.01  -0.00  -0.00     0.00   0.00   0.00
  42   1    -0.00  -0.00   0.01     0.01   0.01  -0.08    -0.00  -0.00   0.00
  43   7    -0.00  -0.00   0.01    -0.18  -0.04   0.23     0.00   0.00  -0.00
  44   1     0.00   0.00  -0.02     0.05   0.13  -0.63    -0.00  -0.00   0.00
  45   1     0.02   0.00  -0.01     0.64   0.04  -0.26    -0.00  -0.00   0.00
  46   6     0.00  -0.00   0.00     0.00  -0.00   0.00    -0.00   0.00   0.00
  47   8    -0.00   0.00   0.00    -0.00   0.00   0.00     0.00  -0.00  -0.00
  48   7     0.00  -0.00   0.00    -0.00   0.00  -0.00    -0.00   0.00  -0.00
  49   1    -0.00   0.00  -0.00     0.00  -0.00   0.00     0.00  -0.00   0.00
  50   1    -0.00   0.00   0.00     0.00  -0.00   0.00     0.00  -0.00  -0.00
  51   7     0.00   0.00  -0.00    -0.00  -0.00   0.00    -0.00   0.00   0.00
  52   1    -0.00   0.00   0.00     0.00  -0.00   0.00     0.00  -0.00  -0.00
  53   1    -0.00  -0.00   0.00     0.01   0.01  -0.00    -0.00   0.00   0.00
