      -----------------------------------------------------------      
     |                   =====================                   |     
     |                           x T B                           |     
     |                   =====================                   |     
     |                         S. Grimme                         |     
     |          Mulliken Center for Theoretical Chemistry        |     
     |                    University of Bonn                     |     
      -----------------------------------------------------------      

   * xtb version 6.6.1 (unknown-commit) compiled by '@Linux' on 12/27/2023

   xtb is free software: you can redistribute it and/or modify it under
   the terms of the GNU Lesser General Public License as published by
   the Free Software Foundation, either version 3 of the License, or
   (at your option) any later version.
   
   xtb is distributed in the hope that it will be useful,
   but WITHOUT ANY WARRANTY; without even the implied warranty of
   MERCHANTABILITY or FITNESS FOR A PARTICULAR PURPOSE.  See the
   GNU Lesser General Public License for more details.
   
   Cite this work as:
   * C. Bannwarth, E. Caldeweyher, S. Ehlert, A. Hansen, P. Pracht,
     J. Seibert, S. Spicher, S. Grimme, WIREs Comput. Mol. Sci., 2020, 11,
     e01493. DOI: 10.1002/wcms.1493
   
   for GFN2-xTB:
   * C. Bannwarth, S. Ehlert and S. Grimme., J. Chem. Theory Comput., 2019,
     15, 1652-1671. DOI: 10.1021/acs.jctc.8b01176
   for GFN1-xTB:
   * S. Grimme, C. Bannwarth, P. Shushkov, J. Chem. Theory Comput., 2017,
     13, 1989-2009. DOI: 10.1021/acs.jctc.7b00118
   for GFN0-xTB:
   * P. Pracht, E. Caldeweyher, S. Ehlert, S. Grimme, ChemRxiv, 2019, preprint.
     DOI: 10.26434/chemrxiv.8326202.v1
   for GFN-FF:
   * S. Spicher and S. Grimme, Angew. Chem. Int. Ed., 2020, 59, 15665-15673.
     DOI: 10.1002/anie.202004239
   
   for ALPB and GBSA implicit solvation:
   * S. Ehlert, M. Stahn, S. Spicher, S. Grimme, J. Chem. Theory Comput.,
     2021, 17, 4250-4261. DOI: 10.1021/acs.jctc.1c00471
   
   for DFT-D4:
   * E. Caldeweyher, C. Bannwarth and S. Grimme, J. Chem. Phys., 2017,
     147, 034112. DOI: 10.1063/1.4993215
   * E. Caldeweyher, S. Ehlert, A. Hansen, H. Neugebauer, S. Spicher,
     C. Bannwarth and S. Grimme, J. Chem. Phys., 2019, 150, 154122.
     DOI: 10.1063/1.5090222
   * E. Caldeweyher, J.-M. Mewes, S. Ehlert and S. Grimme, Phys. Chem. Chem. Phys.
     2020, 22, 8499-8512. DOI: 10.1039/D0CP00502A
   
   for sTDA-xTB:
   * S. Grimme and C. Bannwarth, J. Chem. Phys., 2016, 145, 054103.
     DOI: 10.1063/1.4959605
   
   in the mass-spec context:
   * V. Asgeirsson, C. Bauer and S. Grimme, Chem. Sci., 2017, 8, 4879.
     DOI: 10.1039/c7sc00601b
   * J. Koopman and S. Grimme, ACS Omega 2019, 4, 12, 15120-15133.
     DOI: 10.1021/acsomega.9b02011
   
   for metadynamics refer to:
   * S. Grimme, J. Chem. Theory Comput., 2019, 155, 2847-2862
     DOI: 10.1021/acs.jctc.9b00143
   
   for SPH calculations refer to:
   * S. Spicher and S. Grimme, J. Chem. Theory Comput., 2021, 17, 1701-1714
     DOI: 10.1021/acs.jctc.0c01306
   
   with help from (in alphabetical order)
   P. Atkinson, C. Bannwarth, F. Bohle, G. Brandenburg, E. Caldeweyher
   M. Checinski, S. Dohm, S. Ehlert, S. Ehrlich, I. Gerasimov, C. Hölzer
   A. Katbashev, J. Koopman, C. Lavigne, S. Lehtola, F. März, M. Müller,
   F. Musil, H. Neugebauer, J. Pisarek, C. Plett, P. Pracht, F. Pultar,
   J. Seibert, P. Shushkov, S. Spicher, M. Stahn, M. Steiner, T. Strunk,
   J. Stückrath, T. Rose, and J. Unsleber
   
 * started run on 2024/01/10 at 18:28:21.310     

           -------------------------------------------------
          |                Calculation Setup                |
           -------------------------------------------------

          program call               : xtb struc.xyz --gfn2 --hess
          hostname                   : swaroop
          coordinate file            : struc.xyz
          omp threads                :                     1

   ID    Z sym.   atoms
    1    8 O      1, 23, 31, 39, 47
    2    6 C      2, 5, 9, 13, 17, 22, 30, 38, 46
    3    1 H      3, 4, 6, 7, 10-12, 14-16, 18-21, 25, 26, 28, 29, 33, 34,
                  36, 37, 41, 42, 44, 45, 49, 50, 52, 53
    4    7 N      8, 24, 27, 32, 35, 40, 43, 48, 51

molecular fragmentation (1/2 indicates fragments):
11111111111111111111122222222222222222222222222222222
# atoms in fragment 1/2:    21    32
 fragment masses (1/2) :      104.17      240.22
CMA distance (Bohr)    :   4.142
constraining FC (au)   :  0.0500

           -------------------------------------------------
          |                 G F N 2 - x T B                 |
           -------------------------------------------------

        Reference                      10.1021/acs.jctc.8b01176
      * Hamiltonian:
        H0-scaling (s, p, d)           1.850000    2.230000    2.230000
        zeta-weighting                 0.500000
      * Dispersion:
        s8                             2.700000
        a1                             0.520000
        a2                             5.000000
        s9                             5.000000
      * Repulsion:
        kExp                           1.500000    1.000000
        rExp                           1.000000
      * Coulomb:
        alpha                          2.000000
        third order                    shell-resolved
        anisotropic                    true
        a3                             3.000000
        a5                             4.000000
        cn-shift                       1.200000
        cn-exp                         4.000000
        max-rad                        5.000000


          ...................................................
          :                      SETUP                      :
          :.................................................:
          :  # basis functions                 122          :
          :  # atomic orbitals                 122          :
          :  # shells                           76          :
          :  # electrons                       140          :
          :  max. iterations                   250          :
          :  Hamiltonian                  GFN2-xTB          :
          :  restarted?                      false          :
          :  GBSA solvation                  false          :
          :  PC potential                    false          :
          :  electronic temp.          300.0000000     K    :
          :  accuracy                    1.0000000          :
          :  -> integral cutoff          0.2500000E+02      :
          :  -> integral neglect         0.1000000E-07      :
          :  -> SCF convergence          0.1000000E-05 Eh   :
          :  -> wf. convergence          0.1000000E-03 e    :
          :  Broyden damping             0.4000000          :
          ...................................................

 iter      E             dE          RMSdq      gap      omega  full diag
   1    -81.5512857 -0.815513E+02  0.439E+00    5.15       0.0  T
   2    -81.8405043 -0.289219E+00  0.238E+00    6.05       1.0  T
   3    -81.8461037 -0.559944E-02  0.116E+00    5.77       1.0  T
   4    -81.8474424 -0.133870E-02  0.239E-01    5.84       1.0  T
   5    -81.8483367 -0.894347E-03  0.926E-02    5.75       1.0  T
   6    -81.8483614 -0.246622E-04  0.264E-02    5.77       1.0  T
   7    -81.8483658 -0.440744E-05  0.751E-03    5.77       1.8  T
   8    -81.8483661 -0.264053E-06  0.265E-03    5.77       5.2  T
   9    -81.8483661 -0.130743E-07  0.872E-04    5.77      15.8  T
  10    -81.8483661 -0.609559E-08  0.173E-04    5.77      79.3  T

   *** convergence criteria satisfied after 10 iterations ***

         #    Occupation            Energy/Eh            Energy/eV
      -------------------------------------------------------------
         1        2.0000           -0.7909826             -21.5237
       ...           ...                  ...                  ...
        64        2.0000           -0.4979702             -13.5505
        65        2.0000           -0.4968896             -13.5211
        66        2.0000           -0.4930760             -13.4173
        67        2.0000           -0.4922228             -13.3941
        68        2.0000           -0.4881052             -13.2820
        69        2.0000           -0.4862954             -13.2328
        70        2.0000           -0.4816779             -13.1071 (HOMO)
        71                         -0.2696806              -7.3384 (LUMO)
        72                         -0.2695381              -7.3345
        73                         -0.2688751              -7.3165
        74                         -0.2557191              -6.9585
        75                         -0.1432721              -3.8986
       ...                                ...                  ...
       122                          0.5614857              15.2788
      -------------------------------------------------------------
                  HL-Gap            0.2119973 Eh            5.7687 eV
             Fermi-level           -0.3756793 Eh          -10.2228 eV

 SCC (total)                   0 d,  0 h,  0 min,  0.096 sec
 SCC setup                      ...        0 min,  0.000 sec (  0.308%)
 Dispersion                     ...        0 min,  0.001 sec (  0.636%)
 classical contributions        ...        0 min,  0.000 sec (  0.194%)
 integral evaluation            ...        0 min,  0.008 sec (  8.195%)
 iterations                     ...        0 min,  0.059 sec ( 62.237%)
 molecular gradient             ...        0 min,  0.027 sec ( 28.158%)
 printout                       ...        0 min,  0.000 sec (  0.260%)

         :::::::::::::::::::::::::::::::::::::::::::::::::::::
         ::                     SUMMARY                     ::
         :::::::::::::::::::::::::::::::::::::::::::::::::::::
         :: total energy             -80.933982055295 Eh    ::
         :: gradient norm              0.000181797769 Eh/a0 ::
         :: HOMO-LUMO gap              5.768740649936 eV    ::
         ::.................................................::
         :: SCC energy               -81.848366101745 Eh    ::
         :: -> isotropic ES            0.292466503248 Eh    ::
         :: -> anisotropic ES         -0.027601337682 Eh    ::
         :: -> anisotropic XC          0.020373430080 Eh    ::
         :: -> dispersion             -0.042835786245 Eh    ::
         :: repulsion energy           0.913448152654 Eh    ::
         :: add. restraining           0.000000000000 Eh    ::
         :: total charge               1.000000000000 e     ::
         :::::::::::::::::::::::::::::::::::::::::::::::::::::

           ------------------------------------------------- 
          |                Numerical Hessian                |
           ------------------------------------------------- 
step length          :   0.00500
SCC accuracy         :   0.30000
Hessian scale factor :   1.00000
frozen atoms in %    :   0.00000    0
RMS gradient         :   0.00018
estimated CPU  time      0.23 min
estimated wall time      0.23 min

writing file <hessian>.

 projected vibrational frequencies (cm⁻¹)
eigval :       -0.00    -0.00    -0.00     0.00     0.00     0.00
eigval :        4.52    13.89    20.98    25.81    29.27    34.80
eigval :       36.28    40.86    48.47    55.45    57.77    63.50
eigval :       70.88    74.87    74.97    92.33    96.69   105.86
eigval :      109.55   118.47   131.56   151.90   165.75   183.72
eigval :      196.22   198.83   218.96   238.15   266.45   270.89
eigval :      293.35   309.29   319.50   335.39   340.39   354.67
eigval :      377.45   384.20   418.13   437.25   443.36   458.93
eigval :      459.64   461.01   463.64   467.54   471.60   476.51
eigval :      481.97   483.45   489.86   526.06   541.41   551.33
eigval :      552.74   559.64   569.44   664.88   671.08   673.21
eigval :      676.39   715.59   736.08   766.10   773.53   796.17
eigval :      911.62   929.51   951.86   961.83   967.30   969.24
eigval :     1003.61  1005.24  1007.25  1013.85  1016.68  1022.70
eigval :     1028.12  1036.86  1041.21  1080.47  1083.68  1090.85
eigval :     1092.01  1097.20  1112.45  1130.67  1169.88  1229.47
eigval :     1250.35  1280.74  1318.26  1327.82  1351.88  1353.54
eigval :     1360.01  1361.48  1378.60  1398.87  1401.32  1411.84
eigval :     1422.08  1437.76  1439.85  1444.56  1447.84  1449.51
eigval :     1455.77  1457.97  1462.19  1465.99  1472.15  1482.80
eigval :     1490.70  1499.94  1506.98  1509.25  1512.35  1667.15
eigval :     1694.79  1699.76  1718.13  2870.73  2976.26  2992.07
eigval :     3004.64  3029.52  3034.71  3038.99  3046.56  3050.08
eigval :     3057.14  3064.43  3067.60  3079.64  3108.81  3175.09
eigval :     3240.08  3291.77  3483.79  3495.67  3498.32  3501.85
eigval :     3502.41  3524.56  3531.22  3539.51  3554.10  3560.67
eigval :     3564.50  3567.80  3568.38
           -------------------------------------------------
          |                Property Printout                |
           -------------------------------------------------

    * Orbital Energies and Occupations

         #    Occupation            Energy/Eh            Energy/eV
      -------------------------------------------------------------
         1        2.0000           -0.7909829             -21.5237
       ...           ...                  ...                  ...
        58        2.0000           -0.5078825             -13.8202
        59        2.0000           -0.5068846             -13.7930
        60        2.0000           -0.5045242             -13.7288
        61        2.0000           -0.5029858             -13.6869
        62        2.0000           -0.5021745             -13.6649
        63        2.0000           -0.4995347             -13.5930
        64        2.0000           -0.4979709             -13.5505
        65        2.0000           -0.4968904             -13.5211
        66        2.0000           -0.4930767             -13.4173
        67        2.0000           -0.4922251             -13.3941
        68        2.0000           -0.4881049             -13.2820
        69        2.0000           -0.4862976             -13.2328
        70        2.0000           -0.4816801             -13.1072 (HOMO)
        71                         -0.2696802              -7.3384 (LUMO)
        72                         -0.2695382              -7.3345
        73                         -0.2688759              -7.3165
        74                         -0.2557236              -6.9586
        75                         -0.1432713              -3.8986
        76                         -0.1025538              -2.7906
        77                         -0.1008491              -2.7442
        78                         -0.0796656              -2.1678
        79                         -0.0744664              -2.0263
        80                         -0.0702191              -1.9108
        81                         -0.0664032              -1.8069
       ...                                ...                  ...
       122                          0.5614827              15.2787
      -------------------------------------------------------------
                  HL-Gap            0.2119999 Eh            5.7688 eV
             Fermi-level           -0.3756802 Eh          -10.2228 eV

     #   Z          covCN         q      C6AA      α(0)
     1   8 O        1.653    -0.483    22.521     6.406
     2   6 C        3.673     0.076    19.529     6.333
     3   1 H        0.924     0.054     2.274     2.358
     4   1 H        0.923     0.043     2.416     2.431
     5   6 C        3.766    -0.068    21.843     6.661
     6   1 H        0.924     0.099     1.797     2.097
     7   1 H        0.924     0.112     1.678     2.026
     8   7 N        3.624     0.160    18.550     6.397
     9   6 C        3.722    -0.110    22.717     6.807
    10   1 H        0.925     0.099     1.792     2.093
    11   1 H        0.925     0.103     1.756     2.072
    12   1 H        0.925     0.108     1.710     2.045
    13   6 C        3.740    -0.113    22.750     6.805
    14   1 H        0.925     0.081     1.969     2.194
    15   1 H        0.925     0.122     1.600     1.978
    16   1 H        0.925     0.101     1.772     2.081
    17   6 C        3.729    -0.118    22.860     6.825
    18   1 H        0.925     0.083     1.944     2.180
    19   1 H        0.925     0.112     1.675     2.024
    20   1 H        0.925     0.120     1.611     1.985
    21   1 H        0.802     0.332     0.632     1.249
    22   6 C        2.675     0.344    21.159     7.527
    23   8 O        0.860    -0.520    24.235     6.600
    24   7 N        2.646    -0.282    27.287     7.758
    25   1 H        0.860     0.204     1.086     1.632
    26   1 H        0.861     0.189     1.165     1.691
    27   7 N        2.645    -0.290    27.471     7.784
    28   1 H        0.861     0.188     1.168     1.693
    29   1 H        0.860     0.216     1.027     1.587
    30   6 C        2.675     0.339    21.233     7.540
    31   8 O        0.861    -0.534    24.545     6.643
    32   7 N        2.644    -0.291    27.500     7.788
    33   1 H        0.860     0.201     1.101     1.643
    34   1 H        0.861     0.184     1.192     1.711
    35   7 N        2.643    -0.313    28.054     7.866
    36   1 H        0.861     0.177     1.231     1.738
    37   1 H        0.859     0.245     0.904     1.489
    38   6 C        2.675     0.341    21.205     7.535
    39   8 O        0.860    -0.519    24.213     6.597
    40   7 N        2.644    -0.304    27.829     7.835
    41   1 H        0.860     0.240     0.921     1.503
    42   1 H        0.861     0.181     1.208     1.721
    43   7 N        2.645    -0.289    27.462     7.783
    44   1 H        0.861     0.186     1.181     1.703
    45   1 H        0.860     0.201     1.101     1.643
    46   6 C        2.675     0.344    21.161     7.528
    47   8 O        0.860    -0.530    24.462     6.631
    48   7 N        2.645    -0.296    27.627     7.806
    49   1 H        0.860     0.196     1.128     1.664
    50   1 H        0.860     0.180     1.213     1.725
    51   7 N        2.644    -0.312    28.027     7.863
    52   1 H        0.860     0.174     1.249     1.750
    53   1 H        0.860     0.235     0.946     1.524

 Mol. C6AA /au·bohr⁶  :      21792.631893
 Mol. C8AA /au·bohr⁸  :     454218.958115
 Mol. α(0) /au        :        220.553652


Wiberg/Mayer (AO) data.
largest (>0.10) Wiberg bond orders for each atom

 ---------------------------------------------------------------------------
     #   Z sym  total        # sym  WBO       # sym  WBO       # sym  WBO
 ---------------------------------------------------------------------------
     1   8 O    1.936 --     2 C    1.019    21 H    0.807
     2   6 C    3.967 --     1 O    1.019     5 C    0.998     3 H    0.966
                             4 H    0.960
     3   1 H    0.997 --     2 C    0.966
     4   1 H    0.998 --     2 C    0.960
     5   6 C    3.933 --     2 C    0.998     6 H    0.961     7 H    0.957
                             8 N    0.935
     6   1 H    0.990 --     5 C    0.961
     7   1 H    0.987 --     5 C    0.957
     8   7 N    3.823 --     9 C    0.957    13 C    0.957    17 C    0.956
                             5 C    0.935
     9   6 C    3.924 --    10 H    0.973    11 H    0.969    12 H    0.969
                             8 N    0.957
    10   1 H    0.990 --     9 C    0.973
    11   1 H    0.989 --     9 C    0.969
    12   1 H    0.988 --     9 C    0.969
    13   6 C    3.924 --    14 H    0.979    16 H    0.969    15 H    0.959
                             8 N    0.957
    14   1 H    0.993 --    13 C    0.979
    15   1 H    0.985 --    13 C    0.959
    16   1 H    0.989 --    13 C    0.969
    17   6 C    3.918 --    18 H    0.975    19 H    0.963    20 H    0.960
                             8 N    0.956
    18   1 H    0.993 --    17 C    0.975
    19   1 H    0.987 --    17 C    0.963
    20   1 H    0.986 --    17 C    0.960
    21   1 H    0.890 --     1 O    0.807
    22   6 C    3.960 --    23 O    1.510    27 N    1.226    24 N    1.220
    23   8 O    1.918 --    22 C    1.510    27 N    0.142    24 N    0.137
    24   7 N    3.334 --    22 C    1.220    26 H    0.946    25 H    0.942
                            23 O    0.137
    25   1 H    0.958 --    24 N    0.942
    26   1 H    0.964 --    24 N    0.946
    27   7 N    3.336 --    22 C    1.226    28 H    0.946    29 H    0.931
                            23 O    0.142
    28   1 H    0.965 --    27 N    0.946
    29   1 H    0.953 --    27 N    0.931
    30   6 C    3.960 --    31 O    1.490    35 N    1.248    32 N    1.209
    31   8 O    1.892 --    30 C    1.490    35 N    0.145    32 N    0.132
    32   7 N    3.324 --    30 C    1.209    34 H    0.947    33 H    0.943
                            31 O    0.132
    33   1 H    0.959 --    32 N    0.943
    34   1 H    0.966 --    32 N    0.947
    35   7 N    3.334 --    30 C    1.248    36 H    0.949    37 H    0.869
                            31 O    0.145
    36   1 H    0.969 --    35 N    0.949
    37   1 H    0.940 --    35 N    0.869
    38   6 C    3.960 --    39 O    1.484    40 N    1.256    43 N    1.211
    39   8 O    1.929 --    38 C    1.484    40 N    0.142    43 N    0.131
    40   7 N    3.347 --    38 C    1.256    42 H    0.948    41 H    0.873
                            39 O    0.142
    41   1 H    0.942 --    40 N    0.873
    42   1 H    0.967 --    40 N    0.948
    43   7 N    3.325 --    38 C    1.211    44 H    0.947    45 H    0.942
                            39 O    0.131
    44   1 H    0.965 --    43 N    0.947
    45   1 H    0.959 --    43 N    0.942
    46   6 C    3.959 --    47 O    1.528    51 N    1.229    48 N    1.193
    47   8 O    1.890 --    46 C    1.528    51 N    0.146    48 N    0.137
    48   7 N    3.307 --    46 C    1.193    50 H    0.948    49 H    0.945
                            47 O    0.137
    49   1 H    0.962 --    48 N    0.945
    50   1 H    0.967 --    48 N    0.948
    51   7 N    3.320 --    46 C    1.229    52 H    0.950    53 H    0.886
                            47 O    0.146
    52   1 H    0.970 --    51 N    0.950
    53   1 H    0.945 --    51 N    0.886
 ---------------------------------------------------------------------------

Topologies differ in total number of bonds
Writing topology from bond orders to xtbtopo.mol

molecular dipole:
                 x           y           z       tot (Debye)
 q only:        0.457       0.099       0.541
   full:        0.260       0.422       0.696       2.172
molecular quadrupole (traceless):
                xx          xy          yy          xz          yz          zz
 q only:       18.597     -34.303      10.443      23.083     -18.854     -29.040
  q+dip:       21.561     -38.932      14.187      28.253     -24.083     -35.748
   full:       21.540     -39.079      14.208      28.167     -23.948     -35.748

           -------------------------------------------------
          |               Frequency Printout                |
           -------------------------------------------------
 projected vibrational frequencies (cm⁻¹)
eigval :       -0.00    -0.00    -0.00     0.00     0.00     0.00
eigval :        4.52    13.89    20.98    25.81    29.27    34.80
eigval :       36.28    40.86    48.47    55.45    57.77    63.50
eigval :       70.88    74.87    74.97    92.33    96.69   105.86
eigval :      109.55   118.47   131.56   151.90   165.75   183.72
eigval :      196.22   198.83   218.96   238.15   266.45   270.89
eigval :      293.35   309.29   319.50   335.39   340.39   354.67
eigval :      377.45   384.20   418.13   437.25   443.36   458.93
eigval :      459.64   461.01   463.64   467.54   471.60   476.51
eigval :      481.97   483.45   489.86   526.06   541.41   551.33
eigval :      552.74   559.64   569.44   664.88   671.08   673.21
eigval :      676.39   715.59   736.08   766.10   773.53   796.17
eigval :      911.62   929.51   951.86   961.83   967.30   969.24
eigval :     1003.61  1005.24  1007.25  1013.85  1016.68  1022.70
eigval :     1028.12  1036.86  1041.21  1080.47  1083.68  1090.85
eigval :     1092.01  1097.20  1112.45  1130.67  1169.88  1229.47
eigval :     1250.35  1280.74  1318.26  1327.82  1351.88  1353.54
eigval :     1360.01  1361.48  1378.60  1398.87  1401.32  1411.84
eigval :     1422.08  1437.76  1439.85  1444.56  1447.84  1449.51
eigval :     1455.77  1457.97  1462.19  1465.99  1472.15  1482.80
eigval :     1490.70  1499.94  1506.98  1509.25  1512.35  1667.15
eigval :     1694.79  1699.76  1718.13  2870.73  2976.26  2992.07
eigval :     3004.64  3029.52  3034.71  3038.99  3046.56  3050.08
eigval :     3057.14  3064.43  3067.60  3079.64  3108.81  3175.09
eigval :     3240.08  3291.77  3483.79  3495.67  3498.32  3501.85
eigval :     3502.41  3524.56  3531.22  3539.51  3554.10  3560.67
eigval :     3564.50  3567.80  3568.38
 reduced masses (amu)
   1: 12.64   2: 12.72   3: 12.69   4: 12.56   5: 12.66   6: 12.61   7: 12.26   8: 12.15
   9: 11.69  10: 11.86  11: 12.09  12: 12.10  13: 12.37  14: 12.56  15: 12.39  16: 12.27
  17: 11.87  18: 12.78  19: 12.53  20: 13.55  21: 12.36  22: 13.50  23: 12.70  24: 11.65
  25: 13.29  26: 11.65  27: 12.53  28: 12.48  29: 13.43  30:  4.15  31:  9.71  32: 12.50
  33: 11.66  34:  2.59  35:  3.07  36:  4.06  37:  6.89  38:  2.87  39:  7.71  40:  2.06
  41:  3.69  42:  3.39  43:  7.29  44:  3.32  45:  3.13  46:  8.72  47:  3.11  48:  2.26
  49:  8.20  50:  8.12  51:  7.42  52:  6.81  53:  2.19  54:  4.98  55:  3.97  56:  7.59
  57:  6.80  58:  2.08  59: 11.24  60: 11.48  61: 10.97  62: 11.82  63:  8.64  64: 10.02
  65: 11.61  66: 11.30  67: 11.95  68:  3.45  69:  1.89  70:  9.29  71:  2.13  72:  2.07
  73:  6.87  74:  8.39  75:  5.19  76:  4.91  77:  5.07  78:  4.89  79:  7.63  80:  8.58
  81:  9.36  82:  8.87  83:  8.31  84:  9.57  85:  6.24  86:  3.66  87:  5.47  88:  9.69
  89:  9.18  90:  8.15  91:  8.42  92:  6.84  93:  4.02  94:  8.68  95:  2.93  96:  5.30
  97:  7.37  98:  8.23  99:  5.18 100:  3.93 101:  5.02 102:  4.93 103:  5.74 104:  4.58
 105:  4.84 106:  2.56 107:  3.13 108:  2.62 109:  2.18 110:  1.96 111:  2.15 112:  3.03
 113:  1.82 114:  3.21 115:  3.14 116:  1.91 117:  2.59 118:  1.75 119:  1.86 120:  1.65
 121:  1.83 122:  7.82 123:  9.07 124:  9.10 125:  9.37 126: 12.37 127: 12.73 128: 12.72
 129: 12.76 130:  1.76 131:  1.66 132:  1.67 133:  1.85 134:  1.72 135:  1.64 136:  1.59
 137:  1.90 138:  1.85 139:  1.63 140:  1.92 141:  1.60 142:  1.74 143:  1.92 144:  1.80
 145:  1.78 146:  1.75 147:  1.48 148:  1.45 149:  1.45 150:  1.45 151:  1.45 152:  1.92
 153:  1.90 154:  1.91 155:  2.16 156:  2.18 157:  2.18 158:  2.18 159:  2.18
 IR intensities (km·mol⁻¹)
   1:  1.13   2:  0.91   3:  2.54   4:  1.91   5:  1.72   6:  0.59   7:  0.12   8:  2.51
   9:  1.88  10:  0.15  11:  1.21  12:  2.59  13:  2.43  14:  2.39  15:  3.04  16:  2.34
  17:  2.14  18:  3.59  19:  2.94  20:  1.58  21: 12.83  22:  2.87  23:  0.23  24:  6.42
  25: 15.36  26: 12.91  27: 17.29  28:  6.96  29: 23.59  30: 14.49  31: 18.82  32: 46.40
  33:  7.19  34:131.40  35: 78.83  36: 74.56  37:  0.17  38:174.42  39:  5.73  40: 17.66
  41:449.06  42:  6.07  43:  0.96  44:221.45  45:204.37  46: 13.15  47:330.74  48:  8.73
  49:  4.91  50: 18.41  51: 18.16  52:  5.56  53:  5.31  54:  5.25  55: 13.32  56: 19.80
  57: 43.45  58: 38.63  59: 24.64  60:  4.65  61: 43.21  62: 43.64  63: 19.87  64: 11.13
  65: 15.80  66: 33.66  67: 34.20  68: 96.64  69:107.86  70:  4.60  71:479.51  72:170.33
  73:  4.03  74:  9.85  75:  5.63  76:  8.07  77:  2.97  78:  0.23  79: 19.33  80:  8.58
  81: 18.23  82:  6.12  83: 37.09  84:  1.99  85: 12.90  86:  3.24  87:  7.06  88:  0.88
  89:  0.78  90:  1.90  91:  2.91  92: 22.02  93: 17.28  94: 47.91  95:  5.52  96: 11.91
  97:  2.41  98:  5.03  99:  3.15 100:  2.09 101:171.21 102:129.18 103: 91.04 104: 33.99
 105:  1.20 106: 31.69 107: 71.23 108: 26.54 109:  2.30 110:  2.06 111: 11.02 112:  9.26
 113:  2.23 114:  6.89 115:  7.09 116:  0.97 117: 12.83 118:  8.49 119:  7.31 120: 67.03
 121:  4.28 122:679.89 123:492.88 124:285.24 125:549.13 126:399.78 127:940.20 128:******
 129:678.38 130: 41.75 131: 39.93 132: 24.06 133:  3.77 134:  4.71 135: 20.95 136: 37.76
 137:  1.90 138: 11.43 139:  2.45 140:  5.12 141: 10.38 142:  4.61 143:852.73 144:307.46
 145:****** 146:625.24 147: 60.09 148: 16.26 149: 21.61 150: 19.87 151: 18.39 152: 12.59
 153: 13.89 154: 17.34 155: 22.79 156:  8.90 157: 14.16 158: 17.00 159: 18.36
 Raman intensities (amu)
Molecule has no symmetry elements
It seems to be the C1 point group
   1:  0.00   2:  0.00   3:  0.00   4:  0.00   5:  0.00   6:  0.00   7:  0.00   8:  0.00
   9:  0.00  10:  0.00  11:  0.00  12:  0.00  13:  0.00  14:  0.00  15:  0.00  16:  0.00
  17:  0.00  18:  0.00  19:  0.00  20:  0.00  21:  0.00  22:  0.00  23:  0.00  24:  0.00
  25:  0.00  26:  0.00  27:  0.00  28:  0.00  29:  0.00  30:  0.00  31:  0.00  32:  0.00
  33:  0.00  34:  0.00  35:  0.00  36:  0.00  37:  0.00  38:  0.00  39:  0.00  40:  0.00
  41:  0.00  42:  0.00  43:  0.00  44:  0.00  45:  0.00  46:  0.00  47:  0.00  48:  0.00
  49:  0.00  50:  0.00  51:  0.00  52:  0.00  53:  0.00  54:  0.00  55:  0.00  56:  0.00
  57:  0.00  58:  0.00  59:  0.00  60:  0.00  61:  0.00  62:  0.00  63:  0.00  64:  0.00
  65:  0.00  66:  0.00  67:  0.00  68:  0.00  69:  0.00  70:  0.00  71:  0.00  72:  0.00
  73:  0.00  74:  0.00  75:  0.00  76:  0.00  77:  0.00  78:  0.00  79:  0.00  80:  0.00
  81:  0.00  82:  0.00  83:  0.00  84:  0.00  85:  0.00  86:  0.00  87:  0.00  88:  0.00
  89:  0.00  90:  0.00  91:  0.00  92:  0.00  93:  0.00  94:  0.00  95:  0.00  96:  0.00
  97:  0.00  98:  0.00  99:  0.00 100:  0.00 101:  0.00 102:  0.00 103:  0.00 104:  0.00
 105:  0.00 106:  0.00 107:  0.00 108:  0.00 109:  0.00 110:  0.00 111:  0.00 112:  0.00
 113:  0.00 114:  0.00 115:  0.00 116:  0.00 117:  0.00 118:  0.00 119:  0.00 120:  0.00
 121:  0.00 122:  0.00 123:  0.00 124:  0.00 125:  0.00 126:  0.00 127:  0.00 128:  0.00
 129:  0.00 130:  0.00 131:  0.00 132:  0.00 133:  0.00 134:  0.00 135:  0.00 136:  0.00
 137:  0.00 138:  0.00 139:  0.00 140:  0.00 141:  0.00 142:  0.00 143:  0.00 144:  0.00
 145:  0.00 146:  0.00 147:  0.00 148:  0.00 149:  0.00 150:  0.00 151:  0.00 152:  0.00
 153:  0.00 154:  0.00 155:  0.00 156:  0.00 157:  0.00 158:  0.00 159:  0.00
 output can be read by thermo (or use thermo option).
 writing <g98.out> molden fake output.
 recommended (thermochemical) frequency scaling factor: 1.0
           -------------------------------------------------
          |             Thermodynamic Functions             |
           -------------------------------------------------

c1  symmetry found (for desy threshold:  0.10E+00) used in thermo

          ...................................................
          :                      SETUP                      :
          :.................................................:
          :  # frequencies                         153      :
          :  # imaginary freq.                       0      :
          :  linear?                             false      :
          :  only rotor calc.                    false      :
          :  symmetry                               c1      :
          :  rotational number                       1      :
          :  scaling factor                  1.0000000      :
          :  rotor cutoff                   50.0000000 cm⁻¹ :
          :  imag. cutoff                  -20.0000000 cm⁻¹ :
          :.................................................:

    mode    ω/cm⁻¹     T·S(HO)/kcal·mol⁻¹    T·S(FR)/kcal·mol⁻¹   T·S(vib)
   ------------------------------------------------------------------------
       1      4.52    -2.85845 (  0.01%)    -1.76805 ( 99.99%)    -1.76813
       2     13.89    -2.19393 (  0.59%)    -1.43594 ( 99.41%)    -1.44042
       3     20.98    -1.94964 (  3.01%)    -1.31375 ( 96.99%)    -1.33287
       4     25.81    -1.82702 (  6.63%)    -1.25239 ( 93.37%)    -1.29049
       5     29.27    -1.75259 ( 10.51%)    -1.21512 ( 89.49%)    -1.27161
       6     34.80    -1.65036 ( 19.00%)    -1.16391 ( 81.00%)    -1.25633
       7     36.28    -1.62569 ( 21.70%)    -1.15155 ( 78.30%)    -1.25444
       8     40.86    -1.55543 ( 30.84%)    -1.11632 ( 69.16%)    -1.25175
       9     48.47    -1.45465 ( 46.89%)    -1.06574 ( 53.11%)    -1.24811
      10     55.45    -1.37530 ( 60.21%)    -1.02586 ( 39.79%)    -1.23625
      11     57.77    -1.35120 ( 64.06%)    -1.01374 ( 35.94%)    -1.22990
      12     63.50    -1.29557 ( 72.23%)    -0.98573 ( 27.77%)    -1.20954
      13     70.88    -1.23103 ( 80.15%)    -0.95318 ( 19.85%)    -1.17587
      14     74.87    -1.19889 ( 83.41%)    -0.93694 ( 16.59%)    -1.15542
      15     74.97    -1.19807 ( 83.49%)    -0.93652 ( 16.51%)    -1.15488
      16     92.33    -1.07632 ( 92.08%)    -0.87482 (  7.92%)    -1.06036
      17     96.69    -1.04945 ( 93.33%)    -0.86116 (  6.67%)    -1.03689
      18    105.86    -0.99687 ( 95.26%)    -0.83434 (  4.74%)    -0.98916
      19    109.55    -0.97702 ( 95.84%)    -0.82419 (  4.16%)    -0.97066
      20    118.47    -0.93179 ( 96.92%)    -0.80100 (  3.08%)    -0.92777
      21    131.56    -0.87152 ( 97.96%)    -0.76994 (  2.04%)    -0.86944
      22    151.90    -0.78959 ( 98.84%)    -0.72736 (  1.16%)    -0.78887
      23    165.75    -0.74034 ( 99.18%)    -0.70150 (  0.82%)    -0.74002
      24    183.72    -0.68286 ( 99.45%)    -0.67102 (  0.55%)    -0.68279
      25    196.22    -0.64645 ( 99.58%)    -0.65151 (  0.42%)    -0.64648
      26    198.83    -0.63919 ( 99.60%)    -0.64760 (  0.40%)    -0.63923
      27    218.96    -0.58666 ( 99.73%)    -0.61903 (  0.27%)    -0.58674
      28    238.15    -0.54163 ( 99.81%)    -0.59415 (  0.19%)    -0.54173
      29    266.45    -0.48273 ( 99.88%)    -0.56088 (  0.12%)    -0.48283
      30    270.89    -0.47420 ( 99.88%)    -0.55598 (  0.12%)    -0.47430
      31    293.35    -0.43367 ( 99.92%)    -0.53239 (  0.08%)    -0.43375
   ------------------------------------------------------------------------

   temp. (K)  partition function   enthalpy   heat capacity  entropy
                                   cal/mol     cal/K/mol   cal/K/mol   J/K/mol
 298.15  VIB  0.125E+19            19688.155    103.757    131.092
         ROT  0.163E+08              888.752      2.981     35.986
         INT  0.203E+26            20576.908    106.738    167.077
         TR   0.618E+28             1481.254      4.968     43.384
         TOT                       22058.1615   111.7058   210.4618   880.5723

       T/K    H(0)-H(T)+PV         H(T)/Eh          T*S/Eh         G(T)/Eh
   ------------------------------------------------------------------------
    298.15    0.351519E-01    0.473939E+00    0.999972E-01    0.373942E+00
   ------------------------------------------------------------------------

         :::::::::::::::::::::::::::::::::::::::::::::::::::::
         ::                  THERMODYNAMIC                  ::
         :::::::::::::::::::::::::::::::::::::::::::::::::::::
         :: total free energy         -80.560040533136 Eh   ::
         ::.................................................::
         :: total energy              -80.933982055694 Eh   ::
         :: zero point energy           0.438786817327 Eh   ::
         :: G(RRHO) w/o ZPVE           -0.064845294769 Eh   ::
         :: G(RRHO) contrib.            0.373941522558 Eh   ::
         :::::::::::::::::::::::::::::::::::::::::::::::::::::

           -------------------------------------------------
          | TOTAL ENERGY              -80.933982055694 Eh   |
          | TOTAL ENTHALPY            -80.460043320434 Eh   |
          | TOTAL FREE ENERGY         -80.560040533136 Eh   |
          | GRADIENT NORM               0.000182019039 Eh/α |
          | HOMO-LUMO GAP               5.768811604158 eV   |
           -------------------------------------------------

------------------------------------------------------------------------
 * finished run on 2024/01/10 at 18:28:35.517     
------------------------------------------------------------------------
 total:
 * wall-time:     0 d,  0 h,  0 min, 14.207 sec
 *  cpu-time:     0 d,  0 h,  0 min, 14.144 sec
 * ratio c/w:     0.996 speedup
 SCF:
 * wall-time:     0 d,  0 h,  0 min,  0.096 sec
 *  cpu-time:     0 d,  0 h,  0 min,  0.056 sec
 * ratio c/w:     0.586 speedup
 analytical hessian:
 * wall-time:     0 d,  0 h,  0 min, 14.085 sec
 *  cpu-time:     0 d,  0 h,  0 min, 14.061 sec
 * ratio c/w:     0.998 speedup

