 Entering Gaussian System
 *********************************************
 Gaussian 98:
 frequency output generated by the xtb code
 *********************************************
                         Standard orientation:
 --------------------------------------------------------------------
  Center     Atomic     Atomic              Coordinates (Angstroms)
  Number     Number      Type              X           Y           Z
 --------------------------------------------------------------------
    1          8             0       -1.675749   -3.730697   -0.647300
    2          6             0       -1.803493   -3.443858   -2.004918
    3          1             0       -1.391534   -4.302632   -2.541533
    4          1             0       -2.861909   -3.352735   -2.291849
    5          6             0       -1.131628   -2.132697   -2.448271
    6          1             0       -1.568840   -1.305986   -1.882977
    7          1             0       -1.346682   -1.983861   -3.508331
    8          7             0        0.340686   -2.044514   -2.258127
    9          6             0        0.679415   -2.080012   -0.824649
   10          1             0        0.144416   -1.286363   -0.308535
   11          1             0        1.750926   -1.913018   -0.713097
   12          1             0        0.390297   -3.037027   -0.396894
   13          6             0        0.789701   -0.754983   -2.818154
   14          1             0        0.175643    0.050408   -2.413366
   15          1             0        0.698610   -0.762300   -3.901863
   16          1             0        1.827796   -0.579966   -2.534252
   17          6             0        1.052808   -3.134920   -2.940125
   18          1             0        0.764451   -3.178327   -3.989137
   19          1             0        0.829091   -4.087809   -2.465970
   20          1             0        2.124452   -2.955133   -2.872302
   21          1             0       -2.091496   -3.011084   -0.127973
   22          6             0        3.037795    0.511240   -0.077134
   23          8             0        3.165285   -0.375483   -0.909667
   24          7             0        2.703438    0.273238    1.212635
   25          1             0        2.433458   -0.660537    1.465791
   26          1             0        2.401421    1.036143    1.804639
   27          7             0        3.189042    1.829335   -0.392323
   28          1             0        3.253056    2.504277    0.349811
   29          1             0        3.662778    2.043202   -1.253140
   30          6             0       -0.652652    1.315120   -0.038269
   31          8             0       -1.145857    1.030564   -1.135355
   32          7             0        0.054096    2.444482    0.160225
   33          1             0        0.304916    2.981031   -0.651759
   34          1             0        0.602689    2.567651    1.002519
   35          7             0       -0.781116    0.485218    1.022760
   36          1             0       -0.494367    0.799300    1.932904
   37          1             0       -1.485943   -0.249122    0.962108
   38          6             0       -3.808283   -0.982841   -0.109673
   39          8             0       -2.782799   -1.454027    0.393903
   40          7             0       -3.760673    0.073390   -0.937053
   41          1             0       -2.856236    0.523731   -1.096089
   42          1             0       -4.591886    0.502849   -1.298991
   43          7             0       -5.016584   -1.550012    0.106805
   44          1             0       -5.868837   -1.139106   -0.227382
   45          1             0       -5.077171   -2.310197    0.761030
   46          6             0        1.905524    3.340863    3.503695
   47          8             0        1.683347    2.612170    2.538131
   48          7             0        2.896921    3.077995    4.380394
   49          1             0        3.446361    2.245253    4.263109
   50          1             0        3.063547    3.648283    5.188994
   51          7             0        1.175052    4.450486    3.740163
   52          1             0        1.362140    5.062523    4.512882
   53          1             0        0.442009    4.698661    3.100015
 --------------------------------------------------------------------
     1 basis functions        1 primitive gaussians
     1 alpha electrons        1 beta electrons

 Harmonic frequencies (cm**-1), IR intensities (km*mol⁻¹),
 Raman scattering activities (A**4/amu), Raman depolarization ratios,
 reduced masses (AMU), force constants (mDyne/A) and normal coordinates:
                      1                      2                      3
                        a                      a                      a 
 Frequencies --     9.6364                12.9043                19.9335
 Red. masses --    11.7158                12.3587                11.7726
 Frc consts  --     0.0000                 0.0000                 0.0000
 IR Inten    --     1.7893                 1.0482                 0.1601
 Raman Activ --     0.0000                 0.0000                 0.0000
 Depolar     --     0.0000                 0.0000                 0.0000
 Atom AN      X      Y      Z        X      Y      Z        X      Y      Z
   1   8    -0.04  -0.01  -0.12     0.04   0.07   0.16    -0.00   0.05   0.09
   2   6    -0.05   0.06  -0.09    -0.01   0.00   0.13     0.01   0.01   0.07
   3   1    -0.02   0.02  -0.04    -0.01  -0.01   0.04     0.01  -0.00   0.03
   4   1    -0.02   0.02  -0.02    -0.01   0.00   0.05     0.00  -0.00   0.02
   5   6    -0.04   0.07  -0.04    -0.01  -0.02   0.06     0.01  -0.00   0.05
   6   1    -0.01   0.01   0.00     0.00   0.00   0.01     0.01   0.00   0.01
   7   1    -0.02   0.03  -0.01    -0.01  -0.02   0.02     0.00  -0.00   0.01
   8   7    -0.04   0.04  -0.07    -0.01  -0.03  -0.00     0.01  -0.00   0.04
   9   6    -0.01  -0.03  -0.07     0.05   0.02  -0.01     0.03   0.00   0.03
  10   1     0.00  -0.02  -0.01     0.02   0.01  -0.01     0.02   0.01   0.01
  11   1    -0.00  -0.01  -0.02     0.02   0.00  -0.02     0.01  -0.01   0.01
  12   1    -0.00  -0.01  -0.03     0.01   0.01   0.01     0.00   0.00   0.01
  13   6    -0.03   0.06  -0.01    -0.01  -0.06  -0.07     0.01  -0.01   0.02
  14   1    -0.00   0.01   0.01     0.00  -0.01  -0.02     0.01  -0.00   0.01
  15   1    -0.01   0.03  -0.00    -0.01  -0.03  -0.02     0.00  -0.00   0.01
  16   1    -0.01   0.01  -0.00    -0.00  -0.02  -0.03     0.00  -0.00   0.00
  17   6    -0.06   0.07  -0.13    -0.04  -0.06   0.01     0.00  -0.01   0.03
  18   1    -0.02   0.03  -0.04    -0.02  -0.03   0.01    -0.00  -0.01   0.01
  19   1    -0.02   0.01  -0.05    -0.01  -0.01   0.02     0.00  -0.00   0.01
  20   1    -0.02   0.01  -0.04    -0.01  -0.02  -0.01     0.00  -0.00   0.01
  21   1    -0.00  -0.01  -0.02     0.01   0.02   0.04    -0.01   0.01   0.02
  22   6     0.05  -0.11   0.01     0.08   0.03  -0.14     0.06  -0.01  -0.05
  23   8     0.01  -0.08  -0.04     0.05   0.02  -0.16     0.06  -0.03  -0.05
  24   7     0.08  -0.19   0.01     0.09   0.05  -0.15     0.17   0.00  -0.03
  25   1     0.03  -0.05  -0.00     0.02   0.02  -0.04     0.07  -0.00   0.00
  26   1     0.05  -0.06   0.02     0.02   0.02  -0.04     0.05  -0.00  -0.01
  27   7     0.05  -0.10   0.08     0.12   0.03  -0.17    -0.04  -0.01  -0.10
  28   1     0.02  -0.04   0.03     0.05   0.01  -0.05    -0.01   0.00  -0.03
  29   1     0.01  -0.02   0.02     0.03  -0.00  -0.05    -0.03  -0.00  -0.04
  30   6     0.06  -0.05   0.11     0.09   0.05  -0.10    -0.00  -0.03   0.03
  31   8     0.03   0.02   0.12     0.06   0.02  -0.08     0.01   0.01   0.02
  32   7     0.10  -0.08   0.15     0.11   0.05  -0.17     0.02  -0.05   0.08
  33   1     0.03  -0.02   0.04     0.03   0.01  -0.05     0.01  -0.01   0.02
  34   1     0.05  -0.04   0.03     0.03   0.02  -0.05     0.01  -0.02   0.02
  35   7     0.06  -0.10   0.08     0.12   0.09  -0.07    -0.03  -0.06   0.01
  36   1     0.03  -0.04   0.02     0.05   0.03  -0.03    -0.01  -0.03   0.01
  37   1     0.01  -0.02   0.01     0.03   0.03  -0.00    -0.02  -0.01  -0.00
  38   6     0.02  -0.00   0.06     0.06   0.09   0.11    -0.07   0.06  -0.07
  39   8     0.03  -0.04   0.02     0.08   0.11   0.11    -0.11   0.05  -0.02
  40   7     0.02   0.04   0.12     0.05   0.05   0.05    -0.01   0.05  -0.08
  41   1     0.01   0.01   0.03     0.02   0.01   0.00     0.00   0.01  -0.01
  42   1     0.00   0.02   0.04     0.01   0.02   0.02     0.00   0.02  -0.03
  43   7     0.02  -0.00   0.06     0.06   0.15   0.20    -0.09   0.08  -0.13
  44   1     0.01   0.01   0.02     0.01   0.04   0.05    -0.02   0.03  -0.05
  45   1     0.01  -0.01   0.00     0.02   0.05   0.06    -0.04   0.03  -0.03
  46   6    -0.05   0.09  -0.05    -0.22  -0.15   0.06    -0.00  -0.02   0.01
  47   8     0.25  -0.10   0.02    -0.08  -0.08  -0.04     0.12  -0.04  -0.01
  48   7    -0.21   0.37   0.20    -0.38  -0.23   0.20     0.30   0.33  -0.22
  49   1    -0.02   0.11   0.12    -0.09  -0.05   0.05     0.15   0.14  -0.10
  50   1    -0.12   0.14   0.04    -0.13  -0.08   0.07     0.04   0.08  -0.04
  51   7    -0.24   0.06  -0.40    -0.30  -0.20   0.05    -0.44  -0.36   0.27
  52   1    -0.12   0.06  -0.13    -0.11  -0.07   0.03    -0.13  -0.08   0.06
  53   1    -0.03  -0.04  -0.16    -0.05  -0.04  -0.01    -0.16  -0.15   0.10
                      4                      5                      6
                        a                      a                      a 
 Frequencies --    24.9381                30.3695                35.5108
 Red. masses --    12.4717                12.5646                12.8751
 Frc consts  --     0.0000                 0.0000                 0.0000
 IR Inten    --     0.5299                 0.7652                 0.9837
 Raman Activ --     0.0000                 0.0000                 0.0000
 Depolar     --     0.0000                 0.0000                 0.0000
 Atom AN      X      Y      Z        X      Y      Z        X      Y      Z
   1   8     0.10   0.03   0.25    -0.06  -0.21   0.00    -0.06  -0.00  -0.04
   2   6     0.08  -0.08   0.20    -0.05  -0.24  -0.01    -0.04   0.08  -0.02
   3   1     0.04  -0.03   0.08     0.00  -0.07   0.01    -0.02   0.03  -0.02
   4   1     0.02  -0.05   0.05    -0.02  -0.09  -0.01    -0.01   0.03  -0.00
   5   6    -0.00  -0.07   0.11    -0.13  -0.22  -0.06    -0.02   0.09   0.06
   6   1    -0.01  -0.02   0.03    -0.06  -0.07  -0.03    -0.01   0.02   0.02
   7   1    -0.01  -0.04   0.03    -0.03  -0.08  -0.02     0.00   0.04   0.02
   8   7    -0.00   0.02   0.05    -0.15  -0.12  -0.03    -0.03   0.08   0.12
   9   6     0.06   0.06   0.04    -0.16  -0.05  -0.03    -0.07   0.06   0.12
  10   1     0.02   0.02   0.01    -0.08  -0.03  -0.01    -0.02   0.02   0.03
  11   1     0.02   0.02  -0.00    -0.05   0.02  -0.00    -0.02   0.01   0.04
  12   1     0.03   0.02   0.02    -0.02  -0.02  -0.00    -0.03   0.02   0.03
  13   6    -0.09   0.03   0.01    -0.22  -0.09  -0.05     0.00   0.07   0.13
  14   1    -0.03   0.00   0.01    -0.07  -0.03  -0.00    -0.00   0.02   0.03
  15   1    -0.04   0.00   0.00    -0.07  -0.03  -0.01     0.01   0.02   0.04
  16   1    -0.02   0.02  -0.01    -0.06  -0.01  -0.02    -0.00   0.02   0.05
  17   6     0.03   0.05   0.04    -0.05  -0.07   0.00    -0.01   0.07   0.13
  18   1    -0.00   0.00   0.02    -0.00  -0.03  -0.00     0.01   0.02   0.03
  19   1     0.03   0.01   0.02    -0.00  -0.02   0.00    -0.01   0.02   0.03
  20   1     0.01   0.03  -0.00    -0.02  -0.00   0.01    -0.00   0.02   0.05
  21   1    -0.00   0.01   0.05    -0.00  -0.04  -0.01    -0.01  -0.00   0.00
  22   6     0.05   0.08  -0.14    -0.12   0.05  -0.05     0.07  -0.11  -0.00
  23   8     0.03   0.12  -0.19    -0.26   0.05  -0.07     0.10  -0.21   0.08
  24   7     0.19   0.04  -0.13    -0.14   0.06  -0.05     0.13  -0.02   0.03
  25   1     0.08   0.00  -0.03    -0.07   0.02  -0.02     0.05  -0.00   0.04
  26   1     0.06  -0.00  -0.02    -0.00   0.02  -0.00     0.04   0.01  -0.01
  27   7    -0.07   0.11  -0.14     0.02   0.03  -0.03    -0.00  -0.15  -0.13
  28   1    -0.01   0.02  -0.03     0.03   0.00  -0.00    -0.01  -0.02  -0.05
  29   1    -0.04   0.04  -0.05     0.01  -0.00  -0.01    -0.01  -0.05  -0.04
  30   6    -0.05  -0.05   0.10     0.10   0.11   0.06    -0.07   0.14  -0.03
  31   8    -0.04   0.02   0.08     0.13   0.14   0.06    -0.15   0.16   0.00
  32   7    -0.01  -0.09   0.18     0.11   0.12   0.09    -0.03   0.13  -0.08
  33   1     0.01  -0.02   0.05     0.04   0.03   0.02    -0.02   0.03  -0.03
  34   1     0.00  -0.04   0.05     0.03   0.03   0.02     0.01   0.03  -0.03
  35   7    -0.11  -0.11   0.06     0.06   0.13   0.07    -0.04   0.16  -0.01
  36   1    -0.04  -0.04   0.02     0.02   0.03   0.02     0.00   0.04  -0.01
  37   1    -0.04  -0.02   0.00     0.02   0.03   0.01    -0.01   0.04   0.00
  38   6    -0.12   0.01  -0.16     0.17   0.00  -0.10     0.03  -0.10  -0.02
  39   8    -0.21   0.02  -0.04     0.20  -0.01  -0.12     0.08   0.02   0.01
  40   7    -0.04   0.01  -0.17     0.18   0.03  -0.06    -0.10   0.05   0.19
  41   1    -0.01   0.00  -0.02     0.05   0.02  -0.00    -0.04   0.03   0.04
  42   1     0.00  -0.00  -0.07     0.05   0.01  -0.01    -0.03  -0.04   0.01
  43   7    -0.16  -0.00  -0.33     0.19  -0.04  -0.16     0.12  -0.42  -0.28
  44   1    -0.03   0.00  -0.11     0.05  -0.01  -0.04     0.02  -0.11  -0.04
  45   1    -0.06   0.01  -0.08     0.05  -0.02  -0.05     0.05  -0.12  -0.08
  46   6     0.08  -0.04   0.04     0.05   0.08   0.12     0.04  -0.01  -0.07
  47   8     0.18  -0.08   0.05     0.15   0.14   0.08     0.23   0.16  -0.26
  48   7    -0.11  -0.12   0.24     0.03   0.11   0.16    -0.10  -0.14   0.04
  49   1    -0.04  -0.04   0.10     0.03   0.04   0.04     0.00  -0.02  -0.02
  50   1    -0.04  -0.02   0.05    -0.01   0.02   0.05    -0.05  -0.06   0.03
  51   7     0.19   0.07  -0.16    -0.05   0.01   0.18    -0.06  -0.10   0.02
  52   1     0.03   0.02  -0.04    -0.02   0.00   0.05    -0.05  -0.06   0.04
  53   1     0.08   0.03  -0.08    -0.00   0.01   0.04     0.01   0.00  -0.02
                      7                      8                      9
                        a                      a                      a 
 Frequencies --    38.9642                42.3573                45.2230
 Red. masses --    13.2125                12.1949                12.6617
 Frc consts  --     0.0000                 0.0000                 0.0000
 IR Inten    --     3.0085                 4.0142                 2.5966
 Raman Activ --     0.0000                 0.0000                 0.0000
 Depolar     --     0.0000                 0.0000                 0.0000
 Atom AN      X      Y      Z        X      Y      Z        X      Y      Z
   1   8    -0.04  -0.01  -0.12     0.15  -0.02   0.18     0.05   0.13   0.12
   2   6     0.01   0.02  -0.11     0.14  -0.13   0.13    -0.04   0.09   0.10
   3   1    -0.00   0.00  -0.03     0.07  -0.04   0.06    -0.03   0.02   0.03
   4   1     0.01   0.02  -0.04     0.04  -0.08   0.03    -0.01   0.03   0.05
   5   6     0.06   0.01  -0.06     0.02  -0.10   0.05    -0.02   0.05   0.03
   6   1     0.02   0.00  -0.02    -0.01  -0.03   0.01     0.01   0.02   0.01
   7   1     0.03   0.01  -0.02    -0.01  -0.04   0.01    -0.02   0.01   0.01
   8   7     0.07  -0.05  -0.03     0.02   0.04   0.01    -0.00   0.00  -0.07
   9   6     0.02  -0.07  -0.02     0.07   0.03  -0.01     0.08   0.01  -0.08
  10   1     0.01  -0.02  -0.01     0.01  -0.00   0.01     0.03   0.01  -0.02
  11   1     0.01  -0.03   0.00     0.02   0.02  -0.01     0.02   0.01  -0.04
  12   1    -0.01  -0.02  -0.01     0.04   0.00  -0.00     0.03   0.01  -0.02
  13   6     0.12  -0.05  -0.00    -0.11   0.08   0.02     0.01  -0.02  -0.11
  14   1     0.04  -0.01  -0.00    -0.05   0.01   0.01     0.01   0.00  -0.03
  15   1     0.04  -0.01  -0.00    -0.04   0.03   0.01    -0.01  -0.01  -0.03
  16   1     0.03  -0.02   0.01    -0.03   0.05  -0.00     0.01  -0.01  -0.04
  17   6     0.04  -0.06  -0.02     0.10   0.12  -0.04    -0.08  -0.03  -0.09
  18   1     0.02  -0.01  -0.01     0.02   0.03  -0.01    -0.04  -0.01  -0.02
  19   1     0.00  -0.02  -0.01     0.06   0.02  -0.02    -0.03  -0.00  -0.02
  20   1     0.01  -0.03   0.00     0.02   0.06  -0.02    -0.02  -0.02  -0.05
  21   1    -0.01  -0.00  -0.03     0.03   0.00   0.02     0.01   0.03   0.03
  22   6    -0.09  -0.00  -0.01    -0.11  -0.09   0.09    -0.01   0.04   0.04
  23   8     0.01  -0.06   0.07    -0.01   0.06  -0.04    -0.02   0.15  -0.06
  24   7     0.02   0.06   0.03    -0.16  -0.33   0.05    -0.34  -0.06  -0.06
  25   1     0.06   0.01   0.04    -0.02  -0.10  -0.02    -0.16  -0.01  -0.06
  26   1     0.02   0.02   0.00    -0.04  -0.11   0.04    -0.05  -0.01  -0.00
  27   7    -0.37  -0.00  -0.13    -0.22  -0.03   0.34     0.35   0.06   0.28
  28   1    -0.13   0.02  -0.05    -0.11  -0.04   0.12     0.06  -0.01   0.10
  29   1    -0.12   0.01  -0.05    -0.06   0.05   0.11     0.15   0.03   0.11
  30   6    -0.01  -0.08   0.03    -0.05   0.14  -0.07     0.03  -0.11  -0.03
  31   8     0.07  -0.12   0.01    -0.10   0.22  -0.07     0.01  -0.18  -0.02
  32   7    -0.10  -0.03   0.06    -0.10   0.17  -0.02     0.10  -0.16  -0.12
  33   1    -0.03  -0.01   0.02    -0.04   0.06  -0.00     0.02  -0.05  -0.04
  34   1    -0.02  -0.00   0.01     0.00   0.02  -0.02     0.02  -0.02  -0.03
  35   7    -0.01  -0.10   0.02     0.03   0.07  -0.12    -0.01  -0.06   0.01
  36   1    -0.03  -0.02   0.01     0.02   0.01  -0.03    -0.01  -0.00   0.00
  37   1     0.00  -0.03  -0.00     0.01   0.02  -0.03    -0.02  -0.01   0.01
  38   6    -0.02   0.03   0.03     0.03   0.05  -0.01    -0.08  -0.05   0.02
  39   8    -0.04  -0.04  -0.02     0.06   0.06  -0.06    -0.12   0.01   0.14
  40   7     0.03  -0.06  -0.10    -0.00  -0.02  -0.11    -0.06  -0.04   0.04
  41   1     0.01  -0.03  -0.03    -0.01   0.01  -0.03    -0.01  -0.01   0.01
  42   1     0.01   0.02   0.01    -0.01   0.00  -0.00    -0.01  -0.04  -0.03
  43   7    -0.07   0.23   0.23     0.03   0.11   0.14    -0.07  -0.14  -0.14
  44   1    -0.01   0.06   0.04     0.01   0.01   0.03    -0.02  -0.04  -0.04
  45   1    -0.03   0.06   0.06     0.02   0.03   0.04    -0.03  -0.02  -0.02
  46   6     0.09   0.10   0.01     0.05  -0.09  -0.11     0.07   0.08  -0.01
  47   8     0.37   0.39  -0.25     0.17  -0.08  -0.18     0.25   0.28  -0.19
  48   7    -0.12  -0.11   0.19     0.02  -0.08  -0.07    -0.01  -0.02   0.05
  49   1     0.01   0.01   0.00     0.03  -0.00  -0.03     0.02   0.01  -0.02
  50   1    -0.06  -0.06   0.08    -0.01  -0.02  -0.02    -0.04  -0.04   0.05
  51   7    -0.02   0.00   0.16    -0.04  -0.16  -0.12    -0.06  -0.03   0.15
  52   1    -0.05  -0.04   0.09    -0.03  -0.05  -0.02    -0.03  -0.03   0.06
  53   1     0.04   0.05   0.01    -0.00  -0.05  -0.04     0.02   0.03   0.01
                     10                     11                     12
                        a                      a                      a 
 Frequencies --    49.0360                56.3092                64.5315
 Red. masses --    11.7684                12.3829                12.3189
 Frc consts  --     0.0000                 0.0000                 0.0000
 IR Inten    --     1.3447                 0.7601                 0.5637
 Raman Activ --     0.0000                 0.0000                 0.0000
 Depolar     --     0.0000                 0.0000                 0.0000
 Atom AN      X      Y      Z        X      Y      Z        X      Y      Z
   1   8     0.01  -0.11  -0.10     0.03  -0.13  -0.01    -0.08  -0.03  -0.09
   2   6     0.10  -0.15  -0.11     0.12  -0.18  -0.03    -0.06  -0.03  -0.08
   3   1     0.07  -0.04  -0.01     0.07  -0.05   0.01    -0.02  -0.01  -0.02
   4   1     0.03  -0.08  -0.06     0.04  -0.08  -0.04    -0.02  -0.01  -0.02
   5   6     0.01  -0.09  -0.08     0.06  -0.14  -0.01    -0.06  -0.04  -0.08
   6   1    -0.04  -0.04  -0.04     0.00  -0.05   0.00    -0.03  -0.01  -0.04
   7   1     0.02  -0.04  -0.03     0.02  -0.04  -0.00     0.00  -0.02  -0.03
   8   7    -0.02   0.07   0.04     0.05  -0.07  -0.00    -0.07  -0.01  -0.00
   9   6    -0.13   0.10   0.06     0.05  -0.10  -0.00    -0.14   0.12   0.02
  10   1    -0.07   0.01   0.01     0.00  -0.04   0.01    -0.06   0.04  -0.02
  11   1    -0.04   0.06   0.04     0.01  -0.02   0.00    -0.05   0.05   0.02
  12   1    -0.01   0.02   0.01     0.02  -0.04  -0.01    -0.03   0.04   0.02
  13   6    -0.11   0.11   0.07    -0.02  -0.02   0.04    -0.05  -0.05  -0.08
  14   1    -0.05   0.02   0.02    -0.02  -0.02   0.01    -0.02  -0.01  -0.05
  15   1    -0.02   0.04   0.02     0.00   0.00   0.01     0.01  -0.04  -0.02
  16   1    -0.04   0.05   0.03    -0.01   0.01   0.02    -0.02  -0.00  -0.01
  17   6     0.16   0.15   0.09     0.12   0.01  -0.04    -0.02  -0.06   0.13
  18   1     0.08   0.04   0.02     0.04   0.01  -0.01     0.01  -0.04   0.03
  19   1     0.06   0.03   0.02     0.06  -0.01  -0.02    -0.01  -0.01   0.06
  20   1     0.04   0.07   0.06     0.03   0.02  -0.01    -0.01  -0.01   0.05
  21   1    -0.01  -0.02  -0.04    -0.01  -0.03  -0.02    -0.02  -0.01  -0.02
  22   6     0.15  -0.04  -0.02     0.01   0.04   0.01     0.04   0.16   0.14
  23   8     0.02  -0.10   0.00    -0.03   0.04   0.02    -0.17   0.28   0.03
  24   7     0.04   0.06  -0.04     0.01   0.06   0.02     0.46   0.02   0.24
  25   1    -0.05   0.03  -0.01    -0.01   0.02   0.00     0.13  -0.00   0.05
  26   1     0.03   0.04  -0.02     0.01   0.02   0.00     0.10  -0.01   0.08
  27   7     0.48  -0.09  -0.05     0.08   0.03   0.01    -0.09   0.21   0.26
  28   1     0.15  -0.02  -0.02     0.02   0.01   0.00     0.02   0.03   0.08
  29   1     0.15  -0.06  -0.01     0.02   0.00   0.00    -0.09   0.09   0.04
  30   6    -0.12   0.03   0.02    -0.01  -0.06  -0.07     0.04  -0.04  -0.11
  31   8    -0.16   0.08   0.03    -0.09   0.03  -0.07    -0.02  -0.07  -0.09
  32   7    -0.00  -0.04   0.01    -0.01  -0.08  -0.02     0.24  -0.15  -0.23
  33   1     0.00  -0.01   0.00    -0.02   0.00   0.00     0.09  -0.07  -0.07
  34   1     0.00  -0.01   0.00    -0.00  -0.02  -0.01     0.06  -0.04  -0.06
  35   7    -0.21   0.07   0.04     0.07  -0.17  -0.14    -0.10   0.09  -0.04
  36   1    -0.05   0.01   0.01     0.02  -0.06  -0.03    -0.00   0.03  -0.02
  37   1    -0.05   0.01   0.00     0.01  -0.03  -0.05    -0.03   0.03   0.00
  38   6    -0.08  -0.04   0.00    -0.10   0.14   0.04    -0.03  -0.04   0.02
  39   8    -0.06  -0.09  -0.10    -0.05  -0.03  -0.26    -0.02  -0.04   0.01
  40   7    -0.08  -0.19  -0.20    -0.21   0.49   0.49    -0.04  -0.04   0.02
  41   1    -0.02  -0.04  -0.04    -0.05   0.09   0.07    -0.01  -0.01   0.00
  42   1    -0.03  -0.01   0.01    -0.06   0.12   0.13    -0.01  -0.01   0.01
  43   7    -0.12   0.16   0.31    -0.08   0.05  -0.04    -0.02  -0.04   0.04
  44   1    -0.03   0.02   0.05    -0.03   0.07   0.09    -0.01  -0.01   0.02
  45   1    -0.02   0.04   0.07    -0.01  -0.02  -0.05    -0.00  -0.01   0.01
  46   6     0.03   0.02  -0.00    -0.00   0.03   0.01     0.05  -0.05  -0.03
  47   8     0.09   0.07  -0.05     0.00   0.08  -0.02     0.11  -0.06  -0.05
  48   7     0.00  -0.00   0.03    -0.02  -0.01   0.01     0.02  -0.03   0.01
  49   1     0.00  -0.00   0.01    -0.00  -0.00  -0.00     0.02  -0.00   0.01
  50   1    -0.02  -0.02   0.02    -0.00  -0.01   0.01    -0.01  -0.01   0.00
  51   7    -0.02  -0.02   0.04     0.00   0.03   0.04     0.01  -0.08  -0.05
  52   1    -0.01  -0.01   0.01     0.00   0.00   0.02    -0.01  -0.02  -0.01
  53   1     0.01   0.01  -0.00     0.00   0.02   0.01     0.01  -0.03  -0.02
                     13                     14                     15
                        a                      a                      a 
 Frequencies --    67.3819                82.0138                88.6735
 Red. masses --    11.6110                11.8552                12.9456
 Frc consts  --     0.0000                 0.0000                 0.0000
 IR Inten    --     1.1869                 8.6272                 2.1937
 Raman Activ --     0.0000                 0.0000                 0.0000
 Depolar     --     0.0000                 0.0000                 0.0000
 Atom AN      X      Y      Z        X      Y      Z        X      Y      Z
   1   8    -0.03  -0.04   0.10    -0.15  -0.12  -0.16    -0.01  -0.02  -0.04
   2   6    -0.08   0.01   0.10    -0.13   0.10  -0.10     0.01   0.06  -0.02
   3   1    -0.03   0.01   0.02    -0.07   0.04  -0.07     0.00   0.02  -0.02
   4   1    -0.03   0.01   0.04    -0.04   0.08  -0.02     0.00   0.03  -0.01
   5   6    -0.09   0.02   0.12     0.01   0.09   0.09     0.04   0.07   0.06
   6   1    -0.00  -0.00   0.07     0.02   0.02   0.05     0.01   0.01   0.03
   7   1    -0.06   0.03   0.04     0.02   0.07   0.03     0.02   0.04   0.02
   8   7    -0.07  -0.03  -0.03     0.02  -0.07   0.16     0.03   0.05   0.10
   9   6     0.10  -0.23  -0.07    -0.02  -0.02   0.16     0.01   0.02   0.10
  10   1     0.05  -0.08   0.03     0.03   0.03   0.03     0.02   0.01   0.03
  11   1     0.03  -0.07  -0.04     0.00  -0.05   0.04     0.01  -0.02   0.03
  12   1     0.04  -0.08  -0.05    -0.05   0.01   0.06    -0.02   0.01   0.03
  13   6    -0.10   0.04   0.09     0.16  -0.14   0.09     0.06   0.03   0.10
  14   1    -0.03  -0.00   0.05     0.05  -0.02  -0.01     0.01   0.01   0.01
  15   1    -0.04   0.04   0.03     0.07  -0.06   0.02     0.03   0.00   0.03
  16   1    -0.03   0.01   0.03     0.04  -0.05   0.04     0.01   0.01   0.04
  17   6    -0.17   0.06  -0.27    -0.09  -0.19   0.24     0.03   0.03   0.11
  18   1    -0.09   0.06  -0.07    -0.03  -0.08   0.07     0.01   0.01   0.03
  19   1    -0.04  -0.00  -0.11    -0.05  -0.04   0.10     0.01   0.01   0.03
  20   1    -0.05   0.01  -0.11    -0.02  -0.08   0.06     0.01   0.01   0.03
  21   1     0.00  -0.01   0.03    -0.02  -0.04  -0.02    -0.00  -0.01  -0.00
  22   6     0.09   0.02   0.12     0.05   0.13  -0.07    -0.12  -0.02  -0.09
  23   8    -0.06  -0.04   0.18     0.04   0.25  -0.20     0.02  -0.03  -0.06
  24   7     0.27   0.12   0.20    -0.04  -0.02  -0.13    -0.29  -0.02  -0.15
  25   1     0.05   0.04   0.06    -0.04  -0.01  -0.07    -0.03  -0.01  -0.02
  26   1     0.06   0.05   0.03    -0.00  -0.02  -0.01    -0.03  -0.01  -0.01
  27   7     0.13  -0.01   0.02     0.18   0.17   0.13    -0.20  -0.01  -0.12
  28   1     0.06   0.01  -0.01     0.03   0.02   0.06    -0.06  -0.00  -0.03
  29   1     0.01  -0.02  -0.02     0.06   0.07   0.05    -0.03  -0.01  -0.02
  30   6     0.01   0.01  -0.10    -0.05   0.03   0.01     0.05   0.01  -0.18
  31   8    -0.16   0.20  -0.09    -0.06   0.15  -0.01    -0.15   0.22  -0.17
  32   7    -0.03   0.02  -0.01    -0.26   0.13   0.19     0.37  -0.20  -0.20
  33   1    -0.06   0.06   0.02    -0.10   0.08   0.07     0.10  -0.03  -0.04
  34   1     0.00  -0.01  -0.01    -0.04   0.01   0.04     0.08  -0.07  -0.04
  35   7     0.27  -0.22  -0.25     0.15  -0.19  -0.12     0.01  -0.05  -0.25
  36   1     0.09  -0.08  -0.06     0.02  -0.06  -0.02     0.05  -0.05  -0.07
  37   1     0.05  -0.04  -0.06     0.03  -0.05  -0.05    -0.02   0.01  -0.06
  38   6    -0.01  -0.04  -0.06     0.02  -0.02  -0.04    -0.05  -0.06   0.01
  39   8     0.00   0.03  -0.03     0.06  -0.06  -0.14    -0.02  -0.03  -0.02
  40   7    -0.04  -0.16  -0.22    -0.01  -0.02  -0.05    -0.11  -0.11  -0.04
  41   1    -0.02  -0.02  -0.04    -0.01   0.00  -0.02    -0.04  -0.01  -0.01
  42   1    -0.02  -0.04  -0.04    -0.01   0.00   0.01    -0.04  -0.03   0.01
  43   7     0.00  -0.03   0.04     0.03   0.02   0.06    -0.03  -0.08   0.11
  44   1    -0.00  -0.03  -0.01     0.00  -0.00   0.02    -0.01  -0.04   0.02
  45   1     0.01   0.00   0.02     0.02  -0.01   0.00     0.01  -0.02   0.03
  46   6    -0.01   0.06   0.04     0.03  -0.04  -0.04     0.07   0.02   0.16
  47   8    -0.02   0.11   0.02     0.10  -0.06  -0.05     0.10  -0.07   0.26
  48   7    -0.02   0.01   0.04     0.00  -0.02   0.00     0.09   0.15   0.20
  49   1    -0.01   0.00   0.00     0.01   0.00   0.01     0.03   0.04   0.08
  50   1     0.00  -0.00   0.01    -0.01  -0.00  -0.00     0.01   0.06   0.04
  51   7     0.02   0.08   0.08    -0.01  -0.07  -0.08     0.05   0.04   0.07
  52   1     0.01   0.01   0.03    -0.02  -0.02  -0.02     0.01   0.03   0.01
  53   1     0.00   0.03   0.03     0.00  -0.03  -0.03     0.01  -0.02   0.02
                     16                     17                     18
                        a                      a                      a 
 Frequencies --   102.3968               103.7050               112.6175
 Red. masses --    11.1129                11.8784                11.9290
 Frc consts  --     0.0000                 0.0000                 0.0000
 IR Inten    --     8.0704                 5.1679                19.2006
 Raman Activ --     0.0000                 0.0000                 0.0000
 Depolar     --     0.0000                 0.0000                 0.0000
 Atom AN      X      Y      Z        X      Y      Z        X      Y      Z
   1   8     0.12   0.19   0.06     0.23  -0.15   0.00    -0.27   0.18  -0.01
   2   6     0.02  -0.01   0.02    -0.04   0.05   0.06     0.03  -0.04  -0.07
   3   1    -0.00  -0.02   0.03    -0.06   0.03  -0.04     0.03  -0.04   0.04
   4   1     0.00  -0.01   0.02    -0.03   0.05   0.08     0.02  -0.02  -0.08
   5   6     0.01  -0.07  -0.20    -0.03   0.06   0.12     0.14  -0.13  -0.16
   6   1    -0.01   0.01  -0.12     0.03   0.01   0.08     0.04  -0.01  -0.08
   7   1     0.02  -0.09  -0.07    -0.04   0.05   0.05     0.07  -0.07  -0.06
   8   7    -0.00  -0.01  -0.15     0.01  -0.08  -0.06     0.15  -0.18  -0.07
   9   6    -0.08   0.29  -0.11     0.17  -0.07  -0.09     0.05  -0.34  -0.05
  10   1    -0.03   0.12  -0.09     0.08  -0.01  -0.02    -0.01  -0.13   0.01
  11   1    -0.03   0.09  -0.03     0.05  -0.04  -0.06     0.01  -0.08   0.01
  12   1    -0.03   0.11   0.02     0.04  -0.01  -0.01     0.02  -0.12  -0.05
  13   6     0.01  -0.10  -0.35     0.06  -0.12  -0.12     0.15  -0.09   0.12
  14   1     0.01  -0.01  -0.14     0.04  -0.02  -0.03     0.04  -0.04   0.06
  15   1     0.01  -0.08  -0.10     0.00  -0.04  -0.03     0.06   0.01   0.03
  16   1     0.00  -0.02  -0.11     0.03  -0.05  -0.05     0.04  -0.03   0.05
  17   6     0.06  -0.14   0.14    -0.20  -0.16  -0.13     0.18  -0.07  -0.18
  18   1     0.04  -0.11   0.04    -0.11  -0.05  -0.02     0.08   0.03  -0.06
  19   1     0.00  -0.01   0.09    -0.06  -0.03  -0.02     0.03  -0.04  -0.11
  20   1     0.01  -0.04   0.06    -0.05  -0.07  -0.09     0.05  -0.03  -0.01
  21   1     0.02   0.05   0.00     0.06  -0.06   0.04    -0.06   0.08  -0.04
  22   6     0.02  -0.09   0.04     0.08  -0.02   0.02    -0.01   0.06  -0.03
  23   8    -0.03  -0.13   0.07     0.15  -0.01   0.02    -0.10   0.09  -0.08
  24   7     0.07  -0.04   0.06     0.07  -0.03   0.01     0.03   0.03  -0.03
  25   1     0.01  -0.00   0.03     0.04  -0.01   0.01    -0.00   0.01  -0.02
  26   1     0.03  -0.00   0.01     0.02  -0.01   0.01     0.02   0.00   0.00
  27   7     0.04  -0.11  -0.02     0.03  -0.01   0.03     0.05   0.07   0.00
  28   1     0.02  -0.02  -0.01    -0.00  -0.00   0.01     0.03   0.01   0.01
  29   1    -0.00  -0.04  -0.01     0.01   0.00   0.01     0.00   0.02  -0.00
  30   6    -0.05   0.05  -0.07    -0.15   0.13  -0.05    -0.07   0.14  -0.00
  31   8    -0.05   0.18  -0.12     0.02   0.11  -0.14    -0.08   0.14  -0.00
  32   7    -0.21   0.12   0.12    -0.07   0.08   0.01    -0.06   0.16  -0.01
  33   1    -0.08   0.08   0.06     0.05  -0.01   0.00    -0.00   0.03  -0.01
  34   1    -0.04   0.00   0.03    -0.03   0.00   0.01    -0.00   0.02  -0.01
  35   7     0.11  -0.16  -0.21    -0.50   0.27  -0.01    -0.11   0.20   0.02
  36   1     0.03  -0.06  -0.05    -0.15   0.06   0.00    -0.02   0.05   0.00
  37   1     0.02  -0.04  -0.06    -0.10   0.04  -0.04    -0.02   0.05   0.01
  38   6    -0.04  -0.03   0.08     0.01  -0.04  -0.01    -0.08  -0.00   0.11
  39   8    -0.08  -0.01   0.18     0.02  -0.18  -0.16    -0.12   0.12   0.31
  40   7    -0.01  -0.04   0.09     0.01   0.03   0.09    -0.05  -0.06   0.04
  41   1    -0.00  -0.01   0.02     0.01  -0.00   0.00    -0.01  -0.01   0.02
  42   1     0.00  -0.02  -0.00     0.00   0.03   0.05    -0.01  -0.04  -0.03
  43   7    -0.05  -0.07  -0.01    -0.02   0.04   0.07    -0.06  -0.10  -0.02
  44   1    -0.01  -0.01  -0.00    -0.00   0.03   0.05    -0.02  -0.04  -0.03
  45   1    -0.02  -0.01   0.01    -0.00  -0.01  -0.00    -0.02  -0.00   0.02
  46   6     0.03   0.04   0.09     0.04   0.02   0.08     0.05  -0.04   0.04
  47   8     0.05   0.01   0.13     0.06  -0.01   0.11     0.09  -0.10   0.08
  48   7     0.03   0.09   0.12     0.04   0.08   0.10     0.05   0.05   0.07
  49   1     0.01   0.02   0.04     0.01   0.02   0.05     0.01   0.01   0.04
  50   1     0.00   0.03   0.03    -0.01   0.02   0.03    -0.01   0.02   0.02
  51   7     0.03   0.05   0.06     0.02   0.02   0.05     0.01  -0.05  -0.04
  52   1     0.00   0.02   0.01     0.01   0.02  -0.00    -0.01   0.00  -0.02
  53   1     0.01   0.01   0.02     0.02   0.01   0.00     0.01  -0.03  -0.02
                     19                     20                     21
                        a                      a                      a 
 Frequencies --   119.6618               143.7406               150.3968
 Red. masses --    12.9739                13.1867                12.8150
 Frc consts  --     0.0000                 0.0000                 0.0000
 IR Inten    --     6.7247                 3.3908                13.0160
 Raman Activ --     0.0000                 0.0000                 0.0000
 Depolar     --     0.0000                 0.0000                 0.0000
 Atom AN      X      Y      Z        X      Y      Z        X      Y      Z
   1   8    -0.03   0.16   0.09     0.15   0.13   0.07    -0.24   0.12   0.08
   2   6    -0.01   0.03   0.05     0.02   0.13   0.08    -0.06  -0.01   0.03
   3   1    -0.01  -0.01   0.04    -0.02   0.03   0.01     0.00  -0.02   0.05
   4   1    -0.00   0.01   0.01    -0.00   0.06   0.05    -0.01  -0.02  -0.03
   5   6     0.02  -0.02  -0.05     0.06   0.09   0.01    -0.04  -0.04  -0.04
   6   1     0.02   0.01  -0.03     0.03   0.04  -0.01    -0.02   0.00  -0.04
   7   1     0.01  -0.02  -0.02     0.02   0.01   0.00     0.00  -0.04  -0.02
   8   7     0.03  -0.06  -0.06     0.06   0.03   0.01    -0.06   0.03   0.03
   9   6     0.02   0.02  -0.06     0.03  -0.01   0.02    -0.09  -0.02   0.03
  10   1    -0.00   0.01  -0.03    -0.01  -0.02   0.01    -0.05  -0.02   0.02
  11   1     0.01   0.01  -0.02     0.00   0.02   0.01    -0.03   0.01   0.02
  12   1     0.01   0.01  -0.00     0.02  -0.01  -0.01    -0.01  -0.02  -0.01
  13   6     0.05  -0.08  -0.11     0.09   0.01   0.01    -0.09   0.07   0.09
  14   1     0.02  -0.02  -0.03     0.03   0.01  -0.00    -0.03   0.01   0.03
  15   1     0.01  -0.03  -0.03     0.03   0.00   0.00    -0.02   0.03   0.03
  16   1     0.02  -0.03  -0.04     0.02  -0.00   0.01    -0.03   0.02   0.03
  17   6    -0.00  -0.11  -0.01     0.02   0.01   0.01     0.04   0.10  -0.01
  18   1     0.00  -0.04  -0.00     0.02   0.02  -0.00     0.04   0.05  -0.01
  19   1    -0.01  -0.02   0.01    -0.02   0.00  -0.01     0.01   0.02  -0.03
  20   1     0.00  -0.04  -0.00     0.01  -0.01   0.02     0.01   0.04   0.03
  21   1     0.01   0.07  -0.00     0.05   0.03   0.03    -0.03   0.06  -0.00
  22   6     0.02  -0.02  -0.00    -0.20   0.06   0.06     0.10  -0.02  -0.04
  23   8     0.05  -0.01  -0.01    -0.54  -0.06   0.15     0.21   0.03  -0.09
  24   7     0.03  -0.04  -0.00    -0.11   0.26   0.11     0.06  -0.11  -0.06
  25   1     0.01  -0.01  -0.00    -0.10   0.09   0.05     0.05  -0.04  -0.02
  26   1     0.01  -0.01   0.00     0.02   0.10   0.02     0.01  -0.04  -0.01
  27   7    -0.02  -0.02   0.01     0.09  -0.01  -0.13    -0.00   0.01   0.05
  28   1    -0.01  -0.01   0.00     0.10   0.02  -0.06    -0.03  -0.01   0.03
  29   1    -0.00   0.00   0.00     0.01  -0.07  -0.06     0.00   0.03   0.02
  30   6    -0.03  -0.03   0.08    -0.08  -0.08  -0.00    -0.16  -0.17  -0.11
  31   8    -0.13  -0.18   0.18    -0.04  -0.00  -0.05    -0.01  -0.17  -0.22
  32   7    -0.05   0.01  -0.07    -0.05  -0.12   0.09    -0.22  -0.18   0.00
  33   1    -0.02  -0.02  -0.04     0.01  -0.03   0.03    -0.03  -0.04   0.01
  34   1     0.01   0.02  -0.03    -0.01  -0.06   0.02    -0.08  -0.05   0.01
  35   7     0.09   0.08   0.19    -0.20  -0.11  -0.05    -0.31  -0.19  -0.16
  36   1     0.03   0.05   0.04    -0.06  -0.05  -0.01    -0.11  -0.06  -0.03
  37   1     0.03   0.02   0.07    -0.05  -0.04  -0.04    -0.07  -0.06  -0.07
  38   6    -0.04   0.06  -0.13     0.11   0.04  -0.03     0.19   0.10   0.02
  39   8     0.17   0.30  -0.39     0.15   0.06  -0.07     0.24   0.19   0.08
  40   7    -0.42   0.04  -0.20     0.06   0.06  -0.01     0.15   0.08   0.01
  41   1    -0.14   0.05  -0.06     0.01   0.02  -0.02     0.04   0.01  -0.03
  42   1    -0.15  -0.00   0.02     0.01   0.01   0.00     0.04  -0.02  -0.03
  43   7     0.13  -0.17   0.20     0.15   0.01   0.04     0.27  -0.01   0.02
  44   1    -0.01  -0.12   0.08     0.03  -0.01   0.01     0.06  -0.03   0.00
  45   1     0.13  -0.07   0.04     0.06  -0.01   0.00     0.10   0.01   0.02
  46   6     0.02   0.01   0.07     0.06  -0.12  -0.06     0.00   0.05   0.06
  47   8     0.03  -0.02   0.10     0.15  -0.17  -0.06    -0.01   0.05   0.07
  48   7     0.03   0.07   0.09     0.03  -0.05  -0.01     0.02   0.07   0.05
  49   1     0.01   0.01   0.04     0.02  -0.01   0.01    -0.02  -0.00   0.04
  50   1    -0.00   0.02   0.02    -0.01  -0.00  -0.01    -0.02  -0.00   0.04
  51   7     0.02   0.02   0.04    -0.02  -0.16  -0.18     0.01   0.05   0.10
  52   1     0.01   0.02  -0.00    -0.03  -0.03  -0.05     0.04   0.04  -0.00
  53   1     0.01   0.00   0.00     0.00  -0.07  -0.07     0.03   0.04   0.01
                     22                     23                     24
                        a                      a                      a 
 Frequencies --   160.1155               164.4125               166.6043
 Red. masses --    10.4032                12.9290                 6.9381
 Frc consts  --     0.0000                 0.0000                 0.0000
 IR Inten    --     2.4860                10.4278                 0.5243
 Raman Activ --     0.0000                 0.0000                 0.0000
 Depolar     --     0.0000                 0.0000                 0.0000
 Atom AN      X      Y      Z        X      Y      Z        X      Y      Z
   1   8    -0.05   0.08   0.03     0.07   0.11   0.02    -0.03   0.01   0.01
   2   6    -0.06  -0.04   0.01     0.00   0.07   0.02    -0.03  -0.04  -0.00
   3   1    -0.03  -0.03   0.02    -0.02   0.01   0.00    -0.01  -0.02   0.01
   4   1    -0.02  -0.01   0.01    -0.00   0.04   0.02    -0.01  -0.01  -0.00
   5   6    -0.03  -0.09  -0.11     0.07   0.02  -0.05    -0.04  -0.05  -0.05
   6   1    -0.02  -0.01  -0.06     0.03   0.02  -0.03    -0.02  -0.01  -0.03
   7   1     0.00  -0.06  -0.04     0.03  -0.01  -0.02    -0.01  -0.03  -0.02
   8   7    -0.04  -0.07  -0.07     0.07  -0.05  -0.01    -0.04  -0.03  -0.04
   9   6    -0.04   0.00  -0.06     0.03  -0.05  -0.00    -0.03   0.02  -0.04
  10   1    -0.04  -0.01  -0.02     0.01  -0.01  -0.00    -0.02  -0.00  -0.01
  11   1    -0.02   0.04  -0.02     0.01  -0.02   0.00    -0.01   0.03  -0.01
  12   1     0.02  -0.01  -0.01     0.00  -0.01  -0.00     0.01   0.00  -0.01
  13   6    -0.02  -0.07  -0.06     0.10  -0.06  -0.01    -0.03  -0.03  -0.03
  14   1     0.00  -0.02  -0.01     0.04  -0.01  -0.00    -0.01  -0.01  -0.01
  15   1    -0.01  -0.01  -0.02     0.02  -0.02  -0.00    -0.01  -0.00  -0.01
  16   1    -0.00  -0.03  -0.02     0.03  -0.02  -0.01    -0.01  -0.01  -0.01
  17   6    -0.03  -0.09  -0.03     0.04  -0.09   0.03    -0.03  -0.04  -0.02
  18   1     0.01  -0.02  -0.01     0.03  -0.02   0.00    -0.00  -0.01  -0.01
  19   1    -0.03  -0.02  -0.01    -0.01  -0.02   0.00    -0.02  -0.01  -0.01
  20   1    -0.01  -0.04   0.01     0.01  -0.04   0.02    -0.01  -0.02   0.00
  21   1    -0.00   0.03  -0.00     0.02   0.03   0.00    -0.01   0.01  -0.00
  22   6     0.08   0.10   0.07    -0.04  -0.09  -0.08     0.05   0.09   0.08
  23   8     0.39   0.04   0.20    -0.22  -0.00  -0.22     0.30   0.02   0.21
  24   7    -0.17   0.17   0.01     0.18  -0.23  -0.03    -0.16   0.19   0.03
  25   1    -0.00   0.04   0.02     0.01  -0.06  -0.04    -0.00   0.05   0.03
  26   1    -0.05   0.05  -0.00     0.02  -0.07  -0.01    -0.04   0.06   0.00
  27   7    -0.04   0.10  -0.01    -0.00  -0.09   0.07    -0.08   0.10  -0.04
  28   1    -0.08   0.05  -0.02     0.00  -0.04   0.03    -0.03   0.04  -0.02
  29   1     0.03   0.03   0.02    -0.06   0.01  -0.00     0.03   0.01   0.01
  30   6    -0.04   0.01   0.10    -0.05   0.03   0.13     0.01   0.02   0.04
  31   8    -0.19   0.25   0.11    -0.23   0.31   0.15    -0.06   0.11   0.05
  32   7     0.21  -0.17   0.14     0.28  -0.21   0.16     0.08  -0.03   0.06
  33   1     0.05  -0.02   0.05     0.04  -0.02   0.06     0.03  -0.01   0.02
  34   1     0.05  -0.06   0.04     0.04  -0.05   0.06     0.03  -0.02   0.01
  35   7    -0.11  -0.07   0.02    -0.12  -0.08   0.04     0.03  -0.03   0.01
  36   1     0.02  -0.07   0.01    -0.01  -0.06   0.02     0.01  -0.02   0.00
  37   1    -0.04  -0.01  -0.01    -0.05  -0.00  -0.01    -0.00  -0.00   0.00
  38   6     0.05   0.02  -0.00     0.05   0.02  -0.01     0.00   0.00   0.00
  39   8     0.06   0.03   0.00     0.06  -0.01  -0.03     0.00   0.00   0.01
  40   7     0.05   0.01  -0.01     0.06   0.01  -0.01     0.00  -0.01  -0.01
  41   1     0.01   0.02   0.02     0.02   0.02   0.02     0.00   0.01   0.01
  42   1     0.01   0.01   0.01     0.01   0.02   0.02     0.00   0.01   0.01
  43   7     0.07   0.01   0.02     0.06   0.03   0.02     0.00  -0.01  -0.00
  44   1     0.02  -0.01  -0.01     0.02  -0.00  -0.00     0.00  -0.00   0.00
  45   1     0.02  -0.01  -0.00     0.02  -0.01  -0.01     0.00  -0.00   0.00
  46   6    -0.02  -0.04  -0.07    -0.12   0.11  -0.05     0.02  -0.06  -0.05
  47   8    -0.01  -0.02  -0.10    -0.23   0.21  -0.11     0.05  -0.09  -0.06
  48   7    -0.12  -0.16  -0.01    -0.04  -0.04  -0.19     0.15   0.07  -0.15
  49   1     0.14   0.09  -0.15    -0.11  -0.08  -0.03    -0.21  -0.18   0.17
  50   1     0.17   0.11  -0.15    -0.06  -0.11   0.03    -0.25  -0.21   0.19
  51   7     0.07   0.03  -0.17    -0.06   0.11   0.17    -0.17  -0.21   0.03
  52   1    -0.19  -0.16   0.14     0.11   0.07  -0.02     0.25   0.20  -0.26
  53   1    -0.16  -0.14   0.10     0.05   0.13   0.00     0.23   0.14  -0.23
                     25                     26                     27
                        a                      a                      a 
 Frequencies --   193.4075               196.4497               219.1681
 Red. masses --     8.0745                13.0527                13.1501
 Frc consts  --     0.0000                 0.0000                 0.0000
 IR Inten    --     3.3522                33.6410                21.6873
 Raman Activ --     0.0000                 0.0000                 0.0000
 Depolar     --     0.0000                 0.0000                 0.0000
 Atom AN      X      Y      Z        X      Y      Z        X      Y      Z
   1   8    -0.46  -0.13  -0.01    -0.13   0.17   0.14     0.34  -0.27  -0.23
   2   6     0.15  -0.12  -0.06    -0.06   0.05   0.10     0.04  -0.08  -0.15
   3   1     0.16  -0.01   0.04    -0.02  -0.00   0.05    -0.01   0.00  -0.10
   4   1     0.07  -0.10  -0.15    -0.01   0.02   0.02    -0.00  -0.02   0.01
   5   6     0.05   0.02   0.21    -0.01  -0.02  -0.05    -0.03  -0.00   0.01
   6   1     0.03  -0.05   0.15    -0.01   0.02  -0.05    -0.01  -0.02   0.04
   7   1    -0.03   0.09   0.08     0.01  -0.05  -0.02    -0.01   0.04   0.01
   8   7     0.09   0.06  -0.02    -0.02   0.02   0.00    -0.04  -0.03   0.04
   9   6     0.21   0.15  -0.06    -0.07  -0.02   0.01     0.01  -0.02   0.03
  10   1     0.23   0.18  -0.05    -0.05  -0.03   0.01    -0.06  -0.06   0.03
  11   1     0.09  -0.15  -0.05    -0.03   0.02   0.02    -0.01   0.08  -0.00
  12   1    -0.12   0.12   0.05    -0.00  -0.02  -0.01     0.10  -0.04  -0.01
  13   6     0.00   0.01  -0.20    -0.02   0.04   0.05    -0.05  -0.03   0.04
  14   1    -0.03   0.01  -0.11     0.01   0.01   0.04     0.00  -0.01   0.04
  15   1     0.03  -0.06  -0.06    -0.02   0.03   0.02    -0.04   0.00   0.01
  16   1    -0.01   0.04  -0.03     0.00  -0.00  -0.00    -0.00  -0.02  -0.02
  17   6     0.00   0.00  -0.04     0.05   0.07  -0.01    -0.07  -0.05   0.04
  18   1    -0.18  -0.14   0.04     0.07   0.06  -0.02    -0.01  -0.01   0.01
  19   1     0.17   0.03   0.13    -0.02   0.00  -0.05    -0.03  -0.01   0.01
  20   1    -0.00   0.10  -0.21     0.01   0.00   0.06    -0.02  -0.02   0.02
  21   1    -0.11  -0.00  -0.04    -0.03   0.06   0.02     0.09  -0.10  -0.02
  22   6    -0.03  -0.01   0.02     0.00   0.01  -0.01    -0.00   0.00  -0.00
  23   8    -0.08  -0.03   0.05     0.01   0.01  -0.01     0.01   0.00  -0.00
  24   7    -0.01   0.04   0.04     0.01  -0.00  -0.00     0.01  -0.01   0.00
  25   1    -0.02   0.02   0.01    -0.01   0.00  -0.01    -0.01   0.00  -0.01
  26   1    -0.00   0.02   0.00    -0.01  -0.00  -0.01    -0.01  -0.00  -0.01
  27   7     0.01  -0.02  -0.02     0.00   0.01   0.01     0.00  -0.00   0.00
  28   1     0.01   0.00  -0.01    -0.01   0.00   0.00    -0.02   0.00  -0.00
  29   1     0.00  -0.02  -0.01    -0.01   0.01   0.00    -0.01   0.00  -0.00
  30   6     0.01   0.01   0.03     0.22   0.04  -0.04     0.05  -0.01  -0.00
  31   8     0.07   0.07  -0.01     0.57   0.09  -0.19     0.19   0.05  -0.07
  32   7     0.08  -0.04   0.11     0.11   0.07   0.29     0.05  -0.03   0.16
  33   1     0.04  -0.01   0.04     0.11   0.02   0.10     0.05  -0.00   0.06
  34   1     0.01  -0.02   0.04    -0.01  -0.01   0.11    -0.01  -0.03   0.06
  35   7    -0.10  -0.01  -0.00    -0.09  -0.02  -0.11    -0.08  -0.06  -0.05
  36   1    -0.04  -0.01   0.01    -0.10  -0.01  -0.00    -0.06  -0.01  -0.00
  37   1    -0.02  -0.01  -0.02    -0.02  -0.00  -0.09    -0.05   0.01  -0.04
  38   6     0.00   0.03   0.03    -0.11  -0.13  -0.02    -0.08   0.17   0.09
  39   8     0.02   0.12   0.08    -0.03  -0.13  -0.20    -0.06   0.50   0.30
  40   7    -0.04  -0.01  -0.03    -0.20  -0.08   0.03    -0.23   0.04  -0.10
  41   1    -0.02   0.01  -0.00    -0.06  -0.02  -0.00    -0.08   0.03  -0.05
  42   1    -0.01  -0.02  -0.02    -0.06   0.01   0.06    -0.07  -0.09  -0.12
  43   7     0.05  -0.07   0.04    -0.05  -0.16   0.18     0.03  -0.14  -0.02
  44   1     0.00  -0.06  -0.01    -0.03  -0.10   0.03    -0.02  -0.04   0.05
  45   1     0.03  -0.02   0.01     0.03  -0.09  -0.01     0.04   0.06   0.12
  46   6    -0.01  -0.00  -0.02    -0.03   0.01  -0.05    -0.02   0.01  -0.02
  47   8    -0.02   0.01  -0.04    -0.05   0.04  -0.07    -0.03   0.02  -0.03
  48   7    -0.01  -0.03  -0.04    -0.03  -0.06  -0.08    -0.01  -0.03  -0.04
  49   1    -0.01  -0.01  -0.02    -0.01  -0.01  -0.04    -0.01  -0.01  -0.02
  50   1     0.00  -0.01  -0.01     0.01  -0.02  -0.02     0.00  -0.01  -0.01
  51   7    -0.01  -0.01  -0.02    -0.02   0.01  -0.01    -0.01   0.01  -0.00
  52   1    -0.00  -0.00  -0.00    -0.00  -0.01   0.00     0.00  -0.00   0.00
  53   1    -0.00   0.00  -0.00    -0.01   0.01  -0.00    -0.00   0.01   0.00
                     28                     29                     30
                        a                      a                      a 
 Frequencies --   253.6808               263.6730               297.2651
 Red. masses --     6.9292                 2.4150                 5.1862
 Frc consts  --     0.0000                 0.0000                 0.0000
 IR Inten    --     7.3683               131.3395                11.7982
 Raman Activ --     0.0000                 0.0000                 0.0000
 Depolar     --     0.0000                 0.0000                 0.0000
 Atom AN      X      Y      Z        X      Y      Z        X      Y      Z
   1   8     0.29   0.31  -0.01     0.05  -0.03  -0.05     0.07  -0.30   0.12
   2   6     0.18  -0.07  -0.08     0.03  -0.02  -0.04    -0.03  -0.04   0.14
   3   1     0.13  -0.02   0.03     0.02   0.00  -0.02    -0.06  -0.01   0.00
   4   1     0.05  -0.13  -0.04     0.01  -0.01  -0.01    -0.02   0.03   0.09
   5   6    -0.08   0.01  -0.17    -0.01   0.01   0.01    -0.02  -0.04  -0.02
   6   1    -0.06  -0.00  -0.07    -0.00  -0.00   0.01    -0.00   0.00  -0.03
   7   1     0.01  -0.01  -0.06    -0.00   0.02   0.00    -0.03  -0.06  -0.01
   8   7    -0.13  -0.01   0.03    -0.01  -0.01   0.02    -0.00   0.05  -0.12
   9   6    -0.23  -0.12   0.05     0.03  -0.01   0.01    -0.25   0.04  -0.07
  10   1     0.03   0.05  -0.01    -0.03  -0.04   0.02     0.14   0.21  -0.11
  11   1    -0.05  -0.17   0.03     0.00   0.06  -0.00    -0.03  -0.30   0.03
  12   1    -0.20   0.01   0.03     0.07  -0.02  -0.01    -0.38   0.13   0.03
  13   6     0.09   0.00   0.24    -0.03  -0.02  -0.00     0.25   0.03   0.02
  14   1    -0.04  -0.01  -0.01    -0.00  -0.00   0.01    -0.02   0.01  -0.14
  15   1     0.17  -0.00   0.06    -0.03  -0.00   0.00     0.29  -0.03  -0.01
  16   1    -0.01   0.01   0.21    -0.00  -0.01  -0.02     0.02   0.03   0.21
  17   6    -0.23  -0.05  -0.04    -0.03  -0.03   0.02     0.02   0.09  -0.13
  18   1    -0.32  -0.20   0.07    -0.02  -0.02   0.01     0.16   0.17  -0.09
  19   1     0.17   0.02   0.18     0.00  -0.00   0.02    -0.15  -0.01  -0.18
  20   1    -0.07   0.12  -0.30    -0.01  -0.00  -0.01     0.01  -0.07   0.14
  21   1     0.02   0.08  -0.04     0.04   0.01  -0.01     0.02  -0.10   0.06
  22   6     0.01   0.01  -0.01     0.00  -0.00   0.00     0.01   0.01  -0.01
  23   8     0.02   0.01  -0.01     0.00  -0.00  -0.00     0.01   0.01  -0.00
  24   7     0.00  -0.00  -0.02     0.00  -0.00   0.00     0.00   0.00  -0.01
  25   1     0.00  -0.00  -0.01    -0.00  -0.00   0.00    -0.00   0.00  -0.01
  26   1    -0.00  -0.00  -0.00    -0.00  -0.00  -0.00    -0.00  -0.00  -0.00
  27   7     0.00   0.02   0.00     0.00  -0.00   0.00     0.00   0.02   0.01
  28   1    -0.00   0.00   0.00    -0.00  -0.00  -0.00    -0.00   0.00   0.01
  29   1     0.01   0.01   0.00    -0.00   0.00  -0.00     0.01   0.01   0.01
  30   6     0.02  -0.01  -0.01    -0.00  -0.01  -0.01    -0.00   0.00   0.01
  31   8     0.04  -0.02  -0.02     0.00  -0.02  -0.02    -0.00  -0.00   0.01
  32   7    -0.00   0.00   0.01    -0.02   0.01  -0.02     0.01  -0.01   0.01
  33   1     0.01  -0.00   0.00    -0.01  -0.00  -0.01     0.01  -0.00   0.00
  34   1    -0.00  -0.00   0.00    -0.01   0.00  -0.01     0.00  -0.00   0.00
  35   7    -0.01   0.00  -0.00    -0.00  -0.01  -0.02    -0.00   0.00   0.01
  36   1    -0.01  -0.00  -0.00    -0.01   0.00  -0.00    -0.01   0.00   0.00
  37   1     0.00  -0.00  -0.01    -0.01   0.01   0.00     0.00  -0.00  -0.00
  38   6     0.00  -0.01  -0.00    -0.00   0.00   0.00    -0.00   0.04   0.01
  39   8     0.01  -0.02  -0.02    -0.02   0.06   0.10    -0.01   0.09   0.06
  40   7     0.01  -0.01   0.01    -0.02   0.02  -0.02    -0.05   0.02  -0.03
  41   1     0.00  -0.00   0.01    -0.02   0.06   0.09    -0.02   0.02   0.00
  42   1     0.00   0.01   0.01    -0.02   0.17   0.23    -0.02   0.02   0.02
  43   7     0.01  -0.02   0.01     0.01   0.19   0.19     0.01   0.02   0.01
  44   1    -0.00  -0.00   0.01     0.04  -0.43  -0.61     0.01  -0.06  -0.08
  45   1     0.01  -0.01   0.00     0.01  -0.29  -0.36     0.00  -0.02  -0.02
  46   6     0.00   0.00  -0.00    -0.00  -0.00   0.00    -0.00   0.00  -0.00
  47   8     0.00   0.00  -0.00    -0.00  -0.00   0.00    -0.00   0.00  -0.00
  48   7    -0.00  -0.00   0.00     0.01   0.01  -0.00    -0.00  -0.00  -0.00
  49   1     0.00   0.00  -0.00    -0.01  -0.01   0.01    -0.00  -0.00  -0.00
  50   1     0.00   0.00  -0.00    -0.01  -0.01   0.01     0.00  -0.00  -0.00
  51   7    -0.00  -0.00   0.00     0.01   0.00  -0.00    -0.00   0.00  -0.00
  52   1     0.00   0.00  -0.00    -0.00  -0.00   0.01    -0.00   0.00  -0.00
  53   1     0.00   0.00  -0.00    -0.00  -0.00   0.00    -0.00  -0.00  -0.00
                     31                     32                     33
                        a                      a                      a 
 Frequencies --   311.6462               326.7491               338.1175
 Red. masses --     6.0757                 5.8051                 3.5993
 Frc consts  --     0.0000                 0.0000                 0.0000
 IR Inten    --     0.9854                 2.4158               510.6613
 Raman Activ --     0.0000                 0.0000                 0.0000
 Depolar     --     0.0000                 0.0000                 0.0000
 Atom AN      X      Y      Z        X      Y      Z        X      Y      Z
   1   8    -0.10   0.06   0.06     0.13   0.29  -0.13    -0.01  -0.01   0.00
   2   6     0.38  -0.18  -0.04     0.03  -0.08  -0.17     0.00   0.00   0.01
   3   1     0.27  -0.02   0.07     0.03  -0.03  -0.01     0.00   0.00   0.00
   4   1     0.13  -0.21  -0.15     0.01  -0.06  -0.05     0.00   0.00   0.00
   5   6    -0.03   0.08   0.08    -0.03  -0.07  -0.05     0.00   0.01   0.00
   6   1    -0.04  -0.02   0.07    -0.03  -0.05   0.01     0.00   0.00   0.00
   7   1    -0.04   0.06   0.04     0.02   0.02  -0.01    -0.00   0.00   0.00
   8   7    -0.04   0.11   0.01    -0.05  -0.06   0.08     0.00   0.00  -0.00
   9   6    -0.12   0.11   0.03     0.28  -0.01   0.00    -0.02  -0.00   0.00
  10   1    -0.14  -0.05   0.02     0.36   0.20  -0.02    -0.02  -0.01   0.00
  11   1    -0.05   0.15   0.03     0.14  -0.30  -0.10    -0.01   0.01   0.01
  12   1     0.07  -0.01  -0.02    -0.17   0.11   0.10     0.00  -0.01  -0.00
  13   6     0.26  -0.02  -0.02    -0.30   0.03   0.11     0.01  -0.00  -0.01
  14   1     0.20   0.04   0.08    -0.08  -0.02   0.11     0.01   0.00   0.00
  15   1    -0.03   0.04   0.00    -0.18   0.05   0.04    -0.00  -0.00  -0.00
  16   1     0.12  -0.13  -0.10    -0.07   0.03  -0.05     0.01  -0.01  -0.01
  17   6    -0.35  -0.04  -0.06    -0.08  -0.10   0.12     0.01   0.01  -0.01
  18   1     0.03   0.16  -0.06     0.16   0.11  -0.02    -0.01  -0.00   0.00
  19   1    -0.31  -0.03  -0.15    -0.22  -0.04  -0.09     0.01   0.00   0.00
  20   1    -0.08  -0.20   0.14    -0.01  -0.16   0.24     0.00   0.01  -0.01
  21   1    -0.07   0.03  -0.05     0.01   0.09  -0.07    -0.00  -0.00   0.00
  22   6    -0.01   0.00  -0.01    -0.01  -0.00   0.01    -0.01   0.00   0.00
  23   8    -0.02   0.00  -0.01    -0.01  -0.00   0.01    -0.00   0.01  -0.00
  24   7     0.01  -0.01  -0.01    -0.00   0.02   0.02     0.01  -0.00   0.01
  25   1    -0.00  -0.00  -0.00    -0.00   0.01   0.01    -0.01  -0.00  -0.01
  26   1     0.00  -0.00   0.00    -0.00   0.01   0.00    -0.03  -0.01  -0.00
  27   7     0.00  -0.00   0.00    -0.00   0.01   0.00     0.01  -0.00  -0.01
  28   1     0.00  -0.00   0.00     0.03  -0.01   0.00    -0.01   0.01  -0.01
  29   1    -0.01   0.00  -0.00     0.01  -0.01   0.01     0.00  -0.00  -0.01
  30   6    -0.01  -0.00  -0.01     0.00   0.00   0.00    -0.01  -0.00  -0.01
  31   8    -0.02   0.01  -0.01     0.02  -0.02  -0.00    -0.01   0.00  -0.01
  32   7    -0.00  -0.01  -0.00     0.00   0.00  -0.02     0.00  -0.01  -0.01
  33   1    -0.01   0.01   0.00     0.01  -0.01  -0.01     0.00   0.00   0.00
  34   1    -0.00  -0.00  -0.00     0.00   0.00  -0.01    -0.02  -0.00   0.01
  35   7     0.01  -0.01  -0.01    -0.02   0.01  -0.00     0.02   0.01   0.00
  36   1     0.01  -0.00  -0.01    -0.02  -0.00   0.00    -0.00   0.01  -0.00
  37   1    -0.00   0.00   0.01     0.01  -0.02  -0.02     0.00   0.00   0.01
  38   6     0.00  -0.01  -0.00    -0.00  -0.00   0.00     0.00   0.00   0.01
  39   8     0.01  -0.03  -0.01    -0.00  -0.01  -0.00    -0.00   0.00   0.01
  40   7     0.03  -0.01   0.01     0.02  -0.01   0.00     0.00  -0.01  -0.01
  41   1     0.01  -0.01  -0.00     0.01  -0.00   0.01    -0.00   0.00   0.01
  42   1     0.01  -0.01  -0.02     0.01   0.01   0.01    -0.00   0.02   0.03
  43   7     0.00  -0.01   0.00     0.00  -0.01   0.00     0.00   0.00  -0.01
  44   1    -0.00   0.01   0.02    -0.00  -0.01  -0.00     0.00  -0.01  -0.01
  45   1     0.00   0.00   0.01     0.01  -0.01  -0.00    -0.00  -0.00  -0.01
  46   6    -0.00   0.00   0.00     0.01   0.00  -0.00     0.09   0.07  -0.07
  47   8    -0.00   0.00  -0.00     0.00  -0.00  -0.00     0.00  -0.01   0.01
  48   7     0.00   0.00  -0.00    -0.01  -0.01   0.01    -0.21  -0.16   0.16
  49   1    -0.00  -0.00   0.00     0.01   0.01  -0.01     0.20   0.16  -0.15
  50   1    -0.00  -0.00   0.00     0.02   0.02  -0.01     0.38   0.32  -0.30
  51   7     0.00   0.00   0.00    -0.01  -0.01   0.00    -0.19  -0.15   0.16
  52   1    -0.00  -0.00   0.00     0.01   0.01  -0.01     0.35   0.28  -0.31
  53   1    -0.00  -0.00   0.00     0.01   0.00  -0.01     0.18   0.14  -0.15
                     34                     35                     36
                        a                      a                      a 
 Frequencies --   351.6544               376.3137               403.0155
 Red. masses --     2.7998                 7.2808                 3.3542
 Frc consts  --     0.0000                 0.0000                 0.0000
 IR Inten    --     3.1721                14.6616               254.7399
 Raman Activ --     0.0000                 0.0000                 0.0000
 Depolar     --     0.0000                 0.0000                 0.0000
 Atom AN      X      Y      Z        X      Y      Z        X      Y      Z
   1   8     0.02   0.17  -0.04    -0.12  -0.10   0.01     0.01   0.02  -0.01
   2   6     0.07  -0.01  -0.07    -0.12  -0.10   0.02    -0.01  -0.00  -0.00
   3   1     0.08   0.01   0.00    -0.13  -0.07   0.01    -0.01  -0.00  -0.00
   4   1     0.02  -0.07  -0.05    -0.03   0.07   0.02    -0.00  -0.00  -0.00
   5   6    -0.07   0.08   0.13     0.12  -0.23  -0.19    -0.00  -0.01   0.00
   6   1    -0.00  -0.03   0.12    -0.04  -0.02  -0.18     0.01  -0.01   0.02
   7   1    -0.05   0.12   0.06     0.12  -0.18  -0.09    -0.00   0.01   0.00
   8   7    -0.06  -0.00   0.03     0.10   0.06   0.05    -0.00  -0.02  -0.01
   9   6     0.08  -0.15   0.00     0.31   0.32   0.01    -0.01   0.02  -0.00
  10   1    -0.07  -0.15   0.07     0.02   0.05  -0.01     0.00   0.01  -0.01
  11   1     0.01   0.08  -0.01     0.08   0.22  -0.06    -0.00  -0.00  -0.00
  12   1     0.16  -0.11  -0.06     0.22   0.08   0.06    -0.01   0.01   0.01
  13   6    -0.12  -0.04  -0.16     0.08   0.17   0.25    -0.01  -0.01   0.01
  14   1    -0.32  -0.04  -0.42    -0.10   0.00  -0.02    -0.01  -0.00  -0.00
  15   1     0.39  -0.23  -0.08     0.21   0.05   0.06     0.01  -0.00   0.00
  16   1    -0.17   0.21   0.31    -0.03   0.12   0.24    -0.01   0.01   0.02
  17   6    -0.00   0.00   0.08    -0.27  -0.08  -0.08     0.01  -0.01  -0.02
  18   1     0.11   0.07  -0.01    -0.15   0.00  -0.00     0.00   0.00  -0.01
  19   1    -0.09  -0.02  -0.05    -0.14  -0.00  -0.01     0.00  -0.00  -0.01
  20   1    -0.00  -0.04   0.15    -0.06  -0.13  -0.09     0.00  -0.00  -0.00
  21   1    -0.01   0.05  -0.03     0.02   0.00   0.00     0.02   0.02   0.00
  22   6     0.01   0.00   0.01    -0.02  -0.00   0.02    -0.01  -0.00  -0.00
  23   8     0.02  -0.00   0.00    -0.06   0.01  -0.02     0.01  -0.00  -0.00
  24   7    -0.01  -0.01  -0.01    -0.01  -0.03   0.00     0.04   0.00   0.02
  25   1     0.02  -0.01   0.00     0.02  -0.01   0.00    -0.09   0.02  -0.03
  26   1     0.00  -0.01   0.00     0.01  -0.01   0.01    -0.02   0.01  -0.02
  27   7     0.01  -0.02  -0.01     0.03  -0.04  -0.03    -0.01  -0.00  -0.01
  28   1    -0.03   0.01  -0.01    -0.01   0.02  -0.03    -0.04  -0.00   0.00
  29   1    -0.01  -0.00  -0.01    -0.04  -0.02  -0.04     0.04   0.00   0.02
  30   6     0.02  -0.01  -0.00     0.00  -0.00   0.00    -0.03   0.03   0.02
  31   8     0.01   0.01   0.00     0.02  -0.01   0.00    -0.01   0.02   0.01
  32   7    -0.01   0.01   0.03     0.01  -0.00  -0.01     0.04  -0.02   0.00
  33   1     0.01  -0.00   0.01    -0.02   0.01  -0.00    -0.02   0.03   0.01
  34   1    -0.00  -0.01   0.01    -0.00   0.01   0.00    -0.01   0.01   0.01
  35   7    -0.00   0.02   0.02     0.00   0.00   0.01     0.06  -0.01   0.02
  36   1     0.00   0.01   0.00    -0.01   0.01   0.00    -0.10   0.07   0.02
  37   1    -0.00   0.01   0.01     0.00  -0.00  -0.00    -0.03   0.04   0.01
  38   6    -0.00  -0.01  -0.00    -0.00  -0.00  -0.00     0.01  -0.11  -0.14
  39   8     0.00  -0.02  -0.01    -0.00   0.00  -0.00     0.02  -0.04  -0.06
  40   7     0.02  -0.01   0.00    -0.01   0.00   0.00    -0.01   0.15   0.25
  41   1     0.01  -0.00   0.01    -0.00  -0.00   0.00     0.00  -0.03  -0.09
  42   1     0.01   0.01   0.00    -0.00   0.00  -0.00     0.05  -0.50  -0.68
  43   7    -0.00  -0.01  -0.00    -0.01   0.00  -0.00    -0.03   0.14   0.18
  44   1    -0.00   0.01   0.02    -0.00   0.01   0.01     0.01  -0.12  -0.18
  45   1     0.00  -0.00   0.00    -0.00  -0.00  -0.00    -0.01  -0.05  -0.06
  46   6    -0.00   0.00  -0.00    -0.00   0.00  -0.00     0.01  -0.00   0.00
  47   8    -0.00   0.00   0.00    -0.00  -0.00  -0.00     0.00  -0.00   0.00
  48   7    -0.00  -0.00  -0.00    -0.01   0.00   0.00     0.00  -0.00   0.01
  49   1     0.00   0.00  -0.00     0.00   0.00   0.00     0.00   0.00  -0.00
  50   1     0.01   0.00  -0.00     0.00   0.01  -0.00     0.01   0.01  -0.01
  51   7    -0.00   0.00   0.01     0.00   0.00   0.01    -0.01  -0.01  -0.00
  52   1     0.01   0.00  -0.00     0.01   0.00  -0.00     0.01   0.01  -0.01
  53   1     0.00   0.00  -0.00     0.00   0.01   0.00     0.00  -0.00  -0.01
                     37                     38                     39
                        a                      a                      a 
 Frequencies --   427.3824               433.1329               438.5625
 Red. masses --     3.8625                 8.5036                 2.7577
 Frc consts  --     0.0000                 0.0000                 0.0000
 IR Inten    --    26.3745                 4.3431               252.1646
 Raman Activ --     0.0000                 0.0000                 0.0000
 Depolar     --     0.0000                 0.0000                 0.0000
 Atom AN      X      Y      Z        X      Y      Z        X      Y      Z
   1   8    -0.03  -0.05   0.03     0.08   0.19  -0.10     0.00   0.00   0.00
   2   6     0.03   0.01   0.03    -0.14  -0.06  -0.10    -0.00  -0.00  -0.00
   3   1     0.01   0.00   0.01    -0.06  -0.03  -0.02     0.00  -0.00   0.00
   4   1     0.01   0.01   0.00    -0.05  -0.00  -0.00    -0.00  -0.00   0.00
   5   6     0.03   0.01  -0.05    -0.02  -0.10   0.12    -0.01   0.00  -0.00
   6   1    -0.01   0.02  -0.05     0.01  -0.06   0.09    -0.01   0.00  -0.00
   7   1     0.02  -0.03  -0.02     0.01   0.06   0.04    -0.00  -0.00  -0.00
   8   7     0.02   0.07  -0.03    -0.01  -0.21   0.23    -0.01   0.01   0.00
   9   6     0.03  -0.07  -0.03    -0.02   0.27   0.26     0.01  -0.00  -0.00
  10   1    -0.01  -0.05   0.02    -0.03   0.13  -0.03     0.01   0.01  -0.00
  11   1     0.01  -0.02  -0.01    -0.01   0.12   0.06     0.01  -0.01  -0.01
  12   1     0.02  -0.04  -0.04     0.01   0.12   0.17    -0.00   0.00   0.00
  13   6    -0.01   0.10  -0.02     0.03  -0.35   0.00     0.00   0.00   0.00
  14   1    -0.02   0.02  -0.02     0.03  -0.06  -0.06     0.01   0.00   0.01
  15   1     0.01   0.02  -0.01     0.02  -0.16   0.00    -0.01   0.00   0.00
  16   1    -0.01   0.04   0.01     0.01  -0.10  -0.01     0.00  -0.01  -0.01
  17   6    -0.05  -0.04   0.08     0.08   0.19  -0.33    -0.00   0.01   0.01
  18   1    -0.01  -0.04   0.02    -0.04   0.21  -0.09     0.00   0.00   0.00
  19   1    -0.04   0.01   0.06     0.10  -0.04  -0.24     0.00   0.00   0.00
  20   1    -0.01  -0.04   0.02     0.01   0.11  -0.13    -0.00   0.01   0.00
  21   1    -0.01  -0.02   0.01     0.03   0.06  -0.04    -0.00  -0.00  -0.00
  22   6    -0.03  -0.02  -0.03    -0.01  -0.01  -0.00    -0.02  -0.00  -0.09
  23   8     0.06  -0.03  -0.01     0.01   0.00  -0.01    -0.07  -0.10  -0.02
  24   7     0.25  -0.04   0.10     0.06  -0.02   0.03     0.13   0.12   0.01
  25   1    -0.57   0.11  -0.18    -0.15   0.03  -0.04    -0.18   0.08  -0.03
  26   1    -0.10   0.04  -0.10    -0.02   0.01  -0.02     0.03   0.06  -0.03
  27   7    -0.26   0.08  -0.10    -0.06   0.01  -0.03     0.17  -0.09   0.08
  28   1     0.10  -0.10   0.08     0.02  -0.02   0.01    -0.79   0.10  -0.03
  29   1     0.42  -0.06   0.21     0.09  -0.02   0.04     0.08   0.18   0.10
  30   6    -0.02   0.03   0.00    -0.02   0.01  -0.01    -0.01  -0.01  -0.01
  31   8    -0.03   0.02   0.02    -0.02   0.01  -0.01     0.03  -0.00  -0.03
  32   7    -0.00   0.01  -0.02     0.00  -0.01   0.01     0.07  -0.09  -0.03
  33   1     0.08  -0.06  -0.02     0.01  -0.01   0.00    -0.21   0.16   0.04
  34   1    -0.00   0.00  -0.00    -0.00  -0.01   0.00    -0.08   0.07   0.04
  35   7     0.07  -0.08  -0.01     0.03  -0.02   0.00    -0.02   0.05   0.03
  36   1    -0.24   0.11   0.04    -0.06   0.04   0.01     0.04  -0.01  -0.00
  37   1    -0.03   0.02  -0.03    -0.01   0.01   0.01     0.03  -0.02   0.01
  38   6     0.01   0.01   0.02    -0.01   0.00   0.01     0.00  -0.00   0.01
  39   8     0.01  -0.00   0.01    -0.00  -0.00  -0.00     0.01   0.00   0.00
  40   7     0.00  -0.02  -0.03     0.02  -0.01  -0.01    -0.01  -0.02  -0.01
  41   1    -0.00   0.00   0.00     0.01  -0.01   0.00    -0.00  -0.00  -0.00
  42   1    -0.01   0.06   0.09     0.01   0.04   0.05    -0.01   0.03   0.05
  43   7     0.01  -0.01  -0.03    -0.00  -0.02  -0.01    -0.01   0.00  -0.02
  44   1     0.00   0.03   0.02    -0.00   0.01   0.02     0.00   0.02   0.01
  45   1    -0.01   0.01   0.01     0.01  -0.00  -0.00    -0.01   0.01   0.00
  46   6     0.02  -0.00   0.02     0.00  -0.00   0.00     0.03  -0.02   0.05
  47   8     0.00   0.01   0.01     0.00   0.00   0.00    -0.02   0.01   0.03
  48   7     0.02   0.01   0.01     0.01   0.00   0.00     0.03  -0.01   0.03
  49   1    -0.02  -0.01   0.02    -0.01  -0.01   0.01     0.05   0.03  -0.04
  50   1     0.03   0.02  -0.01     0.01   0.01  -0.00    -0.06  -0.06   0.07
  51   7    -0.01  -0.01  -0.01    -0.00  -0.00  -0.00    -0.01  -0.02  -0.07
  52   1    -0.05  -0.03   0.03    -0.02  -0.01   0.01     0.03   0.07  -0.09
  53   1     0.02   0.01  -0.03     0.01   0.00  -0.01    -0.05  -0.08   0.01
                     40                     41                     42
                        a                      a                      a 
 Frequencies --   454.3647               458.5981               464.4585
 Red. masses --     1.5848                 8.4087                 6.8254
 Frc consts  --     0.0000                 0.0000                 0.0000
 IR Inten    --     7.8065                24.2580                75.2856
 Raman Activ --     0.0000                 0.0000                 0.0000
 Depolar     --     0.0000                 0.0000                 0.0000
 Atom AN      X      Y      Z        X      Y      Z        X      Y      Z
   1   8     0.00   0.00  -0.00     0.01   0.01  -0.00    -0.02  -0.05  -0.00
   2   6    -0.00  -0.00  -0.00    -0.02  -0.01  -0.00     0.07   0.05   0.02
   3   1     0.00   0.00  -0.00     0.00   0.00  -0.00    -0.01  -0.00   0.00
   4   1    -0.00  -0.00   0.00    -0.01  -0.01   0.00     0.02   0.05  -0.00
   5   6    -0.01   0.00   0.00    -0.05   0.01   0.03     0.16  -0.04  -0.11
   6   1     0.00  -0.00   0.01     0.00  -0.01   0.04    -0.02   0.04  -0.16
   7   1    -0.00   0.00   0.00    -0.04   0.04   0.02     0.13  -0.13  -0.07
   8   7    -0.00  -0.00  -0.00    -0.02  -0.03  -0.05     0.08   0.10   0.19
   9   6    -0.00   0.00  -0.00    -0.00   0.03  -0.06    -0.00  -0.12   0.22
  10   1    -0.00  -0.00  -0.00    -0.01   0.01  -0.02     0.02  -0.03   0.08
  11   1    -0.00   0.00  -0.00    -0.00   0.02  -0.02     0.01  -0.09   0.08
  12   1     0.00   0.00  -0.00     0.01   0.01  -0.00    -0.06  -0.04   0.01
  13   6     0.00  -0.00   0.00     0.02   0.00   0.05    -0.08  -0.02  -0.21
  14   1     0.00  -0.00   0.00     0.01  -0.01   0.03    -0.02   0.02  -0.11
  15   1     0.00   0.00   0.00     0.02   0.03   0.01    -0.07  -0.12  -0.06
  16   1     0.00  -0.00   0.00     0.00  -0.01   0.03    -0.01   0.04  -0.12
  17   6     0.01  -0.00  -0.00     0.04  -0.03   0.01    -0.15   0.11  -0.03
  18   1     0.00  -0.00  -0.00     0.03  -0.02  -0.00    -0.10   0.09   0.00
  19   1     0.00  -0.00  -0.00     0.02  -0.00   0.01    -0.07   0.02  -0.04
  20   1     0.00   0.00   0.00     0.01   0.01   0.02    -0.03  -0.02  -0.06
  21   1    -0.00  -0.00  -0.00    -0.00  -0.00  -0.00     0.01  -0.01   0.01
  22   6    -0.01   0.02   0.04    -0.02   0.05   0.04     0.02  -0.03  -0.08
  23   8     0.03   0.06   0.01    -0.00   0.05   0.05    -0.05  -0.13   0.02
  24   7     0.00  -0.07   0.04     0.01  -0.06   0.03    -0.01   0.11  -0.09
  25   1    -0.06  -0.02  -0.04    -0.07  -0.02  -0.06     0.18   0.01   0.08
  26   1    -0.05  -0.03   0.00    -0.02  -0.04   0.02     0.08   0.03   0.01
  27   7    -0.03   0.01  -0.06     0.03   0.00  -0.07    -0.04   0.06   0.08
  28   1     0.16  -0.00  -0.03    -0.06   0.05  -0.06    -0.06  -0.07   0.10
  29   1    -0.01  -0.07  -0.04     0.00  -0.03  -0.03     0.20   0.07   0.15
  30   6     0.01   0.01   0.02     0.02   0.01   0.05     0.00  -0.02  -0.05
  31   8     0.00   0.00   0.02     0.05   0.04   0.04    -0.04  -0.02  -0.02
  32   7    -0.01   0.03  -0.02     0.04  -0.00  -0.06    -0.06   0.03   0.11
  33   1     0.00  -0.02  -0.02    -0.12   0.05  -0.02     0.24  -0.13   0.02
  34   1     0.03   0.01  -0.02     0.00   0.06  -0.02    -0.01  -0.08   0.04
  35   7    -0.01  -0.03  -0.01    -0.03  -0.05   0.01     0.03   0.06  -0.00
  36   1    -0.03  -0.01   0.01    -0.05  -0.03   0.02     0.12  -0.01  -0.03
  37   1    -0.01  -0.00  -0.02    -0.01  -0.01  -0.03     0.01   0.02   0.04
  38   6    -0.01   0.01  -0.01    -0.05   0.04  -0.03     0.08  -0.05   0.04
  39   8    -0.02   0.00  -0.00    -0.08   0.01  -0.01     0.12  -0.01   0.02
  40   7     0.02   0.01  -0.01     0.08   0.04  -0.02    -0.14  -0.05   0.04
  41   1     0.01  -0.00   0.01     0.04  -0.02   0.02    -0.07   0.03  -0.02
  42   1     0.01   0.01  -0.00     0.05   0.05  -0.02    -0.07  -0.09   0.00
  43   7     0.00  -0.01   0.01     0.01  -0.07   0.05    -0.02   0.10  -0.07
  44   1    -0.01  -0.01   0.01    -0.03  -0.06   0.05     0.05   0.08  -0.08
  45   1     0.02  -0.00   0.00     0.07  -0.03   0.01    -0.11   0.04  -0.01
  46   6     0.00   0.02   0.01    -0.05  -0.19  -0.23    -0.04  -0.05  -0.10
  47   8     0.01   0.01   0.01    -0.06  -0.19  -0.26    -0.01  -0.09  -0.10
  48   7    -0.06  -0.06   0.06    -0.20   0.31   0.08    -0.10   0.10   0.00
  49   1     0.31   0.24  -0.30     0.08   0.14   0.22     0.06   0.08   0.03
  50   1    -0.28  -0.28   0.25    -0.23   0.22  -0.04    -0.11   0.04   0.01
  51   7     0.05   0.06  -0.06     0.28  -0.08   0.23     0.11  -0.00   0.11
  52   1     0.28   0.25  -0.27     0.24  -0.15   0.13     0.15  -0.03   0.02
  53   1    -0.31  -0.27   0.25     0.02   0.17   0.20    -0.04   0.05   0.13
                     43                     44                     45
                        a                      a                      a 
 Frequencies --   465.7049               467.0734               474.2412
 Red. masses --     8.4255                 6.7304                 6.9237
 Frc consts  --     0.0000                 0.0000                 0.0000
 IR Inten    --    24.4748               129.2633               121.7319
 Raman Activ --     0.0000                 0.0000                 0.0000
 Depolar     --     0.0000                 0.0000                 0.0000
 Atom AN      X      Y      Z        X      Y      Z        X      Y      Z
   1   8    -0.01   0.06   0.01     0.00   0.01  -0.00     0.01   0.06  -0.00
   2   6     0.01   0.02  -0.01     0.08   0.09   0.00    -0.18  -0.17  -0.03
   3   1     0.03   0.01   0.00     0.01   0.03  -0.01    -0.01  -0.04   0.01
   4   1     0.01  -0.02  -0.01     0.03   0.05  -0.01    -0.06  -0.11   0.01
   5   6    -0.02   0.04   0.10     0.14   0.05   0.13    -0.32  -0.04  -0.00
   6   1     0.05  -0.02   0.12     0.10  -0.02   0.14    -0.08  -0.04   0.05
   7   1    -0.07   0.11   0.06    -0.03   0.11   0.07    -0.11   0.04   0.01
   8   7     0.02  -0.12  -0.14     0.16  -0.16  -0.14    -0.23   0.04  -0.07
   9   6    -0.07   0.12  -0.13    -0.17   0.16  -0.07     0.22   0.04  -0.18
  10   1    -0.06   0.04  -0.09    -0.13   0.06  -0.12     0.10  -0.01   0.02
  11   1    -0.03   0.08  -0.02    -0.07   0.11   0.06     0.07   0.04  -0.16
  12   1     0.00   0.05   0.01    -0.04   0.07   0.03     0.14  -0.00  -0.03
  13   6    -0.05   0.03   0.17    -0.17   0.08   0.17     0.29  -0.05   0.10
  14   1    -0.05  -0.04   0.10    -0.14  -0.07   0.09     0.16   0.04   0.04
  15   1     0.01   0.09   0.05    -0.02   0.10   0.05     0.12   0.04   0.03
  16   1    -0.03   0.02   0.09    -0.07   0.11   0.09     0.09  -0.14   0.07
  17   6     0.10  -0.16  -0.04     0.06  -0.27  -0.13     0.10   0.14   0.14
  18   1     0.05  -0.07  -0.02     0.01  -0.07  -0.04     0.09  -0.03   0.03
  19   1     0.02  -0.04   0.00    -0.02  -0.06  -0.03     0.09   0.04   0.07
  20   1     0.02  -0.03   0.02     0.02  -0.11  -0.04     0.01   0.13   0.09
  21   1     0.00   0.02  -0.00    -0.02  -0.01   0.00     0.01   0.03  -0.02
  22   6    -0.01   0.03   0.04     0.02  -0.04  -0.09    -0.01  -0.01  -0.06
  23   8     0.01   0.06   0.02    -0.06  -0.14  -0.00    -0.09  -0.10   0.02
  24   7     0.00  -0.08   0.04     0.02   0.10  -0.09     0.01   0.05  -0.08
  25   1    -0.07  -0.02  -0.05     0.13   0.01   0.06     0.16  -0.01   0.05
  26   1    -0.00  -0.03   0.02     0.08   0.04  -0.00     0.08   0.01   0.02
  27   7     0.02  -0.01  -0.07    -0.08   0.06   0.06    -0.05   0.05   0.02
  28   1    -0.00   0.04  -0.06    -0.06  -0.09   0.12    -0.07  -0.06   0.08
  29   1    -0.02  -0.05  -0.04     0.27   0.07   0.19     0.26   0.04   0.16
  30   6    -0.04  -0.02  -0.10     0.04   0.01   0.04    -0.01  -0.00  -0.02
  31   8    -0.03  -0.04  -0.10     0.01  -0.02   0.05    -0.04  -0.02   0.00
  32   7    -0.00  -0.08   0.14    -0.05   0.11  -0.03    -0.06   0.07   0.05
  33   1     0.07   0.02   0.09     0.17  -0.13  -0.06     0.26  -0.16  -0.02
  34   1    -0.04  -0.08   0.07     0.00   0.01  -0.01    -0.00  -0.06   0.02
  35   7     0.06   0.10   0.01    -0.07  -0.04  -0.06     0.01   0.02  -0.02
  36   1     0.03   0.09  -0.02     0.19  -0.16  -0.03     0.10  -0.04  -0.02
  37   1     0.04   0.01   0.06    -0.03  -0.00  -0.01     0.00   0.01   0.02
  38   6     0.17  -0.13   0.12    -0.06   0.05  -0.04     0.01  -0.00  -0.00
  39   8     0.28  -0.02   0.03    -0.10   0.00  -0.01     0.01  -0.01  -0.00
  40   7    -0.29  -0.15   0.07     0.10   0.05  -0.02    -0.00   0.00   0.01
  41   1    -0.14   0.05  -0.07     0.05  -0.01   0.03    -0.00   0.00   0.00
  42   1    -0.16  -0.11   0.12     0.06   0.03  -0.05     0.00  -0.02  -0.02
  43   7    -0.04   0.21  -0.19     0.01  -0.07   0.07     0.00   0.01   0.00
  44   1     0.11   0.20  -0.18    -0.04  -0.07   0.07     0.00   0.00  -0.00
  45   1    -0.25   0.12  -0.00     0.09  -0.05  -0.00    -0.00  -0.01  -0.01
  46   6    -0.01  -0.01  -0.03    -0.02   0.02   0.00    -0.03   0.02  -0.01
  47   8     0.01  -0.03  -0.03     0.01  -0.00   0.01     0.02  -0.02   0.00
  48   7    -0.03   0.04  -0.00    -0.01  -0.02  -0.02    -0.03  -0.01  -0.03
  49   1     0.02   0.03   0.01    -0.00  -0.00  -0.02     0.00   0.01  -0.03
  50   1    -0.05   0.01   0.01     0.01  -0.01  -0.00    -0.00  -0.01  -0.00
  51   7     0.04   0.00   0.03    -0.01   0.02   0.01     0.00   0.03   0.03
  52   1     0.03  -0.02   0.02     0.03   0.02  -0.02     0.04   0.01  -0.00
  53   1    -0.00   0.03   0.03    -0.02  -0.01   0.02    -0.03   0.01   0.04
                     46                     47                     48
                        a                      a                      a 
 Frequencies --   485.5655               488.2544               491.9759
 Red. masses --     7.3836                 2.5486                 6.9573
 Frc consts  --     0.0000                 0.0000                 0.0000
 IR Inten    --    39.7990                 0.7587                59.4535
 Raman Activ --     0.0000                 0.0000                 0.0000
 Depolar     --     0.0000                 0.0000                 0.0000
 Atom AN      X      Y      Z        X      Y      Z        X      Y      Z
   1   8     0.00  -0.02  -0.00     0.00  -0.02  -0.00    -0.01   0.01   0.00
   2   6     0.03   0.02   0.01     0.00  -0.00  -0.00     0.02   0.02   0.00
   3   1    -0.00   0.00  -0.00    -0.00  -0.00  -0.00     0.02   0.01   0.01
   4   1     0.01   0.02   0.00     0.00   0.00   0.00     0.01  -0.01  -0.01
   5   6     0.05   0.00  -0.01    -0.00   0.00   0.01    -0.00   0.02  -0.00
   6   1     0.00   0.01  -0.03     0.00  -0.00   0.01     0.00   0.01  -0.00
   7   1     0.03  -0.02  -0.01    -0.01   0.01   0.00    -0.00   0.00  -0.00
   8   7     0.03   0.01   0.03     0.00  -0.01  -0.02    -0.01  -0.02   0.00
   9   6    -0.03  -0.03   0.04    -0.01   0.01  -0.02    -0.02   0.01   0.01
  10   1     0.00   0.00   0.01     0.00   0.01  -0.01    -0.00   0.00   0.00
  11   1    -0.00  -0.03   0.02    -0.00  -0.00  -0.00    -0.01   0.01   0.00
  12   1    -0.04  -0.01   0.00    -0.00   0.00  -0.00     0.00   0.00   0.01
  13   6    -0.04   0.00  -0.04    -0.00   0.01   0.02    -0.01  -0.03  -0.01
  14   1    -0.00   0.00  -0.01    -0.00  -0.00   0.01    -0.00  -0.01  -0.00
  15   1    -0.05  -0.01  -0.01    -0.00   0.01   0.01     0.00  -0.01  -0.00
  16   1    -0.00   0.01  -0.04    -0.00   0.00   0.01    -0.00  -0.01   0.00
  17   6    -0.02   0.01  -0.01     0.01  -0.02   0.00     0.01  -0.00  -0.01
  18   1    -0.02   0.01   0.00     0.01  -0.01  -0.00     0.00   0.01  -0.01
  19   1    -0.01   0.00  -0.01     0.00  -0.00   0.00     0.01  -0.01  -0.01
  20   1    -0.00  -0.01  -0.01     0.00  -0.00   0.00     0.00   0.01  -0.00
  21   1    -0.00  -0.01   0.00     0.04   0.02   0.00     0.02   0.01   0.01
  22   6    -0.04   0.18   0.16     0.01  -0.04  -0.03    -0.01   0.02   0.01
  23   8    -0.06   0.22   0.17     0.02  -0.04  -0.04    -0.03   0.01   0.01
  24   7    -0.02  -0.37   0.07     0.00   0.08  -0.01    -0.03  -0.01  -0.01
  25   1     0.09  -0.17  -0.14    -0.04   0.04   0.03     0.16  -0.04   0.03
  26   1     0.02  -0.21   0.18     0.00   0.05  -0.04    -0.03  -0.04   0.03
  27   7     0.11   0.04  -0.36    -0.02  -0.01   0.08     0.09  -0.02  -0.02
  28   1    -0.25   0.18  -0.23     0.06  -0.03   0.04    -0.16   0.05  -0.04
  29   1     0.28  -0.17  -0.01    -0.09   0.04  -0.01    -0.01   0.02  -0.01
  30   6    -0.02  -0.01  -0.05    -0.04  -0.03  -0.08     0.08   0.07   0.20
  31   8    -0.05  -0.04  -0.03    -0.04  -0.01  -0.10     0.08   0.08   0.24
  32   7    -0.05   0.02   0.07    -0.01  -0.09   0.09     0.01   0.24  -0.26
  33   1     0.18  -0.09   0.01     0.01   0.04   0.07     0.08  -0.18  -0.21
  34   1    -0.02  -0.07   0.03    -0.03  -0.06   0.05     0.10   0.11  -0.14
  35   7     0.04   0.06  -0.01     0.08   0.09   0.04    -0.07  -0.33  -0.09
  36   1     0.11   0.00  -0.03    -0.02   0.12  -0.01    -0.43  -0.06   0.10
[...]
  44   1    -0.01   0.00  -0.00    -0.00   0.00  -0.00    -0.00   0.00  -0.00
  45   1     0.00  -0.01   0.01    -0.00   0.00  -0.00     0.00  -0.00  -0.00
  46   6     0.00   0.00   0.00    -0.00   0.01   0.00     0.00   0.01   0.01
  47   8    -0.00  -0.00  -0.00     0.00  -0.00  -0.00    -0.00  -0.00  -0.01
  48   7    -0.00  -0.00  -0.00    -0.00  -0.00  -0.00     0.00  -0.01  -0.00
  49   1    -0.00   0.00   0.00     0.00  -0.00   0.00    -0.02   0.03   0.00
  50   1    -0.00  -0.00  -0.00    -0.00   0.00  -0.00    -0.00  -0.01  -0.01
  51   7     0.00  -0.00  -0.00    -0.00   0.00  -0.00    -0.00   0.00  -0.00
  52   1    -0.00  -0.00  -0.00    -0.00  -0.00  -0.00    -0.00  -0.01  -0.01
  53   1     0.00   0.00   0.00     0.01  -0.00   0.01     0.02  -0.01   0.02
                    142                    143                    144
                        a                      a                      a 
 Frequencies --  3482.9948              3497.0187              3497.8169
 Red. masses --     1.4523                 1.4481                 1.4349
 Frc consts  --     0.0000                 0.0000                 0.0000
 IR Inten    --    22.1814                25.7118                57.3113
 Raman Activ --     0.0000                 0.0000                 0.0000
 Depolar     --     0.0000                 0.0000                 0.0000
 Atom AN      X      Y      Z        X      Y      Z        X      Y      Z
   1   8     0.00  -0.00  -0.00     0.00  -0.00  -0.00    -0.00   0.00   0.00
   2   6    -0.00  -0.00  -0.00    -0.00   0.00  -0.00     0.00  -0.00   0.00
   3   1    -0.00   0.00   0.00     0.00  -0.00  -0.00    -0.00   0.00   0.00
   4   1     0.00   0.00   0.00     0.00   0.00   0.00    -0.00  -0.00  -0.00
   5   6    -0.00   0.00  -0.00     0.00  -0.00  -0.00     0.00   0.00   0.00
   6   1    -0.00  -0.00  -0.00    -0.00   0.00   0.00     0.00  -0.00  -0.00
   7   1     0.00  -0.00   0.00     0.00  -0.00   0.00    -0.00  -0.00  -0.00
   8   7     0.00  -0.00  -0.00    -0.00  -0.00   0.00    -0.00   0.00  -0.00
   9   6     0.00   0.00   0.00     0.00  -0.00  -0.00    -0.00   0.00   0.00
  10   1     0.00  -0.00  -0.00    -0.00   0.00   0.00     0.00  -0.00  -0.00
  11   1    -0.00  -0.00  -0.00    -0.00  -0.00  -0.00     0.00   0.00   0.00
  12   1     0.00   0.00  -0.00     0.00   0.00  -0.00     0.00   0.00  -0.00
  13   6     0.00   0.00   0.00     0.00  -0.00   0.00    -0.00   0.00   0.00
  14   1    -0.00  -0.00  -0.00    -0.00   0.00   0.00     0.00  -0.00  -0.00
  15   1     0.00   0.00   0.00    -0.00   0.00   0.00    -0.00  -0.00  -0.00
  16   1    -0.00  -0.00  -0.00    -0.00  -0.00  -0.00     0.00   0.00   0.00
  17   6     0.00  -0.00  -0.00     0.00   0.00   0.00     0.00  -0.00   0.00
  18   1     0.00   0.00   0.00    -0.00   0.00   0.00    -0.00   0.00  -0.00
  19   1    -0.00   0.00   0.00    -0.00   0.00  -0.00     0.00   0.00   0.00
  20   1    -0.00  -0.00  -0.00     0.00  -0.00  -0.00     0.00  -0.00   0.00
  21   1    -0.00   0.00   0.00    -0.01   0.01   0.01     0.00  -0.00  -0.00
  22   6    -0.00  -0.00  -0.00    -0.00  -0.00  -0.00     0.00  -0.00   0.00
  23   8    -0.00   0.00   0.00     0.00   0.00   0.00    -0.00  -0.00  -0.00
  24   7     0.00   0.00  -0.01     0.00  -0.00   0.00    -0.00   0.00   0.00
  25   1    -0.01  -0.03   0.01     0.00   0.00  -0.00     0.00   0.00  -0.00
  26   1    -0.01   0.03   0.02    -0.00  -0.00  -0.00     0.00  -0.01  -0.01
  27   7    -0.08  -0.16   0.01    -0.00  -0.00   0.00     0.00   0.00  -0.00
  28   1     0.03   0.49   0.55    -0.00   0.00   0.00    -0.00  -0.00  -0.01
  29   1     0.29   0.13  -0.57     0.00   0.00  -0.00    -0.00  -0.00   0.01
  30   6    -0.00  -0.00  -0.00    -0.00  -0.00  -0.00    -0.00  -0.00  -0.00
  31   8     0.00   0.00   0.00     0.00   0.00   0.00     0.00   0.00   0.00
  32   7    -0.00  -0.00  -0.00     0.00   0.00   0.00    -0.00   0.00  -0.00
  33   1    -0.00   0.00  -0.00    -0.00  -0.00   0.00     0.00  -0.00   0.00
  34   1     0.01   0.00   0.02    -0.00  -0.00  -0.00     0.00  -0.00   0.00
  35   7     0.00   0.00   0.00     0.00   0.00  -0.00     0.00   0.00   0.00
  36   1    -0.00  -0.00  -0.01     0.00   0.00   0.01    -0.00  -0.00  -0.00
  37   1    -0.00  -0.00  -0.00    -0.01  -0.01  -0.00    -0.00  -0.00  -0.00
  38   6    -0.00  -0.00   0.00    -0.00   0.00   0.00     0.00  -0.00   0.00
  39   8     0.00  -0.00   0.00     0.00  -0.00   0.00    -0.00   0.00  -0.00
  40   7     0.00   0.00  -0.00     0.01  -0.00   0.00    -0.00   0.00  -0.00
  41   1    -0.00  -0.00   0.00    -0.01  -0.01   0.00    -0.00  -0.00   0.00
  42   1     0.00  -0.00   0.00    -0.03   0.02  -0.01     0.00  -0.00   0.00
  43   7     0.00   0.00  -0.00    -0.16  -0.07   0.06     0.00   0.00  -0.00
  44   1    -0.00   0.00  -0.00     0.58  -0.29   0.24    -0.00   0.00  -0.00
  45   1    -0.00  -0.00   0.00     0.03   0.53  -0.45    -0.00  -0.00   0.00
  46   6    -0.00  -0.00  -0.00    -0.00  -0.00  -0.00    -0.00   0.00  -0.00
  47   8    -0.00  -0.00   0.00     0.00   0.00   0.00    -0.00   0.00   0.00
  48   7    -0.00   0.00  -0.00    -0.00   0.00  -0.00    -0.10   0.03  -0.10
  49   1     0.01  -0.02  -0.00     0.00  -0.00  -0.00     0.29  -0.44  -0.07
  50   1     0.00   0.01   0.01     0.00   0.00   0.00     0.08   0.32   0.43
  51   7     0.00  -0.00   0.00    -0.00   0.00   0.00    -0.06   0.10   0.02
  52   1     0.00   0.01   0.01    -0.00  -0.00  -0.00    -0.09  -0.27  -0.35
  53   1    -0.01   0.00  -0.01     0.00  -0.00   0.00     0.31  -0.10   0.28
                    145                    146                    147
                        a                      a                      a 
 Frequencies --  3503.3813              3524.1413              3533.8423
 Red. masses --     1.4655                 1.9193                 1.9598
 Frc consts  --     0.0000                 0.0000                 0.0000
 IR Inten    --     5.7257                19.9878                37.9274
 Raman Activ --     0.0000                 0.0000                 0.0000
 Depolar     --     0.0000                 0.0000                 0.0000
 Atom AN      X      Y      Z        X      Y      Z        X      Y      Z
   1   8    -0.00   0.00   0.00     0.00  -0.00  -0.00     0.00  -0.00  -0.00
   2   6    -0.00   0.00  -0.00    -0.00  -0.00   0.00    -0.00   0.00   0.00
   3   1     0.00  -0.00   0.00    -0.00   0.00  -0.00     0.00   0.00  -0.00
   4   1    -0.00   0.00   0.00     0.00   0.00   0.00     0.00   0.00   0.00
   5   6    -0.00   0.00  -0.00     0.00  -0.00   0.00    -0.00   0.00   0.00
   6   1     0.00  -0.00  -0.00    -0.00  -0.00  -0.00    -0.00  -0.00  -0.00
   7   1     0.00  -0.00   0.00    -0.00   0.00  -0.00    -0.00   0.00  -0.00
   8   7    -0.00  -0.00  -0.00     0.00  -0.00  -0.00    -0.00  -0.00  -0.00
   9   6    -0.00   0.00   0.00     0.00  -0.00  -0.00     0.00  -0.00  -0.00
  10   1     0.00  -0.00  -0.00     0.00   0.00   0.00    -0.00   0.00   0.00
  11   1     0.00   0.00  -0.00    -0.00   0.00   0.00    -0.00   0.00   0.00
  12   1    -0.00  -0.00  -0.00    -0.00  -0.00   0.00    -0.00   0.00  -0.00
  13   6     0.00   0.00   0.00     0.00  -0.00  -0.00    -0.00   0.00   0.00
  14   1    -0.00   0.00   0.00    -0.00   0.00   0.00     0.00  -0.00  -0.00
  15   1    -0.00  -0.00  -0.00    -0.00  -0.00  -0.00    -0.00   0.00   0.00
  16   1    -0.00  -0.00   0.00    -0.00   0.00   0.00     0.00   0.00  -0.00
  17   6     0.00   0.00   0.00     0.00  -0.00   0.00    -0.00   0.00  -0.00
  18   1    -0.00   0.00  -0.00    -0.00  -0.00   0.00    -0.00   0.00  -0.00
  19   1    -0.00  -0.00   0.00     0.00   0.00  -0.00    -0.00   0.00   0.00
  20   1     0.00   0.00   0.00    -0.00  -0.00   0.00     0.00   0.00  -0.00
  21   1     0.00  -0.00  -0.00    -0.00   0.00   0.00    -0.00   0.00   0.00
  22   6     0.00  -0.00   0.00    -0.00   0.00  -0.00    -0.00  -0.00  -0.00
  23   8     0.00  -0.00  -0.00     0.00  -0.00  -0.00    -0.00   0.00   0.00
  24   7    -0.00  -0.00   0.01    -0.00   0.00   0.00    -0.00  -0.01   0.00
  25   1     0.01   0.02  -0.01     0.00   0.00  -0.00     0.01   0.03  -0.01
  26   1     0.01  -0.02  -0.02     0.00  -0.01  -0.01     0.00  -0.01  -0.00
  27   7     0.00   0.00  -0.00     0.00   0.00  -0.00     0.00  -0.00  -0.00
  28   1    -0.00  -0.01  -0.01     0.00   0.00   0.00     0.00   0.00   0.00
  29   1    -0.01  -0.01   0.02    -0.01  -0.00   0.01    -0.00  -0.00   0.00
  30   6     0.00   0.00  -0.00     0.00   0.01   0.00     0.00  -0.00   0.01
  31   8     0.00   0.00   0.00    -0.00  -0.00  -0.00    -0.00  -0.00  -0.00
  32   7     0.00   0.00   0.00     0.01   0.03  -0.04    -0.03  -0.12   0.23
  33   1    -0.01  -0.01   0.02    -0.05  -0.11   0.16     0.23   0.50  -0.74
  34   1    -0.01  -0.00  -0.02     0.01   0.00   0.01    -0.11  -0.03  -0.14
  35   7    -0.00  -0.00  -0.01     0.09   0.09   0.22     0.02   0.02   0.04
  36   1     0.01   0.01   0.02    -0.27  -0.29  -0.85    -0.06  -0.06  -0.18
  37   1     0.00   0.00  -0.00    -0.08  -0.08   0.01    -0.02  -0.02   0.00
  38   6    -0.00   0.00  -0.00     0.00  -0.00   0.00    -0.00  -0.00   0.00
  39   8     0.00  -0.00   0.00    -0.00   0.00  -0.00    -0.00   0.00  -0.00
  40   7     0.00  -0.00   0.00     0.00  -0.00   0.00    -0.01   0.01  -0.01
  41   1     0.00   0.00  -0.00    -0.00  -0.00   0.00    -0.00   0.00  -0.00
  42   1    -0.00   0.00  -0.00    -0.01   0.01  -0.01     0.05  -0.02   0.02
  43   7    -0.00  -0.00   0.00    -0.00   0.00  -0.00    -0.00  -0.00   0.00
  44   1     0.00  -0.00   0.00     0.01  -0.00   0.00     0.00  -0.00   0.00
  45   1     0.00   0.00  -0.00    -0.00   0.00  -0.00     0.00   0.00  -0.00
  46   6    -0.00  -0.00  -0.00     0.00   0.00   0.00     0.00   0.00   0.00
  47   8     0.00   0.00   0.00    -0.00  -0.00   0.00     0.00  -0.00  -0.00
  48   7    -0.08   0.03  -0.08    -0.00   0.00  -0.00    -0.00  -0.00  -0.00
  49   1     0.24  -0.37  -0.06     0.00  -0.01  -0.00     0.00  -0.00  -0.00
  50   1     0.06   0.25   0.34     0.00   0.01   0.01     0.00   0.01   0.01
  51   7     0.08  -0.12  -0.02     0.00  -0.00  -0.00     0.00  -0.00  -0.00
  52   1     0.11   0.32   0.42     0.00   0.01   0.01     0.00   0.01   0.01
  53   1    -0.39   0.12  -0.35    -0.01   0.00  -0.01    -0.00   0.00  -0.00
                    148                    149                    150
                        a                      a                      a 
 Frequencies --  3536.8032              3540.3251              3549.1798
 Red. masses --     1.9062                 1.9817                 2.1652
 Frc consts  --     0.0000                 0.0000                 0.0000
 IR Inten    --    16.6051                24.7733                20.4251
 Raman Activ --     0.0000                 0.0000                 0.0000
 Depolar     --     0.0000                 0.0000                 0.0000
 Atom AN      X      Y      Z        X      Y      Z        X      Y      Z
   1   8    -0.00   0.00   0.00    -0.00   0.00   0.00     0.00  -0.00   0.00
   2   6    -0.00   0.00   0.00     0.00  -0.00   0.00    -0.00   0.00  -0.00
   3   1    -0.00  -0.00  -0.00     0.00   0.00  -0.00    -0.00   0.00   0.00
   4   1     0.00  -0.00   0.00    -0.00   0.00  -0.00    -0.00  -0.00   0.00
   5   6     0.00   0.00  -0.00     0.00   0.00   0.00    -0.00  -0.00   0.00
   6   1    -0.00   0.00   0.00     0.00  -0.00  -0.00     0.00  -0.00  -0.00
   7   1     0.00  -0.00  -0.00     0.00   0.00  -0.00    -0.00  -0.00   0.00
   8   7     0.00  -0.00   0.00    -0.00  -0.00  -0.00    -0.00   0.00   0.00
   9   6    -0.00   0.00   0.00     0.00   0.00   0.00    -0.00  -0.00  -0.00
  10   1    -0.00  -0.00  -0.00    -0.00  -0.00  -0.00     0.00  -0.00  -0.00
  11   1     0.00  -0.00  -0.00    -0.00  -0.00   0.00     0.00   0.00  -0.00
  12   1    -0.00   0.00  -0.00     0.00   0.00   0.00    -0.00  -0.00   0.00
  13   6    -0.00   0.00   0.00     0.00  -0.00   0.00    -0.00   0.00  -0.00
  14   1     0.00  -0.00  -0.00     0.00  -0.00  -0.00     0.00  -0.00  -0.00
  15   1     0.00   0.00  -0.00     0.00   0.00   0.00    -0.00  -0.00  -0.00
  16   1     0.00   0.00   0.00    -0.00   0.00  -0.00     0.00   0.00   0.00
  17   6    -0.00   0.00   0.00     0.00  -0.00   0.00     0.00   0.00   0.00
  18   1    -0.00  -0.00  -0.00    -0.00   0.00  -0.00    -0.00  -0.00   0.00
  19   1    -0.00   0.00   0.00     0.00   0.00   0.00    -0.00  -0.00  -0.00
  20   1     0.00  -0.00   0.00    -0.00  -0.00   0.00    -0.00   0.00   0.00
  21   1     0.00  -0.00  -0.00     0.00  -0.00  -0.00    -0.00   0.00  -0.00
  22   6     0.00  -0.00  -0.00     0.00   0.01  -0.00     0.00  -0.00  -0.01
  23   8    -0.00   0.00   0.00    -0.00  -0.00   0.00    -0.00   0.00   0.00
  24   7    -0.00  -0.00   0.00     0.05   0.26  -0.03    -0.01  -0.07   0.01
  25   1     0.00   0.00  -0.00    -0.24  -0.85   0.24     0.06   0.21  -0.06
  26   1     0.00  -0.00  -0.00     0.06  -0.12  -0.11    -0.02   0.05   0.04
  27   7    -0.00  -0.00  -0.00     0.02  -0.02  -0.07     0.07  -0.07  -0.27
  28   1     0.00   0.00   0.00     0.01   0.10   0.10     0.04   0.42   0.44
  29   1     0.00   0.00  -0.00    -0.09  -0.04   0.16    -0.32  -0.16   0.59
  30   6     0.00  -0.00   0.00    -0.00  -0.00   0.00    -0.00  -0.00  -0.00
  31   8    -0.00   0.00  -0.00     0.00   0.00   0.00     0.00   0.00   0.00
  32   7    -0.00  -0.01   0.01     0.00  -0.00   0.01    -0.00   0.00  -0.00
  33   1     0.01   0.03  -0.05     0.01   0.01  -0.02    -0.00  -0.00   0.00
  34   1    -0.00  -0.00  -0.00    -0.01  -0.00  -0.01     0.01   0.00   0.01
  35   7    -0.00   0.00  -0.00     0.00   0.00   0.00    -0.00  -0.00  -0.00
  36   1     0.00   0.00   0.00    -0.00  -0.00  -0.00     0.00   0.00   0.01
  37   1    -0.00  -0.00  -0.00    -0.00  -0.00   0.00     0.00   0.00  -0.00
  38   6     0.01   0.00  -0.00     0.00  -0.00   0.00    -0.00   0.00  -0.00
  39   8    -0.00   0.00  -0.00    -0.00   0.00  -0.00     0.00  -0.00   0.00
  40   7     0.22  -0.10   0.09    -0.00   0.00  -0.00     0.00  -0.00   0.00
  41   1    -0.06  -0.05   0.02    -0.00  -0.00   0.00     0.00   0.00  -0.00
  42   1    -0.79   0.41  -0.35     0.00  -0.00   0.00    -0.00   0.00  -0.00
  43   7    -0.01   0.02  -0.02    -0.00  -0.00   0.00     0.00  -0.00   0.00
  44   1     0.03  -0.01   0.01    -0.00   0.00  -0.00    -0.00   0.00  -0.00
  45   1    -0.01  -0.07   0.06     0.00   0.00  -0.00     0.00   0.00  -0.00
  46   6     0.00   0.00   0.00     0.00   0.00   0.00    -0.00  -0.00  -0.00
  47   8    -0.00  -0.00  -0.00    -0.00  -0.00  -0.00     0.00   0.00   0.00
  48   7    -0.00  -0.00  -0.00    -0.00  -0.00  -0.00     0.00   0.00   0.00
  49   1     0.00  -0.00  -0.00     0.00  -0.00  -0.00     0.00  -0.00   0.00
  50   1     0.00   0.00   0.00     0.00   0.01   0.01    -0.00  -0.01  -0.01
  51   7     0.00  -0.00   0.00    -0.00  -0.00  -0.00    -0.00   0.00   0.00
  52   1     0.00   0.00   0.00     0.00   0.01   0.01    -0.00  -0.01  -0.01
  53   1    -0.00   0.00  -0.00    -0.00   0.00  -0.00     0.00  -0.00   0.00
                    151                    152                    153
                        a                      a                      a 
 Frequencies --  3561.8048              3563.0890              3567.6326
 Red. masses --     2.1964                 2.1840                 2.1821
 Frc consts  --     0.0000                 0.0000                 0.0000
 IR Inten    --    16.9238                18.2970                24.7600
 Raman Activ --     0.0000                 0.0000                 0.0000
 Depolar     --     0.0000                 0.0000                 0.0000
 Atom AN      X      Y      Z        X      Y      Z        X      Y      Z
   1   8     0.00  -0.00  -0.00    -0.00   0.00   0.00    -0.00   0.00   0.00
   2   6    -0.00   0.00  -0.00     0.00  -0.00  -0.00     0.00  -0.00   0.00
   3   1     0.00  -0.00  -0.00    -0.00   0.00   0.00     0.00  -0.00  -0.00
   4   1     0.00   0.00   0.00    -0.00   0.00  -0.00    -0.00  -0.00  -0.00
   5   6    -0.00  -0.00  -0.00     0.00  -0.00  -0.00    -0.00   0.00   0.00
   6   1    -0.00   0.00   0.00    -0.00   0.00  -0.00     0.00  -0.00  -0.00
   7   1     0.00   0.00   0.00    -0.00   0.00   0.00    -0.00  -0.00  -0.00
   8   7     0.00  -0.00   0.00     0.00   0.00  -0.00    -0.00   0.00   0.00
   9   6     0.00  -0.00  -0.00     0.00   0.00  -0.00    -0.00   0.00   0.00
  10   1    -0.00   0.00   0.00     0.00   0.00   0.00     0.00  -0.00  -0.00
  11   1    -0.00  -0.00  -0.00    -0.00   0.00   0.00    -0.00   0.00  -0.00
  12   1    -0.00  -0.00  -0.00     0.00  -0.00   0.00    -0.00  -0.00  -0.00
  13   6     0.00  -0.00  -0.00     0.00  -0.00  -0.00    -0.00   0.00   0.00
  14   1    -0.00   0.00   0.00    -0.00   0.00   0.00     0.00  -0.00  -0.00
  15   1     0.00   0.00   0.00    -0.00  -0.00   0.00    -0.00  -0.00  -0.00
  16   1    -0.00  -0.00  -0.00     0.00  -0.00   0.00    -0.00   0.00   0.00
  17   6     0.00   0.00  -0.00     0.00   0.00  -0.00     0.00   0.00   0.00
  18   1     0.00  -0.00   0.00     0.00   0.00   0.00    -0.00  -0.00  -0.00
  19   1    -0.00  -0.00  -0.00     0.00  -0.00   0.00    -0.00  -0.00   0.00
  20   1    -0.00   0.00  -0.00    -0.00  -0.00   0.00    -0.00   0.00  -0.00
  21   1    -0.00   0.00   0.00     0.00  -0.00  -0.00     0.00  -0.00  -0.00
  22   6    -0.00   0.00  -0.00     0.00   0.00   0.00    -0.00  -0.00  -0.00
  23   8     0.00   0.00   0.00    -0.00  -0.00  -0.00     0.00  -0.00  -0.00
  24   7     0.00  -0.00  -0.00     0.00   0.00  -0.00     0.00  -0.01  -0.00
  25   1     0.00   0.00  -0.00    -0.00  -0.00   0.00     0.00   0.01  -0.00
  26   1    -0.00   0.00   0.00     0.00   0.00   0.00    -0.00   0.01   0.01
  27   7     0.00  -0.00  -0.00     0.00  -0.00  -0.00     0.00  -0.00  -0.00
  28   1     0.00   0.00   0.00     0.00   0.00   0.00     0.00   0.00   0.01
  29   1    -0.00  -0.00   0.00    -0.00  -0.00   0.00    -0.00  -0.00   0.00
  30   6     0.00   0.00   0.00    -0.00   0.00  -0.00    -0.00  -0.00  -0.00
  31   8    -0.00  -0.00  -0.00     0.00  -0.00   0.00    -0.00   0.00   0.00
  32   7     0.00   0.00  -0.00     0.00   0.00  -0.00    -0.00   0.00  -0.00
  33   1    -0.00  -0.00   0.00    -0.00  -0.00   0.00    -0.00  -0.00   0.01
  34   1    -0.00  -0.00  -0.00     0.00   0.00   0.00     0.01   0.00   0.01
  35   7     0.00  -0.00   0.00    -0.00  -0.00  -0.00    -0.00  -0.00  -0.00
  36   1    -0.00  -0.00  -0.00     0.00   0.00   0.00     0.00   0.00   0.01
  37   1     0.00   0.00   0.00     0.01   0.01   0.00     0.00   0.00  -0.00
  38   6    -0.00   0.00  -0.00    -0.00   0.01  -0.01    -0.00  -0.00   0.00
  39   8     0.00  -0.00   0.00     0.00  -0.00   0.00    -0.00   0.00  -0.00
  40   7    -0.00   0.00  -0.00    -0.02   0.01  -0.01     0.00   0.00   0.00
  41   1     0.00   0.00  -0.00     0.01   0.01  -0.00    -0.00  -0.00  -0.00
  42   1     0.00  -0.00   0.00     0.08  -0.04   0.03    -0.00   0.00  -0.00
  43   7    -0.00   0.00  -0.00    -0.14   0.20  -0.17    -0.00   0.00  -0.00
  44   1     0.00  -0.00   0.00     0.58  -0.27   0.22     0.00  -0.00   0.00
  45   1    -0.00  -0.00   0.00    -0.05  -0.50   0.43    -0.00  -0.00   0.00
  46   6     0.01  -0.01   0.00    -0.00   0.00   0.00    -0.00  -0.01  -0.01
  47   8    -0.00   0.00  -0.00     0.00  -0.00  -0.00     0.00   0.00   0.00
  48   7     0.05  -0.20  -0.13    -0.00   0.00   0.00     0.04  -0.14  -0.10
  49   1    -0.31   0.45   0.06     0.00  -0.00  -0.00    -0.22   0.32   0.04
  50   1     0.09   0.30   0.44    -0.00  -0.00  -0.00     0.07   0.23   0.33
  51   7     0.10   0.04   0.15    -0.00  -0.00  -0.00    -0.13  -0.05  -0.20
  52   1    -0.07  -0.24  -0.29     0.00   0.00   0.00     0.09   0.34   0.42
  53   1    -0.30   0.11  -0.26     0.00  -0.00   0.00     0.40  -0.14   0.34
