 Entering Gaussian System
 *********************************************
 Gaussian 98:
 frequency output generated by the xtb code
 *********************************************
                         Standard orientation:
 --------------------------------------------------------------------
  Center     Atomic     Atomic              Coordinates (Angstroms)
  Number     Number      Type              X           Y           Z
 --------------------------------------------------------------------
    1          8             0       -0.359988   -2.419180   -1.488740
    2          6             0        0.465139   -1.300781   -1.687819
    3          1             0        1.379700   -1.669859   -2.157035
    4          1             0       -0.003342   -0.593149   -2.384460
    5          6             0        0.786502   -0.509835   -0.416058
    6          1             0       -0.124449   -0.061923   -0.013353
    7          1             0        1.487415    0.282196   -0.686113
    8          7             0        1.409724   -1.288620    0.690476
    9          6             0        0.402273   -2.128847    1.356348
   10          1             0       -0.410679   -1.495369    1.708905
   11          1             0        0.851665   -2.648349    2.200471
   12          1             0        0.009195   -2.858108    0.651409
   13          6             0        1.942861   -0.313968    1.655151
   14          1             0        1.153558    0.370752    1.955360
   15          1             0        2.733335    0.258720    1.172880
   16          1             0        2.339373   -0.827684    2.528257
   17          6             0        2.516270   -2.125366    0.202834
   18          1             0        3.216677   -1.495167   -0.343790
   19          1             0        2.134539   -2.912817   -0.441846
   20          1             0        3.027594   -2.581315    1.048355
   21          1             0       -1.252160   -2.110945   -1.206397
   22          6             0        4.292181    1.513712   -1.096791
   23          8             0        3.779546    0.432045   -0.835631
   24          7             0        5.533246    1.598733   -1.649408
   25          1             0        5.961526    0.748913   -1.971073
   26          1             0        5.888625    2.464633   -2.012003
   27          7             0        3.670049    2.684063   -0.848588
   28          1             0        4.159581    3.554178   -0.951733
   29          1             0        2.802958    2.666762   -0.313065
   30          6             0        0.412773    3.368891    0.966994
   31          8             0        1.270322    2.558257    0.643649
   32          7             0        0.549306    4.700686    0.716609
   33          1             0        1.441062    5.032433    0.394461
   34          1             0       -0.071612    5.374877    1.126449
   35          7             0       -0.722907    3.003343    1.602995
   36          1             0       -1.481734    3.656226    1.687896
   37          1             0       -0.953122    2.012014    1.633221
   38          6             0       -2.778751    0.173703    2.028494
   39          8             0       -1.601191    0.292883    1.693641
   40          7             0       -3.293244    0.902126    3.057032
   41          1             0       -2.649123    1.400589    3.646474
   42          1             0       -4.196472    0.690400    3.441804
   43          7             0       -3.625594   -0.661781    1.404925
   44          1             0       -4.597963   -0.682712    1.653667
   45          1             0       -3.340936   -1.110519    0.537989
   46          6             0       -3.547286   -2.605008   -1.936377
   47          8             0       -2.991140   -1.919831   -1.075569
   48          7             0       -2.846374   -3.340437   -2.819070
   49          1             0       -1.841825   -3.369638   -2.725833
   50          1             0       -3.292165   -3.944758   -3.484375
   51          7             0       -4.894530   -2.660534   -2.037357
   52          1             0       -5.350211   -3.148187   -2.786815
   53          1             0       -5.450061   -2.055680   -1.459812
 --------------------------------------------------------------------
     1 basis functions        1 primitive gaussians
     1 alpha electrons        1 beta electrons

 Harmonic frequencies (cm**-1), IR intensities (km*mol⁻¹),
 Raman scattering activities (A**4/amu), Raman depolarization ratios,
 reduced masses (AMU), force constants (mDyne/A) and normal coordinates:
                      1                      2                      3
                        a                      a                      a 
 Frequencies --    10.6256                13.4084                23.0597
 Red. masses --    12.1267                12.0725                12.9413
 Frc consts  --     0.0000                 0.0000                 0.0000
 IR Inten    --     0.8304                 0.0681                 1.7394
 Raman Activ --     0.0000                 0.0000                 0.0000
 Depolar     --     0.0000                 0.0000                 0.0000
 Atom AN      X      Y      Z        X      Y      Z        X      Y      Z
   1   8    -0.03   0.16  -0.21    -0.04   0.05  -0.09     0.03   0.05  -0.14
   2   6    -0.04   0.16  -0.12    -0.01   0.03  -0.06     0.05   0.03  -0.08
   3   1    -0.01   0.06  -0.04    -0.01   0.01  -0.02     0.02   0.01  -0.01
   4   1    -0.02   0.06  -0.02     0.00   0.02  -0.01     0.03   0.01  -0.03
   5   6    -0.03   0.08  -0.07    -0.00   0.00  -0.04     0.01   0.02  -0.06
   6   1    -0.01   0.02  -0.01    -0.00  -0.00  -0.01    -0.00   0.00  -0.03
   7   1    -0.01   0.02  -0.01    -0.00   0.00  -0.01     0.00   0.01  -0.00
   8   7    -0.06   0.01  -0.13    -0.00  -0.02  -0.06    -0.04   0.01  -0.04
   9   6    -0.07   0.00  -0.16     0.00  -0.05  -0.09    -0.06  -0.01  -0.10
  10   1    -0.02   0.00  -0.04    -0.00  -0.02  -0.02    -0.02  -0.01  -0.03
  11   1    -0.03  -0.01  -0.05     0.00  -0.02  -0.03    -0.03  -0.01  -0.02
  12   1    -0.03   0.01  -0.05     0.00  -0.01  -0.03    -0.01  -0.00  -0.04
  13   6    -0.02  -0.06  -0.07    -0.03  -0.04  -0.02    -0.10   0.01   0.00
  14   1     0.00  -0.01  -0.01    -0.01  -0.02  -0.00    -0.04  -0.01  -0.01
  15   1    -0.00  -0.02  -0.01    -0.01  -0.00  -0.00    -0.03   0.01   0.01
  16   1    -0.01  -0.03  -0.03    -0.01  -0.02  -0.01    -0.04  -0.00   0.00
  17   6    -0.08   0.00  -0.16     0.01   0.01  -0.07    -0.01   0.02   0.01
  18   1    -0.02   0.00  -0.04     0.00   0.01  -0.01     0.01   0.01   0.02
  19   1    -0.03   0.01  -0.06     0.01   0.01  -0.03     0.01   0.01  -0.01
  20   1    -0.03  -0.02  -0.06     0.00  -0.00  -0.02    -0.02   0.00   0.01
  21   1    -0.01   0.03  -0.04    -0.01   0.01  -0.01     0.01   0.02  -0.03
  22   6     0.07   0.02   0.10     0.10   0.03   0.16     0.07   0.00   0.05
  23   8     0.00   0.03  -0.02     0.04   0.03   0.05     0.18   0.01   0.27
  24   7     0.09   0.00   0.13     0.18   0.03   0.34     0.14   0.02   0.22
  25   1     0.01   0.00   0.01     0.05   0.01   0.09     0.08  -0.00   0.14
  26   1     0.04   0.00   0.06     0.06   0.01   0.11     0.02  -0.01   0.01
  27   7     0.14   0.03   0.22     0.11   0.04   0.17    -0.12  -0.01  -0.33
  28   1     0.05   0.00   0.09     0.04   0.01   0.08    -0.06   0.01  -0.13
  29   1     0.04   0.01   0.06     0.01   0.01   0.02    -0.05   0.00  -0.12
  30   6     0.08   0.03   0.08    -0.09  -0.03  -0.23    -0.02  -0.03  -0.04
  31   8     0.12   0.03   0.18    -0.04  -0.03  -0.10    -0.21  -0.05  -0.50
  32   7     0.12   0.03   0.10    -0.17  -0.06  -0.44     0.00  -0.00   0.14
  33   1     0.04   0.01   0.05    -0.05  -0.01  -0.12    -0.02  -0.01  -0.03
  34   1     0.02   0.01   0.01    -0.06  -0.01  -0.15     0.05  -0.01   0.12
  35   7     0.02   0.04  -0.03    -0.11  -0.01  -0.25     0.16  -0.05   0.28
  36   1     0.00   0.01  -0.03    -0.04  -0.01  -0.10     0.06  -0.00   0.17
  37   1     0.00   0.01  -0.01    -0.01  -0.00  -0.03     0.02  -0.01   0.05
  38   6    -0.02   0.08  -0.09     0.07  -0.09   0.12    -0.01   0.01   0.01
  39   8    -0.03   0.05  -0.11     0.05  -0.05   0.06     0.01  -0.01   0.08
  40   7    -0.02   0.16  -0.14     0.11  -0.13   0.17    -0.02  -0.02   0.03
  41   1    -0.00   0.05  -0.05     0.04  -0.03   0.04    -0.01  -0.02   0.03
  42   1    -0.01   0.05  -0.03     0.04  -0.05   0.06    -0.01  -0.00  -0.00
  43   7    -0.03   0.04  -0.03     0.07  -0.12   0.16    -0.02   0.08  -0.07
  44   1    -0.01   0.02  -0.01     0.02  -0.04   0.06    -0.01   0.03  -0.03
  45   1    -0.01  -0.00  -0.00     0.01  -0.02   0.03     0.00   0.03  -0.02
  46   6    -0.04  -0.20   0.13    -0.06   0.09   0.05    -0.00  -0.01   0.05
  47   8    -0.04  -0.11   0.04    -0.02   0.06   0.06     0.04   0.05  -0.03
  48   7    -0.05  -0.16   0.08    -0.11   0.13  -0.01    -0.05  -0.06   0.05
  49   1    -0.01  -0.00  -0.01    -0.03   0.03  -0.02    -0.01  -0.01  -0.01
  50   1    -0.01  -0.06   0.04    -0.04   0.04  -0.00    -0.02  -0.03   0.03
  51   7    -0.05  -0.41   0.30    -0.07   0.11   0.12    -0.01  -0.05   0.15
  52   1    -0.02  -0.14   0.10    -0.03   0.04   0.03    -0.01  -0.03   0.05
  53   1    -0.02  -0.13   0.09    -0.01   0.03   0.04     0.00  -0.01   0.04
                      4                      5                      6
                        a                      a                      a 
 Frequencies --    29.1842                34.2565                37.8875
 Red. masses --    11.8820                11.8719                12.2634
 Frc consts  --     0.0000                 0.0000                 0.0000
 IR Inten    --     1.6690                 1.0711                 4.2271
 Raman Activ --     0.0000                 0.0000                 0.0000
 Depolar     --     0.0000                 0.0000                 0.0000
 Atom AN      X      Y      Z        X      Y      Z        X      Y      Z
   1   8    -0.13  -0.17   0.11     0.11  -0.27  -0.13     0.05   0.19  -0.19
   2   6    -0.02  -0.23  -0.03     0.08  -0.21  -0.09     0.15   0.10  -0.04
   3   1    -0.02  -0.10   0.00     0.04  -0.06   0.00     0.05   0.01   0.01
   4   1     0.01  -0.08  -0.03     0.03  -0.08  -0.05     0.08   0.05  -0.02
   5   6     0.03  -0.11  -0.12    -0.06  -0.14  -0.11     0.07   0.05   0.01
   6   1     0.01  -0.02  -0.04    -0.03  -0.05  -0.06     0.01   0.02  -0.02
   7   1     0.01  -0.04  -0.06    -0.02  -0.03  -0.03     0.04   0.01   0.03
   8   7     0.06  -0.01  -0.06    -0.11  -0.05  -0.02    -0.07  -0.01   0.05
   9   6     0.09  -0.02  -0.02    -0.09  -0.12  -0.09    -0.15  -0.03  -0.10
  10   1     0.02  -0.01  -0.02    -0.05  -0.05  -0.05    -0.05  -0.01  -0.04
  11   1     0.03   0.01   0.00    -0.04  -0.01  -0.01    -0.07  -0.02  -0.03
  12   1     0.03  -0.02   0.00     0.01  -0.05  -0.03    -0.03   0.01  -0.05
  13   6    -0.02   0.08  -0.11    -0.31   0.05   0.01    -0.16  -0.05   0.15
  14   1    -0.02   0.01  -0.04    -0.13  -0.02  -0.02    -0.06  -0.02   0.03
  15   1    -0.01   0.03  -0.04    -0.10   0.05   0.02    -0.03  -0.01   0.07
  16   1     0.00   0.05  -0.02    -0.09   0.03   0.01    -0.07  -0.03   0.05
  17   6     0.11   0.03   0.01     0.03   0.05   0.13    -0.02   0.00   0.14
  18   1     0.02   0.01  -0.01     0.00   0.03   0.05     0.01   0.00   0.07
  19   1     0.05  -0.01   0.02     0.05  -0.00   0.03     0.01   0.01   0.02
  20   1     0.04   0.04   0.01    -0.00   0.04   0.06    -0.03  -0.01   0.05
  21   1    -0.03  -0.01   0.00     0.03  -0.07  -0.02     0.01   0.07  -0.06
  22   6     0.04   0.08   0.05    -0.08   0.02   0.02    -0.05  -0.04  -0.01
  23   8    -0.02   0.09  -0.10    -0.17   0.06   0.02     0.05  -0.03   0.24
  24   7     0.08   0.10   0.15    -0.06  -0.08   0.05    -0.14  -0.06  -0.21
  25   1     0.02   0.03   0.02    -0.03  -0.03   0.01    -0.03  -0.02  -0.03
  26   1     0.04   0.03   0.07     0.00  -0.03   0.01    -0.06  -0.02  -0.10
  27   7     0.08   0.09   0.15    -0.00   0.06  -0.00    -0.09  -0.04  -0.12
  28   1     0.03   0.02   0.07     0.02   0.01   0.00    -0.04  -0.01  -0.08
  29   1     0.01   0.02   0.02    -0.00   0.03  -0.00    -0.00  -0.00   0.01
  30   6    -0.01   0.05   0.05     0.02   0.13   0.04     0.04   0.05  -0.00
  31   8    -0.01   0.09  -0.00     0.01   0.15   0.00     0.11   0.04   0.20
  32   7    -0.02   0.07   0.14     0.07   0.16   0.16     0.09   0.04  -0.05
  33   1    -0.01   0.03   0.04     0.02   0.04   0.06     0.04   0.01   0.03
  34   1    -0.01   0.01   0.05     0.02   0.04   0.05     0.01   0.02  -0.05
  35   7     0.00   0.00   0.05    -0.01   0.11  -0.03    -0.07   0.09  -0.19
  36   1    -0.00  -0.00   0.02    -0.00   0.03  -0.01    -0.02   0.03  -0.09
  37   1     0.00  -0.00  -0.01    -0.00   0.03  -0.03    -0.02   0.03  -0.04
  38   6     0.07  -0.00  -0.07     0.10   0.00  -0.03     0.04  -0.08   0.02
  39   8     0.07  -0.03  -0.11     0.08   0.07  -0.13     0.01   0.07  -0.04
  40   7     0.14  -0.06   0.00     0.10   0.08  -0.09     0.04  -0.27   0.15
  41   1     0.05  -0.03   0.00     0.02   0.06  -0.05     0.01  -0.06   0.04
  42   1     0.04  -0.01   0.00     0.04   0.01  -0.01     0.02  -0.10   0.05
  43   7     0.02   0.08  -0.11     0.15  -0.16   0.12     0.08  -0.10  -0.02
  44   1     0.01   0.03  -0.02     0.04  -0.06   0.05     0.03  -0.06   0.01
  45   1    -0.01   0.03  -0.04     0.04  -0.05   0.04     0.02   0.01  -0.03
  46   6    -0.13  -0.02  -0.01     0.04   0.01   0.04     0.01   0.03  -0.00
  47   8    -0.12   0.15  -0.17     0.17  -0.20   0.15     0.06   0.27  -0.21
  48   7    -0.17  -0.42   0.30    -0.08   0.14  -0.15    -0.02  -0.23   0.19
  49   1    -0.05  -0.13   0.10    -0.02   0.01  -0.06    -0.00  -0.05   0.03
  50   1    -0.05  -0.13   0.10    -0.05   0.08  -0.06    -0.01  -0.09   0.08
  51   7    -0.14   0.16  -0.12     0.03   0.14   0.14     0.01   0.02   0.06
  52   1    -0.04   0.01  -0.01    -0.02   0.08   0.02    -0.00  -0.03   0.05
  53   1    -0.02   0.12  -0.10     0.03   0.01   0.08     0.01   0.06  -0.03
                      7                      8                      9
                        a                      a                      a 
 Frequencies --    39.9682                46.4297                48.1408
 Red. masses --    12.0123                12.4320                12.5732
 Frc consts  --     0.0000                 0.0000                 0.0000
 IR Inten    --     4.2640                 1.1497                 2.3979
 Raman Activ --     0.0000                 0.0000                 0.0000
 Depolar     --     0.0000                 0.0000                 0.0000
 Atom AN      X      Y      Z        X      Y      Z        X      Y      Z
   1   8     0.08  -0.02  -0.11     0.06   0.00  -0.08     0.23  -0.03  -0.15
   2   6     0.13  -0.05  -0.02    -0.01   0.07   0.01     0.08   0.06  -0.11
   3   1     0.04  -0.02   0.00     0.01   0.04   0.01     0.03   0.05  -0.04
   4   1     0.06  -0.00  -0.01    -0.01   0.02   0.00     0.00   0.01  -0.03
   5   6     0.10  -0.09   0.01    -0.13   0.03   0.05     0.01   0.05  -0.09
   6   1     0.02  -0.03   0.00    -0.05  -0.02   0.01    -0.00   0.01  -0.03
   7   1     0.03  -0.02   0.02    -0.05   0.03   0.03     0.00   0.02  -0.02
   8   7     0.07  -0.13   0.01    -0.11   0.03   0.04    -0.02   0.04  -0.09
   9   6     0.07  -0.19  -0.08    -0.06  -0.08  -0.03    -0.07   0.14  -0.03
  10   1     0.01  -0.07  -0.02    -0.03  -0.05   0.00    -0.01   0.06  -0.01
  11   1     0.01  -0.06  -0.03    -0.01  -0.03  -0.02    -0.03   0.04  -0.00
  12   1     0.04  -0.05  -0.04    -0.00  -0.02  -0.02    -0.04   0.04   0.00
  13   6    -0.02  -0.14   0.08    -0.21   0.02   0.10     0.09   0.02  -0.12
  14   1    -0.02  -0.06   0.03    -0.09  -0.03   0.05     0.05   0.04  -0.05
  15   1    -0.01  -0.02   0.04    -0.09   0.05   0.04     0.05  -0.03  -0.04
  16   1    -0.00  -0.05   0.02    -0.04   0.00   0.02     0.01   0.00  -0.03
  17   6     0.13  -0.05   0.02    -0.03   0.13   0.03    -0.10  -0.07  -0.09
  18   1     0.03   0.00   0.02    -0.02   0.06   0.01    -0.02  -0.04  -0.03
  19   1     0.06  -0.01  -0.01     0.01   0.03   0.00    -0.06  -0.01  -0.02
  20   1     0.03  -0.02   0.01    -0.00   0.04   0.01    -0.04  -0.03  -0.03
  21   1     0.03   0.00  -0.02     0.01  -0.01  -0.02     0.05  -0.03  -0.03
  22   6    -0.07   0.07   0.01    -0.05  -0.02  -0.06     0.01  -0.07  -0.01
  23   8    -0.00   0.06   0.07    -0.32   0.05  -0.27     0.00  -0.12  -0.17
  24   7    -0.12   0.13  -0.08    -0.02  -0.21  -0.02    -0.01  -0.01  -0.04
  25   1    -0.02   0.04  -0.02    -0.06  -0.07  -0.05    -0.01   0.01  -0.04
  26   1    -0.05   0.04  -0.03     0.04  -0.06   0.03    -0.00   0.01   0.02
  27   7    -0.14   0.05  -0.00     0.21   0.07   0.13     0.03  -0.10   0.18
  28   1    -0.05   0.02  -0.00     0.10  -0.00   0.08     0.00  -0.02   0.06
  29   1    -0.02   0.00   0.02     0.04   0.04   0.02     0.00  -0.04   0.03
  30   6    -0.07  -0.12   0.03     0.04   0.01  -0.03    -0.06  -0.02   0.02
  31   8     0.01  -0.09   0.20     0.06   0.06  -0.11    -0.13  -0.07  -0.03
  32   7    -0.20  -0.15  -0.14    -0.10   0.00  -0.15    -0.02  -0.04  -0.00
  33   1    -0.06  -0.03  -0.03    -0.05   0.01  -0.09    -0.01  -0.02  -0.02
  34   1    -0.07  -0.04  -0.06    -0.03  -0.00  -0.03     0.01  -0.00   0.01
  35   7    -0.07  -0.15   0.04     0.18  -0.03   0.18    -0.04   0.03   0.10
  36   1    -0.04  -0.06  -0.02     0.04  -0.02   0.07    -0.00   0.02   0.04
  37   1     0.01  -0.05   0.03     0.06  -0.01   0.07    -0.02   0.01   0.03
  38   6     0.02   0.10  -0.08     0.04   0.02   0.09    -0.12  -0.00   0.03
  39   8     0.10  -0.18   0.08     0.11  -0.05   0.30    -0.14   0.09   0.09
  40   7     0.04   0.29  -0.20    -0.02  -0.10   0.16    -0.26   0.01  -0.04
  41   1     0.02   0.04  -0.03    -0.01  -0.07   0.09    -0.09   0.03  -0.01
  42   1    -0.01   0.13  -0.08    -0.03  -0.02  -0.00    -0.07  -0.02  -0.02
  43   7    -0.09   0.29  -0.17     0.03   0.24  -0.17    -0.02  -0.12   0.04
  44   1    -0.03   0.14  -0.08     0.00   0.07  -0.07    -0.01  -0.06  -0.00
  45   1    -0.01   0.05  -0.03     0.03   0.07  -0.04     0.02  -0.03   0.02
  46   6     0.02   0.09   0.09     0.08  -0.05  -0.05     0.13   0.04   0.11
  47   8     0.12   0.12   0.02     0.07   0.00  -0.09     0.30  -0.05   0.11
  48   7    -0.07   0.04   0.06     0.10  -0.10  -0.01    -0.00  -0.21   0.22
  49   1    -0.02   0.01  -0.01     0.03  -0.02  -0.01    -0.00  -0.09   0.04
  50   1    -0.04   0.01   0.03     0.03  -0.03   0.00    -0.03  -0.01   0.04
  51   7     0.01   0.13   0.21     0.09  -0.08  -0.06     0.14   0.39   0.06
  52   1    -0.02   0.03   0.07     0.03  -0.04  -0.01     0.01   0.11   0.03
  53   1     0.02   0.04   0.06     0.02  -0.02  -0.02     0.07   0.14   0.01
                     10                     11                     12
                        a                      a                      a 
 Frequencies --    54.5084                58.3455                63.1525
 Red. masses --    12.0110                12.3152                12.7695
 Frc consts  --     0.0000                 0.0000                 0.0000
 IR Inten    --     3.0103                 1.3575                 1.0898
 Raman Activ --     0.0000                 0.0000                 0.0000
 Depolar     --     0.0000                 0.0000                 0.0000
 Atom AN      X      Y      Z        X      Y      Z        X      Y      Z
   1   8    -0.03   0.07  -0.03     0.03   0.04   0.03    -0.09   0.13  -0.00
   2   6    -0.14   0.16   0.04     0.01   0.05   0.06     0.04   0.03   0.02
   3   1    -0.04   0.09  -0.02     0.01   0.02   0.02     0.01  -0.02   0.02
   4   1    -0.07   0.06   0.04     0.01   0.01   0.02     0.04   0.02  -0.00
   5   6    -0.13   0.04   0.11    -0.05   0.04   0.08     0.07   0.02   0.02
   6   1    -0.04  -0.01   0.06    -0.03  -0.01   0.02     0.02   0.02   0.00
   7   1    -0.05   0.03   0.05    -0.03   0.03   0.03     0.03  -0.00   0.01
   8   7    -0.06  -0.05   0.00    -0.00   0.08   0.07     0.03   0.00   0.04
   9   6     0.00  -0.15  -0.03     0.06  -0.05   0.01     0.01  -0.02  -0.02
  10   1    -0.00  -0.06   0.02    -0.01  -0.04  -0.00     0.00  -0.01  -0.01
  11   1     0.02  -0.06  -0.03     0.03  -0.01   0.00    -0.00  -0.01  -0.01
  12   1    -0.00  -0.03  -0.02     0.05  -0.02  -0.01     0.01   0.00  -0.02
  13   6    -0.04  -0.13   0.08    -0.13   0.09   0.12    -0.02   0.00   0.07
  14   1    -0.02  -0.06   0.06    -0.07  -0.02   0.05    -0.01  -0.01   0.01
  15   1    -0.03  -0.01   0.03    -0.07   0.07   0.04    -0.00   0.01   0.03
  16   1     0.01  -0.06  -0.00    -0.01   0.03   0.02    -0.01  -0.00   0.02
  17   6    -0.05   0.04  -0.14     0.10   0.20   0.07     0.06   0.02   0.07
  18   1    -0.03   0.03  -0.03     0.01   0.08   0.03     0.02   0.01   0.03
  19   1    -0.02   0.03  -0.06     0.06   0.05   0.01     0.03   0.00   0.02
  20   1    -0.00  -0.01  -0.06     0.04   0.07   0.02     0.01   0.01   0.03
  21   1    -0.01  -0.02   0.00     0.01   0.00   0.01    -0.02   0.06  -0.02
  22   6    -0.05   0.09   0.02     0.09   0.11  -0.06     0.06  -0.04   0.01
  23   8    -0.06   0.12   0.11     0.02   0.17  -0.05     0.05  -0.03   0.08
  24   7     0.01   0.05   0.14     0.08   0.02  -0.13    -0.06  -0.10  -0.26
  25   1     0.01   0.01   0.07    -0.00  -0.00  -0.05    -0.04  -0.03  -0.09
  26   1    -0.00   0.00   0.01     0.03   0.00  -0.04    -0.01  -0.03  -0.06
  27   7    -0.13   0.11  -0.23     0.22   0.16   0.02     0.20  -0.03   0.24
  28   1    -0.02   0.03  -0.04     0.07   0.04  -0.01     0.04  -0.01   0.01
  29   1    -0.02   0.03  -0.04     0.05   0.05  -0.01     0.04   0.00   0.05
  30   6     0.10  -0.03  -0.00     0.11  -0.16  -0.09    -0.07   0.02  -0.01
  31   8     0.13  -0.05   0.09     0.13  -0.15  -0.19    -0.10   0.07  -0.18
  32   7     0.10  -0.05  -0.12     0.20  -0.13   0.17    -0.22   0.02  -0.05
  33   1     0.03  -0.02  -0.03     0.06  -0.03   0.07    -0.08   0.02  -0.06
  34   1     0.03  -0.01  -0.05     0.05  -0.05   0.05    -0.05  -0.00   0.02
  35   7     0.10   0.01   0.01     0.05  -0.23  -0.27     0.07  -0.04   0.24
  36   1     0.03   0.00  -0.02     0.02  -0.05  -0.05     0.01  -0.02   0.09
  37   1     0.03   0.00   0.02     0.00  -0.06  -0.09     0.03  -0.01   0.05
  38   6     0.07   0.02   0.04    -0.17  -0.11  -0.04     0.06  -0.04  -0.02
  39   8     0.10  -0.00   0.10    -0.19  -0.18  -0.04     0.08  -0.04   0.01
  40   7    -0.02   0.22  -0.15    -0.17  -0.05  -0.08    -0.07   0.23  -0.28
  41   1    -0.02   0.09  -0.05    -0.04  -0.01  -0.02    -0.04   0.11  -0.09
  42   1    -0.01   0.06  -0.04    -0.05  -0.00  -0.02    -0.01   0.06  -0.07
  43   7     0.15  -0.15   0.16    -0.21  -0.11  -0.00     0.19  -0.37   0.23
  44   1     0.03  -0.02   0.02    -0.06  -0.02  -0.00     0.04  -0.06   0.02
  45   1     0.04  -0.06   0.05    -0.05  -0.04   0.00     0.04  -0.09   0.05
  46   6    -0.01  -0.08  -0.03    -0.04   0.04   0.07    -0.07   0.04  -0.05
  47   8    -0.05  -0.21   0.08     0.00   0.01   0.08    -0.12   0.18  -0.14
  48   7     0.02  -0.26   0.13    -0.10   0.02   0.07    -0.03   0.00   0.02
  49   1     0.00  -0.08   0.05    -0.03  -0.00   0.01    -0.01   0.02   0.01
  50   1     0.01  -0.02  -0.02    -0.03   0.02   0.01     0.00  -0.03   0.02
  51   7     0.00   0.20  -0.33    -0.05   0.12   0.09    -0.07  -0.07  -0.03
  52   1     0.01   0.05  -0.09    -0.02   0.04   0.03    -0.01  -0.04  -0.00
  53   1    -0.00   0.06  -0.10    -0.00   0.04   0.03    -0.03  -0.00  -0.03
                     13                     14                     15
                        a                      a                      a 
 Frequencies --    65.0005                68.1022                73.6550
 Red. masses --    12.8769                13.2675                12.7200
 Frc consts  --     0.0000                 0.0000                 0.0000
 IR Inten    --     4.4002                 3.6390                20.4831
 Raman Activ --     0.0000                 0.0000                 0.0000
 Depolar     --     0.0000                 0.0000                 0.0000
 Atom AN      X      Y      Z        X      Y      Z        X      Y      Z
   1   8    -0.04  -0.03   0.04    -0.02  -0.08  -0.01     0.07  -0.18   0.04
   2   6     0.07  -0.10   0.01    -0.05  -0.05  -0.02    -0.05  -0.08   0.01
   3   1     0.02  -0.06   0.02    -0.01  -0.01  -0.01    -0.01   0.00  -0.00
   4   1     0.05  -0.03  -0.02    -0.02  -0.02  -0.00    -0.04  -0.04   0.01
   5   6     0.06  -0.04  -0.03    -0.04  -0.04  -0.02    -0.07  -0.03  -0.00
   6   1     0.02   0.01  -0.02    -0.01  -0.01  -0.01    -0.02  -0.02   0.00
   7   1     0.03  -0.03  -0.02    -0.01  -0.01  -0.01    -0.03   0.00  -0.01
   8   7     0.01   0.00   0.03    -0.04  -0.04  -0.02    -0.00   0.04   0.00
   9   6    -0.02   0.02   0.01    -0.04  -0.05  -0.03     0.03   0.06   0.08
  10   1    -0.01   0.01  -0.01    -0.01  -0.02  -0.01     0.02   0.02   0.04
  11   1    -0.02   0.01   0.01    -0.01  -0.01  -0.01     0.02   0.02   0.02
  12   1    -0.00   0.00  -0.00    -0.01  -0.02  -0.01    -0.01   0.01   0.03
  13   6    -0.05   0.03   0.03    -0.06  -0.03  -0.01     0.05   0.07  -0.06
  14   1    -0.02   0.01  -0.01    -0.02  -0.01  -0.01     0.02   0.03  -0.02
  15   1    -0.01   0.01   0.02    -0.01  -0.01  -0.00     0.01   0.01  -0.04
  16   1    -0.02   0.02   0.02    -0.02  -0.01  -0.00     0.02   0.03  -0.02
  17   6     0.05   0.01   0.11    -0.02  -0.02  -0.02    -0.02   0.02  -0.02
  18   1     0.01  -0.00   0.02    -0.00   0.00   0.01    -0.01   0.00  -0.01
  19   1     0.03  -0.01   0.04    -0.00  -0.00  -0.01    -0.01   0.00   0.00
  20   1     0.01   0.02   0.04    -0.01  -0.01  -0.01    -0.00   0.01  -0.01
  21   1    -0.01   0.02  -0.01    -0.01  -0.03   0.01     0.00  -0.07  -0.02
  22   6    -0.11   0.07  -0.04     0.02   0.10   0.12     0.11   0.06   0.02
  23   8    -0.14   0.03  -0.31     0.17   0.08   0.29     0.20   0.08   0.21
  24   7    -0.01   0.21   0.20    -0.19   0.19  -0.32     0.06   0.06  -0.10
  25   1     0.01   0.07   0.02    -0.05   0.06  -0.10     0.02   0.01  -0.00
  26   1    -0.01   0.07   0.08    -0.08   0.06  -0.08    -0.00   0.01  -0.06
  27   7    -0.20   0.03   0.01     0.06   0.06   0.41     0.07   0.07  -0.09
  28   1    -0.04   0.01   0.08    -0.04   0.03   0.02     0.01   0.02  -0.05
  29   1    -0.06  -0.02  -0.00     0.01  -0.00   0.10     0.04   0.02   0.01
  30   6     0.09  -0.11   0.00     0.01  -0.05  -0.09     0.11   0.05   0.06
  31   8    -0.05  -0.32   0.05    -0.19  -0.23  -0.20     0.23   0.11   0.22
  32   7     0.33  -0.18  -0.15     0.24  -0.08  -0.09    -0.06   0.02  -0.23
  33   1     0.10  -0.10  -0.07     0.07  -0.07  -0.05    -0.03   0.02  -0.08
  34   1     0.12  -0.00  -0.06     0.11   0.01  -0.01    -0.03   0.01  -0.08
  35   7     0.08   0.13   0.10     0.01   0.14   0.02     0.18   0.05   0.18
  36   1     0.05   0.07   0.02     0.03   0.07   0.03     0.03   0.00   0.02
  37   1    -0.02   0.04   0.05    -0.03   0.04   0.01     0.06   0.01   0.08
  38   6    -0.01   0.02   0.02     0.05   0.09   0.03    -0.07  -0.04  -0.01
  39   8    -0.01   0.16   0.08     0.04   0.13   0.01    -0.04   0.06   0.16
  40   7    -0.16   0.03  -0.06     0.09  -0.02   0.13    -0.27  -0.15  -0.03
  41   1    -0.07   0.04  -0.01     0.03  -0.02   0.04    -0.11  -0.03   0.02
  42   1    -0.04  -0.02  -0.02     0.03  -0.01   0.04    -0.08  -0.06  -0.05
  43   7     0.14  -0.16   0.06     0.02   0.18  -0.04     0.06  -0.07  -0.16
  44   1     0.03  -0.05  -0.01     0.01   0.03   0.01     0.01  -0.04  -0.07
  45   1     0.04  -0.01   0.00     0.00   0.04  -0.00     0.05  -0.01  -0.04
  46   6    -0.01   0.05  -0.05    -0.01  -0.07  -0.02    -0.12  -0.04  -0.05
  47   8    -0.02   0.23  -0.19    -0.03  -0.19   0.08     0.04  -0.13  -0.12
  48   7    -0.01   0.06  -0.05     0.01  -0.04  -0.04    -0.29  -0.02  -0.21
  49   1    -0.00   0.03  -0.02     0.00  -0.02  -0.00    -0.08  -0.04  -0.08
  50   1    -0.00  -0.03   0.03     0.01   0.01  -0.03    -0.11  -0.01  -0.03
  51   7    -0.02  -0.15   0.11    -0.00  -0.00  -0.12    -0.15   0.02   0.15
  52   1    -0.00  -0.05   0.04     0.00   0.01  -0.04    -0.08   0.03   0.05
  53   1    -0.01  -0.02   0.01    -0.01  -0.02  -0.02    -0.01   0.01   0.07
                     16                     17                     18
                        a                      a                      a 
 Frequencies --    81.6276                86.1305                95.2398
 Red. masses --    12.3102                12.7288                13.0588
 Frc consts  --     0.0000                 0.0000                 0.0000
 IR Inten    --     0.8501                 3.8828                 7.9351
 Raman Activ --     0.0000                 0.0000                 0.0000
 Depolar     --     0.0000                 0.0000                 0.0000
 Atom AN      X      Y      Z        X      Y      Z        X      Y      Z
   1   8    -0.06   0.06  -0.04     0.14   0.09   0.03    -0.07  -0.14   0.10
   2   6     0.06  -0.05  -0.07     0.01   0.19   0.13    -0.11  -0.11  -0.03
   3   1     0.02  -0.05   0.00     0.01   0.09   0.02    -0.04  -0.03  -0.03
   4   1     0.05  -0.02  -0.05    -0.02   0.06   0.06    -0.06  -0.04  -0.01
   5   6     0.06   0.04  -0.13    -0.02   0.08   0.20    -0.06  -0.07  -0.07
   6   1     0.02   0.04  -0.06    -0.01  -0.00   0.07    -0.01  -0.02  -0.01
   7   1     0.04  -0.01  -0.04    -0.02   0.04   0.08    -0.02  -0.02  -0.03
   8   7    -0.07   0.10  -0.02     0.04   0.00   0.13    -0.02  -0.07  -0.10
   9   6    -0.13   0.11  -0.09     0.06  -0.01   0.13     0.00  -0.00   0.02
  10   1    -0.06   0.04  -0.07     0.03  -0.00   0.06     0.01   0.01   0.00
  11   1    -0.07   0.06   0.00     0.03  -0.02   0.02     0.01   0.02   0.01
  12   1    -0.01   0.01  -0.02     0.00   0.01   0.03    -0.01  -0.02   0.03
  13   6    -0.18   0.13  -0.00     0.14  -0.06   0.13     0.10  -0.06  -0.16
  14   1    -0.06   0.04  -0.03     0.05  -0.01   0.05     0.04  -0.01  -0.03
  15   1    -0.04   0.04   0.02     0.04  -0.03   0.03     0.02  -0.03  -0.07
  16   1    -0.07   0.05   0.01     0.04  -0.03   0.03     0.05  -0.02  -0.05
  17   6    -0.00   0.08   0.14    -0.02  -0.01   0.00    -0.09  -0.12  -0.15
  18   1     0.01   0.02   0.05    -0.01  -0.00  -0.01    -0.03  -0.04  -0.05
  19   1     0.02   0.01   0.04    -0.03   0.01  -0.00    -0.05  -0.03  -0.04
  20   1    -0.02   0.04   0.06     0.01  -0.02  -0.02    -0.02  -0.04  -0.05
  21   1    -0.00   0.04   0.01     0.02  -0.01  -0.00    -0.01  -0.02   0.04
  22   6     0.06   0.00  -0.04    -0.10  -0.00   0.02    -0.11   0.10   0.10
  23   8     0.12  -0.02  -0.05    -0.20   0.02  -0.05    -0.26   0.22   0.31
  24   7     0.07   0.06  -0.04    -0.08  -0.06   0.07    -0.14  -0.15   0.02
  25   1     0.03   0.02  -0.01    -0.04  -0.02   0.01    -0.07  -0.07   0.04
  26   1     0.01   0.02  -0.01    -0.01  -0.02   0.03    -0.01  -0.07  -0.03
  27   7     0.01  -0.02  -0.07    -0.04   0.02   0.07     0.05   0.21  -0.01
  28   1     0.00  -0.00   0.01     0.00  -0.00   0.03     0.04   0.04  -0.04
  29   1     0.01  -0.01   0.00    -0.02   0.01   0.00     0.02   0.08   0.01
  30   6     0.06  -0.11   0.09    -0.01  -0.01  -0.02     0.09  -0.02  -0.03
  31   8     0.14  -0.08   0.21    -0.09  -0.06  -0.12     0.13   0.01  -0.06
  32   7    -0.14  -0.16  -0.22    -0.00  -0.03  -0.09     0.02  -0.02  -0.09
  33   1    -0.05  -0.03  -0.09    -0.01  -0.02  -0.07    -0.00   0.00  -0.04
  34   1    -0.05  -0.04  -0.08     0.02   0.00  -0.01     0.00  -0.01  -0.02
  35   7     0.17  -0.12   0.33     0.08   0.04   0.19     0.16  -0.05   0.07
  36   1     0.03  -0.04   0.04     0.02   0.02   0.05     0.04  -0.02   0.02
  37   1     0.04  -0.03   0.07     0.00   0.01   0.01     0.04  -0.01   0.00
  38   6    -0.06   0.01  -0.05     0.07  -0.04  -0.24    -0.08  -0.02  -0.04
  39   8    -0.14   0.04  -0.32     0.02   0.09  -0.47    -0.13   0.02  -0.16
  40   7     0.16  -0.03   0.08     0.21  -0.19  -0.09    -0.03  -0.03  -0.00
  41   1     0.07   0.00  -0.02     0.07  -0.04  -0.05    -0.00   0.00  -0.02
  42   1     0.06  -0.00   0.07     0.07  -0.07   0.01     0.00  -0.02   0.02
  43   7    -0.17   0.01   0.11     0.04  -0.04  -0.19    -0.10  -0.09   0.06
  44   1    -0.03  -0.02   0.09     0.03  -0.05   0.00    -0.02  -0.02   0.02
  45   1    -0.08  -0.01   0.03    -0.00  -0.01  -0.06    -0.04  -0.00   0.00
  46   6     0.01  -0.02   0.05    -0.06  -0.01   0.03     0.14   0.11   0.05
  47   8    -0.09  -0.12   0.20     0.06  -0.09   0.01     0.10   0.30  -0.04
  48   7     0.11   0.03   0.08    -0.19  -0.04  -0.04     0.22   0.09   0.13
  49   1     0.03   0.01   0.05    -0.05  -0.02  -0.03     0.06   0.04   0.04
  50   1     0.05   0.03  -0.01    -0.07   0.01  -0.02     0.07  -0.02   0.06
  51   7     0.02   0.02  -0.14    -0.08   0.11   0.14     0.16  -0.05   0.10
  52   1     0.03   0.01  -0.06    -0.05   0.05   0.04     0.05  -0.03   0.03
  53   1    -0.01  -0.02  -0.03     0.01   0.04   0.06     0.03   0.01  -0.01
                     19                     20                     21
                        a                      a                      a 
 Frequencies --   105.3941               112.6272               128.5875
 Red. masses --    11.9705                11.8668                10.8263
 Frc consts  --     0.0000                 0.0000                 0.0000
 IR Inten    --    23.9112                 4.9781                15.9542
 Raman Activ --     0.0000                 0.0000                 0.0000
 Depolar     --     0.0000                 0.0000                 0.0000
 Atom AN      X      Y      Z        X      Y      Z        X      Y      Z
   1   8     0.01  -0.16   0.11     0.09   0.05  -0.05    -0.03   0.01   0.01
   2   6    -0.24   0.03   0.04     0.10   0.02  -0.07    -0.07   0.03  -0.03
   3   1    -0.06   0.07  -0.01     0.03  -0.01  -0.00    -0.02   0.02  -0.02
   4   1    -0.13  -0.02   0.03     0.04  -0.01  -0.04    -0.03   0.00  -0.01
   5   6    -0.33   0.05   0.05     0.07   0.10  -0.11    -0.05   0.06  -0.05
   6   1    -0.11  -0.03   0.02     0.02   0.05  -0.05    -0.02  -0.02   0.01
   7   1    -0.13   0.05   0.02     0.03   0.02  -0.04    -0.05   0.04  -0.03
   8   7    -0.21   0.11   0.01    -0.00   0.19  -0.02     0.15   0.15  -0.12
   9   6    -0.08   0.04   0.11    -0.08   0.35   0.08     0.33  -0.09  -0.12
  10   1    -0.02  -0.00   0.05    -0.00   0.14   0.01     0.06  -0.08  -0.01
  11   1     0.01   0.02   0.02    -0.03   0.11   0.03     0.13  -0.01  -0.05
  12   1    -0.03  -0.00   0.04    -0.05   0.09   0.05     0.13  -0.04  -0.04
  13   6    -0.17   0.13  -0.04     0.10   0.23  -0.12    -0.04   0.21  -0.08
  14   1    -0.05   0.03  -0.00     0.05   0.10  -0.06    -0.05   0.01  -0.01
  15   1    -0.06   0.04  -0.03     0.04   0.03  -0.06    -0.05   0.11  -0.02
  16   1    -0.03   0.04  -0.02     0.01   0.08  -0.02     0.02   0.07  -0.03
  17   6    -0.20   0.14  -0.08    -0.09   0.01   0.09     0.29   0.35  -0.14
  18   1    -0.07   0.05  -0.03    -0.00  -0.03   0.01     0.05   0.14  -0.04
  19   1    -0.06   0.04  -0.02    -0.05  -0.01   0.05     0.12   0.08  -0.04
  20   1    -0.04   0.04  -0.04    -0.04   0.01   0.04     0.11   0.12  -0.04
  21   1    -0.01  -0.07   0.02     0.02   0.01  -0.03    -0.00  -0.00   0.02
  22   6     0.09  -0.04  -0.02    -0.12  -0.00   0.09    -0.07  -0.17   0.08
  23   8     0.24  -0.11  -0.03    -0.23   0.06   0.20    -0.07  -0.18   0.20
  24   7     0.08   0.12  -0.05    -0.14  -0.17   0.06    -0.11  -0.25   0.04
  25   1     0.05   0.05  -0.02    -0.06  -0.06   0.04    -0.03  -0.08   0.04
  26   1    -0.01   0.05  -0.01    -0.01  -0.06  -0.00    -0.01  -0.08   0.01
  27   7    -0.03  -0.11   0.01    -0.04   0.06   0.01    -0.10  -0.19   0.02
  28   1    -0.03  -0.02   0.01     0.00   0.01  -0.01    -0.04  -0.05  -0.03
  29   1    -0.00  -0.05   0.01    -0.01   0.03   0.01    -0.02  -0.04   0.01
  30   6    -0.04  -0.09   0.04     0.01  -0.17  -0.01    -0.03  -0.01   0.05
  31   8    -0.03  -0.10   0.09     0.05  -0.16   0.01    -0.09  -0.10   0.13
  32   7    -0.04  -0.10   0.04     0.01  -0.17   0.07     0.07  -0.04  -0.06
  33   1    -0.01  -0.03   0.02     0.01  -0.04   0.04     0.03  -0.04  -0.01
  34   1    -0.02  -0.03   0.00    -0.01  -0.05   0.01     0.03   0.01  -0.03
  35   7    -0.08  -0.10  -0.02    -0.03  -0.23  -0.12    -0.06   0.12   0.07
  36   1    -0.03  -0.03  -0.02    -0.01  -0.07  -0.02    -0.01   0.05   0.00
  37   1    -0.01  -0.03  -0.01     0.01  -0.07  -0.02    -0.03   0.03   0.03
  38   6     0.14  -0.03  -0.07     0.13  -0.01   0.04    -0.03   0.01  -0.01
  39   8     0.17  -0.08  -0.07     0.19  -0.12   0.14    -0.04   0.05  -0.01
  40   7     0.19   0.03  -0.10     0.13   0.09  -0.03    -0.07  -0.02  -0.00
  41   1     0.06   0.01  -0.03     0.04   0.01  -0.00    -0.02  -0.01   0.01
  42   1     0.05   0.03  -0.03     0.02   0.05  -0.02    -0.01  -0.02  -0.00
  43   7     0.14  -0.04  -0.05     0.13   0.04  -0.00    -0.03   0.01  -0.03
  44   1     0.04   0.01  -0.02     0.03   0.02  -0.02    -0.01  -0.01  -0.00
  45   1     0.03   0.00  -0.02     0.04  -0.01   0.01    -0.01   0.00  -0.01
  46   6     0.11   0.07  -0.01    -0.07  -0.05  -0.05     0.00   0.01   0.02
  47   8     0.15   0.22  -0.13    -0.03  -0.11  -0.05    -0.02   0.01   0.03
  48   7     0.08   0.01   0.03    -0.12  -0.05  -0.09     0.02   0.02   0.03
  49   1     0.02   0.01  -0.01    -0.03  -0.03  -0.03     0.01   0.01   0.01
  50   1     0.01  -0.03   0.04    -0.04  -0.01  -0.02     0.01   0.00   0.01
  51   7     0.11  -0.01   0.13    -0.08   0.00  -0.04     0.00   0.01  -0.00
  52   1     0.02  -0.02   0.05    -0.03   0.01  -0.01     0.00   0.00  -0.00
  53   1     0.04   0.02   0.02    -0.01  -0.00  -0.00    -0.00  -0.00   0.00
                     22                     23                     24
                        a                      a                      a 
 Frequencies --   148.2169               169.2610               181.5378
 Red. masses --    12.4877                13.0169                12.7878
 Frc consts  --     0.0000                 0.0000                 0.0000
 IR Inten    --    10.7773                34.3588                40.6041
 Raman Activ --     0.0000                 0.0000                 0.0000
 Depolar     --     0.0000                 0.0000                 0.0000
 Atom AN      X      Y      Z        X      Y      Z        X      Y      Z
   1   8     0.26  -0.13  -0.13    -0.07  -0.00   0.13    -0.01  -0.01   0.11
   2   6     0.09   0.01   0.00    -0.06  -0.01   0.02    -0.06   0.01   0.02
   3   1     0.05   0.05   0.01    -0.03  -0.01  -0.01    -0.02   0.01  -0.01
   4   1     0.01  -0.00   0.01    -0.03  -0.01   0.01    -0.04  -0.00   0.01
   5   6    -0.09  -0.03   0.08     0.07   0.01  -0.02     0.04   0.03  -0.01
   6   1    -0.05  -0.06   0.02     0.04   0.04  -0.00     0.03   0.03   0.00
   7   1    -0.07   0.03   0.04     0.05  -0.02  -0.02     0.03  -0.01  -0.02
   8   7     0.02  -0.01   0.04     0.02  -0.04  -0.02     0.02   0.01  -0.03
   9   6     0.08  -0.06   0.07    -0.02  -0.04  -0.09     0.01  -0.03  -0.09
  10   1     0.03  -0.03   0.05    -0.01  -0.01  -0.04    -0.01  -0.02  -0.04
  11   1     0.05  -0.03  -0.00    -0.02  -0.01  -0.02    -0.00  -0.01  -0.02
  12   1     0.01  -0.00   0.01     0.00  -0.01  -0.03     0.02  -0.01  -0.03
  13   6     0.05  -0.00   0.01    -0.02  -0.08   0.04    -0.03  -0.03   0.04
  14   1     0.02   0.00   0.01    -0.01  -0.03   0.02    -0.02  -0.03   0.04
  15   1     0.01  -0.01  -0.01    -0.01  -0.01   0.03    -0.02   0.02   0.02
  16   1     0.02   0.00   0.00    -0.01  -0.03   0.01     0.01  -0.02  -0.00
  17   6     0.02   0.03  -0.04     0.04  -0.01  -0.02     0.05   0.04  -0.03
  18   1    -0.01   0.02  -0.02     0.01   0.01   0.01     0.02   0.02   0.01
  19   1     0.00   0.01  -0.00     0.02   0.01  -0.02     0.02   0.02  -0.03
  20   1     0.03   0.02  -0.02     0.00  -0.01  -0.01     0.01  -0.00  -0.01
  21   1     0.04  -0.06  -0.07    -0.02   0.00   0.02    -0.01  -0.01   0.01
  22   6     0.03   0.00  -0.02     0.12   0.05  -0.07    -0.12  -0.06   0.07
  23   8     0.00   0.02  -0.01    -0.03   0.16   0.01     0.02  -0.17  -0.01
  24   7     0.04  -0.03  -0.00     0.15  -0.17  -0.06    -0.15   0.16   0.06
  25   1     0.00  -0.01  -0.00     0.01  -0.07   0.01    -0.01   0.07  -0.01
  26   1     0.01  -0.01  -0.01     0.08  -0.07  -0.04    -0.08   0.07   0.04
  27   7     0.05   0.02  -0.04     0.23   0.15  -0.19    -0.22  -0.15   0.19
  28   1     0.02   0.00  -0.01     0.08   0.03  -0.04    -0.08  -0.03   0.03
  29   1     0.01   0.01  -0.01     0.06   0.05  -0.05    -0.07  -0.04   0.04
  30   6    -0.04  -0.05   0.02    -0.16  -0.17   0.08     0.11  -0.06  -0.09
  31   8    -0.03  -0.04   0.02    -0.16  -0.18   0.12     0.30   0.14  -0.20
  32   7    -0.05  -0.04   0.03    -0.14  -0.17   0.10    -0.16   0.00   0.09
  33   1    -0.02  -0.01   0.01    -0.02  -0.04   0.07    -0.07   0.07   0.03
  34   1    -0.02  -0.02   0.01    -0.03  -0.05   0.05    -0.09  -0.05   0.04
  35   7    -0.04  -0.05   0.02    -0.23  -0.11  -0.00     0.21  -0.36  -0.17
  36   1    -0.01  -0.01  -0.01    -0.05  -0.01  -0.03     0.04  -0.12   0.01
  37   1    -0.02  -0.01  -0.01    -0.08  -0.03   0.01     0.09  -0.11  -0.05
  38   6    -0.09   0.15   0.15     0.05   0.18  -0.02    -0.01   0.14   0.01
  39   8    -0.19   0.15  -0.11     0.03   0.49  -0.04    -0.04   0.37  -0.04
  40   7     0.13   0.23   0.23    -0.10  -0.05   0.06    -0.10  -0.01   0.08
  41   1     0.07   0.08   0.00    -0.07   0.04   0.01    -0.05   0.04   0.01
  42   1     0.06   0.08   0.12    -0.02  -0.06  -0.00    -0.02  -0.04   0.01
  43   7    -0.19   0.07   0.38     0.25   0.05  -0.09     0.14   0.03  -0.01
  44   1    -0.04   0.02   0.13     0.07  -0.08  -0.00     0.04  -0.07   0.02
  45   1    -0.07   0.03   0.09     0.09   0.03  -0.03     0.05   0.02  -0.00
  46   6     0.00  -0.04  -0.17     0.01  -0.01   0.01     0.01  -0.01  -0.01
  47   8     0.09   0.06  -0.34     0.01  -0.03   0.03     0.03  -0.02  -0.02
  48   7    -0.13  -0.16  -0.20     0.01   0.02   0.00    -0.01  -0.01  -0.03
  49   1    -0.03  -0.07  -0.08     0.00   0.00   0.01    -0.00  -0.01  -0.01
  50   1    -0.07  -0.09   0.01     0.00   0.01  -0.00    -0.01  -0.01  -0.00
  51   7    -0.02  -0.09  -0.01     0.01   0.01   0.02     0.01  -0.00   0.02
  52   1    -0.02  -0.00  -0.01     0.00   0.01   0.00    -0.00   0.01  -0.00
  53   1     0.02   0.04  -0.04     0.01   0.00   0.01     0.01   0.01  -0.00
                     25                     26                     27
                        a                      a                      a 
 Frequencies --   190.1890               235.2709               239.8645
 Red. masses --    10.4726                 6.7317                 8.8816
 Frc consts  --     0.0000                 0.0000                 0.0000
 IR Inten    --     7.3298                30.3233                 9.3864
 Raman Activ --     0.0000                 0.0000                 0.0000
 Depolar     --     0.0000                 0.0000                 0.0000
 Atom AN      X      Y      Z        X      Y      Z        X      Y      Z
   1   8    -0.14   0.07  -0.50     0.34  -0.10   0.00     0.48  -0.22   0.05
   2   6     0.15  -0.07  -0.05     0.16   0.02  -0.03     0.14   0.02  -0.03
   3   1     0.07  -0.06   0.07     0.06   0.04  -0.00     0.06   0.07  -0.02
   4   1     0.15   0.01  -0.05     0.02  -0.02  -0.02    -0.02  -0.03   0.00
   5   6    -0.24  -0.19   0.10    -0.04   0.03  -0.00    -0.00   0.04  -0.01
   6   1    -0.13  -0.16   0.02    -0.03  -0.03  -0.01    -0.01  -0.01  -0.02
   7   1    -0.15   0.03   0.07    -0.03   0.04   0.03    -0.01   0.03   0.02
   8   7    -0.02  -0.06   0.09    -0.04  -0.00  -0.02    -0.03   0.01  -0.03
   9   6     0.13  -0.07   0.28    -0.01  -0.02   0.01    -0.01  -0.00  -0.01
  10   1     0.09  -0.02   0.20    -0.02  -0.02  -0.03    -0.05  -0.01  -0.09
  11   1     0.11  -0.09   0.00    -0.00   0.03   0.02    -0.02   0.09   0.06
  12   1    -0.06   0.03   0.08     0.03  -0.04   0.02     0.07  -0.07   0.03
  13   6     0.07   0.11  -0.12    -0.02  -0.04  -0.00    -0.02  -0.04   0.01
  14   1     0.04   0.08  -0.08    -0.01  -0.03   0.02    -0.02  -0.06   0.06
  15   1     0.04  -0.02  -0.07    -0.02   0.01  -0.00    -0.05   0.04  -0.01
  16   1     0.00   0.08   0.00     0.01  -0.02  -0.01     0.05  -0.03  -0.03
  17   6    -0.01  -0.02   0.06    -0.06   0.01  -0.09    -0.05   0.01  -0.09
  18   1    -0.05  -0.02  -0.06    -0.02   0.01  -0.02     0.00   0.01   0.01
  19   1    -0.01  -0.07   0.09    -0.02   0.01  -0.03    -0.02   0.03  -0.06
  20   1     0.06   0.07   0.02    -0.01  -0.01  -0.04    -0.03  -0.04  -0.04
  21   1    -0.01   0.05  -0.08     0.09  -0.04   0.02     0.12  -0.10   0.04
  22   6     0.01   0.01   0.00     0.01  -0.00   0.00     0.00  -0.00   0.00
  23   8     0.02   0.00   0.00     0.01  -0.00   0.00     0.01  -0.01  -0.00
  24   7     0.01   0.04   0.00     0.00   0.01  -0.01    -0.00   0.00  -0.01
  25   1     0.00   0.01  -0.01     0.01   0.00   0.00     0.01   0.00   0.01
  26   1    -0.01   0.01  -0.01     0.00   0.00   0.01     0.01   0.00   0.01
  27   7     0.00   0.01   0.00    -0.00  -0.00  -0.00    -0.00  -0.01   0.00
  28   1     0.00   0.00   0.00    -0.00  -0.00  -0.00    -0.00  -0.00  -0.01
  29   1     0.00   0.00   0.00     0.00  -0.00   0.00    -0.00  -0.00  -0.00
  30   6     0.00  -0.03   0.00    -0.00   0.00   0.00    -0.01  -0.00   0.00
  31   8     0.05   0.00  -0.00     0.00   0.00   0.01    -0.00  -0.00   0.00
  32   7    -0.05  -0.03   0.03    -0.01   0.00  -0.00    -0.01  -0.00   0.01
  33   1    -0.02   0.01   0.01    -0.00   0.00   0.00    -0.00   0.00   0.00
  34   1    -0.02  -0.02   0.01     0.00  -0.00   0.00    -0.00  -0.00   0.00
  35   7     0.01  -0.08  -0.03    -0.00   0.00  -0.01    -0.01  -0.00  -0.00
  36   1     0.00  -0.02  -0.00     0.00   0.00   0.01    -0.00  -0.00  -0.00
  37   1     0.00  -0.02  -0.01     0.00  -0.00   0.00    -0.00  -0.00   0.00
  38   6     0.01   0.05  -0.03     0.02  -0.01  -0.02     0.01   0.01  -0.02
  39   8     0.01   0.19  -0.03     0.03   0.02   0.01     0.01   0.04   0.00
  40   7    -0.07  -0.06  -0.00    -0.03  -0.03  -0.03    -0.02  -0.02  -0.01
  41   1    -0.04   0.01   0.00    -0.02  -0.01   0.00    -0.01  -0.01   0.01
  42   1    -0.02  -0.04  -0.01    -0.01  -0.01  -0.02    -0.00  -0.02  -0.00
  43   7     0.10   0.01  -0.07     0.04   0.01  -0.06     0.04  -0.03  -0.00
  44   1     0.03  -0.03  -0.01     0.02  -0.04   0.01     0.00   0.04  -0.03
  45   1     0.03   0.01  -0.02     0.01  -0.01  -0.01    -0.01   0.03  -0.03
  46   6    -0.03   0.03   0.06    -0.11   0.06   0.07    -0.15   0.07   0.05
  47   8    -0.12   0.04   0.13    -0.21   0.05   0.14    -0.25   0.15   0.05
  48   7     0.08   0.05   0.14     0.04   0.22   0.04    -0.01   0.03   0.22
  49   1     0.02   0.07   0.02    -0.01  -0.09   0.18     0.01   0.15  -0.04
  50   1     0.04   0.07  -0.02     0.02  -0.21   0.24     0.04   0.20  -0.14
  51   7    -0.01  -0.00  -0.08    -0.15  -0.27   0.05    -0.12   0.04  -0.23
  52   1     0.02  -0.05   0.00     0.08   0.35  -0.34    -0.03  -0.35   0.17
  53   1    -0.03  -0.05   0.00    -0.03   0.25  -0.30    -0.13  -0.26   0.12
                     28                     29                     30
                        a                      a                      a 
 Frequencies --   265.4161               286.0665               296.3428
 Red. masses --     3.7683                 2.5827                 4.7596
 Frc consts  --     0.0000                 0.0000                 0.0000
 IR Inten    --     4.5895               130.2159                 9.7626
 Raman Activ --     0.0000                 0.0000                 0.0000
 Depolar     --     0.0000                 0.0000                 0.0000
 Atom AN      X      Y      Z        X      Y      Z        X      Y      Z
   1   8    -0.10   0.01  -0.27    -0.03   0.02   0.03     0.11  -0.10  -0.14
   2   6    -0.15   0.07  -0.07     0.06  -0.05   0.02    -0.29   0.21  -0.05
   3   1    -0.06   0.06  -0.08     0.02  -0.04   0.03    -0.10   0.17  -0.15
   4   1    -0.08   0.07   0.05     0.05  -0.02  -0.02    -0.22   0.09   0.11
   5   6     0.03  -0.09   0.00    -0.01   0.01   0.00     0.06  -0.05   0.03
   6   1     0.04   0.01   0.02    -0.01   0.00  -0.01     0.05   0.03   0.05
   7   1     0.03  -0.05  -0.03     0.00  -0.00   0.00     0.05  -0.04  -0.01
   8   7     0.05  -0.04   0.05    -0.03   0.01   0.01     0.06  -0.08   0.02
   9   6     0.06   0.04   0.18    -0.03   0.01   0.01     0.06  -0.09   0.01
  10   1    -0.09  -0.00  -0.16     0.01   0.01   0.04    -0.02  -0.04  -0.06
  11   1    -0.03   0.22   0.21     0.00  -0.03  -0.02     0.00   0.03   0.05
  12   1     0.17  -0.16   0.14    -0.04   0.03  -0.01     0.08  -0.08   0.02
  13   6     0.03   0.07  -0.05     0.01  -0.03   0.03    -0.06   0.12  -0.10
  14   1    -0.09  -0.21   0.24    -0.01  -0.04   0.05     0.05   0.25  -0.33
  15   1    -0.24   0.26  -0.13    -0.03   0.02  -0.01     0.20  -0.20   0.05
  16   1     0.34   0.03  -0.16     0.05  -0.02  -0.02    -0.32   0.11   0.15
  17   6     0.04  -0.11   0.15    -0.03   0.03  -0.05     0.12  -0.11   0.22
  18   1     0.12  -0.01   0.21    -0.04   0.01  -0.05     0.10  -0.03   0.15
  19   1     0.03   0.09  -0.12    -0.02  -0.02   0.02     0.07   0.02  -0.02
  20   1    -0.14  -0.20   0.04     0.03   0.04  -0.02    -0.06  -0.09   0.09
  21   1    -0.01  -0.02  -0.00    -0.01   0.02  -0.01     0.02  -0.10   0.03
  22   6     0.01  -0.00  -0.01     0.02   0.02  -0.00    -0.00   0.02  -0.01
  23   8     0.01  -0.01  -0.02     0.01   0.01  -0.03    -0.02   0.02  -0.02
  24   7     0.00   0.01  -0.01    -0.18  -0.03  -0.23    -0.04  -0.01  -0.05
  25   1     0.02   0.00   0.01     0.23   0.00   0.30     0.04  -0.00   0.06
  26   1     0.02   0.01   0.03     0.40   0.08   0.62     0.09   0.02   0.14
  27   7     0.01  -0.01   0.01     0.03  -0.01   0.08     0.01   0.02   0.01
  28   1    -0.02   0.00  -0.03    -0.16   0.05  -0.32    -0.02   0.01  -0.06
  29   1    -0.01   0.00  -0.01    -0.05   0.01  -0.08    -0.01   0.00  -0.01
  30   6    -0.01  -0.00   0.01     0.01  -0.00   0.01     0.01  -0.00  -0.00
  31   8    -0.01  -0.01   0.01     0.02  -0.00   0.03     0.02   0.00  -0.00
  32   7    -0.01  -0.00  -0.01    -0.02   0.00  -0.07     0.01  -0.01   0.01
  33   1     0.01  -0.00   0.02     0.03  -0.00   0.08    -0.00   0.00  -0.01
  34   1     0.01  -0.00   0.02     0.05  -0.01   0.08    -0.01  -0.00  -0.03
  35   7    -0.02   0.01   0.01     0.01   0.00   0.01     0.01  -0.02  -0.01
  36   1    -0.01   0.00  -0.02    -0.01  -0.00  -0.03     0.01  -0.00   0.02
  37   1    -0.00   0.00  -0.00     0.00  -0.00  -0.01     0.00  -0.00   0.00
  38   6    -0.00   0.01   0.00    -0.00  -0.00  -0.00     0.00   0.00   0.00
  39   8    -0.00   0.02  -0.00    -0.00  -0.01  -0.00     0.00   0.00   0.01
  40   7     0.00  -0.00   0.01     0.01  -0.00   0.00    -0.01   0.01  -0.00
  41   1    -0.00   0.01  -0.00     0.00   0.00  -0.00    -0.00  -0.01   0.01
  42   1    -0.00   0.01  -0.00     0.00   0.00   0.00     0.00  -0.02   0.01
  43   7     0.01   0.00   0.00    -0.00   0.00   0.00     0.00  -0.00   0.00
  44   1     0.00  -0.01   0.01    -0.00  -0.00   0.00    -0.00   0.01  -0.01
  45   1     0.00   0.00  -0.00     0.00  -0.00   0.00    -0.00   0.01  -0.00
  46   6     0.02   0.00  -0.01     0.01  -0.01  -0.00    -0.02   0.03   0.01
  47   8     0.02   0.01  -0.02     0.01  -0.01  -0.00    -0.04   0.05   0.00
  48   7     0.00  -0.02  -0.01    -0.00  -0.01  -0.01     0.00   0.01   0.05
  49   1     0.00   0.00  -0.01    -0.00  -0.00  -0.00     0.00   0.02  -0.00
  50   1    -0.00  -0.01   0.01    -0.00   0.00  -0.01     0.01   0.02  -0.00
  51   7     0.02  -0.02   0.03     0.01   0.01   0.01    -0.02  -0.05  -0.01
  52   1     0.01   0.05  -0.03    -0.00   0.00   0.01     0.01   0.02  -0.03
  53   1     0.02   0.04  -0.02     0.01   0.00   0.01    -0.02   0.01  -0.03
                     31                     32                     33
                        a                      a                      a 
 Frequencies --   315.4776               317.3039               338.2347
 Red. masses --     7.3932                 4.7064                 4.2701
 Frc consts  --     0.0000                 0.0000                 0.0000
 IR Inten    --     5.2484                43.6355                 5.6507
 Raman Activ --     0.0000                 0.0000                 0.0000
 Depolar     --     0.0000                 0.0000                 0.0000
 Atom AN      X      Y      Z        X      Y      Z        X      Y      Z
   1   8    -0.02  -0.31  -0.27    -0.03  -0.17  -0.16     0.14   0.07   0.18
   2   6    -0.18  -0.08   0.01    -0.08  -0.06   0.02     0.00   0.11  -0.07
   3   1    -0.05   0.04  -0.05    -0.02   0.01  -0.02    -0.01   0.05  -0.06
   4   1    -0.11  -0.01   0.06    -0.04  -0.01   0.03    -0.05   0.02   0.01
   5   6    -0.00  -0.03   0.02    -0.00  -0.02   0.01     0.09   0.02  -0.07
   6   1     0.02   0.02   0.02     0.01   0.01   0.01     0.03   0.01  -0.01
   7   1    -0.00  -0.03  -0.05    -0.00  -0.01  -0.03     0.04  -0.01  -0.01
   8   7     0.09   0.11   0.06     0.05   0.07   0.04     0.01  -0.05  -0.07
   9   6    -0.12   0.21  -0.14    -0.07   0.12  -0.07     0.11  -0.09   0.05
  10   1     0.08   0.12   0.12     0.03   0.07   0.05     0.22   0.00   0.38
  11   1    -0.05  -0.15  -0.16    -0.04  -0.07  -0.08     0.17  -0.32  -0.24
  12   1    -0.18   0.23  -0.13    -0.09   0.12  -0.07    -0.25   0.22  -0.08
  13   6     0.18  -0.09   0.21     0.11  -0.06   0.13    -0.21   0.15  -0.15
  14   1     0.07  -0.03   0.12     0.04  -0.04   0.10    -0.14  -0.08   0.02
  15   1     0.05  -0.01   0.08     0.00   0.02   0.04    -0.17   0.16  -0.08
  16   1     0.06  -0.09   0.02     0.07  -0.06  -0.01     0.07   0.09  -0.08
  17   6     0.12   0.14   0.08     0.05   0.09   0.02    -0.04  -0.21   0.11
  18   1     0.06   0.07   0.09     0.03   0.04   0.04     0.09  -0.08   0.14
  19   1     0.05   0.09  -0.04     0.03   0.05  -0.03    -0.02   0.02  -0.06
  20   1    -0.01  -0.02   0.02    -0.00  -0.01   0.00    -0.14  -0.17   0.05
  21   1    -0.01  -0.11  -0.04    -0.01  -0.06  -0.03     0.02   0.01   0.01
  22   6    -0.01  -0.00  -0.02     0.02   0.00   0.02     0.00  -0.00  -0.00
  23   8    -0.02  -0.00  -0.01     0.03  -0.00   0.02     0.00  -0.00  -0.01
  24   7     0.03   0.00   0.05    -0.05  -0.03  -0.08    -0.00   0.01  -0.00
  25   1    -0.03  -0.00  -0.03     0.04  -0.01   0.05     0.00   0.01  -0.00
  26   1    -0.05  -0.01  -0.08     0.09   0.01   0.13    -0.00   0.01   0.00
  27   7     0.01  -0.02   0.04    -0.02   0.02  -0.06     0.01   0.01  -0.00
  28   1    -0.04   0.01  -0.07     0.06  -0.01   0.13     0.01  -0.00   0.00
  29   1    -0.01  -0.00  -0.02     0.02  -0.01   0.03     0.00   0.01  -0.00
  30   6     0.02  -0.00   0.01    -0.04   0.02  -0.03    -0.00  -0.00   0.00
  31   8     0.01  -0.01   0.00    -0.02   0.02  -0.02    -0.00  -0.00   0.01
  32   7    -0.09   0.03  -0.16     0.15  -0.04   0.30     0.01  -0.01   0.01
  33   1     0.07  -0.01   0.18    -0.13   0.03  -0.33    -0.00  -0.00  -0.01
  34   1     0.17  -0.02   0.31    -0.31   0.04  -0.56    -0.01   0.00  -0.02
  35   7     0.02   0.01   0.02    -0.03  -0.00  -0.04    -0.01   0.00   0.01
  36   1    -0.02  -0.01  -0.09     0.03   0.02   0.15     0.00   0.00   0.00
  37   1     0.00   0.00  -0.02     0.00   0.00   0.03    -0.01   0.00  -0.00
  38   6     0.00  -0.02  -0.01     0.00  -0.00  -0.01    -0.00  -0.00  -0.01
  39   8     0.01  -0.02   0.00     0.00   0.00  -0.01    -0.01   0.00  -0.02
  40   7     0.01  -0.02  -0.01     0.00   0.01  -0.01    -0.01   0.00  -0.01
  41   1     0.00   0.01  -0.01     0.01  -0.01   0.00     0.00  -0.01   0.00
  42   1    -0.01   0.02  -0.01     0.01  -0.02   0.01     0.01  -0.03   0.02
  43   7    -0.01  -0.00  -0.01     0.01  -0.01  -0.00    -0.02  -0.01   0.01
  44   1    -0.00  -0.00   0.00    -0.00   0.01  -0.01    -0.01   0.03  -0.01
  45   1    -0.00  -0.00  -0.00    -0.00   0.00  -0.00    -0.01   0.00   0.00
  46   6    -0.01   0.04   0.03    -0.00   0.02   0.01    -0.02  -0.00   0.02
  47   8    -0.05   0.06   0.04    -0.02   0.03   0.02    -0.01   0.00   0.01
  48   7     0.02   0.03   0.07     0.01   0.02   0.03    -0.00   0.03  -0.00
  49   1     0.01   0.02   0.00     0.00   0.00   0.00    -0.00  -0.01   0.02
  50   1     0.01   0.03   0.00     0.00   0.00   0.01     0.00  -0.03   0.03
  51   7    -0.01  -0.05  -0.02    -0.00  -0.02  -0.01    -0.01   0.01  -0.02
  52   1     0.02   0.00  -0.03     0.01   0.01  -0.02    -0.00  -0.03   0.01
  53   1    -0.02  -0.00  -0.04    -0.01   0.00  -0.02    -0.01  -0.02   0.01
                     34                     35                     36
                        a                      a                      a 
 Frequencies --   351.3120               357.7773               363.0095
 Red. masses --     2.6047                 7.2372                 3.6302
 Frc consts  --     0.0000                 0.0000                 0.0000
 IR Inten    --    98.6558                 4.9178               112.4873
 Raman Activ --     0.0000                 0.0000                 0.0000
 Depolar     --     0.0000                 0.0000                 0.0000
 Atom AN      X      Y      Z        X      Y      Z        X      Y      Z
   1   8     0.02  -0.00   0.02     0.02   0.04   0.14     0.06  -0.01   0.02
   2   6    -0.01   0.01  -0.01     0.07   0.00   0.14    -0.08   0.09   0.04
   3   1    -0.01   0.01  -0.02     0.06  -0.01   0.14    -0.02   0.05  -0.00
   4   1    -0.01   0.01   0.01     0.08  -0.04  -0.03    -0.06   0.03   0.03
   5   6     0.04  -0.00  -0.01    -0.31   0.06   0.14    -0.00   0.03   0.04
   6   1     0.02   0.01  -0.00    -0.15  -0.12   0.07     0.01   0.02   0.03
   7   1     0.02  -0.01  -0.01    -0.20   0.13   0.07    -0.00   0.01   0.00
   8   7     0.01  -0.02  -0.01    -0.02   0.03  -0.05     0.01  -0.04  -0.02
   9   6     0.02   0.01   0.02    -0.12  -0.11  -0.38    -0.06  -0.03  -0.13
  10   1     0.02   0.01   0.03    -0.08  -0.07  -0.15    -0.02  -0.01  -0.04
  11   1     0.02  -0.01  -0.01    -0.10  -0.06  -0.09    -0.04  -0.04  -0.04
  12   1    -0.02   0.01   0.01     0.05  -0.01  -0.18    -0.02   0.01  -0.06
  13   6    -0.05   0.00  -0.00     0.26   0.06  -0.24     0.03   0.04  -0.11
  14   1    -0.03  -0.01  -0.01     0.12   0.05  -0.03    -0.02  -0.06   0.05
  15   1    -0.02   0.01   0.01     0.05  -0.02  -0.16    -0.08   0.08  -0.09
  16   1    -0.02   0.01   0.00     0.13   0.03  -0.09     0.13   0.03  -0.08
  17   6     0.01  -0.02  -0.02     0.07  -0.06   0.27     0.05  -0.10   0.15
  18   1    -0.01  -0.01  -0.03     0.13  -0.03   0.21    -0.10  -0.09  -0.17
  19   1    -0.01  -0.02   0.02     0.09   0.03  -0.01     0.01  -0.21   0.27
  20   1     0.02   0.02  -0.01    -0.14  -0.08   0.14     0.16   0.22   0.09
  21   1     0.01  -0.01   0.02    -0.01   0.03  -0.02     0.01  -0.04   0.03
  22   6     0.00  -0.00   0.01    -0.01  -0.00  -0.01     0.01  -0.00   0.01
  23   8     0.01  -0.00   0.01    -0.01  -0.00  -0.01     0.01  -0.01   0.02
  24   7    -0.02  -0.00  -0.02    -0.01   0.01  -0.00    -0.01   0.01  -0.01
  25   1     0.01   0.00   0.01     0.01   0.00   0.00     0.01   0.00   0.01
  26   1     0.01   0.00   0.02     0.01   0.01   0.03    -0.01   0.00  -0.00
  27   7    -0.01   0.01  -0.02     0.01   0.01  -0.00    -0.00   0.01  -0.02
  28   1     0.03  -0.01   0.06    -0.00   0.00  -0.01     0.03  -0.01   0.05
  29   1     0.01  -0.00   0.01     0.00   0.01  -0.00     0.01   0.00   0.00
  30   6    -0.00   0.01  -0.00    -0.00   0.00   0.00    -0.00  -0.00   0.00
  31   8    -0.01   0.01  -0.01    -0.00   0.00   0.01    -0.00  -0.00   0.01
  32   7     0.02   0.01   0.01     0.01  -0.00  -0.00    -0.01  -0.00  -0.01
  33   1    -0.01  -0.01  -0.04     0.00  -0.00  -0.00     0.00  -0.00   0.01
  34   1     0.00   0.01  -0.02     0.00   0.00  -0.00     0.01  -0.00   0.01
  35   7     0.00   0.01   0.03    -0.00  -0.00   0.00    -0.00  -0.00  -0.01
  36   1    -0.01  -0.00  -0.05    -0.00  -0.00  -0.01     0.01   0.01   0.03
  37   1     0.00  -0.00  -0.01     0.01  -0.00   0.00    -0.00   0.00   0.00
  38   6    -0.02  -0.03   0.03     0.00   0.00   0.01     0.01  -0.01   0.00
  39   8    -0.01  -0.03   0.03     0.00   0.00   0.01     0.00  -0.01  -0.00
  40   7     0.12  -0.19   0.09     0.02  -0.03   0.01    -0.05   0.10  -0.04
  41   1    -0.08   0.25  -0.12    -0.01   0.03  -0.01     0.04  -0.09   0.04
  42   1    -0.24   0.51  -0.33    -0.04   0.08  -0.05     0.10  -0.19   0.13
  43   7    -0.04   0.12  -0.09     0.01   0.01  -0.02     0.01   0.00   0.00
  44   1     0.08  -0.40   0.29     0.01  -0.05   0.03    -0.01   0.04  -0.03
  45   1     0.01  -0.09   0.05     0.00  -0.01   0.00     0.00  -0.00   0.00
  46   6    -0.01   0.05  -0.04    -0.00  -0.01   0.01    -0.00   0.08  -0.07
  47   8    -0.00   0.03  -0.04    -0.00  -0.01   0.01     0.01   0.02  -0.04
  48   7     0.00  -0.07   0.08     0.00   0.03  -0.03    -0.01  -0.15   0.16
  49   1     0.01   0.06  -0.05    -0.00  -0.02   0.02     0.01   0.11  -0.10
  50   1     0.01   0.19  -0.17    -0.00  -0.06   0.05     0.02   0.38  -0.35
  51   7    -0.02  -0.07   0.05     0.00   0.03  -0.02    -0.04  -0.17   0.12
  52   1     0.00   0.05  -0.04    -0.00  -0.04   0.03     0.02   0.21  -0.16
  53   1     0.01   0.05  -0.04    -0.00  -0.02   0.02     0.02   0.12  -0.10
                     37                     38                     39
                        a                      a                      a 
 Frequencies --   367.3087               377.1762               418.6254
 Red. masses --     3.3011                 3.1723                 3.6513
 Frc consts  --     0.0000                 0.0000                 0.0000
 IR Inten    --    90.7218               299.4416               279.3250
 Raman Activ --     0.0000                 0.0000                 0.0000
 Depolar     --     0.0000                 0.0000                 0.0000
 Atom AN      X      Y      Z        X      Y      Z        X      Y      Z
   1   8     0.08  -0.04  -0.07     0.01   0.00   0.01    -0.01   0.00  -0.00
   2   6    -0.16   0.14  -0.02    -0.00   0.01   0.00     0.01  -0.01   0.02
   3   1    -0.05   0.10  -0.07    -0.00   0.00  -0.00     0.00  -0.01   0.01
   4   1    -0.12   0.05   0.06    -0.00   0.00   0.00     0.01  -0.00  -0.00
   5   6     0.05   0.00   0.02     0.01  -0.00   0.01     0.01   0.01   0.00
   6   1     0.04   0.04   0.03     0.01   0.01   0.00     0.01   0.01  -0.00
   7   1     0.03  -0.02  -0.01     0.01  -0.01   0.01     0.01  -0.00  -0.00
   8   7     0.03  -0.07  -0.01    -0.01  -0.01   0.00    -0.00   0.02   0.01
   9   6    -0.06   0.00  -0.05    -0.02  -0.01  -0.00     0.01  -0.02  -0.01
  10   1    -0.02   0.02  -0.04    -0.00  -0.00   0.00    -0.01  -0.02   0.00
  11   1    -0.04   0.00  -0.00    -0.00  -0.01  -0.01     0.00  -0.01  -0.01
  12   1    -0.01   0.00  -0.02    -0.01   0.00  -0.00     0.01  -0.00  -0.01
  13   6    -0.00   0.00  -0.06    -0.00   0.00  -0.02     0.01   0.02  -0.00
  14   1    -0.03  -0.07   0.06    -0.00  -0.00  -0.00     0.00   0.01  -0.00
  15   1    -0.08   0.07  -0.06    -0.01   0.01  -0.01     0.00   0.00  -0.01
  16   1     0.11   0.01  -0.06     0.01   0.00  -0.01     0.01   0.01  -0.00
  17   6     0.09  -0.09   0.15    -0.00  -0.00   0.00    -0.02   0.00  -0.01
  18   1    -0.14  -0.09  -0.25    -0.02  -0.00  -0.02    -0.00  -0.00   0.00
  19   1     0.01  -0.25   0.33    -0.00  -0.02   0.02    -0.01   0.01  -0.00
  20   1     0.24   0.29   0.09     0.02   0.03   0.00    -0.01  -0.01  -0.00
  21   1     0.01  -0.05  -0.01     0.00  -0.00   0.00     0.00  -0.00   0.01
  22   6     0.00  -0.00   0.01    -0.03   0.03  -0.11     0.00   0.00   0.00
  23   8     0.01  -0.00   0.02    -0.05   0.05  -0.08     0.01   0.00   0.00
  24   7    -0.00   0.01  -0.00     0.16  -0.00   0.18    -0.00  -0.01  -0.01
  25   1     0.01   0.00   0.01    -0.07  -0.02  -0.06     0.00  -0.00   0.01
  26   1    -0.01   0.00  -0.00    -0.10  -0.05  -0.23     0.01  -0.00   0.00
  27   7     0.00   0.00  -0.01     0.09  -0.07   0.25    -0.01   0.00  -0.01
  28   1     0.01  -0.00   0.01    -0.32   0.08  -0.71     0.01  -0.00   0.03
  29   1     0.00   0.00  -0.00    -0.05   0.03  -0.05    -0.00  -0.00  -0.00
  30   6    -0.00  -0.00  -0.00    -0.01   0.01   0.03    -0.00   0.01   0.03
  31   8    -0.00  -0.00  -0.01    -0.00   0.00   0.04    -0.01  -0.00   0.04
  32   7     0.00  -0.00   0.01     0.05  -0.02   0.02    -0.02   0.01  -0.06
  33   1    -0.00  -0.00  -0.01     0.01   0.02   0.04     0.02  -0.01   0.04
  34   1    -0.00   0.00  -0.00    -0.14   0.01  -0.25     0.02   0.01   0.02
  35   7    -0.00   0.01   0.01    -0.01  -0.01  -0.03    -0.02  -0.04  -0.12
  36   1    -0.01  -0.00  -0.04     0.05   0.03   0.18     0.10   0.06   0.32
  37   1     0.00  -0.00  -0.00    -0.01   0.00   0.02    -0.02  -0.01   0.02
  38   6    -0.01   0.01  -0.01     0.00  -0.01   0.00    -0.00   0.10  -0.09
  39   8    -0.00   0.01  -0.00    -0.00  -0.01  -0.00     0.01   0.10  -0.05
  40   7     0.03  -0.07   0.03     0.01   0.00  -0.00     0.10  -0.23   0.10
  41   1    -0.02   0.06  -0.03     0.00  -0.01   0.01    -0.06   0.05   0.02
  42   1    -0.06   0.13  -0.09    -0.01   0.03  -0.02    -0.18   0.30  -0.27
  43   7    -0.00  -0.02   0.01    -0.00   0.01  -0.01    -0.01  -0.19   0.19
  44   1    -0.00   0.01  -0.01     0.01  -0.06   0.04    -0.13   0.52  -0.38
  45   1    -0.00   0.01  -0.01    -0.00  -0.01   0.00    -0.01   0.05  -0.01
  46   6    -0.01  -0.04   0.07    -0.00   0.01  -0.01     0.01   0.00  -0.00
  47   8    -0.02   0.00   0.04     0.00   0.00  -0.01     0.01  -0.01   0.00
  48   7    -0.00   0.14  -0.11     0.00  -0.01   0.01    -0.01  -0.04   0.03
  49   1    -0.01  -0.08   0.08     0.00   0.01  -0.01    -0.00   0.01  -0.02
  50   1    -0.02  -0.33   0.31     0.00   0.03  -0.03    -0.01   0.07  -0.06
  51   7     0.02   0.12  -0.11    -0.00  -0.01   0.01     0.00  -0.03   0.03
  52   1    -0.01  -0.17   0.11     0.00   0.01  -0.01     0.01   0.13  -0.09
  53   1    -0.03  -0.10   0.07     0.00   0.01  -0.01     0.01  -0.02   0.02
                     40                     41                     42
                        a                      a                      a 
 Frequencies --   423.4333               431.6457               457.0671
 Red. masses --     2.8356                 8.7813                 2.8751
 Frc consts  --     0.0000                 0.0000                 0.0000
 IR Inten    --   483.2599                 2.4957                11.5308
 Raman Activ --     0.0000                 0.0000                 0.0000
 Depolar     --     0.0000                 0.0000                 0.0000
 Atom AN      X      Y      Z        X      Y      Z        X      Y      Z
   1   8    -0.00  -0.01  -0.01     0.08   0.15   0.18    -0.01  -0.00   0.01
   2   6    -0.00   0.00   0.01    -0.00   0.10  -0.20    -0.01   0.00  -0.01
   3   1    -0.00   0.00  -0.00    -0.00   0.03  -0.06     0.00  -0.00   0.01
   4   1    -0.00   0.00   0.01    -0.03   0.01  -0.06     0.00  -0.01  -0.01
   5   6     0.00  -0.00   0.01    -0.13  -0.08  -0.10    -0.05   0.01  -0.01
   6   1     0.01   0.01  -0.00    -0.07  -0.10  -0.02    -0.03  -0.04   0.01
   7   1     0.00  -0.00  -0.00    -0.08   0.04   0.05    -0.05   0.04   0.01
   8   7     0.00  -0.00   0.01    -0.11  -0.23  -0.17     0.06   0.03  -0.05
   9   6    -0.00  -0.00   0.01    -0.18   0.16   0.25     0.06   0.07  -0.02
  10   1     0.00   0.00  -0.00     0.04   0.16   0.09     0.02   0.03  -0.02
  11   1    -0.00  -0.00   0.00    -0.04   0.07   0.08     0.01   0.03   0.00
  12   1    -0.00   0.00  -0.00    -0.18   0.03   0.16     0.02   0.01   0.01
  13   6    -0.00  -0.00   0.01    -0.02  -0.33  -0.15    -0.04  -0.02   0.05
  14   1    -0.00  -0.01   0.01     0.02  -0.08  -0.01    -0.03  -0.02   0.00
  15   1    -0.01   0.01  -0.00     0.01  -0.10  -0.03    -0.00   0.01   0.05
  16   1     0.01   0.00  -0.00    -0.01  -0.13  -0.06    -0.04  -0.02   0.02
  17   6    -0.00  -0.00  -0.00     0.35   0.19   0.10     0.02  -0.07   0.00
  18   1    -0.00   0.00  -0.00     0.07   0.17   0.12     0.02  -0.05  -0.01
  19   1    -0.00  -0.00   0.00     0.28   0.02  -0.04    -0.01  -0.03   0.02
  20   1     0.00   0.00  -0.00     0.07   0.10   0.07    -0.01  -0.02   0.01
  21   1    -0.00   0.00  -0.01     0.02   0.05   0.04    -0.00  -0.00   0.00
  22   6     0.01   0.01   0.01     0.00   0.01  -0.00    -0.01  -0.05   0.02
  23   8     0.02   0.00   0.01     0.01   0.01  -0.01    -0.04  -0.04   0.04
  24   7    -0.02  -0.02  -0.04     0.00  -0.03  -0.00    -0.03   0.06  -0.01
  25   1     0.01  -0.01   0.02    -0.01  -0.02   0.00     0.02   0.05  -0.05
  26   1     0.03  -0.00   0.03     0.02  -0.01  -0.00    -0.03   0.05   0.06
  27   7    -0.02   0.02  -0.04    -0.03  -0.01   0.01     0.06   0.01  -0.06
  28   1     0.06  -0.01   0.15    -0.01   0.00   0.02     0.08  -0.02   0.08
  29   1    -0.01  -0.01  -0.01    -0.01  -0.01   0.01     0.01   0.02  -0.03
  30   6    -0.01   0.03   0.07     0.00   0.01   0.00     0.06  -0.03  -0.10
  31   8    -0.03  -0.00   0.09    -0.01  -0.00   0.00    -0.03  -0.14  -0.08
  32   7    -0.05   0.04  -0.16    -0.01   0.01  -0.00    -0.07   0.01  -0.05
  33   1     0.07  -0.02   0.15    -0.00   0.01   0.01     0.17   0.18   0.70
  34   1     0.06   0.02   0.06    -0.01  -0.00   0.00    -0.36  -0.13  -0.29
  35   7    -0.02  -0.09  -0.23     0.00  -0.00  -0.01     0.10   0.14   0.12
  36   1     0.23   0.14   0.73     0.01   0.00   0.03     0.02   0.05  -0.05
  37   1    -0.07  -0.00  -0.00     0.00  -0.00  -0.00    -0.04   0.05  -0.03
  38   6    -0.00  -0.03   0.01    -0.01  -0.00  -0.00    -0.00  -0.01   0.00
  39   8    -0.01  -0.03  -0.02    -0.01   0.00   0.01    -0.00   0.00   0.02
  40   7    -0.01   0.12  -0.05     0.02   0.00   0.01     0.01  -0.01   0.00
  41   1     0.04  -0.17   0.11     0.01   0.01  -0.01     0.01   0.02  -0.02
  42   1     0.02  -0.03   0.01     0.01   0.01   0.01     0.00   0.02   0.00
  43   7    -0.00   0.06  -0.05     0.00  -0.02  -0.00    -0.00  -0.01  -0.01
  44   1     0.06  -0.26   0.21    -0.01   0.03  -0.03    -0.01   0.02  -0.02
  45   1    -0.01  -0.01  -0.00     0.01  -0.00  -0.00     0.00  -0.00  -0.00
  46   6     0.00  -0.00   0.00    -0.01  -0.01  -0.02    -0.00  -0.01  -0.01
  47   8    -0.00   0.00   0.00    -0.00  -0.02  -0.03    -0.01  -0.00  -0.01
  48   7     0.00   0.02  -0.03     0.02  -0.01  -0.00     0.02  -0.01   0.01
  49   1    -0.00  -0.01   0.01     0.00   0.00   0.02     0.01   0.02  -0.00
  50   1    -0.00  -0.05   0.05     0.02   0.02  -0.03     0.01  -0.01   0.00
  51   7     0.01   0.02  -0.02    -0.02   0.01   0.03    -0.01   0.01   0.01
  52   1    -0.00  -0.09   0.06    -0.02   0.01   0.01    -0.01   0.04  -0.01
  53   1    -0.00   0.01  -0.01     0.01   0.02   0.01     0.01  -0.02   0.04
                     43                     44                     45
                        a                      a                      a 
 Frequencies --   460.3906               461.1726               462.5812
 Red. masses --     6.1549                 2.5899                 8.1096
 Frc consts  --     0.0000                 0.0000                 0.0000
 IR Inten    --     6.6892                14.7278                 9.2823
 Raman Activ --     0.0000                 0.0000                 0.0000
 Depolar     --     0.0000                 0.0000                 0.0000
 Atom AN      X      Y      Z        X      Y      Z        X      Y      Z
   1   8    -0.02  -0.00   0.02    -0.02   0.02   0.01     0.01  -0.01   0.01
   2   6    -0.04   0.00  -0.10    -0.02   0.00  -0.04    -0.06  -0.01  -0.24
   3   1     0.00  -0.01   0.01    -0.00  -0.01  -0.01    -0.02  -0.02  -0.06
   4   1    -0.01  -0.03  -0.06    -0.00  -0.01  -0.02    -0.03  -0.03  -0.09
   5   6    -0.18   0.08  -0.10    -0.01   0.03  -0.05    -0.02   0.16  -0.27
   6   1    -0.10  -0.10   0.01    -0.00   0.01  -0.02     0.01   0.12  -0.12
   7   1    -0.14   0.11  -0.00     0.01   0.00  -0.01     0.07  -0.02  -0.08
   8   7     0.13   0.13  -0.18    -0.04   0.03  -0.01    -0.25   0.20  -0.03
   9   6     0.23   0.17  -0.04     0.04  -0.03   0.02     0.18  -0.24   0.09
  10   1     0.05   0.04  -0.02    -0.00  -0.03   0.01    -0.00  -0.19   0.11
  11   1     0.09   0.10   0.01     0.03   0.00   0.00     0.19  -0.04  -0.03
  12   1     0.07   0.00   0.04     0.02  -0.02   0.01     0.10  -0.10   0.03
  13   6    -0.08  -0.12   0.19     0.03  -0.03   0.02     0.22  -0.16   0.09
  14   1    -0.05  -0.07   0.05     0.02   0.00   0.02     0.16   0.02   0.13
  15   1     0.01   0.01   0.17     0.02  -0.02   0.01     0.10  -0.10   0.02
  16   1    -0.10  -0.12   0.04     0.01  -0.03  -0.01     0.07  -0.16  -0.04
  17   6     0.02  -0.20   0.09    -0.03   0.02   0.05    -0.20   0.13   0.30
  18   1     0.06  -0.15  -0.01    -0.00  -0.00   0.01    -0.03  -0.01   0.07
  19   1    -0.03  -0.09   0.09    -0.00  -0.00   0.02    -0.02  -0.01   0.12
  20   1    -0.05  -0.02   0.08    -0.01   0.02   0.02    -0.09   0.10   0.14
  21   1    -0.00   0.00   0.01    -0.01   0.01  -0.02     0.01  -0.00   0.03
  22   6    -0.01  -0.13   0.03    -0.00   0.00   0.00     0.00   0.04  -0.01
  23   8    -0.13  -0.06   0.10     0.00   0.00  -0.00     0.03   0.02  -0.03
  24   7     0.01   0.13   0.05    -0.00  -0.00  -0.00     0.00  -0.03  -0.01
  25   1    -0.07   0.15  -0.39    -0.00  -0.00  -0.00     0.01  -0.04   0.08
  26   1    -0.04   0.15   0.25     0.00   0.00   0.00     0.02  -0.04  -0.05
  27   7     0.15  -0.02  -0.12    -0.00   0.00  -0.00    -0.04   0.01   0.03
  28   1     0.05  -0.02  -0.16     0.00   0.00   0.00    -0.01   0.01   0.03
  29   1     0.07   0.07   0.01    -0.00  -0.00  -0.00    -0.01  -0.02   0.00
  30   6    -0.02  -0.01   0.03     0.01  -0.00  -0.01    -0.00   0.01  -0.01
  31   8     0.02   0.03   0.02    -0.00  -0.01  -0.01    -0.02  -0.01  -0.01
  32   7     0.01  -0.02   0.02    -0.00   0.00   0.00     0.01   0.01  -0.00
  33   1    -0.05  -0.05  -0.19     0.01   0.02   0.05     0.02   0.01   0.05
  34   1     0.09   0.03   0.08    -0.03  -0.01  -0.03    -0.02  -0.00  -0.02
  35   7    -0.05  -0.01  -0.04     0.01   0.01   0.01     0.01  -0.00   0.01
  36   1     0.02   0.02   0.06    -0.01  -0.00  -0.03    -0.01  -0.02  -0.03
  37   1    -0.02   0.00   0.01     0.00   0.00   0.00     0.02  -0.00   0.00
  38   6    -0.01   0.00  -0.00     0.03   0.02  -0.02     0.05   0.02   0.00
  39   8    -0.01   0.01  -0.00     0.04   0.01  -0.03     0.04  -0.01  -0.05
  40   7     0.01   0.00   0.00    -0.02  -0.05  -0.01    -0.05  -0.01  -0.01
  41   1     0.01   0.00  -0.00    -0.04  -0.01   0.03    -0.04  -0.06   0.07
  42   1     0.00   0.00   0.01    -0.03  -0.00  -0.05    -0.04  -0.02  -0.06
  43   7     0.01  -0.01  -0.00    -0.01   0.01   0.05    -0.01   0.04   0.05
  44   1    -0.00   0.01  -0.01    -0.02   0.08  -0.03     0.01  -0.02   0.07
  45   1     0.00  -0.00  -0.00    -0.01  -0.02   0.02    -0.03   0.01   0.01
  46   6    -0.01  -0.02  -0.02     0.04   0.03   0.11    -0.01  -0.02  -0.04
  47   8    -0.02  -0.01  -0.02     0.11  -0.01   0.11    -0.03  -0.01  -0.04
  48   7     0.03   0.00  -0.00    -0.15   0.10  -0.09     0.05  -0.02   0.01
  49   1     0.01   0.00   0.02    -0.06  -0.22   0.06     0.01   0.04   0.00
  50   1     0.02   0.00  -0.01    -0.11   0.18  -0.11     0.04  -0.03   0.01
  51   7    -0.01   0.02   0.03     0.05  -0.11  -0.04    -0.02   0.03   0.03
  52   1    -0.02   0.01   0.02     0.11  -0.48   0.23    -0.04   0.08  -0.02
  53   1     0.02   0.02   0.01    -0.06   0.40  -0.53     0.02  -0.05   0.09
                     46                     47                     48
                        a                      a                      a 
 Frequencies --   467.1645               468.5644               469.7218
 Red. masses --     4.2167                 6.0760                 5.1035
 Frc consts  --     0.0000                 0.0000                 0.0000
 IR Inten    --    13.0589                32.2618                 8.4616
 Raman Activ --     0.0000                 0.0000                 0.0000
 Depolar     --     0.0000                 0.0000                 0.0000
 Atom AN      X      Y      Z        X      Y      Z        X      Y      Z
   1   8    -0.00  -0.02  -0.01    -0.04   0.03   0.04    -0.02   0.02   0.02
   2   6    -0.02   0.00  -0.03    -0.02   0.00  -0.02    -0.01  -0.01  -0.03
   3   1     0.01   0.00   0.01     0.01  -0.01   0.02    -0.00  -0.01  -0.00
   4   1    -0.01  -0.01  -0.02     0.01  -0.01  -0.03     0.00  -0.00  -0.01
   5   6    -0.10   0.03  -0.03    -0.11   0.02  -0.02     0.02   0.03  -0.04
   6   1    -0.06  -0.07   0.02    -0.06  -0.07   0.02     0.02   0.04  -0.02
   7   1    -0.09   0.07   0.00    -0.09   0.07   0.01     0.03  -0.02  -0.02
   8   7     0.11   0.07  -0.09     0.09   0.03  -0.11    -0.07   0.02   0.01
   9   6     0.13   0.11  -0.05     0.09   0.13  -0.01     0.01  -0.07   0.03
  10   1     0.03   0.03  -0.03     0.03   0.05  -0.02    -0.01  -0.04   0.02
  11   1     0.04   0.05   0.00     0.02   0.07   0.02     0.03  -0.01  -0.00
  12   1     0.04   0.01   0.01     0.01   0.01   0.03     0.01  -0.03   0.01
  13   6    -0.06  -0.04   0.12    -0.08  -0.07   0.07     0.05  -0.02  -0.02
  14   1    -0.04  -0.04   0.02    -0.05  -0.04   0.01     0.04   0.01   0.02
  15   1     0.00   0.02   0.10    -0.01   0.01   0.09     0.02  -0.02  -0.02
  16   1    -0.07  -0.05   0.03    -0.07  -0.05   0.02     0.02  -0.02  -0.02
  17   6     0.01  -0.15   0.03     0.05  -0.12   0.02    -0.03   0.05   0.04
  18   1     0.04  -0.10  -0.01     0.04  -0.07  -0.00    -0.01   0.02   0.02
  19   1    -0.03  -0.05   0.04    -0.00  -0.04   0.02     0.01   0.01   0.01
  20   1    -0.03  -0.03   0.04    -0.02  -0.02   0.03    -0.01   0.02   0.02
  21   1    -0.00  -0.00   0.00    -0.01   0.01  -0.01    -0.01   0.01  -0.01
  22   6    -0.03   0.04  -0.04    -0.03   0.01  -0.02     0.02   0.00   0.01
  23   8     0.05  -0.01  -0.09     0.02  -0.02  -0.06     0.00   0.01   0.02
  24   7    -0.06   0.00  -0.05    -0.04   0.02  -0.03     0.02  -0.02   0.01
  25   1     0.20  -0.09   0.50     0.14  -0.05   0.33    -0.07   0.01  -0.16
  26   1    -0.05  -0.10  -0.28    -0.04  -0.06  -0.18     0.03   0.02   0.09
  27   7     0.01   0.04   0.10     0.02   0.03   0.06    -0.02  -0.01  -0.03
  28   1     0.01   0.01   0.05     0.01   0.00   0.01    -0.01   0.00   0.01
  29   1    -0.03   0.00  -0.03    -0.01   0.01  -0.02     0.00  -0.01   0.00
  30   6    -0.03   0.03   0.03     0.01  -0.01  -0.00    -0.06   0.05   0.03
  31   8    -0.02   0.05   0.02     0.02  -0.01  -0.00    -0.05   0.08   0.01
  32   7     0.05   0.01  -0.04    -0.01  -0.01   0.03     0.09   0.02  -0.08
  33   1     0.03  -0.04  -0.01    -0.03   0.01  -0.05     0.08  -0.06   0.07
  34   1     0.05   0.04  -0.01     0.00  -0.01   0.02     0.04   0.05  -0.06
  35   7    -0.01  -0.08  -0.01     0.00   0.02   0.00    -0.02  -0.12   0.01
  36   1     0.01  -0.02   0.09    -0.01  -0.00  -0.06     0.01  -0.04   0.13
[...]
  44   1    -0.03   0.00   0.01     0.15   0.00  -0.05    -0.01  -0.00   0.00
  45   1     0.06  -0.09  -0.18    -0.27   0.41   0.78     0.01  -0.02  -0.03
  46   6     0.00   0.00   0.00    -0.01  -0.01  -0.01     0.01  -0.00  -0.00
  47   8    -0.00  -0.00  -0.00     0.01   0.00   0.01     0.00   0.00   0.00
  48   7    -0.00  -0.00  -0.00     0.01   0.00   0.00     0.20  -0.06  -0.04
  49   1     0.01  -0.00   0.00    -0.04   0.00  -0.00    -0.91   0.03  -0.08
  50   1    -0.00  -0.00  -0.00     0.00   0.01   0.01     0.16   0.19   0.21
  51   7    -0.00  -0.00  -0.00    -0.00   0.00   0.00     0.00  -0.00   0.00
  52   1    -0.00  -0.00  -0.00     0.00   0.00   0.01    -0.01  -0.01  -0.02
  53   1    -0.00   0.00   0.00     0.01  -0.01  -0.01    -0.01   0.02   0.02
                    142                    143                    144
                        a                      a                      a 
 Frequencies --  3490.3379              3496.3339              3496.5989
 Red. masses --     1.4550                 1.4566                 1.4518
 Frc consts  --     0.0000                 0.0000                 0.0000
 IR Inten    --    16.5627                13.9303                13.2119
 Raman Activ --     0.0000                 0.0000                 0.0000
 Depolar     --     0.0000                 0.0000                 0.0000
 Atom AN      X      Y      Z        X      Y      Z        X      Y      Z
   1   8     0.00  -0.00  -0.00    -0.00  -0.00   0.00    -0.00  -0.00   0.00
   2   6    -0.00  -0.00   0.00    -0.00   0.00   0.00     0.00   0.00   0.00
   3   1     0.00  -0.00  -0.00     0.00  -0.00  -0.00     0.00   0.00  -0.00
   4   1    -0.00   0.00  -0.00    -0.00   0.00  -0.00     0.00  -0.00   0.00
   5   6     0.00  -0.00  -0.00    -0.00  -0.00  -0.00    -0.00  -0.00   0.00
   6   1    -0.00   0.00   0.00     0.00   0.00  -0.00    -0.00  -0.00   0.00
   7   1    -0.00  -0.00  -0.00     0.00   0.00   0.00     0.00   0.00  -0.00
   8   7    -0.00   0.00   0.00     0.00   0.00  -0.00     0.00  -0.00  -0.00
   9   6     0.00  -0.00  -0.00    -0.00   0.00  -0.00    -0.00   0.00  -0.00
  10   1    -0.00   0.00   0.00     0.00   0.00  -0.00     0.00  -0.00  -0.00
  11   1     0.00  -0.00   0.00     0.00  -0.00   0.00    -0.00   0.00   0.00
  12   1     0.00  -0.00   0.00    -0.00  -0.00  -0.00    -0.00   0.00   0.00
  13   6     0.00  -0.00  -0.00     0.00  -0.00  -0.00    -0.00  -0.00   0.00
  14   1    -0.00  -0.00  -0.00    -0.00   0.00  -0.00    -0.00  -0.00   0.00
  15   1     0.00  -0.00  -0.00    -0.00   0.00  -0.00     0.00   0.00  -0.00
  16   1     0.00  -0.00   0.00     0.00  -0.00   0.00    -0.00  -0.00   0.00
  17   6     0.00   0.00  -0.00    -0.00   0.00  -0.00    -0.00  -0.00   0.00
  18   1    -0.00  -0.00   0.00    -0.00   0.00  -0.00     0.00   0.00  -0.00
  19   1     0.00   0.00   0.00    -0.00  -0.00  -0.00    -0.00  -0.00  -0.00
  20   1    -0.00  -0.00   0.00     0.00  -0.00   0.00     0.00  -0.00   0.00
  21   1    -0.00   0.00   0.00     0.00  -0.00  -0.00     0.00  -0.00  -0.00
  22   6    -0.00  -0.00  -0.00     0.00  -0.00  -0.00     0.00   0.00  -0.00
  23   8     0.00   0.00   0.00     0.00  -0.00   0.00    -0.00  -0.00   0.00
  24   7     0.00   0.00  -0.00     0.03   0.00  -0.02     0.14   0.02  -0.11
  25   1    -0.00   0.00   0.00    -0.05   0.11   0.04    -0.27   0.55   0.19
  26   1    -0.00  -0.00   0.00    -0.05  -0.12   0.05    -0.25  -0.63   0.24
  27   7     0.00   0.00   0.00    -0.00  -0.00  -0.00    -0.01  -0.01   0.00
  28   1    -0.00  -0.00   0.00     0.01   0.01  -0.00     0.02   0.03  -0.00
  29   1     0.00  -0.00  -0.00    -0.01  -0.00   0.01     0.01  -0.00  -0.01
  30   6     0.00  -0.00  -0.00     0.00   0.00   0.00     0.00  -0.00  -0.00
  31   8    -0.00   0.00   0.00     0.00  -0.00  -0.00    -0.00   0.00   0.00
  32   7     0.00   0.00   0.00     0.03   0.18   0.02    -0.00  -0.03  -0.00
  33   1    -0.01  -0.00   0.00    -0.56  -0.19   0.22     0.11   0.04  -0.04
  34   1     0.00  -0.00  -0.00     0.46  -0.47  -0.29    -0.09   0.09   0.06
  35   7     0.00   0.00  -0.00     0.01  -0.01   0.00    -0.00   0.00  -0.00
  36   1    -0.01   0.01   0.00    -0.03   0.03   0.00     0.01  -0.01  -0.00
  37   1    -0.00  -0.01   0.00     0.00   0.01  -0.00    -0.00  -0.00   0.00
  38   6    -0.00  -0.00   0.00     0.00   0.00  -0.00     0.00  -0.00  -0.00
  39   8     0.00   0.00  -0.00    -0.00  -0.00   0.00    -0.00   0.00   0.00
  40   7    -0.05   0.06   0.17     0.00  -0.00  -0.00    -0.00  -0.00  -0.00
  41   1    -0.45  -0.35  -0.39     0.00   0.00   0.00     0.00   0.00   0.00
  42   1     0.64   0.15  -0.25    -0.01  -0.00   0.00    -0.00  -0.00   0.00
  43   7     0.01  -0.00  -0.01    -0.00  -0.00   0.00    -0.00  -0.00   0.00
  44   1    -0.03  -0.00   0.01     0.00   0.00  -0.00     0.00   0.00  -0.00
  45   1    -0.00   0.01   0.01    -0.00   0.00   0.00     0.00  -0.00  -0.00
  46   6    -0.00   0.00   0.00     0.00   0.00   0.00     0.00   0.00   0.00
  47   8     0.00  -0.00  -0.00    -0.00  -0.00  -0.00    -0.00  -0.00  -0.00
  48   7     0.00  -0.00  -0.00    -0.00   0.00   0.00    -0.00   0.00   0.00
  49   1    -0.00  -0.00   0.00     0.00   0.00   0.00     0.00   0.00   0.00
  50   1     0.00   0.00   0.00    -0.00  -0.00  -0.00    -0.00  -0.00  -0.00
  51   7    -0.00   0.00  -0.00    -0.00   0.00  -0.00    -0.00  -0.00  -0.00
  52   1     0.00   0.00   0.00     0.00   0.00   0.00     0.00   0.00   0.00
  53   1     0.00  -0.00  -0.00     0.00  -0.00  -0.00     0.00  -0.00  -0.00
                    145                    146                    147
                        a                      a                      a 
 Frequencies --  3502.3275              3520.6902              3530.4311
 Red. masses --     1.4562                 1.9183                 1.9246
 Frc consts  --     0.0000                 0.0000                 0.0000
 IR Inten    --    18.7604                10.8749                 9.3310
 Raman Activ --     0.0000                 0.0000                 0.0000
 Depolar     --     0.0000                 0.0000                 0.0000
 Atom AN      X      Y      Z        X      Y      Z        X      Y      Z
   1   8    -0.00   0.00   0.00     0.00  -0.00  -0.00    -0.00   0.00   0.00
   2   6     0.00   0.00   0.00    -0.00  -0.00   0.00     0.00  -0.00  -0.00
   3   1    -0.00   0.00   0.00     0.00  -0.00  -0.00    -0.00   0.00   0.00
   4   1     0.00  -0.00  -0.00    -0.00   0.00  -0.00     0.00  -0.00   0.00
   5   6     0.00  -0.00   0.00     0.00  -0.00  -0.00    -0.00  -0.00   0.00
   6   1    -0.00   0.00   0.00    -0.00   0.00   0.00    -0.00  -0.00  -0.00
   7   1     0.00   0.00   0.00     0.00   0.00  -0.00     0.00   0.00  -0.00
   8   7     0.00  -0.00  -0.00     0.00  -0.00   0.00    -0.00   0.00   0.00
   9   6     0.00  -0.00  -0.00     0.00  -0.00  -0.00    -0.00   0.00  -0.00
  10   1    -0.00   0.00   0.00    -0.00   0.00   0.00    -0.00  -0.00  -0.00
  11   1    -0.00   0.00  -0.00     0.00  -0.00  -0.00     0.00  -0.00   0.00
  12   1     0.00   0.00   0.00     0.00   0.00   0.00     0.00   0.00   0.00
  13   6     0.00  -0.00   0.00    -0.00  -0.00   0.00    -0.00   0.00   0.00
  14   1    -0.00   0.00   0.00     0.00  -0.00   0.00     0.00  -0.00  -0.00
  15   1     0.00   0.00  -0.00     0.00   0.00  -0.00     0.00   0.00  -0.00
  16   1    -0.00   0.00  -0.00    -0.00   0.00   0.00    -0.00  -0.00   0.00
  17   6    -0.00  -0.00   0.00     0.00  -0.00  -0.00    -0.00  -0.00   0.00
  18   1     0.00   0.00  -0.00    -0.00  -0.00  -0.00     0.00   0.00  -0.00
  19   1     0.00   0.00   0.00     0.00   0.00   0.00    -0.00   0.00   0.00
  20   1    -0.00   0.00  -0.00    -0.00  -0.00  -0.00    -0.00   0.00  -0.00
  21   1     0.01  -0.00  -0.00    -0.00   0.00   0.00     0.00  -0.00  -0.00
  22   6     0.00   0.00  -0.00     0.00  -0.00  -0.00    -0.01  -0.00   0.00
  23   8    -0.00  -0.00   0.00    -0.00   0.00   0.00     0.00   0.00  -0.00
  24   7     0.00   0.00  -0.00    -0.00  -0.00   0.00    -0.01   0.03   0.00
  25   1    -0.00   0.00   0.00     0.00  -0.00  -0.00     0.04  -0.07  -0.03
  26   1    -0.00  -0.00   0.00     0.00   0.00  -0.00    -0.01  -0.02   0.01
  27   7    -0.00  -0.00   0.00     0.00   0.00   0.00    -0.14  -0.21   0.04
  28   1     0.00   0.00  -0.00    -0.01  -0.01   0.00     0.46   0.82  -0.10
  29   1    -0.00   0.00   0.00     0.00   0.00  -0.00     0.09  -0.02  -0.06
  30   6    -0.00   0.00   0.00    -0.00   0.01  -0.00    -0.00   0.00   0.00
  31   8     0.00  -0.00  -0.00     0.00  -0.00   0.00     0.00  -0.00  -0.00
  32   7     0.00   0.00   0.00     0.02   0.01  -0.01     0.00  -0.00  -0.00
  33   1    -0.00  -0.00   0.00    -0.07  -0.03   0.03    -0.01  -0.00   0.00
  34   1     0.00  -0.00  -0.00    -0.00   0.00   0.00    -0.01   0.01   0.01
  35   7     0.00  -0.00  -0.00    -0.18   0.19   0.02    -0.00   0.00  -0.00
  36   1    -0.00   0.00   0.00     0.72  -0.62  -0.09     0.01  -0.01  -0.00
  37   1    -0.00  -0.00   0.00    -0.04  -0.11   0.00    -0.00  -0.01   0.00
  38   6    -0.00   0.00   0.00     0.00   0.00  -0.00     0.00  -0.00  -0.00
  39   8     0.00  -0.00  -0.00    -0.00  -0.00   0.00    -0.00   0.00   0.00
  40   7     0.00   0.00   0.00    -0.00  -0.00   0.00    -0.00  -0.00  -0.00
  41   1    -0.00  -0.00  -0.00     0.00   0.00   0.00     0.01   0.01   0.01
  42   1     0.00   0.00  -0.00     0.01   0.00  -0.00     0.01   0.00  -0.00
  43   7    -0.00  -0.00  -0.00    -0.00  -0.00  -0.00     0.03  -0.00  -0.01
  44   1     0.02   0.00  -0.01     0.01   0.00  -0.00    -0.12  -0.00   0.03
  45   1    -0.00   0.01   0.01    -0.00   0.00   0.00    -0.00   0.01   0.01
  46   6     0.00  -0.00   0.00     0.00   0.00   0.00    -0.00  -0.00  -0.00
  47   8    -0.00  -0.00  -0.00    -0.00  -0.00  -0.00     0.00   0.00   0.00
  48   7    -0.02  -0.00  -0.00     0.00  -0.00  -0.00    -0.00   0.00   0.00
  49   1     0.04  -0.00   0.00    -0.00  -0.00  -0.00     0.00   0.00   0.00
  50   1     0.01   0.02   0.02     0.00   0.00   0.00    -0.00  -0.00  -0.00
  51   7     0.18  -0.00   0.04     0.00  -0.00  -0.00     0.00   0.00   0.00
  52   1    -0.32  -0.37  -0.55    -0.00  -0.00  -0.00    -0.00  -0.00  -0.00
  53   1    -0.35   0.39   0.38    -0.00   0.00   0.00    -0.00  -0.00   0.00
                    148                    149                    150
                        a                      a                      a 
 Frequencies --  3530.4700              3544.7379              3552.8289
 Red. masses --     1.9362                 2.0555                 2.1704
 Frc consts  --     0.0000                 0.0000                 0.0000
 IR Inten    --    16.4063                29.9348                 9.9962
 Raman Activ --     0.0000                 0.0000                 0.0000
 Depolar     --     0.0000                 0.0000                 0.0000
 Atom AN      X      Y      Z        X      Y      Z        X      Y      Z
   1   8    -0.00   0.00   0.00     0.00  -0.00  -0.00     0.00  -0.00  -0.00
   2   6    -0.00   0.00   0.00     0.00   0.00  -0.00    -0.00  -0.00  -0.00
   3   1     0.00  -0.00  -0.00     0.00   0.00  -0.00    -0.00   0.00   0.00
   4   1     0.00  -0.00   0.00     0.00  -0.00   0.00    -0.00   0.00  -0.00
   5   6     0.00   0.00   0.00    -0.00  -0.00   0.00    -0.00   0.00   0.00
   6   1    -0.00  -0.00   0.00    -0.00   0.00  -0.00     0.00  -0.00  -0.00
   7   1    -0.00  -0.00   0.00     0.00   0.00  -0.00     0.00   0.00  -0.00
   8   7     0.00  -0.00  -0.00     0.00  -0.00   0.00     0.00  -0.00  -0.00
   9   6     0.00  -0.00  -0.00    -0.00  -0.00  -0.00    -0.00   0.00   0.00
  10   1    -0.00   0.00  -0.00    -0.00  -0.00  -0.00     0.00  -0.00  -0.00
  11   1     0.00  -0.00  -0.00    -0.00   0.00  -0.00    -0.00   0.00   0.00
  12   1     0.00   0.00   0.00     0.00   0.00   0.00    -0.00  -0.00  -0.00
  13   6    -0.00   0.00  -0.00    -0.00  -0.00   0.00    -0.00  -0.00   0.00
  14   1     0.00  -0.00  -0.00    -0.00   0.00   0.00     0.00   0.00   0.00
  15   1    -0.00  -0.00   0.00     0.00   0.00  -0.00    -0.00   0.00   0.00
  16   1    -0.00   0.00  -0.00    -0.00   0.00  -0.00    -0.00   0.00   0.00
  17   6    -0.00   0.00  -0.00    -0.00  -0.00   0.00    -0.00  -0.00   0.00
  18   1     0.00  -0.00   0.00     0.00   0.00  -0.00     0.00   0.00  -0.00
  19   1     0.00  -0.00   0.00     0.00   0.00   0.00    -0.00  -0.00  -0.00
  20   1     0.00  -0.00   0.00    -0.00   0.00  -0.00    -0.00   0.00  -0.00
  21   1     0.01  -0.00  -0.00    -0.01   0.00   0.00    -0.00   0.00   0.00
  22   6     0.00   0.00  -0.00     0.00   0.00  -0.00     0.00   0.00  -0.00
  23   8    -0.00  -0.00   0.00    -0.00  -0.00   0.00    -0.00  -0.00   0.00
  24   7     0.00  -0.00  -0.00    -0.00  -0.00   0.00    -0.00  -0.00   0.00
  25   1    -0.00   0.01   0.00    -0.00   0.00   0.00    -0.00   0.00   0.00
  26   1     0.00   0.00  -0.00     0.00   0.00  -0.00     0.00   0.00  -0.00
  27   7     0.02   0.03  -0.01     0.00   0.00  -0.00     0.00   0.00  -0.00
  28   1    -0.06  -0.11   0.01    -0.00  -0.00   0.00    -0.00  -0.00   0.00
  29   1    -0.01   0.00   0.01    -0.00   0.00   0.00    -0.00   0.00   0.00
  30   6     0.00  -0.00   0.00    -0.00   0.00   0.00    -0.00  -0.00   0.00
  31   8    -0.00   0.00   0.00     0.00  -0.00  -0.00    -0.00  -0.00  -0.00
  32   7    -0.00   0.00   0.00     0.00  -0.00  -0.00    -0.00   0.00   0.00
  33   1    -0.00  -0.00   0.00    -0.00  -0.00   0.00     0.01   0.00  -0.00
  34   1     0.00  -0.00  -0.00    -0.00   0.00   0.00     0.00  -0.00  -0.00
  35   7    -0.00   0.00   0.00    -0.00   0.00  -0.00     0.00  -0.00  -0.00
  36   1     0.00  -0.00  -0.00     0.00  -0.00  -0.00    -0.01   0.01   0.00
  37   1    -0.00  -0.00   0.00    -0.00  -0.00   0.00     0.00   0.01  -0.00
  38   6     0.01  -0.00  -0.01    -0.00  -0.00   0.00    -0.01  -0.00  -0.00
  39   8    -0.00   0.00   0.00     0.00  -0.00  -0.00     0.00   0.00  -0.00
  40   7    -0.03  -0.02  -0.01     0.00   0.00   0.00    -0.27  -0.12  -0.04
  41   1     0.07   0.05   0.06    -0.00  -0.00  -0.00     0.42   0.34   0.40
  42   1     0.05   0.01  -0.02    -0.00  -0.00   0.00     0.60   0.13  -0.26
  43   7     0.25  -0.01  -0.09    -0.00   0.00   0.00    -0.03   0.00   0.01
  44   1    -0.91  -0.02   0.23     0.00   0.00  -0.00     0.11   0.00  -0.03
  45   1    -0.02   0.06   0.11     0.00  -0.00  -0.00     0.00  -0.01  -0.02
  46   6    -0.00  -0.00  -0.00     0.01   0.00   0.00     0.00   0.00   0.00
  47   8     0.00   0.00   0.00    -0.00  -0.00  -0.00    -0.00  -0.00  -0.00
  48   7    -0.00   0.00   0.00     0.18   0.14   0.16     0.00   0.00   0.00
  49   1     0.00   0.00   0.00    -0.29   0.02  -0.01    -0.00   0.00  -0.00
  50   1    -0.00  -0.00  -0.00    -0.40  -0.54  -0.60    -0.00  -0.00  -0.00
  51   7     0.00   0.00   0.00     0.01  -0.02  -0.03     0.00  -0.00  -0.00
  52   1    -0.01  -0.01  -0.02     0.02   0.02   0.03     0.00   0.00   0.00
  53   1    -0.00   0.00   0.00    -0.06   0.07   0.06    -0.00   0.00   0.00
                    151                    152                    153
                        a                      a                      a 
 Frequencies --  3560.1894              3561.7910              3566.9992
 Red. masses --     2.1712                 2.1749                 2.1787
 Frc consts  --     0.0000                 0.0000                 0.0000
 IR Inten    --     8.9883                 7.4443                19.1173
 Raman Activ --     0.0000                 0.0000                 0.0000
 Depolar     --     0.0000                 0.0000                 0.0000
 Atom AN      X      Y      Z        X      Y      Z        X      Y      Z
   1   8     0.00   0.00  -0.00     0.00   0.00  -0.00    -0.00   0.00   0.00
   2   6    -0.00  -0.00  -0.00    -0.00  -0.00   0.00    -0.00  -0.00   0.00
   3   1     0.00  -0.00  -0.00     0.00  -0.00  -0.00    -0.00  -0.00   0.00
   4   1    -0.00   0.00  -0.00    -0.00   0.00  -0.00     0.00   0.00  -0.00
   5   6     0.00  -0.00  -0.00     0.00   0.00  -0.00     0.00  -0.00  -0.00
   6   1    -0.00   0.00   0.00     0.00   0.00  -0.00    -0.00   0.00   0.00
   7   1     0.00  -0.00  -0.00    -0.00  -0.00   0.00    -0.00   0.00   0.00
   8   7     0.00  -0.00  -0.00    -0.00  -0.00   0.00    -0.00   0.00  -0.00
   9   6     0.00  -0.00  -0.00     0.00  -0.00   0.00     0.00  -0.00   0.00
  10   1    -0.00   0.00   0.00    -0.00   0.00   0.00    -0.00   0.00   0.00
  11   1     0.00   0.00  -0.00     0.00   0.00  -0.00    -0.00   0.00  -0.00
  12   1     0.00   0.00   0.00    -0.00  -0.00  -0.00     0.00  -0.00  -0.00
  13   6    -0.00  -0.00   0.00     0.00   0.00  -0.00     0.00  -0.00   0.00
  14   1    -0.00  -0.00   0.00     0.00   0.00  -0.00    -0.00   0.00   0.00
  15   1     0.00  -0.00  -0.00    -0.00  -0.00   0.00    -0.00  -0.00   0.00
  16   1    -0.00   0.00  -0.00     0.00  -0.00   0.00    -0.00  -0.00   0.00
  17   6    -0.00  -0.00   0.00     0.00   0.00  -0.00     0.00   0.00   0.00
  18   1     0.00   0.00  -0.00    -0.00  -0.00   0.00    -0.00  -0.00   0.00
  19   1     0.00   0.00   0.00     0.00   0.00  -0.00    -0.00  -0.00  -0.00
  20   1    -0.00   0.00  -0.00     0.00  -0.00  -0.00     0.00   0.00   0.00
  21   1    -0.00   0.00   0.00    -0.00   0.00   0.00     0.01  -0.00  -0.00
  22   6    -0.00   0.00   0.00    -0.00   0.01   0.00    -0.00   0.00   0.00
  23   8    -0.00  -0.00   0.00     0.00  -0.00   0.00     0.00  -0.00  -0.00
  24   7    -0.00   0.01  -0.00    -0.02   0.30  -0.00    -0.00   0.00   0.00
  25   1     0.01  -0.02  -0.01     0.31  -0.59  -0.23     0.00  -0.00  -0.00
  26   1    -0.01  -0.02   0.01    -0.23  -0.54   0.23     0.00   0.00  -0.00
  27   7    -0.00  -0.00   0.00     0.01   0.02  -0.00     0.00   0.00  -0.00
  28   1     0.00   0.01  -0.00    -0.04  -0.07   0.01    -0.00  -0.00   0.00
  29   1     0.01  -0.00  -0.01    -0.01   0.00   0.01    -0.00   0.00   0.00
  30   6    -0.01   0.00   0.00     0.00  -0.00  -0.00    -0.00   0.00   0.00
  31   8     0.00  -0.00  -0.00    -0.00   0.00   0.00     0.00  -0.00  -0.00
  32   7    -0.27   0.05   0.13     0.01  -0.00  -0.01     0.00  -0.00  -0.00
  33   1     0.63   0.25  -0.23    -0.03  -0.01   0.01    -0.00  -0.00   0.00
  34   1     0.38  -0.43  -0.25    -0.02   0.02   0.01    -0.00   0.00   0.00
  35   7    -0.01   0.01   0.00     0.00  -0.00  -0.00     0.00   0.00  -0.00
  36   1     0.05  -0.04  -0.01    -0.00   0.00   0.00    -0.00   0.00   0.00
  37   1    -0.00  -0.01   0.00     0.00   0.00  -0.00    -0.00  -0.00   0.00
  38   6     0.00   0.00  -0.00    -0.00   0.00   0.00    -0.00  -0.00  -0.00
  39   8    -0.00  -0.00   0.00     0.00  -0.00  -0.00     0.00   0.00  -0.00
  40   7     0.00   0.00   0.00    -0.00  -0.00  -0.00     0.00   0.00   0.00
  41   1    -0.00  -0.00  -0.00     0.00   0.00   0.00    -0.00  -0.00  -0.00
  42   1    -0.01  -0.00   0.00     0.00   0.00  -0.00    -0.00  -0.00   0.00
  43   7     0.00  -0.00  -0.00    -0.00   0.00   0.00     0.00  -0.00  -0.00
  44   1    -0.00  -0.00   0.00     0.00   0.00  -0.00    -0.01  -0.00   0.00
  45   1    -0.00   0.00   0.00    -0.00  -0.00  -0.00    -0.00   0.00   0.01
  46   6    -0.00  -0.00  -0.00    -0.00  -0.00  -0.00     0.00  -0.01  -0.01
  47   8     0.00  -0.00  -0.00     0.00   0.00   0.00    -0.00   0.00   0.00
  48   7     0.00   0.00   0.00     0.00   0.00   0.00    -0.02  -0.02  -0.02
  49   1    -0.00   0.00  -0.00    -0.00  -0.00  -0.00     0.04  -0.00   0.00
  50   1    -0.00  -0.00  -0.00    -0.00  -0.00  -0.00     0.05   0.06   0.07
  51   7     0.00  -0.00  -0.00     0.00   0.00   0.00     0.03  -0.19  -0.23
  52   1     0.00   0.00   0.00    -0.00  -0.00  -0.00     0.29   0.30   0.46
  53   1    -0.00   0.00   0.00    -0.00   0.00   0.00    -0.40   0.42   0.40
