61
 energy: -95.581712973308 gnorm: 0.000944199564 xtb: 6.6.1 (unknown-commit)
O            0.32181861892688       -2.59544253959020        0.73019063014601
C            3.24341309563342        0.10996677969165       -0.10532376528344
H            2.54626271049694       -0.04684428306774       -0.91117084703186
H            3.44251213538635       -0.73573021469082        0.53122044135789
C            3.83698485707727        1.27281281296903        0.07504533318230
H            4.54568137495923        1.43651428881296        0.87247095898633
H            3.64433607352019        2.11883181065804       -0.56715089841707
N           -1.69771380015827        0.55857512318234       -0.15664555814312
C           -2.07439467330483       -0.73223999947600       -0.71473747163094
H           -1.90441464858734       -0.77941475628845       -1.79816572744790
H           -3.13020310681830       -0.91259096396454       -0.51268814141609
H           -1.49196412431815       -1.51156014604066       -0.22726358879157
C           -0.31536914113611        0.87677472558609       -0.47921805549095
H            0.33441253554794        0.14862778842911        0.00079493310488
H           -0.07485737264779        1.86811884948240       -0.09788238417787
H           -0.13199521701224        0.86001336129255       -1.56115546631250
C           -2.58248198193757        1.60906723512041       -0.62150341311110
H           -2.57685220609466        1.70541032514334       -1.71692263087675
H           -2.26536579981922        2.55714372306735       -0.18836690431437
H           -3.60073394666280        1.39296777547347       -0.29528949411126
H            0.69478744538956       -2.12459858622612       -0.02103435035634
C            0.83493534212227       -1.14367054250401       -3.30980569186760
O           -0.25628420175844       -0.89001605623233       -3.78980857300626
N            1.01506506554297       -2.03304310720860       -2.28728702245711
H            0.25650716570143       -2.66551265157555       -2.09544627547990
H            1.95550286237659       -2.35565035456039       -2.10814955604198
N            1.98458120885848       -0.49978374405972       -3.66053171927444
H            2.85978343684492       -0.95088738045457       -3.39447017385101
H            1.95674686100871        0.04733619441338       -4.50305438355603
C            3.48144214409008       -3.50702189911153        0.73295119373714
O            4.65648076036207       -3.05920052626710        0.91911190914383
N            2.53004806282705       -3.57845776805887        1.61917176811466
H            2.84824851012844       -3.27248767447293        2.53415806662855
H            1.13334028474366       -3.08260583262607        1.13893374632547
N            3.16282570436691       -4.01532790502604       -0.52320401446490
H            2.17984050620389       -4.19717677839035       -0.65055964402328
H            3.63154403619971       -3.57351946865599       -1.30363209418698
C            5.09979597742541       -1.45177720924878       -2.07192522973029
O            4.08134829088149       -1.98078325771627       -2.53109967825175
N            5.62964733754775       -0.33872175228360       -2.71658548533730
H            5.00095804616111        0.12906640776122       -3.34986418380567
H            6.20999365897016        0.27811297721560       -2.17248689068913
N            5.78979446610809       -1.93463811976294       -1.04972322974137
H            6.57463242768489       -1.39030391312076       -0.73082618907054
H            5.29713000714712       -2.53599195979568       -0.24910571610200
C           -0.29492278014238        0.21570704642719        3.29314652206655
O            0.03792244392301        0.85203804334324        4.29896524095231
N            0.50860037584279       -0.70573063574931        2.73156146120786
H            1.32347210502695       -0.97998826425451        3.25333494746393
H            0.20621957081989       -1.36216685589160        2.00472005144066
N           -1.49539089785099        0.42010294946655        2.68129648359036
H           -1.59022845654619        0.24082060327074        1.67882590254707
H           -1.99343122055434        1.23399621204229        3.00501535340977
C            0.65558814406380        3.34058065540285        2.20598755038457
O            0.43982813654214        3.95833499112938        1.17718883800184
N            1.72068820784176        2.50409975990548        2.36735653527933
H            2.19863053566364        2.19422292480293        1.53528196075839
H            1.69297464878945        1.85830574245562        3.14022862230936
N           -0.08713126620126        3.50065534789957        3.34396765626968
H           -0.09637980273871        2.72036400747048        3.99682407240921
H           -0.94677726425576        4.01170370983396        3.23160011681224
