 Entering Gaussian System
 *********************************************
 Gaussian 98:
 frequency output generated by the xtb code
 *********************************************
                         Standard orientation:
 --------------------------------------------------------------------
  Center     Atomic     Atomic              Coordinates (Angstroms)
  Number     Number      Type              X           Y           Z
 --------------------------------------------------------------------
    1          8             0       -1.246374   -0.090342   -0.489563
    2          6             0       -1.288785   -0.510326    0.854953
    3          1             0       -1.346548    0.394018    1.465757
    4          1             0       -2.199225   -1.103480    1.019358
    5          6             0       -0.122413   -1.409567    1.268879
    6          1             0       -0.040894   -2.198510    0.516418
    7          1             0       -0.368234   -1.860671    2.232085
    8          7             0        1.210428   -0.764075    1.388611
    9          6             0        2.198927   -1.796071    1.744716
   10          1             0        1.934797   -2.266432    2.690045
   11          1             0        3.176238   -1.324076    1.839151
   12          1             0        2.240084   -2.555737    0.966680
   13          6             0        1.217993    0.269149    2.436952
   14          1             0        0.839543   -0.136829    3.372137
   15          1             0        0.623481    1.125365    2.128514
   16          1             0        2.246098    0.607452    2.566618
   17          6             0        1.622314   -0.158425    0.110195
   18          1             0        1.487666   -0.870985   -0.700136
   19          1             0        2.666764    0.136228    0.193332
   20          1             0        1.029036    0.732014   -0.078725
   21          1             0       -0.920614   -0.856020   -1.028418
   22          6             0       -0.672502   -3.097308   -2.339423
   23          8             0       -0.117709   -2.206736   -1.687773
   24          7             0       -1.979626   -3.366963   -2.224511
   25          1             0       -2.544302   -2.918537   -1.501145
   26          1             0       -2.383382   -4.152000   -2.702518
   27          7             0        0.037035   -3.862119   -3.205119
   28          1             0       -0.411251   -4.515626   -3.820955
   29          1             0        0.986704   -3.602172   -3.403979
   30          6             0       -0.029782    3.405371   -0.119065
   31          8             0        0.675256    2.780252    0.665370
   32          7             0       -0.995527    2.804196   -0.847246
   33          1             0       -1.066504    1.793955   -0.821051
   34          1             0       -1.480707    3.297081   -1.574156
   35          7             0        0.122919    4.740572   -0.312101
   36          1             0       -0.546168    5.273820   -0.837416
   37          1             0        0.720246    5.242114    0.321225
   38          6             0        4.438598    2.019206    1.502435
   39          8             0        4.091409    0.852446    1.644877
   40          7             0        5.745664    2.381773    1.558792
   41          1             0        6.413612    1.685448    1.838037
   42          1             0        6.031928    3.343357    1.579706
   43          7             0        3.558938    3.018972    1.271959
   44          1             0        3.885077    3.948205    1.079323
   45          1             0        2.577610    2.820939    1.114802
   46          6             0       -4.525758   -1.340789   -0.698711
   47          8             0       -3.745543   -2.235740   -0.392820
   48          7             0       -5.866892   -1.498895   -0.603543
   49          1             0       -6.220535   -2.404208   -0.350426
   50          1             0       -6.515183   -0.807673   -0.932861
   51          7             0       -4.091004   -0.143575   -1.158199
   52          1             0       -4.720693    0.628331   -1.278641
   53          1             0       -3.097450    0.043305   -1.089165
 --------------------------------------------------------------------
     1 basis functions        1 primitive gaussians
     1 alpha electrons        1 beta electrons

 Harmonic frequencies (cm**-1), IR intensities (km*mol⁻¹),
 Raman scattering activities (A**4/amu), Raman depolarization ratios,
 reduced masses (AMU), force constants (mDyne/A) and normal coordinates:
                      1                      2                      3
                        a                      a                      a 
 Frequencies --    17.5650                20.2289                25.7717
 Red. masses --    12.1512                12.1736                11.9767
 Frc consts  --     0.0000                 0.0000                 0.0000
 IR Inten    --     0.0345                 0.5298                 0.5860
 Raman Activ --     0.0000                 0.0000                 0.0000
 Depolar     --     0.0000                 0.0000                 0.0000
 Atom AN      X      Y      Z        X      Y      Z        X      Y      Z
   1   8    -0.05  -0.02   0.06     0.12  -0.15  -0.04    -0.02   0.11  -0.16
   2   6    -0.03  -0.06   0.04     0.11  -0.15  -0.04     0.01   0.10  -0.13
   3   1    -0.02  -0.02   0.02     0.02  -0.05  -0.01     0.02   0.03  -0.04
   4   1    -0.00  -0.03   0.01     0.04  -0.05  -0.02    -0.00   0.04  -0.03
   5   6     0.00  -0.03   0.02     0.14  -0.12  -0.05    -0.01   0.06  -0.17
   6   1     0.01  -0.00   0.00     0.05  -0.03  -0.02    -0.01   0.02  -0.06
   7   1     0.00  -0.02   0.00     0.04  -0.04  -0.02    -0.00   0.01  -0.05
   8   7    -0.02   0.00   0.03     0.12  -0.07  -0.04     0.01   0.02  -0.17
   9   6    -0.00   0.03   0.07     0.15  -0.03  -0.05    -0.01  -0.02  -0.23
  10   1    -0.00   0.01   0.02     0.05  -0.01  -0.02    -0.00  -0.02  -0.07
  11   1    -0.00   0.01   0.02     0.04   0.00  -0.01     0.00  -0.01  -0.06
  12   1     0.01   0.00   0.03     0.05  -0.01  -0.02    -0.01   0.01  -0.08
  13   6    -0.06   0.02   0.01     0.06  -0.08  -0.02     0.04  -0.04  -0.10
  14   1    -0.03   0.01   0.00     0.02  -0.03  -0.01     0.01  -0.02  -0.03
  15   1    -0.02   0.00  -0.01     0.01  -0.03  -0.00     0.01  -0.00  -0.01
  16   1    -0.02   0.01   0.01     0.01  -0.01  -0.01     0.01  -0.02  -0.03
  17   6    -0.01  -0.02   0.02     0.09  -0.04  -0.03    -0.00   0.08  -0.13
  18   1     0.01  -0.01   0.01     0.04  -0.01  -0.01    -0.01   0.04  -0.05
  19   1    -0.00   0.00   0.01     0.02   0.00  -0.01     0.00   0.02  -0.04
  20   1    -0.00  -0.01  -0.00     0.01  -0.02  -0.01     0.00   0.03  -0.02
  21   1    -0.01   0.00   0.01     0.02  -0.04  -0.01    -0.01   0.03  -0.04
  22   6    -0.02   0.14  -0.13    -0.07  -0.10  -0.03    -0.09  -0.08   0.04
  23   8    -0.01   0.07  -0.04     0.02  -0.18  -0.04    -0.10   0.06  -0.17
  24   7    -0.03   0.16  -0.17    -0.11   0.06  -0.06    -0.04  -0.24   0.30
  25   1    -0.00   0.02  -0.03    -0.02   0.03  -0.02     0.00  -0.04   0.08
  26   1    -0.01   0.06  -0.07    -0.05   0.02  -0.01    -0.01  -0.09   0.12
  27   7    -0.04   0.26  -0.24    -0.15  -0.21  -0.00    -0.14  -0.12   0.02
  28   1    -0.01   0.09  -0.08    -0.06  -0.05   0.00    -0.05  -0.06   0.05
  29   1    -0.01   0.07  -0.05    -0.03  -0.09   0.00    -0.06  -0.01  -0.05
  30   6     0.11  -0.04  -0.20    -0.05  -0.11  -0.03     0.08   0.08   0.00
  31   8     0.05   0.01  -0.12    -0.09  -0.09   0.02     0.03   0.06   0.03
  32   7     0.10  -0.07  -0.17     0.01  -0.15  -0.09     0.12   0.12  -0.07
  33   1     0.01  -0.02  -0.01     0.01  -0.04  -0.02     0.02   0.03  -0.02
  34   1     0.04  -0.04  -0.07     0.01  -0.05  -0.04     0.04   0.04  -0.02
  35   7     0.23  -0.08  -0.39    -0.08  -0.11  -0.04     0.13   0.08   0.04
  36   1     0.07  -0.03  -0.13    -0.02  -0.04  -0.02     0.05   0.03   0.00
  37   1     0.06  -0.01  -0.12    -0.04  -0.02  -0.00     0.03   0.02   0.02
  38   6    -0.03   0.01   0.12    -0.07   0.15   0.09     0.00   0.02   0.14
  39   8    -0.05   0.01   0.10     0.02   0.14   0.00     0.03  -0.02  -0.08
  40   7    -0.03   0.01   0.24    -0.10   0.27   0.17    -0.01   0.04   0.31
  41   1    -0.01   0.00   0.07    -0.01   0.08   0.04    -0.00   0.00   0.06
  42   1    -0.01   0.00   0.07    -0.05   0.08   0.06    -0.01   0.01   0.13
  43   7    -0.01   0.02   0.08    -0.14   0.11   0.15    -0.01   0.04   0.28
  44   1     0.00   0.01   0.03    -0.06   0.04   0.06    -0.01   0.02   0.12
  45   1    -0.00   0.01   0.00    -0.03   0.01   0.02     0.00   0.01   0.04
  46   6    -0.03  -0.10   0.15     0.00   0.20   0.03    -0.00  -0.08   0.06
  47   8     0.02  -0.12   0.04    -0.08   0.13  -0.05     0.03  -0.01   0.23
  48   7    -0.02  -0.13   0.28    -0.01   0.36   0.12     0.00  -0.14   0.05
  49   1     0.01  -0.04   0.07    -0.02   0.10   0.02     0.01  -0.03   0.05
  50   1    -0.02  -0.03   0.10     0.01   0.11   0.04    -0.01  -0.05  -0.01
  51   7    -0.09  -0.07   0.20     0.10   0.18   0.05    -0.05  -0.13  -0.09
  52   1    -0.03  -0.02   0.09     0.05   0.07   0.04    -0.02  -0.05  -0.07
  53   1    -0.02  -0.01   0.04     0.03   0.02   0.00    -0.01  -0.02  -0.03
                      4                      5                      6
                        a                      a                      a 
 Frequencies --    34.2924                36.5394                40.9318
 Red. masses --    12.2575                11.9742                12.1560
 Frc consts  --     0.0000                 0.0000                 0.0000
 IR Inten    --     1.8925                 0.6175                 6.3363
 Raman Activ --     0.0000                 0.0000                 0.0000
 Depolar     --     0.0000                 0.0000                 0.0000
 Atom AN      X      Y      Z        X      Y      Z        X      Y      Z
   1   8    -0.06   0.03   0.10     0.04   0.05  -0.24    -0.11   0.02   0.06
   2   6    -0.02   0.04   0.10    -0.02   0.20  -0.16    -0.04  -0.04   0.03
   3   1     0.01   0.02   0.02     0.02   0.08  -0.08    -0.01  -0.02   0.02
   4   1    -0.01   0.03   0.04    -0.02   0.09  -0.03    -0.00  -0.02   0.01
   5   6    -0.05  -0.01   0.06    -0.12   0.12  -0.05     0.01  -0.01  -0.05
   6   1    -0.03  -0.00   0.01    -0.04   0.02  -0.00    -0.00   0.00  -0.02
   7   1    -0.01  -0.00   0.02    -0.06   0.05  -0.01     0.02  -0.01  -0.01
   8   7    -0.02  -0.07   0.03    -0.08   0.01  -0.00    -0.00   0.02  -0.10
   9   6    -0.03  -0.11  -0.10    -0.16  -0.07  -0.01     0.03   0.03  -0.16
  10   1     0.00  -0.05  -0.03    -0.07  -0.02  -0.01     0.03   0.00  -0.05
  11   1    -0.00  -0.04  -0.03    -0.04  -0.04   0.01     0.01   0.01  -0.06
  12   1    -0.03  -0.02  -0.04    -0.06  -0.01  -0.01     0.00   0.01  -0.05
  13   6     0.07  -0.13   0.10    -0.03  -0.02   0.02     0.02  -0.00  -0.08
  14   1     0.05  -0.06   0.03    -0.01  -0.01   0.00     0.01  -0.01  -0.02
  15   1     0.01  -0.03   0.06     0.00   0.01   0.01     0.00   0.00  -0.01
  16   1     0.02  -0.04   0.01    -0.00  -0.02   0.01     0.01   0.00  -0.03
  17   6    -0.07   0.01   0.05    -0.01   0.01   0.02    -0.07   0.05  -0.10
  18   1    -0.03   0.02   0.00    -0.01   0.01   0.00    -0.03   0.02  -0.03
  19   1    -0.02  -0.00   0.00     0.00  -0.02   0.01    -0.02   0.02  -0.04
  20   1    -0.02   0.01   0.04     0.01   0.01   0.01    -0.02   0.01  -0.02
  21   1    -0.02   0.01   0.02     0.02  -0.00  -0.03    -0.04   0.01   0.00
  22   6     0.01   0.03   0.04     0.11  -0.03  -0.02     0.09  -0.06   0.04
  23   8    -0.03   0.06   0.06     0.13  -0.08   0.04    -0.03   0.04   0.01
  24   7     0.02  -0.01   0.02     0.07   0.10  -0.19     0.07  -0.01  -0.20
  25   1    -0.00  -0.00  -0.00     0.02   0.02  -0.05    -0.01   0.01  -0.08
  26   1     0.01  -0.01   0.00     0.02   0.03  -0.05     0.05  -0.03  -0.03
  27   7     0.06   0.06   0.06     0.15  -0.11   0.07     0.29  -0.24   0.35
  28   1     0.03   0.01   0.01     0.04  -0.02   0.01     0.10  -0.07   0.08
  29   1     0.01   0.03   0.02     0.05  -0.05   0.05     0.08  -0.06   0.12
  30   6     0.12  -0.06   0.04    -0.03   0.01   0.01     0.01   0.05  -0.01
  31   8    -0.16  -0.06   0.32    -0.13  -0.04   0.07     0.06   0.08  -0.04
  32   7     0.29  -0.04  -0.18     0.13   0.04  -0.22    -0.08   0.05   0.11
  33   1     0.04  -0.01  -0.02     0.04   0.01  -0.08    -0.02   0.01   0.03
  34   1     0.13  -0.01  -0.09     0.05   0.02  -0.06    -0.03   0.01   0.03
  35   7     0.32  -0.10  -0.05    -0.07   0.04   0.19     0.04   0.04  -0.10
  36   1     0.14  -0.02  -0.07    -0.00   0.02   0.03     0.01   0.01  -0.02
  37   1     0.04  -0.03   0.03    -0.05   0.00   0.09     0.03   0.01  -0.05
  38   6    -0.10   0.08  -0.10    -0.05  -0.06  -0.01     0.03  -0.04   0.02
  39   8    -0.02   0.06  -0.18    -0.03  -0.07   0.04     0.01  -0.06  -0.17
  40   7    -0.11   0.14  -0.34    -0.05  -0.05  -0.10     0.03  -0.06   0.15
  41   1    -0.01   0.04  -0.14    -0.01  -0.01  -0.03     0.00  -0.03   0.02
  42   1    -0.04   0.04  -0.06    -0.02  -0.01  -0.03     0.01  -0.02   0.07
  43   7    -0.20   0.07   0.19    -0.08  -0.08   0.01     0.05   0.00   0.11
  44   1    -0.07   0.03   0.05    -0.03  -0.02  -0.01     0.02   0.01   0.07
  45   1    -0.06   0.01   0.08    -0.02  -0.03   0.02     0.02   0.01   0.01
  46   6    -0.02   0.00  -0.05     0.06   0.00   0.11    -0.09   0.03   0.01
  47   8    -0.00   0.02  -0.04     0.11  -0.02  -0.06    -0.04  -0.02  -0.31
  48   7    -0.02  -0.07  -0.18     0.08   0.08   0.54    -0.09  -0.07   0.04
  49   1     0.00  -0.02  -0.06     0.03   0.02   0.16    -0.01  -0.04  -0.06
  50   1    -0.01  -0.02  -0.04     0.01   0.01   0.15    -0.04  -0.00   0.07
  51   7    -0.03   0.05   0.05    -0.01  -0.04  -0.07    -0.19   0.19   0.34
  52   1    -0.02   0.01   0.01    -0.00  -0.00   0.03    -0.06   0.05   0.16
  53   1    -0.01   0.02   0.03     0.00  -0.01  -0.07    -0.05   0.05   0.08
                      7                      8                      9
                        a                      a                      a 
 Frequencies --    51.6556                55.2446                56.4016
 Red. masses --    12.6660                12.3500                12.8088
 Frc consts  --     0.0000                 0.0000                 0.0000
 IR Inten    --     2.1932                 1.0951                 1.2427
 Raman Activ --     0.0000                 0.0000                 0.0000
 Depolar     --     0.0000                 0.0000                 0.0000
 Atom AN      X      Y      Z        X      Y      Z        X      Y      Z
   1   8    -0.00  -0.05  -0.00    -0.00   0.06   0.02    -0.05   0.02   0.10
   2   6     0.02   0.15   0.06     0.04   0.15   0.05    -0.01   0.06   0.10
   3   1     0.03   0.07  -0.02     0.05   0.06  -0.00     0.02   0.03   0.02
   4   1    -0.00   0.07   0.05     0.00   0.07   0.04    -0.01   0.03   0.04
   5   6    -0.02   0.12   0.13    -0.01   0.08   0.04    -0.04   0.02   0.08
   6   1    -0.03   0.01   0.06    -0.03   0.02   0.02    -0.03  -0.00   0.03
   7   1    -0.01   0.07   0.05    -0.01   0.03   0.02    -0.00   0.02   0.03
   8   7     0.02   0.05   0.03     0.04  -0.01  -0.00    -0.01  -0.04  -0.01
   9   6    -0.02   0.01   0.02    -0.01  -0.08  -0.08    -0.03  -0.08  -0.08
  10   1     0.00   0.02   0.02    -0.00  -0.03  -0.02     0.00  -0.02  -0.02
  11   1     0.00  -0.01  -0.02     0.01  -0.04  -0.03     0.00  -0.04  -0.04
  12   1    -0.03  -0.01   0.02    -0.03  -0.02  -0.03    -0.03  -0.02  -0.03
  13   6     0.14   0.10  -0.02     0.14  -0.04   0.02     0.10  -0.04  -0.01
  14   1     0.05   0.05   0.01     0.05  -0.01   0.01     0.04  -0.01   0.00
  15   1     0.05   0.03  -0.01     0.05  -0.00   0.02     0.03  -0.01   0.01
  16   1     0.05   0.02  -0.03     0.05  -0.03  -0.00     0.04  -0.03  -0.02
  17   6    -0.01  -0.03  -0.02     0.01  -0.00  -0.01    -0.05  -0.05  -0.03
  18   1    -0.02  -0.02   0.01    -0.02   0.01  -0.00    -0.03  -0.01  -0.01
  19   1     0.00  -0.02  -0.02     0.01  -0.02  -0.01    -0.01  -0.02  -0.02
  20   1     0.01  -0.00  -0.01     0.01   0.01   0.01    -0.01  -0.01   0.00
  21   1    -0.01  -0.04   0.03    -0.01   0.00   0.02    -0.00   0.01   0.03
  22   6    -0.11  -0.03   0.02    -0.00   0.04   0.04     0.11   0.09   0.07
  23   8    -0.06  -0.27   0.30    -0.01   0.02   0.07     0.09   0.15   0.07
  24   7    -0.20   0.24  -0.29     0.00   0.02   0.06     0.17  -0.07   0.20
  25   1    -0.04   0.03  -0.05     0.00   0.00   0.02     0.04  -0.01   0.04
  26   1    -0.06   0.09  -0.12    -0.00   0.01   0.01     0.05  -0.01   0.04
  27   7    -0.11  -0.00   0.00    -0.01   0.10  -0.01     0.14   0.22  -0.02
  28   1    -0.03   0.05  -0.05    -0.00   0.03  -0.01     0.05   0.04   0.00
  29   1    -0.00  -0.05   0.06    -0.00   0.03  -0.00     0.03   0.09  -0.02
  30   6    -0.00   0.01  -0.01    -0.09  -0.06  -0.07    -0.14  -0.07  -0.09
  31   8     0.09   0.03  -0.08    -0.16  -0.08  -0.05    -0.11  -0.07  -0.13
  32   7     0.03  -0.04  -0.02     0.12  -0.09  -0.33    -0.30  -0.05   0.09
  33   1     0.02  -0.01  -0.01     0.03  -0.02  -0.09    -0.08  -0.01   0.03
  34   1    -0.02  -0.01   0.01     0.03  -0.01  -0.08    -0.08  -0.02   0.02
  35   7    -0.13   0.03   0.06    -0.23  -0.02   0.13    -0.06  -0.10  -0.23
  36   1    -0.05  -0.00   0.02    -0.05  -0.01   0.02    -0.03  -0.03  -0.05
  37   1    -0.03   0.01   0.01    -0.10  -0.01   0.07     0.01  -0.02  -0.09
  38   6     0.10   0.02   0.00     0.01  -0.06  -0.01    -0.02  -0.10  -0.03
  39   8     0.15  -0.02  -0.31     0.11  -0.11  -0.04     0.07  -0.18  -0.31
  40   7     0.10   0.05   0.06    -0.05   0.08   0.34    -0.06  -0.01   0.08
  41   1     0.03  -0.00  -0.03    -0.00   0.04   0.12    -0.00  -0.01  -0.02
  42   1     0.02   0.01   0.09    -0.03   0.03   0.05    -0.04   0.00   0.07
  43   7     0.07   0.07   0.33    -0.03  -0.18  -0.35    -0.11  -0.12   0.21
  44   1     0.01   0.03   0.12    -0.03  -0.03  -0.04    -0.04  -0.02   0.10
  45   1     0.03   0.01   0.04    -0.00  -0.06  -0.09    -0.02  -0.04   0.01
  46   6    -0.01  -0.10  -0.06     0.03   0.05   0.04     0.07   0.09  -0.02
  47   8    -0.01  -0.08   0.04     0.10   0.11   0.07     0.06   0.10   0.02
  48   7    -0.01  -0.12  -0.12     0.04  -0.14  -0.24     0.08   0.20   0.14
  49   1    -0.00  -0.03  -0.01     0.03  -0.05  -0.08     0.01   0.06   0.05
  50   1    -0.00  -0.04  -0.05    -0.00  -0.03  -0.03     0.03   0.04  -0.00
  51   7    -0.00  -0.14  -0.13    -0.04   0.16   0.29     0.11   0.02  -0.23
  52   1    -0.00  -0.04  -0.06    -0.03   0.03   0.05     0.04   0.02  -0.04
  53   1    -0.00  -0.03  -0.03    -0.01   0.06   0.08     0.03   0.00  -0.05
                     10                     11                     12
                        a                      a                      a 
 Frequencies --    59.4972                66.2634                69.5441
 Red. masses --    12.3838                12.4767                12.7922
 Frc consts  --     0.0000                 0.0000                 0.0000
 IR Inten    --     0.6779                 3.6921                 4.5526
 Raman Activ --     0.0000                 0.0000                 0.0000
 Depolar     --     0.0000                 0.0000                 0.0000
 Atom AN      X      Y      Z        X      Y      Z        X      Y      Z
   1   8     0.03  -0.03  -0.03    -0.10  -0.10   0.12    -0.01  -0.03   0.01
   2   6     0.01  -0.06  -0.04    -0.02  -0.14   0.09    -0.04   0.04   0.02
   3   1    -0.02  -0.02  -0.01    -0.02  -0.05   0.04    -0.01   0.02  -0.00
   4   1     0.01  -0.03  -0.02     0.01  -0.07   0.03    -0.02   0.02   0.01
   5   6     0.04  -0.01  -0.02     0.09  -0.04   0.03    -0.07   0.02   0.08
   6   1     0.03  -0.00  -0.01     0.04  -0.00   0.00    -0.03  -0.01   0.03
   7   1     0.01  -0.01  -0.01     0.05  -0.02   0.01    -0.03   0.02   0.03
   8   7     0.00   0.06   0.01     0.04   0.09  -0.02    -0.05  -0.03   0.04
   9   6     0.03   0.11   0.10     0.15   0.16  -0.13    -0.09  -0.04   0.11
  10   1     0.00   0.04   0.03     0.07   0.02  -0.04    -0.03   0.01   0.04
  11   1     0.00   0.05   0.03     0.03   0.07  -0.05    -0.02  -0.02   0.02
  12   1     0.03   0.02   0.04     0.05   0.06  -0.05    -0.04  -0.03   0.05
  13   6    -0.09   0.10  -0.03     0.00   0.03   0.04     0.01   0.05  -0.04
  14   1    -0.05   0.04  -0.01     0.02  -0.01   0.01     0.01   0.04   0.00
  15   1    -0.02   0.02  -0.03    -0.02   0.00   0.03     0.01   0.01  -0.02
  16   1    -0.03   0.03   0.01    -0.00   0.02   0.01     0.00   0.01  -0.03
  17   6     0.02   0.02   0.00    -0.08   0.19  -0.01    -0.02  -0.13  -0.01
  18   1     0.01   0.00   0.00    -0.03   0.07  -0.01    -0.01  -0.05   0.01
  19   1     0.01   0.00   0.00    -0.03   0.07  -0.02    -0.00  -0.04  -0.00
  20   1     0.01   0.01  -0.01    -0.04   0.05   0.03     0.00  -0.04  -0.02
  21   1     0.01  -0.01  -0.01    -0.01  -0.01   0.02    -0.02  -0.02   0.01
  22   6     0.02  -0.01  -0.03     0.02   0.06   0.04     0.01  -0.12  -0.02
  23   8     0.04   0.03  -0.09     0.02   0.09   0.02    -0.13  -0.14   0.10
  24   7     0.07  -0.13   0.14     0.04   0.03   0.06     0.09  -0.46   0.09
  25   1     0.02  -0.02   0.03    -0.00   0.01   0.01    -0.01  -0.12  -0.00
  26   1     0.01  -0.03   0.04     0.01   0.01   0.01     0.04  -0.10  -0.03
  27   7    -0.02   0.05  -0.12     0.04   0.06   0.06     0.09   0.21  -0.25
  28   1    -0.01  -0.00  -0.01     0.02   0.01   0.02     0.05   0.04  -0.07
  29   1    -0.01   0.03  -0.05     0.01   0.02   0.02     0.01   0.10  -0.06
  30   6    -0.06   0.01  -0.10    -0.01   0.01   0.03     0.10   0.01   0.03
  31   8     0.00   0.10  -0.11    -0.08   0.19   0.25     0.17  -0.04  -0.06
  32   7     0.12  -0.11  -0.24     0.29  -0.19  -0.18     0.13   0.03  -0.03
  33   1     0.05  -0.03  -0.06     0.07  -0.05  -0.01     0.04   0.01  -0.02
  34   1     0.01  -0.04  -0.05     0.07  -0.07  -0.06     0.01   0.02   0.02
  35   7    -0.33   0.06   0.02    -0.19   0.03  -0.01     0.01   0.04   0.20
  36   1    -0.10  -0.01  -0.00    -0.04  -0.03  -0.06    -0.00   0.02   0.06
  37   1    -0.12   0.03   0.02    -0.11   0.04   0.02     0.01   0.00   0.06
  38   6     0.02  -0.10   0.06     0.07  -0.07  -0.01     0.02   0.11  -0.05
  39   8    -0.01  -0.11   0.05     0.02  -0.07  -0.06    -0.00   0.12  -0.19
  40   7     0.07  -0.20  -0.31     0.07  -0.12   0.13     0.02   0.10   0.12
  41   1     0.02  -0.07  -0.12     0.01  -0.04   0.03    -0.00   0.02   0.03
  42   1     0.03  -0.06  -0.03     0.03  -0.04   0.01     0.01   0.03   0.05
  43   7     0.01  -0.02   0.49     0.13  -0.06  -0.13     0.06   0.15  -0.06
  44   1     0.01  -0.02   0.07     0.04  -0.01   0.02     0.02   0.04   0.01
  45   1     0.00   0.00   0.10     0.03   0.00  -0.00     0.02   0.04  -0.04
  46   6     0.01   0.06   0.05    -0.12  -0.05  -0.07    -0.06   0.01  -0.04
  47   8     0.03   0.06  -0.00    -0.23  -0.13  -0.08    -0.14  -0.13  -0.30
  48   7     0.01  -0.02  -0.09    -0.14   0.16   0.13    -0.08   0.16   0.14
  49   1     0.01  -0.01  -0.05    -0.06   0.05   0.03    -0.04   0.04  -0.02
  50   1    -0.00   0.01   0.01    -0.02   0.04  -0.01    -0.01   0.06   0.05
  51   7    -0.01   0.15   0.27    -0.02  -0.16  -0.28    -0.01   0.04   0.08
  52   1    -0.01   0.03   0.07     0.01  -0.02  -0.04     0.01   0.03   0.09
  53   1    -0.00   0.04   0.07    -0.00  -0.06  -0.05     0.00  -0.01   0.01
                     13                     14                     15
                        a                      a                      a 
 Frequencies --    78.2783                83.5186                89.4638
 Red. masses --    13.4689                12.8536                12.6441
 Frc consts  --     0.0000                 0.0000                 0.0000
 IR Inten    --     3.9926                 8.0199                10.2889
 Raman Activ --     0.0000                 0.0000                 0.0000
 Depolar     --     0.0000                 0.0000                 0.0000
 Atom AN      X      Y      Z        X      Y      Z        X      Y      Z
   1   8    -0.05   0.06   0.03     0.03   0.03  -0.13    -0.15   0.03   0.16
   2   6    -0.00  -0.01   0.01     0.09   0.20  -0.05    -0.05   0.04   0.14
   3   1     0.00  -0.01   0.02     0.06   0.08  -0.05     0.01   0.01   0.04
   4   1    -0.00  -0.00   0.00     0.01   0.09   0.03    -0.02   0.03   0.06
   5   6    -0.00  -0.04  -0.04     0.05   0.14  -0.03    -0.07  -0.03   0.04
   6   1    -0.01  -0.01  -0.02     0.00   0.04  -0.01    -0.04   0.00  -0.00
   7   1    -0.00  -0.02  -0.01     0.01   0.05  -0.01    -0.01  -0.02   0.01
   8   7     0.02  -0.10  -0.02     0.09   0.07  -0.02    -0.04  -0.09  -0.01
   9   6    -0.03  -0.12   0.04     0.05  -0.03  -0.17    -0.04  -0.15  -0.20
  10   1    -0.02  -0.02   0.02     0.01  -0.05  -0.07    -0.01  -0.08  -0.07
  11   1    -0.01  -0.05   0.02     0.02  -0.02  -0.03    -0.01  -0.05  -0.05
  12   1    -0.01  -0.04   0.02     0.00   0.03  -0.08    -0.03  -0.01  -0.09
  13   6     0.04  -0.05  -0.06     0.17  -0.05   0.09     0.08  -0.18   0.08
  14   1     0.01  -0.00  -0.01     0.06  -0.04   0.02     0.06  -0.08   0.03
  15   1     0.02  -0.02  -0.03     0.05  -0.00   0.06     0.01  -0.05   0.07
  16   1     0.01  -0.02  -0.02     0.06  -0.03   0.02     0.03  -0.05  -0.01
  17   6     0.09  -0.15  -0.03     0.07   0.17   0.03    -0.10   0.04   0.02
  18   1     0.03  -0.05  -0.00     0.00   0.07  -0.01    -0.06   0.04  -0.01
  19   1     0.03  -0.05   0.00     0.02   0.03   0.00    -0.02  -0.01  -0.01
  20   1     0.04  -0.04  -0.02     0.03   0.06   0.04    -0.02   0.03   0.05
  21   1     0.02   0.04  -0.00     0.00  -0.01  -0.01    -0.06   0.00   0.03
  22   6     0.07   0.18   0.06     0.00  -0.05   0.04    -0.10  -0.02  -0.03
  23   8     0.12   0.30  -0.09     0.01  -0.15   0.16    -0.27   0.07  -0.03
  24   7     0.07   0.24   0.12     0.02  -0.11   0.06    -0.09  -0.14  -0.13
  25   1     0.02   0.07   0.02    -0.01  -0.04   0.01    -0.04  -0.04  -0.04
  26   1     0.02   0.04   0.06    -0.00  -0.00  -0.02     0.00  -0.06  -0.03
  27   7     0.06   0.02   0.21    -0.01   0.10  -0.11     0.05   0.00   0.07
  28   1     0.01  -0.01   0.07     0.00   0.03  -0.03     0.04  -0.01   0.01
  29   1     0.01   0.00   0.03     0.00   0.02  -0.01     0.01   0.04   0.03
  30   6     0.06  -0.11  -0.08    -0.08  -0.03  -0.03     0.01  -0.05  -0.06
  31   8     0.21  -0.26  -0.32    -0.14  -0.07  -0.01     0.16   0.03  -0.14
  32   7     0.06  -0.04  -0.14    -0.19   0.03   0.05     0.06  -0.16  -0.03
  33   1     0.01  -0.01  -0.06    -0.05   0.01  -0.00     0.03  -0.04   0.01
  34   1    -0.03   0.02   0.02    -0.02   0.01  -0.01    -0.03  -0.05   0.01
  35   7    -0.07  -0.06   0.23     0.06  -0.07  -0.14    -0.20  -0.02  -0.05
  36   1    -0.03   0.00   0.10     0.02  -0.01  -0.03    -0.08  -0.03  -0.00
  37   1    -0.00  -0.04   0.07     0.02  -0.02  -0.04    -0.05   0.01  -0.03
  38   6     0.03   0.08   0.02     0.11  -0.02   0.13     0.05   0.11   0.08
  39   8     0.06   0.10   0.07     0.20  -0.01   0.44    -0.07   0.19   0.29
  40   7     0.04   0.12  -0.07     0.11   0.06  -0.15     0.11  -0.03  -0.07
  41   1     0.01   0.04  -0.00     0.04   0.04  -0.01     0.01  -0.02   0.02
  42   1    -0.00   0.03   0.00     0.01   0.02  -0.08     0.05  -0.01  -0.03
  43   7     0.00   0.08   0.10     0.03  -0.10   0.08     0.15   0.18   0.03
  44   1     0.00   0.01  -0.03    -0.01  -0.04  -0.05     0.07   0.03  -0.06
  45   1     0.01   0.00  -0.01     0.01  -0.05   0.04     0.04   0.06   0.01
  46   6    -0.18  -0.05  -0.01    -0.16  -0.04  -0.04     0.13   0.06  -0.03
  47   8    -0.24  -0.07   0.03    -0.22  -0.12  -0.16     0.25   0.16  -0.03
  48   7    -0.20   0.01  -0.00    -0.18   0.03  -0.01     0.16  -0.04   0.10
  49   1    -0.06   0.01   0.00    -0.06   0.01  -0.03     0.07  -0.02   0.04
  50   1    -0.05   0.00  -0.02    -0.04   0.02   0.01     0.02  -0.04   0.01
  51   7    -0.15  -0.10  -0.08    -0.12  -0.03   0.04     0.00   0.06  -0.18
  52   1    -0.03  -0.02  -0.03    -0.02   0.01   0.04    -0.02   0.00  -0.03
  53   1    -0.04  -0.03  -0.01    -0.03  -0.02   0.00    -0.00   0.04  -0.03
                     16                     17                     18
                        a                      a                      a 
 Frequencies --    90.3713                98.6461               110.0220
 Red. masses --    13.0200                12.5145                12.5454
 Frc consts  --     0.0000                 0.0000                 0.0000
 IR Inten    --     7.4326                 4.1093                16.0507
 Raman Activ --     0.0000                 0.0000                 0.0000
 Depolar     --     0.0000                 0.0000                 0.0000
 Atom AN      X      Y      Z        X      Y      Z        X      Y      Z
   1   8     0.04   0.14   0.21    -0.07   0.03  -0.04     0.13   0.08  -0.12
   2   6     0.06  -0.01   0.13    -0.00   0.10  -0.02     0.02   0.15  -0.08
   3   1     0.01  -0.02   0.06     0.00   0.04  -0.02     0.03   0.05  -0.04
   4   1     0.03  -0.02   0.03     0.00   0.03   0.01    -0.01   0.07  -0.02
   5   6     0.11  -0.01   0.03     0.02   0.12   0.01    -0.09   0.05   0.01
   6   1     0.03   0.01  -0.01     0.01   0.03   0.01    -0.03   0.01   0.01
   7   1     0.04  -0.02   0.00    -0.00   0.04   0.00    -0.06   0.02  -0.00
   8   7     0.10   0.03   0.03     0.02   0.13   0.04    -0.04  -0.08   0.10
   9   6     0.12   0.08   0.09    -0.02   0.15   0.22    -0.16  -0.19   0.10
  10   1     0.04   0.04   0.04    -0.02   0.09   0.08    -0.07  -0.06   0.02
  11   1     0.03   0.03   0.02    -0.00   0.04   0.05    -0.03  -0.09   0.04
  12   1     0.04   0.01   0.04     0.00   0.01   0.10    -0.06  -0.05   0.02
  13   6     0.04   0.07  -0.01    -0.02   0.22  -0.05     0.04  -0.10   0.12
  14   1    -0.01   0.03  -0.01    -0.04   0.09  -0.01     0.01  -0.03   0.04
  15   1     0.02   0.02  -0.02     0.01   0.06  -0.05     0.02  -0.02   0.04
  16   1     0.01   0.01   0.01    -0.01   0.05   0.00     0.02  -0.05   0.03
  17   6     0.07  -0.02  -0.00     0.09  -0.02  -0.00     0.07  -0.05   0.14
  18   1     0.02  -0.01   0.01     0.04  -0.03   0.02     0.02  -0.00   0.03
  19   1     0.02  -0.00  -0.01     0.03  -0.00   0.01     0.02  -0.03   0.06
  20   1     0.02  -0.01  -0.01     0.03  -0.01  -0.04     0.04  -0.00   0.04
  21   1    -0.02   0.04   0.02    -0.03   0.00  -0.01     0.04   0.01  -0.03
  22   6    -0.16   0.01  -0.05    -0.06   0.00  -0.10    -0.04   0.06  -0.08
  23   8    -0.37   0.17  -0.11    -0.15   0.15  -0.25    -0.07   0.23  -0.29
  24   7    -0.15  -0.14  -0.19    -0.04  -0.11  -0.05    -0.03   0.03  -0.02
  25   1    -0.06  -0.05  -0.06    -0.01  -0.01  -0.03    -0.01   0.01  -0.01
  26   1     0.01  -0.08  -0.02     0.01  -0.06   0.02     0.01  -0.03   0.04
  27   7     0.04  -0.03   0.14     0.00  -0.08   0.01    -0.02  -0.10   0.07
  28   1     0.05  -0.02   0.03     0.01  -0.04   0.02    -0.01  -0.05   0.04
  29   1    -0.00   0.04   0.04    -0.01   0.01  -0.02    -0.02  -0.01  -0.02
  30   6    -0.03   0.08  -0.07    -0.03  -0.21   0.10    -0.09   0.02   0.01
  31   8    -0.10  -0.06  -0.14    -0.09  -0.19   0.22    -0.12   0.17   0.14
  32   7    -0.03   0.22  -0.18    -0.01  -0.25   0.11    -0.06  -0.10   0.05
  33   1    -0.03   0.06  -0.05    -0.01  -0.07   0.04     0.01  -0.03   0.02
  34   1    -0.01   0.08  -0.03     0.01  -0.08   0.01     0.01  -0.05  -0.02
  35   7     0.06   0.10   0.10     0.03  -0.25   0.01    -0.14  -0.00  -0.20
  36   1     0.03   0.06   0.03     0.02  -0.07  -0.02    -0.04  -0.03  -0.07
  37   1     0.02  -0.01   0.05     0.00  -0.06   0.00    -0.06   0.03  -0.06
  38   6    -0.05  -0.09   0.03     0.12   0.00  -0.00     0.10   0.06  -0.04
  39   8     0.10  -0.14   0.10     0.22  -0.02  -0.04     0.05   0.07  -0.15
  40   7    -0.09   0.06  -0.05     0.10   0.11   0.02     0.12  -0.01   0.05
  41   1     0.00   0.04  -0.01     0.04   0.04  -0.01     0.02  -0.02  -0.01
  42   1    -0.06   0.03  -0.02     0.01   0.04   0.00     0.05  -0.01   0.02
  43   7    -0.17  -0.20   0.05     0.05  -0.06   0.01     0.16   0.11  -0.01
  44   1    -0.07  -0.05  -0.01    -0.01  -0.00   0.02     0.05   0.04   0.04
  45   1    -0.04  -0.08   0.00     0.02  -0.03   0.01     0.04   0.04   0.01
  46   6     0.09  -0.08  -0.03    -0.04   0.04  -0.05     0.03  -0.09   0.03
  47   8    -0.01  -0.20  -0.09     0.11   0.18  -0.09    -0.14  -0.27  -0.02
  48   7     0.07   0.10   0.04    -0.01  -0.12   0.09    -0.00   0.11  -0.08
  49   1    -0.01   0.03  -0.01     0.04  -0.05   0.04    -0.05   0.04  -0.04
  50   1     0.04   0.04  -0.01    -0.04  -0.06   0.02     0.03   0.08   0.01
  51   7     0.22  -0.13  -0.04    -0.23   0.08  -0.15     0.23  -0.10   0.21
  52   1     0.08  -0.01   0.02    -0.08   0.00  -0.02     0.09  -0.01   0.03
  53   1     0.06  -0.05   0.01    -0.07   0.05  -0.05     0.07  -0.06   0.04
                     19                     20                     21
                        a                      a                      a 
 Frequencies --   118.4394               127.8718               133.0154
 Red. masses --    12.2675                11.2362                12.7148
 Frc consts  --     0.0000                 0.0000                 0.0000
 IR Inten    --    13.0635                18.7929                 9.7828
 Raman Activ --     0.0000                 0.0000                 0.0000
 Depolar     --     0.0000                 0.0000                 0.0000
 Atom AN      X      Y      Z        X      Y      Z        X      Y      Z
   1   8     0.08   0.03   0.09    -0.02   0.07  -0.02     0.10   0.04  -0.08
   2   6     0.07  -0.07   0.05     0.01   0.05  -0.01     0.10   0.16  -0.04
   3   1     0.02  -0.03   0.03     0.02   0.01   0.00     0.05   0.06  -0.03
   4   1     0.02  -0.02   0.00    -0.00   0.02   0.00     0.02   0.07   0.01
   5   6     0.05  -0.12   0.02    -0.01  -0.00  -0.08     0.05   0.12   0.02
   6   1     0.01  -0.02  -0.01    -0.03  -0.01  -0.02     0.01   0.03   0.01
   7   1     0.01  -0.05  -0.00     0.01   0.02  -0.01     0.00   0.04   0.01
   8   7     0.08  -0.18   0.09     0.03  -0.07  -0.22     0.07   0.08   0.06
   9   6     0.01  -0.20   0.16    -0.06  -0.08  -0.00     0.04   0.02  -0.02
  10   1    -0.01  -0.04   0.05    -0.03   0.03   0.02     0.01  -0.01  -0.02
  11   1     0.01  -0.07   0.05    -0.01  -0.04  -0.02     0.01  -0.00   0.01
  12   1    -0.00  -0.07   0.06    -0.03  -0.07   0.04     0.01   0.03  -0.02
  13   6     0.08  -0.13   0.04     0.06   0.11  -0.38     0.10  -0.01   0.13
  14   1     0.00  -0.02   0.01    -0.02   0.09  -0.10     0.04  -0.02   0.03
  15   1     0.04  -0.03  -0.00     0.06   0.04  -0.17     0.02   0.00   0.06
  16   1     0.03  -0.05   0.02     0.03   0.00  -0.10     0.03  -0.00   0.04
  17   6     0.15  -0.19   0.10     0.11  -0.30  -0.29     0.07   0.12   0.08
  18   1     0.06  -0.06   0.03     0.03  -0.13  -0.05    -0.00   0.05   0.01
  19   1     0.04  -0.05   0.04     0.03  -0.09  -0.08     0.03   0.01   0.02
  20   1     0.04  -0.06   0.01     0.04  -0.09  -0.14     0.04   0.05   0.04
  21   1     0.00   0.01   0.01    -0.01   0.01  -0.00     0.02  -0.00  -0.01
  22   6     0.02  -0.04  -0.04    -0.02   0.05   0.10    -0.02   0.00  -0.03
  23   8     0.04  -0.05  -0.06    -0.08   0.03   0.21    -0.04   0.04  -0.07
  24   7     0.02  -0.04   0.01    -0.02   0.03   0.02    -0.02  -0.02  -0.01
  25   1     0.01   0.00  -0.01    -0.02  -0.01   0.01    -0.01  -0.00  -0.01
  26   1    -0.00  -0.01   0.00     0.00   0.02  -0.02     0.00  -0.01   0.01
  27   7    -0.02  -0.06  -0.06     0.06   0.15   0.10    -0.01  -0.02  -0.00
  28   1    -0.02  -0.01  -0.02     0.04   0.04   0.01    -0.00  -0.01   0.01
  29   1    -0.01  -0.02  -0.03     0.02   0.05   0.06    -0.01  -0.00  -0.01
  30   6    -0.03   0.24  -0.03     0.00   0.01   0.09     0.17  -0.03   0.02
  31   8    -0.05   0.36   0.04    -0.00   0.19   0.25     0.47   0.13  -0.09
  32   7     0.02   0.16  -0.03     0.10  -0.15   0.11     0.15  -0.24   0.25
  33   1     0.02   0.04   0.01     0.03  -0.04   0.06     0.08  -0.07   0.07
  34   1     0.01   0.02  -0.03     0.02  -0.07   0.02    -0.03  -0.09   0.10
  35   7    -0.10   0.25  -0.14    -0.08  -0.00  -0.11    -0.12  -0.01  -0.05
  36   1    -0.03   0.04  -0.05    -0.03  -0.04  -0.06    -0.07  -0.04  -0.00
  37   1    -0.04   0.09  -0.04    -0.04   0.04  -0.04    -0.01   0.04  -0.07
  38   6     0.03  -0.01  -0.01    -0.06   0.00   0.08    -0.23  -0.07  -0.04
  39   8     0.16  -0.05  -0.02    -0.05   0.01   0.26    -0.15  -0.12  -0.04
  40   7    -0.01   0.13  -0.01    -0.06   0.01  -0.05    -0.28   0.02  -0.03
  41   1     0.02   0.05  -0.01    -0.01   0.01   0.01    -0.06   0.02  -0.01
  42   1    -0.03   0.04  -0.01    -0.02   0.00  -0.04    -0.09   0.01  -0.01
  43   7    -0.05  -0.09  -0.01    -0.06  -0.03  -0.02    -0.30  -0.14  -0.05
  44   1    -0.03  -0.01   0.02    -0.02  -0.01  -0.01    -0.08  -0.03   0.00
  45   1    -0.01  -0.03   0.01    -0.02  -0.00   0.03    -0.08  -0.04  -0.03
  46   6    -0.12   0.03  -0.05     0.03  -0.01   0.02    -0.03  -0.02  -0.01
  47   8     0.02   0.17  -0.07    -0.01  -0.06   0.03    -0.04  -0.03  -0.05
  48   7    -0.10  -0.14   0.10     0.03   0.04  -0.03    -0.04  -0.01  -0.00
  49   1     0.01  -0.05   0.04    -0.01   0.02  -0.00    -0.01  -0.00  -0.00
  50   1    -0.06  -0.08   0.01     0.02   0.03   0.01    -0.01   0.00   0.01
  51   7    -0.32   0.05  -0.20     0.09  -0.03   0.04    -0.03  -0.01   0.02
  52   1    -0.11   0.00  -0.03     0.03  -0.00   0.00    -0.01  -0.00  -0.00
  53   1    -0.09   0.05  -0.05     0.03  -0.01   0.01    -0.01  -0.01  -0.01
                     22                     23                     24
                        a                      a                      a 
 Frequencies --   143.2500               153.3477               182.0763
 Red. masses --    12.5312                11.0903                13.3570
 Frc consts  --     0.0000                 0.0000                 0.0000
 IR Inten    --    21.3056                 7.8732                38.0610
 Raman Activ --     0.0000                 0.0000                 0.0000
 Depolar     --     0.0000                 0.0000                 0.0000
 Atom AN      X      Y      Z        X      Y      Z        X      Y      Z
   1   8    -0.16  -0.15  -0.02     0.09   0.19  -0.15     0.03   0.04   0.02
   2   6    -0.21  -0.14  -0.02     0.00  -0.14  -0.23    -0.00   0.02   0.02
   3   1    -0.09  -0.04  -0.00    -0.05  -0.08  -0.01    -0.00   0.00   0.01
   4   1    -0.05  -0.06  -0.02     0.02  -0.08  -0.13    -0.00   0.01  -0.00
   5   6    -0.17  -0.04   0.04     0.05  -0.12  -0.30    -0.01   0.01   0.01
   6   1    -0.04  -0.03   0.03     0.06   0.02  -0.14    -0.01   0.00   0.01
   7   1    -0.04   0.00   0.02    -0.01  -0.10  -0.12    -0.00   0.01   0.00
   8   7    -0.19   0.01  -0.02    -0.02  -0.04  -0.01     0.00   0.01  -0.00
   9   6    -0.15   0.02  -0.07    -0.01  -0.01   0.05    -0.00  -0.00  -0.01
  10   1    -0.04  -0.01  -0.03    -0.03  -0.02  -0.00     0.00   0.00  -0.00
  11   1    -0.05   0.01  -0.02    -0.01   0.01   0.05     0.00  -0.00  -0.00
  12   1    -0.04   0.02  -0.03     0.04   0.01   0.00    -0.00  -0.00  -0.00
  13   6    -0.12   0.01  -0.02    -0.25  -0.15   0.10     0.02   0.01  -0.00
  14   1    -0.00   0.00   0.00    -0.12  -0.07  -0.00     0.01   0.00   0.00
  15   1    -0.05  -0.00   0.01    -0.06  -0.04   0.02     0.01   0.00   0.00
  16   1    -0.03   0.01  -0.03    -0.09  -0.03   0.10     0.01   0.00  -0.00
  17   6    -0.21   0.04  -0.01     0.15   0.13   0.13    -0.01   0.00  -0.01
  18   1    -0.07   0.02  -0.01     0.10   0.06   0.01    -0.01   0.00  -0.00
  19   1    -0.06   0.00  -0.01     0.03   0.06   0.10    -0.00  -0.00  -0.01
  20   1    -0.05   0.02   0.01     0.03   0.03   0.03     0.00   0.00   0.00
  21   1    -0.02  -0.03  -0.00     0.02   0.06  -0.06    -0.01   0.01   0.00
  22   6     0.03  -0.01  -0.03    -0.08   0.04   0.15     0.12  -0.10  -0.16
  23   8     0.07  -0.01  -0.07    -0.23   0.00   0.35    -0.05  -0.08  -0.09
  24   7     0.03   0.03   0.01    -0.08  -0.05  -0.03     0.10  -0.18  -0.34
  25   1     0.01   0.01   0.01    -0.04  -0.04  -0.01     0.03  -0.08  -0.07
  26   1    -0.00   0.01   0.01     0.00  -0.00  -0.04     0.05  -0.07  -0.08
  27   7    -0.02  -0.05  -0.03     0.10   0.25   0.15     0.33  -0.03  -0.07
  28   1    -0.01  -0.02   0.00     0.08   0.06   0.01     0.13  -0.01  -0.05
  29   1    -0.00  -0.03  -0.02     0.03   0.09   0.10     0.09   0.03   0.02
  30   6     0.08   0.05   0.01    -0.00  -0.04  -0.01    -0.00  -0.01   0.00
  31   8     0.18   0.11  -0.02     0.03  -0.02  -0.02    -0.01  -0.00   0.01
  32   7     0.09  -0.03   0.08     0.01  -0.08   0.01     0.01  -0.02  -0.00
  33   1     0.03  -0.01   0.03     0.01  -0.02   0.01    -0.00  -0.00   0.01
  34   1    -0.01  -0.02   0.04    -0.01  -0.02   0.01    -0.01  -0.00   0.01
  35   7    -0.03   0.06  -0.01    -0.05  -0.04  -0.03    -0.00  -0.01  -0.01
  36   1    -0.02   0.00  -0.01    -0.02  -0.02  -0.00    -0.00  -0.00  -0.00
  37   1     0.00   0.03  -0.03    -0.01  -0.00  -0.01    -0.00  -0.00  -0.00
  38   6     0.14  -0.01   0.02     0.06   0.00  -0.05    -0.00   0.00   0.00
  39   8     0.47  -0.09   0.11     0.13  -0.02  -0.15    -0.01   0.00   0.01
  40   7     0.06   0.38  -0.06     0.05   0.08  -0.00     0.00  -0.01  -0.00
  41   1     0.07   0.16  -0.00     0.02   0.03  -0.01    -0.00  -0.00   0.00
  42   1    -0.07   0.13  -0.02    -0.01   0.03   0.03     0.00  -0.00   0.00
  43   7    -0.09  -0.22  -0.00     0.02  -0.03  -0.01     0.00   0.00  -0.00
  44   1    -0.07  -0.04  -0.02    -0.01   0.00   0.02     0.00   0.00   0.00
  45   1    -0.01  -0.10   0.00     0.01  -0.02  -0.01    -0.00   0.00   0.00
  46   6     0.06   0.00   0.03     0.01   0.01   0.02    -0.12   0.06   0.19
  47   8     0.02  -0.04   0.05     0.03   0.04   0.06    -0.20   0.16   0.60
  48   7     0.06   0.06  -0.03     0.02  -0.03  -0.01    -0.18   0.15  -0.10
  49   1    -0.00   0.02  -0.01     0.01   0.00   0.03    -0.08   0.06  -0.00
  50   1     0.03   0.03  -0.00    -0.00  -0.00   0.03    -0.01   0.01  -0.16
  51   7     0.13  -0.01   0.08    -0.01   0.01  -0.01    -0.04  -0.04   0.00
  52   1     0.04  -0.00  -0.00    -0.01  -0.01  -0.03    -0.00  -0.02  -0.08
  53   1     0.04  -0.02   0.02    -0.00   0.01  -0.01    -0.01  -0.00   0.03
                     25                     26                     27
                        a                      a                      a 
 Frequencies --   213.3183               225.8654               229.6686
 Red. masses --     7.6691                 5.8078                11.7144
 Frc consts  --     0.0000                 0.0000                 0.0000
 IR Inten    --    18.6573                97.0166                56.1879
 Raman Activ --     0.0000                 0.0000                 0.0000
 Depolar     --     0.0000                 0.0000                 0.0000
 Atom AN      X      Y      Z        X      Y      Z        X      Y      Z
   1   8     0.44  -0.01  -0.13     0.38   0.25   0.05     0.30   0.52   0.37
   2   6    -0.01  -0.16  -0.18    -0.02  -0.05  -0.05    -0.03   0.08   0.21
   3   1    -0.10  -0.06  -0.03    -0.07  -0.05   0.03    -0.03  -0.03   0.13
   4   1     0.01  -0.09  -0.15    -0.00  -0.05  -0.12    -0.02   0.01  -0.03
   5   6    -0.04  -0.03   0.25    -0.05  -0.02   0.09    -0.06  -0.03  -0.04
   6   1    -0.01  -0.10   0.17    -0.01  -0.04   0.06    -0.03   0.04  -0.06
   7   1    -0.04   0.11   0.12    -0.02   0.04   0.04     0.01  -0.07  -0.03
   8   7    -0.03  -0.02   0.05    -0.06  -0.00  -0.01    -0.09   0.02  -0.06
   9   6     0.06   0.04  -0.04    -0.02   0.02  -0.06    -0.08   0.02  -0.10
  10   1     0.02  -0.03  -0.03    -0.01  -0.03  -0.04    -0.01   0.01  -0.02
  11   1     0.00   0.04   0.02    -0.01   0.02   0.01    -0.02  -0.00  -0.05
  12   1     0.05   0.04  -0.04     0.02   0.03  -0.04    -0.04   0.00  -0.03
  13   6     0.12   0.04  -0.02    -0.02   0.03  -0.04    -0.15   0.01  -0.05
  14   1     0.21  -0.01   0.05     0.07  -0.00   0.01    -0.13   0.02  -0.04
  15   1    -0.10  -0.05   0.06    -0.07  -0.02   0.02     0.02   0.03  -0.06
  16   1     0.02   0.11  -0.15    -0.01   0.06  -0.08    -0.04  -0.04   0.05
  17   6    -0.21  -0.09  -0.05    -0.11  -0.02  -0.04    -0.03   0.06  -0.03
  18   1    -0.17  -0.01  -0.01    -0.09   0.01  -0.01     0.02   0.02  -0.01
  19   1    -0.03  -0.10  -0.09    -0.02  -0.06  -0.04    -0.01   0.03   0.02
  20   1    -0.01   0.02   0.04     0.01   0.03   0.02    -0.01   0.01  -0.02
  21   1     0.09  -0.02  -0.03     0.07   0.07  -0.01     0.06   0.15   0.06
  22   6    -0.05   0.05   0.02    -0.01   0.00   0.02     0.07  -0.08  -0.03
  23   8    -0.12   0.11  -0.00     0.00  -0.01   0.02     0.15  -0.16  -0.01
  24   7    -0.04  -0.03  -0.00    -0.02   0.03   0.02     0.06   0.00  -0.01
  25   1    -0.02  -0.01  -0.01     0.01   0.00   0.01     0.02  -0.00   0.00
  26   1     0.01  -0.01  -0.00    -0.00  -0.00   0.02    -0.00   0.01  -0.01
  27   7     0.06   0.10   0.08    -0.05  -0.01  -0.00    -0.08  -0.15  -0.12
  28   1     0.05  -0.00   0.03    -0.02  -0.00   0.01    -0.07  -0.00  -0.04
  29   1     0.01   0.05   0.04    -0.01  -0.01  -0.00    -0.02  -0.07  -0.06
  30   6    -0.01  -0.00  -0.00    -0.00  -0.03   0.00    -0.01  -0.06   0.00
  31   8    -0.03  -0.01   0.00    -0.00  -0.02   0.01     0.01  -0.04   0.01
  32   7    -0.03   0.01  -0.00    -0.01  -0.05   0.02     0.03  -0.09  -0.01
  33   1     0.02   0.00  -0.02     0.02  -0.01  -0.00    -0.01  -0.02   0.04
  34   1     0.03  -0.00  -0.03     0.02  -0.02  -0.02    -0.02  -0.02   0.02
  35   7     0.02   0.00  -0.00    -0.02  -0.04  -0.02    -0.05  -0.07  -0.01
  36   1    -0.01   0.00   0.02    -0.02  -0.02   0.01    -0.01  -0.03  -0.02
  37   1    -0.01  -0.00   0.02    -0.02  -0.00   0.00    -0.00  -0.01  -0.02
  38   6     0.00  -0.00   0.01     0.01   0.00   0.01     0.02   0.00  -0.00
  39   8    -0.00   0.00   0.04     0.02  -0.00   0.01     0.03   0.00  -0.01
  40   7     0.00  -0.01   0.01     0.01   0.01  -0.00     0.02   0.03  -0.02
  41   1    -0.00  -0.00   0.01     0.00   0.01   0.01     0.00   0.01   0.01
  42   1     0.00  -0.00  -0.00    -0.00   0.00   0.01    -0.01   0.01   0.03
  43   7     0.00  -0.00   0.01     0.00  -0.01   0.00     0.01  -0.00   0.00
  44   1     0.00  -0.00  -0.01     0.00  -0.00  -0.01     0.00  -0.00  -0.01
  45   1     0.00  -0.00  -0.00     0.00  -0.00  -0.00     0.00  -0.00  -0.01
  46   6    -0.05   0.02   0.02     0.00  -0.04  -0.05    -0.02  -0.02  -0.00
  47   8    -0.01   0.05  -0.00     0.02  -0.01  -0.03    -0.04  -0.05  -0.06
  48   7    -0.02  -0.11  -0.12    -0.03   0.05   0.26    -0.00  -0.03  -0.08
  49   1    -0.01   0.04   0.21     0.03  -0.12  -0.33    -0.02   0.05   0.15
  50   1    -0.05   0.10   0.33     0.04  -0.24  -0.56    -0.02   0.11   0.26
  51   7    -0.08   0.02   0.01    -0.04  -0.00  -0.04    -0.01  -0.02   0.00
  52   1    -0.02  -0.02  -0.15    -0.01   0.04   0.23    -0.00  -0.02  -0.10
  53   1    -0.01  -0.01  -0.10    -0.02   0.03   0.09    -0.00  -0.00  -0.05
                     28                     29                     30
                        a                      a                      a 
 Frequencies --   255.8916               263.6620               292.5445
 Red. masses --     2.5432                 4.5747                 6.0877
 Frc consts  --     0.0000                 0.0000                 0.0000
 IR Inten    --    91.2085                11.0515                12.7301
 Raman Activ --     0.0000                 0.0000                 0.0000
 Depolar     --     0.0000                 0.0000                 0.0000
 Atom AN      X      Y      Z        X      Y      Z        X      Y      Z
   1   8    -0.05   0.06   0.04     0.23  -0.11  -0.10    -0.02  -0.00  -0.01
   2   6    -0.06  -0.04   0.01     0.13   0.10  -0.02     0.21   0.29   0.09
   3   1    -0.04  -0.03   0.02     0.11   0.06  -0.04     0.22   0.13  -0.03
   4   1    -0.00  -0.04  -0.02    -0.00   0.10   0.03    -0.01   0.22   0.14
   5   6    -0.00   0.02  -0.03    -0.04  -0.08   0.09    -0.03  -0.10  -0.05
   6   1     0.00   0.01  -0.01    -0.03  -0.04   0.04    -0.04  -0.01  -0.04
   7   1     0.00  -0.00  -0.01    -0.03  -0.00   0.03    -0.03  -0.05  -0.03
   8   7    -0.00   0.02  -0.01    -0.06  -0.09   0.03    -0.04  -0.14  -0.01
   9   6    -0.05  -0.02   0.02     0.13   0.06  -0.09     0.23   0.15   0.08
  10   1    -0.06  -0.04  -0.03     0.22   0.18   0.10    -0.02  -0.12  -0.08
  11   1    -0.02  -0.01   0.07     0.06   0.02  -0.29    -0.01   0.17   0.23
  12   1     0.02   0.02  -0.02    -0.12  -0.11   0.09     0.30   0.16  -0.07
  13   6     0.04   0.03  -0.02    -0.10  -0.08   0.04    -0.31  -0.14  -0.01
  14   1     0.09  -0.01   0.02    -0.27   0.04  -0.06    -0.03  -0.08   0.00
  15   1    -0.05  -0.02   0.03     0.17   0.08  -0.10    -0.17  -0.09   0.02
  16   1     0.01   0.05  -0.07    -0.00  -0.19   0.20    -0.12   0.06  -0.02
  17   6     0.07   0.02   0.01    -0.26  -0.04  -0.01    -0.16  -0.19  -0.08
  18   1    -0.00   0.02  -0.01     0.12  -0.09   0.04    -0.18  -0.03  -0.02
  19   1     0.03  -0.03   0.01    -0.14   0.22   0.04    -0.01  -0.15  -0.10
  20   1     0.05   0.03   0.01    -0.25  -0.16  -0.10     0.03   0.01   0.04
  21   1    -0.00   0.03   0.00     0.04  -0.06  -0.00    -0.04  -0.03   0.02
  22   6     0.01  -0.01   0.00    -0.03   0.04   0.00     0.01  -0.01  -0.00
  23   8     0.02  -0.03   0.01    -0.05   0.07  -0.02     0.01   0.00  -0.01
  24   7     0.01  -0.00  -0.00    -0.02  -0.00   0.01     0.01   0.01   0.01
  25   1     0.00  -0.00   0.00    -0.01   0.00  -0.00    -0.00   0.02  -0.01
  26   1     0.00   0.00  -0.00     0.00  -0.01   0.01    -0.02   0.03  -0.03
  27   7    -0.01  -0.02  -0.02     0.03   0.05   0.05    -0.01   0.06  -0.04
  28   1    -0.01   0.00  -0.01     0.02   0.01   0.01     0.04  -0.12   0.11
  29   1    -0.00  -0.01  -0.01     0.00   0.03   0.02     0.03  -0.07   0.06
  30   6     0.01  -0.01  -0.02     0.02  -0.00  -0.01     0.01   0.01   0.00
  31   8     0.02  -0.03  -0.04     0.04   0.00  -0.02     0.01   0.02   0.01
  32   7    -0.01   0.00  -0.01    -0.01   0.01   0.01    -0.01   0.01   0.03
  33   1    -0.01   0.00   0.00     0.01   0.00  -0.02     0.02  -0.00  -0.02
  34   1    -0.01   0.00   0.00     0.01   0.00  -0.01     0.04  -0.01  -0.03
  35   7    -0.01  -0.01   0.02    -0.01   0.00   0.01    -0.00   0.01  -0.02
  36   1     0.00   0.00  -0.00    -0.00  -0.00   0.00    -0.03  -0.00   0.02
  37   1     0.02  -0.00  -0.01     0.01   0.00  -0.01    -0.02   0.01   0.01
  38   6     0.01   0.02  -0.01     0.02   0.01   0.01     0.03  -0.00  -0.01
  39   8     0.02   0.01   0.02     0.03   0.01   0.04     0.04  -0.00  -0.02
  40   7    -0.08   0.00   0.28    -0.00   0.03   0.05     0.02   0.05   0.02
  41   1     0.10  -0.05  -0.39     0.04   0.00  -0.10     0.02   0.02  -0.02
  42   1     0.14  -0.04  -0.71     0.03   0.00  -0.19    -0.00   0.02  -0.04
  43   7     0.00  -0.02  -0.05     0.02  -0.01  -0.02     0.02  -0.01   0.01
  44   1    -0.05   0.09   0.35    -0.01   0.02   0.09    -0.00  -0.00   0.01
  45   1    -0.03   0.03   0.13    -0.00   0.00   0.04     0.01  -0.01   0.00
  46   6     0.01  -0.00   0.00    -0.02   0.00  -0.00    -0.00  -0.01   0.00
  47   8     0.00  -0.01   0.00    -0.00   0.02  -0.00    -0.01  -0.01   0.00
  48   7     0.01   0.00  -0.01    -0.02  -0.02   0.02    -0.01   0.00  -0.01
  49   1    -0.00   0.00   0.01     0.00  -0.01  -0.02    -0.01   0.01   0.00
  50   1     0.00   0.01   0.02    -0.01  -0.03  -0.04    -0.00   0.01   0.01
  51   7     0.01  -0.00  -0.00    -0.03   0.01  -0.00    -0.00  -0.01  -0.00
  52   1     0.00  -0.00  -0.00    -0.01   0.01   0.00     0.00  -0.00  -0.00
  53   1     0.00   0.00   0.00    -0.01  -0.00  -0.01    -0.00  -0.00   0.00
                     31                     32                     33
                        a                      a                      a 
 Frequencies --   297.0222               308.6915               316.6569
 Red. masses --     2.8524                 5.0368                 2.5616
 Frc consts  --     0.0000                 0.0000                 0.0000
 IR Inten    --   161.1886                 0.4068                27.2231
 Raman Activ --     0.0000                 0.0000                 0.0000
 Depolar     --     0.0000                 0.0000                 0.0000
 Atom AN      X      Y      Z        X      Y      Z        X      Y      Z
   1   8     0.00   0.02   0.03    -0.19   0.26  -0.06     0.00   0.01  -0.05
   2   6    -0.04  -0.06   0.00    -0.00   0.05  -0.08     0.03   0.00  -0.04
   3   1    -0.04  -0.03   0.02     0.01  -0.00   0.01     0.01   0.00  -0.01
   4   1     0.00  -0.04  -0.02     0.00   0.01  -0.02     0.01   0.01  -0.01
   5   6     0.01   0.02  -0.00     0.01  -0.03  -0.18     0.01  -0.01   0.01
   6   1     0.01   0.01  -0.01     0.02   0.04  -0.10     0.00  -0.01   0.01
   7   1     0.01  -0.00  -0.00    -0.02  -0.07  -0.08    -0.01   0.01   0.01
   8   7     0.01   0.03   0.00     0.01  -0.06   0.01     0.01  -0.02   0.02
   9   6    -0.06  -0.03   0.00     0.12   0.11   0.21     0.03   0.00   0.03
  10   1     0.01   0.05   0.04     0.21   0.30   0.24     0.00  -0.02  -0.00
  11   1     0.01  -0.04  -0.07     0.07   0.03  -0.24     0.00   0.01   0.03
  12   1    -0.09  -0.05   0.04    -0.14  -0.18   0.26     0.03   0.01  -0.00
  13   6     0.07   0.02   0.01     0.12  -0.14   0.07     0.01  -0.01   0.01
  14   1    -0.00   0.02  -0.00     0.29  -0.13   0.09    -0.01   0.00   0.00
  15   1     0.05   0.02  -0.01    -0.16  -0.12   0.18     0.02   0.00  -0.00
  16   1     0.03  -0.02   0.01     0.01   0.11  -0.18     0.01  -0.01   0.01
  17   6     0.02   0.05   0.01    -0.19  -0.05  -0.04    -0.05  -0.03  -0.00
  18   1     0.00   0.02  -0.00    -0.12  -0.00  -0.01    -0.06   0.00  -0.00
  19   1     0.01   0.01   0.01    -0.05  -0.03  -0.09    -0.00  -0.04  -0.03
  20   1     0.01   0.02   0.01    -0.05   0.00   0.04     0.01   0.01   0.02
  21   1     0.01   0.01  -0.00    -0.05   0.09  -0.04     0.01   0.01  -0.01
  22   6     0.01  -0.04   0.01     0.03  -0.02   0.00    -0.00   0.00   0.00
  23   8     0.01  -0.00  -0.03     0.04  -0.05   0.03    -0.00   0.00   0.00
  24   7     0.01  -0.04   0.01     0.03   0.02   0.00    -0.00   0.00   0.00
  25   1    -0.02   0.04  -0.05     0.01  -0.00   0.01     0.00  -0.00   0.00
  26   1    -0.06   0.11  -0.14     0.00   0.00   0.00     0.00  -0.00   0.01
  27   7    -0.10   0.25  -0.21    -0.02  -0.05  -0.03    -0.00   0.01  -0.00
  28   1     0.17  -0.56   0.48    -0.03   0.03  -0.03     0.00  -0.01   0.01
  29   1     0.14  -0.33   0.28    -0.01  -0.01  -0.03     0.00  -0.00   0.01
  30   6    -0.00  -0.00  -0.00     0.01  -0.01   0.01    -0.03   0.02  -0.01
  31   8    -0.00  -0.00  -0.00     0.01  -0.00   0.01    -0.04   0.01   0.00
  32   7    -0.00   0.00  -0.00     0.01  -0.01   0.00     0.11  -0.02  -0.11
  33   1    -0.00   0.00   0.00    -0.01  -0.00   0.00    -0.12   0.01   0.09
  34   1     0.00  -0.00  -0.01    -0.00   0.00   0.01    -0.39   0.09   0.32
  35   7     0.00  -0.00   0.01    -0.03  -0.01  -0.04    -0.17  -0.02   0.21
  36   1     0.00   0.00  -0.00    -0.03  -0.02   0.01     0.41  -0.01  -0.51
  37   1     0.00  -0.00   0.00    -0.02   0.01  -0.01     0.25   0.01  -0.25
  38   6    -0.01   0.00   0.00     0.01   0.00   0.01     0.00   0.01   0.02
  39   8    -0.01   0.00   0.00     0.01  -0.00   0.03     0.00   0.01   0.01
  40   7    -0.01  -0.01   0.00     0.01  -0.00  -0.00     0.02  -0.01  -0.04
  41   1    -0.00  -0.01   0.00    -0.00   0.00   0.01    -0.01  -0.00   0.01
  42   1     0.00  -0.00  -0.00    -0.00   0.00   0.00     0.00  -0.00   0.05
  43   7    -0.00   0.01   0.00    -0.00  -0.01   0.00     0.01  -0.00  -0.04
  44   1     0.00  -0.00  -0.01    -0.00  -0.00  -0.00    -0.00   0.03   0.11
  45   1    -0.00   0.00  -0.00    -0.00  -0.00   0.00    -0.01   0.01   0.02
  46   6     0.00  -0.00   0.00     0.02  -0.01   0.00    -0.00  -0.00  -0.01
  47   8     0.00   0.00   0.01    -0.00  -0.03  -0.00     0.01   0.01  -0.01
  48   7     0.00  -0.01   0.01     0.01   0.03  -0.01    -0.00   0.00   0.02
  49   1     0.00  -0.00  -0.00    -0.01   0.01  -0.00     0.00  -0.01  -0.01
  50   1    -0.00  -0.01  -0.01     0.01   0.02   0.01    -0.00  -0.02  -0.03
  51   7     0.01  -0.00   0.01     0.02  -0.01   0.01     0.00   0.01   0.03
  52   1     0.00  -0.00  -0.02    -0.00  -0.01  -0.00    -0.00  -0.01  -0.05
  53   1     0.00  -0.00  -0.00     0.00   0.01   0.01     0.00  -0.01  -0.02
                     34                     35                     36
                        a                      a                      a 
 Frequencies --   334.4086               354.7372               360.7242
 Red. masses --     1.9949                 6.7184                 4.4961
 Frc consts  --     0.0000                 0.0000                 0.0000
 IR Inten    --     7.2058                41.6548               186.0729
 Raman Activ --     0.0000                 0.0000                 0.0000
 Depolar     --     0.0000                 0.0000                 0.0000
 Atom AN      X      Y      Z        X      Y      Z        X      Y      Z
   1   8     0.07  -0.11   0.01    -0.25   0.28  -0.10    -0.12   0.16  -0.06
   2   6     0.08  -0.05   0.01    -0.12  -0.08  -0.16    -0.06  -0.04  -0.09
   3   1     0.05  -0.01  -0.00    -0.12  -0.06   0.00    -0.07  -0.03  -0.00
   4   1     0.01   0.00   0.02     0.01  -0.11  -0.11     0.01  -0.06  -0.06
   5   6     0.06  -0.05  -0.03     0.00   0.08   0.03     0.00   0.04   0.01
   6   1     0.02  -0.01  -0.02     0.03  -0.01   0.04     0.02   0.00   0.02
   7   1     0.03  -0.03  -0.01    -0.04   0.06   0.01    -0.03   0.03   0.00
   8   7     0.01   0.04  -0.04     0.07  -0.01   0.13     0.03   0.00   0.07
   9   6    -0.09  -0.02   0.05     0.19   0.05   0.02     0.08   0.02   0.01
  10   1     0.02   0.12   0.09     0.02  -0.09  -0.06    -0.00  -0.05  -0.03
  11   1     0.01  -0.06  -0.11     0.02   0.07   0.11     0.00   0.03   0.06
  12   1    -0.14  -0.10   0.10     0.16   0.09  -0.07     0.08   0.05  -0.04
  13   6    -0.06  -0.00   0.02     0.18  -0.02   0.16     0.10   0.00   0.08
  14   1    -0.23   0.05  -0.06    -0.17   0.06  -0.02    -0.06   0.03  -0.00
  15   1     0.16   0.09  -0.08     0.25   0.10  -0.05     0.11   0.05  -0.02
  16   1     0.01  -0.15   0.17     0.09  -0.18   0.21     0.05  -0.08   0.08
  17   6    -0.05   0.09  -0.06    -0.14  -0.20  -0.03    -0.09  -0.10  -0.01
  18   1    -0.45   0.19  -0.09    -0.11  -0.09   0.03    -0.03  -0.06   0.02
  19   1     0.11  -0.38  -0.20    -0.03  -0.08  -0.09    -0.03  -0.01  -0.04
  20   1     0.29   0.29   0.23    -0.03  -0.05  -0.01    -0.05  -0.05  -0.02
  21   1    -0.01  -0.04   0.00    -0.04   0.10  -0.06    -0.03   0.06  -0.04
  22   6    -0.01   0.00  -0.00     0.04  -0.02   0.01     0.01   0.00  -0.01
  23   8    -0.01   0.01  -0.00     0.02  -0.03   0.03     0.01  -0.01   0.01
  24   7    -0.01   0.01   0.02     0.02   0.01  -0.02     0.03  -0.02   0.01
  25   1    -0.00   0.01   0.01     0.01  -0.01   0.01    -0.00   0.01  -0.02
  26   1    -0.00   0.00   0.01     0.02  -0.02   0.02    -0.02   0.05  -0.07
  27   7     0.02  -0.00   0.03    -0.03  -0.03  -0.04    -0.01  -0.04  -0.01
  28   1     0.00   0.05  -0.04    -0.03  -0.00  -0.00    -0.02  -0.01   0.00
  29   1    -0.01   0.04  -0.00    -0.00  -0.03  -0.02    -0.00  -0.02  -0.01
  30   6    -0.01   0.02  -0.02    -0.03  -0.00   0.03     0.05  -0.02  -0.03
  31   8    -0.01   0.00  -0.02    -0.02  -0.00   0.03     0.05  -0.00  -0.01
  32   7    -0.02  -0.01   0.02     0.07  -0.03  -0.03    -0.09   0.03   0.06
  33   1     0.04  -0.01  -0.00    -0.04  -0.00   0.04     0.04   0.00  -0.04
  34   1     0.03  -0.02  -0.03    -0.11   0.03   0.10     0.20  -0.04  -0.17
  35   7     0.04   0.01   0.02     0.04  -0.00  -0.10    -0.09  -0.02   0.08
  36   1     0.01   0.02   0.02    -0.10  -0.00   0.12     0.07  -0.02  -0.12
  37   1     0.01  -0.01   0.02    -0.06  -0.00   0.05     0.04   0.01  -0.06
  38   6    -0.00  -0.00  -0.01    -0.00  -0.01  -0.04    -0.01   0.01   0.04
  39   8    -0.01   0.01  -0.01     0.00  -0.00  -0.02    -0.01   0.01   0.02
  40   7    -0.01   0.03   0.03    -0.02   0.01   0.07     0.02  -0.00  -0.07
  41   1     0.01   0.01  -0.02     0.01   0.00  -0.03    -0.01   0.00   0.02
  42   1    -0.00   0.01  -0.06     0.01   0.00  -0.10    -0.01   0.00   0.10
  43   7     0.02   0.03   0.00     0.00   0.04   0.08     0.01  -0.02  -0.08
  44   1     0.01   0.00  -0.02     0.03  -0.04  -0.21    -0.02   0.05   0.22
  45   1     0.01   0.01   0.00     0.01  -0.01  -0.04    -0.01   0.01   0.04
  46   6    -0.01   0.01   0.01     0.02  -0.01  -0.03     0.02   0.01   0.10
  47   8    -0.01   0.01   0.01     0.01  -0.03  -0.03    -0.01  -0.03   0.09
  48   7    -0.00  -0.01  -0.01     0.01   0.05   0.05     0.04  -0.04  -0.15
  49   1     0.00  -0.00   0.01    -0.00   0.00  -0.03    -0.02   0.03   0.07
  50   1    -0.00   0.00   0.02     0.01  -0.01  -0.05     0.01   0.09   0.16
  51   7    -0.01  -0.00  -0.03     0.02   0.01   0.10    -0.01  -0.03  -0.26
  52   1     0.00   0.01   0.06    -0.02  -0.06  -0.22     0.03   0.13   0.63
  53   1    -0.00   0.00   0.02     0.00   0.01  -0.04    -0.02   0.02   0.13
                     37                     38                     39
                        a                      a                      a 
 Frequencies --   368.9248               382.9551               397.3630
 Red. masses --     3.6335                 7.1957                 3.4098
 Frc consts  --     0.0000                 0.0000                 0.0000
 IR Inten    --    18.8642                 4.3611               666.9987
 Raman Activ --     0.0000                 0.0000                 0.0000
 Depolar     --     0.0000                 0.0000                 0.0000
 Atom AN      X      Y      Z        X      Y      Z        X      Y      Z
   1   8    -0.07   0.05   0.00    -0.07   0.01  -0.01    -0.02   0.02   0.01
   2   6    -0.07  -0.01  -0.01    -0.19   0.05  -0.01    -0.02  -0.01   0.01
   3   1    -0.05  -0.01   0.00    -0.15   0.02  -0.02    -0.01  -0.01   0.01
   4   1    -0.01  -0.03  -0.02    -0.02  -0.05  -0.04    -0.00  -0.01  -0.00
   5   6    -0.02   0.04   0.04    -0.10   0.20   0.22     0.01  -0.00  -0.04
   6   1    -0.01  -0.00   0.03    -0.09  -0.03   0.15     0.01   0.01  -0.03
   7   1    -0.01   0.03   0.02    -0.02   0.17   0.12     0.00  -0.02  -0.02
   8   7     0.02  -0.00   0.01     0.05   0.01  -0.04     0.01   0.00   0.00
   9   6     0.07   0.03  -0.02     0.20   0.07  -0.22     0.00  -0.00   0.01
  10   1     0.04   0.00  -0.00     0.21   0.09   0.01    -0.01  -0.01  -0.00
  11   1     0.02   0.02  -0.02     0.07   0.04  -0.24    -0.00  -0.00   0.02
  12   1     0.02   0.01  -0.01    -0.06  -0.04  -0.01     0.01   0.00  -0.00
  13   6    -0.01  -0.03   0.04    -0.30  -0.15   0.10     0.04   0.01  -0.00
  14   1    -0.06  -0.01  -0.01    -0.07  -0.13  -0.00     0.01   0.01  -0.00
  15   1     0.03   0.00  -0.01    -0.17  -0.09   0.05     0.02   0.01  -0.00
  16   1    -0.00  -0.04   0.06    -0.12   0.05   0.08     0.02  -0.00   0.00
  17   6     0.05  -0.05  -0.01     0.40  -0.17  -0.02    -0.03  -0.00  -0.00
  18   1    -0.04  -0.01   0.00     0.07  -0.06   0.01     0.01  -0.01   0.00
  19   1     0.03  -0.06  -0.03     0.14  -0.15   0.03    -0.01   0.02  -0.00
  20   1     0.05   0.01   0.01     0.21   0.01  -0.05    -0.03  -0.01   0.00
  21   1    -0.01   0.01   0.00     0.01   0.00   0.01    -0.03  -0.00   0.00
  22   6     0.01  -0.01   0.01     0.01   0.01  -0.01     0.00  -0.01   0.01
  23   8     0.01  -0.01   0.01     0.00   0.01  -0.01     0.00  -0.01   0.01
  24   7    -0.00   0.01  -0.02     0.01  -0.02  -0.01    -0.01   0.02  -0.02
  25   1     0.01  -0.01   0.01    -0.00  -0.00  -0.01     0.00  -0.00   0.01
  26   1     0.02  -0.04   0.05     0.00   0.00  -0.01     0.02  -0.04   0.05
  27   7    -0.01   0.00  -0.02    -0.02  -0.02  -0.01     0.00   0.01  -0.01
  28   1    -0.01   0.00  -0.00    -0.01  -0.01   0.01     0.00   0.01  -0.01
  29   1    -0.00  -0.01  -0.00    -0.00  -0.02  -0.01     0.00   0.00   0.01
  30   6     0.04  -0.02  -0.03     0.00   0.01   0.00     0.08  -0.02  -0.05
  31   8     0.04  -0.02  -0.03    -0.01   0.00   0.01     0.07   0.01  -0.02
  32   7    -0.08   0.04   0.04    -0.00   0.01   0.00    -0.19   0.06   0.12
  33   1     0.03   0.00  -0.02     0.01   0.00   0.00     0.06   0.00  -0.03
  34   1     0.20  -0.04  -0.17    -0.01  -0.00   0.00     0.45  -0.12  -0.40
  35   7    -0.04  -0.01   0.03    -0.02   0.01   0.01    -0.17  -0.03   0.20
  36   1    -0.03  -0.00   0.03     0.04  -0.01  -0.06     0.25  -0.04  -0.35
  37   1     0.02  -0.00  -0.03     0.00   0.01  -0.01     0.08   0.03  -0.10
  38   6    -0.01   0.03   0.11     0.01  -0.01  -0.02     0.00  -0.02  -0.05
  39   8    -0.02   0.03   0.06     0.00  -0.00  -0.02     0.01  -0.02  -0.03
  40   7     0.05  -0.01  -0.19    -0.00   0.01   0.04    -0.04   0.01   0.09
  41   1    -0.03  -0.00   0.06     0.01   0.01  -0.01     0.01   0.00  -0.03
  42   1    -0.02   0.00   0.25     0.00   0.00  -0.05     0.01  -0.00  -0.12
  43   7     0.02  -0.08  -0.23     0.01   0.01   0.04    -0.01   0.04   0.11
  44   1    -0.07   0.15   0.63     0.01  -0.03  -0.11     0.04  -0.08  -0.35
  45   1    -0.03   0.04   0.11     0.01  -0.01  -0.01     0.01  -0.01  -0.02
  46   6    -0.00  -0.01  -0.06     0.01   0.00   0.01     0.00  -0.01  -0.03
  47   8     0.01  -0.00  -0.05     0.00  -0.01   0.01     0.00  -0.01  -0.02
  48   7    -0.01   0.04   0.09     0.01  -0.00  -0.02    -0.01   0.03   0.05
  49   1     0.01  -0.01  -0.05    -0.00   0.00   0.01     0.00  -0.01  -0.03
  50   1     0.00  -0.04  -0.09     0.00   0.01   0.01     0.00  -0.02  -0.05
  51   7     0.01   0.01   0.16    -0.00  -0.00  -0.02     0.00   0.00   0.08
  52   1    -0.03  -0.09  -0.40     0.00   0.02   0.08    -0.02  -0.06  -0.24
  53   1     0.01   0.01  -0.07    -0.00  -0.00   0.00    -0.00   0.02  -0.01
                     40                     41                     42
                        a                      a                      a 
 Frequencies --   442.5606               444.9970               461.9056
 Red. masses --     6.1504                 5.8066                 7.6665
 Frc consts  --     0.0000                 0.0000                 0.0000
 IR Inten    --   112.8938               138.1311                25.4645
 Raman Activ --     0.0000                 0.0000                 0.0000
 Depolar     --     0.0000                 0.0000                 0.0000
 Atom AN      X      Y      Z        X      Y      Z        X      Y      Z
   1   8    -0.13   0.09  -0.07     0.13  -0.12   0.07    -0.05   0.04  -0.01
   2   6     0.06   0.02  -0.06    -0.05  -0.02   0.06    -0.00   0.01  -0.00
   3   1     0.04   0.01  -0.01    -0.03  -0.00   0.01     0.01   0.00   0.00
   4   1     0.01   0.02  -0.00    -0.01  -0.02   0.01    -0.00   0.01   0.00
   5   6    -0.02  -0.09   0.07     0.02   0.08  -0.05    -0.00  -0.02  -0.04
   6   1    -0.01  -0.05   0.05     0.01   0.04  -0.03     0.02   0.03  -0.05
   7   1    -0.04   0.02   0.03     0.05   0.00  -0.01    -0.01  -0.05  -0.04
   8   7     0.03  -0.18   0.13    -0.02   0.16  -0.16    -0.02  -0.01   0.11
   9   6     0.15  -0.15  -0.07    -0.16   0.15   0.10     0.04  -0.03  -0.08
  10   1     0.11  -0.05  -0.01    -0.13   0.06   0.02     0.06  -0.03  -0.02
  11   1     0.04  -0.03  -0.09    -0.05   0.03   0.10     0.02  -0.01  -0.06
  12   1    -0.01  -0.03  -0.03     0.01   0.02   0.05    -0.03   0.01  -0.05
  13   6    -0.07   0.17  -0.22     0.06  -0.20   0.20    -0.01   0.12  -0.01
  14   1    -0.01   0.16  -0.01     0.01  -0.17   0.00     0.01   0.07   0.02
  15   1    -0.04   0.00  -0.17     0.03  -0.01   0.16    -0.01   0.02  -0.03
  16   1    -0.03   0.09  -0.11     0.02  -0.10   0.10    -0.00   0.04  -0.03
  17   6    -0.01   0.09   0.25     0.02  -0.05  -0.27    -0.01  -0.07   0.09
  18   1    -0.02   0.10   0.01     0.03  -0.08  -0.03    -0.03  -0.02   0.03
  19   1     0.00   0.01   0.08    -0.00   0.01  -0.08     0.01  -0.05   0.01
  20   1     0.01   0.05   0.14    -0.02  -0.04  -0.14     0.02  -0.00   0.03
  21   1    -0.04   0.03  -0.03     0.02  -0.04   0.02     0.01   0.02  -0.01
  22   6     0.06  -0.03   0.10     0.01  -0.05   0.08    -0.01  -0.04  -0.01
  23   8     0.04   0.01   0.06     0.05  -0.02   0.01     0.02  -0.04  -0.04
  24   7    -0.03   0.07  -0.19    -0.09   0.10  -0.15    -0.04   0.03  -0.00
  25   1     0.02  -0.02  -0.00     0.02   0.01   0.01    -0.00   0.03  -0.01
  26   1     0.19  -0.38   0.43     0.17  -0.39   0.48     0.02  -0.08   0.13
  27   7    -0.10   0.08  -0.09    -0.03   0.12  -0.06     0.04   0.03  -0.03
  28   1    -0.04  -0.05   0.06     0.02  -0.03   0.03     0.04   0.03  -0.06
  29   1     0.01  -0.09   0.02     0.03  -0.05   0.08     0.05  -0.04   0.10
  30   6    -0.02   0.00  -0.02     0.02  -0.00   0.02     0.06  -0.02   0.04
  31   8    -0.01   0.02  -0.01     0.01  -0.02   0.01     0.04  -0.08   0.02
  32   7    -0.00  -0.04   0.01     0.01   0.04  -0.01     0.00   0.10   0.02
  33   1     0.01  -0.01   0.00    -0.01   0.01  -0.01    -0.01   0.03  -0.05
  34   1    -0.01  -0.02   0.00    -0.02   0.03   0.02     0.00   0.07   0.03
  35   7     0.03  -0.00   0.02    -0.02   0.00  -0.03    -0.04  -0.02  -0.07
  36   1     0.01   0.02   0.02    -0.02  -0.02  -0.01     0.00  -0.10  -0.13
  37   1     0.01  -0.02   0.02    -0.02   0.02  -0.01    -0.20   0.09   0.09
  38   6    -0.01   0.00  -0.00     0.01  -0.00   0.00    -0.00  -0.01  -0.00
  39   8     0.01  -0.00   0.00    -0.01   0.00  -0.00    -0.01  -0.01  -0.00
  40   7    -0.01  -0.01  -0.00     0.01   0.01  -0.00    -0.00   0.01  -0.01
  41   1    -0.01  -0.01   0.00     0.01   0.01   0.00    -0.00   0.02   0.04
  42   1     0.00  -0.00   0.00    -0.01   0.01  -0.00    -0.01   0.01  -0.02
  43   7    -0.01   0.00  -0.00     0.01  -0.00  -0.00     0.01  -0.00   0.00
  44   1     0.00   0.00   0.01     0.00   0.00   0.01     0.00   0.00   0.02
  45   1    -0.00   0.01  -0.01     0.00  -0.00   0.00     0.00   0.01  -0.01
  46   6     0.05  -0.05   0.01    -0.00   0.00  -0.00    -0.14   0.21  -0.07
  47   8     0.06  -0.05   0.02    -0.00   0.00   0.00    -0.27   0.15  -0.04
  48   7     0.03   0.08  -0.05     0.00  -0.01  -0.02    -0.07  -0.31   0.10
  49   1    -0.06   0.05  -0.02    -0.00   0.00   0.01     0.22  -0.14   0.15
  50   1     0.05   0.08   0.03    -0.00   0.01   0.03    -0.20  -0.25   0.02
  51   7    -0.10  -0.01  -0.02    -0.02   0.01  -0.03     0.37   0.06  -0.02
  52   1    -0.06  -0.01   0.08     0.01   0.03   0.10     0.24   0.13   0.00
  53   1    -0.04   0.04  -0.02    -0.00  -0.01  -0.03     0.13  -0.16   0.05
                     43                     44                     45
                        a                      a                      a 
 Frequencies --   463.1133               464.7925               470.0466
 Red. masses --     5.2258                 5.6971                 6.0552
 Frc consts  --     0.0000                 0.0000                 0.0000
 IR Inten    --    41.5234                10.7648                12.3779
 Raman Activ --     0.0000                 0.0000                 0.0000
 Depolar     --     0.0000                 0.0000                 0.0000
 Atom AN      X      Y      Z        X      Y      Z        X      Y      Z
   1   8    -0.01   0.02  -0.01    -0.00   0.01   0.00     0.06  -0.04   0.01
   2   6    -0.11   0.04  -0.00    -0.11   0.02  -0.00    -0.04   0.00   0.02
   3   1    -0.03   0.01  -0.00    -0.03   0.01  -0.00     0.02   0.00   0.00
   4   1    -0.04   0.02  -0.01    -0.04   0.01  -0.01    -0.03   0.03   0.01
   5   6    -0.13  -0.02   0.04    -0.14  -0.02   0.10    -0.05  -0.05  -0.11
   6   1    -0.07  -0.04   0.05    -0.10  -0.09   0.11     0.02   0.07  -0.12
   7   1    -0.03   0.05   0.04    -0.02   0.11   0.09    -0.01  -0.13  -0.09
   8   7    -0.03  -0.12  -0.12    -0.01  -0.16  -0.21    -0.11   0.06   0.12
   9   6     0.09   0.07   0.12     0.10   0.06   0.21    -0.01   0.09  -0.13
  10   1     0.00   0.04   0.04    -0.03   0.07   0.07     0.07  -0.01  -0.04
  11   1    -0.00   0.08   0.07    -0.01   0.09   0.12    -0.00   0.04  -0.08
  12   1     0.11  -0.01   0.07     0.15  -0.03   0.11    -0.04   0.05  -0.06
  13   6     0.09  -0.14  -0.11     0.10  -0.22  -0.19     0.05   0.11   0.09
  14   1     0.00  -0.02  -0.04    -0.03  -0.04  -0.07     0.04   0.05   0.04
  15   1     0.07  -0.01  -0.03     0.09  -0.02  -0.06     0.02   0.04   0.03
  16   1     0.04  -0.08  -0.02     0.04  -0.12  -0.01     0.03   0.00  -0.01
  17   6     0.04   0.13   0.01     0.04   0.26  -0.01     0.03  -0.17   0.06
  18   1     0.05   0.09  -0.04     0.05   0.16  -0.08    -0.02  -0.08   0.05
  19   1     0.01   0.05   0.06     0.00   0.09   0.07     0.02  -0.10   0.01
  20   1     0.01   0.04   0.05     0.00   0.08   0.08     0.06  -0.02  -0.03
  21   1     0.03   0.01   0.01     0.01  -0.00   0.01     0.00  -0.02   0.01
  22   6     0.01   0.00   0.00     0.03   0.03   0.01    -0.05  -0.04  -0.03
  23   8     0.01   0.00   0.00    -0.00   0.04   0.03     0.00  -0.05  -0.07
  24   7     0.01  -0.02  -0.02     0.04  -0.04  -0.03    -0.06   0.04   0.07
  25   1    -0.01  -0.00  -0.02    -0.01  -0.02  -0.02     0.01   0.04   0.02
  26   1     0.02  -0.03   0.03     0.02   0.02  -0.06    -0.04   0.00   0.06
  27   7    -0.01  -0.00  -0.01    -0.05  -0.03   0.00     0.07   0.04   0.00
  28   1    -0.01   0.02  -0.02    -0.05   0.01   0.01     0.08   0.04  -0.07
  29   1     0.01  -0.04   0.03    -0.01  -0.03  -0.03     0.05  -0.00   0.13
  30   6    -0.11   0.03  -0.06     0.06  -0.00  -0.00    -0.02   0.04  -0.05
  31   8    -0.06   0.15  -0.02     0.03  -0.08  -0.04    -0.03   0.02  -0.06
  32   7     0.01  -0.17  -0.06    -0.03   0.05   0.07    -0.01  -0.08   0.05
  33   1    -0.01  -0.04   0.10     0.05   0.01  -0.06     0.06  -0.03   0.02
  34   1     0.04  -0.12  -0.09    -0.04   0.04   0.06    -0.04  -0.06   0.01
  35   7     0.03   0.02   0.12     0.04   0.01  -0.06     0.07   0.05   0.03
  36   1    -0.05   0.18   0.29     0.10  -0.11  -0.24     0.07   0.03  -0.04
  37   1     0.45  -0.17  -0.24    -0.39   0.11   0.28    -0.08  -0.00   0.12
  38   6    -0.01   0.05   0.00    -0.01   0.07  -0.00     0.00   0.19   0.01
  39   8     0.06   0.04   0.01     0.06   0.05   0.01     0.17   0.15   0.04
  40   7     0.01  -0.05   0.04     0.02  -0.07   0.02     0.08  -0.16   0.09
  41   1    -0.02  -0.09  -0.14    -0.03  -0.09  -0.09    -0.05  -0.28  -0.39
  42   1     0.06  -0.03   0.09     0.07  -0.04   0.08     0.20  -0.10   0.28
  43   7    -0.07  -0.00  -0.02    -0.09  -0.01  -0.03    -0.24  -0.05  -0.08
  44   1    -0.03  -0.01  -0.09    -0.06   0.01  -0.01    -0.16   0.00  -0.09
  45   1    -0.02  -0.02   0.03    -0.02  -0.03   0.01    -0.06  -0.10   0.06
  46   6    -0.06   0.10  -0.03     0.00  -0.00   0.00     0.02  -0.03   0.01
  47   8    -0.12   0.06  -0.01     0.00   0.00   0.00     0.04  -0.03   0.00
  48   7    -0.03  -0.14   0.04     0.00   0.00  -0.00     0.01   0.04  -0.01
  49   1     0.10  -0.06   0.09    -0.00   0.00   0.01    -0.03   0.01  -0.04
  50   1    -0.09  -0.12  -0.01     0.00  -0.00  -0.01     0.03   0.04   0.01
  51   7     0.16   0.03  -0.00    -0.00   0.00   0.00    -0.05  -0.01  -0.00
  52   1     0.11   0.07   0.03    -0.00  -0.00  -0.00    -0.03  -0.02   0.01
  53   1     0.06  -0.08  -0.00    -0.00   0.00  -0.00    -0.02   0.02  -0.01
                     46                     47                     48
                        a                      a                      a 
 Frequencies --   471.0065               474.0514               478.2694
 Red. masses --     6.2573                 2.9873                 5.9516
 Frc consts  --     0.0000                 0.0000                 0.0000
 IR Inten    --    16.2157                10.8198                 7.1880
 Raman Activ --     0.0000                 0.0000                 0.0000
 Depolar     --     0.0000                 0.0000                 0.0000
 Atom AN      X      Y      Z        X      Y      Z        X      Y      Z
   1   8    -0.03   0.01  -0.01    -0.01   0.02   0.01    -0.04   0.04  -0.00
   2   6     0.08  -0.02  -0.02    -0.03   0.01   0.00     0.05  -0.00  -0.01
   3   1     0.01  -0.01  -0.00    -0.02   0.00   0.00    -0.01  -0.01   0.00
   4   1     0.03  -0.02   0.01    -0.01  -0.00  -0.00     0.03  -0.02  -0.01
   5   6     0.08   0.01   0.06    -0.03   0.00   0.03     0.08   0.05   0.03
   6   1     0.01  -0.03   0.06    -0.03  -0.02   0.03     0.02  -0.01   0.03
   7   1     0.02   0.05   0.04    -0.01   0.03   0.02     0.02   0.04   0.02
   8   7     0.07   0.01  -0.02     0.01  -0.05  -0.03     0.08   0.02  -0.01
   9   6    -0.03  -0.08   0.02     0.04  -0.00   0.03    -0.02  -0.07   0.02
  10   1    -0.03  -0.01   0.01     0.00   0.01   0.01    -0.03  -0.01   0.00
  11   1     0.00  -0.05   0.01     0.00   0.01   0.02     0.01  -0.05   0.01
  12   1    -0.03  -0.03   0.01     0.03  -0.01   0.02    -0.02  -0.02   0.01
  13   6    -0.08   0.01  -0.03     0.02  -0.03  -0.06    -0.05  -0.01   0.02
  14   1    -0.04  -0.00  -0.02    -0.01   0.01  -0.01    -0.00  -0.03  -0.00
  15   1    -0.04  -0.01  -0.02     0.02  -0.00  -0.03    -0.05  -0.02   0.01
  16   1    -0.03   0.03   0.02     0.01  -0.01  -0.01    -0.03   0.04   0.01
  17   6    -0.03   0.05  -0.03     0.02   0.06   0.02    -0.04   0.00  -0.05
  18   1    -0.03   0.03  -0.01     0.01   0.04  -0.01     0.00  -0.02  -0.00
  19   1    -0.01   0.01  -0.03     0.00   0.02   0.02    -0.02   0.05  -0.03
  20   1    -0.02   0.02   0.02     0.00   0.02   0.03    -0.05  -0.02  -0.02
  21   1    -0.01   0.01  -0.01     0.01   0.01   0.00    -0.01   0.01  -0.01
  22   6     0.02   0.02   0.02    -0.09  -0.01  -0.09     0.01   0.02  -0.00
  23   8    -0.01   0.02   0.04     0.02  -0.03  -0.16     0.00   0.02   0.00
  24   7     0.02  -0.01  -0.04    -0.05  -0.04   0.19     0.02  -0.03  -0.00
  25   1    -0.00  -0.02  -0.01    -0.00   0.09  -0.01    -0.01  -0.00  -0.02
  26   1     0.02   0.00  -0.03    -0.07   0.03   0.03     0.01  -0.01  -0.01
  27   7    -0.03  -0.02   0.00     0.04   0.05  -0.02    -0.03  -0.01  -0.01
  28   1    -0.03  -0.04   0.06     0.08   0.31  -0.37    -0.02   0.05  -0.05
  29   1    -0.04   0.03  -0.10     0.23  -0.33   0.60     0.03  -0.09   0.08
  30   6     0.13  -0.09   0.17     0.03  -0.03   0.05    -0.06   0.02  -0.09
  31   8     0.10  -0.19   0.16     0.03  -0.05   0.05    -0.03   0.10  -0.07
  32   7     0.08   0.32  -0.08     0.02   0.09  -0.03    -0.06  -0.14   0.02
  33   1    -0.13   0.10  -0.09    -0.04   0.03  -0.03     0.05  -0.04   0.02
  34   1     0.09   0.22   0.03     0.02   0.07   0.01    -0.05  -0.08   0.00
  35   7    -0.25  -0.11  -0.16    -0.07  -0.04  -0.05     0.12   0.03   0.07
  36   1    -0.23  -0.15   0.05    -0.07  -0.04   0.02     0.11   0.06  -0.03
[...]
  44   1     0.01   0.03  -0.01     0.07   0.16  -0.03    -0.03  -0.08   0.01
  45   1    -0.17  -0.04  -0.03    -0.82  -0.18  -0.12     0.38   0.08   0.06
  46   6     0.01   0.01  -0.00    -0.00  -0.00   0.00    -0.00  -0.00   0.00
  47   8     0.00  -0.00   0.00    -0.00   0.00  -0.00    -0.00   0.00  -0.00
  48   7    -0.00  -0.00   0.00     0.00   0.00  -0.00     0.00   0.00  -0.00
  49   1    -0.01  -0.01   0.00     0.00   0.00  -0.00     0.00   0.00  -0.00
  50   1    -0.01   0.01  -0.00     0.00  -0.00   0.00     0.00  -0.00   0.00
  51   7     0.18   0.07   0.01    -0.07  -0.03  -0.00    -0.07  -0.03  -0.00
  52   1     0.12  -0.13   0.03    -0.05   0.05  -0.01    -0.06   0.06  -0.01
  53   1    -0.81  -0.16  -0.04     0.32   0.06   0.02     0.33   0.06   0.02
                    142                    143                    144
                        a                      a                      a 
 Frequencies --  3496.1696              3498.3735              3498.5161
 Red. masses --     1.4556                 1.4508                 1.4499
 Frc consts  --     0.0000                 0.0000                 0.0000
 IR Inten    --    17.4074                19.6623                17.7536
 Raman Activ --     0.0000                 0.0000                 0.0000
 Depolar     --     0.0000                 0.0000                 0.0000
 Atom AN      X      Y      Z        X      Y      Z        X      Y      Z
   1   8     0.00   0.00  -0.00     0.00  -0.00  -0.00    -0.00   0.00   0.00
   2   6    -0.00  -0.00   0.00    -0.00   0.00   0.00    -0.00   0.00   0.00
   3   1    -0.00  -0.00  -0.00     0.00  -0.00  -0.00    -0.00  -0.00  -0.00
   4   1     0.00   0.00   0.00    -0.00  -0.00  -0.00     0.00  -0.00  -0.00
   5   6    -0.00  -0.00   0.00     0.00  -0.00  -0.00    -0.00   0.00   0.00
   6   1    -0.00   0.00  -0.00    -0.00   0.00   0.00     0.00  -0.00  -0.00
   7   1     0.00   0.00  -0.00     0.00  -0.00  -0.00     0.00   0.00  -0.00
   8   7    -0.00  -0.00  -0.00     0.00  -0.00   0.00     0.00  -0.00   0.00
   9   6    -0.00  -0.00   0.00     0.00  -0.00  -0.00     0.00   0.00   0.00
  10   1    -0.00   0.00  -0.00    -0.00  -0.00   0.00     0.00   0.00  -0.00
  11   1     0.00   0.00   0.00    -0.00  -0.00  -0.00    -0.00  -0.00   0.00
  12   1    -0.00  -0.00  -0.00     0.00   0.00   0.00     0.00   0.00   0.00
  13   6    -0.00   0.00  -0.00    -0.00  -0.00   0.00     0.00   0.00   0.00
  14   1     0.00   0.00  -0.00    -0.00  -0.00   0.00     0.00   0.00  -0.00
  15   1     0.00  -0.00   0.00    -0.00   0.00  -0.00     0.00   0.00  -0.00
  16   1     0.00   0.00   0.00     0.00  -0.00  -0.00    -0.00  -0.00   0.00
  17   6    -0.00   0.00  -0.00    -0.00  -0.00  -0.00     0.00   0.00   0.00
  18   1    -0.00   0.00  -0.00     0.00   0.00   0.00     0.00  -0.00  -0.00
  19   1     0.00   0.00   0.00    -0.00  -0.00  -0.00    -0.00  -0.00  -0.00
  20   1     0.00  -0.00   0.00     0.00   0.00   0.00    -0.00   0.00  -0.00
  21   1     0.00  -0.00  -0.00    -0.00   0.00   0.00     0.00  -0.00  -0.00
  22   6    -0.00  -0.00  -0.00     0.00   0.00   0.00    -0.00  -0.00  -0.00
  23   8     0.00   0.00   0.00    -0.00  -0.00  -0.00     0.00   0.00   0.00
  24   7     0.00  -0.00  -0.00     0.00  -0.01  -0.01     0.00   0.00   0.00
  25   1     0.00  -0.00  -0.00    -0.01   0.01   0.01     0.00  -0.00  -0.00
  26   1     0.00   0.00   0.00     0.02   0.03   0.02    -0.00  -0.00  -0.00
  27   7    -0.00   0.00   0.00    -0.08   0.08   0.14     0.01  -0.01  -0.01
  28   1    -0.00  -0.00  -0.00    -0.33  -0.47  -0.43     0.02   0.03   0.03
  29   1     0.00   0.00  -0.00     0.63   0.18  -0.12    -0.04  -0.01   0.01
  30   6     0.00  -0.00  -0.00     0.00   0.00  -0.00    -0.00   0.00  -0.00
  31   8    -0.00   0.00  -0.00     0.00  -0.00   0.00     0.00  -0.00   0.00
  32   7    -0.00   0.01  -0.00    -0.00  -0.00  -0.00     0.00  -0.00   0.00
  33   1    -0.00  -0.02   0.00     0.00   0.00  -0.00     0.00   0.00  -0.00
  34   1     0.01  -0.01   0.02     0.00  -0.00   0.00    -0.00   0.00  -0.00
  35   7     0.02  -0.18  -0.00    -0.00   0.00   0.00    -0.00   0.00   0.00
  36   1    -0.49   0.37  -0.39     0.00  -0.00   0.00     0.01  -0.01   0.01
  37   1     0.40   0.32   0.41    -0.00  -0.00  -0.00    -0.01  -0.00  -0.01
  38   6    -0.00   0.00  -0.00    -0.00  -0.00  -0.00    -0.00  -0.00  -0.00
  39   8    -0.00  -0.00  -0.00    -0.00   0.00   0.00     0.00   0.00  -0.00
  40   7    -0.00  -0.00  -0.00    -0.01  -0.00  -0.00    -0.17  -0.06  -0.05
  41   1     0.01  -0.01   0.00     0.03  -0.03   0.01     0.43  -0.47   0.18
  42   1     0.00   0.01   0.00     0.01   0.05   0.00     0.19   0.69   0.00
  43   7    -0.00   0.00  -0.00     0.00   0.00  -0.00     0.01   0.01  -0.00
  44   1    -0.00  -0.01   0.00    -0.00  -0.00   0.00    -0.01  -0.03   0.01
  45   1     0.01   0.00   0.00    -0.00  -0.00  -0.00    -0.02  -0.00  -0.00
  46   6    -0.00  -0.00   0.00    -0.00   0.00   0.00    -0.00  -0.00   0.00
  47   8     0.00   0.00   0.00     0.00  -0.00  -0.00    -0.00   0.00   0.00
  48   7    -0.00  -0.00  -0.00     0.00   0.00  -0.00     0.00   0.00   0.00
  49   1     0.00   0.00  -0.00    -0.00  -0.00   0.00    -0.00  -0.00   0.00
  50   1     0.00  -0.00   0.00    -0.00   0.00  -0.00    -0.00   0.00  -0.00
  51   7     0.00   0.00  -0.00     0.00   0.00  -0.00     0.00   0.00  -0.00
  52   1     0.00  -0.00   0.00     0.00  -0.00   0.00     0.00  -0.00   0.00
  53   1    -0.00  -0.00  -0.00    -0.00   0.00   0.00    -0.00  -0.00  -0.00
                    145                    146                    147
                        a                      a                      a 
 Frequencies --  3499.6984              3531.2600              3536.5704
 Red. masses --     1.4466                 1.8931                 1.9714
 Frc consts  --     0.0000                 0.0000                 0.0000
 IR Inten    --    23.4246                12.4534                16.6408
 Raman Activ --     0.0000                 0.0000                 0.0000
 Depolar     --     0.0000                 0.0000                 0.0000
 Atom AN      X      Y      Z        X      Y      Z        X      Y      Z
   1   8    -0.00   0.00   0.00    -0.00   0.00   0.00     0.00  -0.00  -0.00
   2   6    -0.00  -0.00  -0.00     0.00   0.00   0.00     0.00   0.00  -0.00
   3   1     0.00  -0.00  -0.00    -0.00  -0.00  -0.00    -0.00  -0.00  -0.00
   4   1     0.00   0.00   0.00    -0.00  -0.00  -0.00    -0.00  -0.00   0.00
   5   6     0.00  -0.00   0.00    -0.00   0.00   0.00     0.00  -0.00   0.00
   6   1    -0.00   0.00  -0.00     0.00  -0.00  -0.00     0.00   0.00   0.00
   7   1    -0.00   0.00  -0.00    -0.00  -0.00  -0.00     0.00  -0.00   0.00
   8   7    -0.00   0.00  -0.00     0.00  -0.00  -0.00    -0.00  -0.00  -0.00
   9   6    -0.00  -0.00  -0.00     0.00   0.00   0.00     0.00   0.00  -0.00
  10   1    -0.00  -0.00   0.00     0.00   0.00  -0.00    -0.00  -0.00   0.00
  11   1     0.00   0.00   0.00     0.00   0.00   0.00    -0.00  -0.00  -0.00
  12   1    -0.00   0.00   0.00     0.00  -0.00  -0.00     0.00  -0.00  -0.00
  13   6    -0.00  -0.00   0.00     0.00  -0.00   0.00     0.00   0.00  -0.00
  14   1     0.00   0.00  -0.00     0.00   0.00  -0.00    -0.00  -0.00   0.00
  15   1     0.00   0.00   0.00    -0.00   0.00   0.00    -0.00  -0.00  -0.00
  16   1     0.00   0.00  -0.00    -0.00  -0.00  -0.00    -0.00  -0.00  -0.00
  17   6    -0.00  -0.00  -0.00     0.00   0.00   0.00     0.00  -0.00  -0.00
  18   1     0.00   0.00   0.00     0.00  -0.00  -0.00    -0.00   0.00   0.00
  19   1     0.00   0.00   0.00     0.00   0.00  -0.00    -0.00  -0.00   0.00
  20   1     0.00  -0.00   0.00    -0.00   0.00  -0.00    -0.00   0.00  -0.00
  21   1     0.00  -0.00  -0.00     0.00  -0.00  -0.00    -0.00   0.00   0.00
  22   6     0.00  -0.00  -0.00     0.00  -0.01  -0.01     0.00   0.00   0.00
  23   8    -0.00   0.00   0.00     0.00   0.00   0.00    -0.00  -0.00  -0.00
  24   7    -0.00  -0.00   0.00    -0.09  -0.20  -0.13    -0.00   0.00   0.00
  25   1     0.01  -0.00  -0.01    -0.05   0.02   0.05     0.00  -0.00  -0.00
  26   1     0.00   0.01   0.01     0.39   0.75   0.46    -0.00   0.00   0.00
  27   7     0.00  -0.00  -0.00     0.02   0.01  -0.00    -0.00  -0.00  -0.00
  28   1     0.00   0.00   0.00    -0.01  -0.01  -0.01     0.00   0.00   0.00
  29   1    -0.00  -0.00   0.00    -0.08  -0.02   0.02     0.00   0.00  -0.00
  30   6     0.00   0.00   0.00    -0.00   0.00  -0.00    -0.00  -0.00   0.00
  31   8    -0.00  -0.00  -0.00     0.00  -0.00   0.00    -0.00   0.00  -0.00
  32   7    -0.00  -0.00  -0.00    -0.00   0.00  -0.00     0.02  -0.03   0.04
  33   1     0.00   0.00  -0.00    -0.00   0.00  -0.00     0.00   0.03   0.00
  34   1     0.00  -0.00   0.00     0.00  -0.00   0.00    -0.10   0.10  -0.14
  35   7     0.00  -0.00   0.00    -0.00   0.00  -0.00    -0.00  -0.00  -0.00
  36   1    -0.00   0.00  -0.00     0.00  -0.00   0.00     0.01  -0.01   0.00
  37   1     0.00   0.00   0.00     0.00   0.00   0.00     0.01   0.01   0.01
  38   6     0.00   0.00   0.00    -0.00   0.00   0.00    -0.00  -0.00   0.00
  39   8    -0.00  -0.00   0.00     0.00  -0.00  -0.00     0.00   0.00  -0.00
  40   7     0.00   0.00   0.00    -0.00  -0.00  -0.00    -0.00   0.00  -0.00
  41   1    -0.00   0.00  -0.00     0.00  -0.00   0.00     0.00  -0.00   0.00
  42   1    -0.00  -0.00  -0.00     0.00   0.00   0.00    -0.00  -0.00  -0.00
  43   7    -0.00   0.00  -0.00    -0.00  -0.00   0.00    -0.01  -0.01   0.00
  44   1    -0.00  -0.00   0.00     0.00   0.00  -0.00     0.02   0.05  -0.01
  45   1     0.00   0.00   0.00    -0.00  -0.00  -0.00     0.01   0.00   0.00
  46   6     0.00  -0.00   0.00     0.00  -0.00   0.00    -0.01   0.00   0.00
  47   8    -0.00   0.00  -0.00    -0.00   0.00  -0.00     0.00  -0.00  -0.00
  48   7     0.18   0.03   0.01    -0.00   0.00  -0.00    -0.00  -0.03   0.01
  49   1    -0.22  -0.61   0.18     0.00   0.00  -0.00     0.03   0.08  -0.02
  50   1    -0.45   0.50  -0.23     0.01  -0.01   0.00    -0.02   0.02  -0.01
  51   7    -0.01   0.00  -0.00     0.00   0.00  -0.00    -0.19   0.18  -0.03
  52   1     0.02  -0.02   0.00     0.00  -0.00   0.00     0.58  -0.71   0.12
  53   1     0.02   0.00   0.00    -0.00  -0.00  -0.00     0.17   0.05   0.01
                    148                    149                    150
                        a                      a                      a 
 Frequencies --  3537.4030              3538.6760              3559.6068
 Red. masses --     1.9596                 1.9770                 2.1721
 Frc consts  --     0.0000                 0.0000                 0.0000
 IR Inten    --    11.9205                22.8160                13.2379
 Raman Activ --     0.0000                 0.0000                 0.0000
 Depolar     --     0.0000                 0.0000                 0.0000
 Atom AN      X      Y      Z        X      Y      Z        X      Y      Z
   1   8    -0.00   0.00   0.00     0.00  -0.00  -0.00    -0.00   0.00   0.00
   2   6    -0.00  -0.00   0.00     0.00  -0.00  -0.00     0.00   0.00   0.00
   3   1     0.00  -0.00  -0.00    -0.00   0.00   0.00     0.00  -0.00  -0.00
   4   1     0.00   0.00  -0.00    -0.00  -0.00   0.00    -0.00  -0.00  -0.00
   5   6     0.00   0.00   0.00    -0.00  -0.00   0.00     0.00   0.00  -0.00
   6   1    -0.00  -0.00  -0.00    -0.00   0.00   0.00     0.00  -0.00  -0.00
   7   1    -0.00   0.00  -0.00     0.00  -0.00   0.00    -0.00   0.00  -0.00
   8   7     0.00   0.00  -0.00    -0.00  -0.00  -0.00     0.00  -0.00   0.00
   9   6     0.00   0.00   0.00     0.00   0.00  -0.00     0.00   0.00  -0.00
  10   1    -0.00   0.00  -0.00    -0.00   0.00  -0.00    -0.00  -0.00   0.00
  11   1    -0.00   0.00  -0.00     0.00  -0.00  -0.00    -0.00  -0.00  -0.00
  12   1    -0.00  -0.00  -0.00    -0.00   0.00   0.00     0.00  -0.00  -0.00
  13   6    -0.00   0.00  -0.00    -0.00   0.00  -0.00     0.00  -0.00   0.00
  14   1    -0.00  -0.00  -0.00    -0.00   0.00  -0.00     0.00  -0.00   0.00
  15   1     0.00  -0.00   0.00     0.00  -0.00   0.00    -0.00   0.00  -0.00
  16   1     0.00   0.00  -0.00     0.00   0.00   0.00    -0.00  -0.00  -0.00
  17   6    -0.00   0.00  -0.00    -0.00   0.00  -0.00     0.00  -0.00   0.00
  18   1    -0.00  -0.00  -0.00    -0.00   0.00   0.00     0.00  -0.00  -0.00
  19   1    -0.00   0.00   0.00     0.00   0.00  -0.00    -0.00  -0.00  -0.00
  20   1     0.00  -0.00   0.00     0.00  -0.00  -0.00    -0.00   0.00   0.00
  21   1     0.00  -0.00  -0.00    -0.00   0.01   0.00     0.00  -0.00  -0.00
  22   6    -0.00  -0.00  -0.00     0.00   0.00   0.00     0.00  -0.00  -0.00
  23   8    -0.00   0.00   0.00     0.00  -0.00  -0.00    -0.00   0.00   0.00
  24   7     0.00   0.00   0.00     0.00   0.00   0.00    -0.00  -0.00  -0.00
  25   1     0.00  -0.00  -0.00     0.00  -0.00  -0.00    -0.00  -0.00  -0.00
  26   1    -0.00  -0.00  -0.00    -0.00  -0.00  -0.00     0.00   0.00   0.00
  27   7    -0.00   0.00   0.00    -0.00  -0.00  -0.00     0.00   0.00   0.00
  28   1     0.00  -0.00   0.00     0.00   0.00   0.00    -0.00  -0.00  -0.00
  29   1     0.00   0.00  -0.00     0.00   0.00  -0.00    -0.00  -0.00   0.00
  30   6    -0.00   0.00  -0.00    -0.00   0.01  -0.00     0.01   0.00   0.01
  31   8     0.00  -0.00   0.00     0.00  -0.00   0.00    -0.00   0.00  -0.00
  32   7     0.01  -0.01   0.01    -0.11   0.16  -0.17     0.01  -0.02   0.02
  33   1     0.00   0.01   0.00    -0.02  -0.18  -0.01     0.00   0.03   0.00
  34   1    -0.03   0.03  -0.04     0.44  -0.45   0.66    -0.06   0.06  -0.09
  35   7     0.00  -0.00   0.00     0.03   0.01   0.03     0.22   0.00   0.20
  36   1    -0.01   0.01  -0.01    -0.04   0.03  -0.03    -0.42   0.35  -0.33
  37   1    -0.00  -0.00  -0.00    -0.07  -0.06  -0.07    -0.41  -0.36  -0.44
  38   6    -0.01  -0.01   0.00    -0.00  -0.00   0.00     0.00  -0.00  -0.00
  39   8     0.00   0.00  -0.00     0.00   0.00  -0.00     0.00   0.00   0.00
  40   7    -0.01   0.03  -0.01    -0.00   0.00  -0.00     0.00  -0.01   0.00
  41   1     0.06  -0.06   0.03     0.01  -0.01   0.00    -0.01   0.01  -0.01
  42   1    -0.01  -0.04  -0.00    -0.00  -0.00  -0.00     0.00   0.01   0.00
  43   7    -0.12  -0.24   0.04    -0.01  -0.02   0.00     0.00   0.00  -0.00
  44   1     0.30   0.87  -0.18     0.02   0.06  -0.01    -0.01  -0.02   0.00
  45   1     0.16   0.02   0.03     0.02   0.00   0.00    -0.01  -0.00  -0.00
  46   6     0.00  -0.00  -0.00    -0.00   0.00   0.00    -0.00   0.00  -0.00
  47   8    -0.00   0.00   0.00     0.00  -0.00  -0.00     0.00  -0.00   0.00
  48   7     0.00   0.00  -0.00    -0.00  -0.01   0.00    -0.00   0.00  -0.00
  49   1    -0.00  -0.01   0.00     0.01   0.02  -0.00    -0.00  -0.00   0.00
  50   1     0.00  -0.00   0.00    -0.00   0.00  -0.00     0.00  -0.00   0.00
  51   7     0.01  -0.01   0.00    -0.04   0.04  -0.01     0.00  -0.00   0.00
  52   1    -0.04   0.05  -0.01     0.12  -0.15   0.02    -0.00   0.00  -0.00
  53   1    -0.01  -0.00  -0.00     0.04   0.01   0.00    -0.00  -0.00  -0.00
                    151                    152                    153
                        a                      a                      a 
 Frequencies --  3563.5180              3564.1402              3566.5422
 Red. masses --     2.1799                 2.1787                 2.1853
 Frc consts  --     0.0000                 0.0000                 0.0000
 IR Inten    --    11.6420                10.6050                15.7679
 Raman Activ --     0.0000                 0.0000                 0.0000
 Depolar     --     0.0000                 0.0000                 0.0000
 Atom AN      X      Y      Z        X      Y      Z        X      Y      Z
   1   8    -0.00   0.00   0.00    -0.00   0.00  -0.00    -0.00   0.00  -0.00
   2   6     0.00  -0.00  -0.00     0.00  -0.00   0.00     0.00  -0.00   0.00
   3   1    -0.00   0.00   0.00     0.00  -0.00   0.00     0.00   0.00   0.00
   4   1     0.00   0.00   0.00    -0.00   0.00   0.00    -0.00  -0.00  -0.00
   5   6    -0.00   0.00   0.00     0.00   0.00  -0.00    -0.00  -0.00  -0.00
   6   1     0.00  -0.00  -0.00    -0.00   0.00   0.00    -0.00   0.00   0.00
   7   1    -0.00   0.00   0.00    -0.00  -0.00   0.00    -0.00   0.00  -0.00
   8   7    -0.00   0.00  -0.00     0.00   0.00  -0.00     0.00   0.00   0.00
   9   6     0.00   0.00  -0.00    -0.00  -0.00  -0.00    -0.00  -0.00   0.00
  10   1     0.00   0.00   0.00    -0.00  -0.00   0.00    -0.00   0.00  -0.00
  11   1    -0.00   0.00   0.00     0.00   0.00  -0.00     0.00   0.00   0.00
  12   1    -0.00   0.00  -0.00    -0.00   0.00  -0.00    -0.00   0.00   0.00
  13   6     0.00   0.00  -0.00    -0.00  -0.00  -0.00     0.00   0.00   0.00
  14   1    -0.00   0.00   0.00    -0.00  -0.00  -0.00    -0.00   0.00  -0.00
  15   1     0.00  -0.00   0.00    -0.00  -0.00   0.00     0.00  -0.00   0.00
  16   1    -0.00  -0.00   0.00     0.00   0.00  -0.00    -0.00   0.00   0.00
  17   6     0.00   0.00   0.00    -0.00  -0.00  -0.00    -0.00   0.00   0.00
  18   1    -0.00  -0.00  -0.00    -0.00   0.00   0.00     0.00  -0.00  -0.00
  19   1    -0.00   0.00   0.00     0.00   0.00   0.00     0.00   0.00  -0.00
  20   1     0.00  -0.00   0.00     0.00  -0.00   0.00     0.00  -0.00   0.00
  21   1     0.00  -0.00  -0.00     0.00  -0.00   0.00    -0.00  -0.00  -0.00
  22   6     0.01   0.01   0.00     0.00   0.00   0.00    -0.00  -0.00  -0.00
  23   8    -0.00  -0.00  -0.00    -0.00  -0.00  -0.00     0.00   0.00   0.00
  24   7     0.01   0.02   0.01     0.00   0.00   0.00     0.00  -0.00  -0.00
  25   1     0.01  -0.00  -0.00     0.00  -0.00  -0.00    -0.00   0.00   0.01
  26   1    -0.03  -0.06  -0.04    -0.00  -0.00  -0.00     0.00   0.01   0.00
  27   7     0.25   0.16   0.07     0.01   0.00   0.00    -0.00  -0.00  -0.00
  28   1    -0.28  -0.42  -0.40    -0.01  -0.01  -0.01     0.01   0.01   0.01
  29   1    -0.66  -0.17   0.15    -0.02  -0.01   0.00     0.01   0.00  -0.00
  30   6    -0.00  -0.00  -0.00    -0.00   0.00  -0.00     0.00   0.00   0.00
  31   8     0.00   0.00  -0.00     0.00  -0.00   0.00    -0.00  -0.00  -0.00
  32   7    -0.00   0.00  -0.00    -0.00   0.00  -0.00     0.00  -0.00   0.00
  33   1    -0.00  -0.00   0.00    -0.00  -0.00   0.00     0.00   0.00   0.00
  34   1     0.00  -0.00   0.00     0.00  -0.00   0.00    -0.00   0.00  -0.00
  35   7    -0.00   0.00  -0.00    -0.00  -0.00  -0.00     0.00  -0.00   0.00
  36   1     0.00  -0.00   0.00     0.01  -0.01   0.01    -0.00   0.00  -0.00
  37   1     0.00   0.00   0.00     0.01   0.01   0.01    -0.00  -0.00  -0.00
  38   6    -0.00   0.00  -0.00     0.00  -0.01   0.00     0.00  -0.00   0.00
  39   8     0.00  -0.00  -0.00    -0.00   0.00  -0.00    -0.00   0.00   0.00
  40   7    -0.00   0.01  -0.00     0.07  -0.29   0.05     0.00  -0.00   0.00
  41   1     0.01  -0.01   0.01    -0.47   0.47  -0.19    -0.00   0.00  -0.00
  42   1    -0.01  -0.02  -0.00     0.19   0.62   0.01     0.00   0.00   0.00
  43   7     0.00   0.00  -0.00    -0.01  -0.02   0.00    -0.00  -0.00   0.00
  44   1    -0.00  -0.00   0.00     0.03   0.09  -0.02     0.00   0.00  -0.00
  45   1    -0.00  -0.00  -0.00     0.02   0.00   0.00     0.00  -0.00   0.00
  46   6    -0.00  -0.00   0.00     0.00   0.00  -0.00     0.00  -0.01   0.00
  47   8     0.00  -0.00  -0.00    -0.00  -0.00  -0.00    -0.00   0.00  -0.00
  48   7     0.00  -0.01   0.00    -0.00   0.00  -0.00     0.05  -0.28   0.10
  49   1     0.01   0.01  -0.00    -0.00  -0.00   0.00     0.26   0.62  -0.17
  50   1    -0.01   0.01  -0.00     0.00  -0.00   0.00    -0.43   0.44  -0.21
  51   7    -0.00  -0.00  -0.00    -0.00   0.00  -0.00     0.02  -0.01   0.00
  52   1    -0.00  -0.00  -0.00     0.00  -0.00   0.00    -0.05   0.06  -0.01
  53   1     0.00   0.00   0.00     0.00   0.00   0.00    -0.02  -0.01  -0.00
