 Entering Gaussian System
 *********************************************
 Gaussian 98:
 frequency output generated by the xtb code
 *********************************************
                         Standard orientation:
 --------------------------------------------------------------------
  Center     Atomic     Atomic              Coordinates (Angstroms)
  Number     Number      Type              X           Y           Z
 --------------------------------------------------------------------
    1          8             0        1.871793   -4.668715   -2.176163
    2          6             0        2.439641   -3.394379   -2.379743
    3          1             0        2.841783   -2.994654   -1.439427
    4          1             0        3.265671   -3.447543   -3.100345
    5          6             0        1.410648   -2.432416   -2.977215
    6          1             0        1.099819   -2.815212   -3.951053
    7          1             0        1.907889   -1.467042   -3.103084
    8          7             0        0.184460   -2.190216   -2.174049
    9          6             0       -0.720009   -3.351748   -2.170255
   10          1             0       -1.040348   -3.580916   -3.184329
   11          1             0       -1.590835   -3.107255   -1.563954
   12          1             0       -0.210619   -4.220336   -1.761577
   13          6             0       -0.530310   -1.049971   -2.775391
   14          1             0       -0.828474   -1.288235   -3.794001
   15          1             0        0.121204   -0.180178   -2.781387
   16          1             0       -1.414361   -0.839748   -2.173545
   17          6             0        0.515376   -1.842989   -0.783106
   18          1             0        1.213901   -1.009911   -0.775728
   19          1             0        0.938686   -2.701449   -0.269912
   20          1             0       -0.410808   -1.546640   -0.288259
   21          1             0        2.566544   -5.318643   -2.033118
   22          6             0        3.171502    0.888094   -1.224808
   23          8             0        2.230377    0.557590   -1.953609
   24          7             0        2.999667    1.165665    0.075968
   25          1             0        2.051879    1.210539    0.468178
   26          1             0        3.764345    1.484906    0.642051
   27          7             0        4.444194    0.908526   -1.696064
   28          1             0        5.192981    1.307877   -1.159292
   29          1             0        4.581239    0.818499   -2.687498
   30          6             0       -0.400000    1.935462    0.216968
   31          8             0        0.389495    1.417708    1.023068
   32          7             0       -1.510477    2.573366    0.620742
   33          1             0       -1.822677    2.468291    1.587205
   34          1             0       -2.192735    2.874473   -0.051474
   35          7             0       -0.162358    1.889983   -1.109047
   36          1             0       -0.741741    2.395063   -1.753744
   37          1             0        0.710448    1.490573   -1.444176
   38          6             0       -2.739970   -0.408265    0.648951
   39          8             0       -2.374735   -1.093760   -0.303208
   40          7             0       -2.079100   -0.369526    1.826087
   41          1             0       -1.145458   -0.743065    1.854493
   42          1             0       -2.273586    0.391941    2.469405
   43          7             0       -3.843902    0.382938    0.582554
   44          1             0       -4.189258    0.810225    1.424984
   45          1             0       -4.506099    0.202051   -0.152096
   46          6             0       -1.376526    2.247961    4.077491
   47          8             0       -2.298685    2.056469    3.278180
   48          7             0       -0.096094    1.998344    3.752451
   49          1             0        0.130233    1.754110    2.785844
   50          1             0        0.652775    2.235157    4.376851
   51          7             0       -1.621151    2.700912    5.326486
   52          1             0       -0.896172    2.821490    6.009211
   53          1             0       -2.575135    2.846012    5.604635
 --------------------------------------------------------------------
     1 basis functions        1 primitive gaussians
     1 alpha electrons        1 beta electrons

 Harmonic frequencies (cm**-1), IR intensities (km*mol⁻¹),
 Raman scattering activities (A**4/amu), Raman depolarization ratios,
 reduced masses (AMU), force constants (mDyne/A) and normal coordinates:
                      1                      2                      3
                        a                      a                      a 
 Frequencies --    13.6400                21.4503                30.3435
 Red. masses --    12.8879                12.1106                12.0422
 Frc consts  --     0.0000                 0.0000                 0.0000
 IR Inten    --     0.3055                 0.3206                 1.2303
 Raman Activ --     0.0000                 0.0000                 0.0000
 Depolar     --     0.0000                 0.0000                 0.0000
 Atom AN      X      Y      Z        X      Y      Z        X      Y      Z
   1   8     0.04   0.11   0.53    -0.30  -0.37  -0.18     0.19  -0.08  -0.50
   2   6     0.03   0.06   0.24    -0.10  -0.36   0.02     0.07   0.05   0.04
   3   1     0.01   0.06   0.05    -0.03  -0.15   0.03    -0.03  -0.06   0.06
   4   1     0.01  -0.02   0.07    -0.02  -0.11   0.02     0.05   0.10   0.04
   5   6     0.02  -0.04   0.09     0.04  -0.19   0.05     0.07   0.12   0.16
   6   1     0.01  -0.05   0.04     0.00  -0.04   0.01     0.03   0.07   0.03
   7   1     0.00  -0.01  -0.00     0.05  -0.07   0.02     0.01   0.05   0.09
   8   7    -0.01   0.03   0.04     0.07  -0.04   0.04     0.02  -0.05   0.15
   9   6    -0.01   0.03   0.08    -0.05   0.04   0.10     0.16  -0.15   0.13
  10   1     0.00  -0.01   0.03    -0.02   0.00   0.03     0.06  -0.06   0.03
  11   1    -0.01   0.02   0.01    -0.01   0.05   0.02     0.03  -0.07   0.03
  12   1    -0.01   0.02   0.04    -0.04   0.01   0.05     0.07  -0.03   0.04
  13   6     0.02  -0.01  -0.06     0.17  -0.01  -0.03    -0.10  -0.13   0.12
  14   1     0.02  -0.02  -0.02     0.04  -0.01  -0.00    -0.02  -0.05   0.04
  15   1     0.01  -0.00  -0.02     0.07  -0.02  -0.02    -0.05  -0.02   0.03
  16   1    -0.00   0.01  -0.03     0.05   0.03  -0.01    -0.03  -0.06   0.04
  17   6    -0.05   0.11   0.03     0.10   0.01   0.01    -0.04   0.00   0.14
  18   1    -0.01   0.03  -0.00     0.05  -0.01  -0.01    -0.03   0.02   0.04
  19   1    -0.02   0.04   0.03     0.01   0.00   0.02     0.01   0.02   0.05
  20   1    -0.02   0.04  -0.01     0.04   0.03   0.00    -0.02  -0.02   0.04
  21   1     0.01   0.03   0.16    -0.10  -0.12  -0.05     0.06  -0.01  -0.16
  22   6    -0.02   0.05  -0.12     0.01   0.19  -0.02    -0.03  -0.01  -0.01
  23   8    -0.03   0.04  -0.11     0.03   0.02   0.04    -0.04  -0.03   0.01
  24   7     0.01   0.02  -0.11     0.02   0.28  -0.04    -0.01   0.01  -0.02
  25   1     0.01  -0.00  -0.02     0.01   0.05  -0.00    -0.00   0.00  -0.00
  26   1     0.00   0.01  -0.04    -0.00   0.12  -0.02    -0.00   0.01  -0.01
  27   7    -0.03   0.11  -0.16    -0.02   0.38  -0.08    -0.04  -0.00  -0.04
  28   1    -0.01   0.03  -0.05    -0.01   0.13  -0.03    -0.01   0.00  -0.02
  29   1    -0.02   0.04  -0.05    -0.01   0.08  -0.02    -0.02  -0.01  -0.01
  30   6     0.01  -0.02  -0.02    -0.01   0.00   0.03    -0.00   0.01  -0.01
  31   8     0.02  -0.07  -0.06     0.01   0.05   0.05    -0.01  -0.02  -0.03
  32   7     0.05   0.00   0.03    -0.01   0.01   0.03     0.04   0.07   0.00
  33   1     0.02  -0.00   0.01    -0.00   0.01   0.01     0.01   0.03   0.00
  34   1     0.01   0.01   0.02    -0.01  -0.01   0.01     0.01   0.03   0.00
  35   7    -0.03   0.01  -0.03    -0.03  -0.05   0.04    -0.03  -0.01  -0.02
  36   1    -0.01   0.01   0.00    -0.02  -0.03   0.01    -0.00   0.01  -0.00
  37   1    -0.01   0.00  -0.02    -0.01  -0.02   0.01    -0.01  -0.01  -0.01
  38   6    -0.10   0.08  -0.12     0.05   0.05  -0.05    -0.11   0.06  -0.03
  39   8    -0.10   0.10  -0.14     0.11   0.11  -0.07    -0.10  -0.10   0.09
  40   7    -0.17  -0.00  -0.09     0.01   0.01  -0.03    -0.26   0.09   0.04
  41   1    -0.06  -0.02  -0.01     0.00   0.01  -0.00    -0.09  -0.02   0.06
  42   1    -0.04  -0.00  -0.02    -0.00  -0.00  -0.00    -0.06   0.04  -0.01
  43   7    -0.04   0.17  -0.17     0.05   0.05  -0.07     0.00   0.22  -0.26
  44   1    -0.02   0.04  -0.05     0.00   0.00  -0.02    -0.02   0.08  -0.09
  45   1    -0.00   0.06  -0.06     0.02   0.02  -0.03     0.02   0.06  -0.08
  46   6     0.09  -0.18   0.02    -0.03  -0.04   0.04     0.05  -0.01   0.01
  47   8     0.07  -0.06   0.02    -0.02  -0.03   0.03     0.04   0.15  -0.00
  48   7     0.07  -0.26  -0.01    -0.03  -0.01   0.04     0.03  -0.16  -0.00
  49   1     0.01  -0.05  -0.01    -0.00   0.01   0.01    -0.00  -0.03  -0.01
  50   1     0.03  -0.10  -0.00    -0.01  -0.01   0.02     0.01  -0.07   0.00
  51   7     0.15  -0.28   0.07    -0.05  -0.09   0.06     0.11  -0.04   0.03
  52   1     0.04  -0.10   0.02    -0.02  -0.02   0.02     0.03  -0.05   0.01
  53   1     0.04  -0.06   0.02    -0.02  -0.03   0.01     0.03   0.02   0.01
                      4                      5                      6
                        a                      a                      a 
 Frequencies --    34.9651                41.2501                44.1975
 Red. masses --    12.4148                11.3570                12.6148
 Frc consts  --     0.0000                 0.0000                 0.0000
 IR Inten    --     3.4383                 1.7756                 0.6372
 Raman Activ --     0.0000                 0.0000                 0.0000
 Depolar     --     0.0000                 0.0000                 0.0000
 Atom AN      X      Y      Z        X      Y      Z        X      Y      Z
   1   8    -0.15   0.01  -0.09     0.02  -0.12  -0.14    -0.10   0.04  -0.02
   2   6    -0.08   0.01   0.04     0.06  -0.06   0.22    -0.09   0.03  -0.02
   3   1    -0.03  -0.02   0.02    -0.04  -0.07   0.11    -0.01   0.00  -0.01
   4   1    -0.02   0.01   0.02     0.06   0.02   0.11    -0.03   0.01  -0.02
   5   6    -0.03   0.08   0.07     0.18   0.03   0.17    -0.10   0.05   0.04
   6   1    -0.02   0.03   0.02     0.09   0.04   0.03    -0.05   0.02   0.02
   7   1     0.00   0.02   0.03     0.07   0.01   0.09    -0.03   0.01   0.01
   8   7    -0.02   0.14   0.09     0.08   0.00   0.01    -0.06   0.07   0.11
   9   6    -0.04   0.14   0.16     0.09  -0.01  -0.12    -0.06   0.06   0.18
  10   1    -0.01   0.03   0.05     0.07  -0.00  -0.05    -0.03   0.01   0.06
  11   1    -0.01   0.06   0.04    -0.00  -0.01  -0.07    -0.01   0.02   0.06
  12   1    -0.01   0.05   0.06     0.01  -0.00  -0.02    -0.01   0.02   0.05
  13   6    -0.01   0.11   0.04     0.14   0.00  -0.07    -0.09   0.05   0.12
  14   1    -0.01   0.02   0.02     0.07  -0.00  -0.03    -0.03   0.01   0.04
  15   1    -0.00   0.03  -0.00     0.04  -0.00  -0.00    -0.03   0.02   0.03
  16   1    -0.00   0.04   0.01     0.02   0.01  -0.05    -0.02   0.01   0.04
  17   6     0.01   0.19   0.06    -0.12  -0.01   0.06     0.02   0.09   0.08
  18   1     0.01   0.05   0.00    -0.04   0.00   0.05    -0.00   0.03   0.01
  19   1     0.00   0.06   0.03    -0.05  -0.00   0.03     0.02   0.03   0.02
  20   1     0.01   0.06   0.02    -0.06  -0.01  -0.02     0.01   0.02   0.04
  21   1    -0.04  -0.01  -0.03    -0.00  -0.04  -0.03    -0.03   0.01  -0.02
  22   6     0.11   0.07   0.06    -0.06  -0.05   0.00     0.13  -0.00  -0.05
  23   8     0.18   0.09   0.00    -0.09   0.00   0.00     0.11  -0.03  -0.00
  24   7     0.05  -0.04   0.08    -0.06   0.02  -0.01     0.16   0.29  -0.12
  25   1     0.01  -0.03   0.01    -0.02   0.02  -0.01     0.05   0.08  -0.02
  26   1     0.00  -0.01   0.04    -0.01  -0.01  -0.00     0.05   0.06  -0.04
  27   7     0.14   0.20   0.12    -0.05  -0.21   0.02     0.14  -0.25  -0.06
  28   1     0.03   0.05   0.05    -0.01  -0.06   0.00     0.05  -0.05  -0.04
  29   1     0.05   0.07   0.03    -0.01  -0.06   0.01     0.03  -0.11  -0.01
  30   6     0.01  -0.13  -0.10    -0.06   0.08  -0.04     0.11   0.11  -0.06
  31   8    -0.06  -0.28  -0.13    -0.04   0.11  -0.06     0.16   0.23  -0.04
  32   7    -0.01  -0.19  -0.11    -0.09   0.03  -0.01     0.05   0.02  -0.10
  33   1    -0.01  -0.05  -0.03    -0.01   0.01   0.00     0.01   0.01  -0.03
  34   1     0.02  -0.01  -0.03    -0.03   0.02   0.00     0.01  -0.01  -0.03
  35   7     0.11   0.02  -0.10    -0.06   0.13  -0.04     0.14   0.10  -0.06
  36   1     0.05   0.04  -0.02    -0.03   0.02  -0.01     0.03   0.01  -0.02
  37   1     0.04   0.02  -0.02    -0.02   0.03  -0.01     0.04   0.03  -0.01
  38   6    -0.13  -0.10   0.05    -0.08   0.04  -0.04    -0.03  -0.11   0.03
  39   8    -0.07  -0.03   0.03    -0.09   0.22  -0.17    -0.07  -0.23   0.09
  40   7    -0.11  -0.07   0.05     0.12   0.12  -0.15     0.01  -0.01   0.00
  41   1    -0.01   0.02  -0.00     0.07   0.12  -0.10    -0.00  -0.01   0.01
  42   1    -0.04  -0.02   0.01     0.01   0.01  -0.02     0.00   0.01  -0.01
  43   7    -0.24  -0.26   0.11    -0.31  -0.25   0.22    -0.04  -0.13  -0.00
  44   1    -0.07  -0.08   0.03    -0.07  -0.10   0.08    -0.00  -0.01  -0.01
  45   1    -0.06  -0.08   0.03    -0.10  -0.09   0.08    -0.02  -0.05   0.01
  46   6     0.07  -0.00  -0.11     0.09  -0.01   0.03    -0.08  -0.08  -0.04
  47   8     0.04   0.02  -0.07     0.09   0.00   0.05    -0.04  -0.01  -0.13
  48   7     0.04  -0.19  -0.13     0.10   0.12  -0.05    -0.05   0.13  -0.05
  49   1    -0.00  -0.07  -0.03     0.02   0.04  -0.02     0.01   0.06  -0.01
  50   1     0.02  -0.05  -0.05     0.03   0.02  -0.01    -0.02  -0.00   0.02
  51   7     0.18   0.18  -0.16     0.12  -0.16   0.09    -0.19  -0.42   0.06
  52   1     0.05   0.02  -0.05     0.04  -0.03   0.01    -0.06  -0.08   0.02
  53   1     0.05   0.07  -0.04     0.03  -0.05   0.03    -0.06  -0.11   0.00
                      7                      8                      9
                        a                      a                      a 
 Frequencies --    45.6395                52.3240                55.8622
 Red. masses --    12.2699                11.9614                12.5608
 Frc consts  --     0.0000                 0.0000                 0.0000
 IR Inten    --     0.8739                 5.4227                 0.5118
 Raman Activ --     0.0000                 0.0000                 0.0000
 Depolar     --     0.0000                 0.0000                 0.0000
 Atom AN      X      Y      Z        X      Y      Z        X      Y      Z
   1   8    -0.08  -0.06   0.05    -0.04  -0.04  -0.14    -0.02  -0.01   0.00
   2   6     0.00  -0.10  -0.06    -0.00  -0.00   0.15     0.01  -0.01   0.07
   3   1     0.03  -0.03  -0.03    -0.04  -0.04   0.08    -0.01  -0.01   0.03
   4   1    -0.02  -0.06  -0.04     0.03   0.03   0.07     0.01   0.00   0.03
   5   6     0.02  -0.06  -0.01     0.08   0.08   0.15     0.05   0.03   0.06
   6   1    -0.02  -0.02   0.01     0.03   0.04   0.03     0.03   0.02   0.01
   7   1     0.02  -0.03  -0.02     0.03   0.02   0.06     0.02   0.01   0.04
   8   7     0.09   0.02   0.08     0.05   0.11   0.09     0.01   0.01   0.01
   9   6    -0.00   0.09   0.11     0.05   0.09   0.11    -0.00   0.02  -0.08
  10   1    -0.02   0.04   0.04     0.03   0.01   0.03     0.01   0.02  -0.03
  11   1     0.02   0.04   0.05     0.01   0.04   0.01    -0.01   0.00  -0.03
  12   1    -0.01   0.01   0.02     0.01   0.03   0.06    -0.01  -0.00  -0.02
  13   6     0.13   0.08   0.13     0.05   0.06  -0.01     0.05   0.04   0.02
  14   1     0.02   0.04   0.04     0.02  -0.00   0.00     0.02   0.02  -0.00
  15   1     0.05   0.01   0.04     0.02   0.02  -0.02     0.02   0.01   0.02
  16   1     0.05   0.03   0.05     0.01   0.03  -0.01     0.01   0.01  -0.00
  17   6     0.19  -0.02   0.06    -0.02   0.18   0.08    -0.05  -0.04   0.04
  18   1     0.06  -0.01   0.01    -0.01   0.05   0.02    -0.02  -0.01   0.03
  19   1     0.06  -0.01   0.00    -0.01   0.06   0.04    -0.02  -0.02   0.01
  20   1     0.07  -0.00   0.04    -0.01   0.06   0.01    -0.02  -0.02   0.00
  21   1    -0.03  -0.03   0.00    -0.02  -0.02  -0.05    -0.01  -0.01   0.00
  22   6    -0.11  -0.05  -0.03    -0.00  -0.06  -0.12    -0.02   0.02  -0.03
  23   8    -0.12   0.20  -0.15    -0.03   0.12  -0.20    -0.05  -0.04   0.04
  24   7    -0.14  -0.34   0.03     0.02  -0.31  -0.07    -0.02   0.44  -0.12
  25   1    -0.04  -0.06  -0.01     0.00  -0.06  -0.02    -0.00   0.10  -0.02
  26   1    -0.04  -0.12   0.03     0.01  -0.10  -0.01     0.01   0.09  -0.04
  27   7    -0.09  -0.08   0.02    -0.00  -0.07  -0.13     0.00  -0.29  -0.00
  28   1    -0.02  -0.07   0.04     0.01  -0.06  -0.02     0.00  -0.04  -0.03
  29   1    -0.02   0.03   0.00    -0.00   0.02  -0.04    -0.00  -0.12   0.00
  30   6    -0.07   0.18  -0.06     0.00  -0.06  -0.01    -0.03   0.05  -0.02
  31   8    -0.15   0.04  -0.11     0.03  -0.06  -0.03    -0.03   0.04  -0.04
  32   7    -0.05   0.21  -0.02    -0.03  -0.13   0.02    -0.05   0.01  -0.01
  33   1    -0.02   0.04  -0.01    -0.01  -0.06   0.00    -0.02  -0.01  -0.01
  34   1     0.00   0.10   0.00    -0.01  -0.04   0.01    -0.01   0.01  -0.00
  35   7    -0.02   0.36  -0.06    -0.00   0.03  -0.01     0.01   0.14  -0.01
  36   1     0.00   0.12  -0.01    -0.01   0.00   0.01    -0.00   0.04  -0.00
  37   1    -0.02   0.08  -0.02     0.00   0.02  -0.01    -0.00   0.03  -0.00
  38   6     0.11  -0.05   0.02     0.05   0.04   0.06     0.07   0.00   0.05
  39   8     0.21  -0.12   0.11    -0.04   0.15  -0.05    -0.02   0.03  -0.01
  40   7     0.07   0.08   0.05     0.02  -0.27   0.09     0.13  -0.13   0.03
  41   1     0.03   0.04   0.03    -0.01  -0.12   0.02     0.03  -0.06  -0.00
  42   1     0.00   0.03  -0.01     0.03  -0.09   0.05     0.05  -0.04   0.02
  43   7     0.09  -0.11  -0.09     0.21   0.26   0.16     0.15   0.11   0.15
  44   1     0.01  -0.02  -0.04     0.08   0.06   0.06     0.07   0.03   0.05
  45   1     0.04  -0.05  -0.03     0.05   0.13   0.03     0.03   0.06   0.05
  46   6    -0.03  -0.05  -0.02    -0.09  -0.03  -0.04    -0.04  -0.10  -0.04
  47   8    -0.06   0.12  -0.04    -0.10  -0.29  -0.00    -0.07  -0.12  -0.02
  48   7    -0.06  -0.22  -0.03    -0.06   0.23  -0.07    -0.09  -0.51   0.07
  49   1    -0.03  -0.04  -0.02    -0.01   0.03  -0.01    -0.03  -0.11   0.01
  50   1    -0.01  -0.09  -0.01    -0.02   0.10  -0.03    -0.02  -0.08  -0.01
  51   7     0.03  -0.10   0.01    -0.16  -0.01  -0.06     0.02   0.31  -0.18
  52   1     0.01  -0.07   0.01    -0.04   0.07  -0.03    -0.00  -0.00  -0.03
  53   1     0.01  -0.00   0.01    -0.05  -0.04  -0.02     0.01   0.09  -0.04
                     10                     11                     12
                        a                      a                      a 
 Frequencies --    56.9566                59.2159                63.8348
 Red. masses --    12.4153                12.1284                12.1247
 Frc consts  --     0.0000                 0.0000                 0.0000
 IR Inten    --     0.2403                 1.7310                 6.2337
 Raman Activ --     0.0000                 0.0000                 0.0000
 Depolar     --     0.0000                 0.0000                 0.0000
 Atom AN      X      Y      Z        X      Y      Z        X      Y      Z
   1   8    -0.06  -0.00   0.04     0.06   0.01  -0.02     0.09   0.00  -0.04
   2   6    -0.02  -0.03  -0.05    -0.02   0.04   0.02     0.03   0.01  -0.11
   3   1     0.01  -0.00  -0.02    -0.02   0.01   0.01     0.02   0.02  -0.04
   4   1    -0.01  -0.03  -0.02     0.00   0.03   0.01     0.00   0.00  -0.04
   5   6    -0.01  -0.02  -0.04    -0.06  -0.01   0.01    -0.02  -0.05  -0.11
   6   1    -0.01  -0.01  -0.01    -0.01  -0.01   0.00    -0.03  -0.04  -0.01
   7   1     0.00  -0.01  -0.02    -0.03   0.00   0.01    -0.01  -0.02  -0.07
   8   7     0.02   0.03  -0.02    -0.09  -0.07   0.00     0.05   0.03  -0.03
   9   6    -0.02   0.05   0.03    -0.01  -0.12   0.02     0.08   0.00   0.21
  10   1    -0.01   0.01   0.01     0.00  -0.04   0.01    -0.00  -0.04   0.08
  11   1     0.00   0.03   0.01    -0.01  -0.05   0.00     0.04   0.02   0.07
  12   1    -0.01   0.01   0.01     0.01  -0.02   0.01     0.04   0.02   0.08
  13   6     0.03   0.04  -0.02    -0.14  -0.12  -0.02    -0.03  -0.07  -0.13
  14   1     0.00   0.01  -0.00    -0.04  -0.04  -0.00    -0.04  -0.06  -0.02
  15   1     0.02   0.01  -0.01    -0.06  -0.02  -0.01    -0.01  -0.02  -0.09
  16   1     0.01   0.02  -0.00    -0.04  -0.04  -0.00     0.01  -0.00  -0.02
  17   6     0.07   0.04  -0.03    -0.11  -0.02  -0.00     0.15   0.22  -0.10
  18   1     0.02   0.01  -0.02    -0.04  -0.00  -0.01     0.05   0.06  -0.08
  19   1     0.02   0.01  -0.01    -0.02   0.00   0.01     0.05   0.08  -0.00
  20   1     0.02   0.02  -0.00    -0.03  -0.01  -0.01     0.06   0.09  -0.02
  21   1    -0.02  -0.01   0.01     0.03   0.01  -0.00     0.03   0.01  -0.01
  22   6    -0.03   0.03   0.16    -0.00   0.03   0.13     0.04  -0.04  -0.05
  23   8    -0.01   0.11   0.11     0.05  -0.09   0.13     0.06   0.06  -0.13
  24   7    -0.13   0.22   0.11    -0.06  -0.05   0.16    -0.03   0.05  -0.08
  25   1    -0.04   0.06   0.01    -0.02  -0.02   0.02    -0.01   0.02  -0.03
  26   1    -0.04   0.02   0.05    -0.03   0.03   0.04    -0.00  -0.03  -0.00
  27   7     0.03  -0.23   0.31    -0.01   0.27   0.16     0.09  -0.27   0.06
  28   1     0.00  -0.06   0.09    -0.02   0.08   0.05     0.02  -0.08   0.02
  29   1     0.03  -0.07   0.09     0.01   0.07   0.04     0.04  -0.07   0.02
  30   6    -0.18  -0.02  -0.08    -0.03   0.03  -0.14    -0.06  -0.12  -0.02
  31   8    -0.16   0.04  -0.10    -0.12  -0.04  -0.13    -0.03  -0.03   0.01
  32   7    -0.22  -0.08  -0.06     0.02   0.14  -0.18    -0.06  -0.10  -0.05
  33   1    -0.04  -0.02  -0.01    -0.00   0.04  -0.05    -0.01   0.01  -0.01
  34   1    -0.08  -0.04  -0.01     0.01   0.05  -0.05    -0.02  -0.05  -0.02
  35   7    -0.22  -0.05  -0.09     0.01  -0.01  -0.14    -0.13  -0.29  -0.03
  36   1    -0.06  -0.01  -0.03     0.03   0.01  -0.05    -0.04  -0.08  -0.01
  37   1    -0.04   0.01  -0.01     0.00  -0.02  -0.02    -0.02  -0.05  -0.00
  38   6     0.03  -0.03  -0.03     0.12   0.09   0.09     0.04   0.17   0.07
  39   8     0.05  -0.07   0.01    -0.08   0.11   0.02     0.20   0.35   0.03
  40   7    -0.11  -0.14   0.05     0.30   0.02   0.00    -0.01   0.16   0.12
  41   1    -0.05  -0.09   0.05     0.08   0.01  -0.04     0.02   0.09   0.02
  42   1    -0.01  -0.03   0.01     0.10   0.01   0.01    -0.03   0.03   0.04
  43   7     0.17   0.15  -0.17     0.18   0.18   0.30    -0.09   0.00   0.12
  44   1     0.03   0.04  -0.05     0.10   0.06   0.10    -0.05  -0.02   0.04
  45   1     0.06   0.06  -0.06     0.01   0.07   0.11    -0.01  -0.00   0.02
  46   6     0.17  -0.01  -0.03    -0.00  -0.08  -0.10    -0.09   0.00   0.05
  47   8     0.14  -0.13   0.06     0.01   0.07  -0.17    -0.11   0.21   0.03
  48   7     0.19   0.22  -0.17    -0.01  -0.09  -0.13    -0.12  -0.16   0.06
  49   1     0.03   0.05  -0.05    -0.00  -0.01  -0.04    -0.03  -0.02   0.01
  50   1     0.06   0.07  -0.06    -0.00  -0.07  -0.02    -0.03  -0.08   0.03
  51   7     0.24  -0.11   0.01    -0.02  -0.31  -0.03    -0.05  -0.09   0.10
  52   1     0.08   0.02  -0.02    -0.01  -0.09  -0.01    -0.01  -0.06   0.03
  53   1     0.07  -0.05   0.03    -0.00  -0.06  -0.02    -0.01   0.01   0.02
                     13                     14                     15
                        a                      a                      a 
 Frequencies --    74.4657                85.7917                94.2998
 Red. masses --    11.9281                12.6348                13.3862
 Frc consts  --     0.0000                 0.0000                 0.0000
 IR Inten    --     0.8938                 2.7109                16.9326
 Raman Activ --     0.0000                 0.0000                 0.0000
 Depolar     --     0.0000                 0.0000                 0.0000
 Atom AN      X      Y      Z        X      Y      Z        X      Y      Z
   1   8     0.01  -0.04  -0.05     0.13  -0.03  -0.01    -0.10   0.04  -0.01
   2   6    -0.05   0.00   0.01     0.02  -0.00  -0.13    -0.02   0.03   0.13
   3   1    -0.03  -0.00   0.01     0.02   0.02  -0.05    -0.03  -0.01   0.05
   4   1    -0.01   0.02   0.01    -0.01   0.00  -0.06     0.01   0.01   0.06
   5   6    -0.08  -0.04  -0.00    -0.09  -0.09  -0.08     0.06   0.09   0.09
   6   1    -0.03  -0.03   0.01    -0.05  -0.05  -0.01     0.03   0.04   0.01
   7   1    -0.03  -0.01  -0.03    -0.04  -0.02  -0.06     0.03   0.02   0.05
   8   7    -0.06   0.01   0.03    -0.02  -0.09   0.03     0.01   0.10   0.01
   9   6     0.02  -0.05   0.29     0.03  -0.12   0.19    -0.01   0.11  -0.04
  10   1    -0.00  -0.08   0.10    -0.02  -0.06   0.07     0.02   0.03  -0.02
  11   1     0.01   0.00   0.08     0.02  -0.03   0.07    -0.01   0.04  -0.03
  12   1     0.03   0.02   0.12     0.03  -0.02   0.06    -0.02   0.03  -0.00
  13   6    -0.16  -0.14  -0.13    -0.10  -0.14   0.02     0.04   0.09  -0.03
  14   1    -0.04  -0.09  -0.03    -0.04  -0.05   0.01     0.02   0.02  -0.01
  15   1    -0.07  -0.02  -0.07    -0.04  -0.03  -0.01     0.02   0.02  -0.02
  16   1    -0.05  -0.04  -0.04    -0.03  -0.05   0.02     0.01   0.04  -0.02
  17   6     0.00   0.27  -0.05     0.09   0.02  -0.03    -0.06   0.08   0.03
  18   1    -0.02   0.09  -0.07     0.02   0.01  -0.04    -0.02   0.02   0.02
  19   1     0.03   0.11   0.02     0.04   0.02   0.00    -0.02   0.02   0.01
  20   1     0.00   0.08  -0.02     0.04   0.02   0.01    -0.03   0.01  -0.00
  21   1     0.01  -0.00  -0.02     0.05   0.01  -0.01    -0.03  -0.00  -0.00
  22   6    -0.00   0.02   0.07    -0.05   0.02   0.01    -0.06   0.02  -0.06
  23   8    -0.03   0.17   0.04    -0.04  -0.04   0.02    -0.03   0.05  -0.12
  24   7     0.02  -0.12   0.11    -0.09   0.22  -0.04    -0.14   0.16  -0.10
  25   1     0.01   0.00   0.02    -0.02   0.01  -0.00    -0.03  -0.01  -0.02
  26   1     0.01  -0.05   0.03    -0.02   0.03  -0.00    -0.03  -0.00  -0.00
  27   7    -0.00  -0.03   0.07    -0.03  -0.08   0.05    -0.02  -0.11   0.03
  28   1     0.01  -0.04   0.03    -0.02   0.01   0.00    -0.01  -0.02   0.01
  29   1    -0.00   0.01   0.02    -0.01  -0.04   0.01     0.01  -0.03   0.01
  30   6     0.00   0.10   0.05     0.06   0.00   0.06    -0.01  -0.17   0.06
  31   8     0.06   0.22   0.07    -0.12  -0.41  -0.00    -0.15  -0.48   0.03
  32   7     0.03   0.16   0.06     0.14   0.08   0.14     0.22   0.19   0.11
  33   1     0.01   0.04   0.02     0.01  -0.03   0.02     0.04   0.05   0.02
  34   1    -0.01   0.01   0.02     0.07   0.12   0.05     0.08   0.10   0.03
  35   7    -0.11  -0.08   0.04     0.23   0.41   0.09    -0.10  -0.28   0.04
  36   1    -0.03  -0.02   0.01     0.08   0.15   0.04     0.03   0.02   0.03
  37   1    -0.02  -0.00   0.01     0.02   0.05   0.01    -0.02  -0.07   0.01
  38   6     0.03  -0.07  -0.17    -0.02   0.06  -0.07     0.10  -0.07  -0.04
  39   8    -0.13  -0.17  -0.21     0.03   0.20  -0.16    -0.02  -0.27   0.05
  40   7     0.23   0.02  -0.30    -0.04  -0.05  -0.06     0.23   0.12  -0.12
  41   1     0.06  -0.01  -0.10     0.01   0.02  -0.04     0.06   0.04  -0.03
  42   1     0.08  -0.00  -0.07    -0.02  -0.03   0.00     0.06   0.04  -0.04
  43   7     0.03  -0.07  -0.07    -0.07  -0.01   0.01     0.13  -0.04  -0.07
  44   1     0.04  -0.01  -0.01    -0.02  -0.02   0.01     0.06   0.03  -0.03
  45   1    -0.03  -0.04   0.02    -0.01   0.02  -0.01     0.01  -0.04   0.01
  46   6     0.04  -0.05   0.04    -0.02   0.00  -0.01    -0.02   0.06   0.00
  47   8     0.09  -0.20   0.03    -0.05  -0.16   0.06    -0.00   0.15  -0.04
  48   7     0.06  -0.12   0.14    -0.01   0.20  -0.09    -0.02   0.12  -0.00
  49   1     0.03  -0.01   0.04    -0.01  -0.00  -0.01    -0.01  -0.01   0.01
  50   1     0.01   0.04   0.02     0.00   0.05  -0.03    -0.00  -0.03   0.02
  51   7    -0.01   0.21  -0.07    -0.00   0.00  -0.00    -0.05  -0.06   0.04
  52   1    -0.02   0.02   0.01     0.01   0.06  -0.02    -0.02   0.01   0.01
  53   1    -0.01   0.01  -0.02     0.00  -0.01   0.01    -0.01   0.02  -0.00
                     16                     17                     18
                        a                      a                      a 
 Frequencies --   104.9820               121.3851               124.2775
 Red. masses --    11.3144                12.8825                13.1854
 Frc consts  --     0.0000                 0.0000                 0.0000
 IR Inten    --     1.3965                 0.5116                12.9236
 Raman Activ --     0.0000                 0.0000                 0.0000
 Depolar     --     0.0000                 0.0000                 0.0000
 Atom AN      X      Y      Z        X      Y      Z        X      Y      Z
   1   8    -0.01   0.12  -0.01    -0.02  -0.04   0.00    -0.02   0.05  -0.04
   2   6     0.00   0.08  -0.14    -0.04  -0.01   0.10    -0.01   0.06   0.08
   3   1     0.05   0.02  -0.06    -0.04  -0.01   0.04    -0.04   0.01   0.04
   4   1    -0.04   0.01  -0.08     0.01   0.01   0.05     0.02   0.03   0.05
   5   6    -0.08   0.11   0.04    -0.02  -0.02   0.03     0.03   0.06   0.01
   6   1    -0.05   0.05   0.01     0.01  -0.01   0.00     0.02   0.01   0.00
   7   1    -0.03   0.03   0.02    -0.01  -0.00   0.02     0.02   0.01  -0.00
   8   7     0.01   0.04   0.21    -0.08  -0.05  -0.04     0.02   0.15  -0.04
   9   6    -0.04   0.08   0.12    -0.02  -0.09  -0.06     0.03   0.13   0.10
  10   1    -0.03   0.05   0.03     0.00  -0.03  -0.02     0.01   0.00   0.04
  11   1    -0.00   0.02   0.05    -0.01  -0.04  -0.02     0.01   0.06   0.02
  12   1    -0.02   0.00   0.01     0.00  -0.02  -0.01     0.01   0.05   0.06
  13   6     0.01   0.13   0.38    -0.09  -0.09  -0.09     0.01   0.05  -0.19
  14   1    -0.03   0.07   0.11     0.00  -0.03  -0.03     0.01  -0.02  -0.05
  15   1     0.02   0.03   0.11    -0.04  -0.01  -0.01     0.00   0.02  -0.08
  16   1     0.02   0.04   0.14    -0.04  -0.04  -0.04     0.00   0.03  -0.07
  17   6     0.14  -0.17   0.22    -0.14   0.01  -0.04     0.01   0.28  -0.07
  18   1     0.05  -0.06   0.08    -0.05   0.01  -0.01     0.00   0.08  -0.05
  19   1     0.04  -0.08   0.02    -0.03   0.01   0.00     0.00   0.10   0.01
  20   1     0.05  -0.06   0.09    -0.05  -0.01  -0.02     0.00   0.09  -0.03
  21   1    -0.00   0.02  -0.04    -0.00  -0.00   0.01    -0.01   0.02   0.01
  22   6    -0.02  -0.06  -0.01     0.07   0.05  -0.04    -0.10  -0.20   0.06
  23   8    -0.04  -0.17   0.05     0.10   0.16  -0.11    -0.12  -0.61   0.24
  24   7     0.01  -0.03  -0.01     0.03  -0.00  -0.03    -0.05  -0.03   0.03
  25   1     0.00  -0.01   0.00     0.01   0.00  -0.02    -0.01  -0.02   0.02
  26   1     0.00   0.02  -0.02     0.01  -0.02   0.01    -0.02   0.09  -0.03
  27   7    -0.05   0.02  -0.07     0.11   0.01   0.03    -0.19   0.05  -0.11
  28   1    -0.01   0.01  -0.03     0.02  -0.01   0.02    -0.05   0.06  -0.07
  29   1    -0.02  -0.01  -0.02     0.04   0.02   0.01    -0.07  -0.06  -0.03
  30   6    -0.06  -0.11  -0.02    -0.02  -0.07  -0.04    -0.02   0.00  -0.00
  31   8    -0.02  -0.03  -0.00    -0.02  -0.06  -0.03    -0.05   0.02   0.02
  32   7    -0.12  -0.21  -0.05    -0.24  -0.45  -0.08    -0.10  -0.11  -0.05
  33   1    -0.02  -0.04  -0.01    -0.05  -0.09  -0.01    -0.02  -0.02  -0.01
  34   1    -0.04  -0.08  -0.02    -0.05  -0.09  -0.02    -0.02  -0.01  -0.02
  35   7    -0.05  -0.15  -0.02     0.18   0.28  -0.02     0.11   0.14   0.02
  36   1    -0.03  -0.07  -0.01     0.02   0.04  -0.00     0.00  -0.01  -0.01
  37   1    -0.01  -0.03   0.00     0.05   0.07  -0.01     0.00  -0.02   0.01
  38   6     0.07   0.11  -0.17     0.09   0.03  -0.04     0.10  -0.05  -0.00
  39   8     0.03   0.15  -0.23    -0.01  -0.18   0.06     0.18  -0.06   0.03
  40   7     0.21   0.17  -0.27     0.19   0.24  -0.11     0.03  -0.01   0.04
  41   1     0.07   0.07  -0.10     0.05   0.06  -0.02     0.01  -0.00   0.03
  42   1     0.04   0.02  -0.05     0.04   0.06  -0.03    -0.00  -0.00   0.00
  43   7     0.01   0.04  -0.07     0.13   0.08  -0.13     0.09  -0.07  -0.11
  44   1     0.02  -0.00  -0.01     0.05   0.05  -0.04     0.00  -0.02  -0.04
  45   1    -0.02  -0.01   0.00     0.02  -0.02  -0.01     0.04  -0.03  -0.04
  46   6     0.00  -0.03   0.01    -0.06   0.05   0.15     0.02   0.02   0.01
  47   8    -0.01  -0.10   0.04    -0.14   0.10   0.24     0.02   0.07  -0.00
  48   7     0.00  -0.01  -0.01    -0.09   0.02   0.05     0.01   0.00   0.02
  49   1    -0.00  -0.00  -0.00    -0.04  -0.00   0.01     0.00   0.00   0.00
  50   1     0.00   0.01  -0.01    -0.01  -0.01   0.00     0.00  -0.01   0.01
  51   7     0.02   0.02  -0.01     0.07   0.03   0.19     0.02  -0.01   0.02
  52   1     0.01   0.01  -0.00     0.04   0.00   0.03     0.01  -0.01   0.01
  53   1     0.00  -0.01   0.00     0.03   0.02   0.08     0.01   0.00   0.01
                     19                     20                     21
                        a                      a                      a 
 Frequencies --   131.3149               140.9317               148.0439
 Red. masses --    12.7340                13.8476                12.7001
 Frc consts  --     0.0000                 0.0000                 0.0000
 IR Inten    --    21.0101                11.0956                26.9273
 Raman Activ --     0.0000                 0.0000                 0.0000
 Depolar     --     0.0000                 0.0000                 0.0000
 Atom AN      X      Y      Z        X      Y      Z        X      Y      Z
   1   8     0.02   0.00  -0.00     0.02   0.00   0.01    -0.05   0.06  -0.05
   2   6     0.02  -0.00  -0.03     0.02  -0.01  -0.04    -0.10   0.12   0.19
   3   1     0.01   0.00  -0.01     0.02   0.00  -0.02    -0.08   0.01   0.09
   4   1    -0.00  -0.00  -0.02     0.00  -0.01  -0.02     0.01   0.07   0.09
   5   6     0.01   0.00  -0.01     0.02  -0.00  -0.03    -0.09   0.08   0.12
   6   1    -0.00   0.00   0.00     0.00   0.00  -0.01     0.01   0.02   0.02
   7   1     0.00  -0.00  -0.00     0.01  -0.00  -0.01    -0.04   0.03   0.06
   8   7     0.02   0.00   0.02     0.04   0.01  -0.01    -0.17  -0.03   0.04
   9   6     0.01   0.01   0.02     0.02   0.02  -0.00    -0.10  -0.07  -0.05
  10   1    -0.00   0.01   0.01     0.00   0.01  -0.00    -0.02  -0.01  -0.02
  11   1     0.00   0.00   0.01     0.01   0.01   0.00    -0.03  -0.04  -0.02
  12   1     0.00   0.00   0.00     0.00   0.01  -0.00    -0.02  -0.02  -0.03
  13   6     0.02   0.02   0.04     0.04   0.02  -0.00    -0.18  -0.05   0.02
  14   1     0.00   0.01   0.01     0.00   0.01   0.00    -0.05  -0.02   0.01
  15   1     0.01   0.00   0.01     0.02   0.00  -0.01    -0.06  -0.01   0.01
  16   1     0.01   0.01   0.01     0.02   0.01   0.00    -0.05  -0.02   0.01
  17   6     0.04  -0.01   0.02     0.04   0.01  -0.01    -0.20  -0.07   0.06
  18   1     0.02  -0.01   0.00     0.01   0.00  -0.01    -0.04  -0.04   0.03
  19   1     0.00  -0.01   0.00     0.01   0.00  -0.00    -0.08  -0.03   0.02
  20   1     0.01   0.00   0.01     0.01   0.00  -0.00    -0.06  -0.00   0.01
  21   1     0.01  -0.00  -0.01     0.00  -0.00   0.00    -0.00   0.03   0.00
  22   6    -0.05  -0.03  -0.10     0.20  -0.12  -0.08     0.04   0.01  -0.03
  23   8     0.14  -0.16  -0.33     0.32  -0.36  -0.09     0.09   0.02  -0.10
  24   7    -0.36   0.02  -0.16     0.10  -0.06  -0.10    -0.04   0.01  -0.04
  25   1    -0.11  -0.01  -0.07     0.02  -0.03  -0.05    -0.01  -0.00  -0.02
  26   1    -0.12   0.02  -0.01     0.00   0.04  -0.02    -0.02  -0.00   0.00
  27   7     0.06   0.07   0.20     0.25   0.09   0.00     0.08   0.04   0.07
  28   1    -0.03   0.05   0.10     0.04   0.06   0.01     0.01   0.01   0.04
  29   1     0.08   0.01   0.06     0.10  -0.01   0.01     0.04   0.01   0.02
  30   6    -0.00   0.02  -0.06    -0.14   0.10  -0.05     0.01   0.04  -0.04
  31   8    -0.11   0.04   0.05    -0.16   0.00  -0.16    -0.02   0.05  -0.02
  32   7    -0.07  -0.03  -0.18    -0.02   0.30   0.05     0.05   0.14  -0.05
  33   1    -0.01   0.01  -0.04    -0.01   0.05   0.01     0.01   0.02  -0.02
  34   1    -0.01  -0.01  -0.06    -0.02   0.08   0.03     0.01   0.03  -0.01
  35   7     0.16   0.05  -0.04    -0.27   0.03  -0.10    -0.02  -0.06  -0.04
  36   1     0.05   0.00  -0.03    -0.03   0.07  -0.02     0.01  -0.01  -0.02
  37   1     0.04  -0.00  -0.01    -0.07   0.02  -0.02    -0.00  -0.02  -0.01
  38   6    -0.06  -0.02  -0.01    -0.06  -0.01   0.02     0.19   0.03  -0.01
  39   8    -0.11  -0.01  -0.04    -0.13  -0.09   0.06     0.54   0.21  -0.02
  40   7    -0.05  -0.11  -0.01    -0.00   0.06  -0.02    -0.04   0.02   0.11
  41   1    -0.02  -0.04  -0.01    -0.01  -0.00  -0.00     0.01   0.05   0.05
  42   1     0.02  -0.02  -0.01     0.00   0.01   0.00    -0.05  -0.00   0.03
  43   7    -0.02   0.04   0.04    -0.03   0.05   0.03     0.04  -0.22  -0.20
  44   1     0.00   0.01   0.02    -0.00   0.01   0.01    -0.07  -0.10  -0.07
  45   1    -0.01   0.03   0.01    -0.03  -0.01   0.03     0.07  -0.08  -0.10
  46   6     0.09   0.03   0.13    -0.08  -0.04   0.12     0.01  -0.08   0.02
  47   8     0.30   0.02  -0.08    -0.18  -0.20   0.29     0.03  -0.26   0.04
  48   7     0.17   0.01   0.41    -0.10   0.03  -0.03     0.03  -0.00   0.04
  49   1     0.07   0.02   0.12    -0.05  -0.00  -0.01     0.01   0.00   0.01
  50   1     0.02   0.02   0.13    -0.01   0.05  -0.04     0.00   0.05  -0.01
  51   7    -0.20   0.04   0.07     0.09   0.10   0.12    -0.03   0.04  -0.04
  52   1    -0.10  -0.01   0.08     0.05   0.01   0.01    -0.01   0.02  -0.00
  53   1    -0.07  -0.01  -0.04     0.03  -0.02   0.08    -0.01  -0.03  -0.01
                     22                     23                     24
                        a                      a                      a 
 Frequencies --   169.6744               173.6336               178.8961
 Red. masses --    13.1011                12.9711                 9.5095
 Frc consts  --     0.0000                 0.0000                 0.0000
 IR Inten    --     6.3186                 5.6474                 5.6101
 Raman Activ --     0.0000                 0.0000                 0.0000
 Depolar     --     0.0000                 0.0000                 0.0000
 Atom AN      X      Y      Z        X      Y      Z        X      Y      Z
   1   8    -0.05   0.01   0.03     0.08  -0.02  -0.03    -0.48   0.19   0.17
   2   6     0.02  -0.03  -0.04    -0.02   0.03   0.05    -0.01  -0.06  -0.16
   3   1     0.02  -0.01  -0.02    -0.03   0.01   0.02     0.11  -0.03  -0.09
   4   1    -0.01  -0.03  -0.02     0.01   0.04   0.03    -0.06  -0.12  -0.11
   5   6     0.04   0.01  -0.02    -0.07  -0.04   0.01     0.16   0.26   0.05
   6   1     0.01   0.01  -0.01    -0.02  -0.03   0.01     0.07   0.20  -0.04
   7   1     0.02   0.00   0.00    -0.03  -0.01  -0.01     0.06   0.08   0.14
   8   7     0.04   0.01  -0.02    -0.07  -0.03   0.02     0.10  -0.03   0.01
   9   6     0.04   0.01  -0.02    -0.07  -0.01   0.01     0.29  -0.19  -0.04
  10   1     0.02  -0.01  -0.01    -0.04   0.02   0.00     0.23  -0.16  -0.03
  11   1     0.00   0.01  -0.02    -0.01  -0.01   0.02    -0.00  -0.04  -0.14
  12   1     0.01   0.01   0.01    -0.02  -0.01  -0.02     0.06   0.00   0.13
  13   6     0.03   0.00  -0.01    -0.03   0.00   0.03    -0.15  -0.18   0.00
  14   1    -0.00  -0.00  -0.00     0.01   0.02  -0.00    -0.08  -0.09   0.02
  15   1     0.00   0.00  -0.01    -0.01   0.00   0.04    -0.08  -0.03  -0.05
  16   1     0.01   0.00   0.00    -0.02  -0.01  -0.00    -0.03  -0.07   0.03
  17   6     0.03   0.01  -0.01    -0.04  -0.04   0.02     0.02   0.00   0.01
  18   1    -0.01   0.02  -0.00    -0.00  -0.02   0.00    -0.07   0.06   0.01
  19   1     0.03   0.01  -0.01    -0.03  -0.02   0.01     0.10   0.03  -0.02
  20   1     0.00  -0.01   0.00    -0.01   0.00   0.00    -0.01  -0.09   0.02
  21   1    -0.02  -0.01   0.01     0.03   0.01   0.00    -0.17  -0.03  -0.04
  22   6    -0.02   0.04   0.09     0.16  -0.00  -0.01     0.02  -0.01  -0.01
  23   8    -0.18   0.15   0.25     0.09   0.04   0.11     0.03  -0.03  -0.01
  24   7     0.18   0.02   0.12     0.31  -0.03   0.02     0.01  -0.01  -0.01
  25   1     0.05   0.01   0.04     0.09  -0.01   0.01     0.00  -0.00  -0.00
  26   1     0.07  -0.01   0.01     0.09  -0.00  -0.01     0.00   0.00  -0.00
  27   7    -0.12  -0.07  -0.16     0.13  -0.03  -0.16     0.03   0.01   0.00
  28   1     0.01  -0.05  -0.08     0.05  -0.01  -0.07     0.00   0.01   0.00
  29   1    -0.09  -0.01  -0.05    -0.00  -0.00  -0.05     0.01   0.00   0.00
  30   6     0.05  -0.07  -0.27    -0.18   0.01   0.04    -0.02   0.01   0.02
  31   8    -0.04  -0.19  -0.31    -0.20  -0.12  -0.07    -0.00   0.00   0.00
  32   7     0.12   0.07  -0.26    -0.17  -0.01   0.12    -0.02  -0.01   0.05
  33   1     0.04   0.01  -0.07    -0.03  -0.00   0.04    -0.00  -0.00   0.02
  34   1     0.02   0.02  -0.06    -0.04   0.04   0.04    -0.00   0.01   0.02
  35   7     0.02  -0.03  -0.30    -0.26   0.14   0.00    -0.03   0.05   0.02
  36   1     0.04   0.04  -0.07    -0.04   0.10   0.02    -0.02   0.01   0.01
  37   1     0.01  -0.01  -0.07    -0.06   0.07  -0.00    -0.02   0.01  -0.00
  38   6    -0.02   0.03   0.04     0.05  -0.07  -0.09     0.02  -0.01  -0.03
  39   8    -0.00   0.00   0.08     0.07   0.07  -0.20     0.05   0.05  -0.07
  40   7    -0.05   0.08   0.05    -0.01  -0.32  -0.03    -0.01  -0.10  -0.00
  41   1    -0.01   0.03   0.01     0.01  -0.06  -0.03     0.00  -0.01  -0.01
  42   1    -0.01   0.03   0.00     0.01  -0.09  -0.01    -0.00  -0.03   0.00
  43   7    -0.04   0.03  -0.01     0.08  -0.07   0.00     0.02  -0.03   0.00
  44   1    -0.02   0.00  -0.01     0.02  -0.02   0.00     0.00  -0.01   0.00
  45   1    -0.01  -0.01  -0.00     0.04   0.05  -0.03     0.01   0.01  -0.01
  46   6    -0.02  -0.03   0.19     0.04   0.14   0.03    -0.00   0.03  -0.00
  47   8     0.09  -0.18   0.15     0.16   0.38  -0.14     0.00   0.10  -0.02
  48   7     0.04   0.04   0.31     0.06   0.01   0.18    -0.01   0.00   0.00
  49   1     0.02   0.01   0.09     0.03   0.01   0.05    -0.00   0.00   0.00
  50   1     0.00   0.07   0.07     0.01  -0.06   0.08    -0.00  -0.02   0.01
  51   7    -0.16   0.10   0.13    -0.11  -0.04   0.07     0.00  -0.01   0.02
  52   1    -0.07   0.01   0.07    -0.05  -0.01   0.04     0.00  -0.00   0.00
  53   1    -0.06  -0.03   0.02    -0.03   0.06  -0.04     0.00   0.02   0.00
                     25                     26                     27
                        a                      a                      a 
 Frequencies --   193.8014               207.2510               220.6150
 Red. masses --    12.9110                 2.9824                12.0860
 Frc consts  --     0.0000                 0.0000                 0.0000
 IR Inten    --    13.4263               144.9132               118.6520
 Raman Activ --     0.0000                 0.0000                 0.0000
 Depolar     --     0.0000                 0.0000                 0.0000
 Atom AN      X      Y      Z        X      Y      Z        X      Y      Z
   1   8    -0.02  -0.01   0.02    -0.00   0.00   0.00     0.02  -0.01  -0.00
   2   6     0.01  -0.03  -0.02     0.00  -0.00  -0.00    -0.01   0.00   0.00
   3   1     0.01  -0.01  -0.01     0.00  -0.00  -0.00    -0.00   0.00   0.00
   4   1    -0.00  -0.02  -0.01    -0.00  -0.00  -0.00    -0.00   0.00   0.00
   5   6     0.03  -0.00  -0.02     0.00   0.00   0.00    -0.01  -0.01   0.00
   6   1     0.01   0.01  -0.01     0.00   0.00  -0.00    -0.00  -0.00   0.00
   7   1     0.01  -0.00   0.00     0.00   0.00   0.00    -0.00  -0.00   0.00
   8   7     0.03  -0.00  -0.03     0.00   0.00  -0.00    -0.01  -0.00  -0.00
   9   6     0.05  -0.02  -0.03     0.01  -0.00  -0.00    -0.02   0.00  -0.01
  10   1     0.02  -0.01  -0.01     0.00  -0.00  -0.00    -0.01   0.01  -0.00
  11   1     0.01  -0.01  -0.01     0.00  -0.00  -0.00    -0.00  -0.00   0.00
  12   1     0.02  -0.00  -0.00     0.00  -0.00   0.00    -0.00  -0.00  -0.01
  13   6     0.00  -0.02  -0.03    -0.00  -0.00  -0.00     0.00   0.01   0.00
  14   1    -0.00  -0.01  -0.01     0.00  -0.00  -0.00     0.00   0.01  -0.00
  15   1    -0.00  -0.00  -0.01    -0.00   0.00  -0.00     0.00  -0.00   0.01
  16   1     0.00  -0.01  -0.01    -0.00  -0.00  -0.00     0.00   0.00   0.00
  17   6     0.00   0.03  -0.03    -0.00   0.00  -0.00    -0.01   0.00  -0.00
  18   1    -0.01   0.02  -0.01     0.00   0.00   0.00    -0.01   0.01  -0.00
  19   1     0.01   0.02  -0.01    -0.00   0.00   0.00     0.01   0.00  -0.00
  20   1    -0.00  -0.00  -0.01    -0.00   0.00  -0.00    -0.00  -0.01   0.00
  21   1    -0.01  -0.01   0.01    -0.00  -0.00  -0.01     0.01   0.00   0.00
  22   6     0.09  -0.01  -0.03     0.02   0.01  -0.02    -0.06  -0.02   0.04
  23   8     0.06  -0.01   0.03     0.00   0.03   0.00     0.01  -0.11  -0.01
  24   7     0.14  -0.02  -0.01     0.05  -0.00  -0.01    -0.14   0.01   0.01
  25   1     0.04  -0.01   0.00     0.02  -0.01   0.01    -0.05   0.00  -0.02
  26   1     0.04  -0.00  -0.01     0.02  -0.01  -0.00    -0.05   0.02   0.01
  27   7     0.07  -0.02  -0.09     0.01  -0.02  -0.05    -0.00   0.04   0.17
  28   1     0.03  -0.00  -0.04     0.01  -0.01  -0.02    -0.03   0.05   0.06
  29   1     0.00  -0.00  -0.03    -0.01  -0.00  -0.02     0.03   0.02   0.05
  30   6    -0.15  -0.02   0.13    -0.04  -0.02   0.05     0.10  -0.03  -0.06
  31   8    -0.19  -0.10   0.11    -0.12  -0.05   0.11     0.41  -0.03  -0.35
  32   7    -0.18  -0.05   0.11    -0.06   0.01  -0.05     0.17  -0.23   0.37
  33   1    -0.05  -0.03   0.03    -0.03   0.03  -0.01     0.10  -0.10   0.12
  34   1    -0.05  -0.02   0.02     0.01   0.04  -0.03    -0.01  -0.04   0.16
  35   7    -0.10   0.12   0.14     0.07  -0.02   0.08    -0.33   0.15  -0.16
  36   1    -0.02   0.04   0.04     0.04  -0.00   0.01    -0.15   0.06   0.03
  37   1    -0.03   0.03   0.03     0.02  -0.02   0.03    -0.09   0.09  -0.11
  38   6    -0.02   0.14   0.10    -0.00   0.01   0.00     0.01   0.03   0.01
  39   8    -0.01  -0.03   0.26    -0.00   0.00   0.01     0.02   0.00   0.05
  40   7     0.02   0.40   0.06    -0.01  -0.01   0.02     0.02   0.08   0.01
  41   1     0.01   0.12   0.02     0.01   0.02  -0.01     0.01   0.03  -0.00
  42   1    -0.00   0.12  -0.00     0.00   0.01  -0.01    -0.01   0.01   0.01
  43   7    -0.07   0.10  -0.04     0.00   0.00   0.01    -0.01   0.01  -0.01
  44   1    -0.03   0.03  -0.02     0.01   0.02  -0.00    -0.01   0.01  -0.01
  45   1    -0.03  -0.06   0.02     0.01   0.01  -0.00     0.00  -0.01  -0.01
  46   6     0.11  -0.12  -0.13    -0.00  -0.05  -0.02    -0.01   0.00  -0.02
  47   8     0.22  -0.29  -0.25     0.00   0.04  -0.04     0.03   0.05  -0.09
  48   7     0.16  -0.02   0.03     0.02   0.04  -0.05     0.01   0.00   0.05
  49   1     0.06  -0.03   0.02    -0.00   0.09  -0.04     0.03   0.02   0.01
  50   1     0.02   0.01   0.03    -0.00   0.19  -0.07    -0.01   0.03   0.01
  51   7    -0.20  -0.07  -0.24     0.05   0.26  -0.09    -0.13   0.07  -0.07
  52   1    -0.10   0.09  -0.04    -0.06  -0.72   0.20    -0.08  -0.17   0.06
  53   1    -0.08  -0.01  -0.14    -0.02  -0.46   0.13    -0.06  -0.11  -0.02
                     28                     29                     30
                        a                      a                      a 
 Frequencies --   269.4412               286.2608               304.2676
 Red. masses --     4.6867                 6.6612                 3.6747
 Frc consts  --     0.0000                 0.0000                 0.0000
 IR Inten    --     9.6807                34.4501               122.2029
 Raman Activ --     0.0000                 0.0000                 0.0000
 Depolar     --     0.0000                 0.0000                 0.0000
 Atom AN      X      Y      Z        X      Y      Z        X      Y      Z
   1   8    -0.29   0.13  -0.08    -0.18   0.29  -0.29    -0.10   0.21   0.13
   2   6    -0.07   0.07   0.18     0.04   0.20   0.15     0.03   0.13   0.13
   3   1    -0.10   0.00   0.09    -0.10   0.05   0.09    -0.03   0.04   0.05
   4   1     0.05   0.01   0.13     0.09   0.07   0.13     0.03   0.04   0.08
   5   6     0.07   0.04  -0.07     0.02  -0.08  -0.11     0.02  -0.00  -0.04
   6   1     0.04  -0.03  -0.01     0.01  -0.12   0.00     0.02  -0.04   0.00
   7   1     0.01   0.02  -0.04    -0.04  -0.01  -0.11    -0.03   0.01  -0.04
   8   7     0.09  -0.03  -0.05     0.06  -0.15  -0.03     0.01  -0.08  -0.05
   9   6     0.17  -0.10  -0.00    -0.13  -0.00   0.13    -0.11   0.01   0.12
  10   1    -0.24   0.20   0.04     0.15  -0.19   0.02    -0.04  -0.04   0.04
  11   1     0.21  -0.17   0.29    -0.13   0.16  -0.17    -0.02   0.07   0.02
  12   1     0.18  -0.11  -0.34    -0.16   0.05   0.30    -0.06   0.01   0.09
  13   6    -0.08  -0.09   0.06     0.13  -0.10  -0.03     0.09  -0.08  -0.12
  14   1     0.11   0.04  -0.04    -0.03  -0.06   0.02     0.09  -0.01  -0.05
  15   1    -0.10   0.04   0.16     0.08  -0.06  -0.08     0.02  -0.02   0.02
  16   1    -0.10  -0.16  -0.05     0.08   0.04   0.03    -0.01  -0.04  -0.08
  17   6     0.23  -0.01  -0.08     0.15  -0.21  -0.03     0.10  -0.16  -0.04
  18   1     0.20  -0.12  -0.05     0.09  -0.10  -0.01     0.12  -0.13  -0.01
  19   1    -0.09  -0.05   0.02    -0.01  -0.08  -0.00    -0.08  -0.10  -0.01
  20   1     0.11   0.17  -0.05     0.06  -0.01  -0.00     0.06   0.06  -0.02
  21   1    -0.11   0.04   0.19    -0.10   0.12   0.39    -0.03  -0.13  -0.81
  22   6    -0.01   0.00   0.00     0.00   0.01  -0.00     0.00   0.00   0.01
  23   8    -0.01  -0.01   0.01     0.00   0.02   0.00    -0.00   0.00   0.01
  24   7    -0.01  -0.00   0.00     0.01  -0.00   0.01     0.01   0.01   0.00
  25   1    -0.00  -0.00  -0.00     0.00   0.01  -0.00     0.00  -0.00   0.00
  26   1    -0.00   0.01  -0.00     0.00   0.02  -0.00     0.01  -0.01   0.01
  27   7    -0.01  -0.02  -0.01     0.01  -0.01   0.00     0.00  -0.01  -0.00
  28   1    -0.00   0.01  -0.01     0.00   0.00  -0.00    -0.00   0.02  -0.01
  29   1    -0.01   0.00  -0.00     0.00   0.00   0.00    -0.01   0.02  -0.00
  30   6    -0.00  -0.00  -0.00    -0.00   0.00  -0.00    -0.00  -0.00  -0.00
  31   8     0.00  -0.00  -0.01     0.00  -0.00  -0.01     0.00  -0.00  -0.01
  32   7     0.01   0.00   0.00    -0.00  -0.01   0.01    -0.00   0.00   0.01
  33   1     0.00  -0.00   0.00     0.00  -0.00   0.00     0.00  -0.00   0.00
  34   1    -0.00  -0.01   0.00     0.00   0.01   0.01    -0.00  -0.01   0.00
  35   7    -0.01  -0.01  -0.01     0.01   0.03   0.00    -0.00   0.02  -0.00
  36   1     0.00   0.01   0.00    -0.02  -0.02  -0.00    -0.01  -0.01  -0.00
  37   1     0.00   0.01   0.00    -0.01  -0.02  -0.00    -0.01  -0.01  -0.00
  38   6    -0.02   0.00  -0.01    -0.02  -0.00   0.01    -0.01  -0.00   0.01
  39   8    -0.04  -0.00  -0.01    -0.04  -0.02   0.02    -0.02  -0.02   0.02
  40   7    -0.00   0.00  -0.02    -0.01   0.01  -0.00    -0.01   0.02   0.00
  41   1    -0.00  -0.01  -0.01    -0.00   0.00  -0.00    -0.01  -0.01   0.00
  42   1     0.01  -0.00  -0.00     0.00   0.01  -0.00     0.00   0.01  -0.00
  43   7    -0.02   0.03   0.02    -0.01   0.02   0.02    -0.01   0.02   0.01
  44   1     0.00   0.00   0.01     0.01   0.01   0.01     0.00   0.00   0.01
  45   1    -0.01   0.01   0.01    -0.01   0.01   0.01    -0.01  -0.00   0.01
  46   6    -0.00   0.00   0.00     0.00   0.00  -0.00     0.00  -0.00  -0.00
  47   8    -0.00   0.00   0.00     0.00   0.00  -0.00     0.00  -0.00  -0.00
  48   7    -0.00  -0.00   0.00     0.00  -0.00   0.00     0.00   0.00   0.00
  49   1    -0.00   0.00   0.00     0.00   0.00  -0.00     0.00  -0.00   0.00
  50   1    -0.00   0.00  -0.00     0.00   0.00  -0.00     0.00  -0.01   0.00
  51   7    -0.00  -0.00   0.00    -0.01  -0.00  -0.00    -0.01   0.00  -0.00
  52   1    -0.00  -0.00   0.00    -0.00  -0.00   0.00    -0.00   0.00   0.00
  53   1    -0.00  -0.00   0.00    -0.00  -0.00  -0.00    -0.00  -0.00  -0.00
                     31                     32                     33
                        a                      a                      a 
 Frequencies --   307.7364               331.5934               338.7782
 Red. masses --     6.5904                 2.3484                 3.7444
 Frc consts  --     0.0000                 0.0000                 0.0000
 IR Inten    --     4.1496               104.3818                13.0814
 Raman Activ --     0.0000                 0.0000                 0.0000
 Depolar     --     0.0000                 0.0000                 0.0000
 Atom AN      X      Y      Z        X      Y      Z        X      Y      Z
   1   8    -0.04   0.16  -0.07     0.00  -0.00  -0.01     0.01   0.06  -0.02
   2   6     0.15   0.00  -0.29     0.01  -0.00  -0.01     0.14  -0.01  -0.00
   3   1     0.16  -0.01  -0.13     0.01  -0.00  -0.01     0.09  -0.03  -0.01
   4   1    -0.04  -0.04  -0.18    -0.00  -0.00  -0.01     0.01  -0.02  -0.03
   5   6     0.03   0.07   0.10     0.01   0.01   0.01     0.14   0.10   0.15
   6   1    -0.01   0.08   0.01     0.00   0.01   0.00     0.09   0.10  -0.00
   7   1    -0.01   0.04   0.08     0.01   0.00   0.01     0.04   0.04   0.14
   8   7    -0.00  -0.09   0.12    -0.00   0.01   0.00    -0.01  -0.04  -0.01
   9   6    -0.16   0.02   0.21    -0.01   0.01   0.01    -0.23   0.12   0.05
  10   1    -0.13   0.05   0.08    -0.01   0.01   0.00    -0.28   0.19   0.05
  11   1     0.01   0.03   0.13     0.00   0.00   0.01     0.06   0.02   0.21
  12   1    -0.05  -0.03   0.00    -0.00   0.00  -0.01    -0.05  -0.05  -0.19
  13   6     0.25  -0.13  -0.26    -0.01  -0.00  -0.01    -0.06  -0.14  -0.18
  14   1     0.37   0.01  -0.17    -0.02  -0.01   0.00    -0.30  -0.22   0.07
  15   1     0.02   0.01   0.15     0.00  -0.00  -0.02     0.07  -0.10  -0.39
  16   1    -0.10  -0.13  -0.29     0.01   0.01   0.01     0.15   0.16   0.12
  17   6    -0.26  -0.05   0.17    -0.01  -0.00   0.01     0.04  -0.12  -0.00
  18   1    -0.05  -0.04   0.09     0.00  -0.00   0.00    -0.03  -0.00   0.01
  19   1    -0.12  -0.02   0.07    -0.00  -0.00  -0.00     0.07  -0.04  -0.05
  20   1    -0.10   0.02  -0.02    -0.00   0.00   0.00     0.02  -0.10   0.05
  21   1    -0.04   0.04   0.15     0.00   0.01   0.03    -0.02  -0.00   0.03
  22   6     0.00  -0.00  -0.01    -0.00  -0.01   0.01     0.01   0.03   0.00
  23   8     0.00   0.01  -0.01    -0.01  -0.01   0.04     0.01   0.03   0.00
  24   7    -0.00   0.00  -0.01    -0.03   0.07  -0.04     0.03  -0.02   0.01
  25   1    -0.00  -0.00  -0.00     0.00  -0.09   0.03     0.00   0.02  -0.01
  26   1    -0.00  -0.00  -0.00     0.06  -0.38   0.11    -0.00   0.06  -0.02
  27   7     0.00   0.01   0.00     0.13  -0.27   0.04     0.01  -0.01   0.00
  28   1     0.00  -0.01   0.01    -0.20   0.69  -0.21     0.01  -0.03   0.01
  29   1     0.01  -0.00   0.00    -0.14   0.38  -0.06     0.01  -0.01   0.00
  30   6     0.00  -0.00   0.00     0.00   0.01  -0.00    -0.02  -0.01  -0.01
  31   8     0.00   0.00   0.00     0.00   0.02   0.00    -0.02  -0.01  -0.01
  32   7     0.00   0.00   0.00    -0.01   0.01  -0.02    -0.00   0.00   0.02
  33   1    -0.00  -0.00  -0.00    -0.01   0.01  -0.01     0.01   0.02   0.01
  34   1    -0.00  -0.01  -0.00    -0.00  -0.00  -0.01     0.03   0.08   0.01
  35   7    -0.01  -0.02  -0.00     0.00   0.01   0.00     0.05   0.10   0.02
  36   1     0.01   0.02   0.00    -0.01  -0.02  -0.00    -0.15  -0.22  -0.04
  37   1     0.01   0.02   0.00    -0.00  -0.00   0.00    -0.05  -0.09  -0.02
  38   6     0.02   0.00   0.01    -0.00  -0.00  -0.00    -0.02  -0.01  -0.00
  39   8     0.02   0.00   0.01     0.00  -0.00  -0.00    -0.02  -0.02  -0.00
  40   7    -0.00   0.01   0.03     0.00   0.00  -0.00    -0.01  -0.01  -0.01
  41   1     0.00   0.01   0.01    -0.00  -0.01   0.00     0.00   0.01  -0.01
  42   1    -0.01   0.00   0.00     0.00  -0.00   0.00     0.00   0.00  -0.00
  43   7     0.01  -0.01  -0.01     0.00   0.00   0.00    -0.00   0.01   0.01
  44   1    -0.00  -0.00  -0.01    -0.00  -0.00   0.00     0.02   0.02  -0.00
  45   1     0.01  -0.00  -0.01    -0.00  -0.00   0.00    -0.01   0.01   0.01
  46   6     0.00  -0.00  -0.00    -0.00   0.00  -0.00     0.00   0.00   0.00
  47   8    -0.00  -0.00   0.00    -0.00   0.00  -0.00     0.01   0.00   0.00
  48   7     0.00  -0.00  -0.00    -0.00  -0.01   0.00     0.00  -0.00   0.00
  49   1     0.00  -0.00  -0.00    -0.00   0.01  -0.00     0.00   0.00  -0.00
  50   1     0.00   0.00  -0.00    -0.00   0.02  -0.01     0.00  -0.00   0.00
  51   7    -0.00  -0.00  -0.00     0.00  -0.01   0.00    -0.01   0.00   0.00
  52   1    -0.00   0.00  -0.00     0.00   0.01  -0.00    -0.01   0.00   0.00
  53   1    -0.00  -0.00  -0.00     0.00   0.00   0.00    -0.00   0.00  -0.00
                     34                     35                     36
                        a                      a                      a 
 Frequencies --   365.3538               370.2270               385.2598
 Red. masses --     3.3290                 5.0442                 3.4727
 Frc consts  --     0.0000                 0.0000                 0.0000
 IR Inten    --    48.4278                 3.2483                 3.5508
 Raman Activ --     0.0000                 0.0000                 0.0000
 Depolar     --     0.0000                 0.0000                 0.0000
 Atom AN      X      Y      Z        X      Y      Z        X      Y      Z
   1   8     0.02   0.01  -0.02     0.17  -0.18   0.05    -0.01   0.04  -0.05
   2   6     0.10  -0.03   0.04     0.03  -0.11  -0.05     0.11  -0.00   0.11
   3   1     0.05  -0.03   0.01     0.07  -0.05  -0.03     0.03  -0.02   0.04
   4   1     0.02  -0.01   0.00    -0.03  -0.03  -0.06     0.04   0.01   0.04
   5   6     0.10   0.05   0.10     0.08   0.15   0.15     0.07  -0.05   0.06
   6   1     0.07   0.06  -0.00     0.08   0.17  -0.02     0.05  -0.04   0.02
   7   1     0.02   0.03   0.09     0.05   0.05   0.18    -0.01   0.00   0.02
   8   7    -0.01  -0.05  -0.03    -0.06   0.06  -0.02    -0.01  -0.10  -0.01
   9   6    -0.19   0.08  -0.01    -0.17   0.15  -0.08    -0.24   0.07  -0.09
  10   1    -0.09   0.06   0.00     0.09  -0.04  -0.05    -0.06   0.06  -0.04
  11   1    -0.03   0.07   0.02    -0.12   0.13  -0.16    -0.07   0.07  -0.05
  12   1    -0.10  -0.01  -0.02    -0.14   0.06   0.12    -0.14  -0.02  -0.02
  13   6    -0.10  -0.09  -0.02    -0.28  -0.07  -0.01    -0.08  -0.08   0.12
  14   1    -0.07  -0.05   0.01     0.03   0.00  -0.04     0.19   0.10  -0.06
  15   1    -0.05  -0.01  -0.04    -0.17   0.05   0.09    -0.12   0.05   0.28
  16   1    -0.01  -0.02   0.03    -0.15  -0.14  -0.06    -0.14  -0.21  -0.08
  17   6     0.13  -0.03  -0.08     0.23  -0.01  -0.07     0.19   0.10  -0.12
  18   1    -0.02   0.04  -0.06     0.32  -0.22  -0.06    -0.22   0.26  -0.12
  19   1     0.12   0.01  -0.06    -0.20  -0.11   0.02     0.42   0.17  -0.11
  20   1     0.05  -0.07   0.03     0.16   0.30  -0.03     0.03  -0.28   0.09
  21   1    -0.01  -0.01   0.02     0.07   0.00   0.10    -0.03  -0.02  -0.02
  22   6    -0.02  -0.04   0.01     0.00   0.03   0.00     0.01  -0.01  -0.00
  23   8    -0.01  -0.03   0.00     0.00   0.01   0.01     0.01  -0.01  -0.00
  24   7    -0.03   0.04  -0.01    -0.00  -0.02   0.01    -0.01  -0.00  -0.01
  25   1    -0.00  -0.03   0.02    -0.01   0.01  -0.01    -0.00  -0.00  -0.00
  26   1     0.01  -0.10   0.03    -0.01   0.05  -0.01    -0.00  -0.02   0.00
  27   7    -0.04   0.04  -0.02     0.00  -0.03  -0.01     0.01   0.00   0.00
  28   1     0.01  -0.04   0.01     0.00  -0.00  -0.01    -0.00   0.01   0.00
  29   1    -0.00  -0.03   0.00    -0.01   0.00  -0.00     0.00  -0.00   0.00
  30   6     0.06   0.06   0.04    -0.02  -0.01  -0.01    -0.02  -0.03  -0.00
  31   8     0.03   0.04   0.06    -0.00  -0.01  -0.02    -0.01  -0.02  -0.00
  32   7    -0.02  -0.02  -0.03     0.00   0.00   0.01     0.01   0.02  -0.01
  33   1    -0.01  -0.05  -0.01     0.00   0.01   0.01    -0.00   0.02  -0.00
  34   1    -0.09  -0.25  -0.03     0.01   0.04   0.01     0.04   0.08  -0.00
  35   7    -0.12  -0.16  -0.04     0.02   0.04   0.01     0.03   0.02   0.02
  36   1     0.41   0.64   0.12    -0.08  -0.12  -0.02    -0.15  -0.23  -0.03
  37   1     0.07   0.12   0.04    -0.01  -0.03  -0.00     0.00   0.01  -0.01
  38   6     0.00   0.01  -0.01    -0.01  -0.01   0.00     0.00   0.01  -0.01
  39   8     0.01   0.02  -0.00    -0.00  -0.02   0.00     0.01   0.02  -0.01
  40   7     0.00   0.00  -0.01    -0.00   0.02  -0.01    -0.02  -0.01   0.01
  41   1     0.00   0.01  -0.01    -0.02  -0.03   0.02     0.01   0.04  -0.01
  42   1    -0.00  -0.01   0.01     0.01   0.01  -0.00    -0.01  -0.00  -0.00
  43   7    -0.01   0.02   0.01    -0.00   0.00   0.01    -0.00   0.01   0.01
  44   1    -0.02  -0.03   0.01     0.01   0.00   0.01     0.01   0.00   0.01
  45   1     0.00   0.00  -0.00    -0.01  -0.00   0.01    -0.01   0.00   0.01
  46   6    -0.01   0.00  -0.01     0.00  -0.00   0.00    -0.00  -0.00   0.00
  47   8    -0.01   0.00  -0.01     0.00   0.00   0.00     0.00  -0.01   0.00
  48   7    -0.00   0.00  -0.00     0.00   0.00  -0.00     0.00  -0.00   0.00
  49   1     0.00  -0.00   0.00    -0.00  -0.00  -0.00     0.00   0.00   0.00
  50   1    -0.00   0.01  -0.00     0.00  -0.01   0.00    -0.00   0.00   0.00
  51   7     0.02  -0.01  -0.00    -0.01   0.00  -0.00     0.00   0.00   0.00
  52   1     0.01  -0.01  -0.01    -0.00  -0.00   0.00     0.00   0.01  -0.00
  53   1     0.01   0.00   0.01    -0.00  -0.00  -0.00     0.00   0.00   0.00
                     37                     38                     39
                        a                      a                      a 
 Frequencies --   397.5789               428.2720               431.0878
 Red. masses --     3.4434                 6.9128                 4.3442
 Frc consts  --     0.0000                 0.0000                 0.0000
 IR Inten    --    37.7451                11.9862               127.2128
 Raman Activ --     0.0000                 0.0000                 0.0000
 Depolar     --     0.0000                 0.0000                 0.0000
 Atom AN      X      Y      Z        X      Y      Z        X      Y      Z
   1   8     0.00  -0.00   0.00     0.07  -0.18   0.04     0.03  -0.08   0.03
   2   6    -0.01   0.00  -0.00    -0.18  -0.01   0.07    -0.06  -0.02   0.03
   3   1    -0.00   0.00  -0.00    -0.09   0.00   0.03    -0.04  -0.00   0.02
   4   1    -0.00   0.00  -0.00    -0.02   0.02   0.06     0.00  -0.00   0.03
   5   6    -0.01   0.00   0.00    -0.01   0.14  -0.06     0.04   0.08  -0.04
   6   1    -0.00   0.00   0.00     0.03   0.10  -0.05     0.03   0.06  -0.03
   7   1    -0.00   0.00   0.00     0.04   0.03   0.06     0.03   0.02   0.03
   8   7    -0.00   0.00   0.00    -0.04   0.20  -0.16    -0.00   0.08  -0.12
   9   6     0.00  -0.00  -0.00     0.14   0.07   0.26     0.06   0.04   0.16
  10   1     0.00  -0.00  -0.00    -0.01  -0.09   0.12    -0.02  -0.05   0.07
  11   1    -0.00  -0.00  -0.00     0.07   0.02   0.11     0.04   0.03   0.07
  12   1     0.00   0.00   0.00     0.11   0.08   0.12     0.05   0.04   0.07
  13   6     0.00   0.00  -0.01    -0.09   0.15  -0.20    -0.05   0.08  -0.07
  14   1     0.00  -0.00  -0.00     0.07   0.06  -0.09     0.01   0.04  -0.03
  15   1     0.00  -0.00  -0.00    -0.06   0.07   0.02    -0.03   0.04   0.02
  16   1    -0.00   0.00  -0.00    -0.08  -0.02  -0.11    -0.03  -0.01  -0.03
  17   6     0.00  -0.00   0.00     0.04  -0.36  -0.05    -0.00  -0.18  -0.06
  18   1     0.01  -0.00   0.00    -0.08  -0.02   0.11    -0.02  -0.03   0.04
  19   1    -0.00  -0.00   0.00     0.13  -0.14  -0.18     0.02  -0.08  -0.08
  20   1     0.00   0.00   0.00    -0.00  -0.29   0.07    -0.01  -0.11   0.01
  21   1     0.00   0.00  -0.00     0.07   0.02   0.07     0.03   0.01   0.04
  22   6     0.00  -0.02   0.00    -0.01   0.04  -0.02     0.01  -0.08   0.02
  23   8    -0.00  -0.01   0.00    -0.01   0.02  -0.01    -0.00  -0.04   0.02
  24   7     0.00   0.03  -0.01     0.02  -0.07   0.01    -0.02   0.14  -0.05
  25   1     0.00  -0.02   0.01     0.00   0.02  -0.01     0.01  -0.03   0.02
  26   1     0.02  -0.07   0.02    -0.03   0.19  -0.06     0.08  -0.39   0.11
  27   7    -0.01   0.04  -0.00     0.02  -0.06   0.03    -0.03   0.13  -0.04
  28   1     0.01  -0.06   0.02    -0.03   0.07  -0.01     0.04  -0.16   0.05
  29   1     0.01  -0.01   0.00     0.00   0.04   0.00     0.03  -0.04   0.00
  30   6    -0.02  -0.06   0.00    -0.02  -0.04   0.01     0.02   0.08  -0.02
  31   8    -0.00  -0.05  -0.01     0.01  -0.04  -0.01    -0.01   0.08   0.01
  32   7     0.04   0.08   0.02     0.03   0.10  -0.01    -0.06  -0.20   0.03
  33   1    -0.02  -0.05  -0.01     0.01  -0.00  -0.00    -0.02   0.01   0.01
  34   1    -0.06  -0.16  -0.00    -0.10  -0.24  -0.01     0.22   0.50   0.02
  35   7     0.02   0.05   0.02     0.02   0.04   0.02    -0.04  -0.10  -0.04
  36   1    -0.04  -0.05  -0.00    -0.03  -0.03   0.00     0.05   0.03  -0.02
  37   1    -0.00  -0.00  -0.00    -0.01  -0.00  -0.00     0.02   0.02   0.02
  38   6     0.00  -0.01   0.01    -0.00  -0.01  -0.02    -0.00   0.03  -0.01
  39   8    -0.01  -0.00   0.00     0.02  -0.00  -0.01    -0.01  -0.01   0.01
  40   7     0.02   0.01  -0.02    -0.03  -0.03   0.01    -0.02   0.02   0.01
  41   1    -0.00  -0.02   0.02     0.02   0.06  -0.02     0.03   0.08  -0.02
  42   1    -0.01  -0.03   0.03    -0.02  -0.01  -0.00    -0.03  -0.00   0.00
  43   7     0.01   0.05  -0.03     0.02   0.09  -0.01    -0.03  -0.12   0.06
  44   1    -0.04  -0.08   0.02    -0.01  -0.09   0.05     0.10   0.22  -0.07
  45   1    -0.02  -0.07   0.03    -0.07  -0.11   0.10     0.07   0.19  -0.10
  46   6    -0.01   0.14  -0.07    -0.01   0.00  -0.00     0.02  -0.01   0.00
  47   8    -0.03   0.10  -0.03    -0.00   0.00  -0.01     0.00  -0.02   0.02
  48   7     0.03  -0.27   0.13    -0.01   0.02   0.00     0.02  -0.04   0.01
  49   1    -0.02   0.09  -0.02     0.01   0.00   0.00    -0.01   0.00  -0.01
  50   1     0.01   0.80  -0.29    -0.01  -0.06   0.03     0.01   0.11  -0.05
  51   7     0.00  -0.19   0.03     0.01   0.01  -0.00    -0.02  -0.02  -0.00
  52   1     0.03   0.09  -0.04     0.01  -0.03   0.00    -0.01   0.06  -0.01
  53   1     0.01   0.06  -0.01     0.01   0.00   0.01    -0.01  -0.01  -0.01
                     40                     41                     42
                        a                      a                      a 
 Frequencies --   447.8460               456.4991               458.8310
 Red. masses --     3.3988                 4.7314                 6.0284
 Frc consts  --     0.0000                 0.0000                 0.0000
 IR Inten    --   665.4112                16.0767                50.0846
 Raman Activ --     0.0000                 0.0000                 0.0000
 Depolar     --     0.0000                 0.0000                 0.0000
 Atom AN      X      Y      Z        X      Y      Z        X      Y      Z
   1   8     0.01  -0.00   0.00     0.02  -0.01   0.02     0.02   0.00   0.02
   2   6    -0.04   0.01  -0.01     0.02  -0.01   0.01    -0.04   0.02  -0.00
   3   1    -0.00  -0.00  -0.00     0.00  -0.01   0.01     0.01  -0.01  -0.00
   4   1    -0.02   0.01  -0.01     0.01  -0.01   0.01    -0.02   0.02  -0.02
   5   6    -0.03   0.04   0.04     0.08   0.09   0.01    -0.01   0.12   0.10
   6   1     0.01   0.04  -0.01     0.10   0.12  -0.06     0.08   0.16  -0.05
   7   1    -0.01   0.02   0.05     0.03   0.04   0.14     0.00   0.05   0.19
   8   7    -0.05  -0.04   0.01    -0.09  -0.13  -0.17    -0.18  -0.19  -0.10
   9   6    -0.01  -0.08   0.00    -0.07  -0.16   0.16    -0.10  -0.28   0.08
  10   1     0.00  -0.02  -0.00    -0.08  -0.11   0.08    -0.05  -0.12   0.04
  11   1    -0.01  -0.03   0.00     0.01  -0.02   0.08    -0.01  -0.08   0.05
  12   1     0.01  -0.02  -0.00     0.01  -0.01   0.07     0.02  -0.05   0.04
  13   6     0.06   0.03  -0.00     0.09   0.15   0.12     0.20   0.15   0.09
  14   1     0.00   0.01   0.00    -0.01   0.15   0.02     0.01   0.14   0.02
  15   1     0.05  -0.02  -0.01     0.09  -0.01   0.09     0.17  -0.04   0.07
  16   1     0.03   0.05   0.00     0.06   0.06   0.07     0.09   0.13   0.05
  17   6     0.03   0.02  -0.03    -0.08   0.01  -0.23     0.01   0.09  -0.23
  18   1     0.04  -0.02  -0.04    -0.02   0.01  -0.09     0.03   0.00  -0.16
  19   1    -0.02   0.00   0.01    -0.01   0.03  -0.03    -0.00   0.06  -0.01
  20   1     0.03   0.05  -0.00    -0.01   0.02  -0.06     0.04   0.09  -0.04
  21   1     0.01   0.01   0.02     0.00   0.00   0.02     0.02   0.02   0.01
  22   6     0.02  -0.11   0.01     0.02   0.01   0.02     0.04   0.06   0.06
  23   8    -0.02  -0.06   0.03     0.03   0.01   0.01     0.10   0.04  -0.01
  24   7    -0.01   0.21  -0.09    -0.04   0.00   0.01    -0.10  -0.06   0.07
  25   1     0.02  -0.01   0.03    -0.02  -0.01  -0.01    -0.05  -0.01  -0.03
  26   1     0.13  -0.60   0.16    -0.02   0.00   0.02    -0.08   0.12   0.01
  27   7    -0.04   0.18  -0.03    -0.01  -0.01  -0.03    -0.01  -0.05  -0.08
  28   1     0.06  -0.26   0.12     0.02  -0.02  -0.02     0.02   0.09  -0.14
  29   1     0.05   0.00   0.01    -0.03  -0.00  -0.01    -0.08  -0.13  -0.02
  30   6    -0.01  -0.03   0.01    -0.01  -0.04   0.01     0.01   0.03  -0.01
  31   8     0.01  -0.05  -0.02     0.01  -0.03  -0.01    -0.01   0.03   0.01
  32   7     0.03   0.12  -0.03     0.01   0.05  -0.02    -0.00  -0.06   0.03
  33   1     0.02   0.02  -0.01    -0.01   0.00  -0.01     0.01  -0.01   0.01
  34   1    -0.13  -0.29  -0.02    -0.03  -0.08  -0.02     0.05   0.13   0.02
  35   7     0.01   0.09   0.03     0.01   0.03   0.02    -0.00  -0.05  -0.02
  36   1    -0.14  -0.16  -0.01    -0.04  -0.05   0.00     0.03   0.03  -0.01
  37   1    -0.01   0.03  -0.02     0.00   0.02  -0.00     0.02   0.02   0.01
  38   6    -0.00  -0.03  -0.02     0.00   0.01   0.07    -0.01  -0.01  -0.04
  39   8     0.04  -0.01  -0.01    -0.08   0.04   0.02     0.06  -0.03   0.01
  40   7    -0.04  -0.05   0.00     0.14   0.12  -0.05    -0.08  -0.09   0.03
  41   1     0.01   0.02  -0.01    -0.14  -0.38   0.11     0.09   0.24  -0.08
  42   1    -0.00   0.01  -0.02     0.17   0.07  -0.02    -0.10  -0.06   0.02
  43   7     0.04   0.13  -0.04    -0.04  -0.09   0.03     0.02   0.09  -0.04
  44   1    -0.01  -0.13   0.07    -0.24  -0.21   0.00     0.15   0.12   0.00
  45   1    -0.12  -0.20   0.16     0.25   0.23  -0.29    -0.18  -0.20   0.21
  46   6    -0.00  -0.01   0.01     0.02   0.01   0.02    -0.03  -0.01  -0.02
  47   8     0.01   0.00  -0.00     0.02   0.01   0.03    -0.02  -0.01  -0.04
  48   7    -0.01   0.05  -0.03    -0.00  -0.01  -0.05    -0.00   0.00   0.06
  49   1     0.01   0.02  -0.01    -0.02  -0.02  -0.02     0.02   0.01   0.02
  50   1    -0.00  -0.20   0.07     0.02  -0.03  -0.03    -0.02   0.05   0.02
  51   7     0.00   0.04   0.00    -0.04   0.01   0.01     0.05  -0.01  -0.01
  52   1    -0.01  -0.05   0.02    -0.03  -0.02   0.03     0.04   0.01  -0.03
  53   1    -0.00  -0.01   0.00    -0.02  -0.00  -0.03     0.02   0.01   0.03
                     43                     44                     45
                        a                      a                      a 
 Frequencies --   466.8923               468.9567               472.5722
 Red. masses --     7.1912                 4.0158                 7.1306
 Frc consts  --     0.0000                 0.0000                 0.0000
 IR Inten    --     7.5651                91.8622                 7.7232
 Raman Activ --     0.0000                 0.0000                 0.0000
 Depolar     --     0.0000                 0.0000                 0.0000
 Atom AN      X      Y      Z        X      Y      Z        X      Y      Z
   1   8    -0.02   0.03  -0.00    -0.01   0.00  -0.01    -0.00   0.01  -0.00
   2   6     0.17  -0.07  -0.01     0.07  -0.03  -0.00     0.03  -0.01   0.00
   3   1     0.04  -0.02   0.00     0.01  -0.01   0.00     0.01  -0.00   0.00
   4   1     0.06  -0.05   0.01     0.03  -0.02   0.01     0.01  -0.01   0.00
   5   6     0.18  -0.05  -0.09     0.07  -0.05  -0.06     0.03  -0.01  -0.01
   6   1     0.06  -0.03  -0.02    -0.00  -0.06   0.00     0.01  -0.01  -0.00
   7   1     0.04  -0.01  -0.03     0.01  -0.02  -0.06     0.00  -0.00  -0.01
   8   7     0.08  -0.02  -0.15     0.08   0.05  -0.03     0.01  -0.00  -0.02
   9   6    -0.04   0.06   0.11     0.02   0.10   0.02    -0.01   0.01   0.01
  10   1    -0.06  -0.03   0.06    -0.01   0.02   0.01    -0.01  -0.00   0.01
  11   1     0.02   0.08   0.05     0.01   0.05   0.01     0.00   0.01   0.01
  12   1    -0.03   0.02   0.06    -0.01   0.02   0.01    -0.00   0.00   0.01
  13   6    -0.11   0.04   0.18    -0.10  -0.03   0.02    -0.02   0.01   0.03
  14   1    -0.08   0.08   0.05    -0.04  -0.02   0.01    -0.01   0.01   0.01
  15   1    -0.05   0.03   0.08    -0.07   0.02   0.00    -0.01   0.00   0.01
  16   1    -0.01  -0.05   0.11    -0.03  -0.05   0.02    -0.00  -0.00   0.01
  17   6    -0.20   0.02  -0.10    -0.07  -0.04   0.03    -0.03   0.01  -0.01
  18   1    -0.03  -0.02   0.02    -0.01  -0.02   0.06    -0.01   0.00  -0.00
  19   1    -0.13   0.00   0.03    -0.05  -0.03   0.01    -0.01   0.00   0.00
  20   1    -0.08   0.05  -0.10    -0.04  -0.02  -0.02    -0.01   0.00  -0.01
  21   1    -0.04  -0.03  -0.01    -0.02  -0.02  -0.01    -0.01  -0.01  -0.00
  22   6    -0.04  -0.04  -0.07     0.03   0.05   0.08     0.01  -0.01  -0.00
  23   8    -0.11  -0.04   0.02     0.14   0.07  -0.05    -0.00  -0.01   0.02
  24   7     0.10   0.03  -0.07    -0.10  -0.05   0.09    -0.02   0.01  -0.01
  25   1     0.04  -0.02   0.02    -0.04   0.06  -0.02    -0.01  -0.02  -0.00
  26   1     0.03   0.06  -0.06    -0.01  -0.17   0.09    -0.03   0.07  -0.01
  27   7     0.03  -0.02   0.08    -0.05   0.08  -0.07     0.01  -0.04  -0.02
  28   1    -0.03  -0.11   0.16     0.03   0.24  -0.25     0.01  -0.09   0.05
  29   1     0.06   0.32  -0.00    -0.04  -0.65   0.04    -0.02   0.23  -0.03
  30   6     0.02   0.00   0.02    -0.01   0.02  -0.02    -0.03   0.08  -0.04
  31   8     0.02  -0.01   0.02    -0.02   0.01  -0.02    -0.03   0.06  -0.05
  32   7     0.00   0.00  -0.05     0.01  -0.00   0.06    -0.03  -0.05   0.10
  33   1    -0.02   0.00  -0.02     0.01  -0.03   0.02     0.01  -0.02   0.03
  34   1     0.02   0.01  -0.03    -0.01   0.01   0.03     0.03   0.16   0.06
  35   7    -0.04   0.02   0.01     0.04  -0.01  -0.01     0.10  -0.11  -0.02
  36   1    -0.04  -0.01   0.01    -0.01  -0.05  -0.02     0.11   0.01  -0.05
  37   1    -0.01   0.02  -0.02     0.02   0.00   0.01     0.05  -0.04   0.06
  38   6    -0.01   0.05   0.12    -0.00   0.03   0.10     0.01   0.01   0.04
  39   8    -0.13   0.08   0.08    -0.13   0.06   0.06    -0.06   0.02   0.02
  40   7     0.14  -0.18   0.09     0.13  -0.12   0.06     0.05  -0.12   0.04
  41   1     0.16   0.23  -0.16     0.10   0.11  -0.10     0.07   0.11  -0.08
  42   1    -0.00  -0.08   0.05     0.03  -0.04   0.03     0.00  -0.03   0.01
  43   7    -0.01   0.03  -0.20     0.01   0.08  -0.16     0.04   0.16  -0.13
  44   1    -0.12  -0.00  -0.09    -0.21  -0.19  -0.02    -0.15  -0.25   0.05
  45   1     0.05  -0.14  -0.07     0.08  -0.11  -0.08    -0.04  -0.22   0.07
  46   6    -0.10  -0.01  -0.06    -0.01   0.00  -0.01     0.19   0.03   0.12
  47   8    -0.04  -0.04  -0.13    -0.00   0.00  -0.02     0.09   0.08   0.27
  48   7    -0.04   0.05   0.15    -0.01   0.01   0.01     0.06  -0.11  -0.32
  49   1     0.06   0.03   0.06     0.01   0.01   0.00    -0.12  -0.02  -0.12
  50   1    -0.06   0.00   0.10    -0.01  -0.03   0.02     0.11  -0.04  -0.20
  51   7     0.14  -0.01  -0.01     0.01   0.00   0.00    -0.28   0.03   0.04
  52   1     0.12  -0.01  -0.08     0.01  -0.02  -0.00    -0.23   0.02   0.17
  53   1     0.07  -0.00   0.11     0.01   0.01   0.01    -0.14   0.02  -0.22
                     46                     47                     48
                        a                      a                      a 
 Frequencies --   474.7906               482.5373               485.5292
 Red. masses --     6.0206                 7.4234                 5.4003
 Frc consts  --     0.0000                 0.0000                 0.0000
 IR Inten    --     4.5565                20.9028                90.3199
 Raman Activ --     0.0000                 0.0000                 0.0000
 Depolar     --     0.0000                 0.0000                 0.0000
 Atom AN      X      Y      Z        X      Y      Z        X      Y      Z
   1   8     0.02  -0.03   0.01     0.01  -0.00   0.00    -0.02   0.02  -0.01
   2   6    -0.18   0.07   0.01    -0.02   0.01   0.00     0.12  -0.04  -0.00
   3   1    -0.04   0.02  -0.00     0.00  -0.00  -0.00     0.02  -0.01   0.00
   4   1    -0.06   0.05  -0.01    -0.01   0.01  -0.01     0.04  -0.03   0.01
   5   6    -0.18   0.06   0.10    -0.02   0.03   0.04     0.10  -0.06  -0.08
   6   1    -0.06   0.04   0.02     0.01   0.04  -0.01     0.02  -0.06  -0.00
   7   1    -0.04   0.01   0.04    -0.01   0.01   0.05     0.02  -0.02  -0.06
   8   7    -0.08   0.01   0.15    -0.05  -0.04  -0.00     0.07   0.03  -0.07
   9   6     0.03  -0.07  -0.11    -0.02  -0.06  -0.00     0.01   0.09   0.06
  10   1     0.06   0.02  -0.06    -0.00  -0.02  -0.00    -0.03   0.01   0.03
  11   1    -0.03  -0.08  -0.06    -0.01  -0.02   0.00     0.02   0.06   0.03
  12   1     0.02  -0.03  -0.06     0.00  -0.01  -0.00    -0.01   0.02   0.03
  13   6     0.12  -0.05  -0.18     0.05   0.03  -0.00    -0.11  -0.00   0.08
  14   1     0.09  -0.08  -0.05     0.01   0.02  -0.00    -0.06   0.02   0.03
  15   1     0.06  -0.03  -0.08     0.04  -0.01   0.00    -0.06   0.02   0.03
  16   1     0.01   0.06  -0.11     0.02   0.03  -0.00    -0.02  -0.04   0.05
  17   6     0.24  -0.02   0.08     0.04   0.02  -0.04    -0.16  -0.02   0.00
  18   1     0.05   0.01  -0.03     0.02  -0.00  -0.04    -0.05  -0.00   0.06
  19   1     0.12  -0.00  -0.02     0.01   0.01  -0.00    -0.07  -0.01   0.01
  20   1     0.10  -0.02   0.09     0.03   0.03   0.00    -0.07  -0.01  -0.04
  21   1     0.04   0.04   0.01     0.01   0.01   0.00    -0.03  -0.02  -0.01
  22   6     0.03   0.00   0.03    -0.17  -0.02  -0.18     0.04   0.00   0.06
  23   8     0.04  -0.01   0.03    -0.30  -0.01  -0.07     0.09   0.01   0.02
  24   7    -0.06   0.02   0.01     0.35  -0.06  -0.11    -0.09   0.01   0.04
  25   1    -0.03  -0.02  -0.01     0.15   0.06   0.08    -0.04  -0.02  -0.02
  26   1    -0.04   0.03   0.02     0.19  -0.01  -0.16    -0.05   0.02   0.04
  27   7     0.00  -0.04  -0.06    -0.00   0.09   0.32    -0.00  -0.02  -0.09
  28   1     0.03  -0.10   0.01    -0.16   0.25   0.14     0.05  -0.06  -0.05
  29   1    -0.05   0.17  -0.04     0.25  -0.27   0.15    -0.07   0.04  -0.04
  30   6     0.03   0.03   0.02     0.05  -0.02   0.06     0.04   0.00   0.03
  31   8     0.02   0.02   0.03     0.06  -0.04   0.05     0.04   0.01   0.05
  32   7    -0.02  -0.09  -0.03    -0.02  -0.05  -0.15    -0.01  -0.11  -0.06
  33   1    -0.05  -0.01  -0.02    -0.08   0.05  -0.06    -0.05   0.02  -0.03
  34   1     0.12   0.24  -0.02     0.13   0.18  -0.09     0.15   0.26  -0.03
  35   7    -0.06  -0.02  -0.01    -0.10   0.02   0.03    -0.10   0.00  -0.01
  36   1     0.00   0.04   0.02    -0.03   0.06   0.05    -0.02   0.06   0.04
[...]
  44   1    -0.00   0.00   0.00    -0.00  -0.00   0.00    -0.01   0.01   0.03
  45   1     0.00   0.00  -0.00     0.00  -0.00   0.00    -0.01  -0.00  -0.01
  46   6     0.00   0.00   0.01     0.00   0.00   0.00     0.02   0.00   0.01
  47   8    -0.00   0.00  -0.00    -0.00  -0.00  -0.00    -0.01  -0.00  -0.00
  48   7    -0.04   0.03   0.12     0.01  -0.01  -0.03    -0.02   0.01   0.03
  49   1     0.12  -0.13  -0.49    -0.03   0.03   0.12     0.03  -0.04  -0.14
  50   1     0.04   0.01   0.04    -0.01  -0.00  -0.01     0.01   0.00   0.01
  51   7    -0.00  -0.00  -0.00    -0.00   0.00  -0.00    -0.00  -0.00  -0.00
  52   1    -0.00  -0.00  -0.00    -0.00   0.00  -0.00    -0.01  -0.00  -0.01
  53   1     0.01  -0.00  -0.00     0.00  -0.00   0.00     0.02  -0.00  -0.00
                    142                    143                    144
                        a                      a                      a 
 Frequencies --  3480.2877              3494.1848              3501.0581
 Red. masses --     1.4577                 1.4555                 1.4454
 Frc consts  --     0.0000                 0.0000                 0.0000
 IR Inten    --    23.5347                17.7323                23.7609
 Raman Activ --     0.0000                 0.0000                 0.0000
 Depolar     --     0.0000                 0.0000                 0.0000
 Atom AN      X      Y      Z        X      Y      Z        X      Y      Z
   1   8     0.00  -0.00   0.00    -0.00   0.00  -0.00    -0.00   0.00  -0.00
   2   6     0.00  -0.00  -0.00     0.00   0.00   0.00    -0.00   0.00   0.00
   3   1     0.00  -0.00   0.00     0.00   0.00  -0.00    -0.00   0.00   0.00
   4   1    -0.00   0.00   0.00     0.00  -0.00   0.00     0.00  -0.00  -0.00
   5   6     0.00  -0.00  -0.00    -0.00  -0.00   0.00    -0.00  -0.00   0.00
   6   1    -0.00   0.00   0.00    -0.00  -0.00  -0.00     0.00  -0.00  -0.00
   7   1     0.00   0.00  -0.00     0.00   0.00   0.00     0.00   0.00   0.00
   8   7    -0.00  -0.00  -0.00     0.00   0.00  -0.00     0.00   0.00   0.00
   9   6    -0.00   0.00   0.00     0.00  -0.00   0.00     0.00  -0.00   0.00
  10   1    -0.00   0.00   0.00    -0.00  -0.00  -0.00    -0.00  -0.00  -0.00
  11   1     0.00  -0.00  -0.00     0.00  -0.00  -0.00    -0.00   0.00   0.00
  12   1     0.00   0.00  -0.00    -0.00   0.00  -0.00    -0.00   0.00  -0.00
  13   6    -0.00   0.00   0.00    -0.00  -0.00   0.00     0.00  -0.00  -0.00
  14   1    -0.00   0.00   0.00    -0.00  -0.00  -0.00    -0.00   0.00  -0.00
  15   1     0.00   0.00  -0.00     0.00   0.00   0.00     0.00   0.00   0.00
  16   1     0.00  -0.00  -0.00     0.00  -0.00  -0.00    -0.00   0.00   0.00
  17   6    -0.00   0.00   0.00    -0.00  -0.00   0.00     0.00  -0.00   0.00
  18   1     0.00   0.00   0.00     0.00   0.00  -0.00    -0.00   0.00   0.00
  19   1    -0.00   0.00  -0.00    -0.00  -0.00  -0.00    -0.00   0.00   0.00
  20   1     0.00  -0.00  -0.00     0.00  -0.00  -0.00     0.00   0.00   0.00
  21   1    -0.00   0.00  -0.00     0.00  -0.00   0.00     0.00  -0.00   0.00
  22   6     0.00   0.00   0.00     0.00   0.00  -0.00    -0.00   0.00   0.00
  23   8    -0.00  -0.00  -0.00    -0.00  -0.00  -0.00     0.00  -0.00  -0.00
  24   7    -0.00   0.00   0.00    -0.01  -0.00  -0.00     0.00  -0.00  -0.00
  25   1     0.00  -0.00  -0.00     0.01  -0.00  -0.00    -0.00   0.00   0.00
  26   1    -0.00  -0.00  -0.00     0.03   0.01   0.02     0.00   0.00   0.00
  27   7    -0.00  -0.00  -0.00     0.16   0.05  -0.07     0.00   0.00  -0.00
  28   1     0.00   0.00   0.00    -0.53  -0.28  -0.40    -0.00  -0.00  -0.00
  29   1     0.00   0.00   0.00    -0.08   0.07   0.65    -0.00   0.00   0.00
  30   6     0.00   0.00  -0.00     0.00  -0.00  -0.00    -0.00   0.00   0.00
  31   8    -0.00  -0.00  -0.00    -0.00   0.00   0.00     0.00  -0.00  -0.00
  32   7    -0.00  -0.00  -0.00    -0.00   0.00  -0.00     0.00  -0.00  -0.00
  33   1    -0.00  -0.00   0.01     0.00   0.00  -0.00    -0.00  -0.00   0.01
  34   1     0.00   0.00   0.00     0.00  -0.00   0.00    -0.01   0.00  -0.01
  35   7    -0.00   0.00   0.00    -0.00   0.00   0.00    -0.00   0.00  -0.00
  36   1     0.00  -0.00   0.00    -0.00   0.00  -0.00     0.00  -0.00   0.00
  37   1     0.00  -0.00  -0.00     0.01  -0.00  -0.00    -0.00   0.00   0.00
  38   6     0.00  -0.00  -0.00     0.00  -0.00  -0.00    -0.00   0.00   0.00
  39   8    -0.00   0.00   0.00    -0.00   0.00   0.00     0.00  -0.00  -0.00
  40   7    -0.01  -0.00  -0.01     0.00  -0.00  -0.00    -0.00  -0.00  -0.00
  41   1     0.03  -0.01   0.00    -0.00   0.00  -0.00     0.02  -0.01   0.00
  42   1    -0.01   0.02   0.02     0.00   0.00   0.00    -0.00   0.01   0.01
  43   7     0.17  -0.06  -0.04    -0.00   0.00   0.00     0.00  -0.00  -0.00
  44   1    -0.24   0.33   0.64     0.00  -0.00  -0.00    -0.00   0.00   0.00
  45   1    -0.40  -0.11  -0.47    -0.00  -0.00  -0.00    -0.00   0.00  -0.00
  46   6    -0.00   0.00  -0.00     0.00  -0.00  -0.00     0.00   0.00   0.00
  47   8     0.00  -0.00  -0.00    -0.00   0.00   0.00    -0.00  -0.00  -0.00
  48   7     0.00  -0.00  -0.00    -0.00   0.00   0.00    -0.00  -0.00  -0.01
  49   1    -0.00   0.00   0.00     0.00  -0.00  -0.00    -0.00   0.00   0.01
  50   1    -0.00  -0.00  -0.00     0.00   0.00   0.00     0.03   0.01   0.03
  51   7     0.00  -0.00  -0.00     0.00  -0.00  -0.00    -0.03   0.05   0.17
  52   1     0.00   0.00   0.00     0.00   0.00   0.00    -0.52  -0.08  -0.47
  53   1    -0.00   0.00   0.00    -0.00   0.00   0.00     0.65  -0.10  -0.18
                    145                    146                    147
                        a                      a                      a 
 Frequencies --  3518.4261              3529.5520              3532.9987
 Red. masses --     1.9119                 1.8968                 1.8867
 Frc consts  --     0.0000                 0.0000                 0.0000
 IR Inten    --    15.9369                 8.9944                10.6287
 Raman Activ --     0.0000                 0.0000                 0.0000
 Depolar     --     0.0000                 0.0000                 0.0000
 Atom AN      X      Y      Z        X      Y      Z        X      Y      Z
   1   8     0.00  -0.00   0.00     0.00  -0.00   0.00    -0.00   0.00  -0.00
   2   6     0.00  -0.00  -0.00    -0.00  -0.00  -0.00    -0.00   0.00  -0.00
   3   1     0.00   0.00   0.00     0.00   0.00   0.00     0.00   0.00   0.00
   4   1    -0.00   0.00   0.00     0.00  -0.00  -0.00     0.00   0.00  -0.00
   5   6     0.00  -0.00  -0.00     0.00   0.00   0.00    -0.00  -0.00   0.00
   6   1     0.00   0.00   0.00     0.00  -0.00  -0.00    -0.00   0.00  -0.00
   7   1     0.00   0.00  -0.00    -0.00  -0.00  -0.00     0.00   0.00  -0.00
   8   7     0.00  -0.00  -0.00    -0.00   0.00   0.00     0.00   0.00   0.00
   9   6     0.00  -0.00  -0.00     0.00   0.00  -0.00     0.00  -0.00   0.00
  10   1     0.00   0.00   0.00    -0.00  -0.00  -0.00     0.00   0.00   0.00
  11   1    -0.00   0.00   0.00    -0.00   0.00   0.00    -0.00  -0.00   0.00
  12   1     0.00  -0.00  -0.00     0.00  -0.00   0.00    -0.00   0.00  -0.00
  13   6     0.00   0.00  -0.00     0.00   0.00  -0.00     0.00  -0.00  -0.00
  14   1     0.00  -0.00   0.00     0.00  -0.00  -0.00     0.00   0.00   0.00
  15   1    -0.00  -0.00  -0.00    -0.00  -0.00   0.00     0.00   0.00  -0.00
  16   1    -0.00   0.00   0.00    -0.00   0.00   0.00    -0.00   0.00   0.00
  17   6     0.00  -0.00  -0.00     0.00   0.00  -0.00     0.00   0.00  -0.00
  18   1     0.00   0.00  -0.00    -0.00  -0.00   0.00    -0.00  -0.00  -0.00
  19   1     0.00  -0.00   0.00     0.00  -0.00   0.00     0.00   0.00   0.00
  20   1    -0.01   0.00   0.00    -0.00   0.00  -0.00    -0.00   0.00   0.00
  21   1    -0.00   0.00  -0.00    -0.00   0.00  -0.00     0.00  -0.00   0.00
  22   6     0.00   0.00  -0.00     0.00   0.00   0.00     0.01   0.00  -0.00
  23   8     0.00  -0.00   0.00    -0.00  -0.00  -0.00    -0.00  -0.00  -0.00
  24   7     0.00   0.00   0.00     0.01   0.00   0.01     0.20   0.08   0.14
  25   1    -0.00   0.00   0.00    -0.00   0.00   0.00    -0.05   0.01   0.04
  26   1    -0.00  -0.00  -0.00    -0.03  -0.01  -0.02    -0.72  -0.30  -0.54
  27   7    -0.00  -0.00   0.00    -0.00  -0.00  -0.00    -0.00  -0.01  -0.03
  28   1     0.00   0.00   0.00     0.00   0.00   0.00     0.03   0.01   0.02
  29   1     0.00  -0.00  -0.00    -0.00   0.00   0.00    -0.01   0.01   0.10
  30   6    -0.00   0.00  -0.00    -0.00  -0.00  -0.01     0.00  -0.00   0.00
  31   8     0.00  -0.00  -0.00     0.00  -0.00   0.00    -0.00   0.00  -0.00
  32   7    -0.00   0.00  -0.00    -0.16   0.08  -0.18     0.01  -0.00   0.01
  33   1    -0.00  -0.00   0.01    -0.04  -0.00   0.07     0.00   0.00  -0.01
  34   1     0.00  -0.00   0.00     0.63  -0.28   0.62    -0.03   0.01  -0.03
  35   7    -0.00   0.00  -0.00     0.05  -0.04   0.04     0.00  -0.00   0.00
  36   1     0.00  -0.00   0.00    -0.15   0.13  -0.17    -0.00   0.00  -0.00
  37   1    -0.00   0.00  -0.00    -0.03   0.01   0.02    -0.00   0.00   0.00
  38   6     0.01  -0.00  -0.00    -0.00   0.00  -0.00     0.00   0.00   0.00
  39   8    -0.00   0.00  -0.00    -0.00  -0.00   0.00     0.00  -0.00  -0.00
  40   7     0.23  -0.12  -0.01    -0.00  -0.00  -0.00    -0.00   0.00   0.00
  41   1    -0.88   0.36  -0.03     0.01  -0.00   0.00    -0.00   0.00   0.00
  42   1    -0.01   0.09   0.08    -0.00   0.00   0.00     0.00  -0.00  -0.00
  43   7     0.01   0.01   0.01    -0.00  -0.00  -0.00    -0.00  -0.00  -0.00
  44   1     0.01  -0.01  -0.01    -0.00   0.00   0.00    -0.00   0.00   0.00
  45   1    -0.04  -0.01  -0.04     0.01   0.00   0.01     0.00   0.00   0.00
  46   6    -0.00  -0.00  -0.00    -0.00  -0.00  -0.00    -0.00  -0.00  -0.00
  47   8     0.00   0.00   0.00     0.00  -0.00   0.00     0.00   0.00   0.00
  48   7     0.00   0.00   0.00    -0.01  -0.00  -0.01    -0.02  -0.01  -0.02
  49   1    -0.00   0.00   0.00    -0.00   0.00   0.00    -0.00   0.00   0.00
  50   1    -0.01  -0.00  -0.01     0.02   0.01   0.02     0.08   0.03   0.07
  51   7     0.00   0.00   0.00     0.00   0.00   0.00     0.00  -0.00  -0.00
  52   1    -0.01  -0.00  -0.01    -0.01  -0.00  -0.01    -0.00  -0.00  -0.00
  53   1     0.01  -0.00  -0.00    -0.00   0.00   0.00    -0.01   0.00   0.00
                    148                    149                    150
                        a                      a                      a 
 Frequencies --  3535.0222              3540.1247              3546.7271
 Red. masses --     1.9020                 1.9217                 2.1729
 Frc consts  --     0.0000                 0.0000                 0.0000
 IR Inten    --    15.5191                25.7079                16.0342
 Raman Activ --     0.0000                 0.0000                 0.0000
 Depolar     --     0.0000                 0.0000                 0.0000
 Atom AN      X      Y      Z        X      Y      Z        X      Y      Z
   1   8    -0.00   0.00  -0.00    -0.00   0.00  -0.00     0.00  -0.00   0.00
   2   6    -0.00   0.00  -0.00     0.00   0.00  -0.00     0.00   0.00  -0.00
   3   1    -0.00   0.00   0.00     0.00  -0.00  -0.00    -0.00  -0.00  -0.00
   4   1     0.00  -0.00  -0.00    -0.00   0.00   0.00     0.00  -0.00   0.00
   5   6    -0.00  -0.00   0.00    -0.00  -0.00  -0.00    -0.00  -0.00   0.00
   6   1    -0.00   0.00  -0.00     0.00   0.00   0.00     0.00   0.00   0.00
   7   1     0.00   0.00   0.00     0.00   0.00   0.00    -0.00  -0.00  -0.00
   8   7     0.00   0.00   0.00    -0.00  -0.00  -0.00    -0.00   0.00   0.00
   9   6     0.00  -0.00   0.00    -0.00  -0.00   0.00     0.00  -0.00  -0.00
  10   1    -0.00  -0.00  -0.00     0.00   0.00   0.00     0.00   0.00   0.00
  11   1     0.00  -0.00  -0.00     0.00   0.00  -0.00    -0.00   0.00   0.00
  12   1    -0.00   0.00  -0.00     0.00  -0.00  -0.00     0.00  -0.00  -0.00
  13   6    -0.00  -0.00   0.00    -0.00  -0.00   0.00     0.00  -0.00  -0.00
  14   1    -0.00   0.00  -0.00     0.00  -0.00  -0.00     0.00  -0.00  -0.00
  15   1    -0.00   0.00   0.00     0.00   0.00   0.00    -0.00  -0.00  -0.00
  16   1     0.00   0.00  -0.00     0.00   0.00  -0.00    -0.00   0.00   0.00
  17   6    -0.00   0.00   0.00    -0.00  -0.00  -0.00     0.00  -0.00  -0.00
  18   1    -0.00  -0.00   0.00     0.00   0.00  -0.00     0.00   0.00  -0.00
  19   1     0.00   0.00   0.00     0.00  -0.00   0.00     0.00  -0.00  -0.00
  20   1     0.00  -0.00  -0.00    -0.00  -0.00   0.00    -0.00   0.00   0.00
  21   1     0.00  -0.00   0.00     0.00  -0.00   0.00    -0.00   0.00  -0.00
  22   6     0.00   0.00  -0.00    -0.00  -0.00  -0.00    -0.00  -0.00  -0.00
  23   8    -0.00  -0.00  -0.00     0.00  -0.00   0.00     0.00   0.00   0.00
  24   7     0.02   0.01   0.02     0.00   0.00   0.00    -0.00  -0.00  -0.00
  25   1    -0.01   0.00   0.01     0.00  -0.00  -0.00     0.00  -0.00  -0.00
  26   1    -0.08  -0.03  -0.06    -0.01  -0.01  -0.01     0.00   0.00   0.00
  27   7    -0.00  -0.00  -0.00     0.00   0.00   0.00     0.00   0.00   0.00
  28   1     0.00   0.00   0.00    -0.01  -0.01  -0.01    -0.00  -0.00  -0.00
  29   1    -0.00   0.00   0.01     0.00  -0.00  -0.01     0.00  -0.00  -0.00
  30   6     0.00  -0.00   0.00    -0.01   0.01  -0.00     0.00   0.00  -0.00
  31   8    -0.00   0.00  -0.00     0.00  -0.00   0.00    -0.00  -0.00  -0.00
  32   7    -0.01   0.00  -0.01    -0.04   0.02  -0.05     0.00  -0.00   0.00
  33   1    -0.00   0.00  -0.00    -0.01  -0.00   0.02    -0.00   0.00   0.00
  34   1     0.02  -0.01   0.02     0.18  -0.08   0.17    -0.01   0.00  -0.01
  35   7    -0.00   0.00  -0.00    -0.16   0.13  -0.14    -0.00   0.00  -0.00
  36   1     0.01  -0.01   0.01     0.53  -0.46   0.59     0.01  -0.00   0.01
  37   1    -0.00   0.00   0.00     0.10  -0.04  -0.05     0.00  -0.00  -0.00
  38   6    -0.00   0.00  -0.00    -0.00   0.00  -0.00    -0.00  -0.00  -0.01
  39   8    -0.00   0.00   0.00    -0.00  -0.00   0.00     0.00   0.00   0.00
  40   7    -0.00   0.00   0.00    -0.00   0.00  -0.00     0.01  -0.01  -0.00
  41   1     0.02  -0.01   0.00     0.00  -0.00   0.00    -0.05   0.02  -0.00
  42   1    -0.00  -0.00  -0.00    -0.00   0.00   0.00    -0.00   0.02   0.02
  43   7     0.00   0.00   0.00     0.00   0.00   0.00    -0.07  -0.10  -0.27
  44   1     0.00  -0.00  -0.00     0.00  -0.00  -0.01    -0.22   0.26   0.50
  45   1    -0.00  -0.00  -0.00    -0.00  -0.00  -0.00     0.49   0.12   0.54
  46   6     0.00   0.00   0.01    -0.00  -0.00  -0.00    -0.00   0.00  -0.00
  47   8    -0.00  -0.00  -0.00     0.00  -0.00   0.00     0.00  -0.00  -0.00
  48   7     0.18   0.06   0.17    -0.00  -0.00  -0.01     0.00   0.00   0.00
  49   1     0.04  -0.02  -0.07    -0.00   0.00   0.01    -0.00   0.00   0.00
  50   1    -0.71  -0.22  -0.59     0.02   0.01   0.01    -0.00  -0.00  -0.00
  51   7    -0.02   0.00   0.00     0.00  -0.00   0.00     0.00   0.00   0.00
  52   1     0.01   0.00   0.01    -0.00  -0.00  -0.00    -0.00  -0.00  -0.00
  53   1     0.08  -0.01  -0.02    -0.00   0.00   0.00     0.00  -0.00  -0.00
                    151                    152                    153
                        a                      a                      a 
 Frequencies --  3557.5153              3568.2282              3572.6810
 Red. masses --     2.1727                 2.1881                 1.8774
 Frc consts  --     0.0000                 0.0000                 0.0000
 IR Inten    --    13.4362                17.0168                28.2922
 Raman Activ --     0.0000                 0.0000                 0.0000
 Depolar     --     0.0000                 0.0000                 0.0000
 Atom AN      X      Y      Z        X      Y      Z        X      Y      Z
   1   8     0.00  -0.00   0.00     0.00  -0.00   0.00     0.17  -0.16   0.03
   2   6     0.00   0.00   0.00     0.00  -0.00   0.00     0.00  -0.00   0.00
   3   1    -0.00  -0.00  -0.00    -0.00  -0.00  -0.00     0.00   0.00   0.00
   4   1    -0.00   0.00   0.00     0.00   0.00   0.00    -0.00   0.00   0.00
   5   6    -0.00  -0.00   0.00    -0.00  -0.00  -0.00    -0.00  -0.00   0.00
   6   1    -0.00  -0.00  -0.00     0.00   0.00   0.00    -0.00  -0.00  -0.00
   7   1     0.00   0.00   0.00     0.00   0.00   0.00     0.00  -0.00   0.00
   8   7     0.00   0.00   0.00     0.00   0.00  -0.00    -0.00   0.00  -0.00
   9   6     0.00   0.00   0.00     0.00   0.00   0.00    -0.00   0.00  -0.00
  10   1    -0.00  -0.00  -0.00     0.00   0.00  -0.00    -0.00  -0.00  -0.00
  11   1     0.00  -0.00  -0.00    -0.00   0.00   0.00    -0.00  -0.00   0.00
  12   1    -0.00  -0.00   0.00     0.00  -0.00   0.00     0.00  -0.01   0.00
  13   6    -0.00  -0.00   0.00     0.00  -0.00  -0.00    -0.00   0.00   0.00
  14   1    -0.00  -0.00   0.00     0.00  -0.00  -0.00    -0.00  -0.00  -0.00
  15   1     0.00   0.00   0.00    -0.00  -0.00  -0.00    -0.00  -0.00   0.00
  16   1     0.00  -0.00  -0.00    -0.00   0.00   0.00     0.00  -0.00  -0.00
  17   6    -0.00  -0.00   0.00     0.00  -0.00  -0.00    -0.00   0.00  -0.00
  18   1     0.00   0.00  -0.00     0.00  -0.00  -0.00     0.00  -0.00  -0.00
  19   1    -0.00  -0.00  -0.00     0.00  -0.00  -0.00     0.00  -0.00   0.00
  20   1     0.00  -0.00  -0.00    -0.00   0.00   0.00     0.00  -0.00  -0.00
  21   1    -0.00   0.00  -0.00    -0.00   0.00  -0.00    -0.70   0.66  -0.14
  22   6    -0.00  -0.00  -0.01    -0.00  -0.00  -0.00    -0.00  -0.00  -0.00
  23   8     0.00   0.00   0.00     0.00   0.00   0.00     0.00   0.00   0.00
  24   7    -0.02  -0.01  -0.01    -0.00  -0.00  -0.00     0.00   0.00   0.00
  25   1     0.01  -0.00  -0.00     0.00  -0.00  -0.00     0.00  -0.00  -0.00
  26   1     0.07   0.03   0.06     0.00   0.00   0.00    -0.00  -0.00  -0.00
  27   7    -0.10  -0.08  -0.27    -0.00  -0.00  -0.00     0.00   0.00   0.00
  28   1     0.48   0.25   0.33     0.00   0.00   0.00    -0.00  -0.00  -0.00
  29   1    -0.11   0.06   0.69    -0.00   0.00   0.00     0.00  -0.00  -0.00
  30   6    -0.00   0.00  -0.00    -0.00   0.00  -0.00     0.00  -0.00  -0.00
  31   8     0.00  -0.00   0.00     0.00  -0.00   0.00    -0.00   0.00   0.00
  32   7    -0.00   0.00  -0.00    -0.00   0.00  -0.00    -0.00   0.00   0.00
  33   1    -0.00  -0.00   0.00    -0.00  -0.00   0.01     0.00   0.00  -0.00
  34   1     0.00  -0.00   0.00     0.00  -0.00   0.00     0.00  -0.00   0.00
  35   7    -0.00   0.00  -0.00    -0.00   0.00  -0.00    -0.00   0.00  -0.00
  36   1     0.01  -0.01   0.01     0.00  -0.00   0.00     0.00  -0.00   0.00
  37   1     0.01  -0.00  -0.00     0.00  -0.00  -0.00     0.00  -0.00  -0.00
  38   6     0.00  -0.00  -0.00     0.00  -0.00   0.00     0.00  -0.00  -0.00
  39   8    -0.00   0.00   0.00     0.00  -0.00  -0.00    -0.00   0.00   0.00
  40   7     0.00  -0.00   0.00     0.00  -0.00  -0.00    -0.00   0.00   0.00
  41   1    -0.00   0.00  -0.00    -0.00   0.00  -0.00     0.00  -0.00  -0.00
  42   1    -0.00   0.00   0.00    -0.00   0.01   0.01     0.00  -0.00  -0.00
  43   7    -0.00  -0.00  -0.00     0.00  -0.00   0.00    -0.00   0.00   0.00
  44   1    -0.00   0.00   0.00     0.00   0.00   0.00     0.00  -0.00  -0.00
  45   1     0.00   0.00   0.00    -0.00  -0.00  -0.00     0.00   0.00   0.00
  46   6     0.00  -0.00  -0.00    -0.01   0.00  -0.00     0.00  -0.00  -0.00
  47   8     0.00   0.00  -0.00     0.00  -0.00   0.00     0.00   0.00   0.00
  48   7    -0.00  -0.00  -0.00    -0.01  -0.00  -0.01     0.00   0.00   0.00
  49   1    -0.00   0.00   0.00    -0.00   0.00   0.01     0.00  -0.00  -0.00
  50   1     0.00   0.00   0.00     0.06   0.02   0.04    -0.00  -0.00  -0.00
  51   7     0.00  -0.00   0.00    -0.29   0.01  -0.07     0.00   0.00   0.00
  52   1    -0.00  -0.00  -0.00     0.47   0.08   0.46    -0.00  -0.00  -0.00
  53   1    -0.00   0.00   0.00     0.65  -0.10  -0.20     0.00  -0.00  -0.00
