      -----------------------------------------------------------      
     |                   =====================                   |     
     |                           x T B                           |     
     |                   =====================                   |     
     |                         S. Grimme                         |     
     |          Mulliken Center for Theoretical Chemistry        |     
     |                    University of Bonn                     |     
      -----------------------------------------------------------      

   * xtb version 6.6.1 (unknown-commit) compiled by '@Linux' on 12/27/2023

   xtb is free software: you can redistribute it and/or modify it under
   the terms of the GNU Lesser General Public License as published by
   the Free Software Foundation, either version 3 of the License, or
   (at your option) any later version.
   
   xtb is distributed in the hope that it will be useful,
   but WITHOUT ANY WARRANTY; without even the implied warranty of
   MERCHANTABILITY or FITNESS FOR A PARTICULAR PURPOSE.  See the
   GNU Lesser General Public License for more details.
   
   Cite this work as:
   * C. Bannwarth, E. Caldeweyher, S. Ehlert, A. Hansen, P. Pracht,
     J. Seibert, S. Spicher, S. Grimme, WIREs Comput. Mol. Sci., 2020, 11,
     e01493. DOI: 10.1002/wcms.1493
   
   for GFN2-xTB:
   * C. Bannwarth, S. Ehlert and S. Grimme., J. Chem. Theory Comput., 2019,
     15, 1652-1671. DOI: 10.1021/acs.jctc.8b01176
   for GFN1-xTB:
   * S. Grimme, C. Bannwarth, P. Shushkov, J. Chem. Theory Comput., 2017,
     13, 1989-2009. DOI: 10.1021/acs.jctc.7b00118
   for GFN0-xTB:
   * P. Pracht, E. Caldeweyher, S. Ehlert, S. Grimme, ChemRxiv, 2019, preprint.
     DOI: 10.26434/chemrxiv.8326202.v1
   for GFN-FF:
   * S. Spicher and S. Grimme, Angew. Chem. Int. Ed., 2020, 59, 15665-15673.
     DOI: 10.1002/anie.202004239
   
   for ALPB and GBSA implicit solvation:
   * S. Ehlert, M. Stahn, S. Spicher, S. Grimme, J. Chem. Theory Comput.,
     2021, 17, 4250-4261. DOI: 10.1021/acs.jctc.1c00471
   
   for DFT-D4:
   * E. Caldeweyher, C. Bannwarth and S. Grimme, J. Chem. Phys., 2017,
     147, 034112. DOI: 10.1063/1.4993215
   * E. Caldeweyher, S. Ehlert, A. Hansen, H. Neugebauer, S. Spicher,
     C. Bannwarth and S. Grimme, J. Chem. Phys., 2019, 150, 154122.
     DOI: 10.1063/1.5090222
   * E. Caldeweyher, J.-M. Mewes, S. Ehlert and S. Grimme, Phys. Chem. Chem. Phys.
     2020, 22, 8499-8512. DOI: 10.1039/D0CP00502A
   
   for sTDA-xTB:
   * S. Grimme and C. Bannwarth, J. Chem. Phys., 2016, 145, 054103.
     DOI: 10.1063/1.4959605
   
   in the mass-spec context:
   * V. Asgeirsson, C. Bauer and S. Grimme, Chem. Sci., 2017, 8, 4879.
     DOI: 10.1039/c7sc00601b
   * J. Koopman and S. Grimme, ACS Omega 2019, 4, 12, 15120-15133.
     DOI: 10.1021/acsomega.9b02011
   
   for metadynamics refer to:
   * S. Grimme, J. Chem. Theory Comput., 2019, 155, 2847-2862
     DOI: 10.1021/acs.jctc.9b00143
   
   for SPH calculations refer to:
   * S. Spicher and S. Grimme, J. Chem. Theory Comput., 2021, 17, 1701-1714
     DOI: 10.1021/acs.jctc.0c01306
   
   with help from (in alphabetical order)
   P. Atkinson, C. Bannwarth, F. Bohle, G. Brandenburg, E. Caldeweyher
   M. Checinski, S. Dohm, S. Ehlert, S. Ehrlich, I. Gerasimov, C. Hölzer
   A. Katbashev, J. Koopman, C. Lavigne, S. Lehtola, F. März, M. Müller,
   F. Musil, H. Neugebauer, J. Pisarek, C. Plett, P. Pracht, F. Pultar,
   J. Seibert, P. Shushkov, S. Spicher, M. Stahn, M. Steiner, T. Strunk,
   J. Stückrath, T. Rose, and J. Unsleber
   
 * started run on 2024/01/10 at 18:26:52.400     

           -------------------------------------------------
          |                Calculation Setup                |
           -------------------------------------------------

          program call               : xtb struc.xyz --gfn2 --hess
          hostname                   : swaroop
          coordinate file            : struc.xyz
          omp threads                :                     1

   ID    Z sym.   atoms
    1    8 O      1, 23, 31, 39, 47
    2    6 C      2, 5, 9, 13, 17, 22, 30, 38, 46
    3    1 H      3, 4, 6, 7, 10-12, 14-16, 18-21, 25, 26, 28, 29, 33, 34,
                  36, 37, 41, 42, 44, 45, 49, 50, 52, 53
    4    7 N      8, 24, 27, 32, 35, 40, 43, 48, 51

molecular fragmentation (1/2 indicates fragments):
11111111111111111111122222222222222222222222222222222
# atoms in fragment 1/2:    21    32
 fragment masses (1/2) :      104.17      240.22
CMA distance (Bohr)    :   7.491
constraining FC (au)   :  0.0500

           -------------------------------------------------
          |                 G F N 2 - x T B                 |
           -------------------------------------------------

        Reference                      10.1021/acs.jctc.8b01176
      * Hamiltonian:
        H0-scaling (s, p, d)           1.850000    2.230000    2.230000
        zeta-weighting                 0.500000
      * Dispersion:
        s8                             2.700000
        a1                             0.520000
        a2                             5.000000
        s9                             5.000000
      * Repulsion:
        kExp                           1.500000    1.000000
        rExp                           1.000000
      * Coulomb:
        alpha                          2.000000
        third order                    shell-resolved
        anisotropic                    true
        a3                             3.000000
        a5                             4.000000
        cn-shift                       1.200000
        cn-exp                         4.000000
        max-rad                        5.000000


          ...................................................
          :                      SETUP                      :
          :.................................................:
          :  # basis functions                 122          :
          :  # atomic orbitals                 122          :
          :  # shells                           76          :
          :  # electrons                       140          :
          :  max. iterations                   250          :
          :  Hamiltonian                  GFN2-xTB          :
          :  restarted?                      false          :
          :  GBSA solvation                  false          :
          :  PC potential                    false          :
          :  electronic temp.          300.0000000     K    :
          :  accuracy                    1.0000000          :
          :  -> integral cutoff          0.2500000E+02      :
          :  -> integral neglect         0.1000000E-07      :
          :  -> SCF convergence          0.1000000E-05 Eh   :
          :  -> wf. convergence          0.1000000E-03 e    :
          :  Broyden damping             0.4000000          :
          ...................................................

 iter      E             dE          RMSdq      gap      omega  full diag
   1    -81.5537166 -0.815537E+02  0.427E+00    5.08       0.0  T
   2    -81.8371677 -0.283451E+00  0.230E+00    5.91       1.0  T
   3    -81.8427475 -0.557979E-02  0.113E+00    5.62       1.0  T
   4    -81.8440642 -0.131668E-02  0.238E-01    5.68       1.0  T
   5    -81.8449312 -0.866975E-03  0.905E-02    5.59       1.0  T
   6    -81.8449554 -0.242129E-04  0.263E-02    5.61       1.0  T
   7    -81.8449597 -0.436013E-05  0.748E-03    5.61       1.8  T
   8    -81.8449600 -0.291928E-06  0.283E-03    5.61       4.8  T
   9    -81.8449600 -0.259096E-07  0.103E-03    5.61      13.3  T
  10    -81.8449601 -0.524550E-08  0.176E-04    5.61      78.2  T
  11    -81.8449601 -0.252911E-09  0.828E-05    5.61     165.9  T

   *** convergence criteria satisfied after 11 iterations ***

         #    Occupation            Energy/Eh            Energy/eV
      -------------------------------------------------------------
         1        2.0000           -0.8036773             -21.8692
       ...           ...                  ...                  ...
        64        2.0000           -0.5034522             -13.6996
        65        2.0000           -0.4993968             -13.5893
        66        2.0000           -0.4951863             -13.4747
        67        2.0000           -0.4938317             -13.4378
        68        2.0000           -0.4926552             -13.4058
        69        2.0000           -0.4893905             -13.3170
        70        2.0000           -0.4842684             -13.1776 (HOMO)
        71                         -0.2781682              -7.5693 (LUMO)
        72                         -0.2751532              -7.4873
        73                         -0.2696560              -7.3377
        74                         -0.2579914              -7.0203
        75                         -0.1589132              -4.3242
       ...                                ...                  ...
       122                          0.5550902              15.1048
      -------------------------------------------------------------
                  HL-Gap            0.2061002 Eh            5.6083 eV
             Fermi-level           -0.3812183 Eh          -10.3735 eV

 SCC (total)                   0 d,  0 h,  0 min,  0.106 sec
 SCC setup                      ...        0 min,  0.000 sec (  0.271%)
 Dispersion                     ...        0 min,  0.001 sec (  0.559%)
 classical contributions        ...        0 min,  0.000 sec (  0.182%)
 integral evaluation            ...        0 min,  0.008 sec (  7.473%)
 iterations                     ...        0 min,  0.069 sec ( 65.166%)
 molecular gradient             ...        0 min,  0.028 sec ( 26.097%)
 printout                       ...        0 min,  0.000 sec (  0.240%)

         :::::::::::::::::::::::::::::::::::::::::::::::::::::
         ::                     SUMMARY                     ::
         :::::::::::::::::::::::::::::::::::::::::::::::::::::
         :: total energy             -80.934875218359 Eh    ::
         :: gradient norm              0.000198387397 Eh/a0 ::
         :: HOMO-LUMO gap              5.608271846864 eV    ::
         ::.................................................::
         :: SCC energy               -81.844960055116 Eh    ::
         :: -> isotropic ES            0.296219944701 Eh    ::
         :: -> anisotropic ES         -0.027896341487 Eh    ::
         :: -> anisotropic XC          0.020613892213 Eh    ::
         :: -> dispersion             -0.045064831072 Eh    ::
         :: repulsion energy           0.908581913306 Eh    ::
         :: add. restraining           0.000000000000 Eh    ::
         :: total charge               1.000000000000 e     ::
         :::::::::::::::::::::::::::::::::::::::::::::::::::::

           ------------------------------------------------- 
          |                Numerical Hessian                |
           ------------------------------------------------- 
step length          :   0.00500
SCC accuracy         :   0.30000
Hessian scale factor :   1.00000
frozen atoms in %    :   0.00000    0
RMS gradient         :   0.00020
estimated CPU  time      0.24 min
estimated wall time      0.24 min

writing file <hessian>.

 projected vibrational frequencies (cm⁻¹)
eigval :       -0.00    -0.00    -0.00     0.00     0.00     0.00
eigval :       11.55    19.87    28.84    33.17    35.44    39.13
eigval :       46.68    48.04    55.51    60.96    65.49    70.63
eigval :       79.02    82.06    86.71    92.56   105.13   114.64
eigval :      124.36   139.19   153.00   161.19   171.31   181.46
eigval :      196.93   245.04   248.03   256.35   289.09   302.74
eigval :      318.89   320.56   340.30   341.22   367.76   376.89
eigval :      423.88   427.10   428.84   439.83   460.63   464.73
eigval :      467.17   471.59   475.62   480.45   484.76   487.71
eigval :      494.29   508.75   515.09   543.96   545.67   556.01
eigval :      559.75   578.58   626.77   666.46   670.42   674.33
eigval :      675.34   679.70   719.72   763.02   771.34   832.79
eigval :      908.43   922.43   961.25   969.70   977.03   987.14
eigval :      995.35  1006.23  1012.42  1013.24  1016.99  1022.54
eigval :     1026.03  1034.12  1036.13  1083.41  1086.78  1088.27
eigval :     1090.56  1100.94  1107.14  1125.37  1166.27  1221.88
eigval :     1244.08  1271.30  1317.53  1332.12  1351.76  1355.06
eigval :     1361.08  1361.98  1373.93  1388.16  1405.08  1411.57
eigval :     1425.27  1437.20  1439.78  1444.39  1448.21  1455.03
eigval :     1455.80  1462.10  1462.46  1465.48  1472.39  1484.60
eigval :     1488.78  1502.88  1504.48  1511.61  1523.17  1650.84
eigval :     1682.18  1704.76  1708.82  2885.37  2964.99  2982.23
eigval :     2997.65  3031.02  3037.84  3040.51  3041.95  3043.60
eigval :     3047.16  3048.79  3053.50  3058.55  3084.70  3180.81
eigval :     3251.29  3327.51  3341.83  3466.12  3490.06  3490.38
eigval :     3499.48  3524.90  3527.83  3534.70  3540.12  3546.09
eigval :     3554.03  3556.08  3566.14
           -------------------------------------------------
          |                Property Printout                |
           -------------------------------------------------

    * Orbital Energies and Occupations

         #    Occupation            Energy/Eh            Energy/eV
      -------------------------------------------------------------
         1        2.0000           -0.8036774             -21.8692
       ...           ...                  ...                  ...
        58        2.0000           -0.5153783             -14.0242
        59        2.0000           -0.5112219             -13.9111
        60        2.0000           -0.5102284             -13.8840
        61        2.0000           -0.5066185             -13.7858
        62        2.0000           -0.5050681             -13.7436
        63        2.0000           -0.5042055             -13.7201
        64        2.0000           -0.5034524             -13.6996
        65        2.0000           -0.4993972             -13.5893
        66        2.0000           -0.4951869             -13.4747
        67        2.0000           -0.4938324             -13.4379
        68        2.0000           -0.4926560             -13.4059
        69        2.0000           -0.4893911             -13.3170
        70        2.0000           -0.4842691             -13.1776 (HOMO)
        71                         -0.2781685              -7.5694 (LUMO)
        72                         -0.2751534              -7.4873
        73                         -0.2696562              -7.3377
        74                         -0.2579918              -7.0203
        75                         -0.1589133              -4.3243
        76                         -0.1094605              -2.9786
        77                         -0.0934964              -2.5442
        78                         -0.0852043              -2.3185
        79                         -0.0817176              -2.2236
        80                         -0.0800849              -2.1792
        81                         -0.0763135              -2.0766
       ...                                ...                  ...
       122                          0.5550900              15.1048
      -------------------------------------------------------------
                  HL-Gap            0.2061006 Eh            5.6083 eV
             Fermi-level           -0.3812188 Eh          -10.3735 eV

     #   Z          covCN         q      C6AA      α(0)
     1   8 O        1.652    -0.482    22.516     6.405
     2   6 C        3.673     0.073    19.581     6.341
     3   1 H        0.924     0.055     2.258     2.350
     4   1 H        0.923     0.040     2.452     2.449
     5   6 C        3.767    -0.078    22.023     6.688
     6   1 H        0.924     0.108     1.717     2.049
     7   1 H        0.924     0.125     1.575     1.963
     8   7 N        3.623     0.156    18.608     6.407
     9   6 C        3.720    -0.100    22.535     6.780
    10   1 H        0.925     0.092     1.858     2.132
    11   1 H        0.925     0.080     1.975     2.198
    12   1 H        0.925     0.117     1.641     2.003
    13   6 C        3.734    -0.120    22.891     6.828
    14   1 H        0.925     0.120     1.616     1.988
    15   1 H        0.925     0.125     1.573     1.961
    16   1 H        0.925     0.078     1.996     2.210
    17   6 C        3.725    -0.102    22.568     6.783
    18   1 H        0.925     0.093     1.854     2.130
    19   1 H        0.925     0.088     1.902     2.157
    20   1 H        0.925     0.116     1.644     2.005
    21   1 H        0.802     0.333     0.631     1.248
    22   6 C        2.675     0.342    21.183     7.531
    23   8 O        0.860    -0.529    24.433     6.627
    24   7 N        2.644    -0.308    27.942     7.851
    25   1 H        0.860     0.230     0.963     1.537
    26   1 H        0.860     0.176     1.237     1.743
    27   7 N        2.645    -0.290    27.481     7.786
    28   1 H        0.861     0.182     1.202     1.717
    29   1 H        0.860     0.200     1.104     1.646
    30   6 C        2.675     0.339    21.237     7.541
    31   8 O        0.860    -0.538    24.637     6.655
    32   7 N        2.645    -0.295    27.608     7.804
    33   1 H        0.860     0.216     1.029     1.589
    34   1 H        0.861     0.186     1.181     1.702
    35   7 N        2.644    -0.300    27.719     7.819
    36   1 H        0.861     0.184     1.191     1.710
    37   1 H        0.859     0.247     0.896     1.483
    38   6 C        2.675     0.341    21.212     7.536
    39   8 O        0.861    -0.523    24.304     6.610
    40   7 N        2.644    -0.304    27.818     7.833
    41   1 H        0.860     0.241     0.921     1.503
    42   1 H        0.861     0.180     1.216     1.728
    43   7 N        2.644    -0.291    27.510     7.790
    44   1 H        0.860     0.185     1.186     1.706
    45   1 H        0.860     0.204     1.085     1.631
    46   6 C        2.675     0.343    21.176     7.530
    47   8 O        0.860    -0.537    24.610     6.651
    48   7 N        2.646    -0.296    27.626     7.806
    49   1 H        0.860     0.196     1.127     1.663
    50   1 H        0.860     0.190     1.157     1.685
    51   7 N        2.645    -0.305    27.846     7.837
    52   1 H        0.860     0.226     0.984     1.554
    53   1 H        0.860     0.192     1.149     1.679

 Mol. C6AA /au·bohr⁶  :      21795.242425
 Mol. C8AA /au·bohr⁸  :     454378.726018
 Mol. α(0) /au        :        220.558487


Wiberg/Mayer (AO) data.
largest (>0.10) Wiberg bond orders for each atom

 ---------------------------------------------------------------------------
     #   Z sym  total        # sym  WBO       # sym  WBO       # sym  WBO
 ---------------------------------------------------------------------------
     1   8 O    1.947 --     2 C    1.017    21 H    0.809
     2   6 C    3.966 --     1 O    1.017     5 C    0.997     3 H    0.966
                             4 H    0.962
     3   1 H    0.997 --     2 C    0.966
     4   1 H    0.998 --     2 C    0.962
     5   6 C    3.919 --     2 C    0.997     6 H    0.954     7 H    0.939
                             8 N    0.928
     6   1 H    0.988 --     5 C    0.954
     7   1 H    0.984 --     5 C    0.939
     8   7 N    3.821 --    17 C    0.962     9 C    0.962    13 C    0.951
                             5 C    0.928
     9   6 C    3.932 --    11 H    0.978    10 H    0.977    12 H    0.964
                             8 N    0.962
    10   1 H    0.992 --     9 C    0.977
    11   1 H    0.993 --     9 C    0.978
    12   1 H    0.986 --     9 C    0.964
    13   6 C    3.913 --    16 H    0.978    14 H    0.962    15 H    0.957
                             8 N    0.951
    14   1 H    0.986 --    13 C    0.962
    15   1 H    0.984 --    13 C    0.957
    16   1 H    0.994 --    13 C    0.978
    17   6 C    3.932 --    19 H    0.977    18 H    0.974    20 H    0.971
                             8 N    0.962
    18   1 H    0.991 --    17 C    0.974
    19   1 H    0.992 --    17 C    0.977
    20   1 H    0.986 --    17 C    0.971
    21   1 H    0.889 --     1 O    0.809
    22   6 C    3.959 --    23 O    1.521    24 N    1.224    27 N    1.206
    23   8 O    1.893 --    22 C    1.521    24 N    0.144    27 N    0.139
    24   7 N    3.320 --    22 C    1.224    26 H    0.950    25 H    0.896
                            23 O    0.144
    25   1 H    0.947 --    24 N    0.896
    26   1 H    0.969 --    24 N    0.950
    27   7 N    3.322 --    22 C    1.206    28 H    0.948    29 H    0.943
                            23 O    0.139
    28   1 H    0.967 --    27 N    0.948
    29   1 H    0.960 --    27 N    0.943
    30   6 C    3.961 --    31 O    1.455    35 N    1.276    32 N    1.221
    31   8 O    1.915 --    30 C    1.455    35 N    0.139    32 N    0.127
    32   7 N    3.327 --    30 C    1.221    34 H    0.946    33 H    0.928
                            31 O    0.127
    33   1 H    0.953 --    32 N    0.928
    34   1 H    0.965 --    32 N    0.946
    35   7 N    3.360 --    30 C    1.276    36 H    0.947    37 H    0.866
                            31 O    0.139
    36   1 H    0.966 --    35 N    0.947
    37   1 H    0.939 --    35 N    0.866
    38   6 C    3.960 --    39 O    1.482    40 N    1.258    43 N    1.207
    39   8 O    1.918 --    38 C    1.482    40 N    0.145    43 N    0.127
    40   7 N    3.349 --    38 C    1.258    42 H    0.948    41 H    0.877
                            39 O    0.145
    41   1 H    0.942 --    40 N    0.877
    42   1 H    0.968 --    40 N    0.948
    43   7 N    3.318 --    38 C    1.207    44 H    0.947    45 H    0.941
                            39 O    0.127
    44   1 H    0.965 --    43 N    0.947
    45   1 H    0.958 --    43 N    0.941
    46   6 C    3.959 --    47 O    1.506    51 N    1.238    48 N    1.202
    47   8 O    1.888 --    46 C    1.506    51 N    0.142    48 N    0.133
    48   7 N    3.312 --    46 C    1.202    49 H    0.944    50 H    0.944
                            47 O    0.133
    49   1 H    0.962 --    48 N    0.944
    50   1 H    0.964 --    48 N    0.944
    51   7 N    3.327 --    46 C    1.238    53 H    0.944    52 H    0.894
                            47 O    0.142
    52   1 H    0.949 --    51 N    0.894
    53   1 H    0.963 --    51 N    0.944
 ---------------------------------------------------------------------------

Topologies differ in total number of bonds
Writing topology from bond orders to xtbtopo.mol

molecular dipole:
                 x           y           z       tot (Debye)
 q only:        0.490      -0.499      -0.917
   full:       -0.010       0.154      -0.917       2.362
molecular quadrupole (traceless):
                xx          xy          yy          xz          yz          zz
 q only:      -10.346     -12.998      12.960       4.635     -10.696      -2.613
  q+dip:      -14.168     -11.583      14.950       7.277     -14.831      -0.781
   full:      -14.572     -10.757      15.374       6.946     -15.238      -0.802

           -------------------------------------------------
          |               Frequency Printout                |
           -------------------------------------------------
 projected vibrational frequencies (cm⁻¹)
eigval :       -0.00    -0.00    -0.00     0.00     0.00     0.00
eigval :       11.55    19.87    28.84    33.17    35.44    39.13
eigval :       46.68    48.04    55.51    60.96    65.49    70.63
eigval :       79.02    82.06    86.71    92.56   105.13   114.64
eigval :      124.36   139.19   153.00   161.19   171.31   181.46
eigval :      196.93   245.04   248.03   256.35   289.09   302.74
eigval :      318.89   320.56   340.30   341.22   367.76   376.89
eigval :      423.88   427.10   428.84   439.83   460.63   464.73
eigval :      467.17   471.59   475.62   480.45   484.76   487.71
eigval :      494.29   508.75   515.09   543.96   545.67   556.01
eigval :      559.75   578.58   626.77   666.46   670.42   674.33
eigval :      675.34   679.70   719.72   763.02   771.34   832.79
eigval :      908.43   922.43   961.25   969.70   977.03   987.14
eigval :      995.35  1006.23  1012.42  1013.24  1016.99  1022.54
eigval :     1026.03  1034.12  1036.13  1083.41  1086.78  1088.27
eigval :     1090.56  1100.94  1107.14  1125.37  1166.27  1221.88
eigval :     1244.08  1271.30  1317.53  1332.12  1351.76  1355.06
eigval :     1361.08  1361.98  1373.93  1388.16  1405.08  1411.57
eigval :     1425.27  1437.20  1439.78  1444.39  1448.21  1455.03
eigval :     1455.80  1462.10  1462.46  1465.48  1472.39  1484.60
eigval :     1488.78  1502.88  1504.48  1511.61  1523.17  1650.84
eigval :     1682.18  1704.76  1708.82  2885.37  2964.99  2982.23
eigval :     2997.65  3031.02  3037.84  3040.51  3041.95  3043.60
eigval :     3047.16  3048.79  3053.50  3058.55  3084.70  3180.81
eigval :     3251.29  3327.51  3341.83  3466.12  3490.06  3490.38
eigval :     3499.48  3524.90  3527.83  3534.70  3540.12  3546.09
eigval :     3554.03  3556.08  3566.14
 reduced masses (amu)
   1: 12.36   2: 12.55   3: 12.61   4: 12.47   5: 12.34   6: 12.77   7: 12.13   8: 11.43
   9: 12.33  10: 10.23  11: 12.19  12: 12.63  13: 12.43  14: 12.57  15: 12.34  16: 12.74
  17: 12.75  18: 12.57  19: 11.80  20: 13.22  21: 12.92  22: 11.92  23: 12.73  24: 12.71
  25: 12.35  26: 13.31  27: 12.67  28: 12.68  29: 13.26  30: 12.70  31:  9.33  32:  7.06
  33:  2.96  34: 10.49  35:  3.74  36:  7.71  37:  1.96  38:  5.65  39:  4.05  40:  2.17
  41:  4.06  42:  7.35  43:  3.02  44:  8.68  45:  3.78  46:  3.41  47:  8.48  48:  8.02
  49:  2.35  50:  7.37  51:  8.65  52:  7.43  53:  3.38  54:  3.03  55:  8.28  56:  3.69
  57:  2.32  58: 10.74  59:  9.95  60: 11.48  61:  8.51  62: 11.98  63:  2.48  64:  9.65
  65:  5.41  66: 11.45  67: 12.09  68:  9.09  69:  3.19  70:  9.26  71:  2.02  72:  1.80
  73:  6.99  74:  8.31  75:  5.07  76:  4.73  77:  4.59  78:  4.95  79:  7.43  80:  9.14
  81:  7.32  82:  9.40  83:  9.30  84:  6.04  85:  9.41  86:  7.39  87:  3.17  88:  8.84
  89:  8.78  90:  8.51  91:  6.72  92:  4.37  93:  8.16  94:  8.64  95:  2.97  96:  5.32
  97:  7.05  98:  8.27  99:  6.07 100:  3.11 101:  4.82 102:  4.87 103:  5.51 104:  5.35
 105:  3.55 106:  4.22 107:  2.57 108:  2.56 109:  2.25 110:  2.10 111:  1.87 112:  3.37
 113:  3.39 114:  1.75 115:  2.11 116:  2.68 117:  2.63 118:  1.73 119:  2.10 120:  1.72
 121:  1.75 122:  7.73 123:  8.13 124:  9.32 125:  9.80 126: 12.26 127: 12.63 128: 12.71
 129: 12.75 130:  1.76 131:  1.80 132:  1.64 133:  1.75 134:  1.80 135:  1.70 136:  1.90
 137:  1.72 138:  1.65 139:  1.53 140:  1.60 141:  1.97 142:  1.70 143:  1.92 144:  1.81
 145:  1.78 146:  1.74 147:  1.73 148:  1.53 149:  1.45 150:  1.45 151:  1.45 152:  1.93
 153:  1.93 154:  1.92 155:  1.93 156:  2.10 157:  2.17 158:  2.18 159:  2.18
 IR intensities (km·mol⁻¹)
   1:  1.00   2:  1.87   3:  0.90   4:  1.49   5:  1.46   6:  2.10   7:  0.37   8:  0.41
   9:  0.30  10:  2.33  11:  2.86  12:  1.04  13:  2.83  14:  2.20  15:  1.43  16:  3.58
  17:  1.98  18:  7.35  19:  2.27  20:  0.71  21:  2.96  22: 10.96  23: 18.41  24: 12.97
  25:  3.87  26:  5.16  27: 17.67  28: 23.83  29: 37.79  30: 27.05  31: 15.81  32: 36.06
  33:159.46  34: 24.84  35:  1.36  36:  2.95  37: 15.83  38:  3.16  39:  8.13  40: 60.15
  41:293.54  42:  2.32  43:292.77  44: 10.60  45:313.74  46: 64.99  47:  0.63  48: 15.57
  49: 30.99  50:  6.44  51: 36.64  52:  8.42  53:  5.53  54: 19.27  55: 55.81  56: 98.83
  57: 19.74  58: 14.61  59: 44.51  60: 20.57  61: 12.06  62: 60.88  63:406.03  64: 29.34
  65:198.65  66: 36.06  67: 41.33  68: 44.63  69: 42.47  70:  2.41  71:249.42  72:268.21
  73: 10.38  74:  6.86  75:  0.28  76:  6.58  77:  4.04  78:  5.41  79: 22.31  80: 13.54
  81: 22.85  82:  2.56  83:  1.38  84: 23.36  85:  3.18  86: 26.80  87:  0.47  88:  1.48
  89:  4.72  90:  2.31  91: 18.91  92: 17.92  93:  3.11  94: 38.25  95:  9.43  96:  4.41
  97:  1.96  98:  3.78  99:  6.06 100: 10.26 101: 91.21 102: 84.54 103: 97.56 104:160.16
 105: 75.35 106: 16.59 107: 21.09 108: 10.38 109: 30.98 110: 10.04 111:  9.73 112: 11.32
 113:  1.00 114: 12.35 115: 12.99 116: 15.00 117:  6.91 118:  3.66 119: 18.65 120: 80.53
 121: 13.55 122:658.76 123:300.84 124:732.01 125:285.32 126:444.36 127:773.85 128:******
 129:607.91 130: 35.47 131:105.08 132: 54.55 133: 12.59 134: 41.56 135: 18.54 136:  9.42
 137:  9.52 138:  7.39 139: 24.29 140:  3.20 141:  6.43 142:  7.85 143:****** 144:278.08
 145:****** 146:876.48 147:191.49 148: 54.16 149: 41.27 150:  3.73 151: 21.63 152: 20.16
 153: 13.68 154: 11.82 155: 13.96 156: 31.69 157: 21.20 158: 11.54 159: 12.43
 Raman intensities (amu)
Molecule has no symmetry elements
It seems to be the C1 point group
   1:  0.00   2:  0.00   3:  0.00   4:  0.00   5:  0.00   6:  0.00   7:  0.00   8:  0.00
   9:  0.00  10:  0.00  11:  0.00  12:  0.00  13:  0.00  14:  0.00  15:  0.00  16:  0.00
  17:  0.00  18:  0.00  19:  0.00  20:  0.00  21:  0.00  22:  0.00  23:  0.00  24:  0.00
  25:  0.00  26:  0.00  27:  0.00  28:  0.00  29:  0.00  30:  0.00  31:  0.00  32:  0.00
  33:  0.00  34:  0.00  35:  0.00  36:  0.00  37:  0.00  38:  0.00  39:  0.00  40:  0.00
  41:  0.00  42:  0.00  43:  0.00  44:  0.00  45:  0.00  46:  0.00  47:  0.00  48:  0.00
  49:  0.00  50:  0.00  51:  0.00  52:  0.00  53:  0.00  54:  0.00  55:  0.00  56:  0.00
  57:  0.00  58:  0.00  59:  0.00  60:  0.00  61:  0.00  62:  0.00  63:  0.00  64:  0.00
  65:  0.00  66:  0.00  67:  0.00  68:  0.00  69:  0.00  70:  0.00  71:  0.00  72:  0.00
  73:  0.00  74:  0.00  75:  0.00  76:  0.00  77:  0.00  78:  0.00  79:  0.00  80:  0.00
  81:  0.00  82:  0.00  83:  0.00  84:  0.00  85:  0.00  86:  0.00  87:  0.00  88:  0.00
  89:  0.00  90:  0.00  91:  0.00  92:  0.00  93:  0.00  94:  0.00  95:  0.00  96:  0.00
  97:  0.00  98:  0.00  99:  0.00 100:  0.00 101:  0.00 102:  0.00 103:  0.00 104:  0.00
 105:  0.00 106:  0.00 107:  0.00 108:  0.00 109:  0.00 110:  0.00 111:  0.00 112:  0.00
 113:  0.00 114:  0.00 115:  0.00 116:  0.00 117:  0.00 118:  0.00 119:  0.00 120:  0.00
 121:  0.00 122:  0.00 123:  0.00 124:  0.00 125:  0.00 126:  0.00 127:  0.00 128:  0.00
 129:  0.00 130:  0.00 131:  0.00 132:  0.00 133:  0.00 134:  0.00 135:  0.00 136:  0.00
 137:  0.00 138:  0.00 139:  0.00 140:  0.00 141:  0.00 142:  0.00 143:  0.00 144:  0.00
 145:  0.00 146:  0.00 147:  0.00 148:  0.00 149:  0.00 150:  0.00 151:  0.00 152:  0.00
 153:  0.00 154:  0.00 155:  0.00 156:  0.00 157:  0.00 158:  0.00 159:  0.00
 output can be read by thermo (or use thermo option).
 writing <g98.out> molden fake output.
 recommended (thermochemical) frequency scaling factor: 1.0
           -------------------------------------------------
          |             Thermodynamic Functions             |
           -------------------------------------------------

c1  symmetry found (for desy threshold:  0.10E+00) used in thermo

          ...................................................
          :                      SETUP                      :
          :.................................................:
          :  # frequencies                         153      :
          :  # imaginary freq.                       0      :
          :  linear?                             false      :
          :  only rotor calc.                    false      :
          :  symmetry                               c1      :
          :  rotational number                       1      :
          :  scaling factor                  1.0000000      :
          :  rotor cutoff                   50.0000000 cm⁻¹ :
          :  imag. cutoff                  -20.0000000 cm⁻¹ :
          :.................................................:

    mode    ω/cm⁻¹     T·S(HO)/kcal·mol⁻¹    T·S(FR)/kcal·mol⁻¹   T·S(vib)
   ------------------------------------------------------------------------
       1     11.55    -2.30318 (  0.28%)    -1.49053 ( 99.72%)    -1.49284
       2     19.87    -1.98185 (  2.43%)    -1.32985 ( 97.57%)    -1.34571
       3     28.84    -1.76144 (  9.96%)    -1.21954 ( 90.04%)    -1.27352
       4     33.17    -1.67870 ( 16.22%)    -1.17810 ( 83.78%)    -1.25930
       5     35.44    -1.63958 ( 20.15%)    -1.15850 ( 79.85%)    -1.25542
       6     39.13    -1.58095 ( 27.28%)    -1.12911 ( 72.72%)    -1.25239
       7     46.68    -1.47685 ( 43.17%)    -1.07689 ( 56.83%)    -1.24954
       8     48.04    -1.45983 ( 46.02%)    -1.06834 ( 53.98%)    -1.24850
       9     55.51    -1.37474 ( 60.30%)    -1.02557 ( 39.70%)    -1.23611
      10     60.96    -1.31957 ( 68.84%)    -0.99781 ( 31.16%)    -1.21932
      11     65.49    -1.27746 ( 74.64%)    -0.97660 ( 25.36%)    -1.20115
      12     70.63    -1.23307 ( 79.93%)    -0.95420 ( 20.07%)    -1.17709
      13     79.02    -1.16724 ( 86.19%)    -0.92093 ( 13.81%)    -1.13322
      14     82.06    -1.14517 ( 87.89%)    -0.90975 ( 12.11%)    -1.11665
      15     86.71    -1.11301 ( 90.04%)    -0.89345 (  9.96%)    -1.09115
      16     92.56    -1.07488 ( 92.15%)    -0.87409 (  7.85%)    -1.05912
      17    105.13    -1.00083 ( 95.13%)    -0.83636 (  4.87%)    -0.99283
      18    114.64    -0.95074 ( 96.51%)    -0.81072 (  3.49%)    -0.94585
      19    124.36    -0.90384 ( 97.45%)    -0.78662 (  2.55%)    -0.90085
      20    139.19    -0.83929 ( 98.36%)    -0.75324 (  1.64%)    -0.83788
      21    153.00    -0.78549 ( 98.87%)    -0.72522 (  1.13%)    -0.78482
      22    161.19    -0.75604 ( 99.08%)    -0.70977 (  0.92%)    -0.75561
      23    171.31    -0.72184 ( 99.28%)    -0.69173 (  0.72%)    -0.72162
      24    181.46    -0.68973 ( 99.43%)    -0.67469 (  0.57%)    -0.68964
      25    196.93    -0.64448 ( 99.59%)    -0.65045 (  0.41%)    -0.64450
      26    245.04    -0.52652 ( 99.83%)    -0.58569 (  0.17%)    -0.52662
      27    248.03    -0.52014 ( 99.84%)    -0.58211 (  0.16%)    -0.52024
      28    256.35    -0.50282 ( 99.86%)    -0.57233 (  0.14%)    -0.50292
      29    289.09    -0.44104 ( 99.91%)    -0.53672 (  0.09%)    -0.44113
   ------------------------------------------------------------------------

   temp. (K)  partition function   enthalpy   heat capacity  entropy
                                   cal/mol     cal/K/mol   cal/K/mol   J/K/mol
 298.15  VIB  0.173E+17            19059.195    103.778    124.827
         ROT  0.126E+08              888.752      2.981     35.477
         INT  0.218E+24            19947.947    106.759    160.304
         TR   0.618E+28             1481.254      4.968     43.384
         TOT                       21429.2011   111.7267   203.6887   852.2337

       T/K    H(0)-H(T)+PV         H(T)/Eh          T*S/Eh         G(T)/Eh
   ------------------------------------------------------------------------
    298.15    0.341496E-01    0.474025E+00    0.967791E-01    0.377245E+00
   ------------------------------------------------------------------------

         :::::::::::::::::::::::::::::::::::::::::::::::::::::
         ::                  THERMODYNAMIC                  ::
         :::::::::::::::::::::::::::::::::::::::::::::::::::::
         :: total free energy         -80.557629797932 Eh   ::
         ::.................................................::
         :: total energy              -80.934875218392 Eh   ::
         :: zero point energy           0.439874909556 Eh   ::
         :: G(RRHO) w/o ZPVE           -0.062629489096 Eh   ::
         :: G(RRHO) contrib.            0.377245420460 Eh   ::
         :::::::::::::::::::::::::::::::::::::::::::::::::::::

           -------------------------------------------------
          | TOTAL ENERGY              -80.934875218392 Eh   |
          | TOTAL ENTHALPY            -80.460850703127 Eh   |
          | TOTAL FREE ENERGY         -80.557629797932 Eh   |
          | GRADIENT NORM               0.000198234874 Eh/α |
          | HOMO-LUMO GAP               5.608283260515 eV   |
           -------------------------------------------------

------------------------------------------------------------------------
 * finished run on 2024/01/10 at 18:27:06.970     
------------------------------------------------------------------------
 total:
 * wall-time:     0 d,  0 h,  0 min, 14.570 sec
 *  cpu-time:     0 d,  0 h,  0 min, 14.485 sec
 * ratio c/w:     0.994 speedup
 SCF:
 * wall-time:     0 d,  0 h,  0 min,  0.106 sec
 *  cpu-time:     0 d,  0 h,  0 min,  0.059 sec
 * ratio c/w:     0.555 speedup
 analytical hessian:
 * wall-time:     0 d,  0 h,  0 min, 14.437 sec
 *  cpu-time:     0 d,  0 h,  0 min, 14.399 sec
 * ratio c/w:     0.997 speedup

