      -----------------------------------------------------------      
     |                   =====================                   |     
     |                           x T B                           |     
     |                   =====================                   |     
     |                         S. Grimme                         |     
     |          Mulliken Center for Theoretical Chemistry        |     
     |                    University of Bonn                     |     
      -----------------------------------------------------------      

   * xtb version 6.6.1 (unknown-commit) compiled by '@Linux' on 12/27/2023

   xtb is free software: you can redistribute it and/or modify it under
   the terms of the GNU Lesser General Public License as published by
   the Free Software Foundation, either version 3 of the License, or
   (at your option) any later version.
   
   xtb is distributed in the hope that it will be useful,
   but WITHOUT ANY WARRANTY; without even the implied warranty of
   MERCHANTABILITY or FITNESS FOR A PARTICULAR PURPOSE.  See the
   GNU Lesser General Public License for more details.
   
   Cite this work as:
   * C. Bannwarth, E. Caldeweyher, S. Ehlert, A. Hansen, P. Pracht,
     J. Seibert, S. Spicher, S. Grimme, WIREs Comput. Mol. Sci., 2020, 11,
     e01493. DOI: 10.1002/wcms.1493
   
   for GFN2-xTB:
   * C. Bannwarth, S. Ehlert and S. Grimme., J. Chem. Theory Comput., 2019,
     15, 1652-1671. DOI: 10.1021/acs.jctc.8b01176
   for GFN1-xTB:
   * S. Grimme, C. Bannwarth, P. Shushkov, J. Chem. Theory Comput., 2017,
     13, 1989-2009. DOI: 10.1021/acs.jctc.7b00118
   for GFN0-xTB:
   * P. Pracht, E. Caldeweyher, S. Ehlert, S. Grimme, ChemRxiv, 2019, preprint.
     DOI: 10.26434/chemrxiv.8326202.v1
   for GFN-FF:
   * S. Spicher and S. Grimme, Angew. Chem. Int. Ed., 2020, 59, 15665-15673.
     DOI: 10.1002/anie.202004239
   
   for ALPB and GBSA implicit solvation:
   * S. Ehlert, M. Stahn, S. Spicher, S. Grimme, J. Chem. Theory Comput.,
     2021, 17, 4250-4261. DOI: 10.1021/acs.jctc.1c00471
   
   for DFT-D4:
   * E. Caldeweyher, C. Bannwarth and S. Grimme, J. Chem. Phys., 2017,
     147, 034112. DOI: 10.1063/1.4993215
   * E. Caldeweyher, S. Ehlert, A. Hansen, H. Neugebauer, S. Spicher,
     C. Bannwarth and S. Grimme, J. Chem. Phys., 2019, 150, 154122.
     DOI: 10.1063/1.5090222
   * E. Caldeweyher, J.-M. Mewes, S. Ehlert and S. Grimme, Phys. Chem. Chem. Phys.
     2020, 22, 8499-8512. DOI: 10.1039/D0CP00502A
   
   for sTDA-xTB:
   * S. Grimme and C. Bannwarth, J. Chem. Phys., 2016, 145, 054103.
     DOI: 10.1063/1.4959605
   
   in the mass-spec context:
   * V. Asgeirsson, C. Bauer and S. Grimme, Chem. Sci., 2017, 8, 4879.
     DOI: 10.1039/c7sc00601b
   * J. Koopman and S. Grimme, ACS Omega 2019, 4, 12, 15120-15133.
     DOI: 10.1021/acsomega.9b02011
   
   for metadynamics refer to:
   * S. Grimme, J. Chem. Theory Comput., 2019, 155, 2847-2862
     DOI: 10.1021/acs.jctc.9b00143
   
   for SPH calculations refer to:
   * S. Spicher and S. Grimme, J. Chem. Theory Comput., 2021, 17, 1701-1714
     DOI: 10.1021/acs.jctc.0c01306
   
   with help from (in alphabetical order)
   P. Atkinson, C. Bannwarth, F. Bohle, G. Brandenburg, E. Caldeweyher
   M. Checinski, S. Dohm, S. Ehlert, S. Ehrlich, I. Gerasimov, C. Hölzer
   A. Katbashev, J. Koopman, C. Lavigne, S. Lehtola, F. März, M. Müller,
   F. Musil, H. Neugebauer, J. Pisarek, C. Plett, P. Pracht, F. Pultar,
   J. Seibert, P. Shushkov, S. Spicher, M. Stahn, M. Steiner, T. Strunk,
   J. Stückrath, T. Rose, and J. Unsleber
   
 * started run on 2024/01/10 at 18:27:53.997     

           -------------------------------------------------
          |                Calculation Setup                |
           -------------------------------------------------

          program call               : xtb struc.xyz --gfn2 --hess
          hostname                   : swaroop
          coordinate file            : struc.xyz
          omp threads                :                     1

   ID    Z sym.   atoms
    1    8 O      1, 23, 31, 39, 47
    2    6 C      2, 5, 9, 13, 17, 22, 30, 38, 46
    3    1 H      3, 4, 6, 7, 10-12, 14-16, 18-21, 25, 26, 28, 29, 33, 34,
                  36, 37, 41, 42, 44, 45, 49, 50, 52, 53
    4    7 N      8, 24, 27, 32, 35, 40, 43, 48, 51

molecular fragmentation (1/2 indicates fragments):
11111111111111111111122222222222222222222222222222222
# atoms in fragment 1/2:    21    32
 fragment masses (1/2) :      104.17      240.22
CMA distance (Bohr)    :   4.445
constraining FC (au)   :  0.0500

           -------------------------------------------------
          |                 G F N 2 - x T B                 |
           -------------------------------------------------

        Reference                      10.1021/acs.jctc.8b01176
      * Hamiltonian:
        H0-scaling (s, p, d)           1.850000    2.230000    2.230000
        zeta-weighting                 0.500000
      * Dispersion:
        s8                             2.700000
        a1                             0.520000
        a2                             5.000000
        s9                             5.000000
      * Repulsion:
        kExp                           1.500000    1.000000
        rExp                           1.000000
      * Coulomb:
        alpha                          2.000000
        third order                    shell-resolved
        anisotropic                    true
        a3                             3.000000
        a5                             4.000000
        cn-shift                       1.200000
        cn-exp                         4.000000
        max-rad                        5.000000


          ...................................................
          :                      SETUP                      :
          :.................................................:
          :  # basis functions                 122          :
          :  # atomic orbitals                 122          :
          :  # shells                           76          :
          :  # electrons                       140          :
          :  max. iterations                   250          :
          :  Hamiltonian                  GFN2-xTB          :
          :  restarted?                      false          :
          :  GBSA solvation                  false          :
          :  PC potential                    false          :
          :  electronic temp.          300.0000000     K    :
          :  accuracy                    1.0000000          :
          :  -> integral cutoff          0.2500000E+02      :
          :  -> integral neglect         0.1000000E-07      :
          :  -> SCF convergence          0.1000000E-05 Eh   :
          :  -> wf. convergence          0.1000000E-03 e    :
          :  Broyden damping             0.4000000          :
          ...................................................

 iter      E             dE          RMSdq      gap      omega  full diag
   1    -81.5504649 -0.815505E+02  0.440E+00    5.14       0.0  T
   2    -81.8403799 -0.289915E+00  0.238E+00    6.10       1.0  T
   3    -81.8460370 -0.565709E-02  0.116E+00    5.80       1.0  T
   4    -81.8473902 -0.135323E-02  0.240E-01    5.86       1.0  T
   5    -81.8482863 -0.896078E-03  0.923E-02    5.78       1.0  T
   6    -81.8483108 -0.245000E-04  0.268E-02    5.80       1.0  T
   7    -81.8483152 -0.442995E-05  0.750E-03    5.80       1.8  T
   8    -81.8483155 -0.268200E-06  0.267E-03    5.80       5.1  T
   9    -81.8483155 -0.133204E-07  0.880E-04    5.80      15.6  T
  10    -81.8483155 -0.575643E-08  0.174E-04    5.80      79.1  T

   *** convergence criteria satisfied after 10 iterations ***

         #    Occupation            Energy/Eh            Energy/eV
      -------------------------------------------------------------
         1        2.0000           -0.7915776             -21.5399
       ...           ...                  ...                  ...
        64        2.0000           -0.4981688             -13.5559
        65        2.0000           -0.4959251             -13.4948
        66        2.0000           -0.4946305             -13.4596
        67        2.0000           -0.4931168             -13.4184
        68        2.0000           -0.4890695             -13.3083
        69        2.0000           -0.4887525             -13.2996
        70        2.0000           -0.4835001             -13.1567 (HOMO)
        71                         -0.2704330              -7.3589 (LUMO)
        72                         -0.2701263              -7.3505
        73                         -0.2661688              -7.2428
        74                         -0.2583950              -7.0313
        75                         -0.1438151              -3.9134
       ...                                ...                  ...
       122                          0.5577737              15.1778
      -------------------------------------------------------------
                  HL-Gap            0.2130671 Eh            5.7979 eV
             Fermi-level           -0.3769666 Eh          -10.2578 eV

 SCC (total)                   0 d,  0 h,  0 min,  0.095 sec
 SCC setup                      ...        0 min,  0.000 sec (  0.300%)
 Dispersion                     ...        0 min,  0.001 sec (  0.621%)
 classical contributions        ...        0 min,  0.000 sec (  0.190%)
 integral evaluation            ...        0 min,  0.008 sec (  8.026%)
 iterations                     ...        0 min,  0.060 sec ( 62.402%)
 molecular gradient             ...        0 min,  0.027 sec ( 28.187%)
 printout                       ...        0 min,  0.000 sec (  0.261%)

         :::::::::::::::::::::::::::::::::::::::::::::::::::::
         ::                     SUMMARY                     ::
         :::::::::::::::::::::::::::::::::::::::::::::::::::::
         :: total energy             -80.934250444432 Eh    ::
         :: gradient norm              0.000185378139 Eh/a0 ::
         :: HOMO-LUMO gap              5.797852007268 eV    ::
         ::.................................................::
         :: SCC energy               -81.848315487192 Eh    ::
         :: -> isotropic ES            0.292877338067 Eh    ::
         :: -> anisotropic ES         -0.027836802716 Eh    ::
         :: -> anisotropic XC          0.020346989908 Eh    ::
         :: -> dispersion             -0.043316576082 Eh    ::
         :: repulsion energy           0.913136243387 Eh    ::
         :: add. restraining           0.000000000000 Eh    ::
         :: total charge               1.000000000000 e     ::
         :::::::::::::::::::::::::::::::::::::::::::::::::::::

           ------------------------------------------------- 
          |                Numerical Hessian                |
           ------------------------------------------------- 
step length          :   0.00500
SCC accuracy         :   0.30000
Hessian scale factor :   1.00000
frozen atoms in %    :   0.00000    0
RMS gradient         :   0.00019
estimated CPU  time      0.23 min
estimated wall time      0.23 min

writing file <hessian>.

 projected vibrational frequencies (cm⁻¹)
eigval :       -0.00    -0.00     0.00     0.00     0.00     0.00
eigval :       10.87    15.17    22.13    23.08    28.32    35.77
eigval :       39.72    43.86    50.39    52.11    54.14    65.10
eigval :       75.62    76.83    87.38    90.99   100.76   105.26
eigval :      115.84   119.40   134.96   146.59   177.21   183.81
eigval :      197.22   201.91   219.14   232.25   243.03   265.20
eigval :      300.30   308.37   316.96   335.84   341.41   355.73
eigval :      377.72   387.53   418.78   425.32   436.96   458.89
eigval :      459.65   461.84   464.17   468.21   473.33   478.34
eigval :      481.56   484.41   489.64   526.17   542.24   552.51
eigval :      553.01   559.78   571.40   667.37   671.27   674.92
eigval :      676.81   724.82   742.24   766.77   787.77   802.96
eigval :      910.74   929.85   951.97   963.00   965.79   970.12
eigval :     1003.48  1005.24  1008.35  1015.32  1015.96  1022.85
eigval :     1030.94  1036.91  1040.11  1080.61  1083.62  1088.53
eigval :     1092.41  1097.99  1109.98  1130.61  1169.52  1228.43
eigval :     1250.46  1278.97  1317.66  1327.95  1351.56  1353.82
eigval :     1357.89  1360.98  1379.29  1399.59  1400.68  1411.53
eigval :     1422.01  1438.52  1439.37  1442.86  1447.74  1448.87
eigval :     1455.24  1456.51  1460.63  1467.85  1472.11  1482.54
eigval :     1492.40  1498.53  1507.00  1510.21  1513.43  1665.40
eigval :     1692.77  1699.86  1718.53  2869.31  2977.21  2992.29
eigval :     3000.23  3034.60  3036.65  3045.32  3046.76  3053.10
eigval :     3057.27  3058.03  3062.24  3071.02  3109.04  3169.89
eigval :     3226.37  3266.33  3483.22  3495.73  3500.43  3501.06
eigval :     3502.93  3522.47  3533.21  3539.45  3553.86  3561.03
eigval :     3566.95  3567.43  3568.91
           -------------------------------------------------
          |                Property Printout                |
           -------------------------------------------------

    * Orbital Energies and Occupations

         #    Occupation            Energy/Eh            Energy/eV
      -------------------------------------------------------------
         1        2.0000           -0.7915776             -21.5399
       ...           ...                  ...                  ...
        58        2.0000           -0.5084511             -13.8357
        59        2.0000           -0.5071500             -13.8003
        60        2.0000           -0.5038794             -13.7113
        61        2.0000           -0.5035591             -13.7025
        62        2.0000           -0.5010015             -13.6329
        63        2.0000           -0.4986137             -13.5680
        64        2.0000           -0.4981694             -13.5559
        65        2.0000           -0.4959260             -13.4948
        66        2.0000           -0.4946327             -13.4596
        67        2.0000           -0.4931176             -13.4184
        68        2.0000           -0.4890706             -13.3083
        69        2.0000           -0.4887532             -13.2997
        70        2.0000           -0.4835022             -13.1568 (HOMO)
        71                         -0.2704325              -7.3588 (LUMO)
        72                         -0.2701262              -7.3505
        73                         -0.2661693              -7.2428
        74                         -0.2583998              -7.0314
        75                         -0.1438143              -3.9134
        76                         -0.1036137              -2.8195
        77                         -0.1013701              -2.7584
        78                         -0.0809472              -2.2027
        79                         -0.0756734              -2.0592
        80                         -0.0707368              -1.9248
        81                         -0.0662988              -1.8041
       ...                                ...                  ...
       122                          0.5577703              15.1777
      -------------------------------------------------------------
                  HL-Gap            0.2130697 Eh            5.7979 eV
             Fermi-level           -0.3769674 Eh          -10.2578 eV

     #   Z          covCN         q      C6AA      α(0)
     1   8 O        1.653    -0.482    22.513     6.405
     2   6 C        3.673     0.076    19.532     6.334
     3   1 H        0.924     0.054     2.271     2.356
     4   1 H        0.923     0.042     2.424     2.435
     5   6 C        3.766    -0.067    21.820     6.658
     6   1 H        0.924     0.098     1.803     2.100
     7   1 H        0.924     0.110     1.699     2.038
     8   7 N        3.624     0.159    18.555     6.398
     9   6 C        3.722    -0.110    22.728     6.808
    10   1 H        0.925     0.102     1.769     2.080
    11   1 H        0.925     0.105     1.743     2.065
    12   1 H        0.925     0.106     1.730     2.057
    13   6 C        3.740    -0.119    22.857     6.821
    14   1 H        0.925     0.078     1.997     2.210
    15   1 H        0.925     0.120     1.617     1.989
    16   1 H        0.925     0.115     1.651     2.009
    17   6 C        3.728    -0.115    22.800     6.817
    18   1 H        0.925     0.087     1.908     2.160
    19   1 H        0.925     0.103     1.760     2.075
    20   1 H        0.925     0.119     1.617     1.989
    21   1 H        0.802     0.332     0.632     1.249
    22   6 C        2.675     0.344    21.158     7.527
    23   8 O        0.860    -0.520    24.233     6.600
    24   7 N        2.645    -0.290    27.472     7.784
    25   1 H        0.860     0.216     1.027     1.587
    26   1 H        0.861     0.188     1.168     1.693
    27   7 N        2.646    -0.282    27.287     7.758
    28   1 H        0.861     0.189     1.165     1.690
    29   1 H        0.860     0.204     1.086     1.632
    30   6 C        2.675     0.340    21.216     7.537
    31   8 O        0.861    -0.534    24.550     6.643
    32   7 N        2.644    -0.288    27.441     7.780
    33   1 H        0.860     0.202     1.097     1.641
    34   1 H        0.861     0.184     1.190     1.709
    35   7 N        2.644    -0.307    27.898     7.845
    36   1 H        0.861     0.179     1.221     1.731
    37   1 H        0.860     0.242     0.916     1.499
    38   6 C        2.675     0.342    21.193     7.533
    39   8 O        0.860    -0.519    24.207     6.597
    40   7 N        2.644    -0.311    28.003     7.859
    41   1 H        0.859     0.243     0.912     1.496
    42   1 H        0.861     0.179     1.220     1.730
    43   7 N        2.645    -0.289    27.451     7.781
    44   1 H        0.861     0.185     1.183     1.704
    45   1 H        0.860     0.203     1.093     1.638
    46   6 C        2.675     0.344    21.165     7.528
    47   8 O        0.860    -0.530    24.449     6.629
    48   7 N        2.645    -0.296    27.622     7.806
    49   1 H        0.860     0.196     1.126     1.662
    50   1 H        0.861     0.181     1.209     1.723
    51   7 N        2.644    -0.317    28.164     7.882
    52   1 H        0.860     0.174     1.246     1.749
    53   1 H        0.860     0.234     0.948     1.525

 Mol. C6AA /au·bohr⁶  :      21792.382217
 Mol. C8AA /au·bohr⁸  :     454228.516271
 Mol. α(0) /au        :        220.551721


Wiberg/Mayer (AO) data.
largest (>0.10) Wiberg bond orders for each atom

 ---------------------------------------------------------------------------
     #   Z sym  total        # sym  WBO       # sym  WBO       # sym  WBO
 ---------------------------------------------------------------------------
     1   8 O    1.936 --     2 C    1.020    21 H    0.807
     2   6 C    3.967 --     1 O    1.020     5 C    0.997     3 H    0.966
                             4 H    0.960
     3   1 H    0.997 --     2 C    0.966
     4   1 H    0.998 --     2 C    0.960
     5   6 C    3.934 --     2 C    0.997     6 H    0.961     7 H    0.957
                             8 N    0.936
     6   1 H    0.990 --     5 C    0.961
     7   1 H    0.988 --     5 C    0.957
     8   7 N    3.823 --    17 C    0.959     9 C    0.957    13 C    0.954
                             5 C    0.936
     9   6 C    3.923 --    10 H    0.972    12 H    0.970    11 H    0.970
                             8 N    0.957
    10   1 H    0.990 --     9 C    0.972
    11   1 H    0.989 --     9 C    0.970
    12   1 H    0.989 --     9 C    0.970
    13   6 C    3.918 --    14 H    0.979    16 H    0.960    15 H    0.959
                             8 N    0.954
    14   1 H    0.994 --    13 C    0.979
    15   1 H    0.986 --    13 C    0.959
    16   1 H    0.986 --    13 C    0.960
    17   6 C    3.924 --    18 H    0.974    19 H    0.968    20 H    0.963
                             8 N    0.959
    18   1 H    0.992 --    17 C    0.974
    19   1 H    0.989 --    17 C    0.968
    20   1 H    0.986 --    17 C    0.963
    21   1 H    0.890 --     1 O    0.807
    22   6 C    3.960 --    23 O    1.509    24 N    1.225    27 N    1.220
    23   8 O    1.918 --    22 C    1.509    24 N    0.142    27 N    0.137
    24   7 N    3.335 --    22 C    1.225    26 H    0.946    25 H    0.931
                            23 O    0.142
    25   1 H    0.953 --    24 N    0.931
    26   1 H    0.965 --    24 N    0.946
    27   7 N    3.334 --    22 C    1.220    28 H    0.946    29 H    0.942
                            23 O    0.137
    28   1 H    0.964 --    27 N    0.946
    29   1 H    0.958 --    27 N    0.942
    30   6 C    3.960 --    31 O    1.483    35 N    1.255    32 N    1.212
    31   8 O    1.895 --    30 C    1.483    35 N    0.145    32 N    0.130
    32   7 N    3.326 --    30 C    1.212    34 H    0.947    33 H    0.942
                            31 O    0.130
    33   1 H    0.959 --    32 N    0.942
    34   1 H    0.966 --    32 N    0.947
    35   7 N    3.345 --    30 C    1.255    36 H    0.948    37 H    0.875
                            31 O    0.145
    36   1 H    0.968 --    35 N    0.948
    37   1 H    0.942 --    35 N    0.875
    38   6 C    3.960 --    39 O    1.486    40 N    1.248    43 N    1.215
    39   8 O    1.929 --    38 C    1.486    40 N    0.139    43 N    0.133
    40   7 N    3.336 --    38 C    1.248    42 H    0.948    41 H    0.866
                            39 O    0.139
    41   1 H    0.941 --    40 N    0.866
    42   1 H    0.968 --    40 N    0.948
    43   7 N    3.329 --    38 C    1.215    44 H    0.947    45 H    0.940
                            39 O    0.133
    44   1 H    0.965 --    43 N    0.947
    45   1 H    0.959 --    43 N    0.940
    46   6 C    3.959 --    47 O    1.531    51 N    1.225    48 N    1.195
    47   8 O    1.891 --    46 C    1.531    51 N    0.145    48 N    0.138
    48   7 N    3.309 --    46 C    1.195    50 H    0.948    49 H    0.944
                            47 O    0.138
    49   1 H    0.961 --    48 N    0.944
    50   1 H    0.967 --    48 N    0.948
    51   7 N    3.314 --    46 C    1.225    52 H    0.950    53 H    0.882
                            47 O    0.145
    52   1 H    0.969 --    51 N    0.950
    53   1 H    0.945 --    51 N    0.882
 ---------------------------------------------------------------------------

Topologies differ in total number of bonds
Writing topology from bond orders to xtbtopo.mol

molecular dipole:
                 x           y           z       tot (Debye)
 q only:        0.478       0.074       0.549
   full:        0.286       0.353       0.844       2.436
molecular quadrupole (traceless):
                xx          xy          yy          xz          yz          zz
 q only:       20.766     -28.346       8.886      21.718     -18.203     -29.653
  q+dip:       24.751     -30.984      10.760      26.466     -23.006     -35.510
   full:       24.767     -31.129      10.740      26.462     -22.990     -35.507

           -------------------------------------------------
          |               Frequency Printout                |
           -------------------------------------------------
 projected vibrational frequencies (cm⁻¹)
eigval :       -0.00    -0.00     0.00     0.00     0.00     0.00
eigval :       10.87    15.17    22.13    23.08    28.32    35.77
eigval :       39.72    43.86    50.39    52.11    54.14    65.10
eigval :       75.62    76.83    87.38    90.99   100.76   105.26
eigval :      115.84   119.40   134.96   146.59   177.21   183.81
eigval :      197.22   201.91   219.14   232.25   243.03   265.20
eigval :      300.30   308.37   316.96   335.84   341.41   355.73
eigval :      377.72   387.53   418.78   425.32   436.96   458.89
eigval :      459.65   461.84   464.17   468.21   473.33   478.34
eigval :      481.56   484.41   489.64   526.17   542.24   552.51
eigval :      553.01   559.78   571.40   667.37   671.27   674.92
eigval :      676.81   724.82   742.24   766.77   787.77   802.96
eigval :      910.74   929.85   951.97   963.00   965.79   970.12
eigval :     1003.48  1005.24  1008.35  1015.32  1015.96  1022.85
eigval :     1030.94  1036.91  1040.11  1080.61  1083.62  1088.53
eigval :     1092.41  1097.99  1109.98  1130.61  1169.52  1228.43
eigval :     1250.46  1278.97  1317.66  1327.95  1351.56  1353.82
eigval :     1357.89  1360.98  1379.29  1399.59  1400.68  1411.53
eigval :     1422.01  1438.52  1439.37  1442.86  1447.74  1448.87
eigval :     1455.24  1456.51  1460.63  1467.85  1472.11  1482.54
eigval :     1492.40  1498.53  1507.00  1510.21  1513.43  1665.40
eigval :     1692.77  1699.86  1718.53  2869.31  2977.21  2992.29
eigval :     3000.23  3034.60  3036.65  3045.32  3046.76  3053.10
eigval :     3057.27  3058.03  3062.24  3071.02  3109.04  3169.89
eigval :     3226.37  3266.33  3483.22  3495.73  3500.43  3501.06
eigval :     3502.93  3522.47  3533.21  3539.45  3553.86  3561.03
eigval :     3566.95  3567.43  3568.91
 reduced masses (amu)
   1: 12.60   2: 12.58   3: 12.69   4: 12.69   5: 12.66   6: 12.63   7: 12.12   8: 12.19
   9: 12.05  10: 11.97  11: 12.06  12: 12.24  13: 11.94  14: 12.31  15: 12.99  16: 12.19
  17: 11.96  18: 12.89  19: 12.61  20: 12.34  21: 13.32  22: 13.52  23: 11.76  24: 12.06
  25: 12.57  26: 12.78  27: 12.36  28: 12.44  29: 13.31  30:  4.01  31:  9.70  32: 12.85
  33: 11.64  34:  3.11  35:  2.14  36:  5.13  37:  6.73  38:  2.97  39:  6.70  40:  2.54
  41:  3.65  42:  3.58  43:  7.36  44:  3.45  45:  2.90  46:  2.93  47:  8.89  48:  2.54
  49:  8.09  50:  8.55  51:  7.61  52:  6.86  53:  1.99  54:  4.87  55:  3.15  56:  6.56
  57:  7.87  58:  2.12  59: 11.26  60: 11.58  61: 10.96  62: 11.86  63:  8.62  64: 10.42
  65: 11.65  66: 11.54  67: 11.94  68:  2.99  69:  1.89  70:  9.24  71:  2.04  72:  2.03
  73:  6.82  74:  8.39  75:  5.19  76:  4.95  77:  4.99  78:  4.97  79:  7.62  80:  8.62
  81:  9.31  82:  8.58  83:  8.65  84:  9.30  85:  6.71  86:  4.40  87:  4.41  88:  9.68
  89:  8.89  90:  8.51  91:  8.21  92:  6.81  93:  4.07  94:  8.63  95:  2.90  96:  5.29
  97:  7.34  98:  8.21  99:  5.40 100:  3.87 101:  5.09 102:  4.92 103:  5.36 104:  4.81
 105:  4.66 106:  2.61 107:  3.18 108:  2.60 109:  2.17 110:  2.42 111:  1.79 112:  3.15
 113:  2.88 114:  1.94 115:  3.12 116:  2.21 117:  2.41 118:  1.65 119:  1.82 120:  1.63
 121:  1.78 122:  7.80 123:  9.09 124:  9.40 125:  9.41 126: 12.36 127: 12.71 128: 12.72
 129: 12.76 130:  1.76 131:  1.66 132:  1.61 133:  1.91 134:  1.66 135:  1.71 136:  1.55
 137:  1.86 138:  1.90 139:  1.63 140:  1.88 141:  1.65 142:  1.75 143:  1.92 144:  1.81
 145:  1.78 146:  1.77 147:  1.48 148:  1.45 149:  1.45 150:  1.45 151:  1.45 152:  1.91
 153:  1.90 154:  1.91 155:  2.16 156:  2.18 157:  2.18 158:  2.19 159:  2.18
 IR intensities (km·mol⁻¹)
   1:  1.19   2:  1.10   3:  2.04   4:  2.50   5:  0.62   6:  1.40   7:  1.78   8:  0.79
   9:  1.75  10:  0.57  11:  1.45  12:  3.88  13:  2.08  14:  1.19  15:  3.67  16:  0.82
  17:  3.20  18:  5.50  19:  6.39  20: 10.68  21:  0.59  22:  1.82  23:  2.75  24:  5.24
  25:  6.11  26: 18.17  27: 22.30  28:  6.94  29: 19.05  30: 17.02  31: 10.72  32: 67.77
  33:  5.96  34:254.09  35:116.52  36:  0.81  37:  0.19  38:157.63  39: 10.22  40: 29.54
  41:442.93  42: 14.84  43:  9.24  44: 99.94  45:295.85  46:332.87  47:  0.65  48: 11.76
  49: 12.90  50:  2.65  51: 10.62  52:  8.96  53:  9.93  54:  6.09  55: 13.90  56: 16.10
  57: 50.15  58: 40.08  59: 18.45  60:  3.18  61: 45.15  62: 43.11  63: 18.18  64: 13.14
  65: 17.80  66: 38.38  67: 36.16  68:  9.79  69:246.71  70: 16.90  71:436.20  72:139.54
  73:  4.40  74:  8.16  75:  5.57  76:  7.73  77:  1.93  78:  1.51  79: 19.45  80:  6.68
  81: 15.72  82: 11.94  83: 22.19  84:  1.81  85: 10.06  86:  7.96  87:  4.71  88:  0.84
  89:  0.59  90:  0.35  91:  2.73  92: 24.32  93: 15.64  94: 46.13  95:  5.80  96: 11.68
  97:  2.42  98:  3.18  99:  4.45 100:  2.45 101:219.54 102:111.16 103: 52.50 104: 53.86
 105:  1.55 106: 10.27 107: 88.69 108: 19.92 109:  2.42 110:  6.50 111:  2.34 112: 12.70
 113:  2.31 114:  4.08 115:  7.86 116:  3.02 117: 15.33 118: 24.83 119: 10.73 120: 69.75
 121:  6.29 122:591.44 123:515.01 124:383.64 125:475.33 126:402.46 127:878.70 128:******
 129:771.90 130: 42.06 131: 38.54 132: 24.27 133:  4.97 134:  6.05 135:  2.47 136: 38.81
 137:  0.22 138: 12.80 139:  1.83 140:  1.83 141: 10.58 142: 24.52 143:845.57 144:220.84
 145:****** 146:441.89 147: 59.83 148: 17.16 149: 21.33 150: 24.11 151: 18.47 152: 12.26
 153: 16.18 154: 14.81 155: 22.86 156:  9.60 157: 10.99 158: 22.14 159: 18.20
 Raman intensities (amu)
Molecule has no symmetry elements
It seems to be the C1 point group
   1:  0.00   2:  0.00   3:  0.00   4:  0.00   5:  0.00   6:  0.00   7:  0.00   8:  0.00
   9:  0.00  10:  0.00  11:  0.00  12:  0.00  13:  0.00  14:  0.00  15:  0.00  16:  0.00
  17:  0.00  18:  0.00  19:  0.00  20:  0.00  21:  0.00  22:  0.00  23:  0.00  24:  0.00
  25:  0.00  26:  0.00  27:  0.00  28:  0.00  29:  0.00  30:  0.00  31:  0.00  32:  0.00
  33:  0.00  34:  0.00  35:  0.00  36:  0.00  37:  0.00  38:  0.00  39:  0.00  40:  0.00
  41:  0.00  42:  0.00  43:  0.00  44:  0.00  45:  0.00  46:  0.00  47:  0.00  48:  0.00
  49:  0.00  50:  0.00  51:  0.00  52:  0.00  53:  0.00  54:  0.00  55:  0.00  56:  0.00
  57:  0.00  58:  0.00  59:  0.00  60:  0.00  61:  0.00  62:  0.00  63:  0.00  64:  0.00
  65:  0.00  66:  0.00  67:  0.00  68:  0.00  69:  0.00  70:  0.00  71:  0.00  72:  0.00
  73:  0.00  74:  0.00  75:  0.00  76:  0.00  77:  0.00  78:  0.00  79:  0.00  80:  0.00
  81:  0.00  82:  0.00  83:  0.00  84:  0.00  85:  0.00  86:  0.00  87:  0.00  88:  0.00
  89:  0.00  90:  0.00  91:  0.00  92:  0.00  93:  0.00  94:  0.00  95:  0.00  96:  0.00
  97:  0.00  98:  0.00  99:  0.00 100:  0.00 101:  0.00 102:  0.00 103:  0.00 104:  0.00
 105:  0.00 106:  0.00 107:  0.00 108:  0.00 109:  0.00 110:  0.00 111:  0.00 112:  0.00
 113:  0.00 114:  0.00 115:  0.00 116:  0.00 117:  0.00 118:  0.00 119:  0.00 120:  0.00
 121:  0.00 122:  0.00 123:  0.00 124:  0.00 125:  0.00 126:  0.00 127:  0.00 128:  0.00
 129:  0.00 130:  0.00 131:  0.00 132:  0.00 133:  0.00 134:  0.00 135:  0.00 136:  0.00
 137:  0.00 138:  0.00 139:  0.00 140:  0.00 141:  0.00 142:  0.00 143:  0.00 144:  0.00
 145:  0.00 146:  0.00 147:  0.00 148:  0.00 149:  0.00 150:  0.00 151:  0.00 152:  0.00
 153:  0.00 154:  0.00 155:  0.00 156:  0.00 157:  0.00 158:  0.00 159:  0.00
 output can be read by thermo (or use thermo option).
 writing <g98.out> molden fake output.
 recommended (thermochemical) frequency scaling factor: 1.0
           -------------------------------------------------
          |             Thermodynamic Functions             |
           -------------------------------------------------

c1  symmetry found (for desy threshold:  0.10E+00) used in thermo

          ...................................................
          :                      SETUP                      :
          :.................................................:
          :  # frequencies                         153      :
          :  # imaginary freq.                       0      :
          :  linear?                             false      :
          :  only rotor calc.                    false      :
          :  symmetry                               c1      :
          :  rotational number                       1      :
          :  scaling factor                  1.0000000      :
          :  rotor cutoff                   50.0000000 cm⁻¹ :
          :  imag. cutoff                  -20.0000000 cm⁻¹ :
          :.................................................:

    mode    ω/cm⁻¹     T·S(HO)/kcal·mol⁻¹    T·S(FR)/kcal·mol⁻¹   T·S(vib)
   ------------------------------------------------------------------------
       1     10.87    -2.33894 (  0.22%)    -1.50843 ( 99.78%)    -1.51029
       2     15.17    -2.14185 (  0.84%)    -1.40989 ( 99.16%)    -1.41603
       3     22.13    -1.91797 (  3.70%)    -1.29790 ( 96.30%)    -1.32084
       4     23.08    -1.89316 (  4.34%)    -1.28549 ( 95.66%)    -1.31189
       5     28.32    -1.77209 (  9.33%)    -1.22489 ( 90.67%)    -1.27596
       6     35.77    -1.63407 ( 20.75%)    -1.15575 ( 79.25%)    -1.25501
       7     39.72    -1.57217 ( 28.48%)    -1.12472 ( 71.52%)    -1.25214
       8     43.86    -1.51363 ( 37.19%)    -1.09535 ( 62.81%)    -1.25089
       9     50.39    -1.43169 ( 50.78%)    -1.05421 ( 49.22%)    -1.24590
      10     52.11    -1.41197 ( 54.12%)    -1.04430 ( 45.88%)    -1.24328
      11     54.14    -1.38943 ( 57.89%)    -1.03297 ( 42.11%)    -1.23931
      12     65.10    -1.28092 ( 74.19%)    -0.97834 ( 25.81%)    -1.20282
      13     75.62    -1.19303 ( 83.95%)    -0.93398 ( 16.05%)    -1.15146
      14     76.83    -1.18373 ( 84.79%)    -0.92928 ( 15.21%)    -1.14503
      15     87.38    -1.10851 ( 90.32%)    -0.89117 (  9.68%)    -1.08746
      16     90.99    -1.08487 ( 91.64%)    -0.87917 (  8.36%)    -1.06768
      17    100.76    -1.02550 ( 94.28%)    -0.84895 (  5.72%)    -1.01541
      18    105.26    -1.00015 ( 95.16%)    -0.83601 (  4.84%)    -0.99219
      19    115.84    -0.94473 ( 96.65%)    -0.80764 (  3.35%)    -0.94013
      20    119.40    -0.92728 ( 97.02%)    -0.79868 (  2.98%)    -0.92344
      21    134.96    -0.85693 ( 98.15%)    -0.76239 (  1.85%)    -0.85518
      22    146.59    -0.80976 ( 98.66%)    -0.73789 (  1.34%)    -0.80880
      23    177.21    -0.70291 ( 99.37%)    -0.68170 (  0.63%)    -0.70277
      24    183.81    -0.68257 ( 99.46%)    -0.67087 (  0.54%)    -0.68251
      25    197.22    -0.64368 ( 99.59%)    -0.65002 (  0.41%)    -0.64370
      26    201.91    -0.63077 ( 99.63%)    -0.64305 (  0.37%)    -0.63081
      27    219.14    -0.58621 ( 99.73%)    -0.61879 (  0.27%)    -0.58630
      28    232.25    -0.55500 ( 99.79%)    -0.60158 (  0.21%)    -0.55510
      29    243.03    -0.53087 ( 99.82%)    -0.58813 (  0.18%)    -0.53097
      30    265.20    -0.48517 ( 99.87%)    -0.56227 (  0.13%)    -0.48527
   ------------------------------------------------------------------------

   temp. (K)  partition function   enthalpy   heat capacity  entropy
                                   cal/mol     cal/K/mol   cal/K/mol   J/K/mol
 298.15  VIB  0.363E+18            19646.213    103.898    129.745
         ROT  0.162E+08              888.752      2.981     35.969
         INT  0.588E+25            20534.966    106.879    165.714
         TR   0.618E+28             1481.254      4.968     43.384
         TOT                       22016.2195   111.8472   209.0988   874.8694

       T/K    H(0)-H(T)+PV         H(T)/Eh          T*S/Eh         G(T)/Eh
   ------------------------------------------------------------------------
    298.15    0.350851E-01    0.473875E+00    0.993496E-01    0.374525E+00
   ------------------------------------------------------------------------

         :::::::::::::::::::::::::::::::::::::::::::::::::::::
         ::                  THERMODYNAMIC                  ::
         :::::::::::::::::::::::::::::::::::::::::::::::::::::
         :: total free energy         -80.559725094656 Eh   ::
         ::.................................................::
         :: total energy              -80.934250444853 Eh   ::
         :: zero point energy           0.438789865598 Eh   ::
         :: G(RRHO) w/o ZPVE           -0.064264515401 Eh   ::
         :: G(RRHO) contrib.            0.374525350197 Eh   ::
         :::::::::::::::::::::::::::::::::::::::::::::::::::::

           -------------------------------------------------
          | TOTAL ENERGY              -80.934250444853 Eh   |
          | TOTAL ENTHALPY            -80.460375500217 Eh   |
          | TOTAL FREE ENERGY         -80.559725094656 Eh   |
          | GRADIENT NORM               0.000185450259 Eh/α |
          | HOMO-LUMO GAP               5.797921457528 eV   |
           -------------------------------------------------

------------------------------------------------------------------------
 * finished run on 2024/01/10 at 18:28:08.251     
------------------------------------------------------------------------
 total:
 * wall-time:     0 d,  0 h,  0 min, 14.254 sec
 *  cpu-time:     0 d,  0 h,  0 min, 14.160 sec
 * ratio c/w:     0.993 speedup
 SCF:
 * wall-time:     0 d,  0 h,  0 min,  0.096 sec
 *  cpu-time:     0 d,  0 h,  0 min,  0.056 sec
 * ratio c/w:     0.585 speedup
 analytical hessian:
 * wall-time:     0 d,  0 h,  0 min, 14.132 sec
 *  cpu-time:     0 d,  0 h,  0 min, 14.077 sec
 * ratio c/w:     0.996 speedup

