 Entering Gaussian System
 *********************************************
 Gaussian 98:
 frequency output generated by the xtb code
 *********************************************
                         Standard orientation:
 --------------------------------------------------------------------
  Center     Atomic     Atomic              Coordinates (Angstroms)
  Number     Number      Type              X           Y           Z
 --------------------------------------------------------------------
    1          8             0       -0.550999    0.204926    1.845989
    2          6             0       -0.727063   -1.185185    1.906842
    3          1             0        0.060016   -1.550300    2.572579
    4          1             0       -1.703591   -1.423494    2.349830
    5          6             0       -0.604641   -1.769786    0.491902
    6          1             0        0.210304   -1.240623   -0.013561
    7          1             0       -1.541725   -1.593295   -0.041617
    8          7             0       -0.296686   -3.217201    0.380215
    9          6             0        1.039719   -3.509935    0.922606
   10          1             0        1.759895   -2.824333    0.473798
   11          1             0        1.319028   -4.535103    0.688079
   12          1             0        1.050894   -3.386356    2.002414
   13          6             0       -0.303110   -3.536331   -1.058534
   14          1             0        0.450724   -2.933638   -1.561371
   15          1             0       -1.287937   -3.312522   -1.465871
   16          1             0       -0.081293   -4.590709   -1.210277
   17          6             0       -1.326699   -4.022027    1.052269
   18          1             0       -2.295678   -3.772424    0.618412
   19          1             0       -1.337948   -3.808792    2.118183
   20          1             0       -1.126961   -5.081791    0.905211
   21          1             0       -1.165649    0.557090    1.163113
   22          6             0        2.479841    0.196183   -0.388022
   23          8             0        2.109233   -0.964083   -0.547095
   24          7             0        3.575679    0.703695   -0.982877
   25          1             0        4.166668    0.097101   -1.521816
   26          1             0        3.891223    1.629170   -0.732527
   27          7             0        1.753759    1.109039    0.329858
   28          1             0        2.248116    1.961738    0.566729
   29          1             0        1.101845    0.753982    1.026200
   30          6             0        4.278769    4.151136    1.018535
   31          8             0        3.720583    3.234547    0.429995
   32          7             0        3.742297    4.734753    2.116516
   33          1             0        2.901294    4.348328    2.506159
   34          1             0        4.239585    5.422885    2.651174
   35          7             0        5.474406    4.643493    0.616648
   36          1             0        5.881127    5.460405    1.033988
   37          1             0        5.863358    4.311679   -0.247798
   38          6             0       -4.389971   -1.937426   -0.711369
   39          8             0       -3.325816   -2.544744   -0.757004
   40          7             0       -5.581984   -2.591891   -0.738135
   41          1             0       -5.573630   -3.570788   -0.965489
   42          1             0       -6.446368   -2.096975   -0.865621
   43          7             0       -4.454314   -0.590919   -0.625761
   44          1             0       -5.325301   -0.144160   -0.399886
   45          1             0       -3.594698   -0.073445   -0.439690
   46          6             0       -1.667084    1.548522   -1.293775
   47          8             0       -2.053614    0.890060   -0.323591
   48          7             0       -2.512706    1.858021   -2.304189
   49          1             0       -3.471239    1.565153   -2.244684
   50          1             0       -2.230087    2.419666   -3.085690
   51          7             0       -0.406734    1.994425   -1.406866
   52          1             0       -0.110242    2.493096   -2.225886
   53          1             0        0.308157    1.715127   -0.734453
 --------------------------------------------------------------------
     1 basis functions        1 primitive gaussians
     1 alpha electrons        1 beta electrons

 Harmonic frequencies (cm**-1), IR intensities (km*mol⁻¹),
 Raman scattering activities (A**4/amu), Raman depolarization ratios,
 reduced masses (AMU), force constants (mDyne/A) and normal coordinates:
                      1                      2                      3
                        a                      a                      a 
 Frequencies --    11.2634                12.3241                13.2156
 Red. masses --    11.1397                11.9895                12.2854
 Frc consts  --     0.0000                 0.0000                 0.0000
 IR Inten    --     0.0802                 2.9954                 2.4047
 Raman Activ --     0.0000                 0.0000                 0.0000
 Depolar     --     0.0000                 0.0000                 0.0000
 Atom AN      X      Y      Z        X      Y      Z        X      Y      Z
   1   8    -0.04   0.03   0.00     0.08   0.10  -0.10     0.10  -0.10   0.07
   2   6    -0.04   0.02   0.01     0.07   0.09  -0.04     0.04  -0.08   0.02
   3   1    -0.01   0.01   0.01     0.03   0.03  -0.01     0.01  -0.04   0.00
   4   1    -0.01   0.01   0.00     0.02   0.03  -0.00     0.01  -0.02   0.00
   5   6    -0.01   0.01   0.02     0.03   0.05  -0.02     0.03  -0.05   0.01
   6   1    -0.00   0.00   0.01     0.01   0.01  -0.02     0.02  -0.02   0.01
   7   1    -0.00   0.00   0.00     0.00   0.01  -0.00     0.01   0.00   0.00
   8   7    -0.01   0.01   0.05     0.02   0.05   0.02    -0.04  -0.06  -0.03
   9   6    -0.02   0.02   0.07     0.04   0.05  -0.02    -0.06  -0.13  -0.02
  10   1    -0.00   0.00   0.02     0.01   0.01  -0.02    -0.01  -0.04   0.00
  11   1    -0.00   0.00   0.03     0.01   0.01   0.00    -0.03  -0.04  -0.01
  12   1    -0.01   0.01   0.02     0.02   0.03  -0.01    -0.02  -0.05  -0.00
  13   6     0.02  -0.01   0.05    -0.04  -0.01   0.03    -0.04  -0.02  -0.03
  14   1     0.01  -0.00   0.02    -0.02  -0.01  -0.01    -0.00  -0.01  -0.00
  15   1     0.01  -0.00   0.01    -0.01  -0.00   0.02    -0.01   0.01  -0.01
  16   1     0.01  -0.00   0.02    -0.01  -0.00   0.02    -0.02  -0.01  -0.02
  17   6    -0.02   0.01   0.03     0.04   0.07   0.08    -0.08  -0.03  -0.06
  18   1    -0.00   0.00   0.00     0.01   0.02   0.03    -0.02   0.01  -0.02
  19   1    -0.01   0.01   0.01     0.02   0.03   0.02    -0.02  -0.02  -0.01
  20   1    -0.00   0.00   0.01     0.01   0.02   0.03    -0.04  -0.01  -0.02
  21   1    -0.01   0.00  -0.00     0.02   0.02  -0.03     0.03  -0.01   0.02
  22   6    -0.01   0.01   0.03     0.03   0.00  -0.14     0.08  -0.14   0.04
  23   8    -0.00   0.00   0.06     0.01   0.00  -0.14     0.08  -0.16   0.06
  24   7    -0.03   0.01   0.01     0.04  -0.03  -0.16     0.09  -0.17   0.03
  25   1    -0.00   0.00   0.01     0.01  -0.01  -0.04     0.02  -0.05   0.01
  26   1    -0.01   0.00  -0.00     0.02  -0.01  -0.05     0.02  -0.04  -0.00
  27   7    -0.02   0.01   0.02     0.04   0.03  -0.17     0.11  -0.15   0.05
  28   1    -0.01   0.01   0.00     0.02   0.01  -0.05     0.03  -0.04   0.01
  29   1    -0.01   0.01   0.01     0.01   0.01  -0.04     0.03  -0.04   0.02
  30   6     0.03  -0.01  -0.01    -0.09  -0.08   0.14    -0.20   0.08  -0.10
  31   8    -0.03   0.03  -0.02     0.04  -0.04  -0.06    -0.01  -0.08  -0.06
  32   7     0.37  -0.40   0.36    -0.25  -0.35   0.22    -0.35   0.03  -0.15
  33   1     0.16  -0.18   0.16    -0.06  -0.13   0.02    -0.07  -0.04  -0.03
  34   1     0.12  -0.12   0.09    -0.10  -0.11   0.10    -0.13   0.04  -0.05
  35   7    -0.23   0.32  -0.38    -0.12   0.10   0.34    -0.33   0.33  -0.13
  36   1    -0.06   0.08  -0.09    -0.06   0.02   0.14    -0.13   0.11  -0.04
  37   1    -0.14   0.17  -0.17    -0.01   0.08   0.08    -0.06   0.09  -0.03
  38   6     0.01  -0.02  -0.06    -0.02   0.05   0.15     0.02   0.13  -0.01
  39   8     0.02  -0.02  -0.03    -0.03   0.04   0.14    -0.00   0.12  -0.04
  40   7     0.01  -0.03  -0.09    -0.03   0.07   0.26    -0.00   0.19  -0.04
  41   1     0.01  -0.01  -0.02    -0.01   0.01   0.08    -0.01   0.05  -0.02
  42   1     0.00  -0.01  -0.03    -0.01   0.02   0.08     0.00   0.06  -0.01
  43   7     0.00  -0.02  -0.07     0.01   0.06   0.09     0.06   0.14   0.04
  44   1    -0.00  -0.01  -0.03     0.01   0.02   0.03     0.02   0.04   0.02
  45   1    -0.00  -0.00  -0.01     0.01   0.01   0.01     0.02   0.03   0.02
  46   6    -0.01   0.01  -0.01     0.03  -0.06  -0.14     0.12   0.03   0.08
  47   8    -0.02  -0.00  -0.02     0.05   0.02  -0.10     0.13   0.03   0.09
  48   7    -0.00   0.02  -0.02     0.02  -0.15  -0.17     0.13   0.10   0.11
  49   1    -0.00   0.00  -0.01     0.01  -0.04  -0.04     0.03   0.04   0.03
  50   1     0.00   0.01  -0.00     0.00  -0.06  -0.06     0.04   0.02   0.03
  51   7    -0.01   0.01  -0.00     0.03  -0.07  -0.21     0.15  -0.03   0.08
  52   1    -0.00   0.01   0.00     0.01  -0.04  -0.07     0.04  -0.01   0.02
  53   1    -0.00   0.00   0.00     0.01  -0.00  -0.05     0.04  -0.02   0.02
                      4                      5                      6
                        a                      a                      a 
 Frequencies --    19.1010                27.0674                34.3993
 Red. masses --    11.9101                12.3870                12.8784
 Frc consts  --     0.0000                 0.0000                 0.0000
 IR Inten    --     2.3274                 3.0677                 0.9171
 Raman Activ --     0.0000                 0.0000                 0.0000
 Depolar     --     0.0000                 0.0000                 0.0000
 Atom AN      X      Y      Z        X      Y      Z        X      Y      Z
   1   8     0.02   0.07  -0.04     0.12   0.04   0.18    -0.04   0.03  -0.06
   2   6     0.01   0.07   0.03     0.08   0.04   0.13    -0.02   0.02  -0.06
   3   1    -0.00   0.03   0.02     0.03   0.00   0.03    -0.01   0.01  -0.01
   4   1    -0.00   0.03   0.01     0.03   0.01   0.04    -0.01   0.00  -0.03
   5   6     0.02   0.00   0.06     0.03   0.07   0.11     0.06   0.03  -0.06
   6   1     0.01  -0.00   0.01     0.01   0.02   0.03     0.03  -0.00   0.00
   7   1     0.01  -0.01   0.01     0.01   0.03   0.04     0.03   0.02  -0.04
   8   7     0.04  -0.00   0.14     0.01   0.08   0.05     0.02   0.02  -0.05
   9   6     0.03   0.03   0.16    -0.01   0.03   0.06    -0.04  -0.04   0.06
  10   1     0.01   0.00   0.04     0.00   0.01   0.03     0.01  -0.02   0.04
  11   1     0.01   0.01   0.06    -0.01   0.01   0.00    -0.02  -0.01   0.02
  12   1     0.00   0.03   0.05    -0.01  -0.01   0.02    -0.04  -0.02   0.02
  13   6     0.06  -0.07   0.14     0.03   0.14   0.03     0.13   0.03  -0.05
  14   1     0.02  -0.02   0.04     0.02   0.04   0.02     0.06   0.00   0.01
  15   1     0.02  -0.03   0.03     0.01   0.05   0.01     0.05   0.02  -0.04
  16   1     0.02  -0.02   0.06     0.00   0.04  -0.00     0.03   0.01  -0.01
  17   6     0.03   0.02   0.15    -0.02   0.07  -0.01    -0.07   0.04  -0.15
  18   1     0.01  -0.00   0.03    -0.00   0.03  -0.01    -0.01   0.02  -0.06
  19   1     0.00   0.02   0.04    -0.02   0.01  -0.00    -0.04   0.01  -0.04
  20   1     0.01   0.01   0.06    -0.01   0.02  -0.01    -0.03   0.01  -0.04
  21   1     0.00   0.01  -0.01     0.02   0.02   0.06    -0.01   0.01  -0.01
  22   6    -0.01  -0.05  -0.10    -0.02   0.02  -0.06     0.11  -0.04   0.12
  23   8     0.00  -0.08  -0.04    -0.01   0.01  -0.01     0.23  -0.10   0.25
  24   7    -0.05  -0.07  -0.18    -0.08   0.03  -0.18     0.18  -0.06   0.23
  25   1    -0.02  -0.02  -0.05    -0.03   0.01  -0.06     0.07  -0.02   0.09
  26   1    -0.01  -0.01  -0.07    -0.02   0.01  -0.06     0.01   0.01   0.03
  27   7     0.02  -0.04  -0.11     0.03   0.02  -0.01    -0.05   0.00  -0.09
  28   1     0.01  -0.01  -0.04     0.01   0.01  -0.02    -0.04   0.02  -0.04
  29   1     0.01  -0.00  -0.02     0.02   0.01   0.01    -0.02   0.01  -0.02
  30   6    -0.06  -0.10  -0.05    -0.00  -0.04  -0.04    -0.06  -0.01  -0.05
  31   8    -0.05  -0.03  -0.22    -0.00   0.02  -0.16    -0.21   0.16  -0.18
  32   7    -0.15  -0.21  -0.04    -0.05  -0.12  -0.03     0.03  -0.08   0.03
  33   1    -0.06  -0.05  -0.05    -0.03  -0.03  -0.03    -0.01   0.00  -0.01
  34   1    -0.05  -0.07   0.02    -0.02  -0.04   0.01     0.03  -0.05   0.03
  35   7    -0.00  -0.12   0.13     0.04  -0.06   0.06     0.02  -0.14   0.02
  36   1    -0.00  -0.05   0.07     0.01  -0.03   0.04     0.03  -0.06   0.03
  37   1     0.02  -0.01   0.03     0.02  -0.00   0.02    -0.02  -0.01  -0.01
  38   6     0.07  -0.08  -0.10     0.04   0.09  -0.14     0.04   0.04   0.04
  39   8     0.09  -0.09   0.01     0.08   0.17  -0.12     0.10   0.15  -0.20
  40   7     0.08  -0.10  -0.19     0.08   0.05  -0.43     0.10  -0.06   0.14
  41   1     0.03  -0.03  -0.04     0.04   0.02  -0.15     0.04  -0.01  -0.00
  42   1     0.02  -0.03  -0.08     0.02   0.01  -0.12     0.01  -0.03   0.08
  43   7     0.06  -0.09  -0.14    -0.04   0.08   0.06    -0.06   0.02   0.23
  44   1     0.01  -0.02  -0.07    -0.02   0.00   0.01    -0.02  -0.02   0.10
  45   1     0.01  -0.02  -0.03    -0.02   0.02   0.06    -0.02   0.02   0.04
  46   6    -0.05   0.20   0.08    -0.07  -0.16   0.12    -0.10   0.00  -0.04
  47   8    -0.01   0.04  -0.02    -0.06   0.03   0.30    -0.09   0.08   0.01
  48   7    -0.11   0.47   0.21    -0.09  -0.39   0.08    -0.21   0.18   0.09
  49   1    -0.03   0.13   0.05    -0.02  -0.11   0.04    -0.06   0.08   0.05
  50   1    -0.04   0.16   0.08    -0.03  -0.15  -0.01    -0.05   0.01  -0.00
  51   7    -0.04   0.20   0.09    -0.08  -0.18   0.02    -0.03  -0.27  -0.25
  52   1    -0.02   0.10   0.05    -0.03  -0.10  -0.03    -0.02  -0.06  -0.06
  53   1    -0.00   0.01  -0.00    -0.02  -0.02   0.01    -0.00  -0.07  -0.07
                      7                      8                      9
                        a                      a                      a 
 Frequencies --    37.9065                47.2723                58.3668
 Red. masses --    13.1818                12.1281                12.8837
 Frc consts  --     0.0000                 0.0000                 0.0000
 IR Inten    --     3.0321                 2.0273                 2.4649
 Raman Activ --     0.0000                 0.0000                 0.0000
 Depolar     --     0.0000                 0.0000                 0.0000
 Atom AN      X      Y      Z        X      Y      Z        X      Y      Z
   1   8    -0.06  -0.11   0.10     0.14  -0.04  -0.05     0.01   0.06  -0.07
   2   6    -0.07  -0.09   0.04     0.22  -0.04  -0.00    -0.02   0.06  -0.05
   3   1    -0.03  -0.04   0.02     0.09   0.00  -0.03    -0.00   0.01  -0.02
   4   1    -0.03  -0.03  -0.01     0.08  -0.03   0.04    -0.01   0.02  -0.01
   5   6     0.00  -0.05   0.03     0.06  -0.05  -0.01    -0.04   0.05  -0.06
   6   1     0.01  -0.01   0.02     0.01  -0.03  -0.02    -0.01   0.01  -0.01
   7   1     0.01  -0.01  -0.00     0.01  -0.00   0.02    -0.01   0.03  -0.02
   8   7     0.01  -0.05  -0.01    -0.03  -0.08  -0.01    -0.09   0.05  -0.06
   9   6    -0.00  -0.05   0.03     0.03  -0.12  -0.19    -0.10   0.00  -0.04
  10   1     0.00  -0.01   0.02    -0.00  -0.04  -0.08    -0.02   0.00   0.00
  11   1     0.00  -0.01   0.00    -0.01  -0.04  -0.07    -0.03   0.00  -0.02
  12   1    -0.01  -0.02   0.01     0.05  -0.04  -0.06    -0.04  -0.01  -0.01
  13   6     0.06  -0.00  -0.02    -0.27  -0.13   0.00    -0.08   0.05  -0.06
  14   1     0.02   0.01   0.01    -0.10  -0.05  -0.04    -0.02   0.01  -0.01
  15   1     0.02   0.00  -0.01    -0.10  -0.03   0.04    -0.02   0.02  -0.02
  16   1     0.02   0.00  -0.01    -0.10  -0.04   0.00    -0.03   0.01  -0.02
  17   6    -0.01  -0.07  -0.06     0.03  -0.00   0.17    -0.12   0.07  -0.07
  18   1     0.00  -0.02  -0.02    -0.01   0.01   0.09    -0.03   0.02  -0.03
  19   1    -0.01  -0.03  -0.02     0.06   0.01   0.05    -0.04   0.03  -0.02
  20   1    -0.00  -0.02  -0.03    -0.02  -0.00   0.05    -0.04   0.02  -0.02
  21   1     0.00  -0.02   0.01     0.02  -0.02  -0.01    -0.00   0.02  -0.01
  22   6    -0.07   0.06   0.04     0.09   0.06   0.07     0.10   0.02   0.10
  23   8     0.02   0.02   0.13     0.14   0.05   0.12     0.06   0.02   0.20
  24   7    -0.22   0.17  -0.13     0.15   0.04   0.16     0.09  -0.05   0.03
  25   1    -0.06   0.06  -0.06     0.05   0.01   0.05     0.00  -0.02  -0.01
  26   1    -0.08   0.06  -0.06     0.02   0.03   0.02     0.03  -0.01  -0.03
  27   7    -0.06  -0.00   0.14     0.01   0.09  -0.04     0.18   0.06   0.13
  28   1    -0.03   0.01   0.02    -0.01   0.04  -0.02     0.06   0.02   0.01
  29   1    -0.00  -0.01   0.04     0.00   0.03  -0.01     0.05   0.03   0.04
  30   6    -0.13  -0.02  -0.09    -0.01   0.10  -0.02     0.10   0.05  -0.10
  31   8    -0.40   0.26  -0.29    -0.14   0.28  -0.17     0.23   0.13  -0.34
  32   7     0.03  -0.12   0.04     0.06   0.01   0.06    -0.05  -0.15  -0.07
  33   1    -0.03   0.02  -0.02    -0.00   0.02  -0.00    -0.03  -0.06  -0.07
  34   1     0.04  -0.08   0.03     0.03  -0.03   0.04    -0.04  -0.05   0.02
  35   7    -0.01  -0.25   0.01     0.06  -0.00   0.07     0.14   0.17   0.13
  36   1     0.05  -0.11   0.04     0.04  -0.03   0.05     0.01   0.03   0.08
  37   1    -0.03  -0.04  -0.02     0.00   0.03   0.00     0.07   0.09   0.03
  38   6     0.05   0.07   0.03    -0.11   0.02  -0.02    -0.08  -0.14  -0.01
  39   8     0.02   0.02  -0.01    -0.16  -0.07   0.30    -0.06  -0.09  -0.15
  40   7     0.02   0.13   0.15    -0.16   0.11  -0.22    -0.06  -0.21   0.11
  41   1    -0.01   0.03   0.05    -0.05   0.02  -0.01    -0.01  -0.06   0.02
  42   1     0.01   0.04   0.05    -0.03   0.04  -0.12    -0.03  -0.07   0.05
  43   7     0.12   0.08  -0.02    -0.03   0.04  -0.22    -0.15  -0.15   0.02
  44   1     0.04   0.03   0.01    -0.01   0.03  -0.11    -0.04  -0.05   0.03
  45   1     0.04   0.01  -0.02    -0.01  -0.01  -0.02    -0.04  -0.03  -0.01
  46   6     0.16   0.01  -0.03    -0.02  -0.06   0.01    -0.01  -0.00   0.09
  47   8     0.18  -0.04  -0.06     0.03  -0.12  -0.01    -0.14  -0.04   0.02
  48   7     0.23  -0.11  -0.11    -0.08   0.03   0.09     0.16  -0.11  -0.08
  49   1     0.07  -0.05  -0.05    -0.02  -0.00   0.03     0.04  -0.01  -0.05
  50   1     0.06  -0.01  -0.02    -0.03   0.00   0.02     0.06   0.02   0.02
  51   7     0.12   0.17   0.10    -0.01  -0.09  -0.06    -0.04   0.14   0.33
  52   1     0.04   0.05   0.03    -0.02   0.00  -0.00     0.02   0.02   0.09
  53   1     0.03   0.05   0.04     0.00  -0.02  -0.02    -0.02   0.02   0.09
                     10                     11                     12
                        a                      a                      a 
 Frequencies --    65.6770                69.5748                72.7917
 Red. masses --    12.4023                12.2577                12.3006
 Frc consts  --     0.0000                 0.0000                 0.0000
 IR Inten    --     4.4250                 1.7688                 0.8521
 Raman Activ --     0.0000                 0.0000                 0.0000
 Depolar     --     0.0000                 0.0000                 0.0000
 Atom AN      X      Y      Z        X      Y      Z        X      Y      Z
   1   8     0.05  -0.10  -0.06    -0.07   0.06  -0.01    -0.06  -0.08   0.18
   2   6    -0.02  -0.07  -0.03    -0.06   0.05  -0.03    -0.02  -0.08   0.13
   3   1    -0.02  -0.03   0.00    -0.02   0.01  -0.00     0.00  -0.02   0.03
   4   1    -0.01  -0.01  -0.02    -0.02   0.01  -0.02    -0.00  -0.03   0.04
   5   6     0.03  -0.12  -0.01    -0.01   0.06  -0.03    -0.05  -0.01   0.10
   6   1     0.03  -0.06   0.01    -0.00   0.02  -0.00    -0.03   0.02   0.03
   7   1     0.02  -0.01  -0.02    -0.00   0.01  -0.01    -0.02  -0.01   0.04
   8   7    -0.11  -0.16   0.06     0.02   0.08  -0.03     0.06   0.02  -0.01
   9   6    -0.14  -0.23   0.10     0.03   0.10  -0.04     0.03   0.04   0.06
  10   1    -0.02  -0.08   0.03     0.01   0.03  -0.02     0.00   0.04   0.06
  11   1    -0.06  -0.07   0.04     0.01   0.03  -0.01     0.03   0.02  -0.01
  12   1    -0.05  -0.06   0.03     0.01   0.04  -0.01    -0.02  -0.03   0.02
  13   6    -0.10  -0.22   0.07     0.01   0.06  -0.03     0.19   0.18  -0.05
  14   1    -0.02  -0.09   0.01    -0.00   0.02  -0.01     0.06   0.08   0.03
  15   1    -0.02  -0.05   0.01    -0.00   0.01  -0.00     0.06   0.05  -0.03
  16   1    -0.05  -0.07   0.04     0.01   0.02  -0.01     0.07   0.06  -0.04
  17   6    -0.18  -0.03   0.06     0.05   0.05  -0.01     0.05  -0.11  -0.18
  18   1    -0.04   0.01   0.01     0.01   0.01   0.01     0.02  -0.04  -0.07
  19   1    -0.06   0.01   0.02     0.02   0.01  -0.00    -0.02  -0.06  -0.05
  20   1    -0.08  -0.02   0.03     0.02   0.02  -0.01     0.04  -0.03  -0.08
  21   1     0.02  -0.02  -0.02    -0.02   0.02   0.00    -0.00  -0.03   0.04
  22   6    -0.03   0.12  -0.03     0.05  -0.01  -0.01    -0.08   0.05   0.07
  23   8     0.08   0.07   0.21     0.11  -0.03  -0.01    -0.14   0.07   0.14
  24   7    -0.25   0.21  -0.37    -0.16   0.15  -0.27    -0.06  -0.03   0.05
  25   1    -0.04   0.04  -0.06    -0.05   0.06  -0.10    -0.03  -0.02   0.02
  26   1    -0.05   0.05  -0.09    -0.04   0.03  -0.06    -0.00  -0.01  -0.00
  27   7    -0.00   0.14  -0.01     0.16  -0.13   0.23    -0.06   0.12   0.03
  28   1    -0.00   0.04  -0.02     0.03  -0.03   0.05    -0.00   0.03  -0.00
  29   1     0.02   0.03   0.01     0.06  -0.05   0.07    -0.01   0.04   0.01
  30   6     0.11   0.09   0.06    -0.02   0.01   0.02     0.10  -0.01  -0.06
  31   8     0.22   0.05   0.08    -0.05   0.01   0.05     0.26  -0.04  -0.15
  32   7     0.04   0.11   0.02     0.01   0.04   0.02    -0.05  -0.10  -0.08
  33   1     0.02   0.01   0.01    -0.00   0.02   0.01    -0.01  -0.06  -0.04
  34   1     0.00   0.03   0.01     0.01   0.01  -0.00    -0.04  -0.02  -0.00
  35   7     0.10   0.18   0.10    -0.02  -0.02  -0.01     0.09   0.14   0.06
  36   1     0.01   0.06   0.02     0.00  -0.01  -0.01    -0.01   0.04   0.04
  37   1     0.04   0.05   0.03    -0.01  -0.02  -0.00     0.06   0.05   0.02
  38   6     0.05   0.01  -0.02    -0.08  -0.04   0.01    -0.03   0.03  -0.04
  39   8     0.05   0.02  -0.20    -0.07  -0.01   0.15    -0.09  -0.05   0.03
  40   7     0.05   0.01  -0.00    -0.06  -0.09   0.04    -0.09   0.12   0.19
  41   1     0.01   0.01  -0.04    -0.00  -0.03   0.05    -0.05   0.02   0.11
  42   1     0.01   0.01   0.03    -0.02  -0.04  -0.02    -0.01   0.04   0.03
  43   7     0.05  -0.00   0.16    -0.14  -0.03  -0.17     0.06   0.07  -0.38
  44   1     0.02  -0.01   0.07    -0.05  -0.01  -0.07     0.03   0.04  -0.08
  45   1     0.02  -0.00   0.03    -0.05   0.00  -0.04     0.03  -0.00  -0.08
  46   6     0.01  -0.02  -0.05     0.05  -0.06   0.04    -0.02  -0.09  -0.03
  47   8     0.08  -0.05  -0.06    -0.17   0.07   0.05     0.12  -0.21  -0.05
  48   7    -0.08   0.10   0.06     0.16   0.23   0.05    -0.18   0.10   0.17
  49   1    -0.02   0.01   0.02     0.02   0.13   0.00    -0.03  -0.05   0.03
  50   1    -0.02   0.00  -0.00     0.10   0.01  -0.00    -0.05  -0.04  -0.00
  51   7     0.03  -0.09  -0.15     0.22  -0.54   0.00    -0.02  -0.13  -0.17
  52   1    -0.01  -0.00  -0.03     0.09  -0.13   0.02    -0.04   0.02  -0.02
  53   1     0.01  -0.01  -0.04     0.03  -0.13   0.04     0.00  -0.01  -0.05
                     13                     14                     15
                        a                      a                      a 
 Frequencies --    75.4617                81.4192                87.4644
 Red. masses --    12.6261                12.3349                13.1334
 Frc consts  --     0.0000                 0.0000                 0.0000
 IR Inten    --     3.0789                 3.4566                 8.4161
 Raman Activ --     0.0000                 0.0000                 0.0000
 Depolar     --     0.0000                 0.0000                 0.0000
 Atom AN      X      Y      Z        X      Y      Z        X      Y      Z
   1   8     0.06   0.04  -0.06     0.11   0.13   0.15    -0.05  -0.09  -0.00
   2   6     0.17   0.02  -0.00     0.17   0.10   0.14    -0.06  -0.08  -0.01
   3   1     0.07   0.03  -0.01     0.08   0.03   0.00    -0.02  -0.02  -0.00
   4   1     0.06  -0.01   0.02     0.07   0.02   0.09    -0.02  -0.02  -0.00
   5   6     0.14   0.01   0.00    -0.03   0.14   0.11    -0.05  -0.08  -0.01
   6   1     0.06  -0.02   0.00    -0.01   0.03   0.01    -0.02  -0.02  -0.00
   7   1     0.05   0.03  -0.00    -0.02   0.07   0.06    -0.02  -0.03  -0.00
   8   7     0.01  -0.02   0.01    -0.16   0.14   0.01    -0.06  -0.09   0.01
   9   6    -0.03  -0.14   0.06    -0.12   0.00  -0.13     0.01  -0.04  -0.12
  10   1     0.01  -0.06   0.03    -0.03  -0.00  -0.04    -0.01  -0.02  -0.07
  11   1    -0.03  -0.05   0.02    -0.06   0.00  -0.06    -0.00  -0.02  -0.03
  12   1    -0.02  -0.05   0.02    -0.01  -0.02  -0.03     0.04   0.01  -0.04
  13   6     0.03  -0.02   0.01    -0.29   0.21  -0.01    -0.20  -0.15   0.02
  14   1     0.03  -0.03   0.01    -0.08   0.05  -0.01    -0.08  -0.05  -0.02
  15   1     0.02   0.02  -0.00    -0.09   0.09   0.02    -0.07  -0.05   0.03
  16   1    -0.02  -0.01   0.01    -0.11   0.06  -0.03    -0.06  -0.04   0.01
  17   6    -0.08   0.07  -0.02    -0.14   0.16   0.05     0.03  -0.07   0.15
  18   1    -0.01   0.05  -0.01    -0.04   0.05   0.02    -0.00  -0.03   0.07
  19   1    -0.02   0.02  -0.00    -0.03   0.05   0.01     0.04  -0.01   0.04
  20   1    -0.05   0.02  -0.01    -0.05   0.04   0.01     0.01  -0.02   0.05
  21   1    -0.01  -0.01  -0.01     0.03   0.02   0.03    -0.02  -0.01   0.01
  22   6     0.08  -0.04  -0.03    -0.02  -0.01  -0.03    -0.11   0.04   0.02
  23   8     0.23  -0.11   0.09    -0.08   0.02  -0.11    -0.28   0.12  -0.17
  24   7    -0.01   0.04  -0.15     0.02  -0.03   0.02     0.01  -0.05   0.20
  25   1     0.03   0.01  -0.00    -0.00  -0.00  -0.01    -0.03  -0.00   0.00
  26   1    -0.01   0.01  -0.03     0.00  -0.01   0.01     0.01  -0.01   0.04
  27   7     0.01  -0.06  -0.09     0.00  -0.01  -0.01    -0.04   0.04   0.11
  28   1    -0.01  -0.01  -0.03     0.01  -0.01   0.00     0.00  -0.00   0.04
  29   1     0.01  -0.02  -0.02     0.00   0.00  -0.00    -0.02   0.01   0.02
  30   6    -0.03  -0.03   0.05    -0.06  -0.01   0.03     0.03   0.02  -0.05
  31   8    -0.06  -0.09   0.17    -0.14   0.00   0.08     0.06   0.07  -0.15
  32   7     0.02   0.07   0.03     0.02   0.04   0.04    -0.01  -0.07  -0.02
  33   1     0.01   0.02   0.03     0.00   0.03   0.02    -0.01  -0.02  -0.03
  34   1     0.02   0.02  -0.01     0.02   0.01  -0.00    -0.01  -0.02   0.01
  35   7    -0.06  -0.06  -0.05    -0.06  -0.08  -0.04     0.05   0.06   0.04
  36   1    -0.01  -0.01  -0.04     0.00  -0.02  -0.02     0.01   0.01   0.03
  37   1    -0.03  -0.04  -0.01    -0.03  -0.03  -0.01     0.02   0.03   0.01
  38   6     0.01   0.10  -0.05     0.08  -0.11  -0.08     0.20   0.06  -0.05
  39   8     0.09   0.25  -0.01     0.09  -0.12  -0.32     0.27   0.15  -0.09
  40   7     0.10  -0.06   0.29     0.09  -0.14   0.15     0.27  -0.06   0.18
  41   1     0.05  -0.03   0.14     0.02  -0.03   0.02     0.09  -0.02   0.07
  42   1     0.01  -0.05   0.05     0.02  -0.04   0.08     0.06  -0.04   0.05
  43   7    -0.14   0.14  -0.48     0.11  -0.12  -0.04     0.10   0.07  -0.23
  44   1    -0.04   0.01  -0.10     0.04  -0.04   0.04     0.02  -0.00  -0.05
  45   1    -0.05   0.05  -0.10     0.04  -0.04  -0.03     0.01   0.04  -0.05
  46   6    -0.12  -0.02   0.05     0.11  -0.09  -0.02    -0.04   0.06   0.04
  47   8    -0.15  -0.07   0.02     0.22  -0.26  -0.09    -0.16   0.31   0.17
  48   7    -0.08  -0.12  -0.02     0.01   0.09   0.13     0.02  -0.00  -0.03
  49   1    -0.01  -0.07  -0.04     0.02  -0.03   0.02    -0.01   0.05   0.00
  50   1    -0.02  -0.03  -0.00    -0.00  -0.00   0.02     0.03  -0.04  -0.03
  51   7    -0.18   0.14   0.18     0.10  -0.08  -0.06     0.02  -0.14  -0.03
  52   1    -0.04   0.03   0.05     0.00   0.04   0.01     0.03  -0.08  -0.03
  53   1    -0.05   0.03   0.04     0.04  -0.02  -0.02    -0.01  -0.02   0.01
                     16                     17                     18
                        a                      a                      a 
 Frequencies --    95.6315               103.0097               115.6326
 Red. masses --    12.4728                13.4216                11.0122
 Frc consts  --     0.0000                 0.0000                 0.0000
 IR Inten    --     3.8924                 5.7760                 1.0182
 Raman Activ --     0.0000                 0.0000                 0.0000
 Depolar     --     0.0000                 0.0000                 0.0000
 Atom AN      X      Y      Z        X      Y      Z        X      Y      Z
   1   8    -0.13   0.02   0.06    -0.10  -0.01  -0.05     0.12   0.01  -0.00
   2   6     0.19  -0.02   0.09     0.14  -0.03   0.07     0.29  -0.01   0.12
   3   1     0.12   0.04  -0.02     0.08   0.04  -0.00     0.15   0.04  -0.02
   4   1     0.10  -0.07   0.08     0.07  -0.05   0.06     0.13  -0.03   0.11
   5   6     0.04   0.03   0.07     0.06  -0.06   0.08     0.03  -0.04   0.11
   6   1    -0.00   0.01   0.01     0.01  -0.02   0.01    -0.01  -0.02   0.00
   7   1    -0.00   0.02   0.05     0.01  -0.01   0.04    -0.01   0.01   0.07
   8   7     0.02   0.03  -0.06     0.04  -0.06   0.06    -0.07  -0.05   0.01
   9   6     0.07  -0.03  -0.21     0.01  -0.10   0.10    -0.16  -0.22   0.15
  10   1     0.01   0.01  -0.05     0.01  -0.03   0.03    -0.02  -0.05   0.11
  11   1     0.01  -0.00  -0.11    -0.00  -0.03   0.03    -0.05  -0.05  -0.00
  12   1     0.05  -0.05  -0.06    -0.01  -0.03   0.03    -0.09  -0.13   0.05
  13   6    -0.14   0.14  -0.08     0.09  -0.01   0.05     0.11   0.14  -0.04
  14   1    -0.05   0.04  -0.03     0.04  -0.00   0.03     0.07   0.04   0.04
  15   1    -0.05   0.06   0.01     0.03   0.02   0.00     0.05   0.08  -0.04
  16   1    -0.06   0.04  -0.05     0.02  -0.00   0.00     0.01   0.04  -0.04
  17   6     0.09  -0.02   0.00    -0.01  -0.06  -0.01    -0.20  -0.07  -0.22
  18   1     0.01   0.01   0.04     0.00   0.00  -0.01    -0.04  -0.00  -0.10
  19   1     0.06  -0.03   0.01    -0.01  -0.03  -0.00    -0.10  -0.05  -0.06
  20   1     0.02  -0.00  -0.03    -0.02  -0.02  -0.02    -0.06  -0.02  -0.08
  21   1    -0.05  -0.03   0.01    -0.03  -0.05  -0.03    -0.00  -0.02   0.02
  22   6    -0.07   0.04   0.17    -0.07  -0.01  -0.06    -0.06  -0.04  -0.06
  23   8     0.04  -0.03   0.40    -0.22   0.06  -0.30    -0.16  -0.01  -0.08
  24   7    -0.19   0.06  -0.02     0.02  -0.05   0.10    -0.01  -0.11  -0.03
  25   1    -0.02  -0.01   0.05    -0.03   0.01  -0.04    -0.01  -0.03  -0.02
  26   1    -0.04   0.01  -0.00     0.00  -0.01   0.02     0.00  -0.03  -0.02
  27   7    -0.13   0.08   0.07     0.03  -0.06   0.10    -0.01   0.01  -0.08
  28   1    -0.04   0.03   0.00     0.02  -0.03   0.04     0.01   0.00  -0.03
  29   1    -0.03   0.03   0.02    -0.01  -0.02   0.01    -0.01   0.02  -0.02
  30   6     0.00  -0.14  -0.04     0.03   0.07  -0.01     0.00   0.08   0.03
  31   8     0.11  -0.27   0.02     0.01   0.14  -0.08    -0.06   0.15   0.02
  32   7    -0.09  -0.12  -0.10     0.03   0.01   0.02     0.06   0.09   0.07
  33   1    -0.01  -0.05  -0.02    -0.00   0.01  -0.01     0.01   0.03   0.02
  34   1    -0.05  -0.01  -0.04     0.01  -0.00   0.02     0.04   0.01   0.02
  35   7    -0.06  -0.05  -0.07     0.05   0.06   0.05     0.03   0.03   0.04
  36   1    -0.03  -0.00  -0.03     0.02   0.01   0.03     0.01   0.01   0.01
  37   1     0.01  -0.03  -0.00     0.02   0.03   0.01    -0.01   0.02   0.00
  38   6     0.06   0.00   0.07    -0.06   0.12   0.04    -0.00  -0.11   0.05
  39   8     0.14   0.11   0.20     0.06   0.36   0.06    -0.02  -0.17   0.21
  40   7     0.14  -0.12  -0.13     0.07  -0.11  -0.10    -0.02  -0.07  -0.03
  41   1     0.07  -0.03  -0.03     0.08  -0.02  -0.05    -0.01  -0.02   0.02
  42   1     0.03  -0.06  -0.05    -0.01  -0.07  -0.03     0.00  -0.01  -0.03
  43   7    -0.06  -0.01   0.14    -0.31   0.10   0.17     0.05  -0.11  -0.03
  44   1    -0.03  -0.02  -0.01    -0.10  -0.01   0.04     0.01  -0.01  -0.06
  45   1    -0.03   0.02   0.02    -0.09   0.05   0.03     0.01  -0.02  -0.01
  46   6    -0.01   0.07  -0.11     0.02  -0.10  -0.08     0.00   0.13  -0.03
  47   8    -0.05   0.07  -0.16    -0.01  -0.36  -0.28    -0.10   0.35   0.06
  48   7     0.04   0.07  -0.18     0.06   0.18  -0.03     0.10  -0.01  -0.17
  49   1    -0.00   0.06  -0.04     0.03  -0.03  -0.08    -0.01   0.13   0.02
  50   1     0.01   0.06  -0.02     0.05   0.03  -0.01     0.02   0.07   0.00
  51   7    -0.01   0.08  -0.07     0.02  -0.05   0.08     0.05   0.00  -0.09
  52   1     0.01   0.01  -0.02     0.01   0.06   0.07     0.03  -0.07  -0.06
  53   1    -0.01   0.01  -0.02    -0.01  -0.02   0.03     0.01  -0.00  -0.02
                     19                     20                     21
                        a                      a                      a 
 Frequencies --   121.4418               134.1845               146.0045
 Red. masses --    12.2350                11.8895                12.7319
 Frc consts  --     0.0000                 0.0000                 0.0000
 IR Inten    --    13.5214                 2.2501                16.6702
 Raman Activ --     0.0000                 0.0000                 0.0000
 Depolar     --     0.0000                 0.0000                 0.0000
 Atom AN      X      Y      Z        X      Y      Z        X      Y      Z
   1   8     0.22   0.10  -0.27    -0.05  -0.01   0.02     0.25   0.07  -0.26
   2   6     0.35   0.07  -0.08     0.08  -0.02   0.10    -0.07   0.10  -0.19
   3   1     0.17   0.06  -0.08     0.07   0.02  -0.02    -0.04  -0.01  -0.05
   4   1     0.14   0.01   0.06     0.05  -0.03   0.09    -0.03   0.09  -0.05
   5   6     0.02  -0.05  -0.06    -0.14  -0.04   0.09    -0.19   0.02  -0.16
   6   1    -0.03  -0.01  -0.08    -0.09   0.02  -0.02    -0.08   0.01  -0.07
   7   1    -0.03  -0.05   0.04    -0.08  -0.05   0.07    -0.07  -0.03  -0.03
   8   7     0.10  -0.05   0.03     0.05   0.00   0.04    -0.09   0.04  -0.10
   9   6     0.09   0.03   0.07     0.14   0.15  -0.11    -0.09   0.14  -0.01
  10   1     0.01   0.05   0.05    -0.00   0.09  -0.03    -0.04   0.08   0.03
  11   1     0.06   0.03  -0.01     0.08   0.07  -0.07     0.01   0.06  -0.02
  12   1     0.01  -0.03   0.03     0.06   0.01  -0.03    -0.06   0.01   0.00
  13   6     0.13  -0.14   0.05    -0.05   0.04   0.02     0.02  -0.03  -0.08
  14   1     0.05  -0.06   0.01    -0.03   0.02  -0.00     0.02  -0.01  -0.01
  15   1     0.04  -0.04  -0.00    -0.03   0.00   0.03     0.01  -0.01  -0.04
  16   1     0.02  -0.05   0.04    -0.01   0.02  -0.01     0.01  -0.01  -0.01
  17   6     0.09  -0.03   0.05     0.22  -0.15   0.11    -0.05  -0.02  -0.10
  18   1     0.03  -0.04  -0.01     0.04  -0.09   0.05    -0.01  -0.04  -0.05
  19   1    -0.00   0.03   0.01     0.07  -0.04   0.03    -0.04   0.02  -0.04
  20   1     0.05  -0.01   0.06     0.11  -0.03   0.04     0.02  -0.00  -0.00
  21   1     0.02  -0.01  -0.05    -0.03  -0.02   0.01     0.07   0.04  -0.06
  22   6    -0.10   0.11   0.10    -0.01  -0.23   0.01    -0.09  -0.05   0.07
  23   8    -0.22   0.16   0.11    -0.01  -0.29   0.17    -0.24  -0.04   0.24
  24   7    -0.07   0.01   0.08    -0.10  -0.28  -0.20    -0.09  -0.25  -0.10
  25   1    -0.04  -0.01   0.02    -0.03  -0.09  -0.04    -0.04  -0.11  -0.00
  26   1     0.00  -0.00   0.02    -0.02  -0.07  -0.08     0.01  -0.07  -0.05
  27   7    -0.02   0.17   0.11     0.07  -0.19  -0.01     0.06   0.09   0.01
  28   1     0.01   0.04   0.02     0.02  -0.04  -0.03     0.04   0.02  -0.02
  29   1    -0.02   0.05   0.02     0.01  -0.03   0.00     0.01   0.05   0.01
  30   6    -0.06  -0.10  -0.01     0.03   0.15   0.05    -0.03   0.03   0.03
  31   8    -0.06  -0.15   0.04    -0.03   0.25   0.01    -0.08   0.06   0.05
  32   7    -0.05  -0.07  -0.03     0.10   0.17   0.09     0.02   0.09   0.04
  33   1    -0.02  -0.01  -0.01     0.04   0.04   0.04     0.02   0.01   0.04
  34   1    -0.02   0.00  -0.03     0.07  -0.00   0.05     0.04  -0.01   0.02
  35   7    -0.09  -0.11  -0.08     0.09   0.10   0.11    -0.01  -0.03   0.01
  36   1    -0.01  -0.03  -0.03     0.01   0.04   0.02    -0.01   0.01  -0.02
  37   1    -0.02  -0.05  -0.01    -0.00   0.06   0.00    -0.03   0.00  -0.01
  38   6    -0.09   0.02  -0.09    -0.03   0.04  -0.08     0.12   0.02   0.10
  39   8    -0.15  -0.03  -0.34    -0.05   0.03  -0.28     0.18   0.08   0.33
  40   7    -0.16   0.11   0.07    -0.05   0.06   0.05     0.19  -0.05  -0.06
  41   1    -0.07   0.04  -0.02    -0.03   0.02  -0.02     0.08  -0.02   0.02
  42   1    -0.04   0.05   0.06    -0.01   0.03   0.04     0.04  -0.04  -0.04
  43   7    -0.03   0.02   0.02    -0.02   0.04   0.03     0.06   0.03  -0.02
  44   1     0.01   0.01   0.06     0.00   0.00   0.05     0.00   0.00  -0.04
  45   1     0.00  -0.00  -0.01    -0.00   0.01  -0.01     0.01   0.01   0.02
  46   6     0.01  -0.01   0.05    -0.07   0.04  -0.06     0.03  -0.08   0.05
  47   8    -0.08   0.04   0.05    -0.07   0.07  -0.05     0.10  -0.17   0.03
  48   7     0.07   0.05   0.03    -0.05   0.00  -0.09    -0.04  -0.02   0.14
  49   1     0.02  -0.01  -0.02    -0.01   0.00  -0.02     0.01  -0.09   0.01
  50   1     0.05  -0.04  -0.02    -0.01   0.00  -0.02    -0.01  -0.06  -0.00
  51   7     0.05  -0.11   0.08    -0.07   0.06  -0.05     0.01  -0.02   0.04
  52   1     0.02  -0.02   0.03    -0.01   0.01  -0.01    -0.02   0.04   0.03
  53   1     0.00  -0.01   0.04    -0.03   0.02  -0.01     0.01   0.01   0.01
                     22                     23                     24
                        a                      a                      a 
 Frequencies --   156.9385               173.4033               176.0066
 Red. masses --    11.7501                11.3599                10.0768
 Frc consts  --     0.0000                 0.0000                 0.0000
 IR Inten    --     4.4966                18.1838                25.3124
 Raman Activ --     0.0000                 0.0000                 0.0000
 Depolar     --     0.0000                 0.0000                 0.0000
 Atom AN      X      Y      Z        X      Y      Z        X      Y      Z
   1   8     0.19  -0.15   0.13    -0.18  -0.02  -0.03     0.09  -0.05   0.11
   2   6    -0.15  -0.09   0.10    -0.04  -0.03   0.11    -0.06  -0.03   0.00
   3   1    -0.09  -0.08   0.05     0.02   0.02   0.01    -0.07  -0.04   0.05
   4   1    -0.07   0.03   0.00     0.01  -0.03   0.07    -0.06   0.01  -0.07
   5   6    -0.15  -0.08   0.09    -0.15  -0.07   0.12     0.22   0.03   0.00
   6   1    -0.06   0.00   0.03    -0.06  -0.00   0.01     0.11  -0.01   0.06
   7   1    -0.05  -0.04   0.03    -0.06  -0.03   0.06     0.10   0.05  -0.05
   8   7    -0.03  -0.05   0.05    -0.09  -0.05   0.04     0.08   0.00  -0.01
   9   6     0.02   0.07   0.00    -0.06   0.01   0.02     0.06  -0.15  -0.04
  10   1    -0.02   0.05   0.01    -0.03   0.04   0.03     0.04  -0.10  -0.05
  11   1     0.04   0.03  -0.02     0.01   0.02  -0.03    -0.04  -0.07   0.03
  12   1     0.01   0.00   0.00    -0.03  -0.04   0.01     0.04   0.01  -0.02
  13   6    -0.03   0.01   0.03    -0.06   0.07   0.01     0.02   0.00  -0.01
  14   1    -0.02   0.02   0.01    -0.02   0.04   0.02    -0.01   0.01  -0.01
  15   1    -0.01  -0.01   0.01    -0.02   0.02   0.01    -0.00  -0.01   0.01
  16   1     0.01   0.01  -0.01    -0.01   0.03  -0.02     0.01   0.00  -0.01
  17   6     0.06  -0.17   0.03    -0.02  -0.20  -0.04     0.01   0.12   0.02
  18   1     0.01  -0.07   0.01    -0.01  -0.08  -0.02     0.00   0.08   0.03
  19   1     0.01  -0.05   0.01    -0.02  -0.07  -0.01     0.03   0.02   0.01
  20   1     0.05  -0.04   0.00     0.03  -0.05  -0.02    -0.05   0.03  -0.02
  21   1     0.06  -0.00   0.04    -0.06  -0.03  -0.01     0.05   0.02   0.03
  22   6     0.07   0.12  -0.08     0.19   0.11  -0.06     0.04   0.01   0.09
  23   8    -0.00   0.14   0.10     0.08   0.17   0.00    -0.19   0.08   0.04
  24   7     0.17  -0.05  -0.08     0.25  -0.02  -0.13     0.03  -0.17  -0.09
  25   1     0.05  -0.05   0.02     0.04  -0.02  -0.04    -0.06  -0.06  -0.08
  26   1     0.06  -0.01  -0.04     0.08  -0.01  -0.05     0.05  -0.06  -0.05
  27   7     0.06   0.28  -0.28     0.31   0.20  -0.06     0.38   0.03   0.33
  28   1     0.03   0.07  -0.09     0.10   0.05  -0.02     0.13  -0.00   0.07
  29   1     0.04   0.08  -0.05     0.09   0.06  -0.01     0.07   0.03   0.07
  30   6    -0.05  -0.03   0.02    -0.05  -0.04   0.01    -0.05  -0.01   0.01
  31   8    -0.08  -0.05   0.07    -0.08  -0.06   0.05    -0.08  -0.01   0.03
  32   7    -0.00   0.01   0.02     0.01  -0.04   0.04     0.01  -0.00   0.03
  33   1    -0.00   0.01   0.01    -0.04   0.05  -0.02    -0.02   0.03  -0.00
  34   1     0.00   0.01  -0.01    -0.04   0.07  -0.05    -0.01   0.03  -0.02
  35   7    -0.06  -0.07  -0.04    -0.09  -0.06  -0.08    -0.06  -0.06  -0.04
  36   1    -0.00  -0.02  -0.02     0.04  -0.07   0.02     0.02  -0.03  -0.00
  37   1    -0.03  -0.03  -0.01     0.00  -0.07   0.02    -0.01  -0.04  -0.00
  38   6    -0.14  -0.01  -0.05     0.12   0.04   0.03    -0.07  -0.05  -0.00
  39   8    -0.05   0.19  -0.08     0.07  -0.08   0.03    -0.06  -0.02  -0.00
  40   7    -0.03  -0.23   0.03     0.06   0.17  -0.02    -0.06  -0.08  -0.02
  41   1     0.04  -0.06  -0.00    -0.02   0.05  -0.01    -0.01  -0.02   0.00
  42   1    -0.03  -0.11  -0.00     0.03   0.07   0.01    -0.02  -0.03   0.01
  43   7    -0.35  -0.01  -0.07     0.23   0.03   0.08    -0.10  -0.04  -0.02
  44   1    -0.11  -0.03  -0.00     0.07   0.02   0.00    -0.03  -0.02   0.02
  45   1    -0.11   0.01  -0.02     0.07   0.01   0.01    -0.03  -0.01   0.02
  46   6     0.12   0.04   0.03    -0.13  -0.05  -0.04    -0.05   0.08  -0.11
  47   8     0.14   0.09   0.05    -0.28  -0.08  -0.11     0.07   0.18  -0.03
  48   7     0.14  -0.02  -0.01    -0.03   0.13  -0.07    -0.19   0.09   0.00
  49   1     0.01   0.10   0.06     0.02  -0.08  -0.13     0.01  -0.19  -0.08
  50   1     0.01   0.10   0.06     0.07  -0.11  -0.09    -0.01  -0.22  -0.16
  51   7     0.13   0.04  -0.06    -0.11  -0.11   0.14    -0.07   0.14  -0.24
  52   1     0.02  -0.04  -0.05    -0.01   0.03   0.08    -0.04   0.09  -0.04
  53   1     0.06  -0.00  -0.04    -0.05  -0.01   0.07    -0.03   0.11  -0.03
                     25                     26                     27
                        a                      a                      a 
 Frequencies --   182.8769               189.5253               193.0451
 Red. masses --     4.1041                 5.7226                10.2982
 Frc consts  --     0.0000                 0.0000                 0.0000
 IR Inten    --     4.8355               134.9253                73.0873
 Raman Activ --     0.0000                 0.0000                 0.0000
 Depolar     --     0.0000                 0.0000                 0.0000
 Atom AN      X      Y      Z        X      Y      Z        X      Y      Z
   1   8    -0.05  -0.01   0.02    -0.06   0.01   0.02    -0.20   0.03   0.03
   2   6    -0.02  -0.01   0.02    -0.06   0.00  -0.02    -0.08   0.01  -0.01
   3   1    -0.01   0.00   0.01    -0.04  -0.00   0.03    -0.05   0.02   0.04
   4   1    -0.01  -0.01  -0.00    -0.04  -0.00  -0.05    -0.04  -0.02  -0.06
   5   6     0.03  -0.00   0.02     0.15   0.03  -0.01     0.23   0.04   0.00
   6   1     0.02  -0.00   0.02     0.07  -0.00   0.04     0.11  -0.00   0.06
   7   1     0.02   0.01  -0.00     0.07   0.03  -0.04     0.10   0.04  -0.05
   8   7     0.01  -0.01   0.01     0.08   0.02  -0.01     0.13   0.02  -0.02
   9   6     0.01  -0.04  -0.00     0.06  -0.08  -0.03     0.10  -0.17  -0.07
  10   1     0.01  -0.02  -0.01     0.04  -0.07  -0.05     0.06  -0.13  -0.09
  11   1    -0.01  -0.02   0.01    -0.03  -0.05   0.03    -0.05  -0.09   0.05
  12   1     0.01   0.00  -0.00     0.04   0.03  -0.02     0.06   0.04  -0.03
  13   6    -0.00   0.01   0.00     0.02   0.01  -0.01     0.03   0.04  -0.02
  14   1    -0.01   0.01   0.00    -0.01   0.01  -0.01    -0.02   0.03  -0.02
  15   1    -0.00   0.00   0.01     0.00  -0.01   0.01    -0.01  -0.01   0.02
  16   1     0.00   0.01  -0.00     0.01   0.00  -0.00     0.03   0.02  -0.02
  17   6     0.00   0.00   0.00     0.02   0.11   0.02     0.05   0.14   0.02
  18   1     0.00   0.01   0.01     0.01   0.07   0.03     0.01   0.10   0.04
  19   1     0.01  -0.01   0.00     0.03   0.02   0.01     0.06   0.01   0.01
  20   1    -0.01   0.00  -0.01    -0.03   0.03  -0.01    -0.05   0.03  -0.04
  21   1    -0.01  -0.01   0.00    -0.00  -0.01  -0.01    -0.05  -0.00   0.00
  22   6     0.03   0.05   0.00    -0.01   0.02   0.03    -0.13  -0.02  -0.09
  23   8    -0.02   0.08  -0.01    -0.20   0.07   0.07    -0.17  -0.04   0.15
  24   7     0.06  -0.00  -0.02     0.01  -0.17  -0.07    -0.03  -0.24  -0.05
  25   1     0.00  -0.01  -0.01    -0.04  -0.07  -0.04     0.00  -0.11   0.05
  26   1     0.03  -0.01  -0.01     0.04  -0.05  -0.05     0.01  -0.06  -0.05
  27   7     0.08   0.07   0.03     0.17   0.11   0.08    -0.21   0.19  -0.39
  28   1     0.02   0.02  -0.00     0.06   0.03  -0.01    -0.04   0.05  -0.13
  29   1     0.02   0.02   0.00     0.04   0.05   0.03    -0.03   0.08  -0.07
  30   6    -0.02  -0.05  -0.01    -0.02   0.01   0.02     0.01   0.04   0.02
  31   8    -0.03  -0.04  -0.01    -0.05   0.01   0.03    -0.01   0.06   0.02
  32   7    -0.18   0.21  -0.17     0.03  -0.00   0.04     0.04   0.04   0.04
  33   1     0.21  -0.27   0.20    -0.03   0.05  -0.01     0.00   0.03   0.01
  34   1     0.26  -0.39   0.25    -0.02   0.05  -0.03     0.01   0.03  -0.00
  35   7     0.14  -0.21   0.13    -0.05  -0.00  -0.03     0.01   0.03   0.02
  36   1    -0.27   0.25  -0.26     0.04  -0.05   0.03     0.01  -0.00   0.02
  37   1    -0.20   0.20  -0.18     0.01  -0.04   0.02     0.01   0.01   0.01
  38   6     0.01   0.01  -0.00     0.04   0.04  -0.02    -0.01  -0.01   0.00
  39   8     0.00  -0.02  -0.01     0.02  -0.00  -0.04    -0.03  -0.05  -0.03
  40   7    -0.00   0.04   0.00    -0.00   0.11   0.04    -0.04   0.04  -0.01
  41   1    -0.01   0.01  -0.00    -0.02   0.03  -0.01    -0.02   0.01  -0.00
  42   1     0.00   0.02   0.00     0.01   0.05  -0.02    -0.01   0.02   0.01
  43   7     0.04   0.00   0.01     0.09   0.03   0.01     0.03  -0.01   0.02
  44   1     0.01   0.00  -0.00     0.03   0.02  -0.01     0.01  -0.00   0.01
  45   1     0.01   0.00  -0.00     0.04   0.00  -0.03     0.01  -0.01   0.01
  46   6    -0.03  -0.01  -0.01    -0.08  -0.05   0.00     0.06  -0.05   0.08
  47   8    -0.06  -0.02  -0.03    -0.06  -0.19  -0.08    -0.10  -0.01   0.07
  48   7     0.01   0.01  -0.03    -0.01  -0.21  -0.13     0.17   0.12   0.07
  49   1    -0.00   0.02  -0.01    -0.11   0.36   0.20     0.08  -0.10  -0.11
  50   1     0.00   0.03   0.01    -0.15   0.48   0.29     0.14  -0.18  -0.10
  51   7    -0.02  -0.03   0.03    -0.08  -0.05   0.05     0.09  -0.14   0.19
  52   1     0.00  -0.00   0.01     0.01  -0.13  -0.05     0.02   0.02   0.09
  53   1    -0.01  -0.01   0.01    -0.01  -0.10  -0.04     0.02  -0.01   0.07
                     28                     29                     30
                        a                      a                      a 
 Frequencies --   225.3177               239.9591               276.4600
 Red. masses --    11.4272                11.2555                 2.7918
 Frc consts  --     0.0000                 0.0000                 0.0000
 IR Inten    --     7.1439                 7.5896                 0.7863
 Raman Activ --     0.0000                 0.0000                 0.0000
 Depolar     --     0.0000                 0.0000                 0.0000
 Atom AN      X      Y      Z        X      Y      Z        X      Y      Z
   1   8    -0.61   0.01   0.12     0.26  -0.25   0.47     0.05  -0.05   0.09
   2   6     0.18  -0.07  -0.09     0.09  -0.21  -0.02     0.17  -0.06   0.00
   3   1     0.17   0.07  -0.12     0.02  -0.13  -0.04     0.10   0.00  -0.05
   4   1     0.13  -0.18   0.07     0.02  -0.06  -0.02     0.09  -0.06   0.07
   5   6    -0.03   0.04  -0.16    -0.02   0.07  -0.15    -0.10   0.00  -0.05
   6   1    -0.04   0.02  -0.09    -0.02   0.03  -0.05    -0.05   0.01  -0.04
   7   1    -0.04  -0.01  -0.00    -0.02   0.02  -0.02    -0.05  -0.01   0.02
   8   7    -0.02   0.03  -0.07    -0.00   0.10  -0.07    -0.07   0.02  -0.03
   9   6    -0.04   0.11   0.03    -0.01   0.19   0.02    -0.08   0.21   0.08
  10   1    -0.02   0.09   0.07    -0.02   0.13   0.08     0.01  -0.14  -0.23
  11   1     0.04   0.06  -0.04     0.06   0.09  -0.07    -0.13  -0.04   0.37
  12   1    -0.05  -0.04   0.02    -0.04  -0.04   0.02     0.04   0.43  -0.02
  13   6     0.04  -0.21  -0.01     0.07  -0.20   0.00     0.03  -0.11  -0.00
  14   1     0.05  -0.12  -0.01     0.08  -0.14  -0.01    -0.15   0.13  -0.05
  15   1     0.03  -0.03  -0.04     0.05  -0.02  -0.04    -0.06  -0.27   0.03
  16   1    -0.04  -0.08   0.06    -0.05  -0.08   0.07     0.27   0.02   0.02
  17   6    -0.06   0.12  -0.00    -0.08   0.28   0.03    -0.07  -0.04  -0.09
  18   1    -0.01   0.02  -0.03    -0.01   0.05  -0.04    -0.05   0.16   0.13
  19   1    -0.03   0.08  -0.01    -0.06   0.16  -0.01     0.14  -0.22   0.02
  20   1    -0.01   0.03   0.05    -0.02   0.07   0.10    -0.15  -0.00  -0.26
  21   1    -0.15  -0.05   0.00     0.05   0.00   0.17    -0.00  -0.01   0.04
  22   6     0.06   0.02  -0.03    -0.03  -0.00  -0.02     0.01  -0.00   0.01
  23   8    -0.02   0.05   0.01    -0.03  -0.01   0.01     0.02  -0.00   0.03
  24   7     0.08  -0.09  -0.10     0.00  -0.04   0.02    -0.00   0.01  -0.01
  25   1     0.00  -0.04  -0.02    -0.01  -0.01  -0.01     0.01  -0.00   0.01
  26   1     0.04  -0.03  -0.04    -0.00  -0.01  -0.01     0.00   0.00   0.00
  27   7     0.15   0.08  -0.02    -0.06   0.02  -0.07     0.01   0.01   0.00
  28   1     0.05   0.02  -0.00    -0.01   0.01  -0.03     0.00   0.00  -0.00
  29   1     0.01   0.04  -0.03     0.02  -0.00   0.02     0.01   0.00   0.00
  30   6    -0.01   0.00   0.01     0.00   0.00   0.00    -0.00  -0.00  -0.00
  31   8    -0.02   0.01   0.01     0.00   0.00   0.00    -0.00  -0.00  -0.00
  32   7     0.00   0.01   0.01     0.00   0.01   0.00    -0.00  -0.00   0.00
  33   1     0.00   0.01   0.01     0.00   0.00   0.00    -0.00   0.00  -0.00
  34   1     0.01   0.00   0.00     0.00   0.00   0.00    -0.00   0.00  -0.00
  35   7    -0.01  -0.02  -0.00     0.00   0.01   0.00    -0.00  -0.00  -0.00
  36   1    -0.00  -0.00  -0.01     0.00   0.00   0.00    -0.00   0.00  -0.00
  37   1    -0.01  -0.00  -0.01     0.00   0.00   0.00    -0.00  -0.00  -0.00
  38   6    -0.02  -0.01   0.01     0.02   0.01   0.01     0.01   0.00  -0.01
  39   8    -0.00   0.02   0.04     0.01  -0.02   0.02     0.01   0.00  -0.01
  40   7     0.01  -0.06  -0.01     0.01   0.03  -0.01     0.01  -0.01   0.01
  41   1     0.02  -0.02   0.01    -0.00   0.01   0.00     0.01  -0.00  -0.00
  42   1    -0.00  -0.03  -0.00     0.01   0.01  -0.00     0.00  -0.01   0.00
  43   7    -0.05  -0.00  -0.04     0.04  -0.00   0.04     0.01  -0.00   0.01
  44   1    -0.01  -0.01   0.01     0.01   0.01  -0.03     0.00   0.00  -0.01
  45   1    -0.01  -0.01   0.02     0.01   0.01  -0.02     0.00   0.00  -0.01
  46   6     0.11   0.02   0.08    -0.11  -0.02  -0.08    -0.01   0.00  -0.01
  47   8     0.20   0.05   0.13    -0.18  -0.05  -0.13    -0.01   0.00  -0.01
  48   7    -0.01  -0.11   0.16     0.04   0.14  -0.18     0.00   0.01  -0.02
  49   1    -0.00  -0.03   0.10     0.01   0.03  -0.12    -0.00   0.00  -0.01
  50   1    -0.05  -0.02   0.03     0.07   0.01  -0.04     0.01   0.00  -0.00
  51   7     0.09   0.06  -0.09    -0.08  -0.06   0.06    -0.01   0.00  -0.01
  52   1    -0.01   0.01  -0.04     0.00   0.00   0.04    -0.00   0.00   0.00
  53   1     0.04   0.04  -0.03    -0.04  -0.03   0.03    -0.00   0.00  -0.00
                     31                     32                     33
                        a                      a                      a 
 Frequencies --   312.0606               325.6371               343.3938
 Red. masses --     1.6838                 3.6914                 3.1094
 Frc consts  --     0.0000                 0.0000                 0.0000
 IR Inten    --     0.4696               358.4818                 4.9372
 Raman Activ --     0.0000                 0.0000                 0.0000
 Depolar     --     0.0000                 0.0000                 0.0000
 Atom AN      X      Y      Z        X      Y      Z        X      Y      Z
   1   8     0.01  -0.07  -0.09     0.01  -0.01  -0.00    -0.03  -0.17  -0.13
   2   6    -0.04  -0.05  -0.07    -0.00  -0.01   0.00     0.03  -0.14  -0.01
   3   1    -0.02  -0.03  -0.02    -0.00  -0.00   0.00     0.03  -0.03  -0.02
   4   1    -0.02  -0.01  -0.03    -0.00   0.00  -0.00     0.02  -0.04   0.02
   5   6     0.01  -0.00  -0.05    -0.00  -0.00  -0.00    -0.03  -0.04  -0.02
   6   1     0.01   0.00  -0.01    -0.00   0.00   0.00    -0.01   0.01   0.01
   7   1     0.01  -0.00  -0.03    -0.00  -0.00  -0.00    -0.01  -0.02  -0.00
   8   7     0.02   0.01   0.05     0.00   0.00   0.00     0.01   0.01  -0.01
   9   6     0.02   0.01   0.08     0.00   0.00  -0.00    -0.03  -0.09   0.03
  10   1    -0.05   0.23   0.28    -0.00   0.00   0.01     0.00  -0.00   0.06
  11   1     0.16   0.12  -0.29     0.00   0.00  -0.01    -0.00  -0.01  -0.05
  12   1    -0.09  -0.34   0.06    -0.00  -0.01   0.00    -0.03  -0.09   0.02
  13   6    -0.02   0.05   0.04     0.00   0.01  -0.00     0.03   0.17  -0.04
  14   1    -0.09   0.12  -0.00    -0.00   0.00   0.00    -0.27   0.38  -0.04
  15   1    -0.05  -0.10   0.05     0.00  -0.00  -0.00    -0.11  -0.32   0.08
  16   1     0.12   0.05  -0.02     0.00   0.00  -0.00     0.44   0.15  -0.08
  17   6    -0.03   0.08   0.07    -0.00   0.01   0.00    -0.04   0.19   0.14
  18   1    -0.05   0.32   0.29    -0.00   0.01   0.00     0.02  -0.11  -0.11
  19   1     0.27  -0.27   0.08     0.00   0.00   0.00    -0.15   0.29  -0.01
  20   1    -0.25   0.03  -0.32    -0.01   0.00  -0.00     0.09   0.04   0.30
  21   1     0.00  -0.01  -0.02    -0.00  -0.00   0.00    -0.01  -0.06  -0.04
  22   6    -0.00  -0.00  -0.01     0.01  -0.00   0.02     0.01  -0.00  -0.00
  23   8    -0.00  -0.00  -0.02    -0.01   0.01  -0.01     0.01   0.00   0.00
  24   7     0.00  -0.00   0.00    -0.03   0.03  -0.07     0.01   0.01  -0.01
  25   1    -0.00   0.00  -0.01     0.07  -0.04   0.12     0.01  -0.00   0.01
  26   1    -0.00   0.00  -0.00     0.05  -0.04   0.08     0.00   0.00   0.00
  27   7    -0.01  -0.01  -0.00     0.00  -0.01   0.01     0.00  -0.01  -0.00
  28   1    -0.00  -0.00   0.00     0.01  -0.01   0.02    -0.00  -0.00   0.00
  29   1    -0.01  -0.01  -0.01    -0.01  -0.00  -0.01    -0.00  -0.01  -0.01
  30   6     0.00  -0.00   0.00    -0.06   0.08  -0.07     0.00  -0.00  -0.00
  31   8     0.00   0.00  -0.00    -0.03   0.03  -0.01    -0.00   0.00  -0.00
  32   7    -0.00   0.00  -0.00     0.13  -0.22   0.12    -0.00   0.00  -0.00
  33   1     0.00  -0.00   0.00    -0.14   0.18  -0.12     0.00  -0.00   0.00
  34   1     0.00  -0.01   0.00    -0.23   0.36  -0.26     0.00  -0.00   0.00
  35   7    -0.00   0.01  -0.00     0.20  -0.18   0.18    -0.00   0.00  -0.00
  36   1     0.01  -0.01   0.01    -0.32   0.35  -0.35     0.00  -0.00   0.00
  37   1     0.00  -0.00   0.00    -0.18   0.18  -0.15     0.00  -0.00   0.00
  38   6    -0.00  -0.00  -0.01     0.00  -0.00   0.00    -0.00   0.01   0.01
  39   8    -0.00  -0.01  -0.02     0.00  -0.00   0.00     0.00   0.01   0.01
  40   7    -0.00  -0.01   0.01     0.00   0.00  -0.01     0.02   0.00  -0.04
  41   1     0.00  -0.00  -0.00    -0.00  -0.00   0.01    -0.00  -0.01   0.04
  42   1     0.00  -0.00  -0.00    -0.00   0.00   0.01    -0.02  -0.01   0.10
  43   7     0.01  -0.01   0.01     0.00   0.00  -0.00    -0.01   0.01   0.00
  44   1     0.01   0.00  -0.00     0.00  -0.00   0.00    -0.01   0.01  -0.03
  45   1     0.01  -0.00  -0.00     0.00  -0.00   0.00    -0.00   0.01  -0.00
  46   6     0.00   0.00   0.01     0.00  -0.01  -0.01     0.01   0.01   0.01
  47   8     0.00   0.00   0.01    -0.00  -0.01  -0.01     0.00   0.01   0.01
  48   7    -0.00  -0.01   0.01    -0.01   0.02   0.01    -0.00  -0.01   0.01
  49   1     0.00  -0.00   0.01    -0.00  -0.00  -0.00    -0.00  -0.00   0.01
  50   1    -0.00  -0.00   0.00     0.00  -0.00  -0.00    -0.01   0.00   0.01
  51   7     0.01  -0.00  -0.00    -0.01   0.03   0.02     0.01  -0.00  -0.01
  52   1    -0.00   0.00   0.00     0.02  -0.07  -0.04    -0.00   0.01   0.00
  53   1     0.00   0.00   0.00     0.00  -0.02  -0.01     0.00   0.01   0.00
                     34                     35                     36
                        a                      a                      a 
 Frequencies --   346.7542               348.8710               373.3398
 Red. masses --     3.6633                 7.6522                 8.7777
 Frc consts  --     0.0000                 0.0000                 0.0000
 IR Inten    --   128.0554                24.4505                 5.7199
 Raman Activ --     0.0000                 0.0000                 0.0000
 Depolar     --     0.0000                 0.0000                 0.0000
 Atom AN      X      Y      Z        X      Y      Z        X      Y      Z
   1   8     0.00   0.13   0.15    -0.01  -0.30  -0.32    -0.01  -0.26  -0.22
   2   6     0.02   0.09  -0.05    -0.03  -0.22   0.08     0.08  -0.21  -0.01
   3   1    -0.00   0.01  -0.01     0.02  -0.04   0.00    -0.00  -0.02   0.05
   4   1     0.00   0.01  -0.04     0.01  -0.04   0.07     0.01  -0.08  -0.05
   5   6     0.09   0.06  -0.06    -0.18  -0.10   0.08     0.35   0.01   0.00
   6   1     0.05  -0.01  -0.00    -0.10   0.02   0.00     0.18  -0.04   0.09
   7   1     0.04   0.04  -0.04    -0.08  -0.06   0.07     0.16   0.12  -0.06
   8   7    -0.02  -0.00  -0.02    -0.00   0.02   0.01     0.02   0.03  -0.01
   9   6    -0.05  -0.03   0.04     0.03   0.04  -0.08    -0.04   0.35   0.30
  10   1    -0.01   0.02   0.07     0.01  -0.05  -0.12    -0.02   0.13   0.11
  11   1     0.01   0.01  -0.04    -0.04  -0.02   0.06     0.08   0.11   0.16
  12   1    -0.05  -0.07   0.02     0.07   0.12  -0.04    -0.11   0.16   0.08
  13   6    -0.07  -0.08  -0.01     0.17   0.21  -0.02    -0.34   0.13  -0.02
  14   1    -0.12   0.07  -0.05     0.18  -0.03   0.08    -0.09  -0.01  -0.05
  15   1    -0.07  -0.16   0.04     0.11   0.22  -0.07    -0.11   0.13   0.08
  16   1     0.12   0.01   0.00    -0.10   0.03  -0.04    -0.20   0.02  -0.05
  17   6     0.05  -0.13  -0.06    -0.09   0.28   0.18     0.04  -0.06  -0.09
  18   1     0.01  -0.11  -0.05    -0.03   0.16   0.10     0.02  -0.07  -0.07
  19   1    -0.04  -0.01  -0.02     0.05   0.10   0.05    -0.05  -0.01  -0.03
  20   1     0.09  -0.03   0.02    -0.13   0.06   0.06     0.07  -0.01  -0.00
  21   1     0.00   0.05   0.05    -0.01  -0.11  -0.10     0.00  -0.10  -0.08
  22   6    -0.01  -0.00  -0.00     0.02   0.00   0.00    -0.02   0.01   0.00
  23   8    -0.00  -0.01  -0.01     0.01   0.01   0.01    -0.01  -0.00  -0.00
  24   7    -0.00  -0.01   0.00     0.01   0.02  -0.01    -0.01  -0.05   0.01
  25   1    -0.01  -0.00  -0.01     0.02   0.00   0.02    -0.03  -0.02  -0.02
  26   1    -0.00  -0.00  -0.00     0.00   0.00   0.01    -0.00  -0.01  -0.02
  27   7    -0.01   0.00  -0.00     0.01  -0.00   0.00    -0.02  -0.00   0.00
  28   1    -0.00  -0.00  -0.00     0.00  -0.00   0.01    -0.00  -0.00   0.00
  29   1     0.00   0.00   0.01    -0.01  -0.01  -0.01    -0.01   0.00  -0.01
  30   6    -0.00   0.00  -0.00     0.00  -0.00  -0.00    -0.00  -0.00  -0.00
  31   8    -0.00   0.00  -0.00    -0.00   0.00  -0.00    -0.00  -0.00  -0.00
  32   7     0.00  -0.00   0.00    -0.00  -0.00  -0.00     0.01   0.00   0.00
  33   1    -0.00   0.00  -0.00     0.00  -0.00  -0.00     0.00   0.00   0.00
  34   1    -0.00   0.01  -0.01     0.00  -0.00   0.00     0.00   0.01  -0.00
  35   7     0.00  -0.00   0.01    -0.00  -0.00  -0.00     0.00   0.00   0.01
  36   1    -0.01   0.01  -0.01     0.00  -0.00   0.00    -0.01   0.01  -0.00
  37   1    -0.00   0.00  -0.00     0.00  -0.00   0.00     0.00   0.00   0.00
  38   6     0.03  -0.00  -0.02     0.01  -0.01  -0.01     0.00  -0.01   0.01
  39   8     0.02   0.00  -0.00     0.01  -0.01  -0.00     0.00  -0.01   0.00
  40   7    -0.08  -0.03   0.30    -0.04  -0.02   0.16    -0.01   0.01  -0.01
  41   1     0.06   0.07  -0.28     0.04   0.03  -0.14    -0.01   0.00   0.00
  42   1     0.12   0.06  -0.71     0.06   0.03  -0.37    -0.00   0.01   0.01
  43   7    -0.02   0.01  -0.04     0.02  -0.01  -0.01    -0.01  -0.00  -0.01
  44   1     0.02  -0.06   0.23     0.02  -0.03   0.10     0.00  -0.01   0.03
  45   1    -0.00  -0.01   0.04     0.01  -0.01   0.02    -0.00  -0.00   0.01
  46   6    -0.01   0.00  -0.01     0.02   0.02   0.01     0.01   0.02   0.01
  47   8    -0.01  -0.00  -0.01     0.00   0.03   0.01    -0.00   0.02   0.01
  48   7     0.01   0.02  -0.02    -0.01  -0.02   0.02     0.00  -0.02   0.01
  49   1     0.00  -0.00  -0.01     0.00  -0.01   0.02     0.00  -0.01   0.01
  50   1     0.01  -0.01  -0.01    -0.01  -0.02  -0.01    -0.01  -0.00   0.00
  51   7    -0.00  -0.01  -0.00     0.02  -0.00  -0.01     0.01  -0.01  -0.00
  52   1    -0.00   0.03   0.02    -0.01   0.03   0.01    -0.00   0.02   0.01
  53   1    -0.00   0.00   0.01     0.00   0.02   0.00     0.00   0.01   0.01
                     37                     38                     39
                        a                      a                      a 
 Frequencies --   376.9425               393.9562               412.0678
 Red. masses --     8.2609                 3.0829                 2.9166
 Frc consts  --     0.0000                 0.0000                 0.0000
 IR Inten    --     1.9145               301.3378               204.5532
 Raman Activ --     0.0000                 0.0000                 0.0000
 Depolar     --     0.0000                 0.0000                 0.0000
 Atom AN      X      Y      Z        X      Y      Z        X      Y      Z
   1   8     0.00  -0.04   0.16     0.00  -0.01   0.01     0.01   0.02   0.03
   2   6     0.05  -0.05  -0.29     0.00  -0.01  -0.01    -0.01   0.01  -0.00
   3   1     0.04  -0.05  -0.14    -0.00  -0.00   0.00    -0.01  -0.00   0.00
   4   1     0.03  -0.06  -0.06    -0.00  -0.00  -0.01    -0.01   0.01  -0.01
   5   6    -0.10   0.06  -0.30     0.03   0.00  -0.01     0.01   0.01  -0.01
   6   1    -0.04   0.01  -0.12     0.01  -0.00   0.00    -0.00   0.00  -0.01
   7   1    -0.05  -0.02  -0.06     0.01   0.01  -0.01     0.00  -0.00  -0.00
   8   7    -0.04   0.06  -0.03     0.00   0.00  -0.00     0.01   0.00   0.01
   9   6    -0.22  -0.21   0.25    -0.00   0.01   0.02     0.01  -0.01   0.01
  10   1     0.04  -0.16   0.08    -0.00   0.01   0.01     0.00  -0.00   0.00
  11   1    -0.16  -0.10   0.14     0.01   0.01   0.00     0.00  -0.00  -0.00
  12   1    -0.11  -0.01   0.07    -0.01  -0.00   0.01     0.00  -0.01   0.00
  13   6    -0.01   0.29  -0.08    -0.02   0.01  -0.00    -0.01  -0.01   0.01
  14   1     0.06   0.06   0.04    -0.00  -0.00  -0.00    -0.00  -0.01  -0.00
  15   1     0.02   0.19  -0.03    -0.01   0.01   0.00    -0.00  -0.00   0.01
  16   1    -0.09   0.08  -0.09    -0.01   0.00  -0.00    -0.01  -0.01   0.01
  17   6     0.29  -0.11   0.28     0.01  -0.01  -0.00     0.01  -0.01  -0.01
  18   1     0.02  -0.09   0.19     0.00  -0.00  -0.00     0.00  -0.00  -0.01
  19   1     0.20  -0.04   0.08     0.00  -0.00  -0.00    -0.01  -0.01  -0.00
  20   1     0.14  -0.02   0.05     0.01  -0.00  -0.00     0.01  -0.00  -0.01
  21   1    -0.00   0.04   0.07    -0.02   0.00   0.02     0.00  -0.00   0.00
  22   6     0.01   0.00  -0.01     0.03  -0.00   0.05     0.00   0.00  -0.00
  23   8    -0.00   0.01  -0.00    -0.08   0.05  -0.07    -0.02   0.02  -0.04
  24   7     0.01   0.01   0.00    -0.09   0.08  -0.25    -0.04   0.04  -0.13
  25   1    -0.00   0.01  -0.01     0.33  -0.21   0.58     0.18  -0.12   0.32
  26   1    -0.00   0.00  -0.00     0.15  -0.12   0.27     0.08  -0.07   0.14
  27   7     0.01   0.01  -0.00     0.06  -0.07   0.08     0.02  -0.03   0.04
  28   1     0.01   0.00   0.00    -0.05   0.02  -0.01     0.00  -0.02   0.04
  29   1     0.01   0.00   0.01    -0.08   0.00  -0.06    -0.05  -0.02  -0.04
  30   6    -0.00   0.00   0.00     0.00   0.01  -0.01     0.00   0.01  -0.01
  31   8     0.00  -0.00   0.00    -0.01   0.03  -0.02    -0.01   0.02  -0.01
  32   7    -0.00  -0.00   0.00    -0.03   0.03  -0.03    -0.02  -0.01  -0.01
  33   1    -0.00  -0.00  -0.00     0.01  -0.03   0.01     0.01  -0.02   0.01
  34   1    -0.00   0.00  -0.00     0.05  -0.09   0.07    -0.02   0.02  -0.01
  35   7     0.00  -0.00  -0.00    -0.03   0.03  -0.04     0.01  -0.01  -0.00
  36   1    -0.00   0.00  -0.00     0.10  -0.11   0.11     0.03  -0.03   0.03
  37   1    -0.00  -0.00  -0.00     0.01   0.01  -0.00    -0.02   0.02  -0.02
  38   6     0.00   0.00  -0.00     0.00  -0.00  -0.00    -0.02   0.02  -0.03
  39   8    -0.00   0.00  -0.01     0.01  -0.01  -0.00    -0.01   0.03  -0.02
  40   7     0.00   0.01  -0.01    -0.00   0.01   0.01    -0.01  -0.02   0.03
  41   1    -0.01   0.00   0.01    -0.00   0.00  -0.01     0.01  -0.00  -0.01
  42   1    -0.00   0.00   0.04     0.00   0.01  -0.01    -0.01  -0.02  -0.01
  43   7    -0.01   0.00  -0.00    -0.00  -0.01   0.00     0.02  -0.02   0.06
  44   1    -0.00  -0.00   0.01    -0.00  -0.00  -0.00    -0.02   0.04  -0.19
  45   1    -0.00   0.00   0.00    -0.00   0.00   0.01     0.01   0.01  -0.02
  46   6    -0.01  -0.01  -0.00     0.01  -0.07  -0.02    -0.03   0.09   0.06
  47   8     0.00  -0.01  -0.00    -0.02  -0.04  -0.00     0.00   0.03   0.04
  48   7     0.00   0.01  -0.02     0.00   0.09   0.04     0.04  -0.13  -0.08
  49   1    -0.00   0.00  -0.01     0.01  -0.02  -0.03    -0.03   0.11   0.05
  50   1     0.01   0.01   0.00     0.04  -0.05  -0.03    -0.01   0.05   0.03
  51   7    -0.01  -0.00  -0.00    -0.04   0.14   0.06     0.03  -0.23  -0.12
  52   1    -0.00   0.01   0.01     0.08  -0.35  -0.19    -0.17   0.67   0.35
  53   1    -0.00   0.00   0.00     0.01  -0.06  -0.05     0.01   0.09   0.03
                     40                     41                     42
                        a                      a                      a 
 Frequencies --   428.0588               444.6309               457.4009
 Red. masses --     3.2417                 1.5408                 8.5396
 Frc consts  --     0.0000                 0.0000                 0.0000
 IR Inten    --   280.3277                 4.1071                 8.5731
 Raman Activ --     0.0000                 0.0000                 0.0000
 Depolar     --     0.0000                 0.0000                 0.0000
 Atom AN      X      Y      Z        X      Y      Z        X      Y      Z
   1   8    -0.01   0.00  -0.02    -0.00   0.00  -0.00    -0.00  -0.00  -0.01
   2   6    -0.00  -0.00  -0.02     0.00   0.00  -0.00    -0.01  -0.00   0.01
   3   1     0.00   0.00  -0.00     0.00   0.00  -0.00    -0.00   0.00   0.00
   4   1    -0.00  -0.00  -0.01     0.00  -0.00   0.00    -0.00   0.00   0.00
   5   6     0.00  -0.01  -0.01     0.00  -0.00  -0.00    -0.01  -0.00   0.01
   6   1    -0.00   0.00  -0.01     0.00  -0.00   0.00    -0.01   0.01  -0.00
   7   1    -0.01  -0.01   0.00     0.00   0.00  -0.00    -0.01  -0.01   0.01
   8   7     0.03  -0.00   0.00    -0.00  -0.00   0.00     0.03   0.01  -0.01
   9   6     0.02  -0.01   0.03    -0.00   0.00  -0.00     0.01  -0.01   0.02
  10   1     0.01  -0.01   0.01    -0.00   0.00  -0.00     0.01  -0.01   0.01
  11   1     0.00  -0.00   0.02    -0.00   0.00  -0.00    -0.00  -0.00   0.01
  12   1    -0.00   0.00   0.01     0.00   0.00  -0.00    -0.01  -0.00   0.01
  13   6    -0.04   0.01   0.00     0.00   0.00   0.00    -0.02  -0.01  -0.01
  14   1    -0.02   0.00  -0.01     0.00   0.00   0.00    -0.01  -0.01  -0.02
  15   1    -0.02   0.01   0.02     0.00   0.00  -0.00    -0.01  -0.00   0.01
  16   1    -0.02   0.00  -0.01     0.00   0.00  -0.00    -0.01  -0.00   0.00
  17   6     0.02   0.00  -0.02    -0.00  -0.00   0.00     0.02   0.02  -0.02
  18   1     0.01  -0.00  -0.02    -0.00  -0.00   0.00     0.01   0.01  -0.01
  19   1    -0.01   0.01  -0.01    -0.00  -0.00   0.00     0.00   0.01  -0.01
  20   1     0.01   0.00   0.00    -0.00  -0.00   0.00     0.00   0.01  -0.01
  21   1    -0.02   0.00   0.02     0.00   0.00  -0.00    -0.00  -0.00  -0.00
  22   6     0.00  -0.00   0.01     0.00   0.01   0.00    -0.02  -0.05  -0.01
  23   8     0.01  -0.00   0.01     0.01   0.01   0.00    -0.02  -0.06   0.01
  24   7     0.01  -0.02   0.03     0.01  -0.01   0.01    -0.03   0.03   0.03
  25   1    -0.05   0.03  -0.08    -0.04   0.01  -0.06    -0.00   0.05  -0.03
  26   1    -0.02   0.01  -0.04     0.01   0.00  -0.01    -0.03   0.01   0.03
  27   7     0.00   0.01  -0.00    -0.01  -0.00   0.00     0.04   0.02  -0.04
  28   1     0.00  -0.00   0.00    -0.01   0.01  -0.01     0.03   0.00  -0.03
  29   1     0.01   0.00   0.01     0.01  -0.00   0.01     0.02   0.03   0.01
  30   6    -0.00  -0.00   0.00    -0.03  -0.04  -0.03     0.15   0.24   0.15
  31   8     0.00  -0.00   0.00    -0.03  -0.05  -0.03     0.16   0.27   0.16
  32   7     0.01   0.00   0.00    -0.01   0.09  -0.09    -0.37  -0.14   0.11
  33   1    -0.01   0.01  -0.00     0.29  -0.26   0.32    -0.05  -0.28  -0.10
  34   1     0.01  -0.00   0.00    -0.14   0.34  -0.31    -0.31   0.02   0.14
  35   7    -0.00   0.00   0.00     0.04  -0.07   0.11     0.18  -0.19  -0.32
  36   1    -0.01   0.01  -0.01     0.16  -0.25   0.33     0.26  -0.10  -0.19
  37   1     0.01  -0.01   0.01    -0.21   0.41  -0.23    -0.21  -0.13  -0.17
  38   6    -0.04   0.04  -0.09    -0.00   0.00  -0.00    -0.00   0.00  -0.00
  39   8    -0.02   0.08  -0.08    -0.00   0.00  -0.00    -0.00  -0.00  -0.00
  40   7    -0.06  -0.06   0.18    -0.00  -0.00   0.00     0.00  -0.00  -0.00
  41   1     0.04   0.01  -0.09     0.00   0.00  -0.00     0.01  -0.00   0.01
  42   1     0.00  -0.03  -0.17    -0.00  -0.00  -0.00    -0.00  -0.00  -0.01
  43   7     0.11  -0.08   0.26     0.00  -0.00   0.00     0.01   0.00   0.00
  44   1    -0.10   0.16  -0.83    -0.00   0.00  -0.01     0.00   0.00   0.00
  45   1    -0.01   0.05   0.01    -0.00   0.00   0.00     0.00  -0.00   0.00
  46   6     0.02  -0.04   0.01     0.00  -0.00  -0.00    -0.00  -0.00   0.00
  47   8     0.01  -0.03   0.01     0.00   0.00  -0.00    -0.00  -0.00   0.00
  48   7    -0.02   0.02   0.05    -0.01   0.00   0.00     0.00   0.00   0.00
  49   1    -0.02   0.05   0.03     0.00  -0.01  -0.00     0.00  -0.01  -0.01
  50   1     0.03  -0.11  -0.06    -0.00  -0.00  -0.00     0.00   0.00   0.00
  51   7    -0.02   0.08   0.01     0.00   0.01   0.01    -0.00   0.00  -0.00
  52   1     0.02  -0.13  -0.08     0.01  -0.03  -0.02     0.00  -0.01  -0.01
  53   1     0.01  -0.01  -0.02    -0.00  -0.00   0.00     0.00   0.00  -0.00
                     43                     44                     45
                        a                      a                      a 
 Frequencies --   465.0230               467.3734               472.7509
 Red. masses --     6.4865                 1.7933                 9.0061
 Frc consts  --     0.0000                 0.0000                 0.0000
 IR Inten    --    15.6120                 0.7585                 2.6180
 Raman Activ --     0.0000                 0.0000                 0.0000
 Depolar     --     0.0000                 0.0000                 0.0000
 Atom AN      X      Y      Z        X      Y      Z        X      Y      Z
   1   8     0.00  -0.01   0.02    -0.01   0.00  -0.01     0.02   0.01  -0.10
   2   6    -0.03  -0.00  -0.06     0.00   0.00  -0.00    -0.07   0.03   0.32
   3   1     0.00  -0.02  -0.04     0.00   0.00  -0.00    -0.02   0.04   0.11
   4   1     0.00   0.00   0.00     0.00  -0.00  -0.00    -0.03   0.06   0.10
   5   6    -0.13  -0.04  -0.04     0.00  -0.00  -0.00    -0.11   0.04   0.21
   6   1    -0.12   0.04  -0.08     0.00  -0.00   0.00    -0.08   0.08   0.06
   7   1    -0.09  -0.12   0.04     0.00   0.00  -0.00    -0.06  -0.01   0.11
   8   7     0.22   0.03   0.07    -0.00  -0.00   0.00     0.12   0.11  -0.33
   9   6     0.19  -0.10   0.14     0.00   0.00  -0.00    -0.16  -0.11   0.18
  10   1     0.08  -0.06   0.03    -0.00   0.00  -0.00     0.06  -0.06   0.17
  11   1     0.01  -0.05   0.06     0.00   0.00  -0.00    -0.07  -0.04   0.08
  12   1     0.04  -0.01   0.04     0.00   0.00  -0.00    -0.21  -0.05   0.06
  13   6    -0.18   0.03   0.07     0.00   0.00  -0.00    -0.07  -0.25  -0.29
  14   1    -0.09  -0.01  -0.06     0.00   0.00   0.00    -0.04  -0.12  -0.17
  15   1    -0.09   0.03   0.11     0.00   0.00  -0.00    -0.04  -0.11  -0.05
  16   1    -0.10   0.00  -0.00     0.00   0.00  -0.00    -0.03  -0.09   0.01
  17   6     0.02   0.10  -0.17    -0.01  -0.00   0.00     0.31   0.19  -0.07
  18   1     0.04   0.07  -0.11    -0.00   0.00   0.00     0.05   0.04   0.07
  19   1    -0.07   0.01  -0.05    -0.00   0.00   0.00     0.19   0.09  -0.02
  20   1    -0.03   0.02  -0.05    -0.00  -0.00   0.00     0.07   0.05   0.00
  21   1    -0.00   0.02   0.02    -0.00  -0.00  -0.00     0.01  -0.04  -0.05
  22   6     0.01  -0.01  -0.01     0.01  -0.01   0.02     0.01  -0.03  -0.02
  23   8    -0.01   0.00   0.01    -0.01   0.00   0.00    -0.03  -0.01   0.00
  24   7     0.01   0.02  -0.00    -0.00   0.01   0.01     0.00   0.05   0.01
  25   1     0.02   0.01   0.01    -0.02   0.02  -0.04     0.02   0.03   0.01
  26   1    -0.00   0.00   0.01    -0.00   0.00  -0.00    -0.02   0.01   0.03
  27   7     0.01  -0.00  -0.01     0.01  -0.01   0.01     0.03  -0.00  -0.02
  28   1     0.00   0.00  -0.01    -0.01   0.01  -0.01     0.01  -0.00  -0.01
  29   1     0.02  -0.01   0.01    -0.00   0.01  -0.00     0.02   0.00   0.01
  30   6    -0.01  -0.01  -0.01    -0.00  -0.00   0.00    -0.01  -0.02  -0.01
  31   8    -0.01  -0.02  -0.01     0.00  -0.00   0.00    -0.01  -0.02  -0.01
  32   7     0.02   0.01  -0.01    -0.00   0.00   0.00     0.02   0.01  -0.01
  33   1     0.00   0.01   0.01     0.00  -0.00   0.00     0.01   0.01   0.01
  34   1     0.02  -0.00  -0.01    -0.00   0.00  -0.00     0.02  -0.00  -0.01
  35   7    -0.01   0.01   0.02    -0.00  -0.00  -0.00    -0.01   0.01   0.02
  36   1    -0.01   0.00   0.01     0.00  -0.00   0.00    -0.01   0.00   0.02
  37   1     0.01   0.01   0.01    -0.00   0.00  -0.00     0.01   0.02   0.01
  38   6    -0.13   0.14  -0.01     0.02  -0.01  -0.01     0.02  -0.02  -0.01
  39   8    -0.23  -0.02  -0.05     0.03  -0.01   0.01     0.04  -0.00   0.00
  40   7     0.08  -0.17  -0.08     0.01   0.05  -0.04    -0.01   0.03   0.01
  41   1     0.23  -0.14   0.40    -0.02  -0.02   0.12    -0.03   0.01  -0.02
  42   1    -0.06  -0.25  -0.23     0.01   0.02  -0.01     0.01   0.03   0.02
  43   7     0.20   0.15   0.06    -0.05  -0.01  -0.01    -0.04  -0.02  -0.00
  44   1     0.12   0.11   0.12     0.00  -0.04   0.12    -0.02  -0.02  -0.01
  45   1     0.12  -0.04  -0.05    -0.01   0.00  -0.05    -0.02   0.01  -0.00
  46   6    -0.00   0.02  -0.04    -0.00  -0.09  -0.01     0.02   0.02  -0.02
  47   8     0.01   0.03  -0.03     0.03  -0.10   0.00    -0.01   0.02  -0.04
  48   7    -0.05  -0.01  -0.01     0.04  -0.02  -0.01    -0.04  -0.02   0.02
  49   1    -0.01  -0.02   0.02    -0.17   0.64   0.29    -0.01  -0.01   0.05
  50   1    -0.04  -0.00  -0.01     0.21  -0.48  -0.27    -0.04  -0.02  -0.02
  51   7     0.02  -0.02   0.06    -0.07   0.15   0.03     0.04  -0.00   0.03
  52   1     0.04  -0.02   0.02    -0.06   0.06   0.01     0.03   0.01   0.02
  53   1    -0.02  -0.03   0.03     0.04  -0.10  -0.11     0.00  -0.02   0.01
                     46                     47                     48
                        a                      a                      a 
 Frequencies --   475.8034               480.3337               486.1118
 Red. masses --     4.7203                 7.9055                 8.5412
 Frc consts  --     0.0000                 0.0000                 0.0000
 IR Inten    --    15.5270                27.0190                18.9305
 Raman Activ --     0.0000                 0.0000                 0.0000
 Depolar     --     0.0000                 0.0000                 0.0000
 Atom AN      X      Y      Z        X      Y      Z        X      Y      Z
   1   8    -0.00  -0.01   0.02     0.01   0.00   0.03    -0.02   0.03  -0.05
   2   6    -0.03  -0.01  -0.09     0.02  -0.00   0.02     0.00   0.02   0.08
   3   1     0.01  -0.02  -0.05    -0.00   0.00   0.02    -0.01   0.03   0.04
   4   1     0.00  -0.00   0.00     0.00  -0.01  -0.01    -0.01   0.01   0.01
   5   6    -0.15  -0.04  -0.06     0.08   0.02   0.01     0.08  -0.00   0.06
   6   1    -0.13   0.04  -0.09     0.06  -0.02   0.04     0.06  -0.02   0.05
   7   1    -0.10  -0.12   0.04     0.05   0.06  -0.02     0.04   0.05  -0.00
   8   7     0.22   0.03   0.10    -0.11  -0.02  -0.02    -0.09  -0.03  -0.10
   9   6     0.21  -0.11   0.12    -0.09   0.05  -0.07    -0.12   0.05  -0.03
  10   1     0.08  -0.06   0.02    -0.04   0.03  -0.02    -0.03   0.03   0.01
  11   1     0.01  -0.05   0.05    -0.00   0.02  -0.03     0.00   0.02  -0.00
  12   1     0.06  -0.02   0.03    -0.02   0.01  -0.02    -0.06   0.01  -0.01
  13   6    -0.18   0.05   0.11     0.09  -0.01  -0.03     0.08  -0.04  -0.11
  14   1    -0.09  -0.00  -0.05     0.05   0.01   0.03     0.04  -0.01   0.00
  15   1    -0.09   0.03   0.12     0.04  -0.01  -0.05     0.04  -0.02  -0.07
  16   1    -0.09   0.01   0.01     0.05   0.00  -0.00     0.04  -0.01  -0.02
  17   6    -0.01   0.11  -0.19    -0.01  -0.07   0.09     0.03  -0.03   0.09
  18   1     0.04   0.07  -0.12    -0.02  -0.04   0.05    -0.02  -0.03   0.07
  19   1    -0.09   0.00  -0.05     0.03  -0.01   0.02     0.07   0.02   0.02
  20   1    -0.04   0.03  -0.06     0.02  -0.02   0.03     0.02  -0.01   0.04
  21   1     0.00   0.01   0.01     0.01   0.00  -0.00    -0.01  -0.01  -0.01
  22   6     0.01  -0.01  -0.00    -0.01   0.02  -0.01    -0.00  -0.00   0.02
  23   8    -0.02  -0.00   0.01     0.00   0.01  -0.01     0.01  -0.01  -0.01
  24   7     0.01   0.03   0.00     0.00  -0.02  -0.01    -0.01  -0.00   0.01
  25   1     0.01   0.02  -0.01     0.01  -0.03   0.03    -0.02   0.01  -0.02
  26   1    -0.01   0.01   0.01     0.02  -0.02   0.01    -0.01   0.00  -0.01
  27   7     0.02  -0.00  -0.01    -0.04   0.00  -0.01     0.02  -0.00   0.02
  28   1     0.01  -0.00   0.00    -0.03   0.03  -0.05     0.01  -0.01   0.03
  29   1     0.01  -0.00  -0.00     0.05  -0.00   0.05    -0.04   0.01  -0.03
  30   6    -0.01  -0.01  -0.01     0.01   0.01   0.01    -0.00   0.00  -0.00
  31   8    -0.01  -0.01  -0.01     0.01   0.01   0.01     0.00   0.00  -0.00
  32   7     0.01   0.00  -0.00    -0.01  -0.00   0.00    -0.00  -0.00   0.00
  33   1     0.00   0.01   0.01    -0.01   0.00  -0.01     0.01  -0.01   0.01
  34   1     0.01   0.00  -0.01    -0.00  -0.01   0.02    -0.00   0.01  -0.01
  35   7    -0.01   0.00   0.01     0.01  -0.00  -0.01    -0.00  -0.00   0.00
  36   1    -0.01   0.00   0.01     0.01  -0.01  -0.00    -0.00   0.01  -0.01
[...]
  44   1     0.11  -0.05  -0.02    -0.00   0.00   0.00     0.00  -0.00   0.00
  45   1    -0.75  -0.45  -0.16     0.01   0.00   0.00    -0.00  -0.00   0.00
  46   6     0.00   0.01  -0.02     0.00  -0.00   0.00    -0.00  -0.00   0.00
  47   8    -0.00  -0.01   0.01    -0.00   0.00  -0.00    -0.00   0.00  -0.00
  48   7    -0.00  -0.00   0.00    -0.00   0.00  -0.00    -0.00   0.00  -0.00
  49   1     0.03   0.01  -0.00    -0.00  -0.00   0.00     0.00   0.00  -0.00
  50   1    -0.00  -0.01   0.01     0.00   0.00  -0.00    -0.00  -0.00   0.00
  51   7    -0.05   0.01  -0.04     0.04  -0.01   0.03    -0.01   0.00  -0.00
  52   1     0.00   0.02  -0.02    -0.01  -0.02   0.03     0.00   0.00  -0.01
  53   1     0.18  -0.07   0.18    -0.15   0.06  -0.14     0.03  -0.01   0.03
                    142                    143                    144
                        a                      a                      a 
 Frequencies --  3425.2015              3493.0222              3499.0617
 Red. masses --     1.6302                 1.4550                 1.4373
 Frc consts  --     0.0000                 0.0000                 0.0000
 IR Inten    --   399.2880                16.5311                41.3099
 Raman Activ --     0.0000                 0.0000                 0.0000
 Depolar     --     0.0000                 0.0000                 0.0000
 Atom AN      X      Y      Z        X      Y      Z        X      Y      Z
   1   8    -0.00   0.00  -0.00     0.00   0.00   0.00     0.00   0.00   0.00
   2   6     0.00   0.00  -0.00    -0.00  -0.00  -0.00    -0.00  -0.00  -0.00
   3   1     0.00  -0.00   0.00     0.00  -0.00   0.00     0.00  -0.00   0.00
   4   1    -0.00  -0.00   0.00    -0.00  -0.00  -0.00     0.00   0.00  -0.00
   5   6    -0.00  -0.00   0.00     0.00   0.00   0.00    -0.00  -0.00   0.00
   6   1     0.01   0.00  -0.00    -0.00  -0.00   0.00     0.00   0.00  -0.00
   7   1     0.00  -0.00   0.00    -0.00  -0.00  -0.00    -0.00   0.00  -0.00
   8   7    -0.00  -0.00  -0.00    -0.00  -0.00   0.00    -0.00   0.00   0.00
   9   6    -0.00  -0.00   0.00     0.00   0.00  -0.00    -0.00  -0.00  -0.00
  10   1     0.00   0.00  -0.00    -0.00  -0.00   0.00     0.00   0.00  -0.00
  11   1    -0.00  -0.00  -0.00     0.00  -0.00   0.00    -0.00   0.00   0.00
  12   1    -0.00   0.00   0.00     0.00   0.00  -0.00    -0.00  -0.00   0.00
  13   6    -0.00  -0.00   0.00     0.00  -0.00   0.00    -0.00  -0.00  -0.00
  14   1     0.00   0.00  -0.00    -0.00  -0.00   0.00     0.00  -0.00  -0.00
  15   1     0.00   0.00   0.00    -0.00   0.00  -0.00     0.00  -0.00  -0.00
  16   1     0.00  -0.00  -0.00     0.00  -0.00   0.00    -0.00   0.00   0.00
  17   6    -0.00   0.00  -0.00     0.00  -0.00   0.00     0.00  -0.00  -0.00
  18   1     0.00  -0.00   0.00    -0.00   0.00  -0.00    -0.00  -0.00  -0.00
  19   1     0.00   0.00   0.00     0.00  -0.00   0.00    -0.00  -0.00   0.00
  20   1     0.00  -0.00  -0.00     0.00  -0.00   0.00    -0.00   0.00   0.00
  21   1     0.00  -0.00   0.00    -0.00   0.00  -0.00    -0.00   0.00  -0.00
  22   6     0.01   0.01   0.00    -0.00  -0.00   0.00     0.00  -0.00  -0.00
  23   8    -0.00  -0.01  -0.00     0.00   0.00  -0.00    -0.00   0.00   0.00
  24   7     0.12   0.16   0.01     0.00   0.00  -0.00     0.00   0.00   0.00
  25   1    -0.17   0.19   0.16    -0.00   0.00   0.00    -0.00   0.00   0.00
  26   1    -0.27  -0.80  -0.21    -0.00  -0.00  -0.00    -0.00  -0.00  -0.00
  27   7     0.04   0.07   0.01     0.00   0.00  -0.00    -0.00  -0.00   0.00
  28   1    -0.15  -0.27  -0.07    -0.00  -0.00  -0.00     0.00   0.00  -0.00
  29   1    -0.01  -0.01   0.02    -0.00  -0.00   0.00     0.00  -0.00  -0.00
  30   6     0.00   0.01   0.00    -0.00  -0.00   0.00    -0.00  -0.00   0.00
  31   8    -0.00  -0.00  -0.00     0.00   0.00   0.00    -0.00   0.00   0.00
  32   7    -0.00  -0.00   0.00    -0.00   0.00   0.00    -0.03   0.04   0.10
  33   1     0.02   0.01  -0.01     0.00   0.00  -0.00     0.36   0.17  -0.16
  34   1    -0.01  -0.01  -0.01    -0.00  -0.00  -0.00    -0.24  -0.33  -0.24
  35   7     0.00  -0.00  -0.00     0.00   0.00  -0.00    -0.11  -0.07   0.05
  36   1    -0.00  -0.01  -0.00    -0.00  -0.00  -0.00     0.22   0.45   0.24
  37   1    -0.01   0.01   0.02    -0.00   0.00   0.00     0.19  -0.18  -0.43
  38   6     0.00  -0.00   0.00    -0.00   0.00  -0.00    -0.00  -0.00  -0.00
  39   8    -0.00   0.00  -0.00     0.00  -0.00   0.00    -0.00   0.00   0.00
  40   7    -0.00   0.00   0.00    -0.16  -0.07  -0.06     0.00   0.00   0.00
  41   1     0.00  -0.00  -0.00    -0.02   0.65   0.14     0.00  -0.00  -0.00
  42   1    -0.00   0.00  -0.00     0.62  -0.37   0.08    -0.00   0.00  -0.00
  43   7    -0.00  -0.00  -0.00     0.01  -0.00  -0.00    -0.00   0.00   0.00
  44   1    -0.00   0.00   0.00    -0.03   0.02   0.01     0.00  -0.00  -0.00
  45   1     0.00   0.00   0.00    -0.01  -0.01  -0.00    -0.00  -0.00  -0.00
  46   6     0.00  -0.00   0.00    -0.00  -0.00  -0.00    -0.00   0.00  -0.00
  47   8    -0.00   0.00  -0.00     0.00   0.00   0.00    -0.00  -0.00   0.00
  48   7    -0.00   0.00   0.00    -0.00   0.00  -0.00    -0.00   0.00  -0.00
  49   1    -0.00  -0.00  -0.00     0.01   0.00  -0.00     0.00   0.00  -0.00
  50   1     0.00   0.00  -0.00    -0.00  -0.00   0.01    -0.00  -0.00   0.00
  51   7    -0.01   0.00  -0.00     0.00  -0.00   0.00     0.00   0.00   0.00
  52   1     0.00   0.01  -0.01    -0.00  -0.00   0.00    -0.00  -0.00   0.00
  53   1     0.03  -0.01   0.03    -0.00   0.00  -0.00    -0.00   0.00  -0.00
                    145                    146                    147
                        a                      a                      a 
 Frequencies --  3503.0244              3503.4041              3520.8495
 Red. masses --     1.4479                 1.4626                 1.9073
 Frc consts  --     0.0000                 0.0000                 0.0000
 IR Inten    --    22.4693                 5.1109                11.7316
 Raman Activ --     0.0000                 0.0000                 0.0000
 Depolar     --     0.0000                 0.0000                 0.0000
 Atom AN      X      Y      Z        X      Y      Z        X      Y      Z
   1   8     0.00  -0.00   0.00    -0.00  -0.00  -0.00    -0.00   0.00  -0.00
   2   6     0.00   0.00  -0.00     0.00   0.00  -0.00    -0.00  -0.00   0.00
   3   1     0.00  -0.00   0.00     0.00  -0.00   0.00     0.00   0.00   0.00
   4   1    -0.00  -0.00   0.00    -0.00  -0.00   0.00     0.00   0.00  -0.00
   5   6    -0.00  -0.00  -0.00     0.00   0.00  -0.00     0.00  -0.00   0.00
   6   1    -0.00   0.00  -0.00    -0.00  -0.00   0.00    -0.00  -0.00   0.00
   7   1     0.00   0.00   0.00     0.00   0.00   0.00    -0.00   0.00  -0.00
   8   7     0.00  -0.00  -0.00    -0.00  -0.00  -0.00     0.00  -0.00   0.00
   9   6    -0.00  -0.00   0.00     0.00   0.00  -0.00     0.00   0.00  -0.00
  10   1    -0.00   0.00  -0.00    -0.00  -0.00   0.00    -0.00  -0.00   0.00
  11   1     0.00  -0.00  -0.00     0.00  -0.00  -0.00     0.00  -0.00  -0.00
  12   1     0.00   0.00  -0.00    -0.00   0.00  -0.00     0.00  -0.00   0.00
  13   6    -0.00   0.00  -0.00     0.00   0.00   0.00    -0.00   0.00  -0.00
  14   1    -0.00   0.00   0.00    -0.00  -0.00   0.00    -0.00  -0.00   0.00
  15   1     0.00   0.00   0.00     0.00   0.00   0.00    -0.00   0.00   0.00
  16   1     0.00  -0.00  -0.00     0.00  -0.00  -0.00     0.00   0.00   0.00
  17   6    -0.00   0.00  -0.00    -0.00   0.00   0.00     0.00  -0.00   0.00
  18   1     0.00  -0.00   0.00     0.00   0.00   0.00     0.00   0.00  -0.00
  19   1    -0.00  -0.00  -0.00    -0.00   0.00  -0.00     0.00  -0.00  -0.00
  20   1    -0.00  -0.00   0.00     0.00  -0.00  -0.00     0.00   0.00   0.00
  21   1    -0.01   0.00  -0.01     0.00  -0.00   0.00     0.00  -0.00   0.00
  22   6    -0.00   0.00  -0.00     0.00  -0.00   0.00     0.00  -0.00  -0.00
  23   8     0.00  -0.00   0.00    -0.00  -0.00  -0.00     0.00   0.00  -0.00
  24   7    -0.00   0.00   0.00     0.00   0.00  -0.00    -0.00   0.00   0.00
  25   1     0.00  -0.00  -0.00    -0.01   0.01   0.01     0.00  -0.00  -0.00
  26   1     0.00   0.00   0.00    -0.01  -0.02  -0.01     0.00   0.00   0.00
  27   7     0.00  -0.00  -0.00     0.00   0.01   0.00    -0.00  -0.00  -0.00
  28   1     0.00   0.00   0.00    -0.01  -0.02  -0.00     0.00   0.00   0.00
  29   1    -0.00  -0.00   0.00    -0.00  -0.00   0.00     0.00  -0.00   0.00
  30   6     0.00   0.00   0.00    -0.00  -0.00  -0.00     0.00   0.00   0.00
  31   8    -0.00  -0.00  -0.00     0.00   0.00   0.00    -0.00  -0.00  -0.00
  32   7    -0.00   0.00   0.01     0.04  -0.05  -0.13     0.00   0.00  -0.00
  33   1     0.02   0.01  -0.01    -0.44  -0.20   0.19    -0.00  -0.00   0.00
  34   1    -0.01  -0.02  -0.01     0.28   0.37   0.28    -0.00  -0.00  -0.00
  35   7     0.01   0.00  -0.00    -0.10  -0.06   0.05    -0.00  -0.00   0.00
  36   1    -0.01  -0.02  -0.01     0.18   0.37   0.20     0.00   0.00   0.00
  37   1    -0.01   0.01   0.02     0.17  -0.15  -0.37     0.00  -0.00  -0.00
  38   6     0.00  -0.00   0.00     0.00  -0.00   0.00     0.01   0.00  -0.00
  39   8    -0.00   0.00  -0.00    -0.00   0.00  -0.00    -0.00   0.00   0.00
  40   7     0.00   0.00   0.00    -0.00   0.00  -0.00    -0.00   0.02   0.00
  41   1     0.00  -0.01  -0.00    -0.00   0.00   0.00     0.00  -0.08  -0.02
  42   1    -0.01   0.00  -0.00     0.00  -0.00   0.00     0.01  -0.01   0.00
  43   7    -0.01  -0.00  -0.00    -0.00   0.00  -0.00     0.24  -0.10  -0.05
  44   1     0.01  -0.01  -0.00     0.00  -0.00  -0.00    -0.83   0.43   0.21
  45   1     0.02   0.01   0.00     0.00   0.00   0.00    -0.07  -0.06  -0.03
  46   6    -0.00   0.00  -0.00    -0.00   0.00  -0.00     0.00   0.00  -0.00
  47   8    -0.00  -0.00   0.00    -0.00  -0.00   0.00    -0.00  -0.00   0.00
  48   7    -0.12   0.05  -0.13    -0.01   0.00  -0.01    -0.00   0.00  -0.00
  49   1     0.65   0.21  -0.05     0.04   0.01  -0.00     0.01   0.00  -0.00
  50   1    -0.21  -0.39   0.54    -0.01  -0.02   0.03    -0.01  -0.01   0.01
  51   7     0.00  -0.01   0.01     0.00  -0.00   0.00    -0.00  -0.00   0.00
  52   1     0.02   0.03  -0.04     0.00   0.00  -0.00     0.00   0.00  -0.01
  53   1    -0.01   0.00  -0.01    -0.00   0.00  -0.00     0.00  -0.00   0.00
                    148                    149                    150
                        a                      a                      a 
 Frequencies --  3533.3799              3550.0923              3556.5756
 Red. masses --     1.8920                 2.0454                 2.1732
 Frc consts  --     0.0000                 0.0000                 0.0000
 IR Inten    --    12.0515                39.2301                 9.1614
 Raman Activ --     0.0000                 0.0000                 0.0000
 Depolar     --     0.0000                 0.0000                 0.0000
 Atom AN      X      Y      Z        X      Y      Z        X      Y      Z
   1   8     0.00  -0.00   0.00     0.00  -0.00   0.00    -0.00   0.00  -0.00
   2   6     0.00  -0.00   0.00    -0.00  -0.00   0.00    -0.00  -0.00  -0.00
   3   1    -0.00   0.00  -0.00    -0.00  -0.00   0.00     0.00   0.00   0.00
   4   1    -0.00   0.00   0.00     0.00   0.00  -0.00     0.00  -0.00  -0.00
   5   6    -0.00  -0.00   0.00    -0.00  -0.00   0.00     0.00   0.00   0.00
   6   1     0.00   0.00  -0.00     0.00   0.00  -0.00    -0.00  -0.00   0.00
   7   1    -0.00  -0.00  -0.00    -0.00  -0.00  -0.00    -0.00  -0.00  -0.00
   8   7     0.00   0.00  -0.00     0.00   0.00  -0.00    -0.00   0.00  -0.00
   9   6    -0.00  -0.00   0.00    -0.00  -0.00   0.00     0.00   0.00  -0.00
  10   1     0.00   0.00  -0.00     0.00   0.00  -0.00    -0.00  -0.00   0.00
  11   1    -0.00   0.00   0.00    -0.00  -0.00   0.00     0.00   0.00   0.00
  12   1     0.00  -0.00   0.00    -0.00  -0.00   0.00     0.00  -0.00   0.00
  13   6    -0.00  -0.00   0.00    -0.00  -0.00   0.00     0.00  -0.00   0.00
  14   1     0.00   0.00  -0.00     0.00   0.00  -0.00     0.00  -0.00   0.00
  15   1    -0.00   0.00  -0.00    -0.00  -0.00   0.00    -0.00   0.00   0.00
  16   1    -0.00   0.00   0.00    -0.00  -0.00   0.00     0.00   0.00   0.00
  17   6    -0.00  -0.00  -0.00    -0.00  -0.00   0.00     0.00  -0.00   0.00
  18   1     0.00  -0.00  -0.00    -0.00  -0.00   0.00    -0.00   0.00  -0.00
  19   1     0.00  -0.00   0.00    -0.00  -0.00  -0.00     0.00  -0.00  -0.00
  20   1    -0.00   0.00   0.00    -0.00   0.00   0.00     0.00   0.00   0.00
  21   1    -0.00   0.00  -0.00    -0.00   0.00  -0.00     0.00  -0.00   0.00
  22   6    -0.00   0.00   0.00     0.00  -0.01  -0.00    -0.00  -0.00  -0.00
  23   8    -0.00  -0.00  -0.00    -0.00   0.00   0.00     0.00   0.00  -0.00
  24   7     0.00  -0.00  -0.00     0.12  -0.21  -0.15     0.00  -0.00  -0.00
  25   1    -0.00   0.00   0.00    -0.54   0.55   0.50    -0.00   0.00   0.00
  26   1    -0.00  -0.00  -0.00     0.10   0.25   0.06     0.00   0.00   0.00
  27   7     0.00   0.00   0.00    -0.00  -0.00  -0.00     0.00   0.00  -0.00
  28   1    -0.01  -0.01  -0.00     0.01   0.02   0.01    -0.00  -0.00  -0.00
  29   1     0.00   0.00  -0.00     0.00   0.00  -0.00    -0.00  -0.00   0.00
  30   6    -0.00  -0.00   0.00    -0.00  -0.00  -0.00    -0.00  -0.00   0.00
  31   8     0.00   0.00   0.00     0.00   0.00   0.00     0.00   0.00   0.00
  32   7     0.00   0.00  -0.00     0.00   0.00   0.00    -0.00  -0.00  -0.00
  33   1    -0.00  -0.00   0.00    -0.00  -0.00   0.00     0.00   0.00  -0.00
  34   1     0.00   0.00   0.00    -0.01  -0.01  -0.01     0.00   0.00   0.00
  35   7     0.00   0.00   0.00     0.00   0.00   0.00    -0.00   0.00   0.00
  36   1    -0.00  -0.00  -0.00    -0.01  -0.01  -0.01    -0.00  -0.00  -0.00
  37   1     0.00  -0.00  -0.00     0.00  -0.00  -0.01     0.00  -0.00  -0.00
  38   6     0.00  -0.00  -0.00    -0.00   0.00   0.00     0.00  -0.01  -0.00
  39   8    -0.00   0.00   0.00     0.00  -0.00  -0.00    -0.00   0.00  -0.00
  40   7    -0.00   0.00   0.00    -0.00   0.00   0.00     0.15  -0.26  -0.02
  41   1     0.00  -0.00  -0.00    -0.00  -0.00  -0.00     0.01   0.68   0.16
  42   1     0.00  -0.00   0.00     0.00  -0.00   0.00    -0.56   0.31  -0.08
  43   7     0.00  -0.00  -0.00     0.00  -0.00  -0.00     0.02  -0.01  -0.00
  44   1    -0.01   0.00   0.00    -0.00   0.00   0.00    -0.06   0.03   0.02
  45   1    -0.00  -0.00  -0.00     0.00   0.00   0.00    -0.01  -0.01  -0.00
  46   6    -0.00   0.00  -0.01    -0.00  -0.00   0.00     0.00   0.00  -0.00
  47   8    -0.00  -0.00   0.00     0.00  -0.00   0.00    -0.00  -0.00   0.00
  48   7    -0.02  -0.01   0.00     0.00   0.00  -0.00     0.00   0.00  -0.00
  49   1     0.08   0.03  -0.00    -0.00  -0.00   0.00    -0.00   0.00  -0.00
  50   1     0.00   0.01  -0.01    -0.00  -0.00   0.00    -0.00  -0.00   0.00
  51   7     0.06   0.13  -0.22     0.00  -0.00   0.00    -0.00   0.00  -0.00
  52   1    -0.28  -0.48   0.78     0.00   0.00  -0.00    -0.00  -0.00   0.00
  53   1     0.07  -0.01   0.04    -0.00   0.00  -0.00     0.00  -0.00   0.00
                    151                    152                    153
                        a                      a                      a 
 Frequencies --  3563.0955              3568.7458              3569.7010
 Red. masses --     2.1917                 2.1783                 2.1870
 Frc consts  --     0.0000                 0.0000                 0.0000
 IR Inten    --    14.3902                16.5734                17.7292
 Raman Activ --     0.0000                 0.0000                 0.0000
 Depolar     --     0.0000                 0.0000                 0.0000
 Atom AN      X      Y      Z        X      Y      Z        X      Y      Z
   1   8     0.00   0.00   0.00     0.00   0.00   0.00     0.00  -0.00   0.00
   2   6    -0.00  -0.00  -0.00     0.00  -0.00  -0.00    -0.00   0.00  -0.00
   3   1     0.00  -0.00   0.00     0.00  -0.00  -0.00     0.00  -0.00   0.00
   4   1     0.00   0.00  -0.00    -0.00   0.00   0.00     0.00   0.00  -0.00
   5   6    -0.00  -0.00   0.00    -0.00  -0.00   0.00    -0.00   0.00  -0.00
   6   1     0.00   0.00  -0.00     0.00   0.00  -0.00    -0.00  -0.00   0.00
   7   1    -0.00   0.00  -0.00    -0.00   0.00  -0.00     0.00   0.00   0.00
   8   7    -0.00   0.00   0.00    -0.00   0.00   0.00     0.00  -0.00   0.00
   9   6    -0.00  -0.00  -0.00    -0.00  -0.00   0.00     0.00   0.00  -0.00
  10   1     0.00   0.00  -0.00     0.00   0.00  -0.00    -0.00  -0.00   0.00
  11   1     0.00   0.00   0.00    -0.00   0.00   0.00     0.00  -0.00  -0.00
  12   1     0.00  -0.00   0.00    -0.00  -0.00  -0.00    -0.00   0.00  -0.00
  13   6    -0.00  -0.00  -0.00    -0.00   0.00  -0.00    -0.00   0.00  -0.00
  14   1     0.00   0.00  -0.00     0.00   0.00   0.00    -0.00  -0.00   0.00
  15   1     0.00  -0.00  -0.00    -0.00  -0.00  -0.00     0.00   0.00   0.00
  16   1     0.00   0.00   0.00    -0.00  -0.00   0.00     0.00  -0.00  -0.00
  17   6     0.00  -0.00  -0.00     0.00  -0.00  -0.00    -0.00   0.00  -0.00
  18   1    -0.00  -0.00  -0.00    -0.00  -0.00  -0.00     0.00  -0.00   0.00
  19   1     0.00  -0.00   0.00     0.00  -0.00   0.00    -0.00   0.00  -0.00
  20   1    -0.00   0.00   0.00    -0.00  -0.00   0.00     0.00  -0.00  -0.00
  21   1    -0.00   0.00  -0.00    -0.00   0.00  -0.00    -0.00   0.00  -0.00
  22   6     0.00   0.00  -0.00     0.00  -0.00  -0.00     0.00  -0.00  -0.00
  23   8    -0.00   0.00   0.00    -0.00  -0.00   0.00     0.00   0.00   0.00
  24   7    -0.00   0.00   0.00     0.00  -0.01  -0.00    -0.00  -0.00  -0.00
  25   1     0.00  -0.00  -0.00    -0.01   0.01   0.01    -0.00   0.00   0.00
  26   1    -0.00  -0.00  -0.00     0.00   0.01   0.00     0.00   0.00   0.00
  27   7    -0.00  -0.00   0.00    -0.00  -0.00  -0.00    -0.00   0.00  -0.00
  28   1     0.00   0.00   0.00     0.01   0.01   0.00     0.00   0.00   0.00
  29   1     0.00   0.00  -0.00     0.00   0.00  -0.00    -0.00  -0.00   0.00
  30   6    -0.01   0.00   0.01    -0.01  -0.01  -0.01     0.00   0.00   0.00
  31   8     0.00  -0.00  -0.00     0.00   0.00   0.00    -0.00  -0.00  -0.00
  32   7    -0.15  -0.12  -0.01    -0.18  -0.15  -0.02     0.00   0.00   0.00
  33   1     0.37   0.16  -0.18     0.45   0.20  -0.22    -0.01  -0.00   0.00
  34   1     0.19   0.27   0.21     0.25   0.35   0.28    -0.01  -0.01  -0.01
  35   7    -0.00   0.15   0.18     0.00  -0.12  -0.14    -0.00   0.00   0.00
  36   1    -0.21  -0.41  -0.20     0.17   0.33   0.16    -0.00  -0.01  -0.00
  37   1     0.22  -0.18  -0.48    -0.17   0.14   0.37     0.00  -0.00  -0.01
  38   6    -0.00  -0.00  -0.00     0.00  -0.00  -0.00     0.00  -0.00   0.00
  39   8     0.00   0.00   0.00    -0.00   0.00   0.00    -0.00   0.00  -0.00
  40   7    -0.00   0.00   0.00     0.00   0.00   0.00     0.00  -0.00  -0.00
  41   1    -0.00  -0.00  -0.00     0.00  -0.00  -0.00     0.00   0.00   0.00
  42   1     0.00  -0.00   0.00    -0.00   0.00  -0.00    -0.00   0.00  -0.00
  43   7     0.00   0.00   0.00     0.00  -0.00  -0.00    -0.00  -0.00  -0.00
  44   1    -0.00   0.00   0.00    -0.00   0.00   0.00    -0.01   0.00   0.00
  45   1    -0.00  -0.00  -0.00     0.00   0.00  -0.00     0.01   0.01   0.00
  46   6    -0.00   0.00  -0.00    -0.00  -0.00   0.00    -0.01  -0.01   0.01
  47   8     0.00  -0.00   0.00     0.00   0.00   0.00     0.00   0.00  -0.00
  48   7     0.00  -0.00   0.00    -0.00  -0.00   0.00    -0.22  -0.15   0.15
  49   1    -0.00  -0.00   0.00     0.01   0.00  -0.00     0.65   0.19  -0.03
  50   1     0.00   0.00  -0.00     0.00   0.01  -0.01     0.18   0.37  -0.53
  51   7    -0.00  -0.00   0.00    -0.00  -0.00   0.00    -0.00  -0.01   0.01
  52   1     0.00   0.00  -0.00     0.00   0.00  -0.00     0.02   0.03  -0.06
  53   1    -0.00   0.00  -0.00     0.00  -0.00   0.00    -0.01   0.00  -0.00
