 Entering Gaussian System
 *********************************************
 Gaussian 98:
 frequency output generated by the xtb code
 *********************************************
                         Standard orientation:
 --------------------------------------------------------------------
  Center     Atomic     Atomic              Coordinates (Angstroms)
  Number     Number      Type              X           Y           Z
 --------------------------------------------------------------------
    1          8             0       -2.213462   -0.152047    1.749512
    2          6             0       -1.087943    0.558605    2.178403
    3          1             0       -1.456654    1.486908    2.622866
    4          1             0       -0.539401    0.009438    2.953762
    5          6             0       -0.062702    0.838953    1.070475
    6          1             0        0.324320   -0.111834    0.697844
    7          1             0        0.764349    1.386565    1.523181
    8          7             0       -0.559260    1.607939   -0.101238
    9          6             0       -1.436908    0.768634   -0.934682
   10          1             0       -0.875353   -0.095049   -1.282550
   11          1             0       -1.772579    1.357790   -1.786112
   12          1             0       -2.287587    0.431955   -0.346287
   13          6             0        0.596829    2.006459   -0.921730
   14          1             0        1.145346    1.114863   -1.219378
   15          1             0        1.253456    2.662170   -0.354206
   16          1             0        0.231708    2.531672   -1.803158
   17          6             0       -1.298942    2.812884    0.301269
   18          1             0       -0.691352    3.421626    0.967916
   19          1             0       -2.221359    2.532829    0.803549
   20          1             0       -1.541131    3.382543   -0.595437
   21          1             0       -1.928131   -1.063970    1.536295
   22          6             0        3.155060   -0.691655    2.092013
   23          8             0        2.022436   -0.827099    2.538955
   24          7             0        4.247427   -0.737047    2.901292
   25          1             0        4.093434   -0.741383    3.894343
   26          1             0        5.157145   -0.466968    2.573328
   27          7             0        3.399058   -0.469185    0.780453
   28          1             0        4.338968   -0.524938    0.429980
   29          1             0        2.648271   -0.639187    0.116562
   30          6             0       -2.028009    4.091271   -3.665230
   31          8             0       -1.554984    3.423817   -2.756091
   32          7             0       -1.253974    4.815894   -4.508609
   33          1             0       -0.269408    4.879439   -4.322132
   34          1             0       -1.647380    5.441861   -5.186992
   35          7             0       -3.361650    4.155442   -3.894970
   36          1             0       -3.742333    4.625142   -4.695709
   37          1             0       -3.971833    3.564998   -3.358905
   38          6             0       -0.789452   -3.235447    2.370985
   39          8             0       -1.084864   -2.594317    1.356882
   40          7             0        0.314496   -2.977616    3.084116
   41          1             0        0.913361   -2.194005    2.830515
   42          1             0        0.524889   -3.485784    3.923456
   43          7             0       -1.564409   -4.266344    2.786508
   44          1             0       -1.407707   -4.732646    3.661186
   45          1             0       -2.435569   -4.426383    2.312628
   46          6             0        1.157106   -2.168459   -1.578889
   47          8             0        1.362230   -1.039553   -1.130615
   48          7             0        1.899974   -2.658760   -2.605300
   49          1             0        2.526756   -2.033408   -3.079993
   50          1             0        1.656904   -3.515948   -3.067735
   51          7             0        0.194473   -2.970181   -1.097026
   52          1             0        0.108177   -3.916723   -1.420660
   53          1             0       -0.279834   -2.727794   -0.227174
 --------------------------------------------------------------------
     1 basis functions        1 primitive gaussians
     1 alpha electrons        1 beta electrons

 Harmonic frequencies (cm**-1), IR intensities (km*mol⁻¹),
 Raman scattering activities (A**4/amu), Raman depolarization ratios,
 reduced masses (AMU), force constants (mDyne/A) and normal coordinates:
                      1                      2                      3
                        a                      a                      a 
 Frequencies --     7.8849                10.6333                15.2750
 Red. masses --    11.1660                12.3247                12.2751
 Frc consts  --     0.0000                 0.0000                 0.0000
 IR Inten    --     0.0200                 0.8924                 3.2281
 Raman Activ --     0.0000                 0.0000                 0.0000
 Depolar     --     0.0000                 0.0000                 0.0000
 Atom AN      X      Y      Z        X      Y      Z        X      Y      Z
   1   8    -0.02  -0.04  -0.04    -0.18  -0.21  -0.13     0.03   0.01   0.12
   2   6    -0.03  -0.02  -0.02    -0.21  -0.13  -0.05     0.01   0.05   0.07
   3   1    -0.01  -0.01  -0.01    -0.08  -0.04  -0.02    -0.00   0.02   0.01
   4   1    -0.01  -0.01  -0.00    -0.07  -0.03  -0.00     0.01   0.03   0.03
   5   6    -0.02  -0.02  -0.01    -0.15  -0.09   0.01    -0.00   0.04   0.06
   6   1    -0.00  -0.00  -0.00    -0.04  -0.02   0.00    -0.00   0.01   0.02
   7   1    -0.01  -0.00  -0.00    -0.05  -0.03   0.02     0.00   0.01   0.01
   8   7    -0.02  -0.02  -0.02    -0.11  -0.06   0.01    -0.00   0.03   0.06
   9   6    -0.00  -0.03  -0.02    -0.07  -0.03  -0.04    -0.05   0.03   0.09
  10   1     0.00  -0.01  -0.01    -0.02  -0.01  -0.01    -0.02   0.00   0.03
  11   1    -0.00  -0.01  -0.01    -0.01  -0.00  -0.01    -0.01   0.01   0.03
  12   1    -0.00  -0.01  -0.01    -0.03  -0.01  -0.02    -0.01   0.02   0.04
  13   6    -0.01  -0.01  -0.00    -0.06  -0.05   0.07    -0.01  -0.03   0.02
  14   1    -0.00  -0.00   0.00    -0.02  -0.01   0.02    -0.01  -0.01   0.01
  15   1    -0.01  -0.00   0.00    -0.02  -0.02   0.03     0.00  -0.01  -0.00
  16   1    -0.00  -0.00  -0.00    -0.01  -0.00   0.02    -0.00  -0.01   0.00
  17   6    -0.03  -0.02  -0.02    -0.10  -0.06   0.01     0.04   0.06   0.04
  18   1    -0.01  -0.01  -0.00    -0.04  -0.02   0.02     0.02   0.01   0.00
  19   1    -0.01  -0.01  -0.01    -0.04  -0.02  -0.01     0.01   0.03   0.02
  20   1    -0.01  -0.01  -0.01    -0.01  -0.01   0.00     0.01   0.01   0.01
  21   1    -0.00  -0.01  -0.01    -0.03  -0.05  -0.02     0.02   0.01   0.03
  22   6    -0.02   0.03   0.03     0.00   0.12  -0.10    -0.01   0.02   0.11
  23   8    -0.02   0.03   0.02     0.03   0.13  -0.05    -0.02   0.17   0.15
  24   7    -0.02   0.05   0.04     0.05   0.20  -0.16    -0.01   0.01   0.11
  25   1    -0.01   0.02   0.01     0.03   0.07  -0.04    -0.00   0.04   0.03
  26   1    -0.01   0.02   0.01     0.01   0.05  -0.06     0.00  -0.02   0.02
  27   7    -0.01   0.03   0.03    -0.07   0.06  -0.13    -0.01  -0.15   0.09
  28   1    -0.00   0.01   0.01    -0.02   0.02  -0.05    -0.01  -0.07   0.02
  29   1     0.00   0.00   0.01    -0.03   0.00  -0.02    -0.01  -0.04   0.03
  30   6     0.00   0.03   0.01     0.17   0.12   0.01     0.06  -0.09  -0.05
  31   8     0.01  -0.01  -0.02     0.08   0.07   0.03     0.02  -0.06   0.00
  32   7     0.04  -0.43  -0.35     0.28   0.14   0.12     0.11  -0.17  -0.07
  33   1     0.03  -0.21  -0.18     0.07   0.02   0.06     0.03  -0.05  -0.01
  34   1     0.02  -0.10  -0.09     0.10   0.05   0.03     0.04  -0.05  -0.03
  35   7    -0.04   0.53   0.41     0.20   0.19  -0.10     0.07  -0.09  -0.12
  36   1    -0.02   0.14   0.11     0.08   0.06  -0.03     0.03  -0.03  -0.04
  37   1    -0.03   0.23   0.18     0.04   0.05  -0.05     0.01  -0.01  -0.03
  38   6     0.02  -0.02  -0.01     0.12  -0.02   0.12     0.12  -0.02  -0.05
  39   8     0.02  -0.03  -0.01     0.07  -0.13   0.10     0.08   0.03  -0.00
  40   7     0.00   0.00   0.00     0.12   0.08   0.10    -0.03   0.16   0.10
  41   1    -0.00   0.00   0.00     0.02   0.03   0.01    -0.02   0.06   0.04
  42   1     0.00   0.00   0.00     0.04   0.04   0.03     0.02   0.01  -0.00
  43   7     0.03  -0.04  -0.02     0.18  -0.03   0.23     0.34  -0.28  -0.27
  44   1     0.01  -0.01  -0.01     0.06   0.01   0.07     0.08  -0.07  -0.07
  45   1     0.01  -0.01  -0.01     0.05  -0.03   0.07     0.10  -0.09  -0.08
  46   6     0.03  -0.00   0.00    -0.09  -0.07  -0.01    -0.16   0.07  -0.09
  47   8     0.02  -0.00   0.01    -0.14  -0.06  -0.03    -0.03  -0.01   0.05
  48   7     0.05   0.00   0.01    -0.13  -0.03  -0.06    -0.26   0.12  -0.19
  49   1     0.01   0.00   0.00    -0.05  -0.00  -0.03    -0.05   0.03  -0.03
  50   1     0.02   0.00   0.00    -0.03  -0.01  -0.01    -0.10   0.05  -0.08
  51   7     0.04  -0.01  -0.00    -0.01  -0.13   0.06    -0.27   0.13  -0.20
  52   1     0.01  -0.00  -0.00     0.00  -0.04   0.02    -0.10   0.05  -0.08
  53   1     0.01  -0.00  -0.00     0.00  -0.04   0.02    -0.05   0.02  -0.03
                      4                      5                      6
                        a                      a                      a 
 Frequencies --    20.2995                24.3339                28.6807
 Red. masses --    12.0863                12.1665                11.7208
 Frc consts  --     0.0000                 0.0000                 0.0000
 IR Inten    --     0.2580                 0.4692                 2.6069
 Raman Activ --     0.0000                 0.0000                 0.0000
 Depolar     --     0.0000                 0.0000                 0.0000
 Atom AN      X      Y      Z        X      Y      Z        X      Y      Z
   1   8     0.06  -0.01  -0.13     0.00   0.11   0.14     0.18   0.06   0.26
   2   6     0.04   0.03  -0.13     0.07   0.02   0.06     0.20   0.09   0.06
   3   1     0.01   0.01  -0.05     0.05   0.02   0.02     0.07   0.03   0.02
   4   1     0.01   0.02  -0.03     0.02  -0.00   0.01     0.09   0.04   0.00
   5   6     0.05  -0.01  -0.13     0.04  -0.07   0.00     0.06   0.06  -0.07
   6   1     0.01  -0.01  -0.03    -0.01  -0.03   0.00     0.02   0.02  -0.02
   7   1     0.01  -0.00  -0.04     0.03  -0.03  -0.01     0.03   0.04  -0.06
   8   7     0.07  -0.03  -0.17     0.04  -0.09   0.00    -0.10  -0.03  -0.06
   9   6     0.03  -0.03  -0.12    -0.03  -0.06   0.05    -0.14  -0.11   0.07
  10   1    -0.00  -0.02  -0.03    -0.02  -0.03   0.02    -0.04  -0.03   0.02
  11   1     0.01  -0.01  -0.04    -0.01  -0.02   0.01    -0.07  -0.05   0.02
  12   1     0.01   0.00  -0.03    -0.01  -0.00   0.02    -0.02  -0.03   0.05
  13   6     0.07  -0.09  -0.17     0.03  -0.15  -0.04    -0.20  -0.01  -0.19
  14   1     0.01  -0.03  -0.04    -0.00  -0.05  -0.01    -0.05   0.00  -0.06
  15   1     0.03  -0.03  -0.06     0.02  -0.05  -0.02    -0.05   0.02  -0.09
  16   1     0.02  -0.03  -0.06     0.01  -0.05  -0.01    -0.09  -0.02  -0.06
  17   6     0.11   0.00  -0.18     0.10  -0.04  -0.00    -0.12  -0.04  -0.05
  18   1     0.04  -0.00  -0.06     0.04  -0.01  -0.01    -0.02   0.01  -0.04
  19   1     0.03   0.01  -0.05     0.03   0.00   0.01    -0.02  -0.02   0.02
  20   1     0.04  -0.00  -0.06     0.03  -0.01  -0.00    -0.07  -0.03  -0.02
  21   1     0.02  -0.01  -0.02    -0.02   0.02   0.02     0.04   0.02   0.06
  22   6    -0.05   0.00   0.11    -0.00   0.20   0.03    -0.02  -0.04  -0.00
  23   8    -0.07   0.14   0.12     0.04  -0.01   0.05    -0.03  -0.06  -0.03
  24   7    -0.07   0.00   0.15     0.01   0.53   0.02    -0.04  -0.11   0.01
  25   1    -0.03   0.03   0.04     0.01   0.14   0.01    -0.01  -0.04   0.00
  26   1    -0.01  -0.02   0.04    -0.01   0.18  -0.00    -0.01  -0.02   0.01
  27   7    -0.00  -0.16   0.10    -0.06   0.17   0.01     0.00   0.03   0.01
  28   1     0.00  -0.07   0.04    -0.01   0.09   0.00     0.00   0.01   0.01
  29   1     0.00  -0.04   0.03    -0.01  -0.01   0.01     0.00   0.02  -0.00
  30   6    -0.09   0.15   0.04     0.04  -0.01   0.06    -0.04   0.08  -0.06
  31   8     0.03   0.02  -0.14     0.05  -0.08   0.02    -0.33  -0.09  -0.06
  32   7    -0.23   0.37   0.11     0.03   0.05   0.11     0.23   0.05   0.14
  33   1    -0.06   0.10   0.00     0.01   0.01   0.03     0.06  -0.04   0.08
  34   1    -0.09   0.12   0.07     0.01   0.02   0.04     0.12   0.05   0.04
  35   7    -0.13   0.15   0.20     0.04   0.01   0.09     0.01   0.35  -0.29
  36   1    -0.06   0.07   0.08     0.01   0.02   0.03     0.06   0.13  -0.08
  37   1    -0.01  -0.00   0.04     0.01  -0.01   0.01    -0.05   0.10  -0.12
  38   6     0.04  -0.00   0.07    -0.04  -0.00  -0.15     0.02  -0.05   0.01
  39   8     0.06  -0.05   0.04    -0.13   0.09  -0.09     0.01   0.01   0.06
  40   7    -0.10   0.18   0.22     0.06  -0.13  -0.28     0.01  -0.07   0.03
  41   1    -0.03   0.05   0.06     0.01  -0.03  -0.06     0.00  -0.02   0.02
  42   1    -0.02   0.04   0.05     0.03  -0.05  -0.08     0.01  -0.03  -0.00
  43   7     0.16  -0.14  -0.03    -0.05   0.01  -0.15     0.06  -0.12  -0.07
  44   1     0.03  -0.02   0.01     0.01  -0.02  -0.06     0.01  -0.04  -0.02
  45   1     0.06  -0.06  -0.02    -0.03   0.02  -0.02     0.01  -0.02  -0.02
  46   6     0.01  -0.12   0.01    -0.06  -0.13   0.02     0.05  -0.00   0.05
  47   8     0.05  -0.15   0.02    -0.00  -0.17   0.04     0.02   0.03  -0.00
  48   7    -0.00  -0.14   0.01     0.02  -0.23   0.13     0.09  -0.05   0.11
  49   1     0.00  -0.04   0.00     0.04  -0.08   0.05     0.02  -0.02   0.02
  50   1    -0.01  -0.04   0.00    -0.00  -0.06   0.03     0.03  -0.02   0.04
  51   7    -0.01  -0.10   0.01    -0.23  -0.03  -0.11     0.05   0.01   0.08
  52   1    -0.01  -0.03   0.00    -0.07  -0.01  -0.02     0.02  -0.00   0.03
  53   1     0.00  -0.03   0.00    -0.07   0.00  -0.04     0.01   0.01   0.02
                      7                      8                      9
                        a                      a                      a 
 Frequencies --    33.0942                36.3448                43.6649
 Red. masses --    12.4170                12.4830                12.4312
 Frc consts  --     0.0000                 0.0000                 0.0000
 IR Inten    --     3.1611                 0.3785                 1.0428
 Raman Activ --     0.0000                 0.0000                 0.0000
 Depolar     --     0.0000                 0.0000                 0.0000
 Atom AN      X      Y      Z        X      Y      Z        X      Y      Z
   1   8    -0.14   0.08   0.03     0.18  -0.03  -0.02     0.04   0.01   0.13
   2   6    -0.13   0.06   0.05     0.14   0.01  -0.02     0.06  -0.01   0.07
   3   1    -0.04   0.02   0.01     0.03  -0.00   0.00     0.03   0.00   0.02
   4   1    -0.05   0.02   0.02     0.05   0.00  -0.01     0.02  -0.00   0.02
   5   6    -0.09   0.03   0.08     0.11   0.07  -0.03     0.04  -0.06   0.04
   6   1    -0.03   0.01   0.03     0.03   0.02  -0.03     0.00  -0.02   0.02
   7   1    -0.03   0.01   0.03     0.03   0.01  -0.01     0.02  -0.02   0.00
   8   7    -0.05   0.02   0.07     0.09   0.13   0.01     0.02  -0.09   0.04
   9   6    -0.01   0.01   0.03     0.02   0.17   0.03     0.01  -0.10   0.06
  10   1     0.00   0.00   0.02    -0.00   0.05  -0.01     0.00  -0.03   0.02
  11   1     0.01   0.00   0.00    -0.00   0.06   0.02     0.00  -0.03   0.02
  12   1    -0.01   0.01  -0.00     0.01   0.05   0.02     0.00  -0.03   0.02
  13   6    -0.02   0.02   0.10     0.06   0.10  -0.02    -0.00  -0.09   0.01
  14   1    -0.01   0.00   0.03     0.00   0.03  -0.02    -0.00  -0.02   0.00
  15   1    -0.01   0.00   0.04     0.03   0.02  -0.01     0.00  -0.02  -0.00
  16   1     0.00   0.01   0.03     0.01   0.04   0.00    -0.01  -0.03   0.01
  17   6    -0.06   0.02   0.02     0.15   0.14   0.08     0.01  -0.08   0.03
  18   1    -0.03   0.01   0.01     0.06   0.03   0.02     0.01  -0.02   0.00
  19   1    -0.02   0.01  -0.00     0.04   0.05   0.03     0.01  -0.02   0.02
  20   1    -0.01   0.00   0.00     0.04   0.05   0.03    -0.00  -0.03   0.01
  21   1    -0.03   0.02   0.00     0.04  -0.01   0.01     0.01   0.01   0.01
  22   6     0.07  -0.03  -0.14    -0.13   0.06  -0.07    -0.01   0.05  -0.03
  23   8     0.08   0.09  -0.13    -0.11  -0.15  -0.06     0.02  -0.02   0.03
  24   7     0.10  -0.19  -0.20    -0.11   0.15  -0.12     0.03   0.15  -0.09
  25   1     0.04  -0.05  -0.05    -0.02   0.00  -0.03     0.02   0.03  -0.02
  26   1     0.03  -0.07  -0.06    -0.04   0.08  -0.03     0.00   0.05  -0.04
  27   7     0.05  -0.03  -0.16    -0.21   0.24  -0.07    -0.09   0.07  -0.05
  28   1     0.01  -0.04  -0.05    -0.06   0.10  -0.02    -0.03   0.03  -0.02
  29   1     0.00   0.01  -0.03    -0.05   0.04  -0.02    -0.03   0.00  -0.01
  30   6     0.01  -0.01   0.03     0.02   0.04  -0.03     0.01  -0.08   0.08
  31   8     0.04   0.02   0.03     0.06   0.23   0.08    -0.04  -0.17   0.06
  32   7    -0.01  -0.01   0.01    -0.02  -0.05  -0.15     0.07  -0.07   0.15
  33   1    -0.00   0.00  -0.00    -0.01   0.02  -0.04     0.02  -0.04   0.05
  34   1    -0.01  -0.01   0.00    -0.02  -0.04  -0.06     0.03  -0.00   0.05
  35   7     0.01  -0.04   0.05     0.02  -0.09  -0.05     0.02  -0.01   0.06
  36   1    -0.00  -0.02   0.01    -0.00  -0.06  -0.03     0.02   0.01   0.02
  37   1     0.01  -0.01   0.02     0.01  -0.01   0.02    -0.00  -0.00   0.00
  38   6    -0.02   0.08  -0.09    -0.04  -0.19   0.05    -0.12   0.14  -0.01
  39   8    -0.08   0.11  -0.08    -0.05  -0.18   0.08     0.09   0.08  -0.13
  40   7    -0.16   0.30   0.05    -0.15  -0.09   0.17    -0.35   0.30   0.28
  41   1    -0.04   0.08   0.01    -0.04  -0.03   0.04    -0.06   0.05   0.06
  42   1    -0.01   0.04  -0.02    -0.02  -0.05   0.03    -0.12   0.07   0.08
  43   7     0.18  -0.14  -0.26     0.06  -0.34  -0.08    -0.17   0.12  -0.14
  44   1     0.04  -0.02  -0.06     0.00  -0.08  -0.01    -0.11   0.07  -0.01
  45   1     0.05  -0.05  -0.07     0.02  -0.09  -0.03    -0.02   0.03  -0.08
  46   6     0.05  -0.08   0.11    -0.03  -0.05   0.05     0.08  -0.04  -0.14
  47   8    -0.11  -0.03   0.04    -0.18   0.02  -0.06     0.02  -0.03  -0.15
  48   7     0.34  -0.20   0.37    -0.01  -0.03   0.06    -0.01   0.09  -0.29
  49   1     0.10  -0.05   0.11    -0.03   0.00  -0.01    -0.03   0.04  -0.09
  50   1     0.11  -0.06   0.10     0.02  -0.03   0.04     0.01   0.02  -0.07
  51   7    -0.05  -0.06  -0.03     0.11  -0.15   0.17     0.27  -0.17  -0.02
  52   1     0.02  -0.03   0.02     0.05  -0.05   0.06     0.07  -0.04  -0.02
  53   1    -0.05  -0.00  -0.03     0.02  -0.03   0.04     0.07  -0.05  -0.01
                     10                     11                     12
                        a                      a                      a 
 Frequencies --    51.6298                58.0278                65.6088
 Red. masses --    12.0817                12.6615                11.1460
 Frc consts  --     0.0000                 0.0000                 0.0000
 IR Inten    --     2.7267                 0.7689                 2.3467
 Raman Activ --     0.0000                 0.0000                 0.0000
 Depolar     --     0.0000                 0.0000                 0.0000
 Atom AN      X      Y      Z        X      Y      Z        X      Y      Z
   1   8     0.02   0.04  -0.05    -0.07   0.15   0.14    -0.13  -0.05   0.04
   2   6    -0.01   0.05   0.01    -0.09   0.19   0.10    -0.11  -0.02  -0.02
   3   1    -0.01   0.01  -0.00    -0.04   0.06   0.00    -0.03   0.00  -0.02
   4   1    -0.01   0.02   0.01    -0.03   0.08   0.04    -0.03   0.01   0.00
   5   6     0.04   0.07   0.05    -0.06   0.12   0.10    -0.11  -0.10  -0.04
   6   1     0.04   0.02   0.04    -0.01   0.03   0.06    -0.06  -0.04  -0.01
   7   1    -0.01   0.05   0.02    -0.02   0.05   0.03    -0.01  -0.05  -0.02
   8   7     0.04  -0.04  -0.02    -0.03   0.03   0.03    -0.07  -0.07  -0.04
   9   6     0.23  -0.18  -0.08     0.03  -0.06   0.05    -0.28   0.07   0.06
  10   1     0.11  -0.03   0.00     0.02  -0.02   0.05    -0.14  -0.01   0.01
  11   1     0.07  -0.07  -0.04     0.02  -0.04  -0.01    -0.07   0.03   0.02
  12   1     0.06  -0.08  -0.04     0.00  -0.01   0.01    -0.09   0.07   0.04
  13   6     0.05   0.10   0.08    -0.00  -0.01   0.05    -0.05  -0.29  -0.14
  14   1     0.05   0.05   0.04     0.00  -0.01   0.03    -0.06  -0.11  -0.04
  15   1    -0.02   0.06   0.03    -0.01   0.01   0.01     0.03  -0.11  -0.06
  16   1     0.02   0.01   0.01     0.01  -0.02   0.00    -0.01  -0.08  -0.04
  17   6    -0.18  -0.13  -0.12    -0.07   0.04  -0.10     0.20   0.10  -0.03
  18   1    -0.09  -0.01  -0.03    -0.03   0.03  -0.03     0.10  -0.00  -0.03
  19   1    -0.05  -0.07  -0.06    -0.03   0.02  -0.03     0.05   0.09   0.01
  20   1    -0.05  -0.06  -0.05    -0.01  -0.01  -0.05     0.07   0.03  -0.01
  21   1     0.01   0.00   0.01    -0.00   0.04   0.04    -0.03  -0.01   0.01
  22   6     0.05   0.02  -0.09    -0.12  -0.02  -0.01     0.08   0.01   0.05
  23   8     0.05  -0.22  -0.19    -0.13   0.07   0.05     0.13  -0.15   0.11
  24   7     0.02   0.02  -0.04    -0.10  -0.10  -0.07     0.16  -0.26  -0.06
  25   1    -0.01  -0.04  -0.01    -0.01  -0.02  -0.02     0.06  -0.14  -0.01
  26   1    -0.00   0.05   0.01    -0.03  -0.04  -0.03     0.03  -0.03  -0.01
  27   7     0.10   0.28  -0.04    -0.19  -0.04  -0.02    -0.03   0.47   0.10
  28   1     0.03   0.11  -0.00    -0.05  -0.02  -0.02    -0.01   0.14   0.01
  29   1     0.04   0.06  -0.03    -0.06  -0.00   0.00    -0.01   0.11   0.03
  30   6     0.05  -0.06  -0.01     0.08  -0.05  -0.03     0.03   0.01  -0.05
  31   8     0.13  -0.27  -0.19     0.22  -0.21  -0.22     0.11  -0.01  -0.11
  32   7    -0.00   0.09   0.07    -0.03   0.12   0.00    -0.04   0.06  -0.07
  33   1     0.01  -0.00  -0.01    -0.00   0.02  -0.04    -0.01   0.02  -0.04
  34   1    -0.01   0.05   0.05    -0.03   0.05   0.03    -0.03   0.02  -0.01
  35   7     0.03   0.02   0.13     0.05  -0.02   0.16     0.02  -0.02   0.03
  36   1    -0.00   0.04   0.06    -0.01   0.02   0.07    -0.01  -0.00   0.02
  37   1     0.02  -0.03   0.01     0.04  -0.04   0.03     0.02  -0.01   0.01
  38   6    -0.07  -0.07   0.08     0.11   0.00  -0.06     0.03   0.00   0.03
  39   8    -0.10  -0.04   0.13     0.08   0.19   0.06     0.11   0.06   0.04
  40   7    -0.15  -0.00   0.17     0.22  -0.20  -0.16    -0.01  -0.05   0.10
  41   1    -0.02  -0.02   0.03     0.04  -0.03  -0.01     0.01  -0.02   0.04
  42   1    -0.01  -0.04   0.02     0.05  -0.07  -0.05    -0.01  -0.03   0.02
  43   7     0.01  -0.19  -0.01     0.08  -0.01  -0.17    -0.02   0.01  -0.06
  44   1    -0.01  -0.04   0.00     0.04  -0.05  -0.07    -0.03  -0.01  -0.02
  45   1     0.00  -0.05  -0.00     0.01   0.03  -0.04    -0.00   0.02  -0.03
  46   6    -0.06   0.11   0.03    -0.00  -0.04   0.02     0.01   0.05   0.03
  47   8     0.11   0.10   0.03    -0.13   0.01  -0.06     0.06   0.02   0.10
  48   7    -0.16   0.03   0.02    -0.10   0.06  -0.10    -0.01   0.09  -0.00
  49   1    -0.02  -0.02   0.00    -0.08   0.04  -0.06     0.01   0.02   0.01
  50   1    -0.07   0.01   0.01    -0.00  -0.00  -0.01    -0.00   0.03  -0.01
  51   7    -0.19   0.26   0.02     0.26  -0.21   0.25    -0.03   0.07  -0.04
  52   1    -0.08   0.07   0.00     0.08  -0.06   0.07    -0.01   0.02  -0.02
  53   1    -0.03   0.07   0.02     0.06  -0.04   0.05     0.00   0.01   0.00
                     13                     14                     15
                        a                      a                      a 
 Frequencies --    70.4965                72.8041                74.1965
 Red. masses --    13.2798                12.8655                13.1026
 Frc consts  --     0.0000                 0.0000                 0.0000
 IR Inten    --     4.1734                 4.9499                 5.4825
 Raman Activ --     0.0000                 0.0000                 0.0000
 Depolar     --     0.0000                 0.0000                 0.0000
 Atom AN      X      Y      Z        X      Y      Z        X      Y      Z
   1   8     0.01  -0.02   0.06    -0.00  -0.03   0.02     0.22  -0.19   0.03
   2   6     0.02  -0.00   0.01    -0.02   0.01  -0.00     0.09   0.01   0.02
   3   1     0.01   0.00  -0.00    -0.01   0.00  -0.00    -0.01  -0.01  -0.00
   4   1     0.01   0.00   0.00    -0.00   0.01   0.00     0.05   0.03   0.01
   5   6    -0.00  -0.03  -0.01    -0.02   0.03   0.01     0.07   0.12   0.03
   6   1    -0.01  -0.01  -0.00     0.00   0.01  -0.00     0.04   0.04   0.01
   7   1     0.01  -0.02  -0.01    -0.01   0.01   0.00     0.00   0.06   0.01
   8   7     0.01  -0.01   0.00    -0.01   0.04   0.01     0.02   0.07   0.02
   9   6    -0.09   0.04   0.06    -0.14   0.10   0.09     0.02   0.01   0.07
  10   1    -0.05   0.00   0.01    -0.07   0.00   0.03     0.01   0.00   0.03
  11   1    -0.03   0.02   0.02    -0.03   0.03   0.02     0.00  -0.01   0.01
  12   1    -0.02   0.03   0.03    -0.04   0.06   0.04     0.01   0.01   0.03
  13   6     0.00  -0.10  -0.05    -0.01  -0.11  -0.07    -0.01   0.07  -0.01
  14   1    -0.02  -0.04  -0.02    -0.03  -0.05  -0.01    -0.00   0.02   0.00
  15   1     0.02  -0.04  -0.02     0.02  -0.04  -0.04    -0.00   0.03  -0.01
  16   1     0.00  -0.02  -0.01    -0.00  -0.04  -0.03    -0.01   0.01  -0.01
  17   6     0.12   0.05   0.03     0.15   0.13   0.00    -0.00   0.06  -0.01
  18   1     0.06   0.00   0.00     0.07   0.03  -0.02    -0.00   0.03  -0.01
  19   1     0.03   0.04   0.02     0.04   0.07   0.02     0.00   0.02   0.01
  20   1     0.04   0.02   0.01     0.04   0.03  -0.00    -0.01   0.01  -0.01
  21   1     0.00  -0.00   0.01    -0.00  -0.01  -0.00     0.09  -0.03  -0.01
  22   6    -0.20   0.07  -0.12     0.10   0.01  -0.06    -0.09   0.02  -0.01
  23   8    -0.34   0.22  -0.36     0.06   0.05  -0.20    -0.07   0.08   0.10
  24   7    -0.37  -0.13   0.07     0.01   0.10   0.07    -0.03  -0.06  -0.11
  25   1    -0.15  -0.04   0.01    -0.03   0.05   0.01     0.02  -0.02  -0.02
  26   1    -0.07  -0.06   0.07     0.01   0.02   0.04    -0.01  -0.03  -0.05
  27   7     0.03   0.13  -0.07     0.25  -0.13  -0.06    -0.20   0.03  -0.03
  28   1     0.02   0.01   0.02     0.07  -0.04   0.01    -0.06  -0.01  -0.02
  29   1     0.03   0.05  -0.05     0.07  -0.02  -0.02    -0.07   0.01   0.01
  30   6     0.06  -0.08   0.11     0.01  -0.07  -0.01     0.05  -0.07  -0.03
  31   8     0.07  -0.10   0.12     0.02  -0.23  -0.13     0.10  -0.26  -0.18
  32   7     0.06  -0.08   0.13     0.01   0.02   0.06     0.01   0.05   0.05
  33   1     0.02  -0.03   0.03     0.01  -0.02   0.00     0.01  -0.01  -0.01
  34   1     0.02  -0.03   0.03     0.01   0.03   0.04    -0.00   0.04   0.04
  35   7     0.06  -0.09   0.13     0.01   0.02   0.05     0.03   0.02   0.09
  36   1     0.01  -0.02   0.04     0.00   0.03   0.03    -0.00   0.03   0.04
  37   1     0.02  -0.02   0.04     0.00  -0.01  -0.01     0.02  -0.03   0.00
  38   6     0.05   0.02   0.04    -0.14  -0.07  -0.06     0.03  -0.04   0.02
  39   8     0.03  -0.01   0.04    -0.36  -0.23  -0.11     0.15  -0.22  -0.13
  40   7     0.08   0.05   0.01    -0.11   0.14  -0.20     0.03  -0.01   0.02
  41   1     0.00   0.02  -0.01    -0.04   0.03  -0.09     0.00  -0.00  -0.00
  42   1     0.02   0.03   0.01     0.02   0.05  -0.05    -0.04   0.05   0.05
  43   7     0.07   0.04   0.11     0.03  -0.13   0.12    -0.10   0.13   0.19
  44   1     0.03   0.01   0.03     0.05  -0.00   0.04    -0.04   0.06   0.06
  45   1     0.02  -0.00   0.03    -0.00  -0.08   0.06    -0.01   0.01   0.03
  46   6     0.08   0.02  -0.08     0.02   0.06   0.11    -0.08   0.03  -0.03
  47   8     0.22   0.04  -0.21    -0.03   0.04   0.24    -0.29   0.01   0.11
  48   7     0.07  -0.17  -0.02    -0.06   0.28  -0.04     0.24   0.15   0.14
  49   1     0.04  -0.07  -0.02    -0.03   0.10   0.00     0.07   0.07   0.08
  50   1    -0.01  -0.05   0.01     0.00   0.08  -0.02     0.10   0.06  -0.01
  51   7    -0.02   0.18  -0.06     0.18  -0.09   0.15    -0.19  -0.05  -0.36
  52   1    -0.02   0.04   0.01     0.04  -0.01  -0.00     0.01  -0.02  -0.11
  53   1     0.01   0.06  -0.01     0.02  -0.04   0.03    -0.06  -0.05  -0.09
                     16                     17                     18
                        a                      a                      a 
 Frequencies --    77.8082                83.1382                96.5625
 Red. masses --    12.7480                12.3202                12.1074
 Frc consts  --     0.0000                 0.0000                 0.0000
 IR Inten    --     4.1512                 7.6527                 4.9650
 Raman Activ --     0.0000                 0.0000                 0.0000
 Depolar     --     0.0000                 0.0000                 0.0000
 Atom AN      X      Y      Z        X      Y      Z        X      Y      Z
   1   8    -0.09   0.07  -0.30    -0.08  -0.09  -0.07    -0.02   0.08  -0.07
   2   6    -0.08  -0.01  -0.13    -0.19   0.06   0.02     0.10  -0.06  -0.14
   3   1    -0.02  -0.00  -0.03    -0.10   0.01  -0.02     0.07  -0.02  -0.01
   4   1    -0.05  -0.02  -0.03    -0.06   0.04   0.03     0.04  -0.05  -0.07
   5   6     0.02   0.00  -0.03    -0.10   0.11   0.11    -0.01  -0.07  -0.24
   6   1    -0.00   0.00  -0.02    -0.01   0.03   0.04    -0.03  -0.02  -0.10
   7   1     0.00  -0.02   0.02    -0.05   0.04   0.05     0.02  -0.04  -0.09
   8   7     0.15   0.10  -0.03    -0.01   0.11   0.07    -0.12   0.02  -0.15
   9   6     0.14   0.17  -0.12    -0.08   0.15   0.10    -0.18   0.08  -0.13
  10   1     0.04   0.05  -0.04    -0.04   0.02   0.04    -0.06   0.03  -0.07
  11   1     0.06   0.07  -0.03    -0.01   0.04   0.02    -0.07   0.04  -0.02
  12   1     0.03   0.05  -0.05    -0.03   0.07   0.03    -0.04   0.02  -0.02
  13   6     0.20   0.07   0.05     0.04  -0.06   0.06    -0.17   0.08  -0.20
  14   1     0.05   0.02   0.02    -0.01  -0.04   0.03    -0.05   0.03  -0.08
  15   1     0.06   0.01   0.03     0.03  -0.02   0.01    -0.04   0.02  -0.06
  16   1     0.07   0.03   0.01     0.03  -0.02   0.01    -0.07   0.03  -0.04
  17   6     0.18   0.11  -0.00     0.12   0.20  -0.01    -0.07  -0.02   0.02
  18   1     0.06   0.02   0.00     0.05   0.05  -0.01    -0.01  -0.03   0.01
  19   1     0.05   0.04  -0.01     0.03   0.10   0.00    -0.01  -0.02   0.01
  20   1     0.06   0.04   0.00     0.05   0.05  -0.01    -0.03   0.02   0.03
  21   1    -0.03   0.01  -0.06     0.02  -0.01  -0.01    -0.03   0.01  -0.01
  22   6    -0.02   0.03   0.04     0.03  -0.10  -0.07     0.01  -0.05   0.03
  23   8     0.01   0.06   0.15     0.02  -0.30  -0.16     0.07  -0.05   0.17
  24   7     0.05  -0.13  -0.06    -0.03   0.29   0.03     0.10   0.12  -0.06
  25   1     0.04  -0.05  -0.01    -0.03   0.10   0.01     0.05   0.06  -0.01
  26   1     0.01  -0.04  -0.03    -0.01   0.10   0.02     0.01   0.03  -0.05
  27   7    -0.12   0.16   0.04     0.10  -0.31  -0.09    -0.10  -0.25  -0.01
  28   1    -0.04   0.03  -0.01     0.03  -0.03  -0.01    -0.04  -0.05  -0.02
  29   1    -0.04   0.04   0.02     0.03  -0.09  -0.03    -0.05  -0.04   0.01
  30   6    -0.11  -0.14   0.09    -0.05  -0.02  -0.05     0.11  -0.11   0.12
  31   8    -0.35  -0.36   0.08    -0.10  -0.14  -0.13     0.19  -0.16   0.10
  32   7     0.10  -0.17   0.29    -0.01   0.03   0.02     0.08  -0.07   0.14
  33   1     0.03  -0.10   0.10    -0.00  -0.02   0.00     0.03  -0.03   0.02
  34   1     0.08  -0.02   0.07     0.01   0.03   0.02     0.01  -0.03   0.03
  35   7    -0.08   0.09  -0.05    -0.05   0.09  -0.05     0.11  -0.15   0.21
  36   1     0.02   0.07  -0.01    -0.00   0.04  -0.01     0.01  -0.02   0.08
  37   1    -0.06   0.03  -0.05    -0.02   0.01  -0.04     0.04  -0.04   0.07
  38   6     0.02   0.01  -0.03     0.06  -0.03   0.07    -0.01  -0.00   0.04
  39   8    -0.03   0.05   0.01     0.27   0.07   0.10    -0.03   0.07   0.09
  40   7     0.05  -0.02  -0.07    -0.00  -0.18   0.23    -0.01  -0.04   0.05
  41   1     0.00   0.01  -0.01     0.03  -0.07   0.07    -0.00  -0.01   0.02
  42   1     0.02  -0.01  -0.02    -0.03  -0.08   0.05     0.00  -0.03   0.00
  43   7     0.05  -0.02  -0.04    -0.09   0.01  -0.09     0.01  -0.05  -0.03
  44   1     0.02  -0.02  -0.02    -0.07  -0.01  -0.02     0.00  -0.02  -0.01
  45   1     0.01  -0.00  -0.01    -0.02   0.04  -0.05    -0.00  -0.00  -0.01
  46   6    -0.04  -0.03   0.03     0.04   0.02  -0.03    -0.01   0.15   0.01
  47   8    -0.05  -0.02   0.00     0.07   0.04  -0.08    -0.09   0.26  -0.17
  48   7    -0.06  -0.04   0.02     0.10  -0.07   0.04     0.07   0.04   0.13
  49   1    -0.02  -0.01  -0.00     0.03  -0.03   0.01     0.01   0.00   0.01
  50   1    -0.02  -0.01   0.01     0.02  -0.02   0.01     0.03  -0.01   0.07
  51   7    -0.00  -0.04   0.08    -0.03   0.09  -0.07     0.01   0.19   0.10
  52   1    -0.01  -0.01   0.02     0.00   0.01   0.00     0.03   0.04   0.07
  53   1    -0.01  -0.00   0.02     0.01   0.02  -0.01     0.00   0.07   0.02
                     19                     20                     21
                        a                      a                      a 
 Frequencies --   105.9985               115.3701               119.9790
 Red. masses --    13.0471                11.6539                11.4536
 Frc consts  --     0.0000                 0.0000                 0.0000
 IR Inten    --     4.6361                15.7164                 8.7705
 Raman Activ --     0.0000                 0.0000                 0.0000
 Depolar     --     0.0000                 0.0000                 0.0000
 Atom AN      X      Y      Z        X      Y      Z        X      Y      Z
   1   8    -0.03  -0.04   0.09    -0.08   0.07   0.04    -0.05   0.03   0.09
   2   6     0.03  -0.13   0.09     0.11  -0.21   0.02    -0.13   0.17   0.05
   3   1     0.03  -0.04   0.05     0.10  -0.05   0.04    -0.07   0.07  -0.05
   4   1     0.01  -0.06   0.01     0.02  -0.12  -0.02    -0.05   0.10   0.06
   5   6     0.00  -0.08   0.07     0.08  -0.33  -0.04    -0.02   0.03   0.11
   6   1    -0.02  -0.02  -0.01    -0.03  -0.11  -0.03     0.00  -0.01   0.08
   7   1     0.01  -0.05   0.03     0.06  -0.14  -0.02    -0.02   0.02   0.04
   8   7     0.00   0.03   0.15     0.13  -0.19   0.04     0.11  -0.14  -0.05
   9   6    -0.03   0.12   0.09     0.09  -0.04  -0.05     0.12  -0.21   0.03
  10   1    -0.02   0.04  -0.00     0.01  -0.01  -0.04     0.04  -0.07   0.04
  11   1    -0.01   0.06   0.04     0.03   0.02   0.00     0.04  -0.08  -0.01
  12   1    -0.01   0.02   0.02     0.02  -0.02  -0.02     0.03  -0.04   0.01
  13   6    -0.00   0.07   0.15     0.13  -0.12   0.09     0.17  -0.28  -0.03
  14   1    -0.00   0.03   0.02     0.04  -0.03   0.00     0.03  -0.10   0.01
  15   1     0.00   0.01   0.05     0.04  -0.05   0.04     0.06  -0.08  -0.02
  16   1    -0.00   0.03   0.05     0.04  -0.01   0.04     0.07  -0.09  -0.02
  17   6     0.04   0.02   0.23     0.17  -0.19   0.17     0.14  -0.03  -0.26
  18   1     0.02  -0.01   0.07     0.06  -0.08   0.06     0.04   0.01  -0.09
  19   1     0.01   0.00   0.07     0.05  -0.06   0.04     0.03   0.03  -0.08
  20   1     0.01   0.02   0.08     0.05  -0.03   0.07     0.06  -0.04  -0.10
  21   1    -0.03  -0.02   0.01    -0.07   0.01  -0.00     0.00   0.01   0.05
  22   6     0.01   0.02   0.07    -0.09  -0.00  -0.08    -0.05  -0.01  -0.00
  23   8     0.05   0.10   0.23    -0.13   0.03  -0.13    -0.00   0.04   0.16
  24   7     0.10  -0.02  -0.06    -0.14   0.04  -0.03     0.05   0.04  -0.15
  25   1     0.06  -0.00  -0.01    -0.05   0.02  -0.01     0.05   0.03  -0.03
  26   1     0.02  -0.03  -0.05    -0.03   0.00  -0.00     0.00  -0.00  -0.08
  27   7    -0.12  -0.02   0.04    -0.05  -0.09  -0.08    -0.20  -0.13  -0.05
  28   1    -0.04  -0.01  -0.01    -0.01  -0.02  -0.02    -0.06  -0.03  -0.04
  29   1    -0.04   0.00   0.02    -0.02  -0.01  -0.02    -0.07  -0.02   0.00
  30   6    -0.02   0.01  -0.17    -0.04   0.03  -0.11    -0.04   0.05   0.05
  31   8     0.03  -0.16  -0.35    -0.05  -0.03  -0.18    -0.09   0.16   0.16
  32   7    -0.08   0.15  -0.12    -0.05   0.07  -0.10     0.01  -0.05   0.00
  33   1    -0.01   0.02  -0.06    -0.02   0.02  -0.02    -0.00   0.01   0.03
  34   1    -0.03   0.07   0.00    -0.02   0.05   0.00     0.01  -0.02  -0.01
  35   7    -0.04   0.12  -0.06    -0.05   0.10  -0.10    -0.03   0.00  -0.05
  36   1    -0.02   0.05  -0.01    -0.01   0.02  -0.03     0.00  -0.02  -0.03
  37   1    -0.00  -0.01  -0.05    -0.01   0.01  -0.05    -0.02   0.02   0.00
  38   6    -0.07  -0.04   0.00     0.05   0.07   0.02    -0.06  -0.08   0.04
  39   8    -0.20  -0.11  -0.01     0.08   0.17   0.07    -0.17  -0.13   0.05
  40   7    -0.05   0.06  -0.08     0.04   0.02   0.06    -0.02  -0.03  -0.04
  41   1    -0.03   0.02  -0.03     0.01   0.00   0.02    -0.02   0.01  -0.01
  42   1     0.01   0.03  -0.02     0.01  -0.02   0.00     0.00   0.01  -0.00
  43   7     0.02  -0.07   0.11     0.04   0.04  -0.09     0.01  -0.10   0.15
  44   1     0.04  -0.01   0.03    -0.00  -0.00  -0.03     0.03  -0.02   0.04
  45   1     0.00  -0.05   0.04     0.01   0.03  -0.03    -0.00  -0.05   0.06
  46   6     0.09   0.01  -0.13    -0.07   0.13   0.11     0.05   0.15  -0.06
  47   8     0.19   0.08  -0.36    -0.20   0.17   0.14     0.00   0.23  -0.16
  48   7     0.04  -0.24  -0.05     0.02   0.24   0.15     0.13   0.11   0.03
  49   1     0.01  -0.10  -0.05    -0.01   0.08   0.05     0.04   0.02   0.01
  50   1    -0.02  -0.08   0.02     0.04   0.06   0.03     0.06   0.01   0.02
  51   7     0.05   0.15   0.02    -0.02   0.07   0.08     0.04   0.19  -0.04
  52   1    -0.00   0.03   0.04     0.02   0.02   0.02     0.02   0.05   0.01
  53   1     0.02   0.07  -0.00    -0.01   0.01   0.02     0.00   0.05  -0.02
                     22                     23                     24
                        a                      a                      a 
 Frequencies --   157.1926               169.6404               173.6022
 Red. masses --    12.4660                13.5852                13.2782
 Frc consts  --     0.0000                 0.0000                 0.0000
 IR Inten    --    17.3270                43.9919                28.1370
 Raman Activ --     0.0000                 0.0000                 0.0000
 Depolar     --     0.0000                 0.0000                 0.0000
 Atom AN      X      Y      Z        X      Y      Z        X      Y      Z
   1   8    -0.21   0.39   0.15    -0.04   0.12   0.00     0.03  -0.01  -0.08
   2   6    -0.01   0.14   0.02     0.03   0.02  -0.01     0.00  -0.02  -0.00
   3   1     0.06   0.06   0.01     0.03   0.01   0.01    -0.00  -0.01   0.01
   4   1    -0.02   0.01  -0.00     0.01  -0.01  -0.02    -0.00  -0.02  -0.00
   5   6    -0.06  -0.10  -0.08    -0.01  -0.02  -0.04     0.02   0.04   0.03
   6   1    -0.09  -0.05  -0.03    -0.02  -0.01  -0.02     0.02   0.02   0.01
   7   1     0.03  -0.08  -0.05     0.01  -0.02  -0.02    -0.01   0.03   0.01
   8   7    -0.01   0.01  -0.04    -0.03   0.03  -0.01    -0.00   0.00   0.02
   9   6     0.01   0.09  -0.13    -0.03   0.06  -0.04    -0.01  -0.02   0.05
  10   1     0.01   0.04  -0.07    -0.01   0.02  -0.02    -0.01  -0.01   0.03
  11   1     0.00   0.05  -0.02    -0.01   0.03  -0.00     0.00  -0.02   0.01
  12   1     0.00   0.01  -0.05    -0.01   0.01  -0.01    -0.01   0.00   0.02
  13   6     0.02   0.07   0.05    -0.03   0.06   0.01    -0.02  -0.01  -0.02
  14   1     0.02   0.03   0.01     0.01   0.02   0.02    -0.01  -0.01  -0.01
  15   1    -0.01   0.02   0.03    -0.02   0.03   0.00    -0.00  -0.00  -0.01
  16   1     0.02   0.03   0.01    -0.01   0.01  -0.00    -0.01  -0.01  -0.00
  17   6    -0.02  -0.02   0.04    -0.04   0.00   0.05    -0.00   0.01  -0.00
  18   1    -0.02  -0.02   0.04    -0.02  -0.01   0.03     0.00   0.01  -0.01
  19   1    -0.02  -0.02  -0.01    -0.01  -0.01   0.01     0.01   0.01   0.01
  20   1     0.01   0.02   0.02    -0.01   0.01   0.02    -0.01  -0.01  -0.00
  21   1    -0.10   0.08   0.05    -0.03   0.02   0.01     0.01  -0.00  -0.02
  22   6     0.03  -0.04   0.04    -0.13  -0.02  -0.11    -0.10  -0.21   0.03
  23   8     0.02  -0.16  -0.05    -0.08   0.03   0.06    -0.08  -0.62   0.03
  24   7    -0.02   0.01   0.11    -0.01   0.03  -0.29    -0.12   0.05   0.04
  25   1    -0.03  -0.02   0.03     0.04   0.04  -0.07    -0.04  -0.06   0.01
  26   1    -0.00   0.02   0.05    -0.02   0.01  -0.12    -0.05   0.07   0.02
  27   7     0.08   0.05   0.06    -0.28  -0.12  -0.15    -0.22  -0.01   0.06
  28   1     0.03   0.02   0.02    -0.08  -0.04  -0.05    -0.06   0.12   0.01
  29   1     0.03   0.00   0.01    -0.08  -0.06  -0.03    -0.05  -0.03   0.01
  30   6    -0.00  -0.01  -0.00     0.00   0.00  -0.00     0.00   0.00  -0.00
  31   8    -0.01  -0.03  -0.01     0.00  -0.00  -0.00     0.00   0.00   0.00
  32   7     0.00  -0.00   0.01    -0.00   0.01   0.01    -0.00   0.00  -0.00
  33   1     0.00  -0.01  -0.00     0.00  -0.02  -0.02     0.00  -0.00  -0.00
  34   1     0.00  -0.00  -0.00     0.00  -0.02  -0.02     0.00  -0.00  -0.00
  35   7    -0.00  -0.00  -0.00     0.01  -0.02  -0.01     0.00   0.00  -0.00
  36   1    -0.00   0.01   0.01    -0.01   0.03   0.02     0.00   0.00  -0.00
  37   1    -0.00   0.00   0.00    -0.00   0.02   0.02     0.00   0.00   0.00
  38   6    -0.02  -0.03   0.13    -0.02  -0.02   0.04     0.11   0.17  -0.06
  39   8    -0.14   0.01   0.23    -0.03   0.01   0.08    -0.05   0.04  -0.13
  40   7     0.04  -0.04   0.07    -0.01  -0.06   0.04     0.10   0.38  -0.15
  41   1     0.01  -0.01   0.01    -0.00  -0.01   0.02     0.04   0.08  -0.08
  42   1     0.04  -0.04  -0.00     0.00  -0.02   0.01     0.07   0.09  -0.06
  43   7     0.11  -0.13   0.19    -0.01  -0.05   0.02     0.30   0.11   0.11
  44   1     0.06  -0.02   0.05     0.00  -0.02   0.00     0.10   0.10   0.06
  45   1     0.01  -0.04   0.09    -0.01  -0.01   0.01     0.06   0.00   0.08
  46   6     0.04  -0.06  -0.19     0.20  -0.05   0.11     0.01   0.00   0.02
  47   8    -0.13  -0.09  -0.09     0.52  -0.23   0.44     0.04   0.00   0.01
  48   7     0.22   0.10  -0.15     0.02   0.11  -0.09    -0.02  -0.01   0.01
  49   1     0.05   0.06  -0.01     0.08   0.01   0.05     0.00  -0.01   0.00
  50   1     0.10   0.03  -0.07    -0.02   0.06  -0.07    -0.01  -0.00   0.01
  51   7     0.04  -0.19  -0.36     0.02   0.07  -0.07     0.01   0.03   0.03
  52   1     0.05  -0.06  -0.10    -0.08   0.05  -0.09    -0.01   0.01   0.00
  53   1    -0.01  -0.07  -0.10     0.02  -0.00  -0.00    -0.00   0.01   0.01
                     25                     26                     27
                        a                      a                      a 
 Frequencies --   180.8158               198.2735               246.8788
 Red. masses --     3.7134                11.0787                13.3071
 Frc consts  --     0.0000                 0.0000                 0.0000
 IR Inten    --     9.0299                 8.0590                15.0651
 Raman Activ --     0.0000                 0.0000                 0.0000
 Depolar     --     0.0000                 0.0000                 0.0000
 Atom AN      X      Y      Z        X      Y      Z        X      Y      Z
   1   8    -0.00   0.04  -0.06     0.00  -0.21   0.53     0.15  -0.51   0.12
   2   6     0.00   0.00  -0.01    -0.05   0.15   0.03    -0.02  -0.14  -0.04
   3   1     0.00  -0.00   0.00    -0.04   0.07  -0.08    -0.06  -0.05  -0.04
   4   1    -0.00  -0.01  -0.01     0.03   0.15   0.05     0.04   0.02   0.00
   5   6     0.01   0.02  -0.00    -0.17  -0.15  -0.15    -0.03   0.01  -0.04
   6   1     0.01   0.01  -0.00    -0.15  -0.08  -0.06     0.01   0.02  -0.02
   7   1    -0.00   0.01  -0.00     0.02  -0.12  -0.07    -0.03   0.01   0.01
   8   7    -0.01   0.01  -0.00    -0.01   0.04  -0.12     0.02   0.04  -0.04
   9   6    -0.02  -0.00   0.02     0.04   0.17  -0.29     0.03   0.01  -0.02
  10   1    -0.01  -0.00   0.01     0.04   0.10  -0.18     0.04   0.05  -0.07
  11   1    -0.00  -0.01   0.00    -0.04   0.11  -0.03    -0.07   0.02   0.04
  12   1    -0.01   0.00   0.01     0.04  -0.04  -0.09     0.06  -0.07   0.03
  13   6    -0.02  -0.00  -0.02     0.14   0.09   0.11     0.04   0.05  -0.01
  14   1    -0.00  -0.00  -0.00     0.07   0.03   0.06     0.03   0.02   0.02
  15   1    -0.01   0.00  -0.01    -0.01   0.04   0.07    -0.01   0.04  -0.01
  16   1    -0.01  -0.01  -0.01     0.08   0.02   0.01     0.01  -0.01  -0.02
  17   6    -0.01   0.00   0.01    -0.00   0.04  -0.10     0.03   0.06  -0.08
  18   1    -0.00   0.00  -0.00    -0.03  -0.04   0.05     0.00   0.01  -0.01
  19   1     0.00  -0.00   0.01    -0.05   0.01  -0.11    -0.00   0.02  -0.04
  20   1    -0.01   0.00   0.01     0.08   0.06  -0.02     0.03   0.02  -0.03
  21   1    -0.01   0.01  -0.01     0.05  -0.03   0.10     0.09  -0.12   0.05
  22   6    -0.01  -0.00  -0.00     0.00  -0.03  -0.00    -0.01   0.01   0.00
  23   8    -0.00   0.00   0.01     0.00  -0.07  -0.01    -0.01   0.01   0.00
  24   7     0.00   0.00  -0.02    -0.00   0.02   0.01    -0.00  -0.02  -0.00
  25   1     0.00   0.00  -0.00    -0.00  -0.01   0.00    -0.00   0.01  -0.00
  26   1    -0.00  -0.00  -0.01    -0.00   0.01   0.00    -0.00   0.01   0.00
  27   7    -0.02  -0.01  -0.01    -0.01  -0.00   0.00    -0.01  -0.00  -0.00
  28   1    -0.00  -0.00  -0.00    -0.00   0.01  -0.00    -0.00  -0.00  -0.00
  29   1    -0.00  -0.00  -0.00    -0.00  -0.01   0.00    -0.00  -0.00   0.00
  30   6     0.01  -0.02   0.03    -0.01  -0.01   0.01     0.00  -0.00   0.00
  31   8     0.01  -0.01   0.03    -0.01  -0.02   0.01     0.00  -0.00   0.01
  32   7     0.05  -0.23  -0.20     0.01  -0.03   0.00     0.00  -0.01   0.00
  33   1    -0.06   0.28   0.25    -0.00   0.02   0.03     0.00  -0.00   0.00
  34   1    -0.06   0.34   0.35     0.00   0.03   0.03     0.00   0.00   0.00
  35   7    -0.05   0.23   0.19    -0.01   0.02   0.02     0.00  -0.00   0.00
  36   1     0.09  -0.41  -0.28     0.01  -0.04  -0.03    -0.00  -0.00   0.00
  37   1     0.07  -0.29  -0.23     0.00  -0.03  -0.02    -0.00   0.00   0.00
  38   6    -0.01   0.00   0.01     0.05  -0.03  -0.08    -0.11   0.16   0.12
  39   8    -0.02   0.02   0.03     0.13  -0.16  -0.20    -0.32   0.43   0.34
  40   7     0.00  -0.01   0.01    -0.01   0.06  -0.03     0.01   0.02  -0.04
  41   1    -0.00  -0.00   0.00     0.00   0.01  -0.02     0.00   0.01  -0.01
  42   1     0.00  -0.01  -0.00    -0.03   0.06   0.02     0.10  -0.11  -0.11
  43   7     0.00  -0.01   0.01    -0.01   0.05  -0.00     0.05  -0.06  -0.10
  44   1     0.00  -0.01  -0.00    -0.03   0.04   0.02    -0.02   0.03   0.00
  45   1    -0.00  -0.00   0.00     0.01  -0.00  -0.02    -0.08   0.12   0.08
  46   6     0.02  -0.01  -0.00    -0.02   0.01   0.07     0.03  -0.02  -0.06
  47   8     0.03  -0.02   0.02     0.04   0.02   0.04    -0.01  -0.05  -0.00
  48   7     0.01   0.01  -0.02    -0.09  -0.04   0.05     0.07   0.07  -0.06
  49   1     0.01   0.00   0.00    -0.02  -0.03   0.00     0.04   0.02   0.02
  50   1     0.00   0.00  -0.01    -0.03  -0.02   0.03     0.06   0.01  -0.02
  51   7     0.00  -0.00  -0.02    -0.02   0.05   0.11     0.03  -0.06  -0.09
  52   1    -0.00   0.00  -0.01    -0.02   0.02   0.02    -0.01  -0.01  -0.03
  53   1     0.00  -0.00  -0.00     0.00   0.01   0.03    -0.02   0.01  -0.05
                     28                     29                     30
                        a                      a                      a 
 Frequencies --   267.4520               274.4507               305.7240
 Red. masses --     2.8886                 5.0285                 8.7991
 Frc consts  --     0.0000                 0.0000                 0.0000
 IR Inten    --   120.0542                21.6085                 3.7165
 Raman Activ --     0.0000                 0.0000                 0.0000
 Depolar     --     0.0000                 0.0000                 0.0000
 Atom AN      X      Y      Z        X      Y      Z        X      Y      Z
   1   8    -0.05   0.08   0.05     0.14   0.04  -0.24    -0.39  -0.00   0.20
   2   6     0.04  -0.06   0.03    -0.10   0.31  -0.06    -0.13  -0.14  -0.08
   3   1     0.04  -0.03   0.05    -0.10   0.12  -0.14     0.01  -0.04   0.02
   4   1     0.02  -0.06  -0.03    -0.09   0.18   0.09    -0.02  -0.08  -0.06
   5   6    -0.02   0.02   0.00     0.07  -0.05   0.04    -0.02  -0.02  -0.04
   6   1     0.01   0.01  -0.01    -0.03  -0.05   0.04     0.02   0.01  -0.02
   7   1    -0.01   0.01   0.00     0.05  -0.03  -0.02    -0.03  -0.02   0.05
   8   7    -0.02   0.01  -0.01     0.03  -0.09   0.05     0.14   0.08  -0.04
   9   6     0.00   0.02  -0.04    -0.04  -0.05   0.08     0.19  -0.21   0.21
  10   1    -0.03  -0.04   0.06     0.03   0.08  -0.14     0.14   0.03  -0.03
  11   1     0.08  -0.02  -0.06    -0.16   0.05   0.13    -0.13  -0.09   0.11
  12   1    -0.05   0.08  -0.05     0.09  -0.16   0.08     0.17  -0.20   0.15
  13   6     0.02  -0.02   0.04    -0.09  -0.03  -0.08    -0.09   0.28  -0.27
  14   1    -0.03  -0.01  -0.02     0.05   0.01   0.06     0.08   0.13  -0.02
  15   1     0.03  -0.05   0.04    -0.09   0.11  -0.09    -0.09   0.22  -0.16
  16   1     0.03   0.04   0.03    -0.07  -0.13  -0.08    -0.13  -0.04  -0.11
  17   6    -0.03   0.02  -0.06     0.06  -0.13   0.26     0.21   0.11   0.01
  18   1     0.02   0.06  -0.09    -0.08  -0.21   0.32     0.11   0.04  -0.05
  19   1     0.03   0.01   0.06    -0.12  -0.06  -0.19     0.09   0.05   0.07
  20   1    -0.08  -0.05  -0.03     0.25   0.15   0.13     0.01   0.01   0.00
  21   1    -0.03   0.03  -0.04     0.09   0.01  -0.00    -0.14  -0.01   0.05
  22   6    -0.00   0.02   0.01     0.00   0.01   0.00    -0.00   0.00  -0.00
  23   8    -0.00   0.06   0.02    -0.00   0.02   0.00    -0.00   0.00   0.00
  24   7     0.00  -0.01  -0.00    -0.00  -0.00   0.00     0.00   0.00  -0.00
  25   1     0.00   0.01   0.00    -0.00  -0.00   0.00     0.00   0.00  -0.00
  26   1     0.00  -0.01  -0.00     0.00  -0.01   0.00     0.00  -0.00  -0.00
  27   7    -0.01  -0.01   0.00     0.00   0.00   0.00     0.00   0.00   0.00
  28   1    -0.00  -0.00  -0.00     0.00  -0.00  -0.00     0.00  -0.00   0.00
  29   1    -0.00   0.00   0.00     0.00  -0.00   0.00     0.00  -0.00   0.00
  30   6    -0.00   0.00   0.00     0.00  -0.00  -0.01     0.01   0.00   0.00
  31   8    -0.00   0.00   0.01     0.00  -0.01  -0.02     0.01   0.00   0.00
  32   7     0.00  -0.00   0.00    -0.01   0.02  -0.01     0.00   0.00  -0.01
  33   1     0.00  -0.00   0.00    -0.00  -0.00  -0.01     0.00   0.01  -0.00
  34   1     0.00  -0.00  -0.00    -0.00  -0.00  -0.00    -0.00   0.00   0.00
  35   7    -0.00   0.00   0.00     0.00   0.01  -0.01     0.01  -0.01   0.01
  36   1     0.00  -0.01  -0.00     0.00   0.00  -0.00    -0.00  -0.00   0.00
  37   1     0.00  -0.00  -0.00    -0.00   0.00  -0.00     0.01  -0.00   0.01
  38   6     0.01  -0.02  -0.01    -0.00  -0.01  -0.00     0.03  -0.03  -0.03
  39   8     0.09  -0.08  -0.06     0.01  -0.02  -0.02     0.07  -0.07  -0.06
  40   7    -0.03   0.01   0.02    -0.01   0.01  -0.01    -0.01   0.00   0.02
  41   1     0.06  -0.07  -0.06     0.01  -0.01  -0.02     0.01  -0.01  -0.00
  42   1     0.13  -0.17  -0.14     0.05  -0.05  -0.05    -0.00  -0.01   0.00
  43   7     0.11  -0.24  -0.12     0.03  -0.07  -0.04     0.00  -0.00   0.00
  44   1    -0.37   0.51   0.35    -0.12   0.15   0.11    -0.03   0.05   0.03
  45   1    -0.19   0.31   0.23    -0.06   0.10   0.07    -0.00   0.00   0.00
  46   6    -0.00   0.01   0.01    -0.01   0.01   0.00    -0.01  -0.00   0.01
  47   8     0.01   0.01  -0.00    -0.01   0.01  -0.01     0.00  -0.00   0.01
  48   7    -0.02  -0.01   0.01    -0.01  -0.01   0.01     0.01  -0.02   0.02
  49   1    -0.00  -0.01  -0.00    -0.01  -0.00  -0.00    -0.03   0.01  -0.02
  50   1    -0.00  -0.01   0.02    -0.01  -0.00   0.00    -0.05   0.02  -0.03
  51   7    -0.01   0.02   0.01     0.00   0.00   0.01    -0.01  -0.00  -0.00
  52   1     0.01   0.00   0.01    -0.00   0.00   0.00     0.01  -0.00   0.01
  53   1     0.01  -0.00   0.01    -0.00   0.00  -0.00     0.00  -0.01   0.01
                     31                     32                     33
                        a                      a                      a 
 Frequencies --   310.2815               324.9114               327.4946
 Red. masses --     3.0453                 3.5267                 3.9140
 Frc consts  --     0.0000                 0.0000                 0.0000
 IR Inten    --   158.7446               141.2714                60.5848
 Raman Activ --     0.0000                 0.0000                 0.0000
 Depolar     --     0.0000                 0.0000                 0.0000
 Atom AN      X      Y      Z        X      Y      Z        X      Y      Z
   1   8    -0.03   0.01   0.01     0.01   0.08  -0.03    -0.00   0.10  -0.04
   2   6    -0.02   0.01  -0.00     0.09  -0.12   0.04     0.13  -0.18   0.06
   3   1    -0.01   0.00  -0.00     0.06  -0.05   0.07     0.08  -0.07   0.10
   4   1    -0.01   0.00   0.00     0.03  -0.09  -0.03     0.05  -0.14  -0.06
   5   6    -0.00   0.01   0.01     0.00   0.03   0.01     0.00   0.05   0.01
   6   1     0.00   0.00   0.00     0.01   0.02  -0.01     0.02   0.03  -0.02
   7   1    -0.00   0.00   0.01    -0.01   0.02  -0.00    -0.01   0.03   0.00
   8   7     0.01   0.01   0.00    -0.05   0.02   0.02    -0.07   0.04   0.03
   9   6     0.03  -0.02   0.01    -0.06   0.04   0.01    -0.09   0.06   0.02
  10   1     0.02   0.01  -0.01     0.00   0.06  -0.07     0.01   0.09  -0.11
  11   1    -0.00  -0.01   0.01    -0.08   0.05   0.05    -0.13   0.06   0.08
  12   1     0.02  -0.02   0.01     0.03  -0.05   0.03     0.04  -0.09   0.04
  13   6    -0.02   0.02  -0.04     0.06  -0.10   0.10     0.07  -0.14   0.14
  14   1    -0.03   0.00  -0.05     0.11  -0.03   0.20     0.15  -0.04   0.29
  15   1     0.02  -0.02  -0.01    -0.08   0.12  -0.02    -0.12   0.17  -0.04
  16   1    -0.02   0.04   0.01     0.04  -0.19  -0.08     0.06  -0.28  -0.12
  17   6     0.02   0.00   0.03    -0.05   0.06  -0.12    -0.08   0.10  -0.18
  18   1     0.01   0.00   0.00    -0.05   0.01  -0.00    -0.07   0.02  -0.00
  19   1     0.01  -0.00   0.02    -0.04   0.03  -0.08    -0.06   0.04  -0.12
  20   1    -0.01   0.00   0.01     0.04   0.02  -0.05     0.06   0.03  -0.08
  21   1    -0.01   0.00   0.00    -0.03   0.01  -0.02    -0.05   0.02  -0.03
  22   6     0.00   0.02   0.00    -0.03   0.04   0.01     0.02  -0.02  -0.00
  23   8     0.00   0.01  -0.01    -0.02   0.01  -0.00     0.01  -0.00   0.00
  24   7     0.02  -0.07   0.01     0.09  -0.31  -0.02    -0.06   0.17   0.01
  25   1    -0.02   0.05   0.00    -0.07   0.29  -0.01     0.04  -0.17   0.01
  26   1    -0.03   0.12   0.03    -0.16   0.67   0.07     0.10  -0.40  -0.04
  27   7     0.01  -0.02   0.00    -0.01   0.04   0.01     0.00  -0.00  -0.00
  28   1     0.01   0.03   0.00    -0.01  -0.16   0.01     0.00   0.10  -0.00
  29   1    -0.00   0.01  -0.00     0.00  -0.04   0.01     0.00   0.01  -0.00
  30   6     0.00  -0.02  -0.02    -0.00   0.01   0.01    -0.01   0.04   0.03
  31   8     0.01  -0.01  -0.01    -0.00   0.01   0.01    -0.01   0.01   0.01
  32   7    -0.01   0.04   0.05     0.00  -0.02  -0.02     0.01  -0.08  -0.08
  33   1     0.01  -0.04  -0.04    -0.01   0.02   0.02    -0.02   0.07   0.07
  34   1     0.01  -0.08  -0.07    -0.00   0.04   0.03    -0.01   0.14   0.14
  35   7    -0.01   0.05   0.03     0.01  -0.02  -0.02     0.02  -0.09  -0.06
  36   1     0.02  -0.09  -0.06    -0.01   0.04   0.03    -0.03   0.17   0.12
  37   1     0.01  -0.05  -0.04    -0.01   0.02   0.02    -0.02   0.08   0.07
  38   6     0.01  -0.01  -0.01     0.02  -0.01  -0.02     0.01  -0.00  -0.00
  39   8     0.03  -0.02  -0.02     0.02  -0.02  -0.03     0.02  -0.02  -0.01
  40   7     0.00  -0.01   0.01    -0.02   0.02   0.02     0.01  -0.01   0.01
  41   1     0.00  -0.00   0.00     0.01  -0.02  -0.01     0.00  -0.00   0.01
  42   1    -0.01   0.01   0.01     0.03  -0.04  -0.03    -0.02   0.02   0.02
  43   7    -0.00   0.01   0.00     0.00   0.02   0.02     0.00  -0.01  -0.00
  44   1    -0.00  -0.00  -0.00     0.01   0.00   0.00    -0.01   0.01   0.01
  45   1     0.01  -0.00  -0.01     0.01  -0.01   0.00     0.00  -0.00  -0.00
  46   6     0.02  -0.03   0.01    -0.01   0.01  -0.01    -0.01  -0.00  -0.01
  47   8    -0.00   0.00  -0.03    -0.02   0.02  -0.02    -0.02   0.01  -0.02
  48   7    -0.27   0.17  -0.16     0.02  -0.02   0.02    -0.05   0.03  -0.03
  49   1     0.33  -0.18   0.22    -0.03   0.01  -0.02     0.07  -0.04   0.04
  50   1     0.52  -0.36   0.41    -0.03   0.02  -0.02     0.12  -0.08   0.10
  51   7     0.03  -0.03   0.02     0.00   0.01   0.01     0.01  -0.01   0.01
  52   1    -0.13   0.05  -0.11     0.01  -0.00   0.01    -0.04   0.01  -0.03
  53   1    -0.05   0.01  -0.03     0.00   0.00   0.00    -0.01   0.01  -0.01
                     34                     35                     36
                        a                      a                      a 
 Frequencies --   329.7318               358.7403               364.2524
 Red. masses --     3.7522                 5.0850                 2.9777
 Frc consts  --     0.0000                 0.0000                 0.0000
 IR Inten    --   469.3201                 4.2757                 1.1675
 Raman Activ --     0.0000                 0.0000                 0.0000
 Depolar     --     0.0000                 0.0000                 0.0000
 Atom AN      X      Y      Z        X      Y      Z        X      Y      Z
   1   8     0.00   0.06  -0.03     0.15   0.01  -0.20    -0.01  -0.05   0.05
   2   6     0.08  -0.09   0.02    -0.02   0.20  -0.08     0.03  -0.02  -0.12
   3   1     0.05  -0.03   0.04    -0.03   0.10  -0.14     0.02   0.02  -0.08
   4   1     0.03  -0.07  -0.03    -0.06   0.14   0.07     0.00   0.03  -0.01
   5   6     0.01   0.01  -0.01     0.02  -0.28  -0.09     0.03  -0.16  -0.13
   6   1     0.01   0.01  -0.02    -0.15  -0.13  -0.06    -0.05  -0.06  -0.07
   7   1     0.00   0.01  -0.00     0.11  -0.20  -0.08     0.05  -0.10  -0.04
   8   7    -0.03   0.01   0.01    -0.01  -0.07   0.08     0.01   0.01  -0.00
   9   6    -0.06   0.02   0.03    -0.14  -0.05   0.18    -0.05  -0.10   0.19
  10   1     0.00   0.04  -0.06    -0.04   0.03  -0.04    -0.14  -0.25   0.41
  11   1    -0.09   0.03   0.06    -0.14   0.00   0.11     0.27  -0.19  -0.17
  12   1     0.03  -0.06   0.04     0.03  -0.07   0.12    -0.20   0.32  -0.01
  13   6     0.05  -0.07   0.08     0.01   0.14   0.23     0.00   0.20   0.08
  14   1     0.07  -0.02   0.13     0.09   0.08   0.12     0.14   0.10   0.16
  15   1    -0.05   0.06  -0.00    -0.09   0.11   0.09    -0.14   0.22  -0.00
  16   1     0.04  -0.11  -0.04     0.01  -0.01   0.03    -0.00  -0.09  -0.06
  17   6    -0.05   0.05  -0.12     0.00   0.00  -0.10     0.05   0.07  -0.08
  18   1    -0.04   0.01  -0.01     0.13   0.20  -0.32    -0.06  -0.07   0.12
  19   1    -0.04   0.02  -0.07     0.14   0.05   0.26    -0.09   0.05  -0.20
  20   1     0.03   0.01  -0.05    -0.25  -0.21  -0.10     0.20   0.09  -0.03
  21   1    -0.02   0.01  -0.01     0.08   0.00   0.01    -0.01  -0.01  -0.01
  22   6     0.00  -0.01  -0.00     0.00  -0.00  -0.00    -0.00  -0.00   0.00
  23   8     0.00  -0.00   0.00     0.00   0.00  -0.01    -0.00  -0.00  -0.00
  24   7    -0.02   0.05  -0.00    -0.00   0.00   0.01    -0.00   0.00  -0.00
  25   1     0.02  -0.05   0.00    -0.00   0.00   0.00     0.00  -0.00  -0.00
  26   1     0.03  -0.12  -0.02    -0.00   0.00   0.00    -0.00   0.00  -0.00
  27   7    -0.00   0.00  -0.00     0.00   0.01  -0.00    -0.00   0.01  -0.00
  28   1    -0.00   0.02  -0.00    -0.00  -0.01  -0.00     0.00  -0.01   0.00
  29   1     0.00  -0.00   0.00    -0.00  -0.00   0.00     0.00  -0.01   0.00
  30   6     0.01  -0.08  -0.06     0.01   0.01   0.00    -0.01   0.00   0.01
  31   8     0.02   0.01  -0.00     0.01   0.01   0.00    -0.01   0.01   0.01
  32   7    -0.03   0.18   0.21    -0.00   0.00  -0.01     0.00  -0.00   0.01
  33   1     0.05  -0.18  -0.17    -0.00   0.01   0.00     0.00  -0.00   0.00
  34   1     0.04  -0.37  -0.36    -0.00   0.01   0.01     0.01  -0.01  -0.01
  35   7    -0.06   0.22   0.14     0.01  -0.01   0.00    -0.01   0.01  -0.01
  36   1     0.07  -0.42  -0.29    -0.00   0.01   0.01     0.00  -0.01  -0.01
  37   1     0.05  -0.19  -0.15     0.00   0.00   0.00    -0.00   0.00  -0.00
  38   6     0.00   0.00   0.00    -0.00  -0.01   0.00    -0.01   0.01   0.01
  39   8     0.00  -0.00  -0.00    -0.00   0.00   0.01    -0.02   0.02   0.02
  40   7     0.00  -0.01   0.00     0.00   0.01  -0.01     0.01  -0.01  -0.01
  41   1    -0.00   0.00   0.00    -0.00   0.01  -0.01    -0.01   0.01   0.00
  42   1    -0.01   0.01   0.01     0.01  -0.00  -0.01    -0.02   0.02   0.02
  43   7     0.00  -0.00  -0.00    -0.01  -0.00  -0.00     0.01  -0.01  -0.01
  44   1     0.00  -0.00   0.00    -0.01   0.00   0.00     0.00  -0.00  -0.00
  45   1     0.00  -0.00  -0.00    -0.01   0.01   0.00    -0.00   0.00   0.00
  46   6    -0.00   0.00   0.00    -0.00   0.01   0.00     0.00   0.01  -0.01
  47   8    -0.00   0.00   0.00     0.00   0.01  -0.00     0.00   0.01  -0.01
  48   7     0.04  -0.01   0.02    -0.01  -0.00   0.00    -0.01  -0.00  -0.01
  49   1    -0.04   0.03  -0.02     0.01  -0.01   0.00     0.01  -0.01   0.00
  50   1    -0.07   0.05  -0.06     0.01  -0.01   0.02     0.03  -0.03   0.03
  51   7    -0.01   0.00  -0.01     0.01  -0.00   0.00     0.00   0.00  -0.01
  52   1     0.03  -0.01   0.03    -0.01   0.01  -0.01     0.00   0.00  -0.00
  53   1     0.01  -0.00   0.01    -0.01  -0.00  -0.00     0.01  -0.01   0.01
                     37                     38                     39
                        a                      a                      a 
 Frequencies --   376.7254               408.6918               429.0706
 Red. masses --     4.4681                 3.4159                 8.4940
 Frc consts  --     0.0000                 0.0000                 0.0000
 IR Inten    --     3.6662               219.0248                 1.7444
 Raman Activ --     0.0000                 0.0000                 0.0000
 Depolar     --     0.0000                 0.0000                 0.0000
 Atom AN      X      Y      Z        X      Y      Z        X      Y      Z
   1   8     0.06  -0.06   0.02    -0.01  -0.01   0.00    -0.16  -0.08   0.12
   2   6    -0.08   0.07   0.12     0.00  -0.01  -0.02    -0.09   0.04  -0.16
   3   1    -0.06   0.00   0.04     0.00  -0.00  -0.00    -0.03   0.02  -0.07
   4   1    -0.01   0.03   0.04     0.00  -0.00  -0.00    -0.03   0.04  -0.02
   5   6    -0.07   0.08   0.11     0.01   0.01  -0.00     0.13   0.04  -0.02
   6   1     0.01   0.02   0.08     0.01   0.01  -0.00     0.07   0.02   0.00
   7   1    -0.04   0.07   0.01    -0.00   0.01   0.00     0.00   0.02   0.05
   8   7    -0.04  -0.08  -0.03     0.00   0.00   0.01     0.31   0.10  -0.04
   9   6     0.09   0.08  -0.33    -0.00  -0.00   0.02    -0.08   0.29   0.22
  10   1     0.01  -0.03   0.01     0.01   0.01  -0.02    -0.15   0.01   0.04
  11   1     0.19   0.03  -0.16    -0.03   0.01   0.02    -0.03   0.10   0.07
  12   1    -0.09   0.11  -0.21     0.01  -0.02   0.01    -0.02   0.19   0.13
  13   6    -0.10  -0.07  -0.12     0.01  -0.01   0.01     0.28  -0.06  -0.19
  14   1     0.15   0.01   0.23    -0.00  -0.01  -0.00     0.08  -0.05   0.03
  15   1    -0.19   0.27  -0.18     0.01  -0.01   0.00     0.07   0.05  -0.12
  16   1    -0.08  -0.31  -0.19     0.00   0.00   0.01     0.07  -0.11  -0.10
  17   6     0.12  -0.09   0.25    -0.01  -0.00   0.00    -0.28  -0.30   0.05
  18   1     0.17   0.02  -0.09    -0.00   0.01  -0.00    -0.19   0.03   0.00
  19   1     0.15  -0.02   0.28    -0.00  -0.00   0.00    -0.02  -0.27   0.03
  20   1    -0.16  -0.07   0.10    -0.01  -0.01  -0.00    -0.21  -0.13   0.02
  21   1     0.05   0.00  -0.02     0.00   0.01  -0.04    -0.04  -0.02   0.04
  22   6     0.00   0.00   0.00    -0.01  -0.04  -0.00    -0.01  -0.01   0.00
  23   8     0.00  -0.00  -0.00    -0.01  -0.04   0.00    -0.00  -0.01   0.01
  24   7     0.00   0.00  -0.00     0.01   0.01  -0.03    -0.01   0.01  -0.00
  25   1     0.00  -0.00   0.00     0.01  -0.03  -0.01     0.00  -0.01  -0.00
  26   1     0.00  -0.01  -0.00    -0.02   0.08  -0.00    -0.00  -0.01  -0.00
  27   7    -0.00   0.01   0.00     0.04   0.05   0.00     0.01   0.03  -0.00
  28   1     0.00   0.00   0.00     0.01  -0.14   0.01    -0.00  -0.07   0.00
  29   1     0.00  -0.01   0.00     0.01  -0.01   0.00     0.00  -0.01   0.00
  30   6     0.00   0.01  -0.00     0.00   0.00   0.00     0.01  -0.00   0.01
  31   8     0.00   0.01   0.00     0.00  -0.00   0.00     0.00  -0.00   0.01
  32   7    -0.00   0.02   0.01    -0.00  -0.00  -0.01    -0.01   0.00  -0.01
  33   1     0.00  -0.00  -0.01    -0.00   0.00  -0.00    -0.01   0.03   0.01
  34   1     0.00  -0.04  -0.04    -0.00   0.01   0.01    -0.01  -0.03  -0.03
  35   7    -0.00   0.01   0.01     0.00  -0.00  -0.00     0.01   0.01   0.00
  36   1     0.00  -0.03  -0.02    -0.00   0.01   0.01     0.01   0.02   0.01
  37   1     0.01  -0.01  -0.01    -0.00   0.00  -0.00    -0.00  -0.02  -0.03
  38   6    -0.01   0.01   0.01    -0.09   0.11   0.10     0.01  -0.00  -0.00
  39   8    -0.02   0.02   0.02    -0.05   0.05   0.05     0.00  -0.00  -0.00
  40   7     0.01  -0.00  -0.01     0.16  -0.17  -0.16    -0.00   0.00   0.00
  41   1    -0.01   0.01   0.00    -0.05   0.05   0.02    -0.00   0.00   0.00
  42   1    -0.01   0.02   0.01    -0.43   0.55   0.44     0.01  -0.01  -0.01
  43   7     0.00  -0.01  -0.00     0.11  -0.16  -0.12    -0.00   0.01   0.00
  44   1     0.01  -0.01  -0.01    -0.11   0.14   0.09    -0.01   0.01   0.00
  45   1    -0.00   0.00   0.01    -0.03   0.07   0.04     0.00  -0.00  -0.01
  46   6    -0.00   0.00  -0.01     0.03  -0.01   0.02    -0.01   0.00  -0.02
  47   8    -0.01   0.01  -0.01     0.02   0.00   0.01    -0.01  -0.00  -0.01
  48   7     0.00  -0.00  -0.00    -0.03   0.02  -0.02     0.02  -0.00   0.01
  49   1    -0.00  -0.00  -0.00     0.01  -0.01  -0.00    -0.01   0.01  -0.01
  50   1     0.01  -0.01   0.01     0.01  -0.01   0.02     0.01  -0.01   0.01
  51   7     0.00  -0.00  -0.00    -0.05   0.01  -0.06     0.02  -0.00   0.02
  52   1     0.00  -0.00   0.00     0.15  -0.06   0.13    -0.05   0.02  -0.04
  53   1    -0.00   0.00  -0.00     0.02  -0.01   0.01    -0.00   0.00  -0.00
                     40                     41                     42
                        a                      a                      a 
 Frequencies --   434.2973               444.0112               449.2187
 Red. masses --     3.1426                 1.6033                 3.1691
 Frc consts  --     0.0000                 0.0000                 0.0000
 IR Inten    --   135.7845                 5.1758               354.6805
 Raman Activ --     0.0000                 0.0000                 0.0000
 Depolar     --     0.0000                 0.0000                 0.0000
 Atom AN      X      Y      Z        X      Y      Z        X      Y      Z
   1   8     0.01   0.00  -0.01    -0.01  -0.01   0.00    -0.01   0.01  -0.00
   2   6     0.01  -0.01   0.01    -0.01  -0.00   0.01     0.00   0.00  -0.01
   3   1     0.00  -0.00   0.01    -0.00   0.00  -0.00     0.00   0.00  -0.00
   4   1     0.00  -0.01  -0.00    -0.01   0.00   0.01     0.00   0.00  -0.00
   5   6    -0.02   0.00  -0.01     0.02  -0.01   0.02    -0.01  -0.01  -0.02
   6   1    -0.01   0.00  -0.01     0.01  -0.00   0.01    -0.01  -0.01  -0.01
   7   1     0.00  -0.00  -0.01     0.00  -0.00   0.01     0.00  -0.01  -0.00
   8   7    -0.04   0.00   0.00     0.03  -0.01   0.01    -0.01   0.02   0.01
   9   6     0.02  -0.04  -0.02    -0.01   0.04   0.01     0.03  -0.01   0.00
  10   1     0.03  -0.00   0.00    -0.02   0.00  -0.00     0.02   0.00   0.01
  11   1     0.01  -0.02  -0.01    -0.00   0.02   0.01     0.01  -0.01  -0.01
  12   1     0.00  -0.02  -0.02    -0.00   0.02   0.01     0.01  -0.01  -0.00
  13   6    -0.04  -0.01   0.01     0.01   0.01  -0.02    -0.01  -0.02  -0.00
  14   1    -0.02  -0.00  -0.01     0.01   0.00  -0.00    -0.01  -0.02   0.01
  15   1     0.00  -0.02   0.01    -0.00   0.01  -0.01     0.01  -0.01  -0.00
  16   1    -0.01   0.01   0.01    -0.01  -0.01  -0.01     0.00  -0.01  -0.00
  17   6     0.02   0.04   0.01    -0.01  -0.03  -0.01    -0.02   0.02   0.02
  18   1     0.02  -0.00   0.00    -0.01   0.01  -0.01    -0.00   0.01   0.00
  19   1    -0.00   0.03   0.00     0.00  -0.02  -0.00    -0.00   0.01   0.01
  20   1     0.02   0.02   0.00    -0.01  -0.02  -0.01    -0.01   0.01   0.00
  21   1     0.00   0.00  -0.00    -0.00  -0.00   0.00    -0.00  -0.00   0.01
  22   6    -0.03  -0.08   0.00     0.00   0.00  -0.00     0.06   0.05  -0.02
  23   8    -0.01  -0.08   0.05     0.00   0.00  -0.00     0.05   0.06  -0.04
  24   7    -0.05   0.13  -0.03     0.00  -0.00   0.00     0.03  -0.11   0.07
  25   1     0.03  -0.11  -0.00    -0.00   0.00  -0.00    -0.06   0.09   0.01
  26   1     0.00  -0.05  -0.03    -0.00   0.00   0.00     0.00   0.05   0.06
  27   7     0.08   0.23  -0.02    -0.00  -0.00  -0.00    -0.08  -0.14  -0.02
  28   1    -0.02  -0.71  -0.01     0.00   0.01   0.00     0.01   0.51  -0.01
  29   1    -0.01   0.01   0.04     0.00  -0.00  -0.00     0.01  -0.06  -0.03
  30   6     0.00   0.00  -0.00    -0.03   0.04  -0.05     0.00  -0.01   0.01
  31   8    -0.00   0.00  -0.00    -0.02   0.04  -0.05     0.00  -0.01   0.01
  32   7     0.00   0.01   0.00     0.05   0.09   0.07    -0.01   0.00   0.00
  33   1     0.00  -0.01  -0.01     0.09  -0.45  -0.24    -0.00   0.00  -0.01
  34   1     0.00   0.00   0.00     0.08   0.36   0.29    -0.01  -0.00   0.00
  35   7    -0.00  -0.00   0.00    -0.03  -0.12  -0.04     0.01   0.01  -0.01
  36   1    -0.00  -0.02  -0.01    -0.03  -0.41  -0.22     0.01  -0.01  -0.02
  37   1     0.00   0.01   0.01    -0.01   0.32   0.38    -0.01   0.01   0.00
  38   6     0.01   0.01  -0.01    -0.00   0.00  -0.00     0.01   0.01   0.05
  39   8     0.00   0.02  -0.01     0.00   0.00  -0.00    -0.02  -0.02   0.04
  40   7    -0.00  -0.02   0.01     0.00  -0.00  -0.00     0.06  -0.03  -0.02
  41   1    -0.00  -0.00   0.01    -0.00   0.00   0.00     0.01  -0.00  -0.02
  42   1    -0.02  -0.00   0.01    -0.00   0.00   0.00    -0.11   0.17   0.13
  43   7     0.03   0.00   0.01     0.00  -0.00   0.00    -0.00  -0.04  -0.07
  44   1     0.01   0.02   0.01    -0.00   0.00   0.00    -0.05   0.01   0.01
  45   1    -0.00   0.00   0.02     0.00  -0.00  -0.00    -0.02   0.06  -0.00
  46   6    -0.05   0.01  -0.07     0.00   0.00   0.00    -0.07  -0.02  -0.08
  47   8    -0.05  -0.01  -0.02     0.00   0.00   0.00    -0.07  -0.03  -0.03
  48   7     0.10  -0.03   0.03    -0.00  -0.00  -0.00     0.15  -0.04   0.05
  49   1    -0.07   0.04  -0.05     0.01  -0.00   0.00    -0.10   0.08  -0.06
  50   1     0.03  -0.01   0.00    -0.00   0.00  -0.00    -0.02   0.05  -0.07
  51   7     0.12   0.00   0.14    -0.00  -0.00  -0.01     0.13  -0.01   0.17
  52   1    -0.40   0.17  -0.33     0.01  -0.01   0.01    -0.49   0.20  -0.41
  53   1    -0.02   0.00   0.00    -0.00  -0.00  -0.00    -0.00  -0.02   0.03
                     43                     44                     45
                        a                      a                      a 
 Frequencies --   454.6753               463.1356               466.7360
 Red. masses --     8.3621                 7.2393                 6.8507
 Frc consts  --     0.0000                 0.0000                 0.0000
 IR Inten    --     1.1451                 3.0644                 4.4798
 Raman Activ --     0.0000                 0.0000                 0.0000
 Depolar     --     0.0000                 0.0000                 0.0000
 Atom AN      X      Y      Z        X      Y      Z        X      Y      Z
   1   8     0.02  -0.00  -0.03     0.04  -0.00  -0.05     0.04  -0.02  -0.04
   2   6    -0.01  -0.03   0.11     0.01  -0.01   0.05     0.00  -0.02   0.07
   3   1    -0.01  -0.00   0.01     0.01   0.01  -0.01    -0.00   0.01  -0.00
   4   1    -0.03  -0.01   0.05    -0.02   0.00   0.03    -0.02  -0.00   0.04
   5   6     0.03  -0.13   0.11    -0.03  -0.18  -0.00    -0.01  -0.16   0.03
   6   1    -0.05  -0.05   0.01    -0.17  -0.09  -0.08    -0.12  -0.07  -0.04
   7   1     0.05  -0.08   0.02     0.10  -0.20  -0.03     0.08  -0.15  -0.01
   8   7     0.07  -0.01   0.12     0.01   0.20   0.20     0.03   0.11   0.15
   9   6     0.07   0.12  -0.00     0.28   0.08   0.05     0.19   0.09   0.02
  10   1     0.01   0.03  -0.02     0.14   0.04   0.06     0.09   0.04   0.02
  11   1     0.05   0.07   0.01     0.12  -0.01  -0.02     0.08   0.02  -0.01
  12   1    -0.00   0.03  -0.03     0.05  -0.01  -0.06     0.03  -0.00  -0.04
  13   6    -0.10   0.01  -0.10    -0.12  -0.17  -0.15    -0.10  -0.10  -0.13
  14   1    -0.04   0.01  -0.06    -0.11  -0.11  -0.02    -0.08  -0.06  -0.04
  15   1     0.00   0.02  -0.08     0.05  -0.04  -0.16     0.04  -0.02  -0.12
  16   1    -0.09  -0.01  -0.01    -0.07  -0.11  -0.06    -0.07  -0.06  -0.04
  17   6    -0.04   0.01  -0.11    -0.19   0.18   0.00    -0.12   0.11  -0.04
  18   1    -0.06   0.04  -0.02    -0.11   0.10  -0.00    -0.08   0.08  -0.01
  19   1    -0.04   0.01  -0.07    -0.06   0.03  -0.03    -0.05   0.02  -0.04
  20   1     0.03  -0.03  -0.07    -0.04   0.00  -0.04    -0.02  -0.01  -0.04
  21   1     0.01   0.00  -0.01     0.01  -0.01   0.01     0.03   0.00  -0.03
  22   6     0.01   0.00  -0.01     0.07   0.01  -0.05    -0.11  -0.02   0.08
  23   8     0.01   0.01  -0.00     0.10   0.01   0.01    -0.17  -0.02  -0.04
  24   7    -0.01  -0.00   0.01    -0.04   0.01   0.09     0.07  -0.01  -0.15
  25   1    -0.02  -0.01   0.00    -0.09  -0.13   0.01     0.16   0.22  -0.02
  26   1     0.00   0.01   0.02     0.01   0.04   0.12    -0.02  -0.08  -0.20
  27   7    -0.01  -0.01  -0.01    -0.08   0.01  -0.09     0.14  -0.00   0.14
  28   1    -0.01   0.01  -0.01    -0.05  -0.08  -0.08     0.07   0.07   0.11
  29   1    -0.01   0.01   0.00    -0.07   0.01   0.02     0.09   0.02  -0.03
  30   6    -0.11   0.15  -0.21     0.03  -0.04   0.06     0.02  -0.03   0.04
  31   8    -0.12   0.17  -0.23     0.03  -0.04   0.07     0.02  -0.03   0.05
  32   7     0.37  -0.04   0.05    -0.10   0.01  -0.01    -0.07   0.00  -0.01
  33   1     0.05  -0.05   0.27    -0.02   0.02  -0.07    -0.01   0.02  -0.05
  34   1     0.29  -0.01  -0.10    -0.08   0.00   0.03    -0.06  -0.00   0.02
  35   7    -0.21  -0.18   0.25     0.06   0.05  -0.07     0.04   0.04  -0.05
  36   1    -0.26  -0.04   0.17     0.07   0.01  -0.05     0.05   0.01  -0.03
  37   1     0.14  -0.22   0.10    -0.04   0.06  -0.03    -0.03   0.04  -0.02
  38   6    -0.00  -0.00   0.01     0.03  -0.04   0.07    -0.05   0.05  -0.10
  39   8    -0.00  -0.00   0.01    -0.01  -0.07   0.07     0.03   0.12  -0.10
  40   7     0.01   0.00  -0.01     0.07   0.08  -0.04    -0.12  -0.11   0.05
  41   1    -0.00   0.00  -0.01    -0.01   0.04  -0.04     0.01  -0.05   0.05
  42   1    -0.00   0.02   0.01     0.07   0.03  -0.02    -0.10  -0.05   0.02
  43   7    -0.00  -0.01  -0.01    -0.08  -0.00  -0.06     0.12  -0.01   0.09
  44   1    -0.01  -0.00  -0.00    -0.11  -0.02  -0.01     0.20  -0.01  -0.01
  45   1    -0.00   0.01  -0.00     0.03   0.01  -0.12    -0.08   0.02   0.22
  46   6     0.00   0.00   0.00    -0.03  -0.08  -0.02     0.04   0.09   0.03
  47   8     0.00   0.00   0.00     0.03  -0.07  -0.10    -0.02   0.08   0.10
  48   7     0.00  -0.00   0.00     0.04   0.09  -0.03    -0.05  -0.08   0.04
  49   1     0.00  -0.00   0.00     0.15   0.04   0.19    -0.17  -0.03  -0.21
  50   1    -0.01   0.00  -0.01     0.02   0.10  -0.15    -0.02  -0.11   0.17
  51   7     0.01  -0.00   0.00    -0.08   0.04   0.10     0.06  -0.02  -0.12
  52   1    -0.01   0.01  -0.02     0.01  -0.03   0.12     0.04   0.01  -0.08
  53   1    -0.00  -0.00  -0.00     0.00   0.06   0.03     0.00  -0.06  -0.03
                     46                     47                     48
                        a                      a                      a 
 Frequencies --   469.7838               471.9247               474.8779
 Red. masses --     7.7669                 4.3368                 6.1696
 Frc consts  --     0.0000                 0.0000                 0.0000
 IR Inten    --    27.1814                10.5271                24.3099
 Raman Activ --     0.0000                 0.0000                 0.0000
 Depolar     --     0.0000                 0.0000                 0.0000
 Atom AN      X      Y      Z        X      Y      Z        X      Y      Z
   1   8    -0.02  -0.01   0.04     0.01  -0.01  -0.01     0.01   0.02  -0.02
   2   6     0.03   0.07  -0.22    -0.02  -0.02   0.08    -0.02  -0.04   0.11
   3   1     0.02   0.02  -0.05    -0.01  -0.01   0.01    -0.01  -0.00   0.02
   4   1     0.04   0.04  -0.07    -0.02  -0.01   0.03    -0.03  -0.02   0.04
   5   6    -0.07   0.09  -0.24     0.04  -0.03   0.10     0.05  -0.05   0.13
   6   1    -0.02   0.04  -0.09     0.03  -0.01   0.05     0.03  -0.01   0.05
   7   1    -0.01   0.01  -0.06    -0.00   0.01   0.03     0.00   0.01   0.03
   8   7    -0.12   0.18  -0.07     0.05  -0.10   0.02     0.06  -0.11   0.04
   9   6     0.09  -0.17   0.07    -0.07   0.07  -0.02    -0.06   0.10  -0.04
  10   1     0.10  -0.03   0.09    -0.06   0.01  -0.04    -0.06   0.01  -0.05
  11   1    -0.01  -0.14  -0.03    -0.00   0.06   0.01     0.01   0.08   0.01
  12   1     0.05  -0.08   0.03    -0.03   0.04  -0.01    -0.03   0.05  -0.02
  13   6     0.11  -0.19   0.11    -0.04   0.10  -0.03    -0.07   0.11  -0.05
  14   1    -0.02  -0.12   0.12     0.02   0.06  -0.04     0.01   0.07  -0.06
  15   1     0.05  -0.08   0.04    -0.03   0.05  -0.00    -0.03   0.05  -0.02
  16   1     0.13  -0.08  -0.02    -0.05   0.04   0.01    -0.08   0.04   0.02
  17   6    -0.08   0.11   0.26     0.05  -0.06  -0.11     0.06  -0.06  -0.15
  18   1     0.03   0.00   0.06    -0.00  -0.01  -0.03    -0.01  -0.00  -0.03
  19   1     0.02  -0.01   0.14    -0.00   0.00  -0.05    -0.01   0.01  -0.07
  20   1    -0.10   0.06   0.12     0.04  -0.03  -0.05     0.06  -0.04  -0.07
  21   1    -0.01  -0.01   0.03     0.01   0.01  -0.03    -0.01  -0.00   0.01
  22   6    -0.08  -0.03   0.08    -0.00   0.01   0.01    -0.13  -0.06   0.10
  23   8    -0.14  -0.04  -0.04    -0.01   0.01  -0.01    -0.20  -0.07  -0.05
  24   7     0.07  -0.01  -0.11     0.01  -0.01  -0.00     0.08  -0.00  -0.16
  25   1     0.13   0.20  -0.01     0.01   0.05   0.00     0.18   0.27  -0.02
  26   1    -0.01  -0.08  -0.17     0.00  -0.03  -0.02    -0.02  -0.09  -0.24
  27   7     0.11   0.03   0.13     0.02   0.00   0.01     0.16   0.04   0.18
  28   1     0.05   0.03   0.09     0.01   0.01   0.01     0.08   0.02   0.13
  29   1     0.08  -0.02  -0.02     0.01   0.00  -0.00     0.11   0.00  -0.02
  30   6    -0.03   0.05  -0.07     0.01  -0.02   0.02     0.01  -0.02   0.03
  31   8    -0.04   0.06  -0.08     0.01  -0.02   0.03     0.02  -0.02   0.03
  32   7     0.11   0.00   0.01    -0.04  -0.00  -0.01    -0.05  -0.00  -0.00
  33   1     0.02  -0.04   0.07    -0.01   0.01  -0.02    -0.01   0.02  -0.03
  34   1     0.10   0.01  -0.02    -0.03  -0.00   0.01    -0.04  -0.00   0.01
  35   7    -0.07  -0.06   0.07     0.02   0.02  -0.02     0.03   0.02  -0.03
  36   1    -0.09  -0.02   0.05     0.03   0.02  -0.01     0.04   0.01  -0.02
[...]
  44   1    -0.00   0.01  -0.01    -0.00   0.00  -0.00    -0.00   0.00  -0.00
  45   1     0.02   0.00   0.01     0.00   0.00   0.00     0.00   0.00   0.00
  46   6    -0.00   0.00   0.00     0.00  -0.01  -0.01     0.00   0.00   0.00
  47   8    -0.00  -0.00  -0.00     0.00   0.01   0.00    -0.00  -0.00  -0.00
  48   7     0.00  -0.00  -0.00    -0.00   0.00  -0.00    -0.00   0.00   0.00
  49   1     0.00   0.00  -0.00    -0.01  -0.01   0.01     0.00   0.00  -0.00
  50   1    -0.00  -0.00  -0.00     0.00   0.01   0.00    -0.00  -0.00  -0.00
  51   7    -0.05   0.01   0.08     0.01  -0.00  -0.02    -0.00  -0.00  -0.00
  52   1     0.00   0.05   0.02    -0.00  -0.01  -0.01     0.00   0.00   0.00
  53   1     0.18  -0.09  -0.33    -0.04   0.02   0.08     0.00  -0.00  -0.00
                    142                    143                    144
                        a                      a                      a 
 Frequencies --  3496.1611              3498.0936              3500.0625
 Red. masses --     1.4517                 1.4489                 1.4384
 Frc consts  --     0.0000                 0.0000                 0.0000
 IR Inten    --    16.3714                20.1883                38.6312
 Raman Activ --     0.0000                 0.0000                 0.0000
 Depolar     --     0.0000                 0.0000                 0.0000
 Atom AN      X      Y      Z        X      Y      Z        X      Y      Z
   1   8     0.00  -0.00  -0.00    -0.00   0.00   0.00     0.00  -0.00   0.00
   2   6    -0.00   0.00   0.00     0.00   0.00   0.00    -0.00  -0.00  -0.00
   3   1     0.00  -0.00  -0.00    -0.00   0.00   0.00     0.00   0.00  -0.00
   4   1    -0.00   0.00  -0.00    -0.00  -0.00  -0.00     0.00  -0.00   0.00
   5   6     0.00  -0.00  -0.00    -0.00   0.00   0.00    -0.00  -0.00  -0.00
   6   1    -0.00   0.00   0.00    -0.00  -0.00  -0.00    -0.00  -0.00  -0.00
   7   1    -0.00  -0.00  -0.00     0.00   0.00   0.00     0.00   0.00   0.00
   8   7    -0.00   0.00   0.00    -0.00  -0.00  -0.00     0.00   0.00  -0.00
   9   6     0.00  -0.00  -0.00     0.00   0.00  -0.00    -0.00   0.00  -0.00
  10   1    -0.00   0.00   0.00     0.00  -0.00   0.00    -0.00  -0.00  -0.00
  11   1    -0.00   0.00  -0.00    -0.00   0.00  -0.00    -0.00  -0.00   0.00
  12   1     0.00  -0.00  -0.00    -0.00  -0.00   0.00     0.00   0.00  -0.00
  13   6     0.00  -0.00  -0.00    -0.00   0.00  -0.00    -0.00  -0.00   0.00
  14   1    -0.00   0.00   0.00     0.00  -0.00   0.00     0.00  -0.00  -0.00
  15   1    -0.00  -0.00  -0.00    -0.00  -0.00  -0.00     0.00   0.00   0.00
  16   1     0.00  -0.00  -0.00     0.00  -0.00   0.00    -0.00  -0.00  -0.00
  17   6     0.00  -0.00   0.00    -0.00   0.00  -0.00    -0.00   0.00  -0.00
  18   1    -0.00  -0.00  -0.00    -0.00  -0.00  -0.00     0.00   0.00   0.00
  19   1    -0.00  -0.00   0.00     0.00  -0.00   0.00     0.00   0.00  -0.00
  20   1    -0.00   0.00  -0.00     0.00  -0.00   0.00    -0.00  -0.00   0.00
  21   1    -0.00   0.00   0.00     0.00  -0.01  -0.00    -0.00   0.00   0.00
  22   6     0.00  -0.00   0.00    -0.00  -0.00   0.00    -0.00  -0.00   0.00
  23   8    -0.00  -0.00  -0.00     0.00   0.00  -0.00     0.00   0.00  -0.00
  24   7    -0.00  -0.00  -0.00    -0.00  -0.00  -0.00    -0.00  -0.00  -0.00
  25   1    -0.00   0.00   0.00    -0.00  -0.00   0.00    -0.00  -0.00   0.00
  26   1     0.00   0.00  -0.00     0.00   0.00  -0.00     0.00   0.00  -0.00
  27   7     0.00  -0.00  -0.00     0.00   0.00   0.00     0.00   0.00   0.00
  28   1    -0.02   0.00   0.01    -0.00  -0.00   0.00     0.00  -0.00  -0.00
  29   1     0.01   0.00   0.01    -0.00  -0.00  -0.00    -0.00  -0.00  -0.00
  30   6     0.00   0.00  -0.00     0.00  -0.00   0.00     0.00   0.00   0.00
  31   8     0.00  -0.00   0.00    -0.00   0.00  -0.00     0.00   0.00  -0.00
  32   7     0.00   0.00  -0.00     0.00   0.00  -0.00     0.06   0.09  -0.07
  33   1    -0.00  -0.00  -0.00    -0.00  -0.00  -0.00    -0.44  -0.02  -0.09
  34   1     0.00  -0.00   0.00     0.00  -0.00   0.00     0.21  -0.31   0.35
  35   7     0.00   0.00   0.00     0.00   0.00   0.00     0.12   0.01   0.04
  36   1    -0.00   0.00  -0.00    -0.00   0.00  -0.00    -0.19   0.25  -0.42
  37   1    -0.00  -0.00   0.00    -0.00  -0.00   0.00    -0.28  -0.28   0.26
  38   6    -0.00  -0.00   0.00    -0.00  -0.00   0.00    -0.00   0.00  -0.00
  39   8     0.00   0.00  -0.00    -0.00   0.00  -0.00     0.00  -0.00   0.00
  40   7     0.00   0.00  -0.00     0.00   0.01  -0.01     0.00   0.00   0.00
  41   1    -0.00  -0.00   0.00    -0.01  -0.01   0.00    -0.00  -0.00   0.00
  42   1     0.00  -0.00   0.00     0.01  -0.02   0.03    -0.00   0.00  -0.00
  43   7    -0.00  -0.00   0.00    -0.12  -0.12   0.08     0.00   0.00  -0.00
  44   1    -0.00   0.00  -0.00    -0.13   0.33  -0.62     0.00  -0.00   0.00
  45   1     0.00   0.00   0.00     0.58   0.10   0.33    -0.00  -0.00  -0.00
  46   6     0.00   0.00   0.00    -0.00   0.00   0.00    -0.00  -0.00  -0.00
  47   8    -0.00  -0.00  -0.00     0.00  -0.00  -0.00     0.00   0.00   0.00
  48   7    -0.07   0.05   0.16     0.00  -0.00  -0.00     0.00  -0.00  -0.00
  49   1     0.42   0.42  -0.30    -0.00  -0.00   0.00    -0.00  -0.00   0.00
  50   1    -0.18  -0.62  -0.31     0.00   0.00   0.00     0.00   0.00   0.00
  51   7     0.00  -0.01  -0.01     0.00   0.00  -0.00     0.00   0.00   0.00
  52   1     0.00   0.04   0.01    -0.00  -0.01  -0.00    -0.00  -0.00  -0.00
  53   1    -0.01   0.00   0.01    -0.01   0.00   0.01    -0.00   0.00   0.00
                    145                    146                    147
                        a                      a                      a 
 Frequencies --  3504.1784              3521.8663              3528.8174
 Red. masses --     1.4624                 1.9279                 1.9024
 Frc consts  --     0.0000                 0.0000                 0.0000
 IR Inten    --     7.9504                13.5757                10.3749
 Raman Activ --     0.0000                 0.0000                 0.0000
 Depolar     --     0.0000                 0.0000                 0.0000
 Atom AN      X      Y      Z        X      Y      Z        X      Y      Z
   1   8     0.00  -0.00  -0.00    -0.00  -0.00  -0.00     0.00  -0.00  -0.00
   2   6     0.00  -0.00  -0.00     0.00  -0.00   0.00     0.00   0.00  -0.00
   3   1     0.00   0.00  -0.00    -0.00   0.00   0.00    -0.00   0.00   0.00
   4   1    -0.00   0.00  -0.00    -0.00   0.00  -0.00    -0.00   0.00   0.00
   5   6    -0.00  -0.00  -0.00     0.00  -0.00   0.00     0.00   0.00   0.00
   6   1    -0.00   0.00   0.00     0.00   0.00   0.00     0.00  -0.00  -0.00
   7   1     0.00   0.00   0.00    -0.00  -0.00  -0.00    -0.00   0.00  -0.00
   8   7     0.00   0.00  -0.00    -0.00   0.00  -0.00     0.00  -0.00   0.00
   9   6     0.00  -0.00   0.00     0.00  -0.00  -0.00    -0.00  -0.00   0.00
  10   1     0.00  -0.00   0.00    -0.00   0.00   0.00     0.00  -0.00   0.00
  11   1    -0.00   0.00  -0.00    -0.00   0.00  -0.00    -0.00   0.00   0.00
  12   1     0.00  -0.00   0.00     0.00  -0.00   0.00     0.00   0.00  -0.00
  13   6     0.00  -0.00   0.00     0.00  -0.00   0.00     0.00  -0.00  -0.00
  14   1     0.00  -0.00   0.00    -0.00   0.00   0.00    -0.00   0.00   0.00
  15   1     0.00   0.00   0.00    -0.00  -0.00  -0.00    -0.00  -0.00  -0.00
  16   1    -0.00   0.00  -0.00    -0.00   0.00  -0.00     0.00  -0.00   0.00
  17   6     0.00  -0.00   0.00     0.00   0.00   0.00     0.00  -0.00  -0.00
  18   1     0.00  -0.00   0.00    -0.00  -0.00  -0.00     0.00   0.00   0.00
  19   1     0.00  -0.00   0.00     0.00  -0.00   0.00    -0.00  -0.00  -0.00
  20   1    -0.00   0.00  -0.00    -0.00   0.00  -0.00    -0.00   0.00  -0.00
  21   1    -0.00   0.00   0.00    -0.00   0.00   0.00    -0.00   0.01   0.00
  22   6    -0.00   0.00   0.00    -0.01   0.00  -0.00    -0.00   0.00  -0.00
  23   8     0.00  -0.00  -0.00     0.00  -0.00   0.00    -0.00  -0.00   0.00
  24   7    -0.00  -0.00  -0.00     0.01   0.00  -0.02     0.00   0.00  -0.00
  25   1    -0.00  -0.00   0.00    -0.01  -0.00   0.08     0.00   0.00   0.00
  26   1     0.00   0.00  -0.00    -0.02  -0.01   0.01    -0.00  -0.00   0.00
  27   7     0.00   0.00   0.00    -0.26   0.00   0.06    -0.00  -0.00   0.00
  28   1     0.00  -0.00  -0.00     0.89  -0.04  -0.33     0.01  -0.00  -0.00
  29   1    -0.00  -0.00  -0.00     0.08   0.03   0.10     0.00   0.00   0.00
  30   6    -0.00   0.00  -0.00    -0.00   0.00  -0.00     0.00  -0.00   0.00
  31   8     0.00  -0.00   0.00     0.00  -0.00   0.00    -0.00   0.00  -0.00
  32   7     0.07   0.09  -0.07    -0.00  -0.00   0.00    -0.00   0.00  -0.00
  33   1    -0.47  -0.02  -0.09     0.00   0.00   0.00     0.00   0.00   0.00
  34   1     0.22  -0.32   0.35    -0.00   0.00  -0.00     0.00  -0.00   0.00
  35   7    -0.12  -0.01  -0.04     0.00  -0.00  -0.00    -0.00   0.00  -0.00
  36   1     0.18  -0.24   0.39     0.00   0.00   0.00     0.00  -0.00   0.00
  37   1     0.28   0.27  -0.26    -0.00   0.00   0.00     0.00   0.00  -0.00
  38   6     0.00   0.00  -0.00     0.00   0.00   0.00     0.00  -0.00   0.00
  39   8     0.00  -0.00   0.00     0.00  -0.00  -0.00    -0.00   0.00  -0.00
  40   7    -0.00  -0.00   0.00    -0.00  -0.00  -0.00    -0.00  -0.00   0.00
  41   1     0.00   0.00  -0.00     0.00   0.00  -0.00     0.00   0.00  -0.00
  42   1    -0.00   0.00  -0.00     0.00  -0.00   0.00    -0.00   0.00  -0.00
  43   7     0.00   0.00  -0.00    -0.00  -0.00  -0.00     0.00   0.00  -0.00
  44   1     0.00  -0.00   0.00    -0.00   0.00   0.00     0.00  -0.01   0.01
  45   1    -0.00  -0.00  -0.00     0.00   0.00   0.00    -0.00  -0.00  -0.00
  46   6    -0.00   0.00   0.00    -0.00  -0.00  -0.00    -0.00   0.01   0.01
  47   8     0.00  -0.00  -0.00     0.00   0.00   0.00     0.00  -0.00  -0.00
  48   7     0.00  -0.00  -0.00     0.00   0.00   0.00    -0.02  -0.02   0.01
  49   1    -0.00  -0.00   0.00     0.00   0.00  -0.00     0.06   0.05  -0.04
  50   1     0.00   0.00   0.00    -0.00  -0.02  -0.01     0.01   0.02   0.01
  51   7    -0.00  -0.00   0.00     0.00  -0.00  -0.00     0.01   0.24   0.10
  52   1     0.00   0.00   0.00     0.00   0.01   0.00    -0.09  -0.90  -0.31
  53   1     0.00  -0.00  -0.00    -0.00   0.00   0.00     0.05  -0.00  -0.08
                    148                    149                    150
                        a                      a                      a 
 Frequencies --  3534.9270              3557.9020              3560.8456
 Red. masses --     1.9190                 2.1761                 2.1770
 Frc consts  --     0.0000                 0.0000                 0.0000
 IR Inten    --    16.1316                10.4991                10.4334
 Raman Activ --     0.0000                 0.0000                 0.0000
 Depolar     --     0.0000                 0.0000                 0.0000
 Atom AN      X      Y      Z        X      Y      Z        X      Y      Z
   1   8     0.00  -0.00  -0.00     0.00   0.00   0.00    -0.00   0.00   0.00
   2   6    -0.00  -0.00   0.00    -0.00   0.00  -0.00    -0.00  -0.00   0.00
   3   1    -0.00   0.00   0.00     0.00  -0.00   0.00     0.00  -0.00  -0.00
   4   1    -0.00   0.00  -0.00    -0.00  -0.00   0.00     0.00  -0.00   0.00
   5   6     0.00  -0.00  -0.00    -0.00   0.00   0.00     0.00  -0.00  -0.00
   6   1    -0.00  -0.00   0.00     0.00  -0.00  -0.00    -0.00   0.00   0.00
   7   1    -0.00   0.00   0.00     0.00   0.00  -0.00     0.00   0.00   0.00
   8   7    -0.00   0.00  -0.00     0.00  -0.00   0.00    -0.00   0.00   0.00
   9   6    -0.00  -0.00   0.00    -0.00   0.00   0.00     0.00  -0.00   0.00
  10   1    -0.00   0.00   0.00     0.00  -0.00  -0.00    -0.00   0.00   0.00
  11   1    -0.00   0.00  -0.00     0.00  -0.00   0.00    -0.00   0.00  -0.00
  12   1     0.00  -0.00  -0.00    -0.00   0.00  -0.00     0.00  -0.00  -0.00
  13   6    -0.00  -0.00   0.00    -0.00   0.00   0.00     0.00  -0.00  -0.00
  14   1    -0.00  -0.00  -0.00     0.00  -0.00  -0.00    -0.00   0.00   0.00
  15   1     0.00   0.00   0.00     0.00  -0.00  -0.00     0.00  -0.00  -0.00
  16   1    -0.00   0.00  -0.00    -0.00  -0.00   0.00     0.00   0.00  -0.00
  17   6    -0.00  -0.00   0.00    -0.00  -0.00   0.00     0.00  -0.00   0.00
  18   1     0.00   0.00   0.00     0.00   0.00   0.00    -0.00  -0.00  -0.00
  19   1     0.00  -0.00  -0.00    -0.00   0.00   0.00     0.00  -0.00  -0.00
  20   1    -0.00   0.00  -0.00     0.00  -0.00   0.00    -0.00   0.00  -0.00
  21   1    -0.00   0.00   0.00    -0.00  -0.00  -0.00     0.00  -0.00  -0.00
  22   6     0.00  -0.00  -0.00     0.01   0.00  -0.01    -0.00  -0.00   0.00
  23   8    -0.00  -0.00   0.00    -0.00  -0.00   0.00     0.00   0.00  -0.00
  24   7    -0.00  -0.00   0.00     0.18   0.05  -0.23    -0.01  -0.00   0.01
  25   1     0.00  -0.00  -0.00    -0.09  -0.00   0.69     0.00   0.00  -0.02
  26   1     0.01   0.00  -0.01    -0.59  -0.17   0.20     0.02   0.00  -0.01
  27   7     0.00   0.00   0.00     0.02  -0.00  -0.00    -0.00  -0.00  -0.00
  28   1    -0.00   0.00   0.00    -0.07   0.00   0.03     0.01  -0.00  -0.00
  29   1    -0.00  -0.00  -0.00    -0.01  -0.00  -0.01     0.00   0.00   0.01
  30   6    -0.00   0.00  -0.00    -0.00   0.00  -0.00     0.00   0.00  -0.00
  31   8     0.00  -0.00   0.00     0.00  -0.00   0.00    -0.00  -0.00   0.00
  32   7    -0.00   0.00  -0.00    -0.00   0.00  -0.00     0.00  -0.00   0.00
  33   1     0.00   0.00   0.00     0.00   0.00   0.00    -0.00  -0.00  -0.00
  34   1     0.00  -0.00   0.00     0.00  -0.00   0.00    -0.00   0.00  -0.00
  35   7     0.00   0.00  -0.00    -0.00  -0.00   0.00     0.00   0.00  -0.00
  36   1     0.00  -0.00   0.00    -0.00   0.00  -0.00     0.00  -0.00   0.00
  37   1    -0.00  -0.00   0.00     0.00   0.00  -0.00    -0.00  -0.00   0.00
  38   6     0.00   0.01  -0.01     0.00   0.00  -0.00     0.00   0.00  -0.00
  39   8    -0.00  -0.00   0.00     0.00   0.00   0.00    -0.00  -0.00   0.00
  40   7    -0.04   0.15  -0.21     0.00   0.00  -0.00     0.00  -0.00   0.00
  41   1    -0.07  -0.08   0.01    -0.00  -0.01   0.00    -0.00  -0.00   0.00
  42   1     0.20  -0.48   0.80     0.00  -0.01   0.01    -0.00   0.00  -0.00
  43   7     0.02   0.00   0.02     0.00  -0.00   0.00     0.00  -0.00   0.00
  44   1    -0.00   0.01  -0.02    -0.00   0.00  -0.01    -0.00   0.01  -0.01
  45   1    -0.08  -0.02  -0.04    -0.01  -0.00  -0.00    -0.01  -0.00  -0.01
  46   6    -0.00  -0.00   0.00    -0.00  -0.00   0.00    -0.01  -0.01   0.00
  47   8     0.00   0.00   0.00    -0.00  -0.00  -0.00     0.00   0.00   0.00
  48   7     0.00   0.00   0.00    -0.00  -0.01   0.00    -0.15  -0.26   0.01
  49   1    -0.00  -0.00   0.00     0.01   0.01  -0.01     0.44   0.42  -0.34
  50   1    -0.00  -0.00  -0.00     0.00   0.02   0.01     0.15   0.55   0.30
  51   7     0.00   0.00   0.00    -0.00  -0.00  -0.00    -0.00  -0.02  -0.01
  52   1    -0.00  -0.01  -0.00     0.00   0.00   0.00     0.01   0.07   0.02
  53   1     0.00   0.00  -0.00     0.00  -0.00  -0.00    -0.01   0.00   0.01
                    151                    152                    153
                        a                      a                      a 
 Frequencies --  3564.0948              3564.4455              3569.9327
 Red. masses --     2.1823                 2.1905                 2.1768
 Frc consts  --     0.0000                 0.0000                 0.0000
 IR Inten    --    14.3188                13.8341                11.3536
 Raman Activ --     0.0000                 0.0000                 0.0000
 Depolar     --     0.0000                 0.0000                 0.0000
 Atom AN      X      Y      Z        X      Y      Z        X      Y      Z
   1   8     0.00  -0.00  -0.00     0.00  -0.00  -0.00     0.00   0.00  -0.00
   2   6     0.00   0.00  -0.00    -0.00  -0.00  -0.00    -0.00  -0.00  -0.00
   3   1    -0.00  -0.00  -0.00     0.00   0.00  -0.00    -0.00   0.00   0.00
   4   1     0.00  -0.00   0.00     0.00  -0.00   0.00     0.00   0.00  -0.00
   5   6    -0.00   0.00   0.00    -0.00  -0.00  -0.00     0.00  -0.00   0.00
   6   1     0.00   0.00  -0.00    -0.00   0.00  -0.00     0.00  -0.00  -0.00
   7   1    -0.00  -0.00  -0.00     0.00   0.00   0.00     0.00   0.00  -0.00
   8   7     0.00   0.00  -0.00     0.00   0.00  -0.00    -0.00  -0.00   0.00
   9   6     0.00   0.00   0.00    -0.00   0.00  -0.00    -0.00   0.00  -0.00
  10   1     0.00  -0.00  -0.00    -0.00   0.00  -0.00     0.00  -0.00  -0.00
  11   1    -0.00  -0.00   0.00     0.00  -0.00   0.00     0.00  -0.00   0.00
  12   1    -0.00   0.00   0.00    -0.00   0.00  -0.00    -0.00   0.00  -0.00
  13   6     0.00   0.00   0.00     0.00  -0.00   0.00    -0.00   0.00  -0.00
  14   1     0.00  -0.00  -0.00     0.00  -0.00   0.00     0.00   0.00  -0.00
  15   1    -0.00  -0.00  -0.00     0.00   0.00   0.00    -0.00   0.00  -0.00
  16   1    -0.00  -0.00   0.00    -0.00   0.00  -0.00     0.00  -0.00   0.00
  17   6     0.00   0.00   0.00    -0.00   0.00  -0.00    -0.00   0.00  -0.00
  18   1     0.00  -0.00  -0.00     0.00   0.00  -0.00     0.00   0.00  -0.00
  19   1    -0.00   0.00   0.00    -0.00  -0.00   0.00    -0.00   0.00  -0.00
  20   1    -0.00   0.00  -0.00     0.00  -0.00   0.00     0.00  -0.00   0.00
  21   1    -0.00   0.01   0.00    -0.00   0.00   0.00    -0.00  -0.00  -0.00
  22   6    -0.00  -0.00   0.00    -0.00  -0.00   0.00     0.00   0.00  -0.00
  23   8     0.00   0.00  -0.00     0.00   0.00  -0.00    -0.00   0.00   0.00
  24   7    -0.00  -0.00   0.00     0.00   0.00  -0.00    -0.00  -0.00   0.00
  25   1     0.00   0.00  -0.01    -0.00  -0.00   0.00     0.00   0.00  -0.00
  26   1     0.01   0.00  -0.00    -0.00  -0.00   0.00     0.00   0.00  -0.00
  27   7    -0.00   0.00  -0.00     0.00   0.00  -0.00    -0.00  -0.00  -0.00
  28   1     0.00  -0.00  -0.00    -0.00  -0.00   0.00    -0.00   0.00  -0.00
  29   1     0.00   0.00   0.00    -0.00  -0.00  -0.00     0.00   0.00   0.00
  30   6    -0.00  -0.00   0.00     0.01   0.00  -0.00    -0.01   0.01  -0.01
  31   8     0.00   0.00  -0.00    -0.00  -0.00   0.00     0.00  -0.00   0.00
  32   7    -0.01   0.00  -0.00     0.17  -0.06   0.10    -0.18   0.07  -0.11
  33   1     0.02   0.00   0.00    -0.48  -0.04  -0.08     0.52   0.04   0.09
  34   1     0.01  -0.01   0.01    -0.16   0.26  -0.28     0.18  -0.30   0.32
  35   7    -0.00  -0.01   0.01     0.04   0.14  -0.17     0.03   0.12  -0.15
  36   1    -0.01   0.01  -0.02     0.19  -0.22   0.38     0.17  -0.20   0.35
  37   1     0.01   0.01  -0.01    -0.33  -0.31   0.28    -0.29  -0.27   0.24
  38   6     0.01  -0.00   0.01     0.00  -0.00   0.00     0.00  -0.00   0.00
  39   8    -0.00   0.00  -0.00    -0.00  -0.00  -0.00     0.00   0.00  -0.00
  40   7     0.00  -0.01   0.02     0.00  -0.00   0.00     0.00  -0.00   0.00
  41   1     0.01   0.01  -0.00     0.00   0.00   0.00     0.00   0.00   0.00
  42   1    -0.02   0.04  -0.07    -0.00   0.00  -0.00    -0.00   0.00  -0.00
  43   7     0.18  -0.05   0.23     0.01  -0.00   0.01     0.00  -0.00   0.00
  44   1    -0.09   0.31  -0.57    -0.00   0.01  -0.02    -0.00   0.00  -0.00
  45   1    -0.60  -0.12  -0.32    -0.02  -0.00  -0.01    -0.00  -0.00  -0.00
  46   6     0.00   0.00  -0.00    -0.00   0.00   0.00    -0.00  -0.00  -0.00
  47   8    -0.00  -0.00   0.00     0.00   0.00  -0.00    -0.00   0.00   0.00
  48   7     0.00   0.00  -0.00     0.00   0.00  -0.00    -0.00  -0.00   0.00
  49   1    -0.01  -0.01   0.01    -0.00  -0.00   0.00     0.00   0.00  -0.00
  50   1    -0.00  -0.01  -0.01    -0.00  -0.00  -0.00     0.00   0.00   0.00
  51   7    -0.00   0.00   0.00     0.00   0.00   0.00     0.00  -0.00  -0.00
  52   1    -0.00  -0.01  -0.00    -0.00  -0.00  -0.00     0.00   0.00   0.00
  53   1     0.00  -0.00  -0.01     0.00  -0.00  -0.00    -0.00  -0.00   0.00
