 Entering Gaussian System
 *********************************************
 Gaussian 98:
 frequency output generated by the xtb code
 *********************************************
                         Standard orientation:
 --------------------------------------------------------------------
  Center     Atomic     Atomic              Coordinates (Angstroms)
  Number     Number      Type              X           Y           Z
 --------------------------------------------------------------------
    1          8             0       -0.543898    0.222696    1.831283
    2          6             0       -0.751218   -1.162919    1.896331
    3          1             0        0.024930   -1.543113    2.566489
    4          1             0       -1.734479   -1.377762    2.336423
    5          6             0       -0.637136   -1.755298    0.483941
    6          1             0        0.189673   -1.245218   -0.021890
    7          1             0       -1.569135   -1.561641   -0.052532
    8          7             0       -0.359102   -3.209235    0.378699
    9          6             0        0.971151   -3.526809    0.922167
   10          1             0        1.705550   -2.860372    0.467580
   11          1             0        1.227945   -4.559559    0.695292
   12          1             0        0.986156   -3.395143    2.000974
   13          6             0       -0.372419   -3.534640   -1.058594
   14          1             0        0.392503   -2.948701   -1.564500
   15          1             0       -1.352998   -3.293828   -1.466476
   16          1             0       -0.170822   -4.593721   -1.205711
   17          6             0       -1.405288   -3.989661    1.054551
   18          1             0       -2.369223   -3.720710    0.621022
   19          1             0       -1.410639   -3.772915    2.119803
   20          1             0       -1.228509   -5.053921    0.910598
   21          1             0       -1.146602    0.585912    1.143603
   22          6             0        2.489131    0.140523   -0.401150
   23          8             0        2.091760   -1.010493   -0.562752
   24          7             0        3.594973    0.624609   -0.997229
   25          1             0        4.169425    0.007297   -1.541824
   26          1             0        3.931202    1.542618   -0.747332
   27          7             0        1.786494    1.068011    0.321126
   28          1             0        2.303880    1.906336    0.561822
   29          1             0        1.126710    0.726573    1.016756
   30          6             0        4.324336    4.051868    1.067091
   31          8             0        3.787875    3.147176    0.440873
   32          7             0        3.751451    4.609028    2.160561
   33          1             0        2.825532    4.321150    2.421369
   34          1             0        4.151111    5.401987    2.627407
   35          7             0        5.529810    4.555063    0.715057
   36          1             0        6.000684    5.253573    1.259690
   37          1             0        6.021824    4.137965   -0.054289
   38          6             0       -4.421958   -1.840679   -0.717499
   39          8             0       -3.373700   -2.475387   -0.757919
   40          7             0       -4.451944   -0.491998   -0.647737
   41          1             0       -3.579656    0.005664   -0.466781
   42          1             0       -5.311141   -0.020980   -0.425967
   43          7             0       -5.630169   -2.464910   -0.734617
   44          1             0       -6.482268   -1.949897   -0.865062
   45          1             0       -5.647186   -3.446469   -0.949595
   46          6             0       -1.612183    1.586162   -1.317296
   47          8             0       -2.017966    0.935979   -0.349414
   48          7             0       -2.444174    1.909647   -2.334598
   49          1             0       -3.408417    1.634707   -2.282115
   50          1             0       -2.145422    2.465604   -3.114183
   51          7             0       -0.343564    2.011116   -1.419855
   52          1             0       -0.030530    2.497640   -2.240099
   53          1             0        0.361954    1.713190   -0.745282
 --------------------------------------------------------------------
     1 basis functions        1 primitive gaussians
     1 alpha electrons        1 beta electrons

 Harmonic frequencies (cm**-1), IR intensities (km*mol⁻¹),
 Raman scattering activities (A**4/amu), Raman depolarization ratios,
 reduced masses (AMU), force constants (mDyne/A) and normal coordinates:
                      1                      2                      3
                        a                      a                      a 
 Frequencies --    10.5248                12.1293                13.3464
 Red. masses --    11.2145                12.0900                12.0903
 Frc consts  --     0.0000                 0.0000                 0.0000
 IR Inten    --     0.2837                 2.9158                 2.2629
 Raman Activ --     0.0000                 0.0000                 0.0000
 Depolar     --     0.0000                 0.0000                 0.0000
 Atom AN      X      Y      Z        X      Y      Z        X      Y      Z
   1   8    -0.03  -0.01  -0.00     0.07   0.12  -0.11     0.11  -0.09   0.05
   2   6    -0.00  -0.01  -0.01     0.07   0.10  -0.04     0.06  -0.08   0.01
   3   1     0.00  -0.00  -0.01     0.03   0.04  -0.02     0.01  -0.03  -0.00
   4   1     0.00  -0.01  -0.00     0.02   0.03  -0.00     0.02  -0.02   0.00
   5   6    -0.01   0.00  -0.02     0.03   0.05  -0.02     0.03  -0.04  -0.01
   6   1    -0.01   0.01  -0.01     0.00   0.01  -0.02     0.01  -0.02   0.00
   7   1    -0.00  -0.00  -0.00     0.00   0.01  -0.00     0.01   0.00   0.00
   8   7     0.02   0.01  -0.04     0.03   0.06   0.02    -0.03  -0.06  -0.05
   9   6     0.03   0.02  -0.05     0.05   0.08  -0.02    -0.04  -0.12  -0.06
  10   1     0.00   0.01  -0.02     0.01   0.02  -0.02    -0.00  -0.04  -0.01
  11   1     0.01   0.01  -0.02     0.01   0.02   0.00    -0.02  -0.04  -0.03
  12   1     0.01   0.00  -0.02     0.03   0.03  -0.01    -0.01  -0.04  -0.02
  13   6     0.01   0.02  -0.04    -0.02  -0.00   0.03    -0.05  -0.01  -0.06
  14   1    -0.00   0.01  -0.01    -0.01  -0.00  -0.01    -0.01  -0.01  -0.01
  15   1    -0.00   0.00  -0.01    -0.01  -0.01   0.02    -0.01   0.01  -0.01
  16   1     0.01   0.01  -0.01    -0.01  -0.00   0.02    -0.03  -0.01  -0.02
  17   6     0.04  -0.02  -0.03     0.06   0.07   0.09    -0.06  -0.03  -0.06
  18   1     0.01  -0.01  -0.00     0.01   0.02   0.03    -0.01   0.01  -0.01
  19   1     0.01  -0.01  -0.01     0.03   0.03   0.02    -0.01  -0.02  -0.02
  20   1     0.02  -0.00  -0.01     0.02   0.02   0.03    -0.03  -0.01  -0.03
  21   1    -0.01  -0.00   0.00     0.01   0.02  -0.03     0.03  -0.01   0.02
  22   6    -0.03   0.06  -0.00     0.01   0.03  -0.15     0.08  -0.13   0.01
  23   8    -0.03   0.07  -0.04    -0.00   0.03  -0.15     0.07  -0.14   0.01
  24   7    -0.02   0.07   0.02     0.03   0.00  -0.17     0.09  -0.15   0.01
  25   1    -0.01   0.02   0.00     0.01  -0.01  -0.04     0.02  -0.04  -0.00
  26   1    -0.01   0.02   0.01     0.01  -0.00  -0.05     0.03  -0.04  -0.00
  27   7    -0.04   0.04   0.01     0.02   0.05  -0.19     0.10  -0.13   0.02
  28   1    -0.01   0.01   0.01     0.01   0.01  -0.05     0.03  -0.04   0.00
  29   1    -0.01   0.01   0.00     0.01   0.02  -0.05     0.03  -0.03   0.01
  30   6     0.07   0.00   0.02    -0.07  -0.10   0.15    -0.20   0.07  -0.07
  31   8     0.02   0.02   0.06     0.04  -0.02  -0.06     0.00  -0.08  -0.04
  32   7    -0.12   0.43  -0.30    -0.25  -0.29   0.17    -0.49   0.19  -0.27
  33   1    -0.08   0.21  -0.15    -0.07  -0.10  -0.00    -0.13   0.03  -0.10
  34   1    -0.01   0.11  -0.10    -0.09  -0.10   0.10    -0.18   0.08  -0.08
  35   7     0.35  -0.45   0.31    -0.03  -0.04   0.43    -0.21   0.17   0.07
  36   1     0.10  -0.12   0.08    -0.04  -0.02   0.15    -0.10   0.08   0.02
  37   1     0.13  -0.21   0.15     0.02   0.03   0.11    -0.00   0.02   0.07
  38   6    -0.01  -0.04   0.03    -0.01   0.02   0.15     0.01   0.14   0.04
  39   8    -0.01  -0.04   0.01    -0.02   0.01   0.15    -0.01   0.12  -0.00
  40   7    -0.03  -0.05   0.03    -0.00   0.03   0.08     0.06   0.15   0.09
  41   1    -0.01  -0.01   0.01     0.00   0.01   0.00     0.02   0.03   0.02
  42   1    -0.01  -0.02   0.01     0.00   0.01   0.03     0.02   0.04   0.03
  43   7    -0.01  -0.06   0.05    -0.02   0.03   0.26    -0.01   0.19   0.05
  44   1    -0.00  -0.02   0.02    -0.01   0.01   0.08     0.00   0.06   0.02
  45   1     0.00  -0.02   0.01    -0.01   0.00   0.09    -0.01   0.05   0.00
  46   6    -0.05  -0.02   0.01     0.01  -0.05  -0.15     0.12   0.01   0.06
  47   8    -0.05  -0.02   0.01     0.03   0.02  -0.11     0.13   0.03   0.08
  48   7    -0.05  -0.04  -0.00    -0.01  -0.14  -0.17     0.13   0.04   0.08
  49   1    -0.01  -0.02  -0.00    -0.00  -0.04  -0.04     0.03   0.02   0.02
  50   1    -0.02  -0.01  -0.00    -0.01  -0.05  -0.06     0.04   0.01   0.02
  51   7    -0.06   0.01   0.01     0.00  -0.05  -0.21     0.15  -0.04   0.05
  52   1    -0.02   0.00   0.00    -0.00  -0.03  -0.07     0.04  -0.02   0.01
  53   1    -0.02   0.01   0.00     0.00   0.00  -0.05     0.04  -0.02   0.01
                      4                      5                      6
                        a                      a                      a 
 Frequencies --    19.3107                27.2489                34.3485
 Red. masses --    11.9871                12.3899                12.9506
 Frc consts  --     0.0000                 0.0000                 0.0000
 IR Inten    --     1.9762                 3.2255                 0.5939
 Raman Activ --     0.0000                 0.0000                 0.0000
 Depolar     --     0.0000                 0.0000                 0.0000
 Atom AN      X      Y      Z        X      Y      Z        X      Y      Z
   1   8    -0.03  -0.06   0.02     0.12   0.04   0.18    -0.04   0.02  -0.05
   2   6    -0.01  -0.06  -0.03     0.08   0.03   0.13    -0.02   0.01  -0.06
   3   1     0.00  -0.02  -0.02     0.03   0.00   0.03    -0.02   0.00  -0.01
   4   1    -0.00  -0.03  -0.01     0.03   0.01   0.04    -0.01  -0.00  -0.03
   5   6    -0.02  -0.00  -0.06     0.03   0.07   0.11     0.06   0.02  -0.06
   6   1    -0.01   0.01  -0.01     0.01   0.02   0.03     0.03  -0.00   0.00
   7   1    -0.01   0.01  -0.01     0.01   0.03   0.04     0.03   0.02  -0.04
   8   7    -0.04   0.00  -0.13     0.01   0.08   0.05     0.02   0.01  -0.06
   9   6    -0.02  -0.03  -0.16    -0.01   0.02   0.05    -0.04  -0.04   0.06
  10   1    -0.01  -0.00  -0.04     0.00   0.01   0.03     0.01  -0.02   0.04
  11   1    -0.01  -0.00  -0.06    -0.01   0.01   0.00    -0.02  -0.01   0.02
  12   1    -0.00  -0.02  -0.05    -0.01  -0.01   0.02    -0.04  -0.02   0.02
  13   6    -0.07   0.06  -0.14     0.03   0.14   0.03     0.13   0.03  -0.06
  14   1    -0.02   0.02  -0.04     0.02   0.04   0.02     0.06   0.00   0.01
  15   1    -0.02   0.02  -0.03     0.01   0.05   0.01     0.05   0.02  -0.04
  16   1    -0.02   0.02  -0.05     0.00   0.04  -0.00     0.03   0.01  -0.02
  17   6    -0.02  -0.02  -0.14    -0.02   0.06  -0.01    -0.07   0.04  -0.15
  18   1    -0.01   0.00  -0.03    -0.00   0.03  -0.01    -0.01   0.02  -0.07
  19   1     0.00  -0.02  -0.04    -0.01   0.01  -0.00    -0.04   0.01  -0.04
  20   1    -0.01  -0.00  -0.05    -0.01   0.02  -0.01    -0.03   0.01  -0.05
  21   1    -0.01  -0.01   0.01     0.02   0.02   0.06    -0.01   0.01  -0.01
  22   6     0.01   0.06   0.09    -0.02   0.02  -0.05     0.11  -0.04   0.13
  23   8    -0.01   0.08   0.02    -0.01   0.01  -0.01     0.23  -0.10   0.26
  24   7     0.04   0.07   0.17    -0.09   0.04  -0.17     0.16  -0.05   0.23
  25   1     0.02   0.02   0.05    -0.03   0.01  -0.05     0.07  -0.02   0.09
  26   1     0.01   0.01   0.06    -0.02   0.01  -0.05     0.01   0.01   0.03
  27   7    -0.02   0.04   0.10     0.03   0.02  -0.01    -0.05   0.00  -0.08
  28   1    -0.01   0.01   0.04     0.01   0.01  -0.02    -0.04   0.02  -0.04
  29   1    -0.01   0.01   0.02     0.03   0.01   0.01    -0.02   0.01  -0.02
  30   6     0.07   0.10   0.06    -0.00  -0.04  -0.04    -0.06  -0.00  -0.06
  31   8     0.05   0.02   0.23     0.00   0.02  -0.16    -0.23   0.19  -0.21
  32   7     0.17   0.17   0.09    -0.04  -0.12  -0.03     0.03  -0.08   0.03
  33   1     0.06   0.04   0.06    -0.02  -0.03  -0.03    -0.00   0.00   0.00
  34   1     0.05   0.06  -0.01    -0.01  -0.04   0.01     0.04  -0.06   0.04
  35   7     0.00   0.15  -0.12     0.03  -0.05   0.06     0.02  -0.16   0.02
  36   1     0.01   0.05  -0.06     0.00  -0.03   0.03     0.02  -0.06   0.01
  37   1    -0.01   0.02  -0.03     0.01   0.00   0.01    -0.03  -0.01  -0.03
  38   6    -0.07   0.08   0.11     0.03   0.09  -0.14     0.04   0.05   0.04
  39   8    -0.09   0.08   0.01     0.08   0.17  -0.11     0.10   0.15  -0.21
  40   7    -0.06   0.08   0.14    -0.03   0.09   0.05    -0.06   0.04   0.24
  41   1    -0.01   0.02   0.03    -0.02   0.02   0.06    -0.02   0.02   0.04
  42   1    -0.01   0.02   0.06    -0.02   0.00   0.01    -0.02  -0.01   0.11
  43   7    -0.08   0.09   0.21     0.07   0.05  -0.42     0.09  -0.05   0.14
  44   1    -0.02   0.03   0.08     0.02   0.01  -0.12     0.01  -0.03   0.08
  45   1    -0.03   0.03   0.05     0.04   0.02  -0.15     0.04  -0.00  -0.00
  46   6     0.04  -0.20  -0.09    -0.07  -0.16   0.12    -0.09  -0.00  -0.04
  47   8     0.01  -0.05   0.00    -0.05   0.03   0.30    -0.08   0.07   0.01
  48   7     0.10  -0.47  -0.23    -0.09  -0.41   0.07    -0.19   0.15   0.08
  49   1     0.03  -0.13  -0.06    -0.02  -0.11   0.04    -0.06   0.07   0.05
  50   1     0.03  -0.16  -0.08    -0.03  -0.15  -0.01    -0.05   0.01  -0.00
  51   7     0.04  -0.18  -0.10    -0.08  -0.18   0.02    -0.03  -0.25  -0.24
  52   1     0.02  -0.09  -0.05    -0.03  -0.10  -0.03    -0.02  -0.06  -0.06
  53   1     0.00  -0.01  -0.00    -0.02  -0.01   0.02    -0.00  -0.06  -0.07
                      7                      8                      9
                        a                      a                      a 
 Frequencies --    37.9844                47.1371                58.5103
 Red. masses --    13.1316                12.1028                12.8532
 Frc consts  --     0.0000                 0.0000                 0.0000
 IR Inten    --     3.0222                 2.0492                 2.1411
 Raman Activ --     0.0000                 0.0000                 0.0000
 Depolar     --     0.0000                 0.0000                 0.0000
 Atom AN      X      Y      Z        X      Y      Z        X      Y      Z
   1   8    -0.06  -0.11   0.10     0.14  -0.04  -0.05     0.01   0.07  -0.07
   2   6    -0.07  -0.10   0.04     0.22  -0.04  -0.00    -0.02   0.06  -0.06
   3   1    -0.03  -0.04   0.02     0.10   0.00  -0.03    -0.01   0.01  -0.02
   4   1    -0.03  -0.03  -0.01     0.08  -0.03   0.04    -0.01   0.02  -0.01
   5   6    -0.01  -0.05   0.03     0.06  -0.05  -0.01    -0.04   0.06  -0.06
   6   1     0.00  -0.01   0.02     0.01  -0.03  -0.02    -0.01   0.01  -0.01
   7   1     0.00  -0.01  -0.00     0.01  -0.00   0.02    -0.01   0.03  -0.02
   8   7     0.01  -0.05  -0.00    -0.04  -0.08  -0.01    -0.09   0.06  -0.06
   9   6    -0.01  -0.05   0.02     0.03  -0.12  -0.20    -0.10   0.02  -0.04
  10   1     0.00  -0.01   0.02    -0.00  -0.04  -0.08    -0.02   0.01  -0.00
  11   1     0.00  -0.01   0.00    -0.01  -0.04  -0.07    -0.03   0.01  -0.02
  12   1    -0.01  -0.02   0.01     0.05  -0.04  -0.06    -0.03  -0.01  -0.01
  13   6     0.05  -0.01  -0.01    -0.28  -0.12   0.00    -0.08   0.06  -0.06
  14   1     0.01   0.00   0.01    -0.10  -0.05  -0.04    -0.02   0.01  -0.02
  15   1     0.02  -0.00  -0.01    -0.10  -0.03   0.04    -0.02   0.02  -0.02
  16   1     0.02  -0.00  -0.01    -0.10  -0.04   0.00    -0.03   0.02  -0.02
  17   6    -0.01  -0.08  -0.05     0.03  -0.00   0.17    -0.11   0.08  -0.07
  18   1     0.00  -0.02  -0.02    -0.01   0.01   0.09    -0.03   0.02  -0.03
  19   1    -0.01  -0.03  -0.01     0.06   0.00   0.05    -0.04   0.03  -0.02
  20   1    -0.00  -0.02  -0.02    -0.02  -0.00   0.05    -0.03   0.02  -0.01
  21   1     0.00  -0.02   0.01     0.02  -0.02  -0.01    -0.01   0.02  -0.01
  22   6    -0.08   0.06   0.04     0.09   0.05   0.07     0.10   0.01   0.10
  23   8     0.01   0.03   0.12     0.14   0.05   0.11     0.05   0.03   0.18
  24   7    -0.23   0.18  -0.14     0.16   0.03   0.17     0.09  -0.06   0.03
  25   1    -0.07   0.06  -0.06     0.05   0.01   0.05     0.00  -0.02  -0.01
  26   1    -0.08   0.06  -0.06     0.02   0.02   0.02     0.03  -0.01  -0.02
  27   7    -0.05  -0.00   0.15     0.02   0.09  -0.05     0.19   0.05   0.14
  28   1    -0.03   0.01   0.02    -0.01   0.04  -0.02     0.06   0.02   0.01
  29   1     0.00  -0.01   0.05     0.00   0.03  -0.01     0.06   0.02   0.04
  30   6    -0.12  -0.01  -0.09    -0.01   0.10  -0.02     0.10   0.04  -0.10
  31   8    -0.37   0.26  -0.29    -0.12   0.28  -0.17     0.24   0.12  -0.33
  32   7     0.02  -0.11   0.04     0.05   0.01   0.06    -0.05  -0.16  -0.08
  33   1    -0.02   0.02  -0.01     0.00   0.02  -0.00    -0.03  -0.05  -0.08
  34   1     0.05  -0.07   0.05     0.04  -0.03   0.04    -0.05  -0.04   0.01
  35   7    -0.01  -0.23   0.01     0.06   0.00   0.08     0.12   0.17   0.12
  36   1     0.03  -0.10   0.03     0.03  -0.02   0.04     0.01   0.02   0.08
  37   1    -0.04  -0.04  -0.03    -0.00   0.03  -0.00     0.07   0.08   0.04
  38   6     0.04   0.06   0.03    -0.11   0.02  -0.02    -0.09  -0.14  -0.01
  39   8     0.01   0.00   0.00    -0.16  -0.07   0.30    -0.07  -0.09  -0.14
  40   7     0.12   0.07  -0.05    -0.03   0.03  -0.22    -0.16  -0.15   0.02
  41   1     0.04   0.01  -0.02    -0.01  -0.01  -0.02    -0.05  -0.03  -0.01
  42   1     0.04   0.03  -0.00    -0.01   0.03  -0.11    -0.04  -0.05   0.03
  43   7     0.01   0.13   0.14    -0.16   0.11  -0.22    -0.06  -0.22   0.11
  44   1     0.01   0.05   0.04    -0.03   0.04  -0.12    -0.03  -0.07   0.05
  45   1    -0.02   0.03   0.05    -0.05   0.02  -0.01    -0.01  -0.06   0.02
  46   6     0.17   0.00  -0.02    -0.02  -0.05   0.01    -0.01  -0.00   0.09
  47   8     0.18  -0.05  -0.07     0.03  -0.12  -0.01    -0.15  -0.03   0.02
  48   7     0.25  -0.12  -0.12    -0.09   0.03   0.09     0.17  -0.10  -0.08
  49   1     0.07  -0.06  -0.05    -0.02  -0.00   0.03     0.04  -0.01  -0.05
  50   1     0.07  -0.01  -0.02    -0.03   0.01   0.02     0.06   0.02   0.02
  51   7     0.13   0.19   0.12    -0.02  -0.09  -0.06    -0.03   0.12   0.33
  52   1     0.05   0.05   0.04    -0.02   0.00  -0.00     0.02   0.02   0.09
  53   1     0.03   0.05   0.04     0.00  -0.02  -0.02    -0.02   0.02   0.10
                     10                     11                     12
                        a                      a                      a 
 Frequencies --    65.5928                70.1990                73.1292
 Red. masses --    12.2835                12.2981                12.3392
 Frc consts  --     0.0000                 0.0000                 0.0000
 IR Inten    --     5.4752                 1.6407                 0.5393
 Raman Activ --     0.0000                 0.0000                 0.0000
 Depolar     --     0.0000                 0.0000                 0.0000
 Atom AN      X      Y      Z        X      Y      Z        X      Y      Z
   1   8     0.06  -0.09  -0.08    -0.06   0.07  -0.03    -0.05  -0.07   0.17
   2   6    -0.01  -0.06  -0.04    -0.05   0.06  -0.04    -0.01  -0.07   0.12
   3   1    -0.01  -0.02  -0.00    -0.02   0.02  -0.00     0.01  -0.02   0.03
   4   1    -0.01  -0.00  -0.02    -0.02   0.01  -0.02     0.00  -0.03   0.04
   5   6     0.03  -0.11  -0.02     0.01   0.07  -0.04    -0.03  -0.01   0.10
   6   1     0.03  -0.06   0.01     0.00   0.02  -0.01    -0.02   0.02   0.03
   7   1     0.02  -0.01  -0.03     0.00   0.02  -0.02    -0.02  -0.01   0.04
   8   7    -0.12  -0.16   0.06     0.03   0.07  -0.03     0.05   0.01  -0.01
   9   6    -0.15  -0.23   0.09     0.04   0.09  -0.04     0.02   0.02   0.07
  10   1    -0.02  -0.08   0.03     0.01   0.02  -0.02     0.01   0.03   0.06
  11   1    -0.06  -0.07   0.04     0.01   0.03  -0.00     0.03   0.02  -0.01
  12   1    -0.05  -0.06   0.03     0.02   0.04  -0.01    -0.03  -0.03   0.03
  13   6    -0.12  -0.23   0.07     0.01   0.05  -0.02     0.19   0.17  -0.05
  14   1    -0.02  -0.09   0.01    -0.00   0.02  -0.01     0.06   0.07   0.03
  15   1    -0.03  -0.05   0.01    -0.00   0.01  -0.00     0.06   0.05  -0.03
  16   1    -0.06  -0.07   0.04     0.01   0.02  -0.00     0.07   0.05  -0.04
  17   6    -0.19  -0.01   0.07     0.05   0.06   0.00     0.03  -0.10  -0.18
  18   1    -0.05   0.01   0.01     0.01   0.02   0.01     0.01  -0.03  -0.07
  19   1    -0.06   0.01   0.02     0.02   0.02   0.00    -0.02  -0.06  -0.05
  20   1    -0.08  -0.01   0.04     0.01   0.02  -0.00     0.03  -0.02  -0.07
  21   1     0.02  -0.02  -0.03    -0.02   0.02  -0.00    -0.01  -0.03   0.03
  22   6    -0.01   0.11  -0.03     0.06  -0.03  -0.02    -0.06   0.05   0.06
  23   8     0.10   0.06   0.21     0.14  -0.05  -0.02    -0.10   0.06   0.16
  24   7    -0.23   0.22  -0.38    -0.14   0.15  -0.27    -0.09   0.00  -0.01
  25   1    -0.04   0.04  -0.06    -0.04   0.06  -0.10    -0.03  -0.02   0.01
  26   1    -0.04   0.05  -0.09    -0.04   0.04  -0.06    -0.01  -0.00  -0.01
  27   7     0.01   0.13  -0.02     0.15  -0.16   0.22    -0.04   0.12   0.03
  28   1     0.00   0.04  -0.02     0.03  -0.03   0.05     0.00   0.03  -0.00
  29   1     0.02   0.03   0.01     0.05  -0.06   0.06    -0.00   0.04   0.02
  30   6     0.11   0.09   0.07    -0.03   0.01   0.03     0.10  -0.01  -0.05
  31   8     0.21   0.05   0.09    -0.09   0.01   0.07     0.26  -0.05  -0.12
  32   7     0.05   0.10   0.04     0.02   0.05   0.04    -0.05  -0.09  -0.09
  33   1     0.01   0.02  -0.00     0.00   0.03   0.01    -0.01  -0.05  -0.05
  34   1    -0.01   0.05  -0.01     0.01   0.02  -0.01    -0.05  -0.02  -0.01
  35   7     0.09   0.19   0.09    -0.03  -0.04  -0.02     0.08   0.13   0.06
  36   1     0.02   0.03   0.05     0.01  -0.02  -0.01    -0.01   0.04   0.04
  37   1     0.05   0.03   0.05    -0.01  -0.03   0.00     0.05   0.05   0.03
  38   6     0.04   0.01  -0.02    -0.08  -0.03   0.02    -0.04   0.04  -0.04
  39   8     0.05   0.02  -0.20    -0.06   0.01   0.16    -0.08  -0.02   0.03
  40   7     0.04  -0.01   0.17    -0.15  -0.02  -0.16     0.04   0.07  -0.43
  41   1     0.01  -0.00   0.03    -0.05   0.01  -0.03     0.02   0.00  -0.09
  42   1     0.01  -0.01   0.07    -0.05  -0.01  -0.07     0.02   0.03  -0.09
  43   7     0.05  -0.01  -0.00    -0.05  -0.09   0.03    -0.08   0.11   0.22
  44   1     0.01   0.00   0.03    -0.02  -0.04  -0.02    -0.01   0.03   0.04
  45   1     0.01   0.01  -0.04     0.00  -0.03   0.04    -0.04   0.02   0.12
  46   6     0.01  -0.01  -0.05     0.04  -0.06   0.04    -0.03  -0.09  -0.02
  47   8     0.06  -0.05  -0.05    -0.19   0.09   0.05     0.09  -0.21  -0.04
  48   7    -0.07   0.10   0.05     0.17   0.21   0.04    -0.18   0.11   0.17
  49   1    -0.01   0.02   0.02     0.02   0.13   0.00    -0.03  -0.04   0.03
  50   1    -0.02   0.01  -0.00     0.10   0.01  -0.00    -0.05  -0.03   0.00
  51   7     0.02  -0.08  -0.13     0.20  -0.53   0.01    -0.03  -0.16  -0.16
  52   1    -0.00  -0.00  -0.03     0.09  -0.14   0.02    -0.04   0.01  -0.02
  53   1     0.01  -0.02  -0.03     0.02  -0.13   0.04     0.00  -0.02  -0.04
                     13                     14                     15
                        a                      a                      a 
 Frequencies --    75.5325                81.4264                87.3911
 Red. masses --    12.6417                12.3066                13.1065
 Frc consts  --     0.0000                 0.0000                 0.0000
 IR Inten    --     2.8239                 3.8522                 9.5958
 Raman Activ --     0.0000                 0.0000                 0.0000
 Depolar     --     0.0000                 0.0000                 0.0000
 Atom AN      X      Y      Z        X      Y      Z        X      Y      Z
   1   8     0.06   0.05  -0.07     0.10   0.13   0.15    -0.05  -0.09  -0.00
   2   6     0.18   0.02  -0.01     0.16   0.10   0.14    -0.06  -0.07  -0.01
   3   1     0.07   0.03  -0.01     0.08   0.03   0.00    -0.02  -0.02  -0.00
   4   1     0.06  -0.01   0.02     0.07   0.01   0.09    -0.02  -0.02  -0.01
   5   6     0.15   0.01  -0.00    -0.03   0.14   0.11    -0.05  -0.08  -0.01
   6   1     0.06  -0.02   0.00    -0.02   0.03   0.01    -0.02  -0.02  -0.00
   7   1     0.05   0.03  -0.00    -0.02   0.07   0.06    -0.02  -0.03  -0.00
   8   7     0.01  -0.02   0.01    -0.15   0.14   0.00    -0.06  -0.09   0.01
   9   6    -0.04  -0.14   0.05    -0.12   0.01  -0.13     0.01  -0.04  -0.12
  10   1     0.01  -0.06   0.02    -0.03  -0.00  -0.04    -0.01  -0.02  -0.07
  11   1    -0.04  -0.05   0.01    -0.06   0.00  -0.07    -0.00  -0.02  -0.02
  12   1    -0.02  -0.04   0.01    -0.01  -0.02  -0.04     0.04   0.01  -0.04
  13   6     0.01  -0.03   0.02    -0.29   0.22  -0.02    -0.20  -0.14   0.03
  14   1     0.02  -0.03   0.01    -0.08   0.06  -0.01    -0.07  -0.04  -0.02
  15   1     0.01   0.02  -0.00    -0.09   0.09   0.02    -0.07  -0.05   0.03
  16   1    -0.03  -0.02   0.01    -0.11   0.06  -0.03    -0.06  -0.04   0.01
  17   6    -0.08   0.08  -0.00    -0.13   0.16   0.05     0.03  -0.07   0.15
  18   1    -0.01   0.05  -0.00    -0.04   0.05   0.02    -0.00  -0.03   0.07
  19   1    -0.02   0.02  -0.00    -0.02   0.05   0.01     0.04  -0.01   0.04
  20   1    -0.06   0.02  -0.00    -0.05   0.04   0.01     0.01  -0.02   0.05
  21   1    -0.01  -0.01  -0.01     0.03   0.01   0.03    -0.02  -0.01   0.01
  22   6     0.08  -0.05  -0.04    -0.03  -0.01  -0.03    -0.11   0.04   0.02
  23   8     0.23  -0.12   0.07    -0.08   0.02  -0.10    -0.28   0.12  -0.18
  24   7     0.01   0.03  -0.13     0.01  -0.03   0.02     0.01  -0.05   0.19
  25   1     0.03   0.00   0.00    -0.01  -0.00  -0.01    -0.03   0.00   0.00
  26   1    -0.01   0.01  -0.02     0.00  -0.01   0.01     0.00  -0.01   0.04
  27   7     0.00  -0.07  -0.11     0.00  -0.01  -0.01    -0.04   0.03   0.11
  28   1    -0.01  -0.01  -0.03     0.00  -0.01   0.00     0.00  -0.00   0.04
  29   1     0.01  -0.02  -0.02     0.00   0.00  -0.00    -0.02   0.01   0.02
  30   6    -0.04  -0.03   0.06    -0.06  -0.01   0.03     0.03   0.02  -0.05
  31   8    -0.09  -0.08   0.17    -0.14   0.00   0.08     0.06   0.08  -0.15
  32   7     0.02   0.08   0.04     0.01   0.06   0.03     0.00  -0.08  -0.01
  33   1     0.01   0.02   0.04     0.01   0.01   0.04    -0.02   0.00  -0.05
  34   1     0.02   0.02  -0.00     0.03  -0.00   0.01    -0.03   0.00  -0.02
  35   7    -0.06  -0.08  -0.05    -0.05  -0.09  -0.03     0.04   0.07   0.03
  36   1    -0.01  -0.00  -0.04    -0.01  -0.01  -0.04     0.02  -0.02   0.05
  37   1    -0.03  -0.04  -0.02    -0.04  -0.02  -0.03     0.03   0.01   0.02
  38   6     0.02   0.10  -0.05     0.08  -0.12  -0.08     0.19   0.05  -0.05
  39   8     0.11   0.25  -0.02     0.09  -0.13  -0.31     0.27   0.14  -0.09
  40   7    -0.14   0.13  -0.43     0.11  -0.13  -0.04     0.10   0.06  -0.23
  41   1    -0.05   0.05  -0.10     0.04  -0.04  -0.03     0.01   0.04  -0.05
  42   1    -0.04   0.01  -0.09     0.04  -0.04   0.04     0.02  -0.00  -0.05
  43   7     0.11  -0.06   0.27     0.09  -0.14   0.15     0.27  -0.06   0.19
  44   1     0.01  -0.05   0.05     0.02  -0.04   0.08     0.06  -0.04   0.05
  45   1     0.06  -0.03   0.12     0.02  -0.03   0.02     0.09  -0.02   0.07
  46   6    -0.12  -0.01   0.05     0.11  -0.09  -0.02    -0.04   0.06   0.04
  47   8    -0.16  -0.05   0.02     0.21  -0.26  -0.08    -0.15   0.32   0.17
  48   7    -0.06  -0.15  -0.04     0.01   0.10   0.13     0.02   0.00  -0.03
  49   1    -0.01  -0.07  -0.04     0.02  -0.03   0.02    -0.01   0.05   0.01
  50   1    -0.02  -0.02  -0.00     0.00   0.00   0.02     0.03  -0.05  -0.03
  51   7    -0.19   0.19   0.20     0.10  -0.09  -0.07     0.02  -0.15  -0.04
  52   1    -0.04   0.04   0.05     0.01   0.03   0.01     0.02  -0.09  -0.03
  53   1    -0.05   0.04   0.04     0.04  -0.02  -0.02    -0.01  -0.02   0.01
                     16                     17                     18
                        a                      a                      a 
 Frequencies --    95.1919               101.8770               107.1473
 Red. masses --    12.3460                11.3022                 6.4839
 Frc consts  --     0.0000                 0.0000                 0.0000
 IR Inten    --     3.9552                 8.6715                 4.7032
 Raman Activ --     0.0000                 0.0000                 0.0000
 Depolar     --     0.0000                 0.0000                 0.0000
 Atom AN      X      Y      Z        X      Y      Z        X      Y      Z
   1   8    -0.13   0.02   0.06    -0.10   0.00  -0.02     0.03   0.02   0.06
   2   6     0.17  -0.03   0.08     0.16  -0.03   0.09    -0.00   0.02   0.02
   3   1     0.11   0.03  -0.02     0.10   0.04  -0.00    -0.00  -0.00   0.00
   4   1     0.08  -0.06   0.08     0.08  -0.05   0.07    -0.00   0.01   0.01
   5   6     0.04   0.02   0.06     0.05  -0.04   0.10    -0.02   0.04   0.00
   6   1     0.00   0.01   0.00     0.01  -0.01   0.01    -0.01   0.01   0.00
   7   1    -0.00   0.02   0.05     0.00  -0.01   0.05    -0.01   0.02   0.00
   8   7     0.02   0.03  -0.06     0.04  -0.05   0.05    -0.02   0.05  -0.04
   9   6     0.07  -0.03  -0.22     0.01  -0.09   0.07    -0.01   0.03  -0.07
  10   1     0.01   0.01  -0.06     0.01  -0.03   0.03    -0.00   0.01  -0.01
  11   1     0.01  -0.00  -0.10    -0.00  -0.03   0.01    -0.01   0.01  -0.03
  12   1     0.05  -0.04  -0.06    -0.00  -0.04   0.02    -0.00  -0.01  -0.02
  13   6    -0.15   0.12  -0.08     0.07   0.04   0.03    -0.05   0.08  -0.05
  14   1    -0.05   0.04  -0.04     0.03   0.01   0.03    -0.02   0.03  -0.01
  15   1    -0.05   0.05   0.01     0.03   0.03   0.00    -0.02   0.02  -0.01
  16   1    -0.06   0.04  -0.05     0.01   0.01  -0.01    -0.01   0.03  -0.02
  17   6     0.09  -0.02   0.01    -0.01  -0.05  -0.03    -0.00   0.02  -0.03
  18   1     0.01   0.00   0.04     0.00   0.01  -0.01    -0.00   0.00  -0.01
  19   1     0.06  -0.03   0.01    -0.00  -0.03  -0.00     0.00   0.00  -0.01
  20   1     0.02  -0.00  -0.02    -0.01  -0.01  -0.03     0.01   0.01  -0.01
  21   1    -0.04  -0.03   0.01    -0.03  -0.05  -0.02     0.00   0.02   0.03
  22   6    -0.06   0.05   0.17    -0.07  -0.03  -0.04     0.02  -0.05   0.03
  23   8     0.05  -0.02   0.41    -0.18   0.02  -0.22     0.13  -0.11   0.18
  24   7    -0.19   0.08  -0.02    -0.00  -0.06   0.08    -0.03  -0.02  -0.06
  25   1    -0.02  -0.01   0.06    -0.03   0.01  -0.04     0.01  -0.02   0.01
  26   1    -0.03   0.01   0.00    -0.01  -0.01   0.01    -0.02   0.00  -0.03
  27   7    -0.13   0.09   0.07     0.01  -0.07   0.08    -0.05  -0.02  -0.07
  28   1    -0.04   0.03   0.00     0.01  -0.03   0.03    -0.02  -0.00  -0.02
  29   1    -0.03   0.03   0.03    -0.01  -0.02   0.01    -0.01  -0.00  -0.01
  30   6    -0.00  -0.14  -0.04     0.02   0.05  -0.01    -0.01  -0.03   0.01
  31   8     0.11  -0.28   0.02     0.01   0.11  -0.07    -0.03  -0.03   0.04
  32   7    -0.12  -0.09  -0.15     0.08  -0.07   0.11     0.11  -0.15   0.17
  33   1     0.01  -0.10   0.02    -0.06   0.12  -0.11    -0.12   0.21  -0.20
  34   1    -0.02  -0.06   0.01    -0.08   0.12  -0.12    -0.17   0.24  -0.26
  35   7    -0.04  -0.09  -0.05    -0.01   0.15  -0.04    -0.13   0.17  -0.17
  36   1    -0.06   0.06  -0.08     0.10  -0.16   0.16     0.17  -0.32   0.26
  37   1    -0.02   0.02  -0.04     0.08  -0.09   0.12     0.13  -0.24   0.21
  38   6     0.06   0.00   0.06    -0.04   0.10   0.04     0.04  -0.07   0.01
  39   8     0.14   0.10   0.19     0.08   0.32   0.09    -0.02  -0.18   0.04
  40   7    -0.05  -0.01   0.12    -0.27   0.09   0.16     0.15  -0.07  -0.05
  41   1    -0.02   0.02   0.02    -0.08   0.05   0.03     0.04  -0.03  -0.01
  42   1    -0.03  -0.02  -0.01    -0.09  -0.01   0.03     0.05  -0.00  -0.03
  43   7     0.14  -0.12  -0.12     0.07  -0.11  -0.11    -0.01   0.03   0.02
  44   1     0.02  -0.05  -0.05    -0.00  -0.07  -0.03     0.01   0.03   0.00
  45   1     0.07  -0.03  -0.03     0.07  -0.03  -0.05    -0.03   0.00   0.02
  46   6    -0.01   0.07  -0.10     0.02  -0.07  -0.10    -0.02   0.08   0.00
  47   8    -0.05   0.09  -0.14    -0.01  -0.30  -0.27     0.01   0.21   0.09
  48   7     0.05   0.06  -0.17     0.05   0.16  -0.05    -0.04  -0.08  -0.04
  49   1     0.00   0.06  -0.04     0.03  -0.01  -0.07    -0.02   0.03   0.03
  50   1     0.01   0.06  -0.02     0.04   0.03  -0.01    -0.03   0.01   0.00
  51   7    -0.00   0.07  -0.07     0.01  -0.02   0.05    -0.02   0.08  -0.08
  52   1     0.01   0.00  -0.02     0.01   0.05   0.05    -0.01  -0.03  -0.05
  53   1    -0.01   0.01  -0.01    -0.01  -0.02   0.02     0.00   0.02  -0.03
                     19                     20                     21
                        a                      a                      a 
 Frequencies --   115.7254               122.2954               133.9621
 Red. masses --    10.8381                12.0588                11.7910
 Frc consts  --     0.0000                 0.0000                 0.0000
 IR Inten    --     0.2989                12.9102                 0.7473
 Raman Activ --     0.0000                 0.0000                 0.0000
 Depolar     --     0.0000                 0.0000                 0.0000
 Atom AN      X      Y      Z        X      Y      Z        X      Y      Z
   1   8    -0.13  -0.01   0.02    -0.21  -0.10   0.26     0.05   0.02  -0.03
   2   6    -0.29   0.02  -0.12    -0.35  -0.07   0.08    -0.05   0.03  -0.09
   3   1    -0.15  -0.03   0.02    -0.17  -0.06   0.08    -0.06  -0.01   0.01
   4   1    -0.13   0.03  -0.11    -0.15  -0.00  -0.07    -0.04   0.02  -0.08
   5   6    -0.02   0.04  -0.11    -0.01   0.05   0.06     0.16   0.04  -0.08
   6   1     0.01   0.02   0.00     0.04   0.01   0.08     0.09  -0.02   0.02
   7   1     0.01  -0.00  -0.07     0.04   0.05  -0.04     0.08   0.05  -0.07
   8   7     0.06   0.06  -0.01    -0.10   0.05  -0.03    -0.04  -0.00  -0.03
   9   6     0.16   0.21  -0.15    -0.11  -0.04  -0.05    -0.14  -0.15   0.11
  10   1     0.02   0.05  -0.11    -0.01  -0.05  -0.05     0.00  -0.09   0.03
  11   1     0.05   0.05   0.00    -0.07  -0.03   0.02    -0.08  -0.06   0.07
  12   1     0.09   0.12  -0.05    -0.01   0.03  -0.02    -0.06  -0.01   0.03
  13   6    -0.12  -0.13   0.03    -0.11   0.14  -0.05     0.06  -0.04  -0.02
  14   1    -0.07  -0.04  -0.04    -0.04   0.06  -0.01     0.04  -0.03   0.01
  15   1    -0.06  -0.08   0.04    -0.04   0.04  -0.00     0.03  -0.00  -0.03
  16   1    -0.01  -0.04   0.04    -0.02   0.05  -0.04     0.00  -0.02   0.01
  17   6     0.19   0.07   0.22    -0.11   0.03  -0.06    -0.21   0.16  -0.10
  18   1     0.03   0.00   0.10    -0.03   0.04   0.01    -0.04   0.09  -0.05
  19   1     0.10   0.04   0.06    -0.01  -0.03  -0.01    -0.07   0.04  -0.03
  20   1     0.06   0.02   0.08    -0.05   0.01  -0.06    -0.11   0.04  -0.03
  21   1     0.00   0.02  -0.02    -0.02   0.00   0.05     0.02   0.02  -0.01
  22   6     0.07   0.02   0.06     0.10  -0.10  -0.10     0.01   0.23  -0.00
  23   8     0.18  -0.01   0.08     0.20  -0.13  -0.13     0.03   0.29  -0.18
  24   7     0.01   0.12   0.03     0.08  -0.01  -0.08     0.10   0.30   0.21
  25   1     0.02   0.04   0.02     0.04   0.01  -0.02     0.03   0.10   0.04
  26   1    -0.01   0.03   0.01     0.00   0.00  -0.01     0.01   0.08   0.08
  27   7    -0.01  -0.03   0.07     0.02  -0.15  -0.11    -0.09   0.17   0.02
  28   1    -0.01  -0.00   0.03    -0.01  -0.03  -0.03    -0.03   0.04   0.03
  29   1     0.01  -0.02   0.02     0.02  -0.05  -0.02    -0.02   0.02  -0.00
  30   6    -0.00  -0.08  -0.03     0.06   0.09   0.01    -0.04  -0.16  -0.06
  31   8     0.05  -0.14  -0.02     0.07   0.15  -0.04     0.02  -0.25  -0.01
  32   7    -0.04  -0.11  -0.04     0.04   0.08   0.01    -0.09  -0.17  -0.09
  33   1    -0.03   0.00  -0.06     0.03  -0.01   0.03    -0.04  -0.03  -0.06
  34   1    -0.06   0.03  -0.07     0.04  -0.03   0.06    -0.07   0.01  -0.07
  35   7    -0.05   0.00  -0.07     0.10   0.09   0.10    -0.10  -0.09  -0.13
  36   1     0.02  -0.06   0.04    -0.01   0.07  -0.00    -0.00  -0.06  -0.00
  37   1     0.03  -0.06   0.04     0.01   0.08  -0.01     0.00  -0.08   0.01
  38   6     0.01   0.10  -0.05     0.09  -0.02   0.10     0.02  -0.04   0.07
  39   8     0.03   0.16  -0.19     0.16   0.04   0.36     0.03  -0.05   0.25
  40   7    -0.04   0.11   0.02     0.02  -0.03  -0.02     0.03  -0.04  -0.03
  41   1    -0.00   0.02   0.01    -0.00   0.01   0.01     0.00  -0.01   0.01
  42   1    -0.01   0.01   0.06    -0.01  -0.01  -0.06     0.00  -0.00  -0.04
  43   7     0.03   0.07   0.02     0.16  -0.12  -0.07     0.03  -0.05  -0.04
  44   1     0.00   0.01   0.03     0.03  -0.06  -0.06     0.01  -0.02  -0.04
  45   1     0.01   0.02  -0.02     0.07  -0.04   0.02     0.02  -0.02   0.01
  46   6    -0.01  -0.13   0.02    -0.01   0.01  -0.04     0.06  -0.04   0.06
  47   8     0.10  -0.35  -0.06     0.07  -0.04  -0.05     0.06  -0.06   0.06
  48   7    -0.10   0.01   0.16    -0.06  -0.04  -0.03     0.05  -0.00   0.09
  49   1     0.01  -0.13  -0.01    -0.02   0.01   0.02     0.01  -0.00   0.02
  50   1    -0.02  -0.06  -0.00    -0.04   0.04   0.02     0.01  -0.01   0.02
  51   7    -0.05   0.01   0.08    -0.04   0.10  -0.07     0.07  -0.07   0.05
  52   1    -0.03   0.07   0.05    -0.02   0.02  -0.03     0.01  -0.02   0.01
  53   1    -0.01   0.00   0.01    -0.00   0.01  -0.04     0.02  -0.02   0.01
                     22                     23                     24
                        a                      a                      a 
 Frequencies --   146.0768               157.4786               174.2140
 Red. masses --    12.8309                11.8369                11.7127
 Frc consts  --     0.0000                 0.0000                 0.0000
 IR Inten    --    15.0127                 5.7540                14.4895
 Raman Activ --     0.0000                 0.0000                 0.0000
 Depolar     --     0.0000                 0.0000                 0.0000
 Atom AN      X      Y      Z        X      Y      Z        X      Y      Z
   1   8    -0.26  -0.07   0.26    -0.20   0.15  -0.13    -0.19  -0.00  -0.07
   2   6     0.06  -0.10   0.20     0.15   0.08  -0.09    -0.02  -0.02   0.10
   3   1     0.04   0.01   0.05     0.09   0.08  -0.05     0.04   0.03  -0.01
   4   1     0.03  -0.09   0.06     0.07  -0.04   0.00     0.03  -0.03   0.09
   5   6     0.18  -0.02   0.17     0.14   0.07  -0.09    -0.22  -0.07   0.11
   6   1     0.07  -0.01   0.07     0.05  -0.00  -0.03    -0.10   0.00  -0.01
   7   1     0.07   0.02   0.03     0.04   0.03  -0.03    -0.09  -0.05   0.07
   8   7     0.09  -0.04   0.10     0.03   0.05  -0.04    -0.11  -0.05   0.04
   9   6     0.09  -0.14   0.01    -0.02  -0.07  -0.00    -0.08   0.06   0.03
  10   1     0.04  -0.07  -0.03     0.02  -0.05  -0.01    -0.05   0.07   0.05
  11   1    -0.01  -0.05   0.02    -0.04  -0.03   0.02     0.03   0.04  -0.04
  12   1     0.06  -0.02  -0.00    -0.01  -0.01  -0.00    -0.04  -0.04   0.02
  13   6    -0.02   0.03   0.08     0.03  -0.01  -0.03    -0.06   0.07   0.01
  14   1    -0.02   0.02   0.01     0.02  -0.02  -0.01    -0.02   0.04   0.02
  15   1    -0.02   0.01   0.05     0.01   0.01  -0.01    -0.02   0.02   0.00
  16   1    -0.01   0.01   0.01    -0.01  -0.01   0.00    -0.01   0.02  -0.02
  17   6     0.06   0.01   0.11    -0.06   0.16  -0.03    -0.02  -0.23  -0.04
  18   1     0.01   0.03   0.05    -0.01   0.07  -0.01    -0.01  -0.11  -0.02
  19   1     0.04  -0.02   0.04    -0.01   0.05  -0.01    -0.03  -0.07  -0.01
  20   1    -0.01   0.00   0.00    -0.05   0.04  -0.00     0.05  -0.06  -0.02
  21   1    -0.07  -0.04   0.06    -0.07   0.00  -0.04    -0.07  -0.03  -0.01
  22   6     0.10   0.04  -0.07    -0.07  -0.12   0.07     0.17   0.11  -0.09
  23   8     0.25   0.02  -0.24    -0.00  -0.14  -0.10     0.14   0.14  -0.01
  24   7     0.10   0.24   0.09    -0.16   0.04   0.07     0.23   0.04  -0.09
  25   1     0.05   0.10   0.00    -0.05   0.05  -0.02     0.06  -0.00  -0.01
  26   1    -0.01   0.07   0.05    -0.06   0.01   0.04     0.06   0.01  -0.03
  27   7    -0.05  -0.10  -0.01    -0.05  -0.28   0.28     0.16   0.19  -0.18
  28   1    -0.04  -0.02   0.02    -0.03  -0.07   0.09     0.05   0.05  -0.05
  29   1    -0.01  -0.05  -0.01    -0.04  -0.08   0.05     0.06   0.05  -0.03
  30   6     0.03  -0.03  -0.03     0.05   0.03  -0.02    -0.04  -0.04   0.01
  31   8     0.08  -0.05  -0.05     0.08   0.05  -0.06    -0.05  -0.06   0.04
  32   7    -0.03  -0.06  -0.05     0.00  -0.00  -0.02    -0.02  -0.01   0.00
  33   1    -0.01  -0.03  -0.02     0.01  -0.02  -0.00    -0.01   0.01   0.00
  34   1    -0.02  -0.01  -0.01     0.00  -0.02   0.02    -0.01   0.01  -0.02
  35   7     0.02   0.02   0.00     0.06   0.07   0.06    -0.05  -0.06  -0.05
  36   1    -0.01   0.02   0.00    -0.01   0.04   0.01     0.00  -0.03  -0.01
  37   1     0.01   0.02   0.00     0.02   0.05   0.00    -0.01  -0.04  -0.00
  38   6    -0.12  -0.02  -0.10     0.14   0.01   0.04     0.13   0.05   0.03
  39   8    -0.18  -0.08  -0.34     0.05  -0.19   0.07     0.09  -0.06   0.03
  40   7    -0.06  -0.03   0.02     0.36   0.00   0.07     0.25   0.04   0.08
  41   1    -0.01  -0.01  -0.02     0.11  -0.02   0.02     0.07   0.01   0.00
  42   1    -0.00  -0.00   0.04     0.11   0.03   0.00     0.07   0.03  -0.01
  43   7    -0.19   0.06   0.06     0.04   0.24  -0.03     0.08   0.18  -0.01
  44   1    -0.04   0.04   0.04     0.04   0.11   0.00     0.04   0.08   0.00
  45   1    -0.08   0.02  -0.02    -0.04   0.06   0.00    -0.01   0.05  -0.01
  46   6    -0.04   0.08  -0.05    -0.13  -0.04  -0.03    -0.10  -0.07   0.01
  47   8    -0.10   0.17  -0.03    -0.15  -0.09  -0.06    -0.28  -0.13  -0.09
  48   7     0.04   0.02  -0.14    -0.14   0.02   0.00     0.05   0.09  -0.07
  49   1    -0.01   0.09  -0.01    -0.01  -0.09  -0.06     0.02  -0.01  -0.09
  50   1     0.01   0.06   0.00    -0.01  -0.09  -0.06     0.07  -0.03  -0.03
  51   7    -0.01   0.03  -0.05    -0.14  -0.04   0.06    -0.08  -0.15   0.22
  52   1     0.02  -0.04  -0.03    -0.02   0.04   0.05     0.01  -0.00   0.09
  53   1    -0.01  -0.01  -0.01    -0.06   0.00   0.04    -0.04  -0.05   0.08
                     25                     26                     27
                        a                      a                      a 
 Frequencies --   177.7626               190.6892               193.4023
 Red. masses --    10.1891                 6.9958                 8.8340
 Frc consts  --     0.0000                 0.0000                 0.0000
 IR Inten    --    27.1920               106.7007               100.1863
 Raman Activ --     0.0000                 0.0000                 0.0000
 Depolar     --     0.0000                 0.0000                 0.0000
 Atom AN      X      Y      Z        X      Y      Z        X      Y      Z
   1   8    -0.02   0.05  -0.10    -0.12   0.01   0.03    -0.18   0.03   0.03
   2   6     0.08   0.04  -0.04    -0.08   0.00  -0.02    -0.05   0.01  -0.00
   3   1     0.07   0.03  -0.05    -0.06   0.00   0.04    -0.03   0.02   0.03
   4   1     0.05  -0.00   0.05    -0.05  -0.01  -0.06    -0.03  -0.02  -0.04
   5   6    -0.16  -0.00  -0.04     0.21   0.04  -0.01     0.18   0.03   0.01
   6   1    -0.09   0.01  -0.07     0.11  -0.00   0.05     0.08  -0.00   0.04
   7   1    -0.08  -0.03   0.03     0.10   0.04  -0.06     0.08   0.03  -0.04
   8   7    -0.06   0.02  -0.00     0.11   0.02  -0.02     0.09   0.01  -0.02
   9   6    -0.04   0.14   0.03     0.08  -0.13  -0.05     0.07  -0.13  -0.06
  10   1    -0.03   0.08   0.04     0.05  -0.11  -0.07     0.05  -0.10  -0.07
  11   1     0.03   0.06  -0.02    -0.04  -0.07   0.05    -0.04  -0.07   0.04
  12   1    -0.03  -0.00   0.01     0.06   0.04  -0.02     0.05   0.03  -0.02
  13   6     0.00  -0.03   0.01     0.03   0.02  -0.01     0.02   0.03  -0.02
  14   1     0.02  -0.02   0.01    -0.01   0.02  -0.02    -0.01   0.02  -0.02
  15   1     0.01   0.00  -0.01    -0.00  -0.01   0.01    -0.01  -0.00   0.01
  16   1    -0.01  -0.01   0.01     0.02   0.01  -0.01     0.02   0.01  -0.01
  17   6    -0.00  -0.05  -0.01     0.04   0.14   0.03     0.04   0.10   0.01
  18   1    -0.00  -0.06  -0.02     0.01   0.10   0.04     0.01   0.08   0.03
  19   1    -0.03   0.01  -0.01     0.05   0.02   0.01     0.05   0.00   0.01
  20   1     0.04  -0.01   0.03    -0.05   0.04  -0.02    -0.04   0.02  -0.03
  21   1    -0.02  -0.00  -0.02    -0.02  -0.01  -0.00    -0.05   0.00   0.00
  22   6    -0.11  -0.05  -0.07    -0.06   0.02  -0.00    -0.12  -0.02  -0.09
  23   8     0.16  -0.16  -0.05    -0.23   0.06   0.11    -0.09  -0.06   0.11
  24   7    -0.12   0.17   0.12     0.00  -0.22  -0.08    -0.04  -0.16  -0.03
  25   1     0.05   0.06   0.09    -0.04  -0.10  -0.02     0.01  -0.08   0.06
  26   1    -0.08   0.06   0.06     0.04  -0.06  -0.06    -0.01  -0.04  -0.03
  27   7    -0.47  -0.10  -0.29     0.07   0.17  -0.07    -0.25   0.15  -0.39
  28   1    -0.15  -0.02  -0.06     0.04   0.04  -0.05    -0.05   0.04  -0.12
  29   1    -0.11  -0.05  -0.06     0.03   0.07   0.00    -0.05   0.06  -0.07
  30   6     0.07   0.04  -0.01    -0.02   0.01   0.02     0.02   0.04   0.01
  31   8     0.11   0.04  -0.05    -0.05   0.02   0.03     0.01   0.05   0.01
  32   7     0.01  -0.00  -0.02     0.02   0.03   0.03     0.03   0.04   0.03
  33   1     0.01  -0.02  -0.01     0.00   0.02   0.01     0.01   0.02   0.01
  34   1    -0.00  -0.01   0.01     0.01   0.01   0.00     0.01   0.01   0.00
  35   7     0.07   0.10   0.06    -0.02  -0.01  -0.01     0.02   0.04   0.03
  36   1    -0.00   0.03   0.03     0.01  -0.02   0.00     0.00   0.01   0.01
  37   1     0.03   0.05   0.01    -0.01  -0.02   0.00     0.01   0.02   0.01
  38   6     0.02   0.03  -0.01     0.04   0.03  -0.02    -0.02  -0.03   0.01
  39   8     0.03   0.04   0.00     0.00  -0.02  -0.04    -0.04  -0.05  -0.01
  40   7     0.01   0.02  -0.01     0.10   0.02   0.02    -0.01  -0.02   0.02
  41   1     0.01   0.01  -0.02     0.04  -0.00  -0.03    -0.00  -0.01   0.02
  42   1     0.00   0.01  -0.02     0.03   0.02  -0.01     0.00  -0.01   0.01
  43   7     0.03   0.01   0.02    -0.01   0.12   0.03    -0.04   0.00  -0.02
  44   1     0.01  -0.00  -0.01     0.01   0.05  -0.02    -0.01   0.01   0.02
  45   1     0.01   0.00   0.00    -0.02   0.04  -0.01    -0.02  -0.00  -0.00
  46   6     0.09  -0.06   0.11    -0.05  -0.06   0.04     0.09  -0.03   0.08
  47   8     0.04  -0.12   0.07    -0.09  -0.18  -0.05    -0.07   0.05   0.09
  48   7     0.18  -0.13   0.03     0.06  -0.17  -0.11     0.17   0.18   0.11
  49   1    -0.01   0.19   0.12    -0.08   0.32   0.16     0.11  -0.22  -0.16
  50   1    -0.01   0.23   0.17    -0.09   0.42   0.26     0.18  -0.33  -0.19
  51   7     0.10  -0.09   0.16    -0.04  -0.10   0.12     0.11  -0.12   0.16
  52   1     0.03  -0.09   0.01     0.02  -0.12  -0.01     0.02   0.06   0.10
  53   1     0.05  -0.10   0.00    -0.00  -0.10  -0.01     0.02   0.02   0.08
                     28                     29                     30
                        a                      a                      a 
 Frequencies --   225.2385               239.9772               276.2193
 Red. masses --    11.4262                11.2179                 2.7991
 Frc consts  --     0.0000                 0.0000                 0.0000
 IR Inten    --     6.9433                 7.2564                 0.7989
 Raman Activ --     0.0000                 0.0000                 0.0000
 Depolar     --     0.0000                 0.0000                 0.0000
 Atom AN      X      Y      Z        X      Y      Z        X      Y      Z
   1   8    -0.61   0.03   0.11     0.25  -0.25   0.47     0.05  -0.05   0.09
   2   6     0.18  -0.07  -0.09     0.08  -0.22  -0.02     0.17  -0.06   0.01
   3   1     0.18   0.06  -0.12     0.02  -0.13  -0.04     0.10   0.00  -0.05
   4   1     0.13  -0.18   0.07     0.02  -0.07  -0.02     0.09  -0.06   0.07
   5   6    -0.03   0.04  -0.16    -0.02   0.08  -0.16    -0.10   0.01  -0.05
   6   1    -0.04   0.02  -0.09    -0.02   0.04  -0.05    -0.05   0.01  -0.04
   7   1    -0.04  -0.01  -0.00    -0.02   0.02  -0.02    -0.05  -0.01   0.02
   8   7    -0.02   0.03  -0.07     0.00   0.10  -0.07    -0.07   0.02  -0.03
   9   6    -0.04   0.11   0.03    -0.01   0.19   0.02    -0.08   0.22   0.08
  10   1    -0.02   0.09   0.07    -0.02   0.13   0.08     0.01  -0.14  -0.23
  11   1     0.04   0.06  -0.05     0.06   0.09  -0.07    -0.13  -0.04   0.37
  12   1    -0.05  -0.04   0.02    -0.04  -0.04   0.02     0.05   0.43  -0.02
  13   6     0.04  -0.21  -0.01     0.07  -0.20   0.00     0.03  -0.11  -0.00
  14   1     0.05  -0.12  -0.01     0.07  -0.14  -0.01    -0.15   0.13  -0.05
  15   1     0.03  -0.03  -0.03     0.05  -0.02  -0.04    -0.06  -0.27   0.03
  16   1    -0.04  -0.08   0.06    -0.05  -0.08   0.07     0.27   0.01   0.02
  17   6    -0.05   0.12  -0.00    -0.08   0.28   0.03    -0.07  -0.04  -0.09
  18   1    -0.01   0.01  -0.03    -0.01   0.05  -0.05    -0.04   0.16   0.13
  19   1    -0.03   0.08  -0.01    -0.06   0.16  -0.01     0.13  -0.22   0.02
  20   1    -0.01   0.03   0.05    -0.02   0.07   0.10    -0.15  -0.00  -0.26
  21   1    -0.15  -0.04  -0.00     0.05   0.00   0.17    -0.00  -0.01   0.04
  22   6     0.06   0.02  -0.03    -0.03  -0.00  -0.02     0.01  -0.00   0.01
  23   8    -0.02   0.05   0.01    -0.03  -0.01   0.01     0.02  -0.00   0.03
  24   7     0.08  -0.09  -0.10     0.00  -0.04   0.02    -0.00   0.01  -0.01
  25   1     0.00  -0.04  -0.02    -0.01  -0.01  -0.01     0.01  -0.00   0.01
  26   1     0.04  -0.03  -0.04    -0.00  -0.01  -0.01     0.00   0.00   0.00
  27   7     0.16   0.08  -0.01    -0.06   0.02  -0.07     0.01   0.01   0.00
  28   1     0.05   0.01  -0.00    -0.01   0.01  -0.03     0.00   0.00  -0.00
  29   1     0.01   0.04  -0.03     0.02  -0.00   0.02     0.01   0.00   0.00
  30   6    -0.01   0.00   0.01     0.00   0.00   0.00    -0.00  -0.00  -0.00
  31   8    -0.02   0.00   0.01     0.00   0.00   0.00    -0.00  -0.00  -0.00
  32   7     0.00   0.01   0.01     0.00   0.01   0.00    -0.00  -0.00   0.00
  33   1    -0.00   0.01   0.00     0.00   0.00   0.00    -0.00   0.00  -0.00
  34   1     0.00   0.00  -0.00     0.00   0.00   0.00    -0.00   0.00  -0.00
  35   7    -0.01  -0.02  -0.01     0.00   0.01   0.00    -0.00  -0.00  -0.00
  36   1     0.00  -0.01  -0.00     0.00   0.00   0.00    -0.00   0.00  -0.00
  37   1    -0.01  -0.01  -0.00     0.00   0.00   0.00    -0.00   0.00  -0.00
  38   6    -0.02  -0.01   0.01     0.02   0.01   0.01     0.01   0.00  -0.01
  39   8    -0.00   0.02   0.04     0.01  -0.02   0.02     0.01   0.00  -0.01
  40   7    -0.05  -0.00  -0.04     0.04  -0.01   0.04     0.01  -0.00   0.01
  41   1    -0.01  -0.01   0.02     0.01   0.01  -0.02     0.00   0.00  -0.01
  42   1    -0.01  -0.01   0.01     0.01   0.01  -0.03     0.00   0.00  -0.01
  43   7     0.01  -0.06  -0.01     0.01   0.03  -0.01     0.01  -0.01   0.01
  44   1    -0.01  -0.03  -0.00     0.01   0.01  -0.00     0.00  -0.01   0.00
  45   1     0.02  -0.02   0.01    -0.00   0.01   0.00     0.01  -0.00  -0.00
  46   6     0.11   0.02   0.08    -0.10  -0.02  -0.08    -0.01   0.00  -0.01
  47   8     0.20   0.05   0.13    -0.18  -0.04  -0.13    -0.01   0.00  -0.01
  48   7    -0.02  -0.11   0.16     0.05   0.14  -0.17     0.00   0.01  -0.02
  49   1    -0.00  -0.03   0.10     0.01   0.03  -0.12    -0.00   0.00  -0.01
  50   1    -0.06  -0.01   0.03     0.07   0.01  -0.04     0.01   0.00  -0.00
  51   7     0.10   0.06  -0.09    -0.08  -0.06   0.06    -0.01   0.00  -0.01
  52   1    -0.01   0.01  -0.04     0.00   0.00   0.04    -0.00   0.00   0.00
  53   1     0.04   0.04  -0.03    -0.04  -0.03   0.03    -0.00   0.00  -0.00
                     31                     32                     33
                        a                      a                      a 
 Frequencies --   302.6574               312.1315               343.3983
 Red. masses --     3.6421                 1.6828                 3.1790
 Frc consts  --     0.0000                 0.0000                 0.0000
 IR Inten    --   387.8645                 1.8968                10.4596
 Raman Activ --     0.0000                 0.0000                 0.0000
 Depolar     --     0.0000                 0.0000                 0.0000
 Atom AN      X      Y      Z        X      Y      Z        X      Y      Z
   1   8    -0.00   0.00  -0.00    -0.01   0.07   0.09    -0.03  -0.17  -0.13
   2   6     0.00   0.00  -0.00     0.04   0.05   0.07     0.02  -0.14  -0.01
   3   1     0.00   0.00  -0.00     0.02   0.03   0.02     0.03  -0.03  -0.02
   4   1     0.00  -0.00   0.00     0.02   0.01   0.03     0.02  -0.04   0.02
   5   6     0.00  -0.00  -0.00    -0.01   0.00   0.05    -0.03  -0.04  -0.02
   6   1    -0.00  -0.00  -0.00    -0.01  -0.00   0.01    -0.02   0.01   0.00
   7   1     0.00  -0.00  -0.00    -0.01   0.00   0.03    -0.01  -0.02  -0.00
   8   7     0.00  -0.00   0.00    -0.02  -0.01  -0.05     0.01   0.01  -0.01
   9   6     0.00   0.00   0.00    -0.02  -0.01  -0.08    -0.03  -0.08   0.03
  10   1    -0.00   0.00   0.00     0.04  -0.23  -0.28     0.00  -0.00   0.05
  11   1     0.00   0.00  -0.00    -0.16  -0.11   0.29    -0.00  -0.01  -0.05
  12   1    -0.00  -0.01   0.00     0.09   0.34  -0.07    -0.03  -0.09   0.02
  13   6    -0.00  -0.00   0.00     0.01  -0.05  -0.04     0.04   0.16  -0.04
  14   1    -0.00   0.00  -0.00     0.09  -0.12   0.00    -0.26   0.38  -0.04
  15   1    -0.00  -0.01   0.00     0.05   0.10  -0.05    -0.11  -0.31   0.08
  16   1     0.01   0.00   0.00    -0.13  -0.04   0.02     0.43   0.14  -0.08
  17   6     0.00  -0.00   0.00     0.02  -0.09  -0.07    -0.03   0.20   0.14
  18   1    -0.00   0.01   0.01     0.04  -0.32  -0.29     0.01  -0.10  -0.11
  19   1     0.01  -0.01   0.00    -0.26   0.28  -0.08    -0.14   0.29  -0.01
  20   1    -0.01  -0.00  -0.01     0.25  -0.03   0.32     0.09   0.04   0.29
  21   1     0.00  -0.00  -0.00    -0.00   0.01   0.02    -0.01  -0.06  -0.04
  22   6    -0.01   0.00  -0.01     0.00   0.00   0.01     0.01  -0.00  -0.00
  23   8     0.01  -0.01   0.00     0.00   0.00   0.02     0.01   0.00   0.00
  24   7     0.03  -0.02   0.06    -0.00   0.00  -0.00     0.01   0.01  -0.01
  25   1    -0.05   0.04  -0.10     0.00   0.00   0.00     0.01  -0.00   0.01
  26   1    -0.04   0.04  -0.07     0.00   0.00  -0.00     0.00   0.00   0.00
  27   7    -0.00  -0.00  -0.00     0.01   0.01   0.00     0.00  -0.01  -0.00
  28   1    -0.01   0.01  -0.02     0.00   0.00  -0.00    -0.00  -0.00   0.00
  29   1     0.00   0.00   0.00     0.01   0.01   0.01    -0.01  -0.01  -0.01
  30   6     0.05  -0.09   0.08     0.00  -0.00   0.00     0.00  -0.00  -0.00
  31   8    -0.00  -0.01   0.02    -0.00  -0.00   0.00    -0.00   0.00  -0.00
  32   7    -0.13   0.19  -0.22    -0.00   0.00  -0.01    -0.00   0.00  -0.00
  33   1     0.12  -0.20   0.21     0.00  -0.01   0.01     0.00  -0.00   0.00
  34   1     0.26  -0.35   0.36     0.01  -0.01   0.01     0.00  -0.00   0.00
  35   7    -0.10   0.21  -0.16    -0.00   0.00  -0.01    -0.00   0.00  -0.00
  36   1     0.21  -0.37   0.30     0.01  -0.01   0.01     0.00  -0.00   0.00
  37   1     0.10  -0.19   0.17     0.00  -0.01   0.00     0.00  -0.00   0.00
  38   6    -0.00   0.00  -0.00     0.00   0.00   0.01    -0.00   0.01   0.01
  39   8    -0.00   0.00  -0.00     0.00   0.01   0.02    -0.00   0.01   0.01
  40   7    -0.00  -0.00   0.00    -0.01   0.01  -0.01    -0.01   0.01   0.01
  41   1    -0.00   0.00  -0.00    -0.01   0.00   0.00    -0.00   0.01  -0.01
  42   1    -0.00   0.00  -0.00    -0.01  -0.00   0.00    -0.01   0.01  -0.05
  43   7    -0.00  -0.00   0.00     0.00   0.01  -0.01     0.03   0.00  -0.07
  44   1     0.00  -0.00  -0.01    -0.00   0.00   0.00    -0.03  -0.01   0.16
  45   1     0.00  -0.00  -0.00    -0.00  -0.00   0.01    -0.01  -0.02   0.07
  46   6    -0.00   0.01   0.01    -0.00  -0.00  -0.01     0.01   0.01   0.01
  47   8     0.00   0.01   0.01    -0.00  -0.00  -0.01     0.00   0.01   0.01
  48   7     0.01  -0.01  -0.01     0.00   0.01  -0.01    -0.00  -0.01   0.01
  49   1     0.00  -0.00  -0.00     0.00   0.00  -0.01    -0.00  -0.00   0.01
  50   1     0.00  -0.00   0.00     0.00   0.00  -0.00    -0.01   0.01   0.01
  51   7     0.00  -0.02  -0.01    -0.00   0.00  -0.00     0.01   0.00  -0.01
  52   1    -0.01   0.05   0.03     0.00  -0.00  -0.00    -0.00   0.00  -0.00
  53   1    -0.00   0.02   0.01    -0.00  -0.00  -0.00     0.00   0.01   0.00
                     34                     35                     36
                        a                      a                      a 
 Frequencies --   345.6375               348.7505               373.3007
 Red. masses --     2.8955                 8.3659                 8.7740
 Frc consts  --     0.0000                 0.0000                 0.0000
 IR Inten    --   143.3760                 7.9457                 5.6141
 Raman Activ --     0.0000                 0.0000                 0.0000
 Depolar     --     0.0000                 0.0000                 0.0000
 Atom AN      X      Y      Z        X      Y      Z        X      Y      Z
   1   8     0.00  -0.06  -0.08    -0.01  -0.32  -0.34    -0.01  -0.27  -0.22
   2   6    -0.02  -0.04   0.04    -0.04  -0.23   0.09     0.08  -0.21  -0.01
   3   1    -0.00  -0.00   0.01     0.02  -0.04   0.00    -0.00  -0.02   0.04
   4   1    -0.00  -0.00   0.02     0.01  -0.04   0.08     0.01  -0.08  -0.05
   5   6    -0.05  -0.03   0.04    -0.19  -0.11   0.09     0.34   0.00  -0.01
   6   1    -0.03   0.01   0.00    -0.10   0.03   0.00     0.18  -0.05   0.08
   7   1    -0.03  -0.02   0.03    -0.09  -0.06   0.07     0.16   0.12  -0.06
   8   7     0.02  -0.00   0.02     0.00   0.02   0.02     0.02   0.03  -0.01
   9   6     0.04   0.03  -0.03     0.04   0.04  -0.08    -0.04   0.35   0.30
  10   1     0.01  -0.02  -0.05     0.01  -0.05  -0.13    -0.02   0.12   0.11
  11   1    -0.00  -0.00   0.03    -0.04  -0.02   0.07     0.08   0.11   0.16
  12   1     0.04   0.05  -0.01     0.08   0.12  -0.04    -0.11   0.16   0.08
  13   6     0.04   0.02   0.01     0.18   0.22  -0.02    -0.34   0.15  -0.02
  14   1     0.11  -0.09   0.03     0.20  -0.04   0.09    -0.09  -0.00  -0.05
  15   1     0.06   0.13  -0.03     0.13   0.24  -0.08    -0.11   0.13   0.08
  16   1    -0.13  -0.02   0.01    -0.12   0.03  -0.04    -0.20   0.03  -0.05
  17   6    -0.02   0.06   0.01    -0.09   0.30   0.19     0.04  -0.07  -0.08
  18   1    -0.00   0.09   0.04    -0.02   0.17   0.10     0.02  -0.07  -0.07
  19   1     0.04  -0.03   0.01     0.06   0.10   0.05    -0.04  -0.01  -0.03
  20   1    -0.07   0.01  -0.05    -0.14   0.07   0.06     0.07  -0.01  -0.00
  21   1     0.00  -0.02  -0.03    -0.01  -0.12  -0.10    -0.00  -0.10  -0.08
  22   6     0.00   0.00   0.00     0.02   0.00   0.00    -0.02   0.01   0.00
  23   8    -0.00   0.00   0.00     0.01   0.01   0.01    -0.01  -0.00  -0.00
  24   7     0.00   0.00  -0.00     0.01   0.03  -0.02    -0.01  -0.05   0.01
  25   1     0.00   0.00   0.00     0.02   0.00   0.03    -0.03  -0.01  -0.03
  26   1     0.00   0.00   0.00     0.00   0.00   0.01    -0.00  -0.01  -0.02
  27   7     0.01   0.00   0.00     0.02  -0.00   0.00    -0.02   0.00   0.00
  28   1    -0.00   0.00   0.00     0.00  -0.00   0.01    -0.00  -0.00   0.00
  29   1    -0.00  -0.00  -0.00    -0.01  -0.01  -0.01    -0.01   0.00  -0.01
  30   6     0.00  -0.00   0.00     0.00  -0.00  -0.00    -0.00  -0.00  -0.00
  31   8    -0.00  -0.00   0.00    -0.00   0.00  -0.00     0.00  -0.00  -0.00
  32   7    -0.00   0.00  -0.00    -0.00  -0.00  -0.00     0.01   0.00   0.00
  33   1     0.00  -0.00   0.00    -0.00  -0.00  -0.00     0.00   0.00   0.00
  34   1     0.00  -0.00   0.00     0.00  -0.00   0.00     0.00   0.00  -0.00
  35   7    -0.00   0.00  -0.00    -0.00  -0.00  -0.00     0.00   0.00   0.01
  36   1     0.00  -0.00   0.00     0.00  -0.00   0.00    -0.01   0.01  -0.00
  37   1     0.00  -0.00   0.00    -0.00  -0.00   0.00     0.00   0.00   0.00
  38   6    -0.03   0.00   0.02     0.01  -0.01  -0.01     0.00  -0.01   0.01
  39   8    -0.02  -0.00   0.00     0.00  -0.01  -0.00     0.00  -0.01   0.00
  40   7     0.01  -0.01   0.04     0.02  -0.01  -0.01    -0.01  -0.00  -0.01
  41   1     0.00   0.01  -0.04     0.01  -0.01   0.01    -0.00  -0.00   0.01
  42   1    -0.02   0.06  -0.23     0.01  -0.01   0.05     0.00  -0.01   0.03
  43   7     0.09   0.02  -0.32    -0.02  -0.02   0.10    -0.01   0.01  -0.01
  44   1    -0.13  -0.05   0.76     0.04   0.01  -0.23    -0.00   0.01   0.01
  45   1    -0.07  -0.07   0.31     0.03   0.02  -0.09    -0.01   0.00   0.00
  46   6     0.00  -0.00   0.01     0.02   0.02   0.01     0.01   0.02   0.01
  47   8     0.01  -0.00   0.01     0.00   0.03   0.01    -0.00   0.02   0.01
  48   7    -0.01  -0.01   0.01    -0.01  -0.02   0.02     0.00  -0.02   0.01
  49   1    -0.00   0.00   0.01    -0.00  -0.01   0.02     0.00  -0.01   0.01
  50   1    -0.01   0.02   0.02    -0.01  -0.02  -0.01    -0.01  -0.00   0.00
  51   7    -0.00   0.01   0.00     0.02  -0.00  -0.01     0.01  -0.01  -0.00
  52   1     0.00  -0.03  -0.02    -0.00   0.03   0.01    -0.00   0.02   0.01
  53   1     0.00  -0.01  -0.01     0.01   0.02   0.00     0.00   0.01   0.01
                     37                     38                     39
                        a                      a                      a 
 Frequencies --   376.9680               391.8806               414.1071
 Red. masses --     8.2652                 3.0667                 2.9153
 Frc consts  --     0.0000                 0.0000                 0.0000
 IR Inten    --     1.9214               281.8109               202.0901
 Raman Activ --     0.0000                 0.0000                 0.0000
 Depolar     --     0.0000                 0.0000                 0.0000
 Atom AN      X      Y      Z        X      Y      Z        X      Y      Z
   1   8     0.00  -0.03   0.17     0.01  -0.01   0.02     0.01   0.02   0.03
   2   6     0.05  -0.04  -0.29     0.00  -0.01  -0.01    -0.01   0.01  -0.00
   3   1     0.04  -0.05  -0.14    -0.00  -0.00   0.00    -0.01  -0.00   0.00
   4   1     0.03  -0.06  -0.06    -0.00  -0.00  -0.01    -0.01   0.01  -0.01
   5   6    -0.11   0.07  -0.30     0.03   0.01  -0.01     0.01   0.01  -0.01
   6   1    -0.05   0.01  -0.13     0.02  -0.01   0.00    -0.00   0.00  -0.01
   7   1    -0.05  -0.03  -0.06     0.01   0.01  -0.01     0.00  -0.00  -0.00
   8   7    -0.04   0.06  -0.03     0.00   0.00  -0.00     0.01   0.00   0.01
   9   6    -0.22  -0.21   0.24    -0.00   0.01   0.02     0.01  -0.01   0.01
  10   1     0.03  -0.16   0.08    -0.00   0.01   0.01     0.00  -0.00   0.00
  11   1    -0.16  -0.10   0.14     0.01   0.01   0.00     0.00  -0.00  -0.00
  12   1    -0.11  -0.01   0.06    -0.01  -0.00   0.01     0.00  -0.01   0.00
  13   6     0.00   0.28  -0.08    -0.02   0.01  -0.00    -0.01  -0.01   0.01
  14   1     0.06   0.06   0.04    -0.00  -0.00  -0.00    -0.01  -0.01  -0.00
  15   1     0.03   0.18  -0.03    -0.01   0.01   0.01    -0.00  -0.00   0.01
  16   1    -0.08   0.08  -0.09    -0.01   0.00  -0.00    -0.01  -0.01   0.01
  17   6     0.29  -0.11   0.28     0.01  -0.01  -0.00     0.01  -0.01  -0.01
  18   1     0.02  -0.09   0.19     0.00  -0.01  -0.00     0.00  -0.00  -0.01
  19   1     0.20  -0.04   0.08     0.00  -0.00  -0.00    -0.01  -0.01  -0.00
  20   1     0.13  -0.02   0.05     0.01  -0.00  -0.00     0.01  -0.00  -0.01
  21   1    -0.00   0.04   0.07    -0.02   0.00   0.02     0.01  -0.00   0.00
  22   6     0.01   0.00  -0.01     0.04  -0.00   0.05    -0.00   0.00  -0.00
  23   8    -0.00   0.01  -0.00    -0.08   0.05  -0.07    -0.01   0.02  -0.03
  24   7     0.01   0.01   0.01    -0.10   0.09  -0.26    -0.03   0.03  -0.10
  25   1    -0.00   0.01  -0.01     0.35  -0.23   0.61     0.14  -0.10   0.25
  26   1    -0.00   0.01  -0.00     0.16  -0.14   0.29     0.07  -0.06   0.11
  27   7     0.01   0.01  -0.00     0.06  -0.07   0.08     0.01  -0.02   0.04
  28   1     0.01   0.00   0.00    -0.04   0.02  -0.01     0.01  -0.02   0.04
  29   1     0.01  -0.00   0.01    -0.08   0.01  -0.06    -0.04  -0.02  -0.03
  30   6    -0.00  -0.00   0.00    -0.00   0.01  -0.01     0.00   0.01  -0.01
  31   8     0.00  -0.00   0.00    -0.02   0.03  -0.02    -0.01   0.01  -0.01
  32   7    -0.00  -0.00   0.00    -0.03   0.02  -0.03    -0.01  -0.01  -0.01
  33   1    -0.00  -0.00  -0.00     0.01  -0.02   0.01     0.01  -0.02   0.00
  34   1    -0.00   0.00  -0.00     0.04  -0.07   0.07    -0.03   0.02  -0.02
  35   7    -0.00  -0.00  -0.00    -0.01   0.03  -0.02     0.01  -0.00   0.00
  36   1    -0.00   0.00  -0.00     0.07  -0.11   0.09     0.02  -0.03   0.02
  37   1    -0.00  -0.00  -0.00    -0.01   0.00  -0.01    -0.01   0.02  -0.02
  38   6     0.00   0.00  -0.00     0.00  -0.00  -0.00    -0.02   0.02  -0.03
  39   8    -0.00   0.00  -0.01     0.00  -0.00  -0.00    -0.01   0.03  -0.02
  40   7    -0.01   0.01  -0.00    -0.00  -0.01   0.00     0.03  -0.02   0.07
  41   1    -0.00   0.00   0.00    -0.00   0.00   0.00     0.01   0.01  -0.02
  42   1    -0.00  -0.00   0.01    -0.00  -0.00  -0.01    -0.02   0.04  -0.20
  43   7     0.00   0.01  -0.01    -0.00   0.01   0.01    -0.01  -0.02   0.03
  44   1    -0.00   0.00   0.03     0.00   0.01  -0.01    -0.01  -0.02  -0.01
  45   1    -0.00   0.00   0.00    -0.00   0.00  -0.01     0.01  -0.00  -0.01
  46   6    -0.01  -0.01  -0.00     0.00  -0.06  -0.01    -0.03   0.10   0.06
  47   8     0.00  -0.01  -0.00    -0.02  -0.04  -0.00     0.00   0.04   0.04
  48   7     0.00   0.01  -0.02     0.01   0.07   0.04     0.04  -0.14  -0.09
  49   1     0.00   0.00  -0.01     0.01  -0.01  -0.03    -0.03   0.11   0.05
  50   1     0.01   0.01   0.00     0.04  -0.04  -0.02    -0.01   0.05   0.03
  51   7    -0.01  -0.00  -0.00    -0.03   0.11   0.05     0.03  -0.24  -0.12
  52   1    -0.00   0.01   0.00     0.06  -0.29  -0.15    -0.17   0.70   0.36
  53   1    -0.00  -0.00   0.00     0.01  -0.05  -0.04     0.01   0.10   0.03
                     40                     41                     42
                        a                      a                      a 
 Frequencies --   428.8315               444.6880               456.9605
 Red. masses --     3.2308                 1.4330                 8.5622
 Frc consts  --     0.0000                 0.0000                 0.0000
 IR Inten    --   275.9898                 7.6360                 7.7387
 Raman Activ --     0.0000                 0.0000                 0.0000
 Depolar     --     0.0000                 0.0000                 0.0000
 Atom AN      X      Y      Z        X      Y      Z        X      Y      Z
   1   8    -0.01   0.00  -0.02    -0.00  -0.00  -0.00    -0.00  -0.00  -0.01
   2   6    -0.00  -0.00  -0.02    -0.00  -0.00   0.00    -0.01  -0.00   0.01
   3   1     0.00   0.00  -0.00     0.00   0.00  -0.00    -0.00   0.00   0.00
   4   1    -0.00  -0.00  -0.01     0.00  -0.00   0.00    -0.00   0.00   0.00
   5   6     0.00  -0.01  -0.01    -0.00  -0.00   0.00    -0.01  -0.00   0.01
   6   1    -0.00   0.00  -0.01    -0.00   0.00   0.00    -0.01   0.01  -0.00
   7   1    -0.01  -0.01   0.00    -0.00  -0.00   0.00    -0.01  -0.01   0.01
   8   7     0.04  -0.00   0.00     0.00   0.00  -0.00     0.03   0.01  -0.01
   9   6     0.02  -0.01   0.03     0.00   0.00   0.00     0.01  -0.01   0.02
  10   1     0.01  -0.01   0.01     0.00  -0.00   0.00     0.01  -0.01   0.01
  11   1     0.00  -0.00   0.02     0.00   0.00   0.00    -0.00  -0.00   0.01
  12   1    -0.00   0.00   0.01    -0.00   0.00   0.00    -0.01  -0.00   0.01
  13   6    -0.04   0.01   0.00    -0.00   0.00  -0.00    -0.02  -0.01  -0.01
  14   1    -0.02   0.00  -0.01    -0.00   0.00  -0.00    -0.01  -0.01  -0.02
  15   1    -0.02   0.01   0.02    -0.00   0.00   0.00    -0.01  -0.00   0.01
  16   1    -0.02   0.00  -0.01    -0.00   0.00  -0.00    -0.01  -0.00   0.00
  17   6     0.02   0.00  -0.02     0.00   0.00  -0.00     0.02   0.02  -0.02
  18   1     0.01  -0.00  -0.02     0.00   0.00  -0.00     0.01   0.01  -0.01
  19   1    -0.01   0.01  -0.01    -0.00   0.00  -0.00     0.00   0.01  -0.01
  20   1     0.01   0.00   0.00    -0.00   0.00   0.00     0.00   0.01  -0.01
  21   1    -0.02   0.00   0.02    -0.00  -0.00  -0.00    -0.00  -0.00  -0.00
  22   6     0.00  -0.00   0.01    -0.00  -0.01  -0.00    -0.02  -0.05  -0.01
  23   8     0.01  -0.00   0.01    -0.00  -0.01   0.01    -0.03  -0.06   0.00
  24   7     0.01  -0.01   0.02     0.00   0.00   0.02    -0.03   0.03   0.03
  25   1    -0.05   0.03  -0.08    -0.03   0.03  -0.06     0.01   0.04  -0.01
  26   1    -0.02   0.01  -0.03    -0.01   0.00  -0.00    -0.03   0.01   0.03
  27   7     0.00   0.01  -0.00     0.01   0.00  -0.01     0.04   0.02  -0.04
  28   1     0.00  -0.00   0.00    -0.00   0.01  -0.02     0.03  -0.00  -0.02
  29   1     0.00   0.00   0.01     0.01   0.01   0.01     0.01   0.03   0.00
  30   6    -0.00  -0.00   0.00     0.02   0.03   0.02     0.14   0.24   0.16
  31   8     0.00  -0.00   0.00     0.01   0.03   0.02     0.15   0.26   0.17
  32   7     0.01   0.00   0.00    -0.07   0.07  -0.05    -0.36  -0.16   0.11
  33   1    -0.00   0.01  -0.00     0.19  -0.40   0.27    -0.13  -0.15  -0.22
  34   1     0.01  -0.00   0.00    -0.29   0.30  -0.26    -0.25  -0.08   0.22
  35   7    -0.00  -0.00   0.00     0.07  -0.09   0.04     0.17  -0.16  -0.34
  36   1    -0.01   0.02  -0.01     0.23  -0.33   0.21     0.21  -0.02  -0.27
  37   1     0.01  -0.01   0.01    -0.24   0.28  -0.32    -0.12  -0.26  -0.08
  38   6    -0.04   0.04  -0.09    -0.00   0.00  -0.00    -0.00   0.00  -0.00
  39   8    -0.02   0.08  -0.08    -0.00   0.00  -0.00    -0.00  -0.00  -0.00
  40   7     0.11  -0.08   0.26     0.00  -0.00   0.00     0.00   0.00   0.00
  41   1    -0.01   0.05   0.01    -0.00   0.00   0.00     0.00  -0.00  -0.00
  42   1    -0.10   0.15  -0.83    -0.00   0.00  -0.01     0.00   0.00   0.00
  43   7    -0.06  -0.05   0.18    -0.00  -0.00   0.00     0.00  -0.00  -0.00
  44   1     0.00  -0.03  -0.16     0.00  -0.00  -0.00    -0.00  -0.00  -0.01
  45   1     0.04   0.01  -0.10     0.00   0.00  -0.00     0.00  -0.00   0.01
  46   6     0.02  -0.05   0.01     0.00  -0.00  -0.00    -0.00  -0.00   0.00
  47   8     0.01  -0.03   0.01     0.00  -0.00  -0.00    -0.00  -0.00   0.00
  48   7    -0.02   0.02   0.05    -0.00   0.01   0.01     0.01   0.00   0.00
  49   1    -0.01   0.04   0.02     0.00  -0.01  -0.00     0.00   0.00  -0.00
  50   1     0.03  -0.11  -0.05    -0.00  -0.00  -0.00     0.01  -0.00  -0.00
  51   7    -0.02   0.09   0.01    -0.00   0.01   0.01    -0.00   0.00  -0.00
  52   1     0.02  -0.14  -0.09     0.01  -0.04  -0.02    -0.00  -0.00  -0.00
  53   1     0.01  -0.01  -0.02    -0.00  -0.00   0.00     0.00   0.00  -0.00
                     43                     44                     45
                        a                      a                      a 
 Frequencies --   465.0389               467.9929               472.7601
 Red. masses --     6.5097                 1.8334                 9.0094
 Frc consts  --     0.0000                 0.0000                 0.0000
 IR Inten    --    14.9039                 0.6062                 2.6714
 Raman Activ --     0.0000                 0.0000                 0.0000
 Depolar     --     0.0000                 0.0000                 0.0000
 Atom AN      X      Y      Z        X      Y      Z        X      Y      Z
   1   8     0.00  -0.01   0.02    -0.01   0.00  -0.01     0.03   0.01  -0.10
   2   6    -0.03  -0.00  -0.06     0.00   0.00  -0.01    -0.07   0.03   0.32
   3   1     0.00  -0.02  -0.04     0.00   0.00  -0.00    -0.02   0.04   0.11
   4   1     0.00   0.00   0.00     0.00  -0.00  -0.00    -0.02   0.06   0.10
   5   6    -0.14  -0.04  -0.04     0.00  -0.00  -0.00    -0.11   0.04   0.21
   6   1    -0.12   0.05  -0.08     0.00  -0.00   0.00    -0.08   0.09   0.06
   7   1    -0.09  -0.12   0.04     0.00   0.00  -0.00    -0.06  -0.00   0.10
   8   7     0.22   0.02   0.07    -0.01  -0.01   0.00     0.12   0.11  -0.33
   9   6     0.19  -0.11   0.15    -0.00   0.01  -0.01    -0.16  -0.10   0.18
  10   1     0.08  -0.06   0.04    -0.00   0.00  -0.00     0.05  -0.06   0.17
  11   1     0.01  -0.05   0.06     0.00   0.00  -0.00    -0.07  -0.04   0.08
  12   1     0.04  -0.01   0.04     0.00   0.00  -0.00    -0.21  -0.04   0.06
  13   6    -0.18   0.03   0.07     0.01   0.01   0.00    -0.07  -0.25  -0.29
  14   1    -0.09  -0.01  -0.06     0.00   0.00   0.00    -0.04  -0.12  -0.17
  15   1    -0.09   0.03   0.11     0.00   0.00  -0.00    -0.05  -0.11  -0.05
  16   1    -0.10   0.00  -0.00     0.00   0.00  -0.00    -0.03  -0.09   0.01
  17   6     0.03   0.10  -0.17    -0.01  -0.00   0.01     0.31   0.19  -0.07
  18   1     0.04   0.07  -0.11    -0.00   0.00   0.00     0.05   0.04   0.07
  19   1    -0.07   0.01  -0.05    -0.00   0.00   0.00     0.19   0.08  -0.02
  20   1    -0.02   0.03  -0.05    -0.00  -0.00   0.00     0.07   0.05   0.00
  21   1    -0.00   0.02   0.02    -0.00  -0.00  -0.00     0.01  -0.04  -0.05
  22   6     0.01  -0.01  -0.01     0.01  -0.01   0.02     0.01  -0.03  -0.02
  23   8    -0.01   0.00   0.01    -0.01   0.00   0.00    -0.03  -0.01   0.00
  24   7     0.01   0.02  -0.00    -0.00   0.01   0.01     0.00   0.05   0.01
  25   1     0.02   0.01   0.01    -0.02   0.02  -0.04     0.02   0.03   0.01
  26   1    -0.00   0.00   0.01    -0.00   0.00  -0.00    -0.01   0.01   0.03
  27   7     0.01  -0.00  -0.01     0.01  -0.01   0.01     0.03  -0.00  -0.02
  28   1     0.00   0.00  -0.01    -0.01   0.01  -0.01     0.01  -0.00  -0.01
  29   1     0.02  -0.01   0.01    -0.01   0.01  -0.00     0.02   0.00   0.01
  30   6    -0.01  -0.01  -0.01    -0.00  -0.00   0.00    -0.01  -0.02  -0.01
  31   8    -0.01  -0.01  -0.01     0.00  -0.00  -0.00    -0.01  -0.02  -0.01
  32   7     0.02   0.01  -0.01     0.00   0.00  -0.00     0.02   0.01  -0.01
  33   1     0.01   0.01   0.01     0.00  -0.00   0.01     0.01   0.01   0.01
  34   1     0.01   0.00  -0.01     0.00   0.00  -0.00     0.02   0.00  -0.01
  35   7    -0.01   0.01   0.02    -0.00  -0.00   0.00    -0.01   0.01   0.02
  36   1    -0.01  -0.00   0.01     0.00  -0.00   0.00    -0.01   0.00   0.02
  37   1     0.01   0.01   0.00    -0.00   0.00  -0.00     0.01   0.02   0.01
  38   6    -0.12   0.14  -0.01     0.03  -0.01  -0.01     0.02  -0.02  -0.01
  39   8    -0.23  -0.02  -0.05     0.03  -0.01   0.01     0.04  -0.00   0.00
  40   7     0.20   0.15   0.06    -0.05  -0.01  -0.01    -0.04  -0.02  -0.00
  41   1     0.12  -0.04  -0.05    -0.01   0.00  -0.05    -0.02   0.01  -0.00
  42   1     0.12   0.11   0.12    -0.00  -0.04   0.11    -0.02  -0.02  -0.00
  43   7     0.07  -0.18  -0.07     0.01   0.06  -0.04    -0.01   0.03   0.01
  44   1    -0.07  -0.25  -0.23     0.01   0.02  -0.02     0.01   0.03   0.01
  45   1     0.22  -0.14   0.39    -0.02  -0.01   0.12    -0.03   0.01  -0.02
  46   6    -0.00   0.02  -0.04    -0.00  -0.09  -0.00     0.02   0.02  -0.02
  47   8     0.02   0.03  -0.03     0.03  -0.11   0.00    -0.01   0.02  -0.04
  48   7    -0.05  -0.01  -0.01     0.04  -0.02  -0.01    -0.04  -0.02   0.02
  49   1    -0.01  -0.01   0.02    -0.16   0.65   0.29    -0.01  -0.00   0.05
  50   1    -0.03  -0.01  -0.01     0.21  -0.48  -0.27    -0.04  -0.02  -0.02
  51   7     0.01  -0.02   0.06    -0.07   0.15   0.03     0.04  -0.00   0.03
  52   1     0.04  -0.03   0.02    -0.06   0.06   0.00     0.03   0.01   0.02
  53   1    -0.02  -0.03   0.03     0.04  -0.10  -0.11     0.00  -0.02   0.01
                     46                     47                     48
                        a                      a                      a 
 Frequencies --   475.9096               480.4524               486.1444
 Red. masses --     4.7140                 7.8714                 8.5307
 Frc consts  --     0.0000                 0.0000                 0.0000
 IR Inten    --    15.2703                26.9557                18.7548
 Raman Activ --     0.0000                 0.0000                 0.0000
 Depolar     --     0.0000                 0.0000                 0.0000
 Atom AN      X      Y      Z        X      Y      Z        X      Y      Z
   1   8    -0.00  -0.01   0.02     0.01   0.00   0.03    -0.02   0.03  -0.05
   2   6    -0.03  -0.01  -0.09     0.02  -0.01   0.02     0.00   0.02   0.08
   3   1     0.01  -0.02  -0.05    -0.00   0.00   0.02    -0.01   0.03   0.04
   4   1     0.00  -0.00   0.00     0.00  -0.01  -0.01    -0.01   0.01   0.01
   5   6    -0.16  -0.03  -0.06     0.08   0.02   0.01     0.08  -0.00   0.06
   6   1    -0.12   0.05  -0.09     0.06  -0.03   0.03     0.06  -0.02   0.05
   7   1    -0.10  -0.12   0.04     0.05   0.06  -0.02     0.05   0.05  -0.00
   8   7     0.22   0.03   0.10    -0.11  -0.02  -0.02    -0.09  -0.03  -0.10
   9   6     0.21  -0.11   0.13    -0.08   0.06  -0.07    -0.11   0.05  -0.03
  10   1     0.08  -0.06   0.02    -0.04   0.03  -0.02    -0.03   0.03   0.01
  11   1     0.01  -0.05   0.05    -0.00   0.02  -0.03     0.00   0.02  -0.00
  12   1     0.06  -0.02   0.03    -0.01   0.01  -0.02    -0.06   0.01  -0.01
  13   6    -0.18   0.05   0.11     0.09  -0.01  -0.03     0.08  -0.04  -0.11
  14   1    -0.09  -0.00  -0.05     0.04   0.01   0.03     0.04  -0.01   0.00
  15   1    -0.09   0.03   0.12     0.04  -0.01  -0.05     0.04  -0.02  -0.07
  16   1    -0.09   0.01   0.01     0.05   0.00  -0.00     0.04  -0.01  -0.02
  17   6    -0.01   0.11  -0.19    -0.01  -0.07   0.09     0.03  -0.03   0.09
  18   1     0.04   0.07  -0.12    -0.02  -0.04   0.05    -0.02  -0.03   0.07
  19   1    -0.09   0.00  -0.05     0.03  -0.01   0.02     0.07   0.02   0.02
  20   1    -0.03   0.03  -0.06     0.02  -0.02   0.03     0.02  -0.01   0.04
  21   1     0.00   0.01   0.01     0.01   0.00  -0.00    -0.01  -0.01  -0.01
  22   6     0.01  -0.01  -0.00    -0.01   0.01  -0.01    -0.00  -0.00   0.02
  23   8    -0.02  -0.00   0.01     0.00   0.01  -0.01     0.01  -0.01  -0.01
  24   7     0.01   0.03   0.00    -0.00  -0.02  -0.01    -0.01  -0.00   0.01
  25   1     0.01   0.02  -0.01     0.01  -0.03   0.03    -0.02   0.01  -0.02
  26   1    -0.01   0.01   0.01     0.02  -0.02   0.01    -0.01   0.00  -0.01
  27   7     0.02  -0.00  -0.01    -0.04   0.01  -0.01     0.02  -0.00   0.02
  28   1     0.01  -0.00   0.00    -0.03   0.03  -0.05     0.01  -0.01   0.03
  29   1     0.01  -0.00  -0.00     0.05  -0.01   0.05    -0.04   0.01  -0.03
  30   6    -0.00  -0.01  -0.01     0.00   0.01   0.01     0.00  -0.00  -0.00
  31   8    -0.01  -0.01  -0.01     0.01   0.01   0.01    -0.00   0.00  -0.00
  32   7     0.01   0.00  -0.00    -0.01  -0.00   0.01     0.00  -0.00  -0.00
  33   1     0.00   0.00   0.01    -0.01   0.00  -0.01     0.00  -0.01   0.01
  34   1     0.01   0.00  -0.01    -0.00  -0.01   0.01    -0.01   0.01  -0.01
  35   7    -0.01   0.00   0.01     0.00  -0.00  -0.01     0.00  -0.00   0.00
  36   1    -0.01   0.00   0.01     0.01  -0.01  -0.00    -0.00   0.01  -0.00
[...]
  44   1    -0.00   0.00  -0.00    -0.00   0.00   0.00     0.00  -0.00   0.00
  45   1    -0.00  -0.01  -0.00     0.00  -0.00  -0.00    -0.00   0.00   0.00
  46   6     0.00   0.01  -0.02     0.00  -0.00   0.00     0.00   0.00  -0.00
  47   8    -0.00  -0.01   0.01    -0.00   0.00  -0.00     0.00  -0.00   0.00
  48   7    -0.00  -0.00   0.00    -0.00   0.00  -0.00     0.00  -0.00   0.00
  49   1     0.03   0.01  -0.00    -0.00  -0.00   0.00    -0.00  -0.00   0.00
  50   1    -0.00  -0.01   0.01     0.00   0.00  -0.00     0.00   0.00  -0.00
  51   7    -0.05   0.01  -0.04     0.04  -0.01   0.03     0.01  -0.00   0.01
  52   1     0.00   0.01  -0.02    -0.01  -0.01   0.02    -0.00  -0.00   0.01
  53   1     0.17  -0.07   0.17    -0.14   0.06  -0.14    -0.03   0.01  -0.03
                    142                    143                    144
                        a                      a                      a 
 Frequencies --  3428.9581              3493.1534              3501.1030
 Red. masses --     1.6100                 1.4550                 1.4358
 Frc consts  --     0.0000                 0.0000                 0.0000
 IR Inten    --   344.4469                16.5903                42.7478
 Raman Activ --     0.0000                 0.0000                 0.0000
 Depolar     --     0.0000                 0.0000                 0.0000
 Atom AN      X      Y      Z        X      Y      Z        X      Y      Z
   1   8     0.00  -0.00   0.00     0.00   0.00   0.00    -0.00  -0.00  -0.00
   2   6    -0.00  -0.00   0.00    -0.00  -0.00  -0.00     0.00   0.00   0.00
   3   1    -0.00   0.00  -0.00     0.00  -0.00   0.00     0.00  -0.00   0.00
   4   1     0.00   0.00  -0.00    -0.00  -0.00  -0.00    -0.00  -0.00   0.00
   5   6     0.00   0.00  -0.00     0.00   0.00   0.00     0.00   0.00  -0.00
   6   1    -0.01  -0.00   0.00    -0.00  -0.00   0.00    -0.00  -0.00   0.00
   7   1    -0.00   0.00  -0.00    -0.00  -0.00  -0.00     0.00  -0.00   0.00
   8   7     0.00   0.00  -0.00    -0.00  -0.00   0.00     0.00  -0.00  -0.00
   9   6     0.00   0.00  -0.00     0.00   0.00  -0.00     0.00   0.00   0.00
  10   1    -0.00  -0.00   0.00    -0.00  -0.00   0.00    -0.00  -0.00   0.00
  11   1     0.00   0.00   0.00     0.00  -0.00   0.00     0.00  -0.00  -0.00
  12   1     0.00  -0.00  -0.00     0.00   0.00  -0.00    -0.00   0.00  -0.00
  13   6     0.00   0.00  -0.00     0.00  -0.00   0.00     0.00   0.00   0.00
  14   1    -0.00  -0.00   0.00    -0.00  -0.00   0.00    -0.00   0.00   0.00
  15   1    -0.00  -0.00  -0.00    -0.00   0.00  -0.00    -0.00   0.00   0.00
  16   1    -0.00   0.00  -0.00     0.00  -0.00   0.00     0.00  -0.00  -0.00
  17   6     0.00  -0.00   0.00     0.00  -0.00   0.00     0.00   0.00   0.00
  18   1    -0.00   0.00  -0.00    -0.00   0.00  -0.00    -0.00   0.00   0.00
  19   1    -0.00  -0.00  -0.00     0.00  -0.00   0.00    -0.00   0.00  -0.00
  20   1    -0.00   0.00   0.00     0.00  -0.00   0.00     0.00  -0.00  -0.00
  21   1    -0.00   0.00  -0.00    -0.00   0.00  -0.00     0.00  -0.00   0.00
  22   6    -0.01  -0.01  -0.00    -0.00  -0.00   0.00    -0.00   0.00   0.00
  23   8     0.00   0.01   0.00     0.00   0.00  -0.00     0.00  -0.00  -0.00
  24   7    -0.12  -0.16  -0.01     0.00   0.00  -0.00     0.00   0.00  -0.00
  25   1     0.17  -0.20  -0.17    -0.00   0.00   0.00    -0.00   0.00   0.00
  26   1     0.29   0.81   0.22    -0.00  -0.00  -0.00    -0.00  -0.00  -0.00
  27   7    -0.03  -0.06  -0.01     0.00   0.00  -0.00     0.00   0.00  -0.00
  28   1     0.12   0.20   0.06    -0.00  -0.00  -0.00    -0.00  -0.00  -0.00
  29   1     0.00   0.00  -0.01    -0.00  -0.00   0.00    -0.00  -0.00   0.00
  30   6    -0.00  -0.01  -0.00    -0.00  -0.00  -0.00     0.00  -0.00  -0.00
  31   8     0.00   0.00   0.00     0.00   0.00   0.00     0.00   0.00  -0.00
  32   7     0.00   0.00  -0.00    -0.00   0.00   0.00     0.06  -0.08  -0.10
  33   1    -0.02  -0.01   0.00     0.00   0.00  -0.00    -0.48  -0.16   0.13
  34   1     0.00   0.01   0.01    -0.00  -0.00  -0.00     0.24   0.45   0.26
  35   7    -0.00   0.00   0.00     0.00  -0.00  -0.00     0.10   0.04  -0.02
  36   1     0.00   0.01   0.01     0.00   0.00   0.00    -0.20  -0.32  -0.25
  37   1     0.01  -0.01  -0.02    -0.00   0.00   0.00    -0.19   0.17   0.31
  38   6    -0.00   0.00  -0.00    -0.00   0.00  -0.00     0.00   0.00   0.00
  39   8     0.00  -0.00   0.00     0.00  -0.00   0.00     0.00  -0.00  -0.00
  40   7     0.00   0.00   0.00     0.01  -0.00  -0.00     0.00  -0.00  -0.00
  41   1    -0.00  -0.00  -0.00    -0.01  -0.01  -0.00    -0.00  -0.00  -0.00
  42   1     0.00  -0.00  -0.00    -0.03   0.02   0.01    -0.00   0.00   0.00
  43   7     0.00  -0.00  -0.00    -0.16  -0.07  -0.05    -0.00  -0.00  -0.00
  44   1     0.00  -0.00   0.00     0.61  -0.39   0.08     0.00  -0.00   0.00
  45   1    -0.00   0.00   0.00    -0.00   0.65   0.13    -0.00   0.00   0.00
  46   6    -0.00   0.00  -0.00    -0.00  -0.00  -0.00     0.00  -0.00   0.00
  47   8     0.00  -0.00   0.00     0.00   0.00   0.00     0.00   0.00  -0.00
  48   7     0.00   0.00  -0.00    -0.00   0.00  -0.00     0.00  -0.00   0.00
  49   1     0.00   0.00   0.00     0.01   0.00  -0.00    -0.01  -0.00   0.00
  50   1    -0.00  -0.00   0.00    -0.00  -0.00   0.01     0.00   0.01  -0.01
  51   7     0.01  -0.00   0.00     0.00   0.00   0.00    -0.00   0.00  -0.00
  52   1    -0.00  -0.01   0.01    -0.00  -0.00   0.00    -0.00  -0.00   0.00
  53   1    -0.03   0.01  -0.03    -0.00   0.00  -0.00     0.00   0.00   0.00
                    145                    146                    147
                        a                      a                      a 
 Frequencies --  3502.9070              3505.8470              3520.6929
 Red. masses --     1.4479                 1.4615                 1.9071
 Frc consts  --     0.0000                 0.0000                 0.0000
 IR Inten    --    22.5758                 4.9701                11.7122
 Raman Activ --     0.0000                 0.0000                 0.0000
 Depolar     --     0.0000                 0.0000                 0.0000
 Atom AN      X      Y      Z        X      Y      Z        X      Y      Z
   1   8     0.00  -0.00   0.00    -0.00   0.00  -0.00    -0.00   0.00  -0.00
   2   6     0.00   0.00  -0.00    -0.00   0.00  -0.00    -0.00  -0.00   0.00
   3   1     0.00  -0.00   0.00     0.00  -0.00   0.00     0.00   0.00   0.00
   4   1    -0.00  -0.00   0.00    -0.00  -0.00   0.00     0.00   0.00  -0.00
   5   6    -0.00  -0.00  -0.00     0.00   0.00  -0.00     0.00  -0.00   0.00
   6   1    -0.00   0.00  -0.00    -0.00  -0.00   0.00    -0.00  -0.00   0.00
   7   1     0.00   0.00   0.00     0.00  -0.00   0.00    -0.00   0.00  -0.00
   8   7     0.00  -0.00  -0.00    -0.00  -0.00  -0.00     0.00  -0.00   0.00
   9   6    -0.00  -0.00   0.00     0.00   0.00  -0.00     0.00   0.00  -0.00
  10   1    -0.00   0.00  -0.00    -0.00  -0.00   0.00    -0.00  -0.00   0.00
  11   1     0.00  -0.00  -0.00     0.00  -0.00  -0.00     0.00  -0.00  -0.00
  12   1     0.00   0.00  -0.00    -0.00  -0.00  -0.00     0.00  -0.00   0.00
  13   6    -0.00   0.00  -0.00     0.00   0.00   0.00    -0.00   0.00  -0.00
  14   1    -0.00   0.00   0.00    -0.00  -0.00   0.00    -0.00  -0.00   0.00
  15   1     0.00   0.00   0.00    -0.00   0.00  -0.00    -0.00   0.00   0.00
  16   1     0.00  -0.00  -0.00     0.00  -0.00  -0.00     0.00   0.00   0.00
  17   6    -0.00   0.00  -0.00     0.00   0.00   0.00     0.00  -0.00   0.00
  18   1     0.00  -0.00   0.00    -0.00   0.00  -0.00     0.00   0.00  -0.00
  19   1    -0.00  -0.00  -0.00    -0.00   0.00  -0.00     0.00  -0.00  -0.00
  20   1    -0.00  -0.00   0.00     0.00  -0.00  -0.00     0.00   0.00   0.00
  21   1    -0.01   0.00  -0.01     0.00  -0.00   0.00     0.00  -0.00   0.00
  22   6    -0.00   0.00  -0.00     0.00  -0.00  -0.00     0.00  -0.00  -0.00
  23   8     0.00  -0.00   0.00    -0.00  -0.00  -0.00     0.00   0.00  -0.00
  24   7     0.00   0.00   0.00     0.00   0.00  -0.00    -0.00   0.00   0.00
  25   1    -0.00   0.00   0.00    -0.01   0.01   0.01     0.00  -0.00  -0.00
  26   1    -0.00  -0.00  -0.00    -0.01  -0.02  -0.01     0.00   0.00   0.00
  27   7     0.00  -0.00  -0.00     0.00   0.00   0.00    -0.00  -0.00  -0.00
  28   1    -0.00   0.00  -0.00    -0.01  -0.02  -0.00     0.00   0.00   0.00
  29   1    -0.00  -0.00   0.00    -0.00  -0.00   0.00     0.00  -0.00   0.00
  30   6    -0.00  -0.00  -0.00    -0.00  -0.00  -0.00     0.00   0.00   0.00
  31   8     0.00   0.00   0.00     0.00   0.00   0.00    -0.00  -0.00  -0.00
  32   7     0.00  -0.00  -0.00     0.06  -0.06  -0.08     0.00   0.00   0.00
  33   1    -0.01  -0.00   0.00    -0.39  -0.13   0.11    -0.00  -0.00   0.00
  34   1     0.00   0.01   0.00     0.18   0.34   0.20    -0.00  -0.00  -0.00
  35   7     0.00   0.00  -0.00    -0.14  -0.05   0.03    -0.00  -0.00   0.00
  36   1    -0.01  -0.01  -0.01     0.25   0.40   0.31     0.00   0.00   0.00
  37   1    -0.01   0.01   0.01     0.25  -0.22  -0.41     0.00  -0.00  -0.00
  38   6     0.00  -0.00   0.00    -0.00   0.00   0.00     0.01   0.00  -0.00
  39   8    -0.00   0.00  -0.00     0.00  -0.00  -0.00    -0.00   0.00   0.00
  40   7    -0.01  -0.00  -0.00    -0.00   0.00   0.00     0.23  -0.11  -0.05
  41   1     0.02   0.01   0.00    -0.00  -0.00   0.00    -0.07  -0.06  -0.03
  42   1     0.01  -0.01  -0.00     0.00  -0.00  -0.00    -0.82   0.45   0.20
  43   7     0.00   0.00   0.00    -0.00  -0.00  -0.00    -0.00   0.02   0.00
  44   1    -0.01   0.00  -0.00     0.00  -0.00   0.00     0.01  -0.01   0.00
  45   1     0.00  -0.01  -0.00    -0.00   0.00   0.00    -0.00  -0.08  -0.02
  46   6    -0.00   0.00  -0.00    -0.00  -0.00   0.00     0.00   0.00  -0.00
  47   8    -0.00  -0.00   0.00     0.00   0.00  -0.00    -0.00  -0.00   0.00
  48   7    -0.12   0.05  -0.13    -0.00   0.00  -0.00    -0.00   0.00  -0.00
  49   1     0.66   0.20  -0.05     0.00   0.00  -0.00     0.01   0.00  -0.00
  50   1    -0.22  -0.39   0.54    -0.00  -0.00   0.00    -0.01  -0.01   0.01
  51   7     0.00  -0.01   0.01     0.00  -0.00   0.00    -0.00  -0.00   0.00
  52   1     0.02   0.03  -0.04     0.00   0.00  -0.00     0.00   0.00  -0.01
  53   1    -0.01   0.00  -0.01    -0.00   0.00  -0.00     0.00  -0.00   0.00
                    148                    149                    150
                        a                      a                      a 
 Frequencies --  3532.4030              3550.7036              3556.7602
 Red. masses --     1.8913                 2.0527                 2.1733
 Frc consts  --     0.0000                 0.0000                 0.0000
 IR Inten    --    12.0659                39.5701                 9.2037
 Raman Activ --     0.0000                 0.0000                 0.0000
 Depolar     --     0.0000                 0.0000                 0.0000
 Atom AN      X      Y      Z        X      Y      Z        X      Y      Z
   1   8    -0.00   0.00  -0.00    -0.00   0.00  -0.00     0.00  -0.00   0.00
   2   6    -0.00   0.00  -0.00     0.00   0.00  -0.00     0.00   0.00   0.00
   3   1     0.00  -0.00   0.00     0.00   0.00  -0.00    -0.00  -0.00  -0.00
   4   1     0.00  -0.00  -0.00    -0.00  -0.00   0.00    -0.00   0.00   0.00
   5   6     0.00   0.00  -0.00     0.00   0.00  -0.00    -0.00  -0.00  -0.00
   6   1    -0.00  -0.00   0.00    -0.00  -0.00   0.00     0.00   0.00  -0.00
   7   1     0.00   0.00   0.00     0.00   0.00   0.00     0.00   0.00   0.00
   8   7    -0.00  -0.00   0.00    -0.00  -0.00   0.00     0.00  -0.00   0.00
   9   6     0.00   0.00  -0.00     0.00   0.00  -0.00    -0.00  -0.00   0.00
  10   1    -0.00  -0.00   0.00    -0.00  -0.00   0.00     0.00   0.00  -0.00
  11   1     0.00  -0.00  -0.00     0.00   0.00  -0.00    -0.00  -0.00  -0.00
  12   1    -0.00   0.00  -0.00     0.00   0.00  -0.00    -0.00   0.00  -0.00
  13   6     0.00   0.00  -0.00     0.00   0.00  -0.00    -0.00   0.00  -0.00
  14   1    -0.00  -0.00   0.00    -0.00  -0.00   0.00    -0.00   0.00  -0.00
  15   1     0.00  -0.00   0.00     0.00   0.00  -0.00     0.00  -0.00  -0.00
  16   1     0.00   0.00  -0.00     0.00   0.00  -0.00    -0.00  -0.00  -0.00
  17   6     0.00   0.00   0.00     0.00   0.00  -0.00    -0.00   0.00  -0.00
  18   1    -0.00   0.00   0.00     0.00   0.00  -0.00     0.00  -0.00   0.00
  19   1    -0.00   0.00  -0.00     0.00   0.00   0.00    -0.00   0.00   0.00
  20   1     0.00  -0.00  -0.00     0.00  -0.00  -0.00    -0.00  -0.00  -0.00
  21   1     0.00  -0.00   0.00     0.00  -0.00   0.00    -0.00   0.00  -0.00
  22   6     0.00  -0.00  -0.00    -0.00   0.01   0.00     0.00   0.00   0.00
  23   8     0.00   0.00   0.00     0.00  -0.00  -0.00    -0.00  -0.00   0.00
  24   7    -0.00   0.00   0.00    -0.11   0.21   0.15    -0.00   0.00   0.00
  25   1     0.00  -0.00  -0.00     0.53  -0.56  -0.50     0.00  -0.00  -0.00
  26   1     0.00   0.00   0.00    -0.11  -0.26  -0.06    -0.00  -0.00  -0.00
  27   7    -0.00  -0.00  -0.00     0.00   0.00   0.00    -0.00  -0.00   0.00
  28   1     0.01   0.01   0.00    -0.01  -0.02  -0.01     0.00   0.00   0.00
  29   1    -0.00  -0.00   0.00    -0.00  -0.00   0.00     0.00   0.00  -0.00
  30   6     0.00   0.00   0.00     0.00   0.00   0.00     0.00   0.00  -0.00
  31   8    -0.00  -0.00  -0.00    -0.00  -0.00  -0.00    -0.00  -0.00  -0.00
  32   7    -0.00  -0.00   0.00    -0.00  -0.00  -0.00     0.00   0.00   0.00
  33   1     0.00   0.00  -0.00     0.00  -0.00  -0.00    -0.00  -0.00   0.00
  34   1     0.00   0.00   0.00     0.00   0.01   0.01    -0.00  -0.00  -0.00
  35   7    -0.00  -0.00  -0.00    -0.00  -0.00  -0.00     0.00  -0.00  -0.00
  36   1     0.00   0.00   0.00     0.01   0.01   0.01     0.00   0.00   0.00
  37   1    -0.00   0.00   0.00    -0.00   0.00   0.00    -0.00   0.00   0.00
  38   6    -0.00   0.00   0.00     0.00  -0.00  -0.00    -0.00   0.01   0.00
  39   8     0.00  -0.00  -0.00    -0.00   0.00   0.00     0.00  -0.00   0.00
  40   7    -0.00   0.00   0.00    -0.00   0.00   0.00    -0.02   0.01   0.00
  41   1     0.00   0.00   0.00    -0.00  -0.00  -0.00     0.01   0.01   0.00
  42   1     0.01  -0.00  -0.00     0.00  -0.00  -0.00     0.06  -0.03  -0.02
  43   7     0.00  -0.00  -0.00     0.00  -0.00  -0.00    -0.14   0.26   0.02
  44   1    -0.00   0.00  -0.00    -0.00   0.00  -0.00     0.55  -0.32   0.08
  45   1     0.00   0.00   0.00     0.00   0.00   0.00    -0.02  -0.69  -0.15
  46   6     0.00  -0.00   0.01     0.00   0.00  -0.00    -0.00  -0.00   0.00
  47   8     0.00   0.00  -0.00    -0.00   0.00  -0.00     0.00   0.00  -0.00
  48   7     0.02   0.01  -0.00    -0.00  -0.00   0.00    -0.00  -0.00   0.00
  49   1    -0.08  -0.02   0.00     0.00   0.00  -0.00     0.00  -0.00   0.00
  50   1    -0.00  -0.00   0.01     0.00   0.00  -0.00     0.00   0.00  -0.00
  51   7    -0.06  -0.13   0.22     0.00   0.00  -0.00     0.00  -0.00   0.00
  52   1     0.30   0.47  -0.78    -0.00  -0.00   0.00     0.00   0.00  -0.00
  53   1    -0.06   0.02  -0.04     0.00  -0.00   0.00    -0.00   0.00  -0.00
                    151                    152                    153
                        a                      a                      a 
 Frequencies --  3565.9585              3569.5599              3571.6410
 Red. masses --     2.1938                 2.1871                 2.1800
 Frc consts  --     0.0000                 0.0000                 0.0000
 IR Inten    --    14.6366                18.2726                16.1739
 Raman Activ --     0.0000                 0.0000                 0.0000
 Depolar     --     0.0000                 0.0000                 0.0000
 Atom AN      X      Y      Z        X      Y      Z        X      Y      Z
   1   8    -0.00  -0.00  -0.00    -0.00   0.00  -0.00     0.00   0.00   0.00
   2   6     0.00   0.00   0.00     0.00  -0.00   0.00     0.00  -0.00  -0.00
   3   1     0.00  -0.00   0.00    -0.00   0.00  -0.00    -0.00   0.00  -0.00
   4   1    -0.00  -0.00   0.00    -0.00  -0.00   0.00    -0.00   0.00   0.00
   5   6     0.00   0.00  -0.00     0.00  -0.00   0.00    -0.00  -0.00   0.00
   6   1    -0.00  -0.00   0.00     0.00   0.00  -0.00     0.00   0.00  -0.00
   7   1     0.00   0.00   0.00    -0.00  -0.00  -0.00    -0.00  -0.00  -0.00
   8   7     0.00  -0.00  -0.00    -0.00   0.00  -0.00    -0.00   0.00   0.00
   9   6     0.00   0.00  -0.00    -0.00  -0.00   0.00    -0.00  -0.00   0.00
  10   1    -0.00  -0.00   0.00     0.00   0.00  -0.00     0.00   0.00  -0.00
  11   1     0.00  -0.00  -0.00    -0.00   0.00   0.00    -0.00  -0.00   0.00
  12   1    -0.00   0.00  -0.00     0.00  -0.00   0.00     0.00  -0.00  -0.00
  13   6     0.00   0.00   0.00     0.00  -0.00   0.00     0.00   0.00   0.00
  14   1    -0.00  -0.00   0.00     0.00   0.00  -0.00     0.00   0.00   0.00
  15   1    -0.00   0.00   0.00    -0.00  -0.00  -0.00    -0.00  -0.00  -0.00
  16   1     0.00  -0.00  -0.00    -0.00   0.00   0.00    -0.00  -0.00   0.00
  17   6    -0.00   0.00   0.00     0.00  -0.00   0.00     0.00  -0.00   0.00
  18   1     0.00   0.00   0.00    -0.00   0.00  -0.00    -0.00  -0.00  -0.00
  19   1    -0.00   0.00  -0.00     0.00  -0.00   0.00     0.00  -0.00   0.00
  20   1     0.00  -0.00  -0.00    -0.00   0.00   0.00    -0.00  -0.00   0.00
  21   1     0.00  -0.00   0.00     0.00  -0.00   0.00    -0.00  -0.00  -0.00
  22   6    -0.00   0.00   0.00    -0.00   0.00   0.00     0.00  -0.00  -0.00
  23   8     0.00   0.00  -0.00    -0.00  -0.00  -0.00    -0.00  -0.00   0.00
  24   7     0.00  -0.00  -0.00     0.00   0.00   0.00     0.00  -0.01  -0.00
  25   1    -0.00   0.00   0.00     0.00  -0.00  -0.00    -0.01   0.01   0.01
  26   1     0.00   0.00   0.00    -0.00  -0.00  -0.00     0.00   0.01   0.00
  27   7     0.00   0.00  -0.00     0.00   0.00   0.00    -0.00  -0.00  -0.00
  28   1    -0.00  -0.00  -0.00    -0.00  -0.00  -0.00     0.01   0.01   0.00
  29   1    -0.00  -0.00   0.00     0.00   0.00  -0.00     0.00   0.00  -0.00
  30   6     0.01   0.00  -0.01     0.00   0.00   0.00    -0.00  -0.01  -0.01
  31   8    -0.00  -0.00   0.00     0.00   0.00  -0.00     0.00   0.00   0.00
  32   7     0.18   0.15   0.02     0.00   0.00   0.00    -0.14  -0.11  -0.02
  33   1    -0.51  -0.15   0.15    -0.00  -0.00   0.00     0.39   0.12  -0.12
  34   1    -0.20  -0.40  -0.24    -0.00  -0.00  -0.00     0.16   0.32   0.19
  35   7     0.01  -0.12  -0.14    -0.00   0.00   0.00     0.01  -0.15  -0.18
  36   1     0.19   0.27   0.21    -0.00  -0.00  -0.00     0.25   0.36   0.27
  37   1    -0.22   0.18   0.34     0.00  -0.00  -0.00    -0.28   0.22   0.42
  38   6     0.00   0.00   0.00    -0.00   0.00  -0.00    -0.00  -0.00  -0.00
  39   8     0.00  -0.00  -0.00     0.00  -0.00   0.00     0.00   0.00   0.00
  40   7    -0.00  -0.00  -0.00     0.00   0.00   0.00     0.00   0.00   0.00
  41   1     0.00   0.00   0.00    -0.01  -0.00  -0.00    -0.00  -0.00  -0.00
  42   1     0.00  -0.00  -0.00     0.01  -0.00  -0.00    -0.00   0.00   0.00
  43   7     0.00  -0.00  -0.00    -0.00   0.00   0.00     0.00   0.00   0.00
  44   1    -0.00   0.00  -0.00     0.00  -0.00   0.00    -0.00   0.00  -0.00
  45   1     0.00   0.00   0.00    -0.00  -0.00  -0.00    -0.00  -0.00  -0.00
  46   6     0.00   0.00   0.00     0.01   0.01  -0.00     0.00   0.00  -0.00
  47   8    -0.00  -0.00  -0.00    -0.00  -0.00   0.00    -0.00  -0.00   0.00
  48   7     0.00   0.00  -0.00     0.22   0.14  -0.14     0.00   0.00  -0.00
  49   1    -0.00  -0.00   0.00    -0.65  -0.18   0.02    -0.01  -0.00   0.00
  50   1    -0.00  -0.00   0.00    -0.19  -0.37   0.52    -0.00  -0.00   0.01
  51   7     0.00  -0.00  -0.00     0.00   0.01  -0.01    -0.00   0.00  -0.00
  52   1    -0.00  -0.00   0.00    -0.02  -0.03   0.05    -0.00  -0.00   0.00
  53   1    -0.00   0.00   0.00     0.01  -0.00   0.00     0.00  -0.00   0.00
