 Entering Gaussian System
 *********************************************
 Gaussian 98:
 frequency output generated by the xtb code
 *********************************************
                         Standard orientation:
 --------------------------------------------------------------------
  Center     Atomic     Atomic              Coordinates (Angstroms)
  Number     Number      Type              X           Y           Z
 --------------------------------------------------------------------
    1          8             0        1.299192   -1.118951    0.070715
    2          6             0        1.119027   -2.044726   -0.964405
    3          1             0        1.903395   -1.857675   -1.702767
    4          1             0        1.258198   -3.066027   -0.577233
    5          6             0       -0.276927   -2.012655   -1.597330
    6          1             0       -1.003762   -2.038195   -0.780480
    7          1             0       -0.396641   -2.906964   -2.212423
    8          7             0       -0.590832   -0.830038   -2.439639
    9          6             0       -0.466236    0.419396   -1.668239
   10          1             0       -1.014288    0.333222   -0.732822
   11          1             0       -0.862586    1.233550   -2.272097
   12          1             0        0.582593    0.620534   -1.465333
   13          6             0       -1.983914   -0.942771   -2.903610
   14          1             0       -2.658982   -0.962112   -2.050364
   15          1             0       -2.118622   -1.851507   -3.487499
   16          1             0       -2.214395   -0.078914   -3.526027
   17          6             0        0.287857   -0.758292   -3.618452
   18          1             0        0.277473   -1.702523   -4.157919
   19          1             0        1.301511   -0.504621   -3.318037
   20          1             0       -0.078726    0.042009   -4.261358
   21          1             0        0.439751   -1.054365    0.570056
   22          6             0        3.407972    1.315487   -1.704658
   23          8             0        2.482984    1.118323   -2.487199
   24          7             0        3.466111    0.717581   -0.499538
   25          1             0        2.712671    0.105083   -0.208404
   26          1             0        4.209651    0.906155    0.146574
   27          7             0        4.419640    2.172719   -1.999587
   28          1             0        5.241762    2.232728   -1.426883
   29          1             0        4.475209    2.535099   -2.934603
   30          6             0       -0.347181    2.819491   -4.624025
   31          8             0       -1.057944    1.867612   -4.322109
   32          7             0       -0.785682    3.791136   -5.464519
   33          1             0       -1.744986    3.761714   -5.759882
   34          1             0       -0.262786    4.630437   -5.633783
   35          7             0        0.910600    2.970716   -4.154677
   36          1             0        1.488201    3.723258   -4.481632
   37          1             0        1.350323    2.248237   -3.596094
   38          6             0       -1.217603   -1.079592    2.402968
   39          8             0       -1.119247   -1.014223    1.169357
   40          7             0       -0.144291   -1.170014    3.208940
   41          1             0        0.781370   -1.196273    2.821639
   42          1             0       -0.283113   -1.206181    4.207122
   43          7             0       -2.404352   -1.089197    3.032464
   44          1             0       -2.417548   -1.086721    4.043064
   45          1             0       -3.248205   -0.943240    2.509944
   46          6             0       -1.782702   -1.324107    6.961270
   47          8             0       -1.539032   -1.175543    5.771325
   48          7             0       -0.977915   -0.823851    7.929444
   49          1             0       -0.232550   -0.208820    7.654776
   50          1             0       -1.244545   -0.835387    8.897056
   51          7             0       -2.874784   -1.999363    7.395713
   52          1             0       -3.003905   -2.225908    8.365002
   53          1             0       -3.425622   -2.499642    6.720741
 --------------------------------------------------------------------
     1 basis functions        1 primitive gaussians
     1 alpha electrons        1 beta electrons

 Harmonic frequencies (cm**-1), IR intensities (km*mol⁻¹),
 Raman scattering activities (A**4/amu), Raman depolarization ratios,
 reduced masses (AMU), force constants (mDyne/A) and normal coordinates:
                      1                      2                      3
                        a                      a                      a 
 Frequencies --     6.1507                10.0166                12.6653
 Red. masses --    11.3711                12.1117                12.2182
 Frc consts  --     0.0000                 0.0000                 0.0000
 IR Inten    --     0.0562                 1.3636                 1.1355
 Raman Activ --     0.0000                 0.0000                 0.0000
 Depolar     --     0.0000                 0.0000                 0.0000
 Atom AN      X      Y      Z        X      Y      Z        X      Y      Z
   1   8     0.01  -0.09  -0.05     0.01  -0.18  -0.07     0.17  -0.02  -0.04
   2   6    -0.00  -0.05  -0.06     0.04  -0.11  -0.11     0.11  -0.00  -0.05
   3   1    -0.00  -0.01  -0.02     0.01  -0.02  -0.03     0.02   0.01  -0.02
   4   1    -0.00  -0.02  -0.03     0.02  -0.04  -0.05     0.04  -0.00  -0.02
   5   6    -0.01  -0.03  -0.05     0.05  -0.10  -0.12     0.08  -0.01   0.02
   6   1    -0.00  -0.01  -0.01     0.01  -0.05  -0.04     0.03  -0.01   0.02
   7   1    -0.00  -0.00  -0.02     0.02  -0.02  -0.05     0.02  -0.00   0.00
   8   7    -0.01  -0.00  -0.02     0.03  -0.07  -0.07     0.03  -0.00   0.06
   9   6     0.00  -0.02   0.01    -0.01  -0.10   0.00     0.07  -0.01   0.06
  10   1     0.00  -0.01   0.00    -0.01  -0.05  -0.00     0.04  -0.01   0.03
  11   1    -0.00  -0.00   0.01    -0.01  -0.02   0.01     0.01  -0.00   0.03
  12   1     0.00  -0.01   0.00    -0.01  -0.02   0.01     0.02  -0.00  -0.00
  13   6    -0.02   0.01  -0.01     0.04  -0.07  -0.09    -0.00  -0.01   0.13
  14   1    -0.00  -0.00  -0.00     0.01  -0.04  -0.03     0.01  -0.00   0.05
  15   1    -0.01   0.01  -0.01     0.02  -0.01  -0.04    -0.01  -0.00   0.04
  16   1    -0.01   0.01   0.00     0.01  -0.01  -0.01    -0.01  -0.00   0.04
  17   6    -0.02   0.03  -0.03     0.05   0.02  -0.05    -0.05   0.01  -0.00
  18   1    -0.01   0.01  -0.02     0.02   0.01  -0.03    -0.02   0.00  -0.00
  19   1    -0.01   0.00  -0.01     0.01   0.01  -0.00    -0.01   0.00  -0.02
  20   1    -0.01   0.01   0.00     0.01   0.01  -0.00    -0.02   0.01   0.01
  21   1     0.00  -0.03  -0.01     0.00  -0.05  -0.02     0.05  -0.01   0.00
  22   6     0.02  -0.06  -0.00    -0.03   0.01   0.10     0.08  -0.04  -0.17
  23   8     0.00  -0.02   0.01    -0.03   0.04   0.10     0.03  -0.02  -0.12
  24   7     0.03  -0.10  -0.02    -0.03  -0.08   0.07     0.15  -0.04  -0.18
  25   1     0.01  -0.03  -0.01    -0.00  -0.03   0.01     0.04  -0.01  -0.03
  26   1     0.01  -0.04  -0.01    -0.01  -0.03   0.02     0.05  -0.02  -0.06
  27   7     0.03  -0.07   0.00    -0.06   0.06   0.18     0.09  -0.07  -0.25
  28   1     0.01  -0.03  -0.00    -0.02   0.01   0.05     0.03  -0.02  -0.08
  29   1     0.01  -0.01   0.00    -0.02   0.03   0.06     0.01  -0.02  -0.07
  30   6    -0.01   0.06   0.09    -0.05   0.07   0.15    -0.12   0.03   0.11
  31   8    -0.02   0.06   0.07    -0.02   0.03   0.09    -0.11   0.02   0.13
  32   7    -0.01   0.10   0.13    -0.07   0.11   0.21    -0.19   0.06   0.18
  33   1    -0.00   0.03   0.04    -0.02   0.03   0.05    -0.06   0.02   0.06
  34   1    -0.00   0.03   0.04    -0.03   0.04   0.08    -0.05   0.02   0.05
  35   7    -0.01   0.05   0.09    -0.07   0.10   0.20    -0.10   0.02   0.04
  36   1    -0.00   0.01   0.03    -0.02   0.04   0.07    -0.03   0.01   0.01
  37   1    -0.00   0.01   0.02    -0.01   0.02   0.04    -0.02   0.00  -0.00
  38   6     0.02  -0.06  -0.02    -0.01  -0.14  -0.08     0.15  -0.02   0.04
  39   8     0.01  -0.12  -0.03    -0.00  -0.25  -0.10     0.20  -0.04   0.04
  40   7     0.02   0.03  -0.02    -0.01  -0.08  -0.08     0.14  -0.04   0.06
  41   1     0.01   0.02  -0.00    -0.00  -0.03  -0.02     0.04  -0.01   0.02
  42   1     0.01   0.02  -0.00    -0.00  -0.01  -0.02     0.03  -0.00   0.02
  43   7     0.02  -0.13  -0.02    -0.01  -0.12  -0.10     0.15  -0.01   0.01
  44   1     0.00  -0.02  -0.01    -0.00  -0.02  -0.03     0.03   0.00   0.00
  45   1     0.00  -0.05  -0.01    -0.00  -0.05  -0.03     0.04   0.00  -0.00
  46   6    -0.01   0.09  -0.01     0.04   0.19  -0.05    -0.19   0.04  -0.01
  47   8     0.02   0.10  -0.01    -0.00   0.05  -0.09    -0.00   0.07   0.03
  48   7    -0.32   0.58  -0.01     0.21   0.13  -0.16    -0.30  -0.08   0.13
  49   1    -0.15   0.24  -0.00     0.08  -0.01  -0.07    -0.05  -0.04   0.07
  50   1    -0.10   0.15  -0.01     0.07   0.07  -0.04    -0.12  -0.03   0.02
  51   7     0.27  -0.36  -0.03    -0.07   0.47   0.07    -0.35   0.15  -0.21
  52   1     0.08  -0.09  -0.00    -0.01   0.16   0.03    -0.14   0.03  -0.06
  53   1     0.15  -0.18  -0.01    -0.06   0.14   0.04    -0.08   0.06  -0.08
                      4                      5                      6
                        a                      a                      a 
 Frequencies --    20.6617                25.4419                30.6985
 Red. masses --    12.2115                12.3238                11.8101
 Frc consts  --     0.0000                 0.0000                 0.0000
 IR Inten    --     1.9012                 2.9516                 0.3629
 Raman Activ --     0.0000                 0.0000                 0.0000
 Depolar     --     0.0000                 0.0000                 0.0000
 Atom AN      X      Y      Z        X      Y      Z        X      Y      Z
   1   8     0.05   0.16   0.06     0.00   0.04   0.06     0.07  -0.04   0.00
   2   6     0.09   0.14   0.05     0.07   0.01   0.06     0.01  -0.06   0.03
   3   1     0.02   0.05   0.01     0.02   0.01   0.02     0.00  -0.03   0.01
   4   1     0.04   0.04   0.01     0.03   0.01   0.02    -0.01  -0.02   0.02
   5   6     0.09   0.06   0.05     0.08  -0.05   0.02     0.01  -0.01   0.04
   6   1     0.03   0.01   0.02     0.02  -0.02  -0.00     0.00   0.01   0.01
   7   1     0.04   0.01   0.02     0.04  -0.02   0.01    -0.01  -0.00   0.01
   8   7     0.04   0.04   0.05     0.07  -0.08  -0.00     0.05  -0.01   0.02
   9   6     0.04   0.06   0.01     0.00  -0.06  -0.02     0.05  -0.00   0.02
  10   1     0.02   0.02   0.01    -0.00  -0.02  -0.01     0.01   0.00   0.00
  11   1     0.00   0.01   0.00    -0.01  -0.02  -0.01     0.01  -0.00   0.00
  12   1     0.01   0.02  -0.01    -0.00  -0.01  -0.00     0.01  -0.00   0.01
  13   6     0.02   0.01   0.10     0.07  -0.13  -0.03     0.05   0.01  -0.00
  14   1     0.01   0.01   0.04     0.02  -0.04  -0.01     0.01   0.01  -0.00
  15   1     0.00  -0.00   0.04     0.03  -0.04  -0.00     0.01   0.00  -0.00
  16   1    -0.01  -0.00   0.02     0.02  -0.04  -0.01     0.02   0.00  -0.00
  17   6    -0.01   0.03   0.01     0.08  -0.06   0.01     0.07  -0.03   0.04
  18   1    -0.01   0.01   0.01     0.03  -0.02   0.01     0.02  -0.01   0.02
  19   1    -0.00   0.01  -0.01     0.02  -0.01   0.01     0.02  -0.00   0.01
  20   1    -0.01   0.01   0.00     0.02  -0.02  -0.00     0.02  -0.01   0.00
  21   1     0.01   0.03   0.02    -0.01   0.01   0.00     0.02   0.01  -0.00
  22   6     0.09  -0.03  -0.12     0.06  -0.07  -0.01     0.03   0.02  -0.01
  23   8     0.06  -0.02  -0.09     0.02  -0.02   0.04     0.01   0.08   0.01
  24   7     0.09   0.07  -0.08     0.08  -0.07  -0.00     0.11  -0.10  -0.08
  25   1     0.02   0.04  -0.00     0.01  -0.00   0.01     0.03  -0.02  -0.02
  26   1     0.04   0.01  -0.04     0.03  -0.03  -0.01     0.03  -0.02  -0.02
  27   7     0.16  -0.15  -0.25     0.12  -0.16  -0.07     0.00   0.08   0.03
  28   1     0.05  -0.04  -0.07     0.04  -0.06  -0.03     0.01   0.01  -0.00
  29   1     0.04  -0.06  -0.07     0.03  -0.05  -0.02    -0.01   0.04   0.01
  30   6    -0.02   0.02   0.00    -0.09  -0.01   0.12    -0.07  -0.03   0.02
  31   8    -0.02   0.03   0.02    -0.03  -0.12  -0.02    -0.02  -0.09  -0.01
  32   7    -0.03   0.04   0.03    -0.15   0.05   0.24    -0.13  -0.04   0.04
  33   1    -0.01   0.01   0.02    -0.03  -0.00   0.05    -0.03  -0.03   0.00
  34   1    -0.01   0.01   0.00    -0.06   0.03   0.09    -0.05  -0.00   0.01
  35   7     0.00  -0.00  -0.04    -0.13   0.04   0.21    -0.10   0.04   0.05
  36   1    -0.00  -0.00  -0.01    -0.05   0.04   0.09    -0.04   0.02   0.02
  37   1     0.00  -0.00  -0.02    -0.02   0.00   0.03    -0.01   0.01   0.01
  38   6    -0.09  -0.07  -0.00    -0.10   0.19  -0.06    -0.01   0.07  -0.03
  39   8    -0.00  -0.01   0.01    -0.07   0.07  -0.08     0.06   0.21  -0.02
  40   7    -0.15   0.06   0.08    -0.13   0.36  -0.02    -0.07  -0.52  -0.01
  41   1    -0.03   0.05   0.04    -0.03   0.09   0.00    -0.02  -0.22   0.00
  42   1    -0.06  -0.01   0.02    -0.05   0.11  -0.01    -0.03  -0.15  -0.01
  43   7    -0.15  -0.26  -0.10    -0.13   0.23  -0.11    -0.03   0.52  -0.07
  44   1    -0.07  -0.10  -0.03    -0.05   0.08  -0.03    -0.02   0.10  -0.02
  45   1    -0.03  -0.11  -0.05    -0.03   0.03  -0.04     0.01   0.25  -0.02
  46   6    -0.07  -0.05   0.04     0.03  -0.02  -0.08    -0.03  -0.03  -0.02
  47   8    -0.29  -0.34  -0.03    -0.16   0.29  -0.09    -0.10  -0.18  -0.05
  48   7     0.10   0.13  -0.20     0.15  -0.21  -0.08    -0.01   0.14  -0.12
  49   1     0.02   0.02  -0.12     0.01  -0.02  -0.01    -0.02   0.04  -0.06
  50   1     0.07   0.09  -0.04     0.07  -0.11  -0.01     0.01   0.06  -0.03
  51   7    -0.01   0.06   0.38     0.13  -0.19  -0.09     0.03  -0.05   0.12
  52   1     0.04   0.07   0.12     0.07  -0.11  -0.03     0.03   0.02   0.04
  53   1    -0.04  -0.02   0.15     0.01  -0.01  -0.03     0.01  -0.04   0.05
                      7                      8                      9
                        a                      a                      a 
 Frequencies --    32.9620                36.7602                42.2241
 Red. masses --    12.1318                12.5210                13.3873
 Frc consts  --     0.0000                 0.0000                 0.0000
 IR Inten    --     0.5298                 0.2465                 4.4859
 Raman Activ --     0.0000                 0.0000                 0.0000
 Depolar     --     0.0000                 0.0000                 0.0000
 Atom AN      X      Y      Z        X      Y      Z        X      Y      Z
   1   8     0.05  -0.01   0.03     0.15  -0.24  -0.11     0.03   0.01   0.06
   2   6     0.11   0.05  -0.04    -0.00  -0.17  -0.11     0.08   0.07  -0.01
   3   1     0.02   0.05  -0.01    -0.01  -0.06  -0.04     0.02   0.05  -0.00
   4   1     0.06   0.01  -0.03    -0.02  -0.06  -0.04     0.04   0.01  -0.02
   5   6     0.09  -0.04   0.00    -0.04  -0.05  -0.02     0.07   0.04  -0.01
   6   1     0.03  -0.03   0.01     0.00  -0.01   0.01     0.02  -0.01  -0.00
   7   1     0.04  -0.01  -0.00    -0.04  -0.01  -0.01     0.03   0.02  -0.01
   8   7    -0.02  -0.05   0.03    -0.02   0.00   0.05     0.02   0.07   0.06
   9   6     0.05  -0.04   0.00     0.09  -0.03   0.09     0.01   0.04   0.10
  10   1     0.04  -0.01   0.01     0.04  -0.01   0.03     0.01  -0.00   0.03
  11   1     0.00  -0.01   0.01     0.03   0.00   0.04    -0.00   0.02   0.04
  12   1     0.02  -0.01  -0.03     0.03  -0.03   0.01     0.00   0.01   0.03
  13   6    -0.06  -0.06   0.18    -0.05   0.10   0.12     0.01   0.06   0.10
  14   1     0.01  -0.01   0.07    -0.00   0.03   0.04     0.01   0.00   0.03
  15   1    -0.04  -0.02   0.06    -0.04   0.04   0.02     0.00   0.02   0.02
  16   1    -0.04  -0.02   0.05    -0.01   0.04   0.05    -0.01   0.02   0.04
  17   6    -0.14  -0.06  -0.07    -0.07   0.00   0.01    -0.02   0.13   0.03
  18   1    -0.07  -0.01  -0.03    -0.04   0.01  -0.01    -0.00   0.04   0.00
  19   1    -0.03  -0.03  -0.05    -0.01  -0.02  -0.01    -0.00   0.04   0.00
  20   1    -0.05  -0.01  -0.00    -0.02   0.01   0.02    -0.02   0.04   0.02
  21   1     0.01  -0.01  -0.00     0.05  -0.05  -0.01     0.01  -0.02   0.01
  22   6    -0.08   0.02  -0.02    -0.03   0.04  -0.01     0.05   0.01   0.02
  23   8     0.08  -0.31  -0.15     0.02  -0.01  -0.06    -0.01   0.13   0.08
  24   7    -0.30   0.42   0.18     0.11  -0.18  -0.13     0.09  -0.05  -0.01
  25   1    -0.05   0.07   0.04     0.04  -0.07  -0.05     0.01   0.00   0.01
  26   1    -0.09   0.14   0.05     0.00  -0.01  -0.02     0.04  -0.04  -0.01
  27   7    -0.11   0.02  -0.09    -0.21   0.32   0.15     0.11  -0.07  -0.00
  28   1    -0.06   0.08   0.02    -0.06   0.09   0.04     0.04  -0.04  -0.01
  29   1     0.01  -0.06  -0.05    -0.07   0.12   0.05     0.02   0.00   0.01
  30   6     0.07  -0.00   0.09     0.02  -0.01   0.00    -0.04   0.01  -0.05
  31   8    -0.00   0.08   0.14    -0.03   0.09   0.21    -0.11   0.13   0.17
  32   7     0.08   0.12   0.24     0.01  -0.06  -0.04    -0.02  -0.12  -0.22
  33   1     0.01   0.07   0.09    -0.01   0.00   0.02    -0.01  -0.02  -0.03
  34   1     0.05   0.01   0.05     0.02  -0.03  -0.05     0.01  -0.05  -0.10
  35   7     0.17  -0.21  -0.09     0.11  -0.09  -0.19    -0.00  -0.01  -0.18
  36   1     0.06  -0.06  -0.02     0.03  -0.05  -0.08     0.01  -0.03  -0.09
  37   1     0.04  -0.07  -0.04     0.02  -0.01  -0.03    -0.01   0.02  -0.01
  38   6    -0.01  -0.00  -0.05     0.06   0.10   0.00    -0.08  -0.18  -0.00
  39   8     0.01  -0.02  -0.05     0.19  -0.05   0.00    -0.03  -0.21   0.00
  40   7    -0.04  -0.15  -0.04    -0.01   0.34   0.12    -0.14  -0.36   0.04
  41   1    -0.01  -0.07  -0.01     0.01   0.06   0.06    -0.03  -0.06   0.03
  42   1    -0.01  -0.03  -0.01    -0.03   0.08   0.03    -0.05  -0.03   0.01
  43   7    -0.02   0.16  -0.06    -0.00   0.11  -0.12    -0.12  -0.13  -0.06
  44   1    -0.01   0.05  -0.02    -0.03   0.03  -0.03    -0.04   0.02  -0.02
  45   1     0.00   0.07  -0.02     0.01  -0.03  -0.06    -0.02   0.02  -0.02
  46   6     0.01   0.02  -0.06    -0.07  -0.04   0.00     0.01   0.12  -0.02
  47   8    -0.03   0.08  -0.07    -0.26  -0.01  -0.03    -0.16   0.51  -0.02
  48   7     0.03   0.01  -0.07     0.04  -0.06  -0.09     0.12  -0.11   0.01
  49   1    -0.00   0.01  -0.02    -0.01  -0.00  -0.05     0.01   0.01   0.02
  50   1     0.02  -0.01  -0.02     0.04  -0.02  -0.02     0.06  -0.10   0.01
  51   7     0.05  -0.03  -0.06     0.00  -0.09   0.13     0.12  -0.07  -0.07
  52   1     0.02  -0.02  -0.02     0.04  -0.03   0.04     0.06  -0.08  -0.03
  53   1     0.01  -0.00  -0.02    -0.02  -0.02   0.05     0.01   0.03  -0.04
                     10                     11                     12
                        a                      a                      a 
 Frequencies --    48.3337                49.1761                53.5082
 Red. masses --    12.8761                12.9910                12.8076
 Frc consts  --     0.0000                 0.0000                 0.0000
 IR Inten    --     0.7771                 1.7975                 1.3273
 Raman Activ --     0.0000                 0.0000                 0.0000
 Depolar     --     0.0000                 0.0000                 0.0000
 Atom AN      X      Y      Z        X      Y      Z        X      Y      Z
   1   8     0.07  -0.01  -0.04     0.06  -0.12   0.03     0.03  -0.19  -0.14
   2   6     0.04   0.01  -0.05     0.06  -0.01  -0.06    -0.04  -0.13  -0.13
   3   1     0.00   0.02  -0.02     0.01   0.03  -0.02    -0.01  -0.05  -0.04
   4   1     0.03   0.00  -0.02     0.03  -0.01  -0.04    -0.03  -0.04  -0.04
   5   6     0.01  -0.03   0.01     0.04   0.01  -0.02    -0.03  -0.02  -0.14
   6   1     0.02  -0.01   0.01     0.02  -0.01  -0.00    -0.01   0.00  -0.04
   7   1     0.00  -0.01   0.01     0.01   0.01  -0.02    -0.03  -0.00  -0.05
   8   7    -0.06  -0.04   0.02     0.00   0.06   0.07     0.05   0.02  -0.13
   9   6    -0.02  -0.03   0.01     0.03   0.02   0.12     0.05  -0.02  -0.06
  10   1     0.00  -0.01   0.01     0.02  -0.01   0.04     0.01  -0.02  -0.02
  11   1    -0.01  -0.01   0.00    -0.00   0.01   0.05     0.02   0.00  -0.01
  12   1    -0.00  -0.01  -0.01     0.01   0.01   0.02     0.01  -0.01  -0.01
  13   6    -0.08  -0.06   0.10    -0.02   0.08   0.13     0.07   0.07  -0.20
  14   1    -0.01  -0.01   0.04     0.01   0.01   0.05     0.01   0.01  -0.07
  15   1    -0.03  -0.02   0.04    -0.02   0.03   0.03     0.02   0.03  -0.07
  16   1    -0.04  -0.02   0.03    -0.02   0.03   0.05     0.04   0.03  -0.05
  17   6    -0.12  -0.04  -0.03    -0.05   0.11   0.03     0.11   0.03  -0.07
  18   1    -0.05  -0.01  -0.01    -0.02   0.04  -0.00     0.04   0.01  -0.02
  19   1    -0.03  -0.01  -0.03    -0.01   0.04  -0.00     0.03   0.01  -0.01
  20   1    -0.04  -0.01  -0.00    -0.03   0.03   0.02     0.04   0.01  -0.02
  21   1     0.02  -0.01  -0.00     0.01  -0.02  -0.01     0.02  -0.06  -0.01
  22   6    -0.05   0.00  -0.09     0.02  -0.04   0.14    -0.01   0.03  -0.02
  23   8    -0.06  -0.12  -0.08     0.01   0.06   0.16     0.04   0.10  -0.11
  24   7    -0.01   0.08  -0.06    -0.15   0.10   0.23    -0.30   0.26   0.10
  25   1     0.01   0.01  -0.01    -0.04   0.02   0.05    -0.07   0.04  -0.00
  26   1    -0.00   0.04  -0.02    -0.01  -0.03   0.04    -0.05  -0.00   0.01
  27   7    -0.13   0.07  -0.15     0.20  -0.28   0.09     0.19  -0.21  -0.04
  28   1    -0.03   0.04  -0.04     0.04  -0.08   0.04     0.02  -0.04   0.03
  29   1    -0.04   0.00  -0.05     0.07  -0.08   0.03     0.08  -0.07  -0.01
  30   6     0.08   0.04   0.06    -0.13  -0.04   0.01    -0.03   0.04  -0.06
  31   8     0.07   0.04  -0.04    -0.22   0.07   0.21     0.02  -0.01  -0.10
  32   7     0.35  -0.17  -0.34    -0.03  -0.23  -0.27    -0.09   0.03  -0.05
  33   1     0.10  -0.05  -0.11    -0.01  -0.05  -0.05    -0.02  -0.01  -0.02
  34   1     0.05   0.00   0.02    -0.00  -0.07  -0.09    -0.04   0.02  -0.01
  35   7    -0.13   0.30   0.59    -0.15  -0.01   0.03    -0.05   0.11  -0.04
  36   1     0.01   0.02   0.09    -0.02  -0.04  -0.05    -0.02   0.04  -0.01
  37   1    -0.03   0.05   0.12    -0.05   0.01   0.04    -0.00   0.03  -0.02
  38   6     0.03  -0.01   0.01     0.05   0.09  -0.08     0.07  -0.02   0.10
  39   8     0.08  -0.05   0.01     0.02   0.02  -0.10     0.15  -0.22   0.11
  40   7    -0.00  -0.03   0.05     0.08   0.20  -0.11     0.02   0.04   0.18
  41   1     0.00  -0.02   0.02     0.02   0.01  -0.04     0.01  -0.04   0.06
  42   1    -0.01   0.00   0.01     0.03   0.02  -0.03    -0.01   0.02   0.05
  43   7     0.01   0.03  -0.03     0.07   0.14  -0.06     0.04   0.19   0.05
  44   1    -0.01   0.02  -0.01     0.02   0.01  -0.02    -0.01   0.06   0.01
  45   1     0.01   0.01  -0.02     0.01   0.00  -0.01     0.02   0.02  -0.00
  46   6    -0.02   0.01   0.01     0.02  -0.06  -0.12    -0.07  -0.01   0.17
  47   8    -0.09   0.07   0.00     0.12  -0.25  -0.14    -0.19   0.07   0.19
  48   7     0.02  -0.03  -0.01    -0.03   0.06  -0.14    -0.01  -0.06   0.15
  49   1    -0.00   0.00  -0.01     0.00  -0.00  -0.05    -0.02  -0.00   0.03
  50   1     0.02  -0.02   0.00    -0.02   0.05  -0.04     0.01  -0.03   0.05
  51   7     0.01  -0.03   0.04    -0.03   0.04  -0.11    -0.02  -0.07   0.24
  52   1     0.02  -0.02   0.01    -0.03   0.04  -0.02     0.02  -0.03   0.06
  53   1    -0.01  -0.00   0.01     0.01  -0.02  -0.02    -0.02  -0.01   0.07
                     13                     14                     15
                        a                      a                      a 
 Frequencies --    61.7296                73.9379                77.6069
 Red. masses --    11.9704                12.8622                13.5922
 Frc consts  --     0.0000                 0.0000                 0.0000
 IR Inten    --     5.5752                 1.9831                 4.1401
 Raman Activ --     0.0000                 0.0000                 0.0000
 Depolar     --     0.0000                 0.0000                 0.0000
 Atom AN      X      Y      Z        X      Y      Z        X      Y      Z
   1   8     0.04  -0.15  -0.00     0.07   0.11  -0.10    -0.14   0.03   0.12
   2   6    -0.16  -0.18   0.08     0.07   0.17  -0.16     0.04   0.08   0.02
   3   1    -0.04  -0.12   0.01     0.01   0.09  -0.05     0.02   0.06   0.03
   4   1    -0.10  -0.05   0.05     0.05   0.04  -0.07     0.03   0.02  -0.01
   5   6    -0.17   0.05   0.11     0.04   0.13  -0.09     0.08   0.04  -0.08
   6   1    -0.05   0.06   0.04     0.02   0.04  -0.01     0.01  -0.01  -0.04
   7   1    -0.10   0.01   0.04     0.01   0.03  -0.02     0.04   0.02  -0.03
   8   7     0.02   0.08   0.08    -0.04   0.11  -0.10     0.11   0.06  -0.06
   9   6     0.20   0.08   0.03     0.04   0.11  -0.12     0.20   0.04  -0.05
  10   1     0.07   0.05   0.02     0.04   0.04  -0.02     0.07   0.01  -0.01
  11   1     0.08   0.03   0.01    -0.01   0.03  -0.03     0.06   0.02  -0.00
  12   1     0.07  -0.01  -0.01     0.02   0.03  -0.06     0.06  -0.00  -0.03
  13   6     0.01   0.27   0.07    -0.07   0.10   0.03     0.08   0.13   0.01
  14   1     0.00   0.12   0.02    -0.00   0.04   0.02     0.03   0.05   0.01
  15   1    -0.04   0.08   0.03    -0.04   0.02   0.02     0.00   0.04   0.01
  16   1     0.04   0.08   0.01    -0.03   0.02  -0.00     0.03   0.04   0.01
  17   6     0.05  -0.10   0.08    -0.13   0.06  -0.16     0.05   0.01  -0.09
  18   1    -0.01  -0.04   0.04    -0.05   0.01  -0.03    -0.00   0.00  -0.03
  19   1     0.02  -0.05   0.02    -0.03   0.02  -0.07     0.02  -0.01  -0.04
  20   1     0.04  -0.03   0.00    -0.05   0.01  -0.05     0.02   0.00  -0.03
  21   1     0.02   0.01   0.01     0.02   0.01  -0.01    -0.05  -0.03   0.01
  22   6     0.04   0.03  -0.03     0.07  -0.09   0.17     0.11  -0.05  -0.10
  23   8     0.19  -0.03  -0.19     0.10  -0.22   0.19     0.35  -0.21  -0.33
  24   7    -0.17   0.14   0.03     0.14  -0.10   0.17     0.01  -0.11  -0.12
  25   1    -0.03   0.00  -0.03     0.04  -0.03   0.05    -0.01  -0.02  -0.04
  26   1    -0.05   0.02   0.02     0.02   0.01   0.06    -0.07   0.05   0.03
  27   7     0.08   0.04   0.09    -0.03   0.03   0.18     0.01   0.17   0.16
  28   1    -0.01   0.03   0.06    -0.00   0.01   0.04    -0.02   0.05   0.08
  29   1     0.06   0.00   0.02    -0.01  -0.01   0.04     0.05   0.03   0.04
  30   6    -0.05  -0.07   0.02    -0.12  -0.11  -0.08    -0.09  -0.02   0.03
  31   8     0.04  -0.18  -0.08    -0.23  -0.13  -0.36    -0.12   0.01   0.10
  32   7    -0.12  -0.08   0.05     0.03   0.07   0.05    -0.06  -0.10  -0.08
  33   1    -0.03  -0.05   0.00     0.03   0.04  -0.04    -0.02  -0.02   0.00
  34   1    -0.06  -0.00   0.04     0.04   0.00   0.04    -0.03  -0.01   0.00
  35   7    -0.11   0.06   0.13    -0.17  -0.26   0.09    -0.12   0.04   0.10
  36   1    -0.04   0.02   0.03    -0.03  -0.05   0.09    -0.01  -0.03  -0.04
  37   1    -0.00   0.00  -0.00    -0.07  -0.09   0.02    -0.02  -0.01  -0.01
  38   6     0.02  -0.00  -0.02     0.09  -0.01   0.02    -0.16  -0.05  -0.01
  39   8     0.07   0.30   0.00     0.15   0.04   0.03    -0.27  -0.25  -0.03
  40   7    -0.00  -0.11   0.00     0.06  -0.05   0.06    -0.11   0.08  -0.07
  41   1     0.01   0.07   0.01     0.02   0.00   0.03    -0.04  -0.04  -0.04
  42   1    -0.01  -0.03  -0.00     0.01  -0.01   0.01    -0.01   0.02  -0.02
  43   7    -0.01  -0.35  -0.08     0.07  -0.04  -0.03    -0.12   0.12   0.09
  44   1    -0.01  -0.09  -0.02     0.01  -0.01  -0.01    -0.01   0.04   0.02
  45   1     0.01  -0.04  -0.02     0.03  -0.00  -0.02    -0.05  -0.01   0.04
  46   6     0.01   0.05  -0.09    -0.04   0.01   0.05     0.05  -0.02   0.08
  47   8    -0.05   0.14  -0.11    -0.13   0.08   0.04     0.17  -0.08   0.11
  48   7     0.05  -0.01  -0.10     0.01  -0.02   0.02    -0.04   0.01   0.14
  49   1     0.01   0.01  -0.03    -0.01   0.00   0.00     0.00  -0.01   0.05
  50   1     0.02  -0.02  -0.02     0.02  -0.02   0.01    -0.03   0.01   0.03
  51   7     0.04   0.01  -0.10    -0.00  -0.03   0.09    -0.01   0.03   0.02
  52   1     0.02  -0.01  -0.03     0.02  -0.02   0.02    -0.02   0.01   0.00
  53   1     0.00   0.02  -0.03    -0.01   0.00   0.03     0.02  -0.00  -0.00
                     16                     17                     18
                        a                      a                      a 
 Frequencies --    88.5974               100.1990               108.7983
 Red. masses --    12.5784                12.4161                12.4066
 Frc consts  --     0.0000                 0.0000                 0.0000
 IR Inten    --     5.2757                 5.6752                 8.9654
 Raman Activ --     0.0000                 0.0000                 0.0000
 Depolar     --     0.0000                 0.0000                 0.0000
 Atom AN      X      Y      Z        X      Y      Z        X      Y      Z
   1   8    -0.04   0.13  -0.16    -0.01   0.01  -0.08    -0.07   0.14  -0.20
   2   6    -0.09  -0.01  -0.02    -0.15  -0.06   0.01    -0.08   0.01  -0.07
   3   1    -0.02  -0.05  -0.01    -0.04  -0.06  -0.00    -0.04  -0.01  -0.04
   4   1    -0.05   0.01   0.03    -0.08  -0.01   0.03    -0.01   0.01   0.01
   5   6    -0.06   0.01  -0.07    -0.16   0.07   0.04    -0.12  -0.09   0.01
   6   1    -0.03   0.02  -0.03    -0.04   0.03   0.01    -0.02  -0.02   0.02
   7   1    -0.02  -0.00  -0.01    -0.07   0.03   0.01    -0.03  -0.03   0.02
   8   7     0.00  -0.00  -0.12    -0.05   0.12   0.06    -0.22  -0.14  -0.01
   9   6    -0.17  -0.02  -0.05    -0.05   0.07   0.12    -0.16  -0.09  -0.07
  10   1    -0.09  -0.02  -0.04    -0.03   0.01   0.02    -0.03  -0.01  -0.01
  11   1    -0.04  -0.01  -0.02     0.00   0.03   0.04    -0.05  -0.03  -0.03
  12   1    -0.06   0.00   0.03    -0.02   0.01   0.06    -0.04  -0.02  -0.04
  13   6     0.08  -0.07  -0.34    -0.01   0.21  -0.07    -0.23  -0.18   0.10
  14   1    -0.02  -0.06  -0.13    -0.02   0.06  -0.04    -0.05  -0.05   0.04
  15   1     0.07  -0.00  -0.13    -0.00   0.07  -0.04    -0.07  -0.06   0.04
  16   1     0.03  -0.00  -0.08     0.03   0.07  -0.02    -0.09  -0.06   0.02
  17   6     0.17   0.06   0.02     0.07   0.09   0.14    -0.26  -0.13  -0.05
  18   1     0.10   0.01   0.01     0.04   0.02   0.05    -0.08  -0.04  -0.01
  19   1     0.03   0.06   0.04     0.01   0.03   0.06    -0.07  -0.03  -0.03
  20   1     0.05  -0.00  -0.02     0.03   0.02   0.02    -0.08  -0.04  -0.01
  21   1    -0.00   0.05  -0.03     0.02  -0.02   0.01    -0.00   0.02  -0.03
  22   6     0.06  -0.01  -0.03     0.07   0.12  -0.03     0.24   0.15   0.03
  23   8     0.11  -0.13  -0.05    -0.02   0.06   0.10     0.34   0.26  -0.06
  24   7     0.06   0.08   0.01     0.20   0.23   0.01     0.13   0.11   0.01
  25   1     0.02   0.01  -0.00     0.07   0.04   0.01     0.02   0.04  -0.02
  26   1     0.01   0.04   0.01     0.08   0.05  -0.03     0.02   0.01   0.02
  27   7     0.01   0.05  -0.06     0.03   0.11  -0.24     0.36   0.12   0.18
  28   1    -0.00   0.04  -0.01     0.02   0.06  -0.09     0.08  -0.00   0.07
  29   1     0.00  -0.00  -0.02    -0.03   0.02  -0.07     0.13   0.04   0.05
  30   6    -0.05  -0.06   0.19     0.03  -0.16   0.05     0.04  -0.02   0.03
  31   8    -0.25   0.14   0.44    -0.02  -0.19  -0.08     0.09  -0.05   0.06
  32   7     0.12  -0.17  -0.01     0.10  -0.07   0.14    -0.03  -0.06   0.03
  33   1     0.01   0.01   0.04     0.04  -0.02  -0.00    -0.01  -0.03   0.02
  34   1     0.06  -0.06  -0.02     0.05  -0.03   0.04    -0.02  -0.01   0.00
  35   7    -0.01  -0.21   0.11     0.01  -0.26   0.12     0.04   0.04   0.00
  36   1     0.03  -0.11  -0.03     0.00  -0.05   0.08    -0.00   0.02  -0.01
  37   1    -0.02  -0.06   0.04    -0.01  -0.07   0.04     0.03   0.02  -0.00
  38   6     0.04   0.07  -0.00    -0.04  -0.11   0.02     0.00  -0.01  -0.01
  39   8     0.05   0.29   0.01    -0.03  -0.44   0.01    -0.02  -0.05  -0.02
  40   7     0.03  -0.06  -0.00    -0.06   0.08   0.05     0.01  -0.00  -0.03
  41   1     0.01   0.04   0.00    -0.02  -0.07   0.01     0.00  -0.00  -0.01
  42   1     0.01  -0.02  -0.00    -0.02   0.03   0.01     0.01   0.00  -0.01
  43   7     0.03  -0.11  -0.01    -0.05   0.16   0.01     0.01   0.03   0.00
  44   1     0.01  -0.03  -0.00    -0.02   0.05   0.00     0.01   0.01   0.00
  45   1     0.01   0.01   0.00    -0.02  -0.02  -0.01     0.00  -0.00   0.00
  46   6    -0.02   0.01   0.04     0.03  -0.01  -0.08    -0.01  -0.00   0.01
  47   8    -0.07   0.05   0.04     0.09  -0.06  -0.09    -0.02   0.00   0.01
  48   7     0.01  -0.01   0.03     0.00   0.02  -0.08    -0.00  -0.00   0.01
  49   1    -0.00   0.00   0.01     0.01  -0.00  -0.02    -0.00   0.00   0.00
  50   1     0.01  -0.01   0.01    -0.00   0.01  -0.02     0.00  -0.00   0.00
  51   7    -0.00  -0.01   0.06     0.01   0.02  -0.11    -0.00  -0.01   0.02
  52   1     0.01  -0.01   0.02    -0.01   0.01  -0.03     0.00  -0.00   0.01
  53   1    -0.01   0.00   0.02     0.01  -0.00  -0.03    -0.00  -0.00   0.01
                     19                     20                     21
                        a                      a                      a 
 Frequencies --   113.0375               126.6614               131.1454
 Red. masses --    12.6771                12.6008                11.9612
 Frc consts  --     0.0000                 0.0000                 0.0000
 IR Inten    --    23.7795                 6.9287                 2.7343
 Raman Activ --     0.0000                 0.0000                 0.0000
 Depolar     --     0.0000                 0.0000                 0.0000
 Atom AN      X      Y      Z        X      Y      Z        X      Y      Z
   1   8    -0.06   0.18   0.09    -0.14   0.14   0.05    -0.04   0.19  -0.08
   2   6    -0.04   0.10   0.13    -0.04   0.11   0.04    -0.02   0.11  -0.02
   3   1    -0.01   0.02   0.04    -0.00   0.04   0.02    -0.01   0.02  -0.01
   4   1    -0.01   0.04   0.05    -0.01   0.03   0.02    -0.01   0.04   0.01
   5   6    -0.03   0.06   0.11    -0.01   0.06  -0.03    -0.02   0.07  -0.04
   6   1    -0.01   0.02   0.03    -0.01   0.01  -0.02    -0.01   0.05  -0.01
   7   1    -0.00   0.01   0.04     0.01   0.02  -0.01    -0.01  -0.00   0.02
   8   7    -0.05   0.02   0.06     0.02   0.06  -0.05     0.03  -0.01  -0.17
   9   6    -0.20   0.05   0.04     0.13   0.06  -0.07     0.20   0.04  -0.27
  10   1    -0.08   0.01  -0.00     0.05   0.03  -0.02     0.08   0.04  -0.06
  11   1    -0.05   0.00  -0.00     0.04   0.02  -0.02     0.06   0.01  -0.08
  12   1    -0.07   0.03   0.05     0.04   0.01  -0.04     0.07  -0.01  -0.12
  13   6     0.01  -0.10  -0.08    -0.01   0.15   0.03    -0.01   0.09  -0.06
  14   1    -0.02  -0.05  -0.04     0.01   0.07   0.02     0.01   0.07  -0.00
  15   1     0.05  -0.03  -0.03    -0.03   0.04   0.03    -0.04   0.01   0.01
  16   1    -0.00  -0.03  -0.03     0.01   0.04  -0.00     0.01   0.02  -0.03
  17   6     0.06   0.07   0.14    -0.02  -0.07  -0.08    -0.04  -0.23  -0.23
  18   1     0.06   0.01   0.05    -0.04  -0.02  -0.01    -0.06  -0.08  -0.04
  19   1     0.00   0.06   0.06     0.01  -0.05  -0.04     0.00  -0.10  -0.09
  20   1     0.01  -0.00   0.02     0.01  -0.01  -0.02     0.01  -0.07  -0.08
  21   1    -0.01   0.02   0.04    -0.05   0.03  -0.01     0.01   0.02   0.01
  22   6    -0.01  -0.10  -0.04    -0.07   0.02  -0.00    -0.07  -0.01   0.06
  23   8     0.15  -0.15  -0.23    -0.14   0.10   0.04    -0.15   0.05   0.13
  24   7    -0.16  -0.15  -0.05    -0.04  -0.05  -0.04    -0.01  -0.05   0.04
  25   1    -0.06  -0.02  -0.03    -0.02   0.01   0.00    -0.01   0.01   0.02
  26   1    -0.09  -0.00   0.03    -0.01  -0.02  -0.01     0.00  -0.01   0.00
  27   7    -0.02  -0.02   0.18    -0.05  -0.03  -0.03    -0.05  -0.06   0.00
  28   1    -0.02  -0.02   0.08    -0.00  -0.02  -0.02    -0.00  -0.03  -0.02
  29   1     0.05  -0.02   0.05    -0.02   0.00  -0.01    -0.03  -0.01   0.00
  30   6    -0.02   0.05  -0.04     0.06  -0.10   0.10     0.03  -0.02   0.10
  31   8    -0.02   0.05  -0.06     0.15  -0.15   0.19     0.09  -0.02   0.27
  32   7    -0.02   0.06  -0.04    -0.05  -0.18   0.09    -0.08  -0.15   0.03
  33   1    -0.01   0.02  -0.00    -0.01  -0.08   0.03    -0.03  -0.06   0.04
  34   1    -0.01   0.02   0.01    -0.03  -0.04  -0.00    -0.04  -0.03  -0.03
  35   7    -0.03   0.07  -0.02     0.08  -0.01   0.04     0.06   0.07  -0.00
  36   1     0.00   0.00  -0.03     0.00   0.01   0.01     0.00   0.02  -0.02
  37   1    -0.00   0.00  -0.03     0.03   0.01   0.02     0.02   0.04   0.02
  38   6     0.14  -0.06   0.15     0.11  -0.04  -0.09    -0.01  -0.02   0.18
  39   8     0.14  -0.23   0.16    -0.15  -0.11  -0.13     0.15  -0.06   0.21
  40   7     0.16   0.01   0.16     0.31  -0.01  -0.33    -0.13   0.00   0.33
  41   1     0.04  -0.04   0.04     0.06  -0.01  -0.14    -0.02  -0.01   0.12
  42   1     0.04   0.01   0.04     0.13   0.01  -0.08    -0.07   0.00   0.09
  43   7     0.15   0.10   0.15     0.27   0.05   0.15    -0.11   0.02   0.03
  44   1     0.03   0.02   0.04     0.12  -0.00   0.04    -0.06   0.01   0.01
  45   1     0.04  -0.02   0.02     0.04  -0.03   0.08    -0.01   0.01  -0.02
  46   6    -0.05   0.00  -0.19    -0.12   0.01   0.02     0.06  -0.01  -0.10
  47   8    -0.16   0.01  -0.24    -0.32   0.10   0.00     0.13  -0.07  -0.11
  48   7     0.04   0.02  -0.30     0.01  -0.04  -0.07     0.01   0.04  -0.10
  49   1     0.00   0.00  -0.10    -0.02   0.01  -0.04     0.02  -0.00  -0.02
  50   1     0.05  -0.00  -0.07     0.04  -0.02  -0.01    -0.00   0.01  -0.03
  51   7     0.01  -0.03  -0.12    -0.03  -0.07   0.16     0.02   0.03  -0.16
  52   1     0.01   0.01  -0.03     0.03  -0.03   0.05    -0.02   0.02  -0.04
  53   1    -0.02   0.00  -0.02    -0.04  -0.00   0.06     0.02   0.00  -0.05
                     22                     23                     24
                        a                      a                      a 
 Frequencies --   136.1605               143.3058               161.1406
 Red. masses --    12.2898                12.4890                11.9813
 Frc consts  --     0.0000                 0.0000                 0.0000
 IR Inten    --     6.1820                31.1304                10.2116
 Raman Activ --     0.0000                 0.0000                 0.0000
 Depolar     --     0.0000                 0.0000                 0.0000
 Atom AN      X      Y      Z        X      Y      Z        X      Y      Z
   1   8    -0.04  -0.02   0.00    -0.08  -0.07   0.13     0.15   0.27  -0.09
   2   6    -0.12  -0.13   0.12    -0.03  -0.11   0.15    -0.06   0.01   0.16
   3   1    -0.02  -0.09   0.04     0.01  -0.05   0.06    -0.02  -0.09   0.02
   4   1    -0.07  -0.03   0.07    -0.03  -0.03   0.06    -0.06   0.02   0.12
   5   6    -0.10  -0.06   0.07     0.02  -0.08   0.03    -0.09   0.09   0.23
   6   1    -0.04   0.01   0.02    -0.01  -0.01  -0.00    -0.02   0.08   0.08
   7   1    -0.04  -0.03   0.04     0.01  -0.03   0.02    -0.06   0.00   0.11
   8   7     0.01  -0.10  -0.01     0.09  -0.11  -0.03    -0.00  -0.00   0.07
   9   6     0.10  -0.06  -0.08     0.20  -0.06  -0.11     0.01   0.11  -0.12
  10   1     0.02   0.01  -0.03     0.08   0.01  -0.02    -0.02   0.08  -0.04
  11   1     0.05  -0.02  -0.04     0.05  -0.02  -0.04     0.02   0.01  -0.08
  12   1     0.03  -0.04  -0.02     0.06  -0.02  -0.06     0.00   0.03  -0.02
  13   6     0.01  -0.00  -0.03     0.05  -0.04   0.06     0.01  -0.01   0.02
  14   1    -0.00   0.02  -0.01     0.03   0.03   0.03    -0.01   0.02  -0.00
  15   1    -0.01  -0.00   0.00    -0.02  -0.02   0.04     0.00  -0.02   0.03
  16   1     0.02  -0.00  -0.02     0.02  -0.02   0.00     0.02  -0.02  -0.02
  17   6     0.03  -0.20   0.00     0.01  -0.18  -0.08     0.06  -0.19   0.10
  18   1    -0.01  -0.06   0.01    -0.04  -0.05  -0.03     0.03  -0.08   0.08
  19   1     0.01  -0.08   0.01     0.02  -0.09  -0.04     0.01  -0.03   0.03
  20   1     0.03  -0.05  -0.01     0.02  -0.04  -0.01     0.03  -0.09  -0.02
  21   1    -0.00   0.01   0.00    -0.03  -0.01   0.02     0.05   0.08   0.00
  22   6     0.11  -0.05   0.10    -0.01   0.13  -0.05    -0.07  -0.05   0.02
  23   8     0.09  -0.34   0.24    -0.07   0.36  -0.04    -0.06   0.02  -0.03
  24   7     0.31   0.17   0.22    -0.06  -0.00  -0.12    -0.14  -0.09  -0.01
  25   1     0.11   0.03   0.08    -0.03   0.02  -0.04    -0.04  -0.03  -0.02
  26   1     0.08   0.11   0.04     0.00  -0.05  -0.03    -0.04  -0.04   0.00
  27   7    -0.04   0.07  -0.14     0.11   0.01   0.00    -0.03  -0.08   0.10
  28   1     0.01   0.07  -0.07     0.03  -0.03   0.01    -0.01  -0.04   0.04
  29   1    -0.05  -0.04  -0.06     0.02   0.05   0.02     0.01  -0.01   0.03
  30   6    -0.10   0.19  -0.09    -0.08   0.04  -0.01    -0.03   0.04   0.01
  31   8    -0.07   0.23   0.00    -0.37   0.23  -0.10    -0.09   0.10   0.04
  32   7    -0.13   0.13  -0.18     0.29   0.20  -0.03     0.04   0.06  -0.02
  33   1    -0.04   0.04  -0.02     0.08   0.14  -0.02     0.01   0.04   0.01
  34   1    -0.05   0.05  -0.04     0.14   0.02   0.04     0.02   0.01   0.01
  35   7    -0.08   0.24  -0.14    -0.08  -0.27   0.08    -0.02  -0.01   0.00
  36   1    -0.01   0.04  -0.07     0.02  -0.09   0.04     0.01  -0.02  -0.02
  37   1    -0.03   0.06  -0.04    -0.06  -0.08   0.04    -0.01  -0.01  -0.00
  38   6     0.02  -0.03  -0.00     0.00  -0.00   0.07     0.07  -0.08  -0.23
  39   8    -0.08  -0.09  -0.01    -0.07  -0.00   0.08     0.21  -0.24  -0.26
  40   7     0.08   0.01  -0.08     0.05  -0.00   0.02    -0.03   0.02  -0.11
  41   1     0.01  -0.02  -0.04     0.01   0.01  -0.01     0.00  -0.04   0.00
  42   1     0.04   0.00  -0.02     0.03   0.00   0.01    -0.04   0.01  -0.03
  43   7     0.07   0.03   0.09     0.04   0.01   0.14    -0.00   0.05  -0.38
  44   1     0.03   0.01   0.02     0.02  -0.00   0.04    -0.03   0.03  -0.10
  45   1     0.01  -0.01   0.04     0.00  -0.01   0.05     0.01  -0.01  -0.13
  46   6    -0.03   0.00  -0.02    -0.02  -0.00  -0.04     0.03   0.00   0.10
  47   8    -0.09   0.02  -0.03    -0.06   0.01  -0.06     0.09  -0.00   0.13
  48   7     0.01  -0.01  -0.06     0.01   0.00  -0.08    -0.02  -0.02   0.18
  49   1    -0.00   0.00  -0.02     0.00   0.00  -0.03    -0.01   0.00   0.07
  50   1     0.01  -0.00  -0.01     0.02  -0.00  -0.02    -0.04   0.00   0.04
  51   7    -0.01  -0.02   0.02     0.00  -0.01  -0.02    -0.00   0.02   0.07
  52   1     0.01  -0.01   0.01     0.00   0.00  -0.00    -0.00  -0.01   0.02
  53   1    -0.01  -0.00   0.01    -0.01   0.00  -0.00     0.02  -0.01   0.01
                     25                     26                     27
                        a                      a                      a 
 Frequencies --   197.9566               214.3297               237.6396
 Red. masses --    10.7193                 2.1984                 4.9482
 Frc consts  --     0.0000                 0.0000                 0.0000
 IR Inten    --    12.1180               133.9081                 1.8370
 Raman Activ --     0.0000                 0.0000                 0.0000
 Depolar     --     0.0000                 0.0000                 0.0000
 Atom AN      X      Y      Z        X      Y      Z        X      Y      Z
   1   8    -0.22   0.45  -0.39    -0.01  -0.01   0.03    -0.10  -0.04   0.20
   2   6    -0.05  -0.10   0.09    -0.01  -0.01   0.03    -0.07   0.01   0.14
   3   1     0.03  -0.15   0.04     0.00  -0.01   0.01     0.00  -0.01   0.06
   4   1    -0.07   0.02   0.17    -0.01  -0.00   0.01    -0.05  -0.00   0.04
   5   6     0.07  -0.24  -0.19     0.00  -0.01   0.00     0.00  -0.01  -0.06
   6   1    -0.02  -0.16  -0.10    -0.00  -0.00  -0.00    -0.03  -0.04  -0.05
   7   1     0.10  -0.03  -0.12     0.01  -0.00   0.00     0.05   0.01  -0.04
   8   7     0.09  -0.07   0.06     0.00  -0.01  -0.00    -0.03   0.01  -0.05
   9   6     0.14  -0.17   0.24     0.00  -0.00  -0.02    -0.03  -0.03   0.01
  10   1     0.11  -0.11   0.10    -0.01   0.01  -0.01     0.03  -0.04   0.02
  11   1    -0.03  -0.04   0.14     0.01  -0.00  -0.02    -0.05  -0.01   0.04
  12   1     0.05  -0.02  -0.00    -0.00  -0.01   0.00    -0.00   0.01  -0.04
  13   6     0.05   0.10   0.13     0.00  -0.02  -0.00    -0.02  -0.00  -0.05
  14   1     0.03   0.06   0.05     0.00  -0.01  -0.00    -0.01   0.03  -0.02
  15   1    -0.03   0.03   0.05     0.00  -0.00  -0.00    -0.01  -0.02   0.01
  16   1     0.04   0.03   0.03    -0.00  -0.00   0.00     0.01  -0.02  -0.04
  17   6     0.03   0.13   0.04    -0.01   0.00  -0.01    -0.06   0.07  -0.06
  18   1    -0.08   0.10  -0.09    -0.02   0.01  -0.02    -0.10   0.06  -0.09
  19   1     0.03  -0.08   0.02     0.00  -0.02  -0.00     0.01  -0.08  -0.01
  20   1     0.06   0.13   0.10     0.01   0.02   0.01     0.03   0.10   0.05
  21   1    -0.04   0.08  -0.05    -0.00   0.00   0.00    -0.04   0.02   0.03
  22   6    -0.04  -0.03   0.02     0.01  -0.01  -0.02     0.01   0.02   0.00
  23   8    -0.03  -0.05   0.01     0.03  -0.04  -0.04     0.01   0.01   0.01
  24   7    -0.04  -0.04   0.01    -0.01   0.00  -0.01     0.05  -0.01  -0.02
  25   1    -0.03   0.01   0.00    -0.01   0.01  -0.00    -0.02   0.05   0.03
  26   1    -0.03   0.02   0.02    -0.02   0.02   0.01    -0.05   0.10   0.04
  27   7    -0.04  -0.03   0.03    -0.01   0.03   0.00     0.01   0.05  -0.01
  28   1    -0.00  -0.03  -0.00     0.01  -0.02  -0.01     0.04  -0.07  -0.05
  29   1     0.00  -0.03  -0.00     0.02  -0.03  -0.01     0.03  -0.06  -0.03
  30   6    -0.01   0.00  -0.03     0.01   0.02  -0.02     0.00  -0.01   0.01
  31   8    -0.00  -0.01  -0.07    -0.02   0.05   0.03     0.01  -0.02   0.00
  32   7     0.01   0.02  -0.02    -0.09   0.10   0.24     0.00  -0.03  -0.02
  33   1     0.00   0.01  -0.01     0.13  -0.20  -0.40    -0.01   0.00   0.03
  34   1     0.00   0.01   0.00     0.27  -0.31  -0.64    -0.02   0.02   0.04
  35   7    -0.01  -0.00  -0.01    -0.01   0.00   0.00     0.00  -0.01   0.00
  36   1    -0.00   0.01   0.01    -0.07   0.16   0.24     0.00  -0.00  -0.00
  37   1    -0.01  -0.00  -0.00    -0.04   0.07   0.11     0.00  -0.00  -0.00
  38   6     0.02   0.01   0.01     0.01  -0.00  -0.00     0.08  -0.03  -0.03
  39   8     0.05   0.03   0.01     0.02  -0.00  -0.00     0.12   0.01  -0.03
  40   7    -0.01  -0.04   0.04     0.00   0.01   0.00     0.05   0.28   0.03
  41   1     0.00   0.05   0.02     0.00  -0.02   0.00    -0.01  -0.55  -0.00
  42   1    -0.01   0.02   0.01    -0.00  -0.01   0.00    -0.02  -0.21  -0.01
  43   7     0.00   0.02  -0.04     0.00  -0.01  -0.02    -0.00  -0.26  -0.14
  44   1    -0.01  -0.01  -0.01    -0.00   0.01  -0.00     0.01   0.15  -0.03
  45   1     0.00  -0.03  -0.02     0.00   0.02  -0.01     0.07   0.46  -0.01
  46   6     0.00  -0.00   0.00     0.00   0.00   0.00    -0.00   0.01   0.01
  47   8     0.01  -0.01   0.00     0.00   0.00   0.00    -0.01   0.02   0.01
  48   7    -0.00   0.00   0.01     0.00  -0.00   0.00     0.01  -0.01   0.02
  49   1     0.00  -0.00   0.00    -0.00   0.00   0.00    -0.01   0.01   0.00
  50   1    -0.00  -0.00   0.00    -0.00   0.00  -0.00    -0.01   0.02   0.00
  51   7     0.00   0.00  -0.00    -0.00   0.00   0.00     0.00  -0.00   0.01
  52   1    -0.00   0.00  -0.00     0.00  -0.00   0.00     0.00  -0.01   0.00
  53   1     0.00   0.00  -0.00     0.00  -0.00   0.00     0.00   0.00  -0.00
                     28                     29                     30
                        a                      a                      a 
 Frequencies --   240.8109               257.5801               267.0463
 Red. masses --     8.8471                 3.5083                 4.9448
 Frc consts  --     0.0000                 0.0000                 0.0000
 IR Inten    --    15.4332                19.6968                 6.2603
 Raman Activ --     0.0000                 0.0000                 0.0000
 Depolar     --     0.0000                 0.0000                 0.0000
 Atom AN      X      Y      Z        X      Y      Z        X      Y      Z
   1   8    -0.17  -0.14   0.42     0.01  -0.01   0.01    -0.24   0.03   0.12
   2   6    -0.11   0.03   0.24    -0.00  -0.01   0.01    -0.01   0.16  -0.05
   3   1     0.00   0.01   0.11     0.00  -0.01   0.00    -0.03   0.15  -0.02
   4   1    -0.07  -0.01   0.04    -0.01  -0.00   0.00     0.09   0.04  -0.07
   5   6    -0.00   0.02  -0.08     0.00   0.01   0.00    -0.04  -0.11  -0.03
   6   1    -0.05  -0.04  -0.07    -0.00   0.00  -0.00    -0.01  -0.06  -0.01
   7   1     0.08   0.01  -0.05     0.00   0.00   0.00     0.02  -0.03  -0.02
   8   7    -0.06   0.02  -0.09    -0.00   0.01  -0.00    -0.04  -0.10   0.02
   9   6    -0.07  -0.03  -0.01    -0.01   0.01  -0.01     0.11  -0.19   0.14
  10   1     0.04  -0.05   0.03     0.01  -0.00   0.00    -0.12  -0.00  -0.05
  11   1    -0.08  -0.00   0.04    -0.02  -0.00   0.00     0.23   0.00  -0.01
  12   1    -0.01   0.01  -0.05    -0.00   0.01  -0.01     0.02  -0.19   0.21
  13   6    -0.05  -0.00  -0.12    -0.00  -0.01  -0.01    -0.04   0.18  -0.03
  14   1    -0.03   0.07  -0.04    -0.00   0.01  -0.00    -0.01  -0.18  -0.01
  15   1    -0.02  -0.04   0.02    -0.00  -0.01   0.01     0.01   0.20  -0.24
  16   1     0.01  -0.03  -0.09     0.00  -0.01  -0.01    -0.04   0.20   0.21
  17   6    -0.11   0.10  -0.12    -0.00   0.01  -0.01    -0.01  -0.14   0.02
  18   1    -0.16   0.09  -0.14    -0.02   0.01  -0.01     0.17  -0.12   0.14
  19   1     0.01  -0.13  -0.03     0.00  -0.02  -0.00    -0.05   0.17  -0.01
  20   1     0.05   0.15   0.07     0.01   0.02   0.01    -0.11  -0.19  -0.11
  21   1    -0.06  -0.04   0.08     0.00   0.00   0.00    -0.08  -0.03   0.02
  22   6     0.04   0.02  -0.01     0.00   0.00   0.00    -0.01   0.03  -0.00
  23   8     0.04  -0.00   0.01     0.00  -0.00   0.00    -0.02   0.04   0.01
  24   7     0.07   0.03  -0.00     0.00  -0.00  -0.00     0.04  -0.03  -0.03
  25   1     0.01   0.03   0.02    -0.00   0.00   0.00    -0.03   0.06   0.04
  26   1    -0.00   0.04   0.01    -0.01   0.01   0.01    -0.09   0.15   0.06
  27   7     0.01   0.07  -0.03    -0.00   0.01   0.00    -0.01   0.08   0.01
  28   1     0.03  -0.03  -0.04     0.01  -0.01  -0.01     0.08  -0.18  -0.10
  29   1     0.02  -0.03  -0.03     0.00  -0.01  -0.00     0.06  -0.12  -0.05
  30   6     0.01  -0.01   0.01     0.00  -0.00   0.00    -0.01   0.01  -0.02
  31   8     0.02  -0.02   0.01     0.00  -0.00   0.00    -0.01   0.00  -0.03
  32   7    -0.01  -0.04  -0.01    -0.00  -0.00  -0.00     0.02   0.04  -0.01
  33   1    -0.01  -0.01   0.02    -0.00  -0.00   0.00     0.00   0.02  -0.00
  34   1    -0.02   0.01   0.03    -0.00  -0.00  -0.00     0.01   0.01   0.02
  35   7     0.01  -0.01   0.00     0.00  -0.00  -0.00    -0.01  -0.00  -0.01
  36   1    -0.00  -0.00   0.00    -0.00   0.00   0.00    -0.00   0.01   0.01
  37   1     0.00  -0.00  -0.00     0.00   0.00   0.00    -0.01   0.00   0.00
  38   6     0.13   0.01  -0.05     0.00  -0.00  -0.02     0.08   0.01  -0.02
  39   8     0.22  -0.02  -0.06     0.01  -0.00  -0.03     0.12   0.03  -0.02
  40   7     0.02  -0.16   0.06    -0.01   0.00  -0.01     0.02  -0.01   0.04
  41   1     0.03   0.31   0.06    -0.00  -0.00   0.01     0.01   0.02   0.03
  42   1    -0.02   0.12   0.02    -0.02  -0.00  -0.00    -0.01   0.00   0.01
  43   7     0.06   0.15  -0.24     0.01   0.00  -0.01     0.03   0.00  -0.14
  44   1    -0.05  -0.08  -0.07     0.01  -0.00  -0.00    -0.02  -0.00  -0.04
  45   1     0.01  -0.27  -0.13    -0.00  -0.00   0.00     0.02  -0.01  -0.06
  46   6     0.02  -0.00   0.01    -0.00  -0.00   0.03     0.01   0.00   0.01
  47   8     0.03  -0.01   0.02     0.00  -0.00   0.02     0.01  -0.00   0.01
  48   7    -0.01  -0.01   0.04    -0.19   0.24  -0.02    -0.01   0.01   0.02
  49   1    -0.00   0.00   0.02     0.22  -0.26   0.03     0.01  -0.01   0.01
  50   1    -0.02   0.01   0.01     0.31  -0.43   0.08     0.01  -0.02   0.01
  51   7    -0.01   0.02   0.01     0.20  -0.23  -0.01     0.01  -0.00   0.00
  52   1     0.02  -0.01  -0.00    -0.33   0.40   0.05    -0.01   0.02   0.00
  53   1     0.02  -0.02   0.00    -0.23   0.26  -0.00    -0.01   0.01   0.00
                     31                     32                     33
                        a                      a                      a 
 Frequencies --   271.7236               292.1166               309.5978
 Red. masses --     3.2134                 6.2518                 5.0138
 Frc consts  --     0.0000                 0.0000                 0.0000
 IR Inten    --    31.7914                 0.6800                 1.4376
 Raman Activ --     0.0000                 0.0000                 0.0000
 Depolar     --     0.0000                 0.0000                 0.0000
 Atom AN      X      Y      Z        X      Y      Z        X      Y      Z
   1   8    -0.15   0.06   0.12     0.02   0.02   0.04    -0.33  -0.09  -0.01
   2   6    -0.05   0.07   0.09     0.09   0.27  -0.21    -0.04  -0.05  -0.06
   3   1    -0.01   0.03   0.03    -0.04   0.22  -0.09     0.00   0.03   0.01
   4   1    -0.01   0.02   0.02     0.18   0.06  -0.16     0.01  -0.02  -0.04
   5   6     0.00  -0.04  -0.05    -0.07  -0.07   0.08     0.04  -0.08  -0.16
   6   1    -0.02  -0.04  -0.04     0.01  -0.02   0.05    -0.01  -0.08  -0.07
   7   1     0.04  -0.01  -0.03    -0.01  -0.04   0.05     0.05   0.01  -0.10
   8   7    -0.02  -0.03  -0.03    -0.09  -0.12   0.06     0.05   0.03   0.00
   9   6     0.04  -0.07   0.03    -0.04  -0.21   0.21    -0.08   0.11  -0.11
  10   1    -0.04  -0.01  -0.02     0.09  -0.14   0.11    -0.07   0.07  -0.06
  11   1     0.08   0.00  -0.00    -0.11  -0.05   0.15     0.01   0.00  -0.10
  12   1     0.01  -0.07   0.07    -0.00  -0.01  -0.04    -0.04   0.04   0.03
  13   6    -0.03   0.03  -0.00    -0.02   0.21  -0.22    -0.03  -0.02   0.24
  14   1     0.00  -0.09   0.00    -0.07   0.33  -0.11     0.03   0.34   0.11
  15   1     0.01   0.06  -0.09    -0.09  -0.04   0.11    -0.13  -0.18   0.38
  16   1    -0.03   0.06   0.08     0.16  -0.02  -0.25     0.04  -0.18  -0.19
  17   6    -0.04   0.02  -0.05     0.07  -0.27   0.16     0.17   0.03   0.09
  18   1     0.04  -0.01   0.01    -0.07  -0.06   0.01     0.27  -0.08   0.17
  19   1    -0.03   0.07  -0.02     0.04  -0.19   0.07    -0.02   0.25   0.05
  20   1    -0.06  -0.03  -0.04     0.13  -0.01   0.07    -0.06  -0.16  -0.12
  21   1    -0.05   0.02   0.02     0.01  -0.03   0.01    -0.10  -0.05  -0.02
  22   6     0.03  -0.01  -0.00     0.00   0.01  -0.01     0.02   0.01   0.01
  23   8     0.03  -0.02  -0.02     0.01   0.01  -0.02     0.01  -0.00   0.02
  24   7    -0.02   0.09   0.05    -0.00  -0.00  -0.01     0.03  -0.00   0.00
  25   1     0.08  -0.11  -0.05     0.00   0.00   0.00    -0.00   0.01   0.00
  26   1     0.23  -0.34  -0.16     0.02  -0.03  -0.02    -0.01   0.02   0.02
  27   7     0.06  -0.20  -0.10     0.03  -0.03   0.00    -0.00   0.01  -0.05
  28   1    -0.22   0.50   0.25    -0.03   0.07   0.05    -0.00   0.03  -0.02
  29   1    -0.16   0.34   0.13    -0.01   0.05   0.02    -0.02   0.00  -0.02
  30   6     0.01  -0.01  -0.02    -0.02   0.02  -0.01     0.00  -0.00   0.01
  31   8     0.01  -0.01  -0.03    -0.03   0.04  -0.00    -0.00   0.01   0.02
  32   7    -0.02   0.02   0.03     0.02   0.05  -0.02     0.00   0.00   0.01
  33   1     0.00  -0.01  -0.02     0.01   0.02  -0.02     0.00   0.00   0.00
  34   1     0.01  -0.02  -0.04     0.03  -0.01  -0.03     0.01  -0.01  -0.01
  35   7    -0.00   0.03   0.02    -0.02   0.01  -0.01     0.01   0.01  -0.00
  36   1     0.01  -0.03  -0.05    -0.00  -0.00  -0.00     0.00  -0.00  -0.01
  37   1     0.01  -0.01  -0.02    -0.01   0.00  -0.00     0.00   0.00  -0.00
  38   6     0.05  -0.00  -0.01     0.00   0.01  -0.01     0.06   0.00   0.00
  39   8     0.07  -0.00  -0.01     0.00   0.02  -0.01     0.07   0.02   0.00
  40   7     0.02   0.03   0.03     0.00   0.01  -0.02     0.02  -0.00   0.06
  41   1     0.01  -0.06   0.01     0.00  -0.01  -0.01     0.01  -0.01   0.03
  42   1    -0.01  -0.02   0.01     0.00  -0.01  -0.00    -0.01  -0.00   0.01
  43   7     0.01  -0.03  -0.09    -0.00  -0.01  -0.01     0.02  -0.01  -0.09
  44   1    -0.01   0.03  -0.02    -0.00   0.00  -0.00    -0.02   0.01  -0.03
  45   1     0.02   0.07  -0.03     0.00   0.01  -0.00     0.02   0.01  -0.05
  46   6     0.00  -0.00   0.00     0.00   0.00   0.00     0.00   0.00   0.00
  47   8     0.00  -0.00   0.00     0.00   0.00   0.00     0.00  -0.00   0.00
  48   7    -0.01   0.01   0.01    -0.00  -0.00   0.00    -0.00   0.00   0.01
  49   1     0.01  -0.01   0.00    -0.00   0.00   0.00     0.00  -0.00   0.01
  50   1     0.01  -0.02   0.00    -0.00  -0.00   0.00    -0.00  -0.00   0.00
  51   7     0.01  -0.01   0.00     0.00   0.00   0.00     0.00   0.00   0.00
  52   1    -0.01   0.02   0.00     0.00   0.00   0.00    -0.00   0.00   0.00
  53   1    -0.01   0.01  -0.00    -0.00  -0.00   0.00     0.00   0.00  -0.00
                     34                     35                     36
                        a                      a                      a 
 Frequencies --   341.2382               355.8998               356.5741
 Red. masses --     1.9481                 5.5754                 3.8406
 Frc consts  --     0.0000                 0.0000                 0.0000
 IR Inten    --     1.1699                19.6931               438.5080
 Raman Activ --     0.0000                 0.0000                 0.0000
 Depolar     --     0.0000                 0.0000                 0.0000
 Atom AN      X      Y      Z        X      Y      Z        X      Y      Z
   1   8    -0.11  -0.03   0.01    -0.28  -0.08  -0.09    -0.06  -0.02  -0.02
   2   6    -0.10   0.01  -0.02     0.01   0.02  -0.18     0.00   0.00  -0.04
   3   1    -0.04   0.02  -0.01    -0.02   0.10  -0.05    -0.00   0.02  -0.01
   4   1    -0.01  -0.00  -0.02     0.09  -0.00  -0.11     0.02  -0.00  -0.03
   5   6    -0.09   0.04   0.02    -0.05  -0.03   0.04    -0.01  -0.01   0.01
   6   1    -0.03   0.02   0.00     0.02   0.00   0.04     0.01   0.00   0.01
   7   1    -0.04   0.01   0.01    -0.06   0.00   0.00    -0.01   0.00   0.00
   8   7     0.02   0.05   0.01     0.02   0.02   0.12     0.00   0.00   0.03
   9   6     0.09   0.04   0.06     0.05   0.18  -0.12     0.01   0.04  -0.03
  10   1     0.42  -0.16   0.23    -0.02   0.13  -0.05    -0.02   0.04  -0.02
  11   1    -0.39  -0.04   0.23     0.05   0.02  -0.11     0.03   0.01  -0.03
  12   1     0.07   0.23  -0.41     0.01   0.04  -0.02     0.00   0.00   0.01
  13   6     0.04  -0.10  -0.01     0.06  -0.12   0.08     0.01  -0.03   0.02
  14   1     0.02  -0.17  -0.00     0.02  -0.16   0.02     0.00  -0.03   0.01
  15   1     0.08   0.02  -0.10     0.08   0.01  -0.06     0.02   0.00  -0.01
  16   1    -0.06   0.01   0.08    -0.04   0.00   0.10    -0.01   0.00   0.02
  17   6     0.03  -0.03  -0.00     0.09  -0.03   0.19     0.02  -0.01   0.04
  18   1     0.17  -0.09   0.13    -0.15   0.07  -0.07    -0.04   0.02  -0.02
  19   1    -0.03   0.19  -0.03     0.07  -0.23   0.08     0.02  -0.06   0.02
  20   1    -0.11  -0.15  -0.11     0.17   0.14   0.16     0.04   0.04   0.04
  21   1    -0.02  -0.03   0.02    -0.08  -0.06  -0.03    -0.02  -0.01  -0.01
  22   6     0.02   0.02   0.02    -0.03   0.07   0.03    -0.02   0.03   0.01
  23   8     0.01   0.01   0.03    -0.02   0.04   0.03    -0.01   0.02   0.01
  24   7     0.01  -0.04  -0.01     0.09  -0.08  -0.03     0.03  -0.03  -0.01
  25   1    -0.03   0.03  -0.00    -0.03   0.06   0.03    -0.01   0.02   0.01
  26   1    -0.06   0.06   0.05    -0.16   0.25   0.12    -0.06   0.10   0.05
  27   7     0.00  -0.01  -0.05     0.05  -0.11  -0.08     0.02  -0.05  -0.02
  28   1    -0.01   0.04  -0.01    -0.06   0.13   0.06    -0.02   0.05   0.03
  29   1    -0.03   0.01  -0.01    -0.04   0.08   0.02    -0.01   0.03   0.01
  30   6     0.00  -0.02  -0.01     0.01  -0.03  -0.04     0.01  -0.01  -0.02
  31   8     0.01  -0.01  -0.00    -0.01  -0.01  -0.02    -0.00  -0.01  -0.01
  32   7     0.01   0.03   0.03    -0.03   0.03   0.08    -0.01   0.01   0.03
  33   1     0.01   0.01  -0.02     0.01  -0.01  -0.02     0.00  -0.00  -0.01
  34   1     0.03  -0.02  -0.03     0.04  -0.04  -0.07     0.02  -0.02  -0.03
  35   7     0.00   0.05   0.01    -0.03   0.06   0.10    -0.01   0.03   0.04
  36   1     0.02  -0.04  -0.07     0.10  -0.19  -0.26     0.04  -0.08  -0.11
  37   1     0.01   0.00  -0.02     0.01  -0.04  -0.06     0.00  -0.02  -0.02
  38   6     0.02  -0.00  -0.00     0.04   0.01   0.01     0.01  -0.02  -0.00
  39   8     0.02  -0.00  -0.01     0.03   0.00   0.00     0.00   0.03   0.00
  40   7     0.02  -0.00  -0.00     0.02  -0.01   0.03    -0.00   0.02   0.02
  41   1     0.00  -0.00  -0.00     0.01   0.02   0.01    -0.00  -0.05   0.01
  42   1     0.00  -0.00  -0.00    -0.00   0.02   0.01    -0.01  -0.05   0.00
  43   7     0.01   0.00  -0.04     0.01  -0.01  -0.07     0.01   0.04  -0.01
  44   1    -0.01  -0.00  -0.01    -0.02   0.02  -0.02    -0.01  -0.06  -0.00
  45   1     0.01  -0.01  -0.02     0.02   0.02  -0.04    -0.01  -0.10  -0.02
  46   6     0.00   0.00   0.00     0.02  -0.03   0.00    -0.06   0.09  -0.00
  47   8     0.00   0.00   0.00     0.02  -0.01   0.00    -0.05   0.04  -0.01
  48   7    -0.00  -0.00   0.01    -0.05   0.07  -0.02     0.17  -0.22   0.08
  49   1    -0.00   0.00   0.00     0.05  -0.05   0.01    -0.15   0.16  -0.03
  50   1    -0.01   0.00   0.00     0.09  -0.14   0.02    -0.30   0.45  -0.06
  51   7     0.00  -0.00   0.00    -0.06   0.07   0.02     0.21  -0.22  -0.05
  52   1    -0.00   0.01   0.00     0.10  -0.13  -0.01    -0.32   0.43   0.04
  53   1    -0.00   0.00   0.00     0.05  -0.06  -0.00    -0.17   0.18   0.00
                     37                     38                     39
                        a                      a                      a 
 Frequencies --   359.7476               383.1593               384.0134
 Red. masses --     5.6190                 3.2415                 7.2914
 Frc consts  --     0.0000                 0.0000                 0.0000
 IR Inten    --    37.6768               495.4292                 0.4053
 Raman Activ --     0.0000                 0.0000                 0.0000
 Depolar     --     0.0000                 0.0000                 0.0000
 Atom AN      X      Y      Z        X      Y      Z        X      Y      Z
   1   8    -0.30  -0.05  -0.05    -0.05   0.01   0.01     0.03  -0.04   0.02
   2   6    -0.04   0.06  -0.16    -0.00   0.02  -0.01     0.16  -0.09   0.07
   3   1    -0.05   0.11  -0.06    -0.01   0.02  -0.01     0.11  -0.07   0.07
   4   1     0.08   0.01  -0.10     0.01   0.01  -0.01    -0.02  -0.03   0.05
   5   6    -0.08  -0.02   0.05     0.00  -0.01  -0.01     0.23  -0.06  -0.20
   6   1     0.00   0.01   0.04    -0.00  -0.01  -0.01     0.04  -0.15  -0.08
   7   1    -0.06   0.00   0.01     0.01   0.00  -0.01     0.15   0.03  -0.14
   8   7     0.04   0.02   0.10     0.01   0.00   0.01    -0.03   0.06   0.01
   9   6     0.09   0.12  -0.07     0.00   0.02  -0.00    -0.39   0.19  -0.11
  10   1     0.07   0.07   0.01     0.01   0.00   0.00    -0.07  -0.00  -0.01
  11   1    -0.01   0.00  -0.04    -0.01   0.00   0.00    -0.23  -0.01  -0.04
  12   1     0.03   0.06  -0.08    -0.00   0.02  -0.00    -0.13   0.19  -0.07
  13   6     0.07  -0.14   0.07     0.02  -0.01   0.00    -0.08   0.28   0.09
  14   1     0.02  -0.15   0.02     0.00  -0.01  -0.00     0.01  -0.05   0.04
  15   1     0.08  -0.01  -0.04     0.01  -0.00  -0.00    -0.06   0.18  -0.13
  16   1    -0.04  -0.02   0.08     0.00  -0.00   0.00    -0.03   0.18   0.17
  17   6     0.09  -0.01   0.15     0.01  -0.02   0.01     0.08  -0.34   0.08
  18   1    -0.07   0.04  -0.03    -0.01  -0.00  -0.00    -0.05  -0.12   0.07
  19   1     0.05  -0.12   0.05     0.01  -0.03   0.01     0.04  -0.19   0.05
  20   1     0.11   0.08   0.10     0.01   0.00   0.01     0.12  -0.10  -0.03
  21   1    -0.09  -0.04  -0.02    -0.02   0.00  -0.00    -0.01  -0.01  -0.02
  22   6     0.07  -0.06  -0.03     0.05  -0.07  -0.03     0.01  -0.00  -0.01
  23   8     0.05  -0.05  -0.01     0.01  -0.03   0.01     0.01  -0.01   0.00
  24   7    -0.09   0.09   0.04    -0.10   0.14   0.06     0.00   0.01  -0.00
  25   1     0.02  -0.05  -0.03     0.04  -0.06  -0.02    -0.00   0.00  -0.01
  26   1     0.19  -0.31  -0.14     0.27  -0.40  -0.20     0.02  -0.03  -0.01
  27   7    -0.06   0.14   0.02    -0.08   0.20   0.09     0.01   0.01   0.01
  28   1     0.05  -0.08  -0.08     0.15  -0.30  -0.18    -0.00   0.01   0.01
  29   1     0.01  -0.08  -0.04     0.02  -0.10  -0.04     0.01  -0.00   0.00
  30   6    -0.03   0.05   0.07     0.02  -0.06  -0.07    -0.01   0.01   0.01
  31   8    -0.01   0.03   0.04    -0.01  -0.03  -0.04     0.00   0.01   0.01
  32   7     0.04  -0.06  -0.13    -0.04   0.06   0.13     0.01   0.01  -0.02
  33   1    -0.02   0.01   0.04     0.02  -0.00  -0.04    -0.00   0.01   0.00
  34   1    -0.07   0.07   0.11     0.07  -0.07  -0.11    -0.00   0.01   0.01
  35   7     0.03  -0.11  -0.13    -0.04   0.12   0.14    -0.00  -0.00  -0.02
  36   1    -0.14   0.27   0.39     0.17  -0.32  -0.46    -0.02   0.03   0.04
  37   1    -0.01   0.05   0.08     0.00  -0.03  -0.06    -0.00   0.00   0.00
  38   6     0.04   0.00   0.01     0.01   0.02   0.00    -0.00   0.01   0.00
  39   8     0.02  -0.00   0.00     0.00  -0.02   0.00    -0.00   0.00   0.00
  40   7     0.02   0.00   0.03     0.00  -0.01   0.00    -0.01  -0.00   0.02
  41   1     0.01  -0.00   0.01     0.00   0.05   0.00    -0.00   0.01   0.01
  42   1    -0.00  -0.00   0.01     0.00   0.03   0.00    -0.00   0.00   0.00
  43   7     0.01  -0.01  -0.07    -0.01  -0.03  -0.00     0.00  -0.01   0.02
  44   1    -0.02   0.01  -0.02     0.00   0.04  -0.00     0.01   0.01   0.00
  45   1     0.02   0.04  -0.04     0.01   0.10   0.01    -0.00   0.02   0.01
  46   6    -0.00   0.01   0.00    -0.00  -0.01   0.00    -0.00  -0.00   0.00
  47   8    -0.00  -0.00  -0.00     0.00  -0.01   0.00    -0.00  -0.00   0.00
  48   7     0.01  -0.02   0.01     0.00  -0.00  -0.00     0.00  -0.00  -0.00
  49   1    -0.01   0.01   0.00    -0.00   0.00  -0.00    -0.00   0.00  -0.00
  50   1    -0.03   0.04  -0.00    -0.00   0.01  -0.00    -0.00   0.01  -0.00
  51   7     0.02  -0.02  -0.00     0.00  -0.01   0.00     0.00  -0.00  -0.00
  52   1    -0.03   0.04   0.01    -0.01   0.01   0.00    -0.00   0.00  -0.00
  53   1    -0.01   0.02   0.00    -0.00   0.00   0.00    -0.00   0.00  -0.00
                     40                     41                     42
                        a                      a                      a 
 Frequencies --   436.3307               444.4801               446.2922
 Red. masses --     2.4036                 8.5474                 2.0297
 Frc consts  --     0.0000                 0.0000                 0.0000
 IR Inten    --   588.5788                10.9491                 4.7815
 Raman Activ --     0.0000                 0.0000                 0.0000
 Depolar     --     0.0000                 0.0000                 0.0000
 Atom AN      X      Y      Z        X      Y      Z        X      Y      Z
   1   8     0.02  -0.01   0.01    -0.22  -0.03  -0.11    -0.04  -0.00  -0.02
   2   6    -0.01   0.02  -0.01     0.02  -0.10  -0.03     0.00  -0.02  -0.01
   3   1    -0.01   0.01  -0.01     0.02  -0.03   0.01     0.00  -0.00   0.00
   4   1     0.01   0.00  -0.01    -0.02  -0.03   0.00    -0.00  -0.00  -0.00
   5   6    -0.01  -0.02  -0.02     0.07   0.13   0.02     0.01   0.02   0.00
   6   1    -0.01  -0.01  -0.01     0.03   0.06   0.02     0.00   0.01   0.00
   7   1     0.01  -0.01  -0.01    -0.05   0.05  -0.00    -0.01   0.01  -0.00
   8   7    -0.01  -0.02  -0.01     0.19   0.22   0.13     0.03   0.04   0.03
   9   6     0.00  -0.02  -0.03    -0.11   0.15   0.34    -0.01   0.03   0.06
  10   1     0.01   0.00  -0.00    -0.12  -0.03   0.04    -0.02  -0.00   0.01
  11   1    -0.00  -0.01  -0.01     0.00   0.06   0.10     0.00   0.01   0.02
  12   1     0.00  -0.00  -0.01    -0.05   0.04   0.20    -0.01   0.01   0.03
  13   6    -0.03  -0.00   0.02     0.31  -0.10  -0.07     0.05  -0.02  -0.02
  14   1     0.00  -0.01   0.01     0.03  -0.00  -0.07     0.00  -0.00  -0.01
  15   1    -0.02   0.01  -0.01     0.18  -0.08   0.04     0.03  -0.02   0.01
  16   1    -0.01   0.01   0.02     0.08  -0.09  -0.10     0.01  -0.02  -0.02
  17   6     0.04   0.00   0.02    -0.24  -0.24  -0.23    -0.05  -0.04  -0.03
  18   1     0.02   0.01  -0.01    -0.19  -0.13   0.05    -0.03  -0.02   0.01
  19   1     0.01  -0.00   0.02    -0.02  -0.09  -0.22    -0.00  -0.02  -0.04
  20   1     0.02   0.01   0.01    -0.11  -0.13  -0.11    -0.02  -0.02  -0.02
  21   1    -0.01   0.07  -0.02    -0.06  -0.03  -0.03    -0.01  -0.01  -0.01
  22   6     0.01  -0.01  -0.00    -0.02   0.01  -0.03    -0.00   0.00  -0.00
  23   8     0.01  -0.00  -0.00    -0.03  -0.01  -0.00    -0.01  -0.00  -0.00
  24   7    -0.02   0.02   0.01     0.04   0.04  -0.01     0.01   0.01  -0.00
  25   1    -0.00   0.01   0.01     0.02   0.00   0.01     0.00   0.00   0.00
  26   1     0.06  -0.09  -0.04     0.02   0.02  -0.01     0.00   0.01  -0.00
  27   7    -0.01   0.03   0.01     0.02  -0.01   0.04     0.00  -0.00   0.01
  28   1     0.02  -0.03  -0.02    -0.01  -0.01   0.03    -0.00  -0.00   0.01
  29   1     0.00  -0.02  -0.01     0.03   0.01   0.02     0.01   0.00   0.00
  30   6    -0.00  -0.00  -0.00    -0.01   0.00  -0.01    -0.00   0.00  -0.00
  31   8    -0.00  -0.00  -0.00     0.01  -0.01   0.01     0.00  -0.00   0.00
  32   7    -0.00   0.01   0.01     0.01   0.02  -0.01     0.00   0.00  -0.00
  33   1     0.00   0.00  -0.00    -0.00   0.03   0.01    -0.00   0.01   0.00
  34   1     0.01  -0.01  -0.01     0.02  -0.01  -0.01     0.00  -0.00  -0.00
  35   7    -0.00   0.01   0.01    -0.01   0.01  -0.01    -0.00   0.00  -0.00
  36   1     0.01  -0.03  -0.04    -0.00   0.01   0.01    -0.00   0.00   0.00
  37   1    -0.00   0.00   0.00    -0.01  -0.00  -0.00    -0.00  -0.00  -0.00
  38   6    -0.01  -0.10  -0.01     0.03  -0.01   0.02     0.01   0.00  -0.02
  39   8    -0.01   0.17  -0.01    -0.02   0.02   0.02     0.00   0.00  -0.02
  40   7    -0.02   0.12   0.04     0.03   0.01   0.01    -0.02  -0.00   0.01
  41   1    -0.03  -0.54   0.00     0.00  -0.06  -0.00     0.00   0.01   0.02
  42   1    -0.04  -0.25  -0.00     0.01  -0.03   0.00    -0.02  -0.00   0.00
  43   7     0.05   0.17   0.02    -0.00   0.02  -0.05     0.02  -0.00  -0.00
  44   1    -0.03  -0.23   0.00    -0.03  -0.02  -0.02     0.02   0.00   0.00
  45   1    -0.07  -0.65  -0.05     0.01  -0.06  -0.05     0.00   0.00   0.01
  46   6     0.02   0.05   0.01     0.01   0.01  -0.03    -0.01  -0.01   0.08
  47   8    -0.02   0.02  -0.00     0.00   0.00  -0.03    -0.01  -0.02   0.09
  48   7    -0.01   0.03   0.03    -0.02  -0.03   0.02    -0.02   0.15  -0.01
  49   1    -0.01   0.02   0.03    -0.05   0.06   0.04     0.30  -0.38  -0.12
  50   1     0.05  -0.11   0.02     0.00  -0.09   0.01    -0.09   0.40  -0.03
  51   7    -0.00   0.04  -0.04     0.01   0.03   0.02     0.02  -0.13  -0.04
  52   1     0.06  -0.12  -0.03    -0.00   0.06   0.02     0.14  -0.42  -0.09
  53   1     0.00   0.04  -0.03     0.04  -0.07   0.03    -0.27   0.44  -0.14
                     43                     44                     45
                        a                      a                      a 
 Frequencies --   457.3503               460.1028               465.4878
 Red. masses --     8.4192                 2.0145                 8.0446
 Frc consts  --     0.0000                 0.0000                 0.0000
 IR Inten    --     3.8763                20.6542                 3.5192
 Raman Activ --     0.0000                 0.0000                 0.0000
 Depolar     --     0.0000                 0.0000                 0.0000
 Atom AN      X      Y      Z        X      Y      Z        X      Y      Z
   1   8    -0.01  -0.00   0.00    -0.00   0.01   0.00     0.00  -0.01   0.02
   2   6    -0.00  -0.00   0.00     0.01   0.00   0.01    -0.15   0.09  -0.06
   3   1    -0.00   0.00   0.00     0.00  -0.00   0.00    -0.04   0.02  -0.02
   4   1    -0.00  -0.00  -0.00     0.00   0.00   0.00    -0.06   0.02  -0.04
   5   6     0.00  -0.00  -0.01     0.01  -0.01  -0.00    -0.12   0.21  -0.01
   6   1    -0.00  -0.02  -0.01     0.00  -0.01  -0.00    -0.02   0.19   0.02
   7   1     0.01   0.01  -0.01     0.01   0.00  -0.01    -0.12   0.01   0.09
   8   7    -0.01   0.02   0.03    -0.01   0.01   0.02     0.15   0.02  -0.29
   9   6     0.02   0.03   0.02    -0.01   0.01   0.01    -0.17  -0.21   0.11
  10   1     0.00   0.01   0.01    -0.01   0.01  -0.00    -0.09  -0.19  -0.00
  11   1     0.01   0.01   0.00     0.00   0.00  -0.00    -0.07  -0.01   0.11
  12   1     0.01   0.00   0.00    -0.00   0.00   0.01    -0.07  -0.02   0.11
  13   6     0.02  -0.02  -0.02     0.01   0.00  -0.02    -0.02  -0.04   0.31
  14   1    -0.01  -0.00  -0.02    -0.01   0.00  -0.01     0.14  -0.05   0.20
  15   1     0.02  -0.01  -0.00     0.01  -0.00  -0.01    -0.08   0.00   0.08
  16   1     0.01  -0.01  -0.02     0.01  -0.00  -0.01    -0.12   0.00   0.15
  17   6    -0.03  -0.02   0.01    -0.03  -0.01   0.00     0.33  -0.05  -0.19
  18   1    -0.01  -0.01   0.01    -0.02  -0.01   0.00     0.03   0.01  -0.09
  19   1    -0.01  -0.00  -0.01    -0.00  -0.01  -0.01     0.10  -0.10   0.00
  20   1    -0.01  -0.01  -0.00    -0.01  -0.00  -0.00     0.17   0.04  -0.03
  21   1    -0.00  -0.00  -0.00    -0.00   0.01  -0.00     0.01  -0.00   0.02
  22   6    -0.00   0.00  -0.00     0.07  -0.06   0.05    -0.05  -0.01  -0.06
  23   8    -0.00   0.00  -0.00     0.15   0.02  -0.06    -0.06  -0.04  -0.04
  24   7     0.00   0.00   0.00    -0.12   0.01   0.11     0.07   0.08  -0.01
  25   1     0.00  -0.00   0.00     0.02  -0.10  -0.05     0.06  -0.01   0.03
  26   1    -0.00   0.00   0.00    -0.11   0.09   0.09     0.03   0.06  -0.03
  27   7     0.00  -0.00   0.00     0.01  -0.07  -0.06     0.02  -0.05   0.09
  28   1     0.00  -0.00  -0.00     0.26  -0.26  -0.36     0.01  -0.09   0.03
  29   1    -0.00   0.00   0.00    -0.52   0.56   0.18     0.01   0.09   0.06
  30   6    -0.00  -0.00  -0.00     0.00   0.01   0.00    -0.07  -0.05  -0.00
  31   8     0.00  -0.00   0.00     0.00   0.01  -0.00     0.01  -0.09   0.05
  32   7     0.00   0.00  -0.00    -0.01  -0.01  -0.02     0.09   0.04   0.00
  33   1    -0.00   0.01   0.00    -0.01  -0.00   0.02     0.01   0.13   0.03
  34   1     0.00  -0.00  -0.00    -0.01   0.00  -0.01     0.11  -0.04   0.01
  35   7    -0.00   0.00  -0.00     0.01  -0.02   0.00    -0.06   0.07  -0.06
  36   1    -0.00   0.00   0.00    -0.02   0.03   0.05    -0.05   0.05  -0.02
  37   1     0.00  -0.00  -0.00     0.00  -0.01  -0.01     0.02   0.03  -0.03
  38   6     0.01   0.00  -0.06    -0.00  -0.00   0.00     0.01   0.00   0.01
  39   8     0.01   0.00  -0.06    -0.00   0.00  -0.00    -0.00  -0.00   0.00
  40   7    -0.05  -0.00   0.02    -0.00   0.00   0.00     0.01  -0.00  -0.01
  41   1     0.00   0.01   0.04    -0.00  -0.01   0.00     0.00   0.01  -0.00
  42   1    -0.04  -0.01   0.00    -0.00  -0.01   0.00     0.00   0.01  -0.00
  43   7     0.05  -0.00   0.01     0.00   0.00   0.00    -0.00  -0.00  -0.02
  44   1     0.04   0.01   0.00     0.00  -0.00   0.00    -0.01   0.01  -0.01
  45   1    -0.00  -0.01   0.03    -0.00  -0.01   0.00     0.01   0.01  -0.01
  46   6    -0.06  -0.03   0.30     0.00   0.00  -0.00    -0.00  -0.00   0.02
  47   8    -0.07  -0.04   0.33     0.00   0.00  -0.00    -0.00  -0.00   0.02
  48   7     0.35   0.17  -0.13    -0.00  -0.00   0.00     0.02   0.01  -0.01
  49   1    -0.07   0.14  -0.26    -0.00   0.00   0.00     0.00   0.00  -0.02
  50   1     0.32   0.07   0.03    -0.00  -0.00  -0.00     0.01   0.01   0.00
  51   7    -0.26  -0.11  -0.30     0.00   0.00   0.00    -0.01  -0.01  -0.02
  52   1    -0.31  -0.05  -0.12     0.00   0.00   0.00    -0.02  -0.00  -0.01
  53   1     0.19  -0.10  -0.24    -0.00   0.00   0.00     0.01  -0.00  -0.01
                     46                     47                     48
                        a                      a                      a 
 Frequencies --   469.7964               473.9772               478.0244
 Red. masses --     4.6036                 8.0445                 6.1716
 Frc consts  --     0.0000                 0.0000                 0.0000
 IR Inten    --    14.0265                12.1336                 6.5988
 Raman Activ --     0.0000                 0.0000                 0.0000
 Depolar     --     0.0000                 0.0000                 0.0000
 Atom AN      X      Y      Z        X      Y      Z        X      Y      Z
   1   8     0.06   0.00   0.01    -0.03   0.01  -0.02     0.06   0.00   0.01
   2   6    -0.00   0.02   0.01     0.04  -0.03   0.00    -0.03   0.03  -0.00
   3   1     0.01  -0.01   0.01     0.00  -0.00  -0.00     0.01  -0.02   0.01
   4   1    -0.03   0.00   0.01     0.02  -0.00   0.01    -0.05   0.01   0.00
   5   6     0.03  -0.02  -0.10     0.01   0.02   0.09     0.01   0.04  -0.11
   6   1    -0.02  -0.10  -0.05     0.02   0.08   0.05    -0.02  -0.06  -0.05
   7   1     0.08   0.02  -0.09    -0.06  -0.02   0.07     0.06   0.03  -0.08
   8   7    -0.12   0.06   0.07     0.07  -0.04  -0.04    -0.08   0.09   0.01
   9   6     0.13   0.09  -0.01    -0.10  -0.06   0.02     0.09   0.05   0.05
  10   1     0.05   0.08   0.01    -0.07  -0.04  -0.02     0.01   0.03   0.01
  11   1     0.07   0.03  -0.02    -0.02  -0.02   0.00     0.07   0.04   0.01
  12   1     0.05  -0.03  -0.03    -0.04   0.01   0.05     0.03  -0.05   0.02
  13   6    -0.06  -0.07  -0.09     0.04   0.06   0.04    -0.06  -0.09  -0.04
  14   1    -0.06  -0.02  -0.06     0.03   0.03   0.02    -0.03  -0.03  -0.02
  15   1     0.04  -0.03  -0.02    -0.03   0.03   0.00     0.03  -0.04   0.01
  16   1    -0.01  -0.04  -0.05     0.02   0.03   0.03    -0.04  -0.05  -0.03
  17   6    -0.06  -0.01   0.12    -0.00   0.01  -0.10    -0.01  -0.06   0.07
  18   1    -0.01  -0.01   0.05    -0.03   0.02  -0.05    -0.02  -0.03   0.04
  19   1    -0.02  -0.00   0.05     0.01  -0.01  -0.05    -0.00  -0.04   0.04
  20   1     0.00  -0.01   0.01    -0.01   0.02  -0.00     0.04  -0.02  -0.01
  21   1     0.01   0.01  -0.00    -0.01  -0.00  -0.00     0.02   0.01   0.00
  22   6    -0.05  -0.02  -0.03     0.17   0.03   0.21     0.02  -0.02   0.03
  23   8    -0.05  -0.01  -0.04     0.27   0.13   0.12     0.05   0.02  -0.01
  24   7     0.07   0.05   0.00    -0.26  -0.28   0.09    -0.03  -0.04   0.03
  25   1     0.05   0.00   0.04    -0.18  -0.01  -0.11    -0.01  -0.01  -0.00
  26   1     0.04   0.04  -0.03    -0.14  -0.19   0.14    -0.02  -0.00   0.02
  27   7    -0.01  -0.04   0.06    -0.06   0.14  -0.32    -0.03   0.00  -0.04
  28   1    -0.01  -0.05   0.03     0.02   0.28  -0.16     0.00   0.04  -0.03
  29   1     0.02   0.03   0.03    -0.13  -0.23  -0.20    -0.04  -0.03  -0.02
  30   6    -0.10  -0.13  -0.03    -0.04  -0.05  -0.01    -0.16  -0.13   0.09
  31   8     0.01  -0.20   0.07    -0.01  -0.08   0.01    -0.10  -0.19   0.14
  32   7     0.17   0.01  -0.01     0.06   0.01   0.00     0.27   0.08   0.13
  33   1    -0.09   0.47   0.39    -0.03   0.17   0.13     0.24  -0.10  -0.49
  34   1     0.34  -0.21  -0.17     0.12  -0.08  -0.06     0.05   0.10   0.36
  35   7    -0.13   0.19  -0.07    -0.05   0.09  -0.03    -0.07   0.18  -0.27
  36   1    -0.14   0.14   0.02    -0.04   0.03  -0.04    -0.12   0.08  -0.18
[...]
  44   1    -0.00  -0.00   0.01    -0.02   0.00   0.90    -0.00  -0.00   0.27
  45   1    -0.00   0.00  -0.00    -0.19   0.03  -0.13    -0.07   0.01  -0.05
  46   6    -0.00  -0.00  -0.00     0.00   0.00  -0.01     0.00   0.00  -0.01
  47   8    -0.00  -0.00   0.00    -0.00  -0.00   0.00    -0.00  -0.00   0.00
  48   7    -0.00  -0.00   0.00    -0.00  -0.00   0.00    -0.00  -0.00   0.00
  49   1     0.00   0.00  -0.00     0.01   0.01  -0.00     0.02   0.02  -0.01
  50   1    -0.00   0.00   0.00    -0.00   0.00   0.00    -0.00  -0.00   0.01
  51   7     0.00  -0.00   0.00     0.00   0.00   0.00     0.00   0.00   0.00
  52   1     0.00   0.00  -0.00    -0.00  -0.00   0.01    -0.00  -0.00   0.01
  53   1     0.00   0.00  -0.00    -0.01  -0.01  -0.01    -0.01  -0.01  -0.02
                    142                    143                    144
                        a                      a                      a 
 Frequencies --  3495.6994              3499.4237              3499.4429
 Red. masses --     1.4388                 1.4562                 1.4624
 Frc consts  --     0.0000                 0.0000                 0.0000
 IR Inten    --    40.5298                 9.7236                 9.3053
 Raman Activ --     0.0000                 0.0000                 0.0000
 Depolar     --     0.0000                 0.0000                 0.0000
 Atom AN      X      Y      Z        X      Y      Z        X      Y      Z
   1   8    -0.00  -0.00   0.00    -0.00  -0.00   0.00    -0.00  -0.00   0.00
   2   6     0.00   0.00   0.00     0.00   0.00  -0.00    -0.00   0.00  -0.00
   3   1    -0.00  -0.00  -0.00     0.00   0.00  -0.00     0.00   0.00  -0.00
   4   1     0.00  -0.00   0.00    -0.00  -0.00   0.00    -0.00  -0.00   0.00
   5   6    -0.00   0.00   0.00     0.00   0.00   0.00     0.00   0.00   0.00
   6   1     0.00   0.00  -0.00    -0.00  -0.00  -0.00    -0.00  -0.00  -0.00
   7   1    -0.00  -0.00  -0.00    -0.00  -0.00  -0.00    -0.00  -0.00  -0.00
   8   7    -0.00  -0.00  -0.00    -0.00   0.00  -0.00     0.00   0.00  -0.00
   9   6    -0.00   0.00   0.00    -0.00  -0.00  -0.00    -0.00  -0.00  -0.00
  10   1     0.00   0.00  -0.00    -0.00   0.00  -0.00    -0.00  -0.00  -0.00
  11   1     0.00  -0.00   0.00     0.00  -0.00   0.00     0.00  -0.00   0.00
  12   1     0.00   0.00   0.00     0.00   0.00   0.00     0.00   0.00   0.00
  13   6     0.00   0.00   0.00     0.00   0.00  -0.00    -0.00   0.00   0.00
  14   1     0.00   0.00   0.00    -0.00   0.00  -0.00     0.00  -0.00  -0.00
  15   1     0.00  -0.00  -0.00    -0.00  -0.00  -0.00    -0.00  -0.00  -0.00
  16   1     0.00   0.00   0.00     0.00  -0.00   0.00     0.00  -0.00   0.00
  17   6    -0.00  -0.00   0.00    -0.00  -0.00  -0.00    -0.00  -0.00  -0.00
  18   1    -0.00  -0.00  -0.00    -0.00  -0.00  -0.00    -0.00  -0.00  -0.00
  19   1     0.00   0.00   0.00     0.00   0.00   0.00     0.00   0.00   0.00
  20   1    -0.00   0.00  -0.00     0.00  -0.00   0.00     0.00  -0.00   0.00
  21   1     0.00   0.00  -0.00     0.00   0.00  -0.00    -0.00   0.00   0.00
  22   6     0.00   0.00   0.00     0.00  -0.00  -0.00     0.00  -0.00  -0.00
  23   8    -0.00  -0.00  -0.00    -0.00   0.00  -0.00    -0.00   0.00  -0.00
  24   7     0.00  -0.00   0.00    -0.01  -0.01  -0.00    -0.00  -0.00  -0.00
  25   1     0.00   0.00  -0.00     0.01   0.01  -0.01     0.01   0.01  -0.00
  26   1    -0.00  -0.00  -0.00     0.02   0.01   0.02     0.01   0.00   0.01
  27   7    -0.00  -0.00   0.00     0.15   0.07  -0.04     0.06   0.03  -0.02
  28   1     0.00   0.00   0.00    -0.55  -0.04  -0.40    -0.23  -0.02  -0.17
  29   1     0.00   0.00  -0.00    -0.02  -0.22   0.55    -0.01  -0.09   0.23
  30   6     0.00   0.00   0.00    -0.00  -0.00   0.00    -0.00  -0.00   0.00
  31   8    -0.00  -0.00   0.00     0.00   0.00  -0.00     0.00   0.00  -0.00
  32   7     0.00  -0.00   0.00    -0.00   0.00  -0.00    -0.00   0.00  -0.00
  33   1    -0.00  -0.00  -0.00     0.01   0.00   0.00     0.00   0.00   0.00
  34   1     0.00   0.00  -0.00    -0.01  -0.01   0.00    -0.00  -0.00   0.00
  35   7    -0.00   0.00  -0.00    -0.00  -0.00  -0.00    -0.00  -0.00  -0.00
  36   1     0.00   0.00  -0.00     0.01   0.01  -0.00     0.00   0.00  -0.00
  37   1     0.00  -0.00   0.00     0.00  -0.01   0.01     0.00  -0.00   0.00
  38   6     0.00   0.00  -0.00     0.00   0.00  -0.00    -0.00   0.00  -0.00
  39   8    -0.00  -0.00   0.00    -0.00  -0.00   0.00     0.00  -0.00  -0.00
  40   7     0.00  -0.00   0.00    -0.00   0.00  -0.00     0.00  -0.00   0.00
  41   1    -0.00   0.00   0.00     0.01  -0.00  -0.00    -0.02   0.00   0.01
  42   1     0.00   0.00  -0.00    -0.00  -0.00   0.01     0.00   0.00  -0.02
  43   7     0.00  -0.00  -0.00     0.00  -0.00  -0.00    -0.00   0.00   0.00
  44   1     0.00   0.00   0.00     0.00   0.00   0.01    -0.00  -0.00  -0.02
  45   1    -0.00   0.00  -0.00    -0.00   0.00  -0.00     0.01  -0.00   0.01
  46   6    -0.00  -0.00  -0.00    -0.00  -0.00   0.00     0.00   0.00  -0.00
  47   8    -0.00  -0.00   0.00     0.00   0.00  -0.00    -0.00  -0.00   0.00
  48   7    -0.06  -0.07  -0.10     0.02   0.03   0.03    -0.05  -0.06  -0.08
  49   1     0.36   0.29  -0.14    -0.13  -0.11   0.05     0.32   0.26  -0.13
  50   1    -0.15  -0.02   0.51     0.05   0.01  -0.18    -0.12  -0.02   0.43
  51   7    -0.08  -0.08   0.04    -0.04  -0.04   0.02     0.08   0.08  -0.04
  52   1     0.06   0.10  -0.48     0.02   0.04  -0.19    -0.06  -0.10   0.46
  53   1     0.25   0.22   0.31     0.11   0.09   0.13    -0.25  -0.22  -0.32
                    145                    146                    147
                        a                      a                      a 
 Frequencies --  3501.1808              3537.7612              3543.1346
 Red. masses --     1.4487                 1.9529                 1.9621
 Frc consts  --     0.0000                 0.0000                 0.0000
 IR Inten    --    18.6394                12.8131                20.3259
 Raman Activ --     0.0000                 0.0000                 0.0000
 Depolar     --     0.0000                 0.0000                 0.0000
 Atom AN      X      Y      Z        X      Y      Z        X      Y      Z
   1   8     0.00   0.00  -0.00    -0.00  -0.00   0.00    -0.00   0.00   0.00
   2   6     0.00  -0.00   0.00     0.00   0.00   0.00    -0.00   0.00   0.00
   3   1     0.00  -0.00   0.00     0.00   0.00   0.00     0.00  -0.00  -0.00
   4   1    -0.00   0.00  -0.00    -0.00  -0.00  -0.00     0.00  -0.00  -0.00
   5   6     0.00  -0.00  -0.00     0.00  -0.00   0.00    -0.00  -0.00   0.00
   6   1    -0.00   0.00   0.00    -0.00   0.00  -0.00     0.00   0.00  -0.00
   7   1     0.00   0.00   0.00    -0.00   0.00  -0.00    -0.00  -0.00  -0.00
   8   7    -0.00   0.00   0.00    -0.00  -0.00   0.00    -0.00  -0.00   0.00
   9   6    -0.00   0.00  -0.00    -0.00  -0.00  -0.00     0.00   0.00   0.00
  10   1     0.00   0.00  -0.00    -0.00   0.00  -0.00     0.00  -0.00   0.00
  11   1     0.00  -0.00   0.00    -0.00  -0.00   0.00     0.00   0.00  -0.00
  12   1     0.00   0.00  -0.00     0.00   0.00   0.00    -0.00  -0.00   0.00
  13   6    -0.00   0.00  -0.00     0.00  -0.00   0.00    -0.00   0.00   0.00
  14   1     0.00   0.00  -0.00    -0.00   0.00   0.00     0.00  -0.00  -0.00
  15   1    -0.00   0.00   0.00    -0.00   0.00  -0.00     0.00   0.00   0.00
  16   1    -0.00  -0.00   0.00    -0.00  -0.00  -0.00    -0.00   0.00  -0.00
  17   6    -0.00   0.00  -0.00    -0.00  -0.00  -0.00     0.00   0.00   0.00
  18   1    -0.00   0.00   0.00    -0.00   0.00  -0.00     0.00   0.00   0.00
  19   1     0.00   0.00   0.00     0.00   0.00   0.00    -0.00  -0.00  -0.00
  20   1     0.00  -0.00   0.00    -0.00  -0.00  -0.00    -0.00   0.00  -0.00
  21   1    -0.00   0.00   0.00     0.00  -0.00  -0.00     0.00  -0.00  -0.00
  22   6     0.00  -0.00   0.00    -0.00  -0.00  -0.00     0.01   0.01   0.00
  23   8    -0.00   0.00  -0.00     0.00   0.00   0.00    -0.00  -0.00  -0.00
  24   7    -0.00  -0.00  -0.00     0.00   0.00   0.00     0.21   0.07   0.15
  25   1     0.00   0.00  -0.00     0.00   0.00  -0.00    -0.11  -0.10   0.06
  26   1     0.00   0.00   0.00    -0.01  -0.00  -0.01    -0.70  -0.18  -0.61
  27   7     0.00   0.00  -0.00     0.00   0.00   0.00    -0.01   0.01  -0.04
  28   1    -0.01  -0.00  -0.01    -0.02  -0.00  -0.01     0.04   0.00   0.03
  29   1    -0.00  -0.00   0.01     0.00   0.00  -0.01    -0.01  -0.04   0.10
  30   6    -0.00  -0.00   0.00     0.00   0.01  -0.01    -0.00  -0.00   0.00
  31   8     0.00   0.00  -0.00    -0.00  -0.00   0.00     0.00   0.00  -0.00
  32   7     0.06  -0.15   0.08    -0.03  -0.01  -0.01     0.00   0.00   0.00
  33   1    -0.63  -0.04  -0.19     0.09   0.00   0.03    -0.00  -0.00  -0.00
  34   1     0.40   0.60  -0.12     0.01   0.03  -0.00    -0.00  -0.00   0.00
  35   7     0.00   0.01  -0.01     0.12   0.22  -0.10    -0.00  -0.00   0.00
  36   1    -0.02  -0.03   0.01    -0.54  -0.71   0.31     0.01   0.01  -0.00
  37   1     0.01  -0.01   0.01     0.08  -0.11   0.09    -0.00   0.00  -0.00
  38   6    -0.00  -0.00   0.00     0.00   0.00  -0.00     0.00  -0.00  -0.00
  39   8     0.00   0.00  -0.00    -0.00  -0.00   0.00    -0.00   0.00   0.00
  40   7    -0.00   0.00  -0.00     0.00  -0.00  -0.00     0.01  -0.00  -0.00
  41   1     0.00  -0.00  -0.00    -0.00   0.00   0.00    -0.02   0.00   0.01
  42   1    -0.00  -0.00   0.00    -0.00  -0.00   0.00    -0.00  -0.00   0.01
  43   7     0.00   0.00  -0.00     0.00  -0.00   0.00     0.00  -0.00   0.00
  44   1    -0.00  -0.00   0.00     0.00  -0.00  -0.00     0.00  -0.00  -0.00
  45   1    -0.00   0.00  -0.00    -0.00   0.00  -0.00    -0.00   0.00  -0.00
  46   6    -0.00  -0.00   0.00     0.00   0.00  -0.00    -0.00  -0.00  -0.00
  47   8     0.00   0.00  -0.00    -0.00  -0.00   0.00    -0.00   0.00   0.00
  48   7     0.00   0.00   0.00     0.00   0.00  -0.00    -0.00  -0.00   0.00
  49   1    -0.00  -0.00   0.00    -0.00  -0.00   0.00     0.00   0.00  -0.00
  50   1     0.00   0.00  -0.00    -0.00  -0.00   0.00     0.00   0.00  -0.00
  51   7    -0.00  -0.00   0.00    -0.00  -0.00   0.00    -0.00  -0.00   0.00
  52   1     0.00   0.00  -0.00     0.00   0.00  -0.00     0.00   0.00  -0.00
  53   1     0.00   0.00   0.00     0.00   0.00   0.00    -0.00  -0.00  -0.00
                    148                    149                    150
                        a                      a                      a 
 Frequencies --  3549.4163              3556.5769              3558.8363
 Red. masses --     2.0582                 2.0289                 2.1893
 Frc consts  --     0.0000                 0.0000                 0.0000
 IR Inten    --    43.4451                48.0942                14.2527
 Raman Activ --     0.0000                 0.0000                 0.0000
 Depolar     --     0.0000                 0.0000                 0.0000
 Atom AN      X      Y      Z        X      Y      Z        X      Y      Z
   1   8     0.00  -0.00  -0.00     0.00  -0.00  -0.00    -0.00  -0.00  -0.00
   2   6    -0.00  -0.00  -0.00    -0.00  -0.00  -0.00     0.00   0.00   0.00
   3   1     0.00   0.00  -0.00     0.00   0.00  -0.00     0.00  -0.00  -0.00
   4   1    -0.00   0.00  -0.00    -0.00   0.00  -0.00     0.00  -0.00   0.00
   5   6     0.00   0.00   0.00     0.00  -0.00  -0.00    -0.00   0.00   0.00
   6   1     0.00   0.00   0.00    -0.00   0.00   0.00     0.00   0.00   0.00
   7   1     0.00   0.00   0.00     0.00  -0.00  -0.00     0.00  -0.00  -0.00
   8   7     0.00  -0.00   0.00     0.00   0.00   0.00    -0.00  -0.00  -0.00
   9   6     0.00  -0.00   0.00     0.00   0.00  -0.00    -0.00   0.00   0.00
  10   1     0.00  -0.00   0.00    -0.00  -0.00   0.00     0.00   0.00   0.00
  11   1     0.00   0.00  -0.00     0.00   0.00  -0.00     0.00   0.00  -0.00
  12   1    -0.00   0.00  -0.00    -0.00  -0.00  -0.00     0.00   0.00   0.00
  13   6    -0.00  -0.00   0.00    -0.00  -0.00   0.00     0.00   0.00   0.00
  14   1    -0.00   0.00  -0.00     0.00  -0.00  -0.00     0.00   0.00  -0.00
  15   1    -0.00   0.00  -0.00     0.00   0.00  -0.00     0.00  -0.00  -0.00
  16   1    -0.00  -0.00   0.00     0.00   0.00  -0.00     0.00   0.00  -0.00
  17   6     0.00  -0.00   0.00     0.00   0.00  -0.00    -0.00  -0.00  -0.00
  18   1    -0.00   0.00  -0.00     0.00   0.00  -0.00     0.00  -0.00  -0.00
  19   1    -0.00  -0.00  -0.00    -0.00  -0.00  -0.00     0.00   0.00   0.00
  20   1    -0.00   0.00  -0.00     0.00  -0.00  -0.00    -0.00   0.00  -0.00
  21   1    -0.01   0.00   0.00    -0.01   0.00   0.00     0.00   0.00  -0.00
  22   6    -0.00   0.00  -0.00    -0.00   0.00  -0.00     0.00  -0.00   0.00
  23   8     0.00   0.00   0.00     0.00  -0.00   0.00    -0.00  -0.00  -0.00
  24   7    -0.01  -0.00  -0.00    -0.00  -0.00  -0.00    -0.00  -0.00  -0.00
  25   1     0.01   0.00  -0.00     0.00   0.00  -0.00     0.00   0.00  -0.00
  26   1     0.02   0.01   0.02     0.00   0.00   0.00     0.00   0.00   0.00
  27   7     0.00  -0.00   0.00     0.00  -0.00   0.00     0.00  -0.00   0.00
  28   1    -0.00  -0.00  -0.00    -0.00  -0.00  -0.00    -0.00  -0.00  -0.00
  29   1     0.00   0.00  -0.01     0.00   0.00  -0.00     0.00   0.00  -0.00
  30   6    -0.00  -0.00  -0.00     0.00   0.00  -0.00     0.00   0.00   0.00
  31   8     0.00  -0.00   0.00    -0.00  -0.00   0.00    -0.00  -0.00   0.00
  32   7     0.00  -0.00   0.00     0.00   0.00   0.00     0.00   0.00   0.00
  33   1    -0.00  -0.00  -0.00    -0.00  -0.00  -0.00    -0.00   0.00  -0.00
  34   1     0.00   0.00  -0.00    -0.00  -0.00   0.00    -0.00  -0.00   0.00
  35   7    -0.00  -0.00   0.00    -0.00  -0.00   0.00     0.00   0.00  -0.00
  36   1     0.00   0.00  -0.00     0.00   0.00  -0.00    -0.00  -0.00   0.00
  37   1    -0.00   0.00  -0.00    -0.00   0.00  -0.00     0.00  -0.00   0.00
  38   6     0.01  -0.00  -0.00    -0.00   0.00  -0.01     0.00   0.00  -0.00
  39   8    -0.00  -0.00   0.00     0.00   0.00   0.00    -0.00  -0.00   0.00
  40   7     0.21  -0.00  -0.16     0.09  -0.00  -0.07     0.00  -0.00  -0.00
  41   1    -0.77   0.02   0.31    -0.33   0.01   0.13    -0.00   0.00   0.00
  42   1    -0.02  -0.01   0.29    -0.01  -0.01   0.14    -0.00   0.00   0.00
  43   7     0.08  -0.01   0.07    -0.19   0.03  -0.17    -0.01   0.00  -0.01
  44   1     0.01  -0.00  -0.07    -0.02   0.00   0.21    -0.00   0.00   0.01
  45   1    -0.32   0.05  -0.20     0.72  -0.12   0.44     0.02  -0.00   0.01
  46   6    -0.00   0.00  -0.00     0.00   0.00  -0.00    -0.01  -0.00  -0.00
  47   8    -0.00   0.00   0.00    -0.00  -0.00   0.00     0.00   0.00   0.00
  48   7    -0.00  -0.00   0.00    -0.00  -0.00   0.01    -0.12  -0.08   0.14
  49   1     0.01   0.01  -0.00     0.01   0.01  -0.00     0.35   0.29  -0.12
  50   1     0.00   0.00  -0.02     0.01   0.00  -0.02     0.11   0.00  -0.41
  51   7    -0.00  -0.00   0.00     0.00   0.00   0.02    -0.06  -0.04  -0.21
  52   1     0.00   0.00  -0.01     0.01   0.01  -0.05    -0.07  -0.11   0.46
  53   1     0.00   0.00   0.00    -0.02  -0.02  -0.02     0.29   0.26   0.34
                    151                    152                    153
                        a                      a                      a 
 Frequencies --  3564.1999              3564.3443              3567.9996
 Red. masses --     2.1724                 2.1751                 2.1808
 Frc consts  --     0.0000                 0.0000                 0.0000
 IR Inten    --    14.5284                16.9625                10.7047
 Raman Activ --     0.0000                 0.0000                 0.0000
 Depolar     --     0.0000                 0.0000                 0.0000
 Atom AN      X      Y      Z        X      Y      Z        X      Y      Z
   1   8     0.00  -0.00  -0.00    -0.00   0.00   0.00    -0.00   0.00   0.00
   2   6     0.00  -0.00  -0.00     0.00   0.00  -0.00    -0.00  -0.00  -0.00
   3   1    -0.00   0.00   0.00    -0.00  -0.00   0.00    -0.00  -0.00  -0.00
   4   1    -0.00   0.00   0.00     0.00  -0.00   0.00     0.00  -0.00   0.00
   5   6     0.00   0.00  -0.00     0.00   0.00   0.00    -0.00   0.00  -0.00
   6   1    -0.00  -0.00   0.00    -0.00  -0.00  -0.00     0.00  -0.00  -0.00
   7   1     0.00  -0.00   0.00    -0.00   0.00   0.00     0.00  -0.00  -0.00
   8   7    -0.00   0.00  -0.00    -0.00  -0.00  -0.00     0.00   0.00  -0.00
   9   6    -0.00   0.00  -0.00    -0.00  -0.00   0.00     0.00  -0.00   0.00
  10   1    -0.00  -0.00   0.00    -0.00   0.00  -0.00     0.00  -0.00   0.00
  11   1     0.00  -0.00   0.00     0.00  -0.00   0.00    -0.00   0.00  -0.00
  12   1     0.00   0.00  -0.00     0.00   0.00  -0.00    -0.00  -0.00   0.00
  13   6     0.00   0.00  -0.00     0.00  -0.00  -0.00     0.00  -0.00   0.00
  14   1    -0.00   0.00   0.00    -0.00  -0.00   0.00     0.00  -0.00   0.00
  15   1    -0.00  -0.00  -0.00    -0.00   0.00   0.00     0.00  -0.00   0.00
  16   1     0.00  -0.00   0.00     0.00  -0.00   0.00     0.00   0.00  -0.00
  17   6    -0.00  -0.00  -0.00    -0.00  -0.00  -0.00     0.00  -0.00   0.00
  18   1    -0.00  -0.00  -0.00    -0.00   0.00   0.00     0.00  -0.00   0.00
  19   1     0.00   0.00   0.00     0.00   0.00   0.00    -0.00  -0.00   0.00
  20   1     0.00  -0.00   0.00     0.00  -0.00   0.00    -0.00   0.00  -0.00
  21   1    -0.00   0.00   0.00     0.00  -0.00  -0.00     0.00  -0.00  -0.00
  22   6    -0.00   0.00  -0.01    -0.00   0.00  -0.00     0.00  -0.00   0.00
  23   8     0.00  -0.00   0.00     0.00  -0.00   0.00    -0.00   0.00  -0.00
  24   7    -0.03  -0.01  -0.02    -0.00  -0.00  -0.00     0.00   0.00   0.00
  25   1     0.02   0.01  -0.01     0.00   0.00  -0.00    -0.00  -0.00   0.00
  26   1     0.09   0.02   0.08     0.01   0.00   0.01    -0.00  -0.00  -0.00
  27   7    -0.12   0.06  -0.26    -0.01   0.00  -0.02     0.00  -0.00   0.01
  28   1     0.51   0.04   0.35     0.04   0.00   0.03    -0.01  -0.00  -0.01
  29   1    -0.05  -0.26   0.66    -0.00  -0.02   0.05     0.00   0.01  -0.02
  30   6    -0.00  -0.00  -0.00    -0.00  -0.00  -0.00    -0.01  -0.00  -0.00
  31   8     0.00   0.00  -0.00     0.00   0.00  -0.00     0.00   0.00   0.00
  32   7    -0.01  -0.00  -0.00    -0.00  -0.00  -0.00    -0.26  -0.14  -0.03
  33   1     0.02   0.00   0.01     0.00   0.00   0.00     0.67   0.01   0.21
  34   1     0.01   0.01  -0.00     0.00   0.00  -0.00     0.32   0.54  -0.11
  35   7     0.00   0.00  -0.00     0.00   0.00  -0.00    -0.01  -0.02   0.01
  36   1    -0.01  -0.01   0.00    -0.00  -0.00   0.00     0.05   0.06  -0.03
  37   1     0.00  -0.01   0.01     0.00  -0.00   0.00    -0.01   0.01  -0.01
  38   6    -0.00   0.00  -0.00    -0.00  -0.00   0.00     0.00   0.00  -0.00
  39   8     0.00  -0.00  -0.00    -0.00  -0.00   0.00    -0.00  -0.00   0.00
  40   7     0.00  -0.00  -0.00    -0.01  -0.00   0.01     0.00  -0.00   0.00
  41   1    -0.01   0.00   0.00     0.03  -0.00  -0.01    -0.00   0.00   0.00
  42   1    -0.00  -0.00   0.00     0.00   0.00  -0.02     0.00  -0.00  -0.00
  43   7    -0.00   0.00  -0.00     0.01  -0.00   0.01    -0.00   0.00  -0.00
  44   1    -0.00   0.00   0.00     0.00  -0.00  -0.02    -0.00   0.00   0.00
  45   1     0.00  -0.00   0.00    -0.04   0.01  -0.02     0.00  -0.00   0.00
  46   6     0.00   0.00  -0.00    -0.00  -0.00   0.01     0.00   0.00  -0.00
  47   8    -0.00  -0.00   0.00     0.00   0.00  -0.00    -0.00  -0.00   0.00
  48   7     0.01   0.01  -0.01    -0.13  -0.08   0.16     0.00   0.00  -0.00
  49   1    -0.03  -0.02   0.01     0.38   0.32  -0.13    -0.00  -0.00   0.00
  50   1    -0.01  -0.00   0.04     0.12   0.00  -0.47    -0.00  -0.00   0.00
  51   7    -0.00  -0.00  -0.02     0.05   0.03   0.19    -0.00  -0.00  -0.00
  52   1    -0.01  -0.01   0.03     0.06   0.10  -0.42    -0.00  -0.00   0.00
  53   1     0.02   0.02   0.02    -0.25  -0.23  -0.30     0.00   0.00   0.00
