 Entering Gaussian System
 *********************************************
 Gaussian 98:
 frequency output generated by the xtb code
 *********************************************
                         Standard orientation:
 --------------------------------------------------------------------
  Center     Atomic     Atomic              Coordinates (Angstroms)
  Number     Number      Type              X           Y           Z
 --------------------------------------------------------------------
    1          8             0       -1.474254    0.552443   -2.799601
    2          6             0       -1.701959    1.630130   -1.944252
    3          1             0       -1.647465    2.582861   -2.489752
    4          1             0       -2.723342    1.521293   -1.571688
    5          6             0       -0.695479    1.740050   -0.785729
    6          1             0       -0.870410    2.688606   -0.274380
    7          1             0        0.316998    1.745798   -1.196722
    8          7             0       -0.744370    0.655545    0.231906
    9          6             0       -0.331421   -0.625081   -0.368008
   10          1             0       -0.962147   -0.848306   -1.226016
   11          1             0       -0.410213   -1.426698    0.367310
   12          1             0        0.699166   -0.550636   -0.705299
   13          6             0       -2.091737    0.518445    0.808640
   14          1             0       -2.496156    1.499437    1.051202
   15          1             0       -2.047265   -0.068789    1.727576
   16          1             0       -2.753232    0.019851    0.105578
   17          6             0        0.206892    1.003233    1.302329
   18          1             0       -0.141041    1.883392    1.839372
   19          1             0        1.183928    1.214156    0.866196
   20          1             0        0.289594    0.172706    2.000934
   21          1             0       -0.641858    0.711636   -3.286436
   22          6             0        3.145102    0.443072   -1.237566
   23          8             0        2.563908    1.435845   -0.789916
   24          7             0        2.729454   -0.169523   -2.360771
   25          1             0        2.032970    0.309149   -2.936533
   26          1             0        3.264211   -0.908541   -2.779719
   27          7             0        4.174462   -0.127482   -0.568970
   28          1             0        4.708934   -0.881812   -0.959352
   29          1             0        4.533551    0.339359    0.244595
   30          6             0        1.250859    2.637587   -3.848252
   31          8             0        0.928779    1.448561   -3.762490
   32          7             0        1.914766    3.261342   -2.859242
   33          1             0        2.216663    2.715573   -2.052655
   34          1             0        2.242381    4.204690   -2.955754
   35          7             0        0.896909    3.380794   -4.920002
   36          1             0        1.221480    4.321325   -5.050861
   37          1             0        0.449209    2.918741   -5.691936
   38          6             0       -1.769022   -3.554335    1.674715
   39          8             0       -0.667569   -3.004101    1.607804
   40          7             0       -2.820268   -2.970545    2.278679
   41          1             0       -2.658743   -2.115684    2.810667
   42          1             0       -3.681778   -3.465295    2.420722
   43          7             0       -1.982637   -4.761995    1.104860
   44          1             0       -2.877564   -5.214796    1.119841
   45          1             0       -1.226181   -5.201772    0.612746
   46          6             0       -0.962248   -0.844664    4.337062
   47          8             0       -1.997781   -0.678679    3.694730
   48          7             0       -0.810405   -0.324235    5.575691
   49          1             0       -1.582803    0.170752    5.984320
   50          1             0        0.013775   -0.472751    6.128058
   51          7             0        0.108533   -1.481084    3.804312
   52          1             0        0.861648   -1.771812    4.403475
   53          1             0       -0.075061   -2.065553    2.980725
 --------------------------------------------------------------------
     1 basis functions        1 primitive gaussians
     1 alpha electrons        1 beta electrons

 Harmonic frequencies (cm**-1), IR intensities (km*mol⁻¹),
 Raman scattering activities (A**4/amu), Raman depolarization ratios,
 reduced masses (AMU), force constants (mDyne/A) and normal coordinates:
                      1                      2                      3
                        a                      a                      a 
 Frequencies --    13.3041                14.9973                21.1237
 Red. masses --    12.2535                12.4131                12.2246
 Frc consts  --     0.0000                 0.0000                 0.0000
 IR Inten    --     0.0249                 0.4774                 0.6160
 Raman Activ --     0.0000                 0.0000                 0.0000
 Depolar     --     0.0000                 0.0000                 0.0000
 Atom AN      X      Y      Z        X      Y      Z        X      Y      Z
   1   8     0.13  -0.20  -0.07     0.14  -0.11  -0.12    -0.01  -0.04  -0.13
   2   6     0.02  -0.19  -0.06     0.03  -0.13  -0.08    -0.10  -0.05  -0.12
   3   1    -0.01  -0.05  -0.01    -0.01  -0.03  -0.01    -0.04  -0.01  -0.04
   4   1     0.01  -0.08  -0.02     0.01  -0.06  -0.03    -0.03  -0.03  -0.05
   5   6    -0.00  -0.13  -0.04    -0.00  -0.10  -0.06    -0.15   0.02  -0.09
   6   1    -0.02  -0.04  -0.01    -0.01  -0.03  -0.02    -0.05   0.01  -0.04
   7   1     0.00  -0.02  -0.01     0.00  -0.02  -0.01    -0.04   0.01  -0.02
   8   7     0.04  -0.14  -0.04     0.01  -0.11  -0.06    -0.16   0.05  -0.06
   9   6     0.11  -0.11  -0.02     0.02  -0.10  -0.05    -0.13   0.03  -0.02
  10   1     0.05  -0.03  -0.02     0.01  -0.03  -0.02    -0.03   0.00  -0.01
  11   1     0.03  -0.03  -0.01     0.01  -0.03  -0.01    -0.04   0.01   0.00
  12   1     0.04  -0.02   0.01     0.01  -0.03  -0.01    -0.04   0.01  -0.00
  13   6     0.04  -0.19  -0.05     0.00  -0.11  -0.06    -0.15   0.05  -0.06
  14   1    -0.01  -0.06  -0.03    -0.00  -0.03  -0.02    -0.05   0.02  -0.03
  15   1     0.02  -0.05  -0.01     0.00  -0.03  -0.01    -0.04   0.02  -0.01
  16   1     0.02  -0.08  -0.01     0.00  -0.04  -0.01    -0.04   0.00  -0.01
  17   6     0.00  -0.07  -0.02    -0.00  -0.09  -0.05    -0.16   0.09  -0.06
  18   1    -0.02  -0.03  -0.01    -0.00  -0.02  -0.02    -0.05   0.03  -0.03
  19   1    -0.00  -0.00  -0.00     0.00  -0.03  -0.01    -0.05   0.03  -0.02
  20   1     0.01  -0.02  -0.01    -0.00  -0.02  -0.01    -0.05   0.03  -0.01
  21   1     0.03  -0.03  -0.01     0.03  -0.00  -0.03     0.00  -0.00  -0.02
  22   6     0.08   0.16   0.02    -0.02  -0.11  -0.14    -0.12  -0.05   0.16
  23   8     0.01   0.13   0.02    -0.00  -0.17  -0.05    -0.09  -0.01   0.14
  24   7     0.16   0.15   0.01    -0.01   0.04  -0.24    -0.10  -0.03   0.15
  25   1     0.03   0.03   0.00     0.00   0.03  -0.05    -0.01   0.00   0.03
  26   1     0.06   0.05   0.00    -0.01   0.02  -0.08    -0.03  -0.02   0.05
  27   7     0.12   0.24   0.04    -0.07  -0.24  -0.19    -0.21  -0.13   0.24
  28   1     0.05   0.08   0.01    -0.02  -0.05  -0.07    -0.06  -0.05   0.08
  29   1     0.02   0.07   0.01    -0.02  -0.09  -0.03    -0.06  -0.04   0.07
  30   6    -0.03   0.05   0.00     0.03   0.21   0.08     0.09   0.03   0.08
  31   8     0.07   0.02  -0.01     0.04   0.23  -0.09     0.05   0.05   0.07
  32   7    -0.10   0.09   0.02     0.00   0.10   0.18     0.05   0.01   0.13
  33   1    -0.02   0.03   0.01     0.00  -0.00   0.03    -0.00  -0.00   0.04
  34   1    -0.05   0.03   0.01     0.00   0.03   0.08     0.03  -0.00   0.04
  35   7    -0.07   0.03   0.00     0.03   0.38   0.18     0.19   0.05   0.06
  36   1    -0.04   0.02   0.01     0.01   0.11   0.08     0.06   0.01   0.02
  37   1    -0.00   0.00  -0.00     0.02   0.13   0.03     0.06   0.02   0.01
  38   6    -0.24   0.05   0.04     0.02  -0.02   0.13     0.02  -0.05   0.02
  39   8    -0.24  -0.03  -0.00     0.00   0.02   0.12     0.03  -0.07  -0.09
  40   7    -0.17   0.08   0.17     0.01  -0.05   0.13     0.06   0.01   0.02
  41   1    -0.02   0.02   0.05    -0.01  -0.00   0.02     0.03   0.01  -0.00
  42   1    -0.06   0.04   0.05     0.01  -0.02   0.04     0.02   0.00   0.04
  43   7    -0.40   0.12  -0.05     0.08  -0.06   0.20    -0.02  -0.10   0.14
  44   1    -0.11   0.04   0.02     0.03  -0.03   0.06    -0.01  -0.01   0.04
  45   1    -0.12   0.02  -0.02     0.02  -0.01   0.06    -0.02  -0.03   0.02
  46   6     0.10  -0.01   0.01    -0.07   0.10   0.03     0.22   0.03  -0.13
  47   8     0.08   0.05   0.09    -0.08   0.05   0.02     0.21   0.04  -0.09
  48   7     0.23  -0.00  -0.01    -0.11   0.16   0.01     0.33   0.08  -0.17
  49   1     0.08   0.01   0.01    -0.03   0.05  -0.01     0.10   0.02  -0.03
  50   1     0.07  -0.01  -0.02    -0.03   0.06   0.01     0.09   0.01  -0.05
  51   7     0.03  -0.09  -0.05    -0.06   0.10   0.08     0.19  -0.01  -0.18
  52   1     0.01  -0.04  -0.03    -0.02   0.04   0.03     0.06  -0.00  -0.06
  53   1    -0.02  -0.02  -0.01    -0.01   0.02   0.03     0.03  -0.01  -0.04
                      4                      5                      6
                        a                      a                      a 
 Frequencies --    31.5686                34.2419                36.8180
 Red. masses --    12.8539                12.6049                12.2208
 Frc consts  --     0.0000                 0.0000                 0.0000
 IR Inten    --     0.3531                 1.5541                 4.2439
 Raman Activ --     0.0000                 0.0000                 0.0000
 Depolar     --     0.0000                 0.0000                 0.0000
 Atom AN      X      Y      Z        X      Y      Z        X      Y      Z
   1   8    -0.17   0.01  -0.02    -0.17   0.22  -0.02    -0.09   0.17  -0.02
   2   6    -0.10  -0.00  -0.00    -0.01   0.18   0.03    -0.08   0.07   0.07
   3   1    -0.03   0.00   0.00     0.02   0.06   0.02    -0.03   0.03   0.04
   4   1    -0.03   0.00   0.01    -0.00   0.08   0.02    -0.02   0.01   0.02
   5   6    -0.06  -0.02  -0.03     0.04   0.04  -0.00    -0.06  -0.02   0.07
   6   1    -0.02  -0.01  -0.00     0.04   0.01   0.02    -0.02  -0.02   0.04
   7   1    -0.02  -0.00  -0.02     0.01  -0.00  -0.01    -0.02   0.01   0.01
   8   7    -0.02  -0.06  -0.07     0.01  -0.02  -0.06    -0.04  -0.11  -0.02
   9   6     0.01  -0.02  -0.11    -0.07  -0.01  -0.13    -0.05  -0.05  -0.13
  10   1    -0.00  -0.01  -0.02    -0.03   0.02  -0.04    -0.02   0.00  -0.04
  11   1     0.02  -0.01  -0.03    -0.03  -0.01  -0.05    -0.00  -0.03  -0.05
  12   1    -0.00   0.01  -0.04    -0.02  -0.02  -0.04    -0.02  -0.01  -0.05
  13   6    -0.01  -0.10  -0.05     0.01   0.02  -0.05    -0.02  -0.16   0.00
  14   1    -0.01  -0.03  -0.00     0.02   0.01   0.01    -0.01  -0.05   0.03
  15   1     0.01  -0.04  -0.02    -0.00  -0.01  -0.02     0.00  -0.07  -0.01
  16   1    -0.00  -0.03  -0.01    -0.01   0.03  -0.02    -0.01  -0.03  -0.01
  17   6    -0.01  -0.06  -0.07     0.04  -0.12  -0.06    -0.02  -0.18  -0.01
  18   1    -0.00  -0.02  -0.01     0.02  -0.04   0.00    -0.01  -0.07   0.02
  19   1    -0.00  -0.01  -0.02     0.01  -0.04  -0.02    -0.01  -0.04  -0.00
  20   1     0.00  -0.02  -0.03     0.01  -0.05  -0.03     0.00  -0.07  -0.02
  21   1    -0.04  -0.01   0.00    -0.03   0.03  -0.00    -0.02   0.05  -0.00
  22   6     0.09  -0.09   0.05     0.14   0.05  -0.01    -0.08   0.05  -0.01
  23   8     0.10  -0.13   0.09     0.12   0.02   0.04    -0.07   0.07  -0.01
  24   7     0.05  -0.11   0.07     0.03  -0.04   0.08    -0.17   0.00   0.05
  25   1     0.01  -0.03   0.03    -0.00  -0.02   0.03    -0.04   0.00   0.01
  26   1     0.02  -0.02   0.01     0.02   0.01   0.00    -0.04   0.01   0.00
  27   7     0.16  -0.07  -0.02     0.31   0.19  -0.15    -0.02   0.09  -0.07
  28   1     0.03  -0.02  -0.01     0.07   0.05  -0.04    -0.02   0.02  -0.02
  29   1     0.04  -0.02  -0.00     0.09   0.06  -0.05     0.00   0.03  -0.03
  30   6    -0.07  -0.07   0.19    -0.01  -0.02   0.09     0.14   0.03  -0.09
  31   8    -0.05  -0.09   0.21    -0.02  -0.02   0.15    -0.04   0.10  -0.01
  32   7     0.00  -0.10   0.16     0.07  -0.01   0.04     0.07   0.06  -0.06
  33   1     0.01  -0.03   0.04     0.02   0.00   0.01    -0.01   0.02   0.00
  34   1    -0.01  -0.02   0.05     0.01  -0.00   0.00     0.07  -0.00  -0.04
  35   7    -0.21  -0.04   0.27    -0.07  -0.04   0.10     0.48  -0.06  -0.26
  36   1    -0.05  -0.01   0.07    -0.01  -0.02   0.01     0.14  -0.02  -0.07
  37   1    -0.06  -0.01   0.07    -0.03  -0.02   0.04     0.12  -0.01  -0.07
  38   6     0.06   0.08  -0.10    -0.07  -0.13   0.11     0.02  -0.02   0.06
  39   8     0.08   0.11  -0.03    -0.15  -0.04  -0.09    -0.03   0.09   0.00
  40   7     0.11  -0.06   0.08    -0.09  -0.13   0.09     0.08  -0.24   0.37
  41   1     0.02  -0.02   0.03    -0.03  -0.02  -0.00     0.01  -0.05   0.09
  42   1     0.01  -0.01  -0.03    -0.00  -0.06   0.08     0.02  -0.07   0.07
  43   7     0.03   0.26  -0.45     0.02  -0.30   0.42     0.02   0.10  -0.19
  44   1     0.03   0.03  -0.07     0.00  -0.07   0.10     0.04  -0.03   0.03
  45   1     0.02   0.07  -0.10    -0.01  -0.06   0.08     0.01   0.04  -0.05
  46   6     0.01   0.13  -0.03    -0.04   0.03  -0.13    -0.01   0.01   0.07
  47   8    -0.04   0.02   0.01    -0.08  -0.02  -0.09    -0.06  -0.07   0.12
  48   7     0.06   0.29  -0.10     0.02   0.10  -0.17     0.03   0.06   0.04
  49   1     0.01   0.07  -0.02     0.01   0.02  -0.04     0.01   0.01   0.02
  50   1     0.02   0.09  -0.03     0.01   0.03  -0.06     0.02   0.03   0.00
  51   7     0.01   0.14  -0.03    -0.05   0.03  -0.17    -0.02   0.02   0.05
  52   1     0.02   0.06  -0.01    -0.00   0.02  -0.05     0.01   0.02   0.01
  53   1     0.00   0.02   0.00    -0.02   0.00  -0.04    -0.01   0.00   0.02
                      7                      8                      9
                        a                      a                      a 
 Frequencies --    41.7207                45.0085                51.0178
 Red. masses --    12.5304                12.1744                12.4785
 Frc consts  --     0.0000                 0.0000                 0.0000
 IR Inten    --     0.6261                 4.2488                 1.5529
 Raman Activ --     0.0000                 0.0000                 0.0000
 Depolar     --     0.0000                 0.0000                 0.0000
 Atom AN      X      Y      Z        X      Y      Z        X      Y      Z
   1   8     0.14   0.05   0.12    -0.06   0.20  -0.15    -0.02   0.08  -0.01
   2   6     0.16   0.06   0.09     0.03   0.13  -0.05    -0.04   0.08  -0.02
   3   1     0.06   0.02   0.03     0.03   0.05   0.00    -0.01   0.02  -0.01
   4   1     0.04   0.03   0.02     0.01   0.05  -0.01    -0.01   0.02  -0.01
   5   6     0.15   0.02   0.11     0.05  -0.01  -0.06    -0.07   0.11  -0.00
   6   1     0.05   0.00   0.03     0.03  -0.01   0.01    -0.03   0.03  -0.00
   7   1     0.05  -0.00   0.04     0.01  -0.00  -0.02    -0.02   0.04   0.01
   8   7     0.11   0.00   0.10     0.02  -0.10  -0.16    -0.06   0.12   0.00
   9   6     0.08  -0.00   0.09    -0.02  -0.06  -0.26     0.01   0.13   0.00
  10   1     0.03   0.01   0.02    -0.01   0.00  -0.07     0.02   0.03  -0.01
  11   1     0.01  -0.00   0.02    -0.00  -0.03  -0.09     0.00   0.03  -0.00
  12   1     0.03  -0.01   0.04    -0.01  -0.02  -0.08     0.01   0.05   0.02
  13   6     0.09   0.02   0.06     0.02  -0.10  -0.16    -0.06   0.05  -0.02
  14   1     0.03   0.01   0.03     0.01  -0.03  -0.03    -0.03   0.01   0.00
  15   1     0.01  -0.01   0.01     0.01  -0.04  -0.05    -0.01   0.01  -0.01
  16   1     0.02   0.02   0.01     0.00  -0.02  -0.05    -0.01   0.01  -0.01
  17   6     0.09  -0.02   0.11     0.03  -0.21  -0.12    -0.08   0.14   0.01
  18   1     0.02  -0.01   0.04     0.01  -0.08  -0.01    -0.03   0.05  -0.01
  19   1     0.03  -0.00   0.04     0.01  -0.05  -0.03    -0.02   0.03   0.01
  20   1     0.03  -0.01   0.03     0.01  -0.08  -0.06    -0.03   0.05   0.01
  21   1     0.03   0.01   0.02    -0.01   0.04  -0.03     0.00   0.01   0.01
  22   6    -0.07   0.01   0.04    -0.03   0.02   0.10     0.10  -0.05  -0.05
  23   8    -0.01   0.10  -0.05     0.05   0.12  -0.02    -0.10  -0.20  -0.01
  24   7     0.04   0.09  -0.03     0.05   0.04   0.07     0.47   0.15  -0.29
  25   1     0.02   0.03  -0.02     0.03   0.02  -0.00     0.10   0.01  -0.06
  26   1    -0.01  -0.01   0.02    -0.00  -0.02   0.05     0.14   0.05  -0.07
  27   7    -0.29  -0.16   0.24    -0.22  -0.12   0.29    -0.01  -0.09   0.09
  28   1    -0.06  -0.03   0.07    -0.06  -0.04   0.09     0.06   0.03   0.01
  29   1    -0.07  -0.03   0.06    -0.06  -0.02   0.07    -0.05  -0.04   0.06
  30   6    -0.04   0.02  -0.09    -0.02   0.00  -0.03    -0.01  -0.08   0.01
  31   8     0.04  -0.00  -0.12     0.05  -0.02  -0.01     0.04  -0.12  -0.06
  32   7     0.04   0.02  -0.16     0.16  -0.01  -0.16    -0.16  -0.08   0.10
  33   1     0.02   0.01  -0.04     0.05   0.01  -0.04    -0.03  -0.03   0.02
  34   1    -0.02   0.02  -0.03    -0.00   0.01  -0.03    -0.03  -0.02   0.03
  35   7    -0.22   0.04  -0.03    -0.31   0.03   0.07     0.06  -0.08  -0.01
  36   1    -0.06   0.01  -0.02    -0.07   0.00  -0.00    -0.01  -0.01   0.02
  37   1    -0.06   0.01  -0.01    -0.09  -0.00   0.03     0.03  -0.02  -0.01
  38   6    -0.04  -0.14   0.00     0.03   0.09   0.06    -0.02   0.01   0.05
  39   8    -0.07  -0.11  -0.02     0.00   0.16  -0.04    -0.10   0.14  -0.10
  40   7    -0.01  -0.26   0.16     0.05   0.05   0.13     0.03  -0.17   0.29
  41   1    -0.01  -0.06   0.03     0.01   0.02   0.02    -0.01  -0.03   0.06
  42   1    -0.01  -0.07   0.02     0.02   0.01   0.05     0.02  -0.06   0.09
  43   7    -0.05  -0.09  -0.13     0.06   0.06   0.12     0.03   0.02   0.01
  44   1     0.00  -0.05   0.00     0.02   0.01   0.05     0.03  -0.03   0.05
  45   1    -0.01  -0.02  -0.04     0.01   0.02   0.02     0.00   0.03  -0.03
  46   6    -0.04   0.07  -0.11     0.02  -0.04   0.08    -0.01  -0.03  -0.01
  47   8    -0.15  -0.11  -0.02     0.12   0.11  -0.02    -0.04  -0.01   0.06
  48   7     0.10   0.31  -0.24    -0.09  -0.21   0.16    -0.02  -0.27   0.09
  49   1     0.02   0.05  -0.05    -0.01  -0.02   0.02    -0.00  -0.08   0.04
  50   1     0.03   0.08  -0.07    -0.03  -0.05   0.05     0.02  -0.04  -0.01
  51   7    -0.06   0.08  -0.17     0.02  -0.11   0.16     0.04   0.15  -0.16
  52   1     0.01   0.06  -0.06    -0.02  -0.06   0.06     0.02   0.02  -0.06
  53   1    -0.03  -0.01  -0.02     0.02  -0.00   0.02     0.00   0.05  -0.05
                     10                     11                     12
                        a                      a                      a 
 Frequencies --    53.4175                61.3819                65.0360
 Red. masses --    12.2889                12.3718                12.5938
 Frc consts  --     0.0000                 0.0000                 0.0000
 IR Inten    --     0.4431                 6.8072                 1.6800
 Raman Activ --     0.0000                 0.0000                 0.0000
 Depolar     --     0.0000                 0.0000                 0.0000
 Atom AN      X      Y      Z        X      Y      Z        X      Y      Z
   1   8    -0.04   0.20   0.03    -0.16   0.02   0.05    -0.12  -0.05   0.06
   2   6     0.06   0.16   0.07    -0.12  -0.03   0.12    -0.15  -0.06   0.06
   3   1     0.05   0.05   0.03    -0.06  -0.00   0.05    -0.06  -0.02   0.02
   4   1     0.01   0.07   0.01    -0.03  -0.03   0.05    -0.04  -0.03   0.02
   5   6     0.04   0.00   0.10    -0.03  -0.05   0.04    -0.13  -0.01   0.04
   6   1     0.03  -0.01   0.05    -0.01  -0.02   0.03    -0.05  -0.01   0.01
   7   1     0.01  -0.01   0.04    -0.02   0.01  -0.01    -0.04   0.01   0.01
   8   7    -0.06  -0.08   0.02     0.11  -0.11  -0.02    -0.09  -0.02   0.05
   9   6    -0.10  -0.05  -0.05     0.14  -0.05  -0.11     0.00   0.01   0.05
  10   1    -0.03   0.00  -0.02     0.03  -0.01  -0.03     0.01  -0.01   0.01
  11   1    -0.03  -0.02  -0.02     0.05  -0.03  -0.04     0.01  -0.00   0.01
  12   1    -0.03  -0.02  -0.02     0.04   0.00  -0.04     0.00   0.02   0.02
  13   6    -0.09  -0.04  -0.04     0.14  -0.22   0.05    -0.08  -0.10   0.03
  14   1    -0.02  -0.01  -0.01     0.03  -0.07   0.03    -0.04  -0.04   0.00
  15   1    -0.04  -0.02  -0.02     0.06  -0.07   0.01    -0.01  -0.02   0.01
  16   1    -0.02   0.00  -0.02     0.04  -0.07   0.02    -0.01  -0.05   0.01
  17   6    -0.07  -0.20   0.08     0.14  -0.10  -0.05    -0.11   0.04   0.05
  18   1    -0.02  -0.07   0.04     0.03  -0.04   0.00    -0.04   0.01   0.01
  19   1    -0.02  -0.06   0.03     0.03  -0.00  -0.03    -0.03   0.02   0.02
  20   1    -0.04  -0.08   0.00     0.07  -0.04  -0.03    -0.02   0.01   0.02
  21   1    -0.00   0.03   0.01    -0.04   0.01   0.01    -0.03   0.00   0.01
  22   6     0.01   0.00  -0.02     0.00   0.01   0.03     0.01   0.05  -0.04
  23   8    -0.17  -0.12   0.02     0.07   0.06   0.00    -0.14  -0.07   0.03
  24   7     0.27   0.12  -0.18     0.08   0.11  -0.05     0.22   0.19  -0.19
  25   1     0.05   0.01  -0.04     0.02   0.03  -0.01     0.03   0.03  -0.03
  26   1     0.10   0.05  -0.04    -0.00   0.00   0.00     0.08   0.07  -0.06
  27   7    -0.02   0.03   0.06    -0.16  -0.17   0.15     0.01   0.07  -0.02
  28   1     0.04   0.04   0.00    -0.03  -0.03   0.03     0.04   0.05  -0.02
  29   1    -0.05  -0.00   0.04    -0.03  -0.04   0.04    -0.03   0.00   0.02
  30   6    -0.04  -0.04  -0.01    -0.03   0.00   0.03     0.12   0.00  -0.03
  31   8     0.02  -0.07  -0.08    -0.11   0.03   0.11    -0.12   0.08   0.10
  32   7    -0.26  -0.00   0.12    -0.14   0.06   0.07     0.64  -0.16  -0.29
  33   1    -0.06  -0.01   0.02    -0.03   0.02   0.02     0.10  -0.03  -0.04
  34   1    -0.06  -0.00   0.03     0.01  -0.00  -0.01     0.15  -0.03  -0.07
  35   7     0.11  -0.07  -0.07     0.17  -0.10  -0.10    -0.06   0.07   0.06
  36   1    -0.01  -0.00   0.01     0.03  -0.02  -0.02     0.08  -0.02  -0.04
  37   1     0.05  -0.02  -0.03     0.03  -0.03  -0.02    -0.06   0.03   0.04
  38   6     0.04   0.00  -0.03    -0.02   0.09  -0.07    -0.01  -0.01  -0.02
  39   8     0.09  -0.10   0.06    -0.02   0.10  -0.03     0.01  -0.04   0.04
  40   7     0.02   0.13  -0.19    -0.13   0.21  -0.36    -0.04   0.05  -0.12
  41   1     0.02   0.03  -0.04    -0.03   0.03  -0.06    -0.00   0.00  -0.01
  42   1    -0.00   0.05  -0.05    -0.02   0.03  -0.06    -0.01   0.01  -0.03
  43   7    -0.00  -0.02   0.03     0.09  -0.04   0.17    -0.00  -0.03   0.02
  44   1    -0.02   0.03  -0.03     0.00   0.03  -0.04    -0.01   0.01  -0.03
  45   1    -0.00  -0.02   0.02     0.02   0.00   0.04    -0.00  -0.01   0.01
  46   6     0.04   0.02   0.02    -0.01   0.04   0.00     0.01  -0.01   0.03
  47   8     0.12   0.05  -0.09    -0.14  -0.11   0.17    -0.02  -0.06   0.07
  48   7     0.08   0.35  -0.11     0.07  -0.01   0.02     0.06   0.10  -0.01
  49   1     0.02   0.11  -0.06     0.01  -0.04   0.04     0.01   0.02   0.00
  50   1    -0.02   0.04   0.02     0.05   0.04  -0.04     0.01   0.02  -0.00
  51   7    -0.04  -0.29   0.26     0.04   0.29  -0.19    -0.01  -0.03   0.04
  52   1    -0.02  -0.07   0.09     0.04   0.10  -0.08     0.01   0.00   0.01
  53   1     0.00  -0.08   0.06    -0.00   0.06  -0.04    -0.00  -0.01   0.01
                     13                     14                     15
                        a                      a                      a 
 Frequencies --    76.7172                81.2383                93.8768
 Red. masses --    12.2385                10.2973                13.1338
 Frc consts  --     0.0000                 0.0000                 0.0000
 IR Inten    --     1.6221                 1.2601                 0.1271
 Raman Activ --     0.0000                 0.0000                 0.0000
 Depolar     --     0.0000                 0.0000                 0.0000
 Atom AN      X      Y      Z        X      Y      Z        X      Y      Z
   1   8     0.24   0.15   0.01    -0.07  -0.02   0.14    -0.15  -0.02   0.12
   2   6     0.15   0.11   0.03    -0.03   0.04   0.05     0.10   0.07   0.06
   3   1     0.07   0.04   0.02    -0.00   0.00  -0.00     0.08   0.01   0.00
   4   1     0.03   0.04  -0.03    -0.01   0.03   0.02     0.03   0.09   0.03
   5   6     0.01   0.03   0.15    -0.01   0.09   0.04     0.16  -0.08   0.02
   6   1    -0.03  -0.01   0.06    -0.03   0.02   0.02     0.09  -0.02   0.01
   7   1     0.02   0.03   0.08    -0.00   0.05   0.01     0.04  -0.06  -0.00
   8   7    -0.07  -0.07   0.05     0.09   0.05  -0.00     0.02  -0.10   0.01
   9   6     0.07   0.01  -0.02     0.45   0.15   0.02     0.03  -0.11   0.06
  10   1     0.05   0.01  -0.03     0.19   0.03  -0.04     0.02  -0.03   0.00
  11   1     0.01  -0.01  -0.02     0.11   0.03  -0.01    -0.01  -0.03   0.02
  12   1     0.03   0.03   0.03     0.15   0.10   0.08     0.02  -0.04   0.04
  13   6    -0.13  -0.20  -0.12     0.03  -0.28  -0.21    -0.05  -0.03  -0.13
  14   1    -0.07  -0.07  -0.03    -0.07  -0.11  -0.08    -0.02  -0.00  -0.07
  15   1    -0.05  -0.07  -0.04     0.01  -0.07  -0.06    -0.04   0.01  -0.03
  16   1    -0.00  -0.06  -0.07     0.08  -0.13  -0.09     0.01  -0.02  -0.05
  17   6    -0.21  -0.11   0.19    -0.14   0.22   0.13    -0.06  -0.11   0.09
  18   1    -0.09  -0.05   0.06    -0.11   0.04   0.03    -0.03  -0.04   0.03
  19   1    -0.05  -0.01   0.09    -0.03   0.12   0.08    -0.01  -0.03   0.05
  20   1    -0.07  -0.05   0.04    -0.02   0.06   0.04    -0.03  -0.04   0.02
  21   1     0.06   0.04   0.01    -0.03  -0.01   0.02    -0.04  -0.04   0.01
  22   6    -0.10  -0.06   0.01    -0.01  -0.03  -0.01    -0.03   0.03   0.00
  23   8    -0.23  -0.14   0.04     0.09   0.01   0.03    -0.06  -0.00   0.07
  24   7    -0.16  -0.19   0.09    -0.12   0.00   0.01    -0.00   0.12  -0.05
  25   1    -0.03  -0.05   0.01    -0.04   0.01   0.01    -0.01   0.03   0.00
  26   1    -0.00  -0.02   0.01    -0.06  -0.01  -0.00    -0.00   0.04  -0.02
  27   7     0.08   0.16  -0.10    -0.03  -0.13  -0.07    -0.04   0.00  -0.02
  28   1     0.02   0.04  -0.01    -0.03  -0.04  -0.03    -0.00   0.01  -0.02
  29   1     0.00   0.05  -0.02     0.02  -0.04  -0.03    -0.01  -0.01   0.00
  30   6     0.03  -0.04  -0.06    -0.04  -0.02   0.02    -0.03   0.01   0.03
  31   8     0.18  -0.09  -0.24    -0.14   0.00   0.05    -0.16   0.05   0.11
  32   7     0.03  -0.11  -0.02    -0.04  -0.04   0.03     0.03  -0.00   0.00
  33   1    -0.00  -0.04  -0.01    -0.00  -0.01   0.00    -0.01   0.01   0.01
  34   1    -0.05  -0.01   0.04     0.02  -0.02  -0.01     0.03  -0.01  -0.01
  35   7    -0.13   0.09   0.07     0.05  -0.04  -0.02     0.07  -0.02  -0.02
  36   1    -0.03   0.02   0.04     0.02  -0.01  -0.00     0.03  -0.01  -0.01
  37   1    -0.00   0.03  -0.00    -0.00  -0.00   0.00    -0.00  -0.00   0.00
  38   6     0.01   0.08  -0.03    -0.02   0.03  -0.01     0.04  -0.06   0.08
  39   8    -0.00   0.11  -0.02    -0.07   0.12  -0.16     0.16  -0.28   0.21
  40   7    -0.04   0.10  -0.13     0.00  -0.03   0.08     0.11   0.07   0.07
  41   1    -0.01   0.01  -0.01    -0.00   0.01  -0.00     0.04   0.03  -0.01
  42   1     0.00   0.01  -0.01     0.01  -0.02   0.05    -0.01   0.08  -0.04
  43   7     0.07   0.03   0.06     0.03  -0.04   0.11    -0.18   0.06  -0.10
  44   1     0.01   0.02  -0.02     0.01  -0.01   0.03    -0.04   0.01   0.05
  45   1     0.02   0.02   0.00    -0.01   0.01  -0.01    -0.04  -0.06   0.05
  46   6     0.04   0.03   0.01    -0.01  -0.01  -0.05     0.03   0.12  -0.16
  47   8    -0.04  -0.07   0.13     0.09   0.12  -0.18     0.11   0.25  -0.29
  48   7     0.10  -0.07   0.04    -0.04   0.06  -0.08    -0.20  -0.24   0.00
  49   1     0.03  -0.04   0.04    -0.01   0.04  -0.05    -0.05  -0.03  -0.03
  50   1     0.06   0.02  -0.03    -0.04  -0.03   0.01    -0.03  -0.00  -0.01
  51   7     0.10   0.24  -0.16    -0.07  -0.23   0.10     0.13   0.28  -0.19
  52   1     0.05   0.08  -0.06    -0.04  -0.08   0.04     0.01   0.05  -0.03
  53   1     0.01   0.05  -0.03    -0.01  -0.03   0.01     0.04   0.05  -0.03
                     16                     17                     18
                        a                      a                      a 
 Frequencies --   116.2821               118.7287               120.9375
 Red. masses --    13.2843                13.2355                13.0431
 Frc consts  --     0.0000                 0.0000                 0.0000
 IR Inten    --    11.8758                 1.8993                 2.5861
 Raman Activ --     0.0000                 0.0000                 0.0000
 Depolar     --     0.0000                 0.0000                 0.0000
 Atom AN      X      Y      Z        X      Y      Z        X      Y      Z
   1   8     0.02   0.02  -0.01     0.03   0.13  -0.08     0.08   0.09  -0.04
   2   6     0.03   0.05  -0.05    -0.05   0.06  -0.03    -0.01   0.04  -0.01
   3   1     0.04   0.01  -0.02    -0.03   0.03   0.01    -0.01   0.02   0.01
   4   1    -0.00   0.04  -0.03    -0.02  -0.01  -0.01    -0.01  -0.00  -0.02
   5   6    -0.05   0.01   0.03    -0.08   0.06  -0.00    -0.06   0.03   0.03
   6   1    -0.02   0.00   0.01    -0.04   0.01   0.01    -0.03   0.01   0.01
   7   1    -0.01   0.00   0.03    -0.02   0.04   0.00    -0.01   0.02   0.01
   8   7    -0.16  -0.01   0.02    -0.04   0.03  -0.03    -0.08   0.02   0.01
   9   6    -0.13  -0.01   0.04     0.06   0.07  -0.05     0.01   0.03   0.03
  10   1    -0.02  -0.00   0.00     0.03   0.01  -0.02     0.02   0.00  -0.00
  11   1    -0.05  -0.00   0.01     0.03   0.01  -0.02    -0.00   0.01   0.01
  12   1    -0.03  -0.01   0.03     0.02   0.04  -0.00     0.01   0.02   0.02
  13   6    -0.19  -0.00  -0.07    -0.05  -0.08  -0.07    -0.09  -0.06  -0.05
  14   1    -0.06  -0.00  -0.02    -0.04  -0.03  -0.04    -0.04  -0.03  -0.01
  15   1    -0.07  -0.01  -0.03    -0.01  -0.01  -0.01    -0.03  -0.03  -0.02
  16   1    -0.05   0.01  -0.04     0.01  -0.05  -0.02    -0.01  -0.02  -0.03
  17   6    -0.22  -0.03   0.08    -0.09   0.08  -0.00    -0.13   0.05   0.05
  18   1    -0.07  -0.01   0.02    -0.04   0.02  -0.00    -0.05   0.01   0.01
  19   1    -0.05  -0.01   0.05    -0.03   0.04   0.01    -0.03   0.02   0.02
  20   1    -0.08  -0.01   0.02    -0.02   0.02  -0.00    -0.04   0.02   0.02
  21   1    -0.00  -0.00  -0.01     0.02   0.04  -0.00     0.04   0.03   0.02
  22   6     0.21   0.08   0.03     0.07  -0.04  -0.03     0.06  -0.09  -0.10
  23   8     0.56   0.24   0.12     0.13   0.02  -0.12     0.06  -0.03  -0.31
  24   7    -0.01   0.25   0.03     0.04  -0.10   0.00     0.11  -0.26  -0.05
  25   1    -0.00   0.09   0.02     0.02  -0.02  -0.01     0.04  -0.07  -0.02
  26   1    -0.07   0.02   0.00     0.00  -0.04   0.01     0.03  -0.08   0.01
  27   7     0.10  -0.27  -0.07     0.03  -0.07   0.02    -0.00  -0.05   0.04
  28   1    -0.02  -0.08  -0.07    -0.00  -0.03   0.02     0.01  -0.02   0.04
  29   1     0.10  -0.09  -0.04     0.02  -0.01  -0.01    -0.00   0.02  -0.01
  30   6    -0.03  -0.03  -0.09     0.01   0.04  -0.01     0.02   0.11   0.05
  31   8    -0.06  -0.04  -0.20     0.09   0.03   0.06     0.13   0.13   0.35
  32   7    -0.05  -0.11  -0.04    -0.03   0.13  -0.04    -0.01   0.38  -0.08
  33   1     0.01  -0.04  -0.02     0.02   0.04  -0.02     0.04   0.12  -0.02
  34   1    -0.00  -0.03  -0.01    -0.00   0.03  -0.03     0.02   0.09  -0.08
  35   7    -0.01   0.04  -0.06    -0.05  -0.04  -0.05    -0.08  -0.15  -0.10
  36   1     0.01   0.01   0.00    -0.04  -0.00  -0.03    -0.07  -0.03  -0.08
  37   1    -0.00   0.03  -0.03    -0.01  -0.03  -0.00    -0.04  -0.09   0.02
  38   6    -0.03  -0.02   0.02     0.12  -0.10   0.02    -0.08  -0.04   0.05
  39   8    -0.03  -0.02   0.13     0.28  -0.39  -0.03    -0.10  -0.02   0.23
  40   7    -0.09  -0.03  -0.06     0.28   0.15   0.04    -0.18  -0.09  -0.06
  41   1    -0.02  -0.02   0.01     0.10   0.04   0.01    -0.05  -0.04   0.00
  42   1    -0.02  -0.01  -0.02     0.04   0.10  -0.01    -0.05  -0.03  -0.04
  43   7     0.01  -0.00  -0.04    -0.20  -0.04   0.01     0.00  -0.01  -0.06
  44   1     0.01  -0.01  -0.02    -0.07   0.02   0.08     0.00  -0.01  -0.05
  45   1     0.02  -0.00   0.01    -0.08  -0.09   0.04     0.02   0.00   0.01
  46   6     0.04  -0.02   0.05    -0.13   0.01   0.10     0.08  -0.02   0.01
  47   8     0.02  -0.14   0.08    -0.26   0.10   0.30     0.13  -0.16  -0.08
  48   7     0.03   0.02   0.04     0.14  -0.01   0.08    -0.07   0.03   0.01
  49   1    -0.00  -0.01   0.01     0.06  -0.01   0.07    -0.04  -0.00  -0.02
  50   1     0.02   0.03   0.01     0.05  -0.06  -0.01    -0.02   0.05   0.02
  51   7     0.10   0.07   0.05    -0.28  -0.05  -0.09     0.21   0.09   0.10
  52   1     0.04   0.04   0.01    -0.04  -0.01  -0.06     0.05   0.04   0.04
  53   1     0.03   0.00   0.02    -0.09  -0.01  -0.02     0.06   0.00   0.04
                     19                     20                     21
                        a                      a                      a 
 Frequencies --   126.9001               130.1511               162.6557
 Red. masses --    11.4874                12.3927                13.4088
 Frc consts  --     0.0000                 0.0000                 0.0000
 IR Inten    --    16.2174                24.9265                 5.7970
 Raman Activ --     0.0000                 0.0000                 0.0000
 Depolar     --     0.0000                 0.0000                 0.0000
 Atom AN      X      Y      Z        X      Y      Z        X      Y      Z
   1   8    -0.01  -0.23   0.09    -0.19   0.07  -0.11    -0.16  -0.01  -0.00
   2   6     0.27   0.02  -0.11     0.09   0.16  -0.16    -0.05  -0.01   0.03
   3   1     0.17  -0.03  -0.08     0.08   0.03  -0.06    -0.02  -0.00   0.01
   4   1     0.06   0.12  -0.04     0.02   0.11  -0.03    -0.01   0.00   0.03
   5   6     0.24  -0.10  -0.07     0.16   0.04  -0.21     0.04  -0.06  -0.04
   6   1     0.11  -0.01  -0.04     0.09   0.02  -0.07     0.04  -0.01  -0.02
   7   1     0.08  -0.09  -0.00     0.04  -0.03  -0.07     0.00  -0.04  -0.03
   8   7    -0.03  -0.03  -0.02     0.12   0.09  -0.17     0.02  -0.01   0.01
   9   6    -0.09  -0.09   0.08     0.17   0.05  -0.05     0.02  -0.03   0.05
  10   1    -0.01  -0.02   0.01     0.07   0.01  -0.03     0.01  -0.01   0.01
  11   1    -0.05  -0.01   0.03     0.02   0.02  -0.01    -0.01  -0.01   0.02
  12   1    -0.02  -0.05   0.04     0.06   0.01   0.02     0.01  -0.02   0.03
  13   6    -0.12   0.15  -0.18     0.09   0.06  -0.22     0.01   0.01  -0.00
  14   1    -0.01   0.06  -0.07     0.03   0.02  -0.05     0.00   0.01  -0.02
  15   1    -0.09   0.05  -0.05     0.02  -0.00  -0.07     0.00   0.02   0.01
  16   1    -0.03   0.06  -0.07     0.03   0.03  -0.08     0.01  -0.01   0.01
  17   6    -0.14  -0.09   0.09     0.03   0.18  -0.11     0.00   0.03   0.01
  18   1    -0.04  -0.01   0.01    -0.01   0.06  -0.06    -0.00   0.01  -0.01
  19   1    -0.02  -0.05   0.06     0.02   0.05  -0.02     0.00  -0.00   0.00
  20   1    -0.08  -0.02   0.03    -0.00   0.07  -0.01    -0.00   0.01   0.01
  21   1    -0.01  -0.11   0.00    -0.05  -0.03  -0.05    -0.05  -0.00  -0.02
  22   6    -0.03   0.01  -0.03    -0.09   0.01   0.04     0.10  -0.17   0.23
  23   8    -0.03  -0.01  -0.00    -0.18  -0.05   0.10    -0.03  -0.34   0.36
  24   7    -0.01   0.06  -0.07    -0.06   0.05   0.01     0.12  -0.14   0.19
  25   1    -0.01   0.02  -0.00    -0.02   0.01   0.00     0.04  -0.03   0.06
  26   1    -0.01   0.02  -0.03     0.00   0.03  -0.01     0.07   0.01   0.01
  27   7    -0.04  -0.03  -0.05    -0.04   0.08  -0.00     0.26  -0.10   0.10
  28   1    -0.00   0.00  -0.03    -0.01   0.02   0.00     0.07  -0.02   0.01
  29   1    -0.00  -0.01  -0.01    -0.03   0.01   0.02     0.04  -0.06   0.06
  30   6    -0.04   0.04   0.08    -0.02  -0.03   0.02    -0.10   0.17  -0.22
  31   8    -0.15   0.09   0.31    -0.09  -0.02  -0.03    -0.11   0.22  -0.16
  32   7     0.02   0.15  -0.02    -0.01  -0.10   0.06    -0.09   0.22  -0.23
  33   1     0.00   0.06   0.01    -0.02  -0.03   0.02    -0.02   0.06  -0.07
  34   1     0.03   0.03  -0.05     0.00  -0.03   0.03    -0.00   0.05  -0.07
  35   7     0.02  -0.13  -0.05     0.04   0.04   0.05    -0.08   0.17  -0.26
  36   1     0.00  -0.04  -0.05     0.03   0.01   0.03    -0.02   0.04  -0.07
  37   1    -0.03  -0.06   0.02     0.01   0.03   0.00    -0.03   0.05  -0.06
  38   6     0.04   0.09  -0.07    -0.05  -0.11   0.06    -0.00   0.01  -0.01
  39   8    -0.02   0.22  -0.23    -0.02  -0.19   0.27    -0.01   0.03  -0.02
  40   7     0.05   0.03   0.01    -0.12  -0.08  -0.06    -0.00  -0.01   0.00
  41   1     0.01   0.01   0.01    -0.03  -0.04   0.02    -0.00  -0.00  -0.00
  42   1     0.04  -0.02   0.04    -0.04  -0.02  -0.04     0.00  -0.01   0.00
  43   7     0.14   0.03   0.05    -0.07  -0.06  -0.07     0.02   0.00   0.00
  44   1     0.04   0.01  -0.01    -0.02  -0.01  -0.04     0.01   0.00  -0.01
  45   1     0.03   0.05  -0.04    -0.00  -0.03   0.02     0.01   0.01  -0.01
  46   6    -0.04  -0.04   0.06     0.03  -0.07   0.15     0.00   0.00  -0.00
  47   8    -0.13  -0.03   0.21    -0.03  -0.30   0.23     0.00   0.02  -0.00
  48   7     0.17   0.01   0.02     0.06   0.08   0.10     0.01  -0.01  -0.00
  49   1     0.06  -0.01   0.04    -0.00  -0.02   0.04     0.01   0.00  -0.00
  50   1     0.06  -0.03  -0.02     0.02   0.04   0.02     0.00   0.00  -0.00
  51   7    -0.12  -0.08  -0.05     0.11   0.06   0.14    -0.01  -0.01  -0.00
  52   1    -0.01  -0.01  -0.04     0.05   0.05   0.03    -0.00  -0.00  -0.00
  53   1    -0.04  -0.00  -0.03     0.03  -0.01   0.06    -0.00   0.00  -0.00
                     22                     23                     24
                        a                      a                      a 
 Frequencies --   171.8213               175.1458               185.0316
 Red. masses --    13.2598                12.3997                 6.0082
 Frc consts  --     0.0000                 0.0000                 0.0000
 IR Inten    --     4.6006                60.8412                94.6704
 Raman Activ --     0.0000                 0.0000                 0.0000
 Depolar     --     0.0000                 0.0000                 0.0000
 Atom AN      X      Y      Z        X      Y      Z        X      Y      Z
   1   8    -0.06   0.01  -0.01    -0.33  -0.07   0.11     0.01  -0.08   0.09
   2   6    -0.01   0.00   0.02    -0.06   0.02   0.07     0.03   0.01  -0.02
   3   1    -0.00   0.00   0.01     0.01  -0.01   0.00     0.03  -0.01  -0.02
   4   1     0.00   0.00   0.01    -0.01   0.06   0.05     0.00   0.03  -0.01
   5   6     0.03  -0.03  -0.01     0.08  -0.10  -0.04    -0.02   0.03   0.02
   6   1     0.03  -0.01  -0.01     0.08  -0.01  -0.02    -0.02   0.01   0.01
   7   1     0.00  -0.03  -0.01     0.01  -0.08  -0.04    -0.00   0.02   0.01
   8   7    -0.00  -0.02   0.01    -0.01  -0.04   0.02    -0.01   0.01  -0.01
   9   6    -0.00  -0.03   0.03     0.00  -0.08   0.12    -0.02   0.02  -0.04
  10   1     0.01   0.00  -0.00     0.02  -0.02   0.02    -0.02   0.00   0.00
  11   1    -0.02  -0.01   0.00    -0.03  -0.01   0.04     0.02   0.01  -0.01
  12   1     0.01  -0.02   0.03     0.01  -0.04   0.06    -0.01   0.01  -0.03
  13   6    -0.01   0.00  -0.01    -0.06   0.02  -0.06    -0.01  -0.00  -0.01
  14   1    -0.01   0.01  -0.04    -0.02   0.01  -0.05     0.02  -0.00   0.04
  15   1    -0.00   0.03   0.02    -0.03   0.03   0.00    -0.01  -0.04  -0.03
  16   1     0.01  -0.03   0.01    -0.00  -0.02  -0.02    -0.01   0.04  -0.02
  17   6    -0.02  -0.00   0.02    -0.07   0.01   0.06     0.00  -0.03  -0.01
  18   1    -0.01  -0.00   0.00    -0.04   0.00   0.01     0.01  -0.01  -0.00
  19   1    -0.00   0.00   0.01    -0.02   0.01   0.03     0.00  -0.02  -0.00
  20   1    -0.00  -0.00   0.01    -0.02   0.01   0.02    -0.01  -0.01  -0.01
  21   1    -0.02   0.00  -0.01    -0.10  -0.04  -0.01    -0.00  -0.03   0.01
  22   6     0.01   0.00  -0.02     0.10  -0.01  -0.08     0.02  -0.01  -0.00
  23   8     0.02   0.03  -0.07     0.12   0.14  -0.43     0.02   0.01  -0.05
  24   7     0.02  -0.04   0.00     0.15  -0.31   0.05     0.03  -0.05   0.01
  25   1     0.01  -0.01  -0.01     0.06  -0.10  -0.03     0.01  -0.01  -0.00
  26   1     0.00  -0.02   0.01     0.04  -0.11   0.07     0.01  -0.01   0.01
  27   7    -0.01   0.02   0.03    -0.01   0.15   0.23     0.01   0.02   0.04
  28   1     0.00   0.00   0.02     0.02   0.01   0.14    -0.00  -0.01   0.03
  29   1    -0.00   0.02   0.00    -0.02   0.13   0.02    -0.01   0.01   0.01
  30   6     0.01  -0.00   0.00     0.01   0.03  -0.03    -0.02   0.01  -0.01
  31   8     0.00  -0.00  -0.03    -0.06   0.04  -0.22    -0.07   0.02  -0.02
  32   7     0.00  -0.02   0.02    -0.01  -0.11   0.07    -0.01  -0.02   0.00
  33   1    -0.00  -0.01   0.00    -0.00  -0.06   0.00    -0.00  -0.01  -0.00
  34   1    -0.00  -0.00   0.01     0.01  -0.03   0.05     0.01  -0.01  -0.00
  35   7     0.02   0.03   0.02     0.11   0.28   0.09     0.02   0.05   0.00
  36   1     0.01   0.01   0.01     0.09   0.06   0.07     0.02   0.01   0.00
  37   1     0.01   0.02  -0.00     0.06   0.12  -0.02     0.00   0.02  -0.01
  38   6    -0.05  -0.20  -0.19     0.01   0.05   0.03     0.02   0.01  -0.10
  39   8    -0.14  -0.10  -0.19     0.01   0.07   0.04     0.07  -0.11  -0.23
  40   7    -0.12  -0.28  -0.19     0.00   0.04   0.02     0.15   0.06   0.10
  41   1    -0.04  -0.08  -0.05    -0.01   0.01   0.00     0.09  -0.02   0.07
  42   1    -0.01  -0.10  -0.01    -0.00   0.01  -0.01     0.09  -0.03   0.17
  43   7     0.07  -0.28  -0.12     0.05   0.07   0.01    -0.16  -0.13   0.22
  44   1     0.00  -0.05  -0.12     0.03  -0.01   0.03    -0.22   0.31  -0.43
  45   1     0.01  -0.02  -0.10     0.03   0.01   0.03    -0.21   0.15  -0.37
  46   6     0.04   0.25   0.16    -0.01  -0.05  -0.03     0.01   0.00   0.04
  47   8     0.13   0.51   0.13    -0.04  -0.06   0.00     0.03  -0.18  -0.02
  48   7     0.09  -0.01   0.29     0.04  -0.00  -0.06    -0.18   0.08   0.03
  49   1     0.08   0.08   0.07     0.00  -0.03   0.00    -0.08  -0.01  -0.02
  50   1     0.05   0.01   0.04    -0.00  -0.04  -0.00    -0.06   0.07   0.03
  51   7    -0.01   0.16   0.12    -0.03  -0.05  -0.05     0.13   0.14   0.10
  52   1    -0.04  -0.03   0.04    -0.00  -0.01  -0.02     0.04   0.06   0.04
  53   1    -0.02   0.05   0.04    -0.01  -0.01  -0.02     0.06   0.02   0.04
                     25                     26                     27
                        a                      a                      a 
 Frequencies --   197.5295               201.2492               219.1828
 Red. masses --     9.2775                10.3225                 2.8397
 Frc consts  --     0.0000                 0.0000                 0.0000
 IR Inten    --    37.5962               102.4702               221.8989
 Raman Activ --     0.0000                 0.0000                 0.0000
 Depolar     --     0.0000                 0.0000                 0.0000
 Atom AN      X      Y      Z        X      Y      Z        X      Y      Z
   1   8    -0.18   0.27  -0.34    -0.12   0.12  -0.17     0.07   0.01  -0.02
   2   6    -0.10  -0.04   0.06    -0.05  -0.04   0.06     0.02  -0.01  -0.00
   3   1    -0.09   0.03   0.09    -0.05   0.01   0.06    -0.00  -0.00   0.00
   4   1    -0.01  -0.07   0.06    -0.00  -0.04   0.04     0.01  -0.01  -0.00
   5   6     0.10  -0.21  -0.09     0.08  -0.15  -0.04     0.00   0.00   0.01
   6   1     0.12  -0.04  -0.04     0.08  -0.02  -0.03    -0.01  -0.00   0.01
   7   1     0.01  -0.14  -0.07     0.01  -0.10  -0.04     0.00   0.01   0.01
   8   7     0.02  -0.07   0.08     0.01  -0.05   0.07    -0.00  -0.01  -0.00
   9   6     0.05  -0.13   0.22     0.01  -0.08   0.16    -0.01   0.00  -0.03
  10   1     0.07  -0.02   0.02     0.05  -0.00   0.01     0.00   0.01  -0.02
  11   1    -0.06  -0.03   0.06    -0.06  -0.03   0.04    -0.01  -0.01  -0.02
  12   1     0.04  -0.07   0.14     0.03  -0.05   0.11    -0.00  -0.00  -0.00
  13   6    -0.01   0.01   0.04    -0.01   0.03   0.04     0.00  -0.00   0.00
  14   1    -0.02   0.02  -0.08    -0.02   0.02  -0.05    -0.01   0.00  -0.02
  15   1    -0.01   0.08   0.06    -0.01   0.05   0.04     0.00   0.02   0.01
  16   1     0.02  -0.07   0.05     0.01  -0.04   0.03     0.00  -0.02   0.01
  17   6    -0.04   0.10   0.08    -0.04   0.06   0.07     0.00  -0.03   0.00
  18   1    -0.04   0.03  -0.00    -0.03   0.02   0.01     0.00  -0.01   0.01
  19   1    -0.01   0.04   0.03    -0.01   0.03   0.03     0.00  -0.01   0.00
  20   1    -0.00   0.05   0.04    -0.00   0.03   0.03    -0.00  -0.01   0.00
  21   1    -0.03   0.08  -0.06    -0.03   0.04  -0.03     0.02   0.01  -0.00
  22   6    -0.03   0.04  -0.02    -0.02   0.01  -0.02     0.00  -0.01   0.01
  23   8    -0.00   0.03   0.05    -0.01   0.01   0.01    -0.00  -0.01   0.00
  24   7    -0.06   0.10  -0.04    -0.02   0.04  -0.02     0.01  -0.01   0.01
  25   1    -0.01   0.04  -0.01    -0.01   0.01  -0.00    -0.00  -0.01   0.01
  26   1    -0.02   0.03  -0.02    -0.02  -0.00   0.00    -0.00  -0.00   0.00
  27   7    -0.04  -0.05  -0.08    -0.02  -0.02  -0.03     0.01   0.00   0.01
  28   1    -0.00   0.01  -0.06     0.01   0.02  -0.03     0.01   0.01   0.00
  29   1     0.01  -0.02  -0.03     0.01   0.01  -0.02     0.00   0.01   0.00
  30   6     0.08  -0.03   0.01     0.05  -0.01   0.00    -0.03   0.00   0.00
  31   8     0.24  -0.08  -0.00     0.15  -0.04  -0.01    -0.09   0.02   0.02
  32   7     0.02   0.05   0.01     0.01   0.03   0.01    -0.00  -0.02  -0.00
  33   1     0.01   0.03   0.01     0.00   0.01   0.01    -0.01  -0.01  -0.00
  34   1    -0.05   0.03   0.01    -0.03   0.02   0.01     0.01  -0.01  -0.00
  35   7    -0.05  -0.09   0.02    -0.03  -0.04   0.01     0.01   0.00  -0.01
  36   1    -0.05  -0.01  -0.00    -0.03  -0.00   0.00     0.01  -0.00  -0.00
  37   1     0.01  -0.05   0.01     0.01  -0.02   0.00    -0.01   0.01   0.00
  38   6     0.01   0.05   0.04     0.01  -0.00  -0.12    -0.01  -0.02  -0.03
  39   8     0.02   0.05   0.17    -0.02   0.02  -0.47    -0.03  -0.01  -0.07
  40   7    -0.02  -0.01   0.04     0.14   0.08   0.00     0.01  -0.03   0.01
  41   1    -0.01  -0.02   0.04     0.06   0.04  -0.04    -0.00   0.01  -0.03
  42   1     0.02  -0.03   0.04     0.03   0.04   0.03    -0.01   0.01  -0.03
  43   7     0.13   0.02   0.08    -0.21  -0.02  -0.02    -0.04  -0.02  -0.02
  44   1    -0.05   0.17  -0.32     0.02  -0.14   0.35     0.01  -0.04   0.07
  45   1    -0.01   0.14  -0.18    -0.04  -0.14   0.14    -0.01  -0.03   0.03
  46   6    -0.02  -0.03  -0.05     0.04   0.01   0.08     0.00  -0.03   0.05
  47   8    -0.04   0.07  -0.03     0.06  -0.23   0.02     0.06   0.03  -0.02
  48   7     0.08  -0.02  -0.07    -0.19   0.09   0.07     0.08   0.28  -0.05
  49   1     0.01  -0.06   0.02    -0.07   0.04  -0.04    -0.19  -0.40   0.16
  50   1    -0.02  -0.13   0.02    -0.02   0.16   0.01    -0.32  -0.63   0.31
  51   7    -0.08  -0.07  -0.09     0.17   0.13   0.16     0.05   0.11   0.01
  52   1    -0.01  -0.01  -0.04     0.05   0.06   0.05     0.08   0.11  -0.04
  53   1    -0.03  -0.01  -0.03     0.07   0.04   0.04     0.04   0.06  -0.02
                     28                     29                     30
                        a                      a                      a 
 Frequencies --   224.1202               270.1580               270.5060
 Red. masses --    13.1565                 4.2655                 3.1019
 Frc consts  --     0.0000                 0.0000                 0.0000
 IR Inten    --    17.5281                26.2360               177.7314
 Raman Activ --     0.0000                 0.0000                 0.0000
 Depolar     --     0.0000                 0.0000                 0.0000
 Atom AN      X      Y      Z        X      Y      Z        X      Y      Z
   1   8     0.36   0.25  -0.38     0.11  -0.05   0.19     0.08  -0.04   0.10
   2   6     0.08  -0.07  -0.05    -0.12  -0.09   0.18    -0.07  -0.04   0.07
   3   1    -0.05   0.03   0.06    -0.15  -0.02   0.04    -0.08  -0.01   0.01
   4   1     0.03  -0.12  -0.02    -0.01  -0.12   0.10    -0.01  -0.06   0.04
   5   6     0.03  -0.05   0.00     0.07   0.08  -0.03     0.01   0.07  -0.01
   6   1     0.00  -0.01  -0.01     0.06   0.03  -0.00     0.01   0.02   0.00
   7   1     0.01  -0.02   0.01     0.00   0.00  -0.05    -0.01   0.02  -0.02
   8   7     0.02  -0.01   0.06     0.02   0.07  -0.08     0.01   0.05  -0.05
   9   6     0.01  -0.01   0.05    -0.03   0.06  -0.12    -0.00   0.05  -0.08
  10   1     0.06   0.05  -0.04     0.05   0.07  -0.09     0.06   0.06  -0.08
  11   1    -0.07  -0.02  -0.01    -0.10   0.00  -0.06    -0.08   0.00  -0.05
  12   1     0.03  -0.03   0.09     0.02  -0.01   0.05     0.03  -0.01   0.06
  13   6     0.02   0.02   0.06    -0.06   0.18  -0.18    -0.02   0.10  -0.10
  14   1    -0.01   0.01  -0.03    -0.14   0.08  -0.39    -0.06   0.04  -0.19
  15   1     0.01   0.04   0.04    -0.01   0.33   0.13    -0.01   0.16   0.06
  16   1     0.01  -0.03   0.04     0.08  -0.25   0.07     0.04  -0.11   0.03
  17   6     0.00   0.01   0.06     0.03  -0.12  -0.02     0.03  -0.09  -0.03
  18   1    -0.01  -0.01   0.03    -0.04  -0.12   0.11     0.00  -0.06   0.04
  19   1    -0.00   0.02   0.02    -0.02   0.08  -0.01     0.00   0.00  -0.01
  20   1     0.01  -0.00   0.01     0.08  -0.11  -0.10     0.03  -0.06  -0.05
  21   1     0.09   0.14  -0.07     0.02   0.03   0.04     0.00   0.03   0.01
  22   6     0.04  -0.02   0.01    -0.02  -0.00   0.01     0.02   0.00  -0.02
  23   8     0.02  -0.00  -0.07     0.00   0.01   0.01    -0.03  -0.04   0.01
  24   7     0.07  -0.07   0.02    -0.01  -0.00  -0.01     0.01   0.02   0.01
  25   1    -0.02  -0.06   0.02     0.02   0.02  -0.02    -0.05  -0.05   0.03
  26   1    -0.01  -0.05   0.03     0.05   0.06  -0.04    -0.11  -0.11   0.08
  27   7     0.02   0.05   0.10     0.06   0.09  -0.08    -0.10  -0.18   0.13
  28   1     0.03   0.03   0.04    -0.17  -0.19   0.14     0.32   0.36  -0.29
  29   1     0.01   0.06   0.00    -0.10  -0.12   0.11     0.19   0.21  -0.21
  30   6    -0.21  -0.01   0.04     0.01  -0.01  -0.00     0.01   0.00  -0.00
  31   8    -0.57   0.08   0.12     0.03  -0.02  -0.02    -0.00   0.01   0.02
  32   7    -0.03  -0.19   0.01    -0.01   0.00   0.01     0.01  -0.01  -0.01
  33   1    -0.02  -0.08  -0.01     0.03  -0.01  -0.02    -0.06   0.02   0.03
  34   1     0.11  -0.10  -0.03     0.08  -0.03  -0.04    -0.16   0.06   0.08
  35   7     0.10   0.01  -0.03     0.05  -0.04  -0.02    -0.12   0.05   0.04
  36   1     0.03   0.00   0.02    -0.16   0.06   0.07     0.30  -0.12  -0.15
  37   1    -0.09   0.06   0.03    -0.09   0.03   0.04     0.20  -0.07  -0.08
  38   6     0.00   0.01   0.00    -0.01  -0.01   0.01     0.00  -0.01   0.01
  39   8     0.01   0.01   0.00    -0.01  -0.00   0.03     0.00  -0.01   0.03
  40   7     0.01   0.01   0.00    -0.01  -0.01   0.01    -0.00  -0.00   0.00
  41   1     0.00   0.00   0.00     0.00   0.00  -0.01     0.00  -0.00  -0.00
  42   1     0.00   0.00   0.00    -0.00  -0.00   0.01     0.00  -0.00   0.01
  43   7     0.01   0.01   0.00    -0.00  -0.00  -0.00     0.00  -0.00  -0.00
  44   1     0.00   0.01  -0.01    -0.01   0.01  -0.03    -0.01   0.01  -0.03
  45   1     0.00   0.01  -0.00    -0.00   0.01  -0.01    -0.00   0.01  -0.01
  46   6     0.00   0.00  -0.01     0.00  -0.02   0.02     0.00  -0.01   0.01
  47   8    -0.01  -0.01  -0.01    -0.02  -0.08   0.03    -0.01  -0.03   0.01
  48   7    -0.02  -0.03  -0.00    -0.00   0.01   0.00    -0.00  -0.00   0.01
  49   1     0.02   0.05  -0.02    -0.00   0.00  -0.00     0.00   0.01  -0.00
  50   1     0.04   0.08  -0.04     0.01   0.03  -0.01     0.01   0.02  -0.01
  51   7    -0.00  -0.01  -0.00     0.02   0.01   0.01     0.00  -0.00   0.01
  52   1    -0.01  -0.01   0.01     0.01   0.00   0.00     0.01   0.01  -0.00
  53   1    -0.00  -0.01   0.00    -0.00  -0.00   0.01     0.00  -0.00   0.00
                     31                     32                     33
                        a                      a                      a 
 Frequencies --   273.0676               302.9637               314.1308
 Red. masses --     2.3712                 5.5391                 4.6987
 Frc consts  --     0.0000                 0.0000                 0.0000
 IR Inten    --   110.4196                 1.3907                 0.8473
 Raman Activ --     0.0000                 0.0000                 0.0000
 Depolar     --     0.0000                 0.0000                 0.0000
 Atom AN      X      Y      Z        X      Y      Z        X      Y      Z
   1   8    -0.04  -0.03   0.05    -0.18  -0.14  -0.20    -0.03  -0.02   0.03
   2   6    -0.01   0.00   0.01    -0.02  -0.15  -0.07     0.18   0.21  -0.20
   3   1    -0.00  -0.00  -0.01    -0.01  -0.04  -0.02     0.21   0.03  -0.09
   4   1    -0.00   0.01   0.00    -0.00  -0.03  -0.01     0.01   0.19  -0.12
   5   6    -0.01   0.02  -0.00    -0.00   0.00  -0.03    -0.08  -0.01   0.03
   6   1    -0.01   0.00   0.00    -0.02   0.01  -0.04    -0.04  -0.01   0.02
   7   1    -0.00   0.02   0.00     0.00   0.00  -0.00    -0.01   0.00   0.05
   8   7    -0.00   0.01  -0.02     0.03   0.10   0.07    -0.09  -0.05   0.02
   9   6    -0.00  -0.00  -0.01     0.10   0.21  -0.14    -0.13  -0.10   0.12
  10   1    -0.00  -0.01   0.00     0.14   0.17  -0.15     0.02   0.01  -0.02
  11   1     0.00   0.00   0.00    -0.10  -0.01  -0.13    -0.14  -0.03   0.03
  12   1    -0.00  -0.00  -0.00     0.08   0.06   0.12    -0.00  -0.08   0.12
  13   6    -0.01   0.01  -0.03     0.05   0.18   0.10    -0.00  -0.21   0.20
  14   1    -0.00   0.00  -0.00     0.13   0.05   0.22    -0.10  -0.07  -0.06
  15   1    -0.00  -0.00  -0.01    -0.01  -0.11  -0.08     0.08   0.06   0.13
  16   1    -0.00   0.01  -0.01    -0.06   0.25  -0.04     0.04  -0.21   0.13
  17   6     0.00  -0.01  -0.02    -0.07  -0.19   0.27     0.09   0.16  -0.18
  18   1     0.01   0.01  -0.02    -0.17  -0.25   0.31    -0.14  -0.15   0.16
  19   1     0.01  -0.02  -0.01    -0.06   0.21   0.11    -0.08   0.37  -0.14
  20   1    -0.01   0.00   0.00     0.13  -0.22  -0.13     0.34  -0.06  -0.21
  21   1    -0.00  -0.03   0.02    -0.05  -0.04  -0.06     0.00  -0.07   0.01
  22   6    -0.00   0.01  -0.01    -0.00  -0.00  -0.00    -0.00  -0.01   0.00
  23   8    -0.03  -0.02   0.01     0.00  -0.00  -0.01    -0.01  -0.02   0.00
  24   7    -0.02   0.02   0.01     0.01  -0.01  -0.00     0.01   0.00  -0.00
  25   1    -0.03  -0.02   0.01     0.00  -0.00  -0.00    -0.00  -0.00   0.01
  26   1    -0.08  -0.07   0.05     0.00  -0.00   0.00    -0.01  -0.01   0.00
  27   7    -0.08  -0.10   0.11     0.00  -0.01  -0.01     0.01  -0.01  -0.00
  28   1     0.24   0.28  -0.20    -0.00  -0.00  -0.01     0.02   0.02  -0.02
  29   1     0.13   0.17  -0.15     0.00  -0.01  -0.00     0.01   0.00  -0.01
  30   6     0.00   0.00  -0.01     0.02   0.00  -0.00     0.00   0.00  -0.00
  31   8     0.06  -0.02  -0.06     0.05  -0.01  -0.01     0.00   0.01   0.00
  32   7     0.00   0.03   0.01    -0.00   0.03   0.00    -0.00   0.02  -0.00
  33   1     0.08  -0.02  -0.05     0.01   0.01  -0.00     0.01   0.00  -0.00
  34   1     0.22  -0.08  -0.11     0.01   0.00  -0.01     0.01  -0.00  -0.01
  35   7     0.22  -0.07  -0.06     0.00  -0.00   0.00     0.00   0.01   0.00
  36   1    -0.54   0.22   0.27    -0.03   0.01   0.01    -0.00   0.00   0.00
  37   1    -0.33   0.13   0.13    -0.00   0.00   0.00    -0.00   0.00   0.00
  38   6     0.00  -0.00   0.00     0.01  -0.01   0.01    -0.00   0.01  -0.00
  39   8     0.00  -0.01   0.01     0.01  -0.02   0.04    -0.00   0.01  -0.01
  40   7    -0.00   0.00  -0.00    -0.00   0.00  -0.01     0.01   0.01   0.00
  41   1     0.00  -0.00   0.00    -0.00  -0.00   0.01     0.00   0.01  -0.00
  42   1     0.00  -0.00   0.01    -0.00   0.00  -0.01     0.00   0.00   0.00
  43   7     0.00  -0.00  -0.00    -0.01  -0.00  -0.01     0.01   0.00   0.00
  44   1    -0.00   0.00  -0.01    -0.00   0.00  -0.00     0.00   0.00  -0.01
  45   1    -0.00   0.00  -0.00     0.00  -0.01   0.01     0.00   0.01  -0.01
  46   6     0.00   0.00   0.00    -0.00   0.01  -0.00     0.01   0.00  -0.01
  47   8    -0.00   0.00   0.00     0.00   0.02  -0.00     0.00   0.00  -0.00
  48   7     0.00  -0.00   0.00     0.00  -0.00   0.00    -0.02  -0.00  -0.01
  49   1     0.00   0.00   0.00     0.00  -0.01   0.01    -0.01  -0.00  -0.01
  50   1     0.00  -0.00  -0.00    -0.00  -0.01   0.00    -0.01   0.00   0.00
  51   7    -0.00  -0.00   0.00     0.00   0.01  -0.00    -0.00  -0.01  -0.00
  52   1     0.01   0.01  -0.00    -0.00   0.00   0.00    -0.00  -0.01   0.00
  53   1     0.00   0.00  -0.00    -0.00  -0.00   0.00    -0.00   0.00  -0.00
                     34                     35                     36
                        a                      a                      a 
 Frequencies --   333.1300               349.2678               374.3012
 Red. masses --     6.0430                 2.7496                 7.4577
 Frc consts  --     0.0000                 0.0000                 0.0000
 IR Inten    --     2.4805                 1.6127                 1.5178
 Raman Activ --     0.0000                 0.0000                 0.0000
 Depolar     --     0.0000                 0.0000                 0.0000
 Atom AN      X      Y      Z        X      Y      Z        X      Y      Z
   1   8    -0.23  -0.08  -0.27    -0.12  -0.08  -0.05    -0.03   0.06  -0.10
   2   6     0.18  -0.04  -0.15     0.04   0.05  -0.14    -0.11   0.06  -0.14
   3   1     0.14  -0.02  -0.04     0.11  -0.00  -0.06     0.04   0.02  -0.03
   4   1     0.04   0.07  -0.05    -0.02   0.09  -0.09    -0.06   0.05  -0.11
   5   6     0.02  -0.02   0.06    -0.17   0.06   0.09    -0.27   0.05   0.07
   6   1    -0.06  -0.00  -0.02    -0.14  -0.00   0.03    -0.18  -0.03   0.06
   7   1     0.03   0.03   0.08    -0.03   0.10   0.08    -0.07   0.14   0.04
   8   7     0.00   0.04   0.14    -0.03   0.01   0.05     0.02  -0.05   0.02
   9   6     0.06   0.21  -0.17     0.07   0.04   0.03     0.29  -0.11   0.36
  10   1    -0.15  -0.01   0.09     0.29   0.20  -0.24     0.04  -0.22   0.19
  11   1     0.27   0.04  -0.04    -0.33  -0.05  -0.10     0.24   0.04   0.20
  12   1    -0.07   0.19  -0.29     0.15  -0.09   0.39     0.04   0.05   0.00
  13   6     0.02  -0.02   0.21    -0.02  -0.02   0.09    -0.10   0.23  -0.19
  14   1    -0.12   0.01  -0.20    -0.04  -0.00  -0.04     0.02   0.10  -0.12
  15   1     0.05   0.23   0.21    -0.00   0.05   0.06    -0.12   0.09  -0.03
  16   1     0.07  -0.26   0.18     0.02  -0.06   0.04    -0.01   0.09  -0.09
  17   6    -0.02  -0.09   0.22     0.13  -0.15  -0.04     0.19  -0.26  -0.04
  18   1     0.04   0.02   0.02     0.24   0.13  -0.16     0.08  -0.13   0.10
  19   1     0.03  -0.12   0.10     0.09  -0.33  -0.02     0.02  -0.03  -0.06
  20   1    -0.10  -0.01   0.09    -0.17   0.04   0.11     0.10  -0.14  -0.09
  21   1    -0.06  -0.08  -0.08    -0.03  -0.05  -0.02     0.01   0.00   0.01
  22   6     0.01   0.00  -0.01    -0.00   0.00  -0.01     0.00  -0.00  -0.00
  23   8     0.01   0.00  -0.01     0.00   0.00  -0.00    -0.00  -0.01   0.00
  24   7    -0.01  -0.01   0.00    -0.01   0.00   0.00    -0.00  -0.00   0.00
  25   1     0.01   0.01  -0.01    -0.01   0.00   0.01    -0.00   0.00   0.00
  26   1     0.00   0.00  -0.00     0.01   0.01  -0.01     0.00   0.01  -0.01
  27   7    -0.01  -0.01   0.02     0.01   0.03  -0.00     0.00   0.00   0.00
  28   1     0.02   0.02  -0.01    -0.04  -0.05   0.04    -0.00  -0.01   0.01
  29   1     0.01   0.01  -0.01    -0.02  -0.01   0.02    -0.00  -0.00   0.00
  30   6    -0.00  -0.00   0.00     0.02   0.00  -0.00    -0.00   0.00  -0.00
  31   8     0.00  -0.00   0.00     0.03  -0.00  -0.01    -0.01   0.00   0.00
  32   7     0.00   0.01  -0.01    -0.00   0.03  -0.00    -0.01  -0.00   0.00
  33   1     0.00   0.01   0.00     0.01   0.01  -0.00     0.00  -0.01  -0.00
  34   1    -0.01   0.01  -0.00     0.02  -0.00  -0.02     0.02  -0.01  -0.01
  35   7     0.01   0.01   0.00    -0.00   0.00   0.00    -0.01   0.00  -0.00
  36   1     0.00   0.00   0.01    -0.02   0.01   0.01     0.01  -0.01  -0.01
  37   1     0.00   0.01  -0.00     0.00   0.00  -0.00    -0.00  -0.00   0.00
  38   6    -0.01  -0.00  -0.00     0.01  -0.00   0.01    -0.01   0.01  -0.02
  39   8    -0.00  -0.01   0.01     0.01  -0.00   0.01    -0.02   0.02  -0.03
  40   7    -0.01  -0.03   0.01     0.01   0.02  -0.00     0.00  -0.01   0.02
  41   1    -0.01   0.00  -0.02     0.01   0.00   0.00     0.00   0.01  -0.01
  42   1    -0.01   0.00  -0.02     0.00   0.01   0.00    -0.01   0.01  -0.02
  43   7    -0.02  -0.01   0.01     0.01   0.01  -0.01     0.01  -0.01   0.01
  44   1    -0.01   0.01   0.00     0.00   0.00  -0.01     0.00  -0.01   0.01
  45   1    -0.01  -0.01   0.00     0.01   0.01  -0.00     0.00   0.00  -0.00
  46   6     0.01  -0.01   0.00     0.00  -0.00  -0.00    -0.01   0.00   0.00
  47   8     0.01  -0.02  -0.00     0.00   0.01  -0.01    -0.01  -0.01   0.01
  48   7    -0.03   0.01  -0.01    -0.01   0.00  -0.00     0.01  -0.00   0.00
  49   1    -0.01   0.01  -0.02    -0.00   0.01  -0.01     0.00  -0.01   0.01
  50   1    -0.00   0.03  -0.00    -0.00   0.01  -0.00     0.00  -0.01   0.00
  51   7     0.01   0.01  -0.02    -0.01  -0.01  -0.00     0.01   0.01   0.01
  52   1     0.00  -0.00  -0.01     0.01   0.01  -0.01    -0.00   0.00   0.01
  53   1    -0.01  -0.01   0.00     0.00   0.01  -0.01    -0.00  -0.01   0.02
                     37                     38                     39
                        a                      a                      a 
 Frequencies --   400.9388               415.8748               427.8625
 Red. masses --     3.5321                 3.1366                 8.6366
 Frc consts  --     0.0000                 0.0000                 0.0000
 IR Inten    --   230.2671               228.3196                 6.1262
 Raman Activ --     0.0000                 0.0000                 0.0000
 Depolar     --     0.0000                 0.0000                 0.0000
 Atom AN      X      Y      Z        X      Y      Z        X      Y      Z
   1   8     0.01   0.01   0.01     0.03   0.01   0.04     0.12   0.05   0.19
   2   6    -0.01   0.01  -0.02    -0.02   0.03  -0.00    -0.05   0.15  -0.03
   3   1     0.00   0.00  -0.01    -0.00   0.01  -0.00     0.03   0.03  -0.02
   4   1    -0.00   0.01  -0.01    -0.01   0.01  -0.00    -0.03   0.07  -0.04
   5   6    -0.02  -0.00  -0.00    -0.00  -0.01  -0.02    -0.06  -0.14  -0.07
   6   1     0.00   0.00   0.00     0.02  -0.00  -0.00     0.06  -0.04   0.02
   7   1    -0.01  -0.02  -0.00    -0.00  -0.02  -0.01    -0.03  -0.08  -0.05
   8   7    -0.02   0.00  -0.00    -0.02  -0.03  -0.04    -0.13  -0.24  -0.18
   9   6     0.03   0.01   0.00     0.03  -0.02  -0.03     0.34  -0.12  -0.16
  10   1     0.02   0.00  -0.01     0.03  -0.01  -0.02     0.16  -0.08  -0.08
  11   1     0.00   0.00  -0.00     0.01  -0.01  -0.01     0.14  -0.05  -0.06
  12   1     0.01   0.01   0.02     0.02   0.00   0.01     0.11   0.09   0.01
  13   6    -0.02   0.02   0.01     0.01   0.02   0.05     0.03   0.25   0.33
  14   1    -0.00   0.01   0.00     0.02   0.01   0.02     0.14   0.14   0.05
  15   1    -0.00   0.00   0.00     0.02   0.02   0.02     0.05   0.15   0.15
  16   1    -0.01   0.01   0.01    -0.02   0.01   0.03    -0.13   0.08   0.22
  17   6     0.00  -0.01  -0.02    -0.06  -0.00  -0.02    -0.30  -0.02  -0.13
  18   1     0.00  -0.01   0.01    -0.03   0.00  -0.02    -0.13   0.01  -0.09
  19   1    -0.00   0.00  -0.01    -0.01  -0.00   0.01    -0.07   0.00   0.01
  20   1     0.01  -0.01  -0.01    -0.03   0.01   0.00    -0.10   0.03   0.01
  21   1     0.02  -0.02   0.02     0.01   0.00   0.01     0.04   0.01   0.06
  22   6     0.04   0.03  -0.03     0.00   0.01   0.00     0.00   0.01  -0.00
  23   8     0.03   0.01  -0.01    -0.00   0.00  -0.00    -0.00   0.01   0.00
  24   7    -0.04  -0.09   0.04    -0.00  -0.00   0.01    -0.01  -0.01   0.01
  25   1     0.04   0.03  -0.01     0.00   0.00  -0.00     0.00  -0.00  -0.00
  26   1     0.14   0.15  -0.10     0.01   0.01  -0.00     0.01   0.01  -0.00
  27   7    -0.02  -0.04   0.02    -0.00  -0.01  -0.00    -0.01  -0.01  -0.00
  28   1    -0.01  -0.01  -0.01     0.01   0.01  -0.01    -0.00   0.00  -0.01
  29   1     0.02   0.00  -0.01     0.00  -0.00  -0.00     0.00  -0.00  -0.00
  30   6    -0.15   0.05   0.07    -0.00   0.00   0.00     0.01   0.00  -0.01
  31   8    -0.07   0.02   0.05    -0.00   0.00   0.00    -0.00   0.01  -0.00
  32   7     0.23  -0.11  -0.14     0.01  -0.01  -0.00    -0.01  -0.01   0.01
  33   1    -0.07   0.04   0.06    -0.00   0.00   0.00    -0.01  -0.01   0.00
  34   1    -0.69   0.26   0.34    -0.02   0.01   0.01     0.05  -0.02  -0.02
  35   7     0.21  -0.06  -0.10     0.01  -0.00  -0.01    -0.01   0.00  -0.00
  36   1    -0.21   0.09   0.11    -0.02   0.01   0.01     0.01  -0.00  -0.01
  37   1    -0.08   0.04   0.02    -0.00   0.00   0.00    -0.00  -0.00   0.00
  38   6     0.00  -0.00   0.00    -0.06   0.05  -0.12     0.00  -0.00   0.02
  39   8     0.00  -0.00   0.00    -0.05   0.05  -0.04     0.01  -0.01   0.01
  40   7    -0.00   0.01  -0.01     0.15  -0.10   0.23    -0.03   0.01  -0.03
  41   1     0.00  -0.00   0.00    -0.05   0.04  -0.03     0.00   0.00  -0.01
  42   1     0.02  -0.02   0.03    -0.32   0.38  -0.74     0.05  -0.06   0.12
  43   7    -0.01   0.00  -0.01     0.04  -0.11   0.13    -0.00   0.02  -0.02
  44   1     0.00  -0.00   0.01    -0.02   0.02  -0.08     0.00  -0.00   0.01
  45   1    -0.00  -0.00   0.00    -0.01   0.04  -0.06     0.01  -0.01   0.02
  46   6     0.00  -0.00  -0.00    -0.00  -0.02   0.02     0.02  -0.01   0.00
  47   8     0.00  -0.00   0.00     0.00  -0.02   0.01     0.02   0.01   0.01
  48   7    -0.00  -0.00   0.00     0.01   0.01   0.00    -0.03   0.01   0.00
  49   1    -0.00   0.00  -0.00    -0.00  -0.01   0.01    -0.02   0.01  -0.02
  50   1     0.00   0.01  -0.00     0.02   0.04  -0.02    -0.02   0.02   0.02
  51   7    -0.00  -0.00   0.00     0.04   0.03   0.00    -0.01  -0.02  -0.03
  52   1     0.00   0.00  -0.00    -0.04  -0.06   0.03     0.02   0.01  -0.02
  53   1     0.00   0.00  -0.00    -0.01  -0.01   0.02    -0.01   0.00  -0.01
                     40                     41                     42
                        a                      a                      a 
 Frequencies --   450.5274               457.5243               458.3344
 Red. masses --     2.9416                 8.6497                 8.6333
 Frc consts  --     0.0000                 0.0000                 0.0000
 IR Inten    --   305.9997                 1.7166                 3.0911
 Raman Activ --     0.0000                 0.0000                 0.0000
 Depolar     --     0.0000                 0.0000                 0.0000
 Atom AN      X      Y      Z        X      Y      Z        X      Y      Z
   1   8    -0.00  -0.01   0.01     0.00  -0.00   0.01     0.02   0.01  -0.01
   2   6     0.01   0.00   0.00     0.01  -0.00   0.02    -0.00   0.00  -0.01
   3   1     0.01  -0.00  -0.00     0.01  -0.00   0.01    -0.00   0.00  -0.00
   4   1     0.00   0.01   0.00     0.00   0.00   0.00    -0.00  -0.00  -0.01
   5   6     0.02  -0.03  -0.01     0.01  -0.04   0.01    -0.02   0.02   0.01
   6   1     0.03   0.00  -0.01     0.03  -0.00  -0.01    -0.03  -0.00   0.01
   7   1     0.01  -0.03  -0.01     0.00  -0.04  -0.00    -0.00   0.03   0.01
   8   7    -0.05  -0.00   0.02    -0.05  -0.01   0.02     0.03  -0.02  -0.02
   9   6     0.04   0.04   0.00     0.03   0.03  -0.02    -0.01  -0.04  -0.00
  10   1     0.02  -0.00  -0.00     0.02   0.01  -0.02    -0.01  -0.01  -0.00
  11   1     0.03   0.01  -0.00     0.01  -0.00  -0.02    -0.01  -0.01   0.00
  12   1     0.01   0.05   0.01     0.01   0.03   0.01    -0.00  -0.03   0.00
  13   6    -0.05  -0.01   0.02    -0.05   0.01   0.03     0.04   0.01   0.00
  14   1    -0.01  -0.00   0.01    -0.01   0.00  -0.00     0.01   0.01  -0.01
  15   1    -0.01  -0.01   0.00    -0.02   0.01   0.01     0.01   0.02   0.01
  16   1    -0.02   0.00   0.00    -0.01  -0.00   0.01     0.01  -0.00   0.01
  17   6     0.02  -0.02  -0.04     0.02   0.00  -0.04    -0.02   0.01   0.02
  18   1     0.03  -0.00  -0.01     0.02   0.00  -0.01    -0.02   0.00  -0.01
  19   1    -0.00  -0.02  -0.03    -0.00  -0.00  -0.03     0.00   0.00   0.02
  20   1     0.01  -0.01  -0.01     0.02   0.01  -0.01    -0.02   0.01   0.01
  21   1    -0.01   0.01  -0.01    -0.00   0.00  -0.00     0.01  -0.00   0.01
  22   6    -0.06  -0.09   0.05     0.03  -0.04  -0.04    -0.08   0.16   0.11
  23   8    -0.04  -0.05  -0.00     0.06  -0.05   0.00    -0.19   0.17   0.00
  24   7     0.13   0.21  -0.10    -0.09   0.00  -0.03     0.25  -0.09   0.14
  25   1     0.01  -0.02  -0.05    -0.02   0.04   0.01     0.05  -0.14  -0.03
  26   1    -0.50  -0.57   0.40     0.02   0.08  -0.09     0.12  -0.05   0.15
  27   7     0.13   0.10  -0.08    -0.00   0.03   0.07    -0.04  -0.15  -0.22
  28   1    -0.03  -0.06   0.07     0.06   0.04   0.04    -0.17  -0.09  -0.19
  29   1    -0.10  -0.09   0.10    -0.05   0.05   0.02     0.19  -0.14  -0.09
  30   6    -0.01   0.03   0.01     0.02   0.05   0.00    -0.08  -0.19  -0.01
  31   8    -0.01   0.02   0.01     0.01   0.06  -0.03    -0.03  -0.21   0.12
  32   7     0.06  -0.01  -0.03     0.01  -0.04   0.07    -0.07   0.14  -0.24
  33   1     0.02  -0.00  -0.01    -0.01  -0.04   0.01     0.02   0.14  -0.01
  34   1    -0.19   0.08   0.10     0.04  -0.02   0.04    -0.06   0.04  -0.18
  35   7     0.04  -0.02  -0.04    -0.04  -0.04  -0.04     0.12   0.16   0.16
  36   1    -0.07   0.03   0.02    -0.02  -0.02  -0.07     0.09   0.05   0.23
  37   1    -0.01  -0.00   0.00    -0.02  -0.06   0.02     0.09   0.20  -0.08
  38   6     0.02   0.01  -0.00     0.20   0.07  -0.03     0.06   0.02  -0.01
  39   8     0.02   0.02   0.01     0.16   0.18   0.04     0.05   0.05   0.01
  40   7    -0.01  -0.03  -0.01    -0.03  -0.26  -0.12    -0.01  -0.08  -0.04
  41   1    -0.02  -0.01  -0.00    -0.14  -0.06  -0.02    -0.04  -0.02  -0.01
  42   1     0.00  -0.02  -0.01     0.03  -0.16  -0.10     0.01  -0.05  -0.03
  43   7    -0.02   0.01   0.01    -0.23   0.08   0.11    -0.07   0.02   0.03
  44   1    -0.02   0.02  -0.00    -0.13   0.16   0.14    -0.04   0.05   0.04
  45   1    -0.01  -0.02   0.01    -0.19  -0.13  -0.02    -0.06  -0.04  -0.00
  46   6    -0.02   0.00  -0.01    -0.19   0.04  -0.09    -0.06   0.01  -0.03
  47   8    -0.02  -0.00  -0.02    -0.16  -0.03  -0.19    -0.05  -0.01  -0.06
  48   7     0.03  -0.01  -0.01     0.23  -0.10  -0.08     0.08  -0.03  -0.02
  49   1     0.01  -0.01   0.02     0.15  -0.05   0.17     0.05  -0.01   0.05
  50   1     0.01  -0.02  -0.02     0.14  -0.13  -0.17     0.05  -0.04  -0.05
  51   7     0.01   0.02   0.02     0.05   0.13   0.26     0.01   0.04   0.09
  52   1    -0.02  -0.02   0.03    -0.10  -0.01   0.20    -0.03   0.01   0.06
  53   1     0.01   0.00   0.01     0.12   0.02   0.06     0.04   0.01   0.02
                     43                     44                     45
                        a                      a                      a 
 Frequencies --   466.6593               468.8908               480.2081
 Red. masses --     7.5600                 8.1163                 4.5097
 Frc consts  --     0.0000                 0.0000                 0.0000
 IR Inten    --     4.1918                22.9784                 9.2648
 Raman Activ --     0.0000                 0.0000                 0.0000
 Depolar     --     0.0000                 0.0000                 0.0000
 Atom AN      X      Y      Z        X      Y      Z        X      Y      Z
   1   8    -0.10  -0.01  -0.08    -0.02  -0.01   0.02     0.02   0.02  -0.00
   2   6     0.11  -0.12   0.13    -0.11   0.08  -0.14    -0.03   0.02  -0.03
   3   1     0.10  -0.02   0.07    -0.04   0.01  -0.06    -0.03   0.01  -0.01
   4   1     0.01   0.01  -0.01    -0.03   0.01  -0.04    -0.00  -0.01  -0.00
   5   6    -0.12  -0.10   0.32    -0.10   0.22  -0.09    -0.01   0.06  -0.04
   6   1    -0.23  -0.09   0.14    -0.15   0.01   0.03    -0.01   0.01  -0.00
   7   1    -0.01   0.17   0.16    -0.02   0.20  -0.01    -0.00   0.03  -0.01
   8   7     0.16  -0.26   0.07     0.27   0.02  -0.20     0.03   0.03  -0.05
   9   6    -0.04  -0.19  -0.26    -0.15  -0.25   0.08    -0.02  -0.04   0.04
  10   1    -0.03   0.06  -0.09    -0.08  -0.07   0.05    -0.01  -0.02   0.02
  11   1    -0.05  -0.11  -0.14    -0.12  -0.00   0.09    -0.03   0.01   0.03
  12   1    -0.01  -0.07  -0.08    -0.04  -0.22   0.00    -0.00  -0.04   0.02
  13   6     0.02   0.22  -0.17     0.40  -0.00   0.01     0.07  -0.02   0.02
  14   1     0.09   0.12  -0.12     0.09  -0.00  -0.03     0.01  -0.01   0.01
  15   1    -0.12   0.09  -0.02     0.17   0.06   0.04     0.05   0.00   0.01
  16   1    -0.00   0.12  -0.08     0.08  -0.06   0.07     0.01  -0.02   0.02
  17   6     0.03   0.29   0.03    -0.21  -0.04   0.24    -0.06  -0.04   0.04
  18   1    -0.11   0.09  -0.07    -0.15  -0.03   0.04    -0.02  -0.01   0.01
  19   1    -0.01   0.16  -0.00     0.01  -0.00   0.23    -0.00  -0.02   0.04
  20   1     0.09   0.15   0.08    -0.17  -0.03   0.06    -0.05  -0.02   0.00
  21   1    -0.02  -0.02  -0.02     0.01  -0.01   0.02     0.02  -0.01   0.02
  22   6     0.01  -0.02  -0.01    -0.02  -0.01   0.01     0.05  -0.05  -0.10
  23   8     0.02  -0.02  -0.01    -0.01   0.00  -0.01     0.17  -0.05   0.02
  24   7    -0.01   0.01  -0.02     0.04   0.01  -0.01    -0.19  -0.02  -0.05
  25   1    -0.00   0.01   0.00     0.01  -0.01  -0.01    -0.00   0.07  -0.01
  26   1    -0.04  -0.02   0.01    -0.04  -0.06   0.05    -0.05   0.02  -0.07
  27   7     0.01   0.01   0.01     0.02   0.01  -0.01     0.02   0.08   0.04
  28   1     0.04   0.03   0.00    -0.03  -0.03   0.01     0.33   0.28  -0.03
  29   1    -0.04  -0.01   0.03     0.03   0.01  -0.02    -0.47  -0.21   0.35
  30   6     0.00   0.00   0.00     0.02   0.07   0.01    -0.06  -0.14  -0.00
  31   8     0.01  -0.00  -0.00     0.00   0.08  -0.04    -0.02  -0.17   0.09
  32   7     0.01   0.01  -0.01     0.03  -0.05   0.08    -0.05   0.12  -0.18
  33   1     0.02   0.00  -0.01     0.00  -0.05  -0.00     0.03   0.11  -0.01
  34   1    -0.04   0.02   0.01    -0.03   0.00   0.09    -0.05   0.04  -0.14
  35   7     0.01  -0.00  -0.00    -0.03  -0.05  -0.07     0.07   0.09   0.12
  36   1     0.01  -0.00  -0.00    -0.04  -0.01  -0.08     0.05   0.03   0.18
  37   1    -0.01   0.00   0.01    -0.06  -0.06   0.04     0.12   0.13  -0.08
  38   6    -0.03  -0.01   0.01     0.02   0.00  -0.01     0.01  -0.00   0.00
  39   8    -0.02  -0.02  -0.00     0.01   0.02  -0.01     0.01   0.00   0.00
  40   7     0.01   0.03   0.02     0.01  -0.02  -0.01     0.00   0.00  -0.01
  41   1     0.02   0.02  -0.01    -0.01   0.00  -0.01    -0.00   0.00  -0.00
  42   1    -0.01   0.02   0.02     0.01  -0.02   0.01     0.01  -0.01   0.01
  43   7     0.03  -0.01  -0.02    -0.02   0.01   0.01    -0.00   0.00  -0.00
  44   1     0.01  -0.01  -0.04    -0.01   0.01   0.01     0.00  -0.00   0.02
  45   1     0.03   0.01   0.02    -0.02  -0.01  -0.01    -0.01   0.00  -0.01
  46   6    -0.02  -0.01  -0.00    -0.04   0.00  -0.01     0.00  -0.01   0.00
  47   8    -0.02  -0.02  -0.01    -0.03  -0.00  -0.04    -0.00   0.00   0.01
  48   7     0.02   0.01  -0.01     0.04  -0.03  -0.01    -0.01   0.02  -0.01
  49   1    -0.01  -0.07   0.04     0.04   0.02   0.02    -0.02  -0.04   0.01
  50   1     0.03   0.02  -0.03     0.02  -0.03  -0.03     0.00   0.02  -0.00
  51   7     0.03   0.03   0.03    -0.01   0.02   0.04     0.02   0.01  -0.02
  52   1    -0.07  -0.11   0.05     0.03   0.08   0.01    -0.04  -0.08   0.02
  53   1     0.01   0.04  -0.02     0.02  -0.02   0.03    -0.01   0.01  -0.01
                     46                     47                     48
                        a                      a                      a 
 Frequencies --   483.8313               485.9315               487.7627
 Red. masses --     3.6176                 6.8445                 5.1116
 Frc consts  --     0.0000                 0.0000                 0.0000
 IR Inten    --   104.7384                29.7071                54.2903
 Raman Activ --     0.0000                 0.0000                 0.0000
 Depolar     --     0.0000                 0.0000                 0.0000
 Atom AN      X      Y      Z        X      Y      Z        X      Y      Z
   1   8    -0.01   0.00  -0.02    -0.02  -0.01  -0.01    -0.01  -0.00  -0.00
   2   6     0.03  -0.03   0.03     0.00  -0.01   0.01     0.02  -0.01   0.02
   3   1     0.01  -0.00   0.02     0.02  -0.00   0.01     0.01  -0.00   0.01
   4   1     0.01  -0.01   0.01    -0.00   0.01  -0.01     0.00   0.00   0.00
   5   6    -0.01  -0.01   0.06    -0.01  -0.02   0.03     0.01  -0.03   0.01
   6   1    -0.05  -0.02   0.03    -0.01  -0.01   0.01     0.02  -0.00  -0.00
   7   1     0.01   0.04   0.04    -0.00   0.01   0.01     0.00  -0.02   0.00
   8   7     0.02  -0.04   0.00     0.01  -0.02   0.03    -0.03  -0.01   0.03
   9   6    -0.00  -0.04  -0.04    -0.01  -0.01  -0.01     0.03   0.04  -0.03
  10   1    -0.00   0.00  -0.01     0.00   0.02  -0.01     0.01   0.01  -0.01
  11   1    -0.01  -0.02  -0.02    -0.02  -0.01  -0.01     0.02  -0.00  -0.02
  12   1    -0.00  -0.01  -0.01     0.00  -0.01   0.01     0.01   0.03  -0.01
  13   6    -0.00   0.04  -0.04    -0.02   0.02  -0.04    -0.04   0.00   0.02
  14   1     0.02   0.02  -0.02     0.00   0.01  -0.02    -0.01   0.00  -0.00
  15   1    -0.02   0.02  -0.01    -0.03  -0.00  -0.01    -0.02   0.00   0.01
  16   1    -0.00   0.02  -0.02     0.00   0.02  -0.03    -0.01  -0.00   0.00
  17   6     0.00   0.06  -0.01     0.04   0.02   0.00     0.02   0.01  -0.03
  18   1    -0.03   0.01  -0.01     0.01   0.01  -0.01     0.02   0.01  -0.01
  19   1    -0.01   0.04  -0.01     0.00   0.01  -0.01    -0.00  -0.00  -0.03
  20   1     0.02   0.02   0.00     0.02   0.01   0.01     0.01   0.01  -0.01
  21   1    -0.01  -0.00  -0.01     0.00  -0.01   0.01     0.01  -0.01   0.01
  22   6     0.02  -0.09  -0.03    -0.02   0.12   0.03    -0.01   0.09   0.01
  23   8     0.05  -0.10   0.01    -0.05   0.14  -0.01    -0.02   0.10   0.00
  24   7    -0.08   0.09  -0.09     0.10  -0.13   0.12     0.05  -0.10   0.08
  25   1    -0.05   0.05   0.03     0.08  -0.07  -0.06     0.06  -0.04  -0.05
  26   1    -0.08   0.01  -0.06     0.09  -0.03   0.10     0.06  -0.02   0.07
  27   7     0.03   0.06   0.10    -0.03  -0.07  -0.14    -0.03  -0.04  -0.10
  28   1    -0.02  -0.06   0.14     0.08   0.13  -0.20     0.08   0.12  -0.14
  29   1     0.03   0.14  -0.06    -0.14  -0.26   0.16    -0.15  -0.21   0.15
  30   6    -0.03  -0.06  -0.01     0.04   0.07   0.01     0.03   0.03   0.00
  31   8    -0.00  -0.08   0.05     0.01   0.08  -0.07     0.01   0.03  -0.05
  32   7    -0.01   0.06  -0.09     0.00  -0.06   0.12    -0.02  -0.02   0.07
  33   1     0.02   0.05  -0.01     0.00  -0.06   0.00     0.02  -0.03  -0.01
  34   1    -0.03   0.02  -0.06     0.01  -0.01   0.08    -0.01   0.00   0.04
  35   7     0.03   0.04   0.05    -0.01  -0.05  -0.06     0.02  -0.02  -0.02
  36   1    -0.01   0.03   0.10     0.07  -0.06  -0.17     0.12  -0.07  -0.14
[...]
  44   1    -0.00  -0.00   0.00     0.01   0.00  -0.00    -0.00  -0.00  -0.00
  45   1     0.00  -0.00  -0.00    -0.01   0.01   0.01     0.00  -0.00  -0.00
  46   6     0.00  -0.00   0.00    -0.02   0.00  -0.01    -0.00  -0.00  -0.00
  47   8    -0.00   0.00  -0.00     0.01  -0.00   0.00     0.00  -0.00   0.00
  48   7    -0.00   0.00  -0.00     0.00  -0.00   0.00    -0.00   0.00   0.00
  49   1     0.00  -0.00  -0.00    -0.01   0.01   0.00    -0.00   0.00   0.00
  50   1    -0.00   0.00  -0.00     0.00  -0.00   0.00     0.00  -0.00   0.00
  51   7    -0.00   0.00   0.00    -0.00  -0.04  -0.05    -0.00   0.00   0.00
  52   1     0.00  -0.00   0.00    -0.02   0.00  -0.02     0.00  -0.00   0.00
  53   1    -0.00  -0.01  -0.02     0.04   0.13   0.19    -0.00  -0.00  -0.00
                    142                    143                    144
                        a                      a                      a 
 Frequencies --  3495.8673              3498.9564              3499.2353
 Red. masses --     1.4492                 1.4493                 1.4475
 Frc consts  --     0.0000                 0.0000                 0.0000
 IR Inten    --    26.3766                21.4910                24.3080
 Raman Activ --     0.0000                 0.0000                 0.0000
 Depolar     --     0.0000                 0.0000                 0.0000
 Atom AN      X      Y      Z        X      Y      Z        X      Y      Z
   1   8     0.00   0.00  -0.00     0.00  -0.00  -0.00    -0.00  -0.00   0.00
   2   6    -0.00  -0.00  -0.00    -0.00   0.00  -0.00    -0.00   0.00  -0.00
   3   1    -0.00   0.00   0.00     0.00  -0.00   0.00     0.00  -0.00   0.00
   4   1     0.00   0.00  -0.00     0.00  -0.00   0.00     0.00   0.00  -0.00
   5   6     0.00  -0.00   0.00     0.00   0.00  -0.00    -0.00   0.00   0.00
   6   1    -0.00   0.00   0.00     0.00  -0.00  -0.00    -0.00  -0.00  -0.00
   7   1    -0.00  -0.00   0.00    -0.00   0.00   0.00     0.00  -0.00  -0.00
   8   7     0.00   0.00   0.00    -0.00   0.00  -0.00     0.00  -0.00   0.00
   9   6     0.00   0.00  -0.00     0.00   0.00  -0.00     0.00  -0.00   0.00
  10   1     0.00  -0.00   0.00     0.00  -0.00  -0.00    -0.00   0.00  -0.00
  11   1    -0.00  -0.00   0.00    -0.00  -0.00   0.00    -0.00  -0.00  -0.00
  12   1     0.00  -0.00   0.00    -0.00  -0.00   0.00    -0.00  -0.00   0.00
  13   6    -0.00   0.00  -0.00    -0.00   0.00  -0.00     0.00  -0.00   0.00
  14   1    -0.00   0.00   0.00     0.00  -0.00  -0.00    -0.00  -0.00   0.00
  15   1     0.00  -0.00   0.00     0.00  -0.00   0.00    -0.00   0.00  -0.00
  16   1    -0.00  -0.00  -0.00    -0.00  -0.00  -0.00     0.00   0.00   0.00
  17   6     0.00   0.00  -0.00     0.00   0.00  -0.00    -0.00  -0.00   0.00
  18   1    -0.00  -0.00   0.00     0.00  -0.00  -0.00    -0.00   0.00  -0.00
  19   1    -0.00  -0.00   0.00    -0.00  -0.00   0.00     0.00   0.00   0.00
  20   1    -0.00   0.00  -0.00     0.00  -0.00   0.00     0.00   0.00  -0.00
  21   1    -0.01  -0.00   0.01    -0.00   0.00   0.00     0.00   0.00  -0.00
  22   6     0.00  -0.00   0.00    -0.00   0.00   0.00    -0.00   0.00  -0.00
  23   8    -0.00   0.00  -0.00     0.00  -0.00  -0.00     0.00  -0.00  -0.00
  24   7    -0.00  -0.00  -0.00     0.01  -0.01  -0.00     0.00  -0.00   0.00
  25   1     0.01  -0.00   0.01    -0.01   0.01  -0.01    -0.00   0.00  -0.00
  26   1    -0.00   0.01   0.00    -0.03   0.04   0.02    -0.00   0.00   0.00
  27   7    -0.00   0.00  -0.00    -0.16   0.06  -0.07    -0.01   0.00  -0.00
  28   1     0.00  -0.00  -0.00     0.37  -0.54  -0.29     0.02  -0.03  -0.01
  29   1     0.00   0.00   0.00     0.23   0.32   0.54     0.01   0.02   0.03
  30   6    -0.00  -0.00   0.00    -0.00   0.00  -0.00     0.00   0.00  -0.00
  31   8     0.00   0.00   0.00     0.00  -0.00   0.00    -0.00  -0.00   0.00
  32   7     0.00   0.01  -0.01     0.00   0.00   0.00     0.00   0.00   0.00
  33   1     0.01  -0.01   0.01    -0.00   0.01  -0.01    -0.00   0.00  -0.00
  34   1    -0.01  -0.03   0.00    -0.00  -0.01   0.00    -0.00  -0.00   0.00
  35   7     0.03  -0.08   0.16    -0.00   0.00  -0.00     0.00  -0.00   0.00
  36   1     0.22   0.64  -0.07    -0.00  -0.00   0.00    -0.00  -0.00   0.00
  37   1    -0.32  -0.33  -0.53     0.00   0.00   0.00     0.00   0.00  -0.00
  38   6    -0.00  -0.00  -0.00    -0.00  -0.00   0.00     0.00  -0.00  -0.00
  39   8     0.00   0.00  -0.00     0.00   0.00  -0.00     0.00   0.00   0.00
  40   7     0.00   0.00   0.00     0.00   0.00  -0.00    -0.00   0.00   0.00
  41   1    -0.00  -0.00  -0.00     0.00   0.00   0.00    -0.00  -0.01  -0.01
  42   1    -0.00  -0.00   0.00    -0.00  -0.00   0.00     0.01   0.00  -0.00
  43   7    -0.00   0.00   0.00     0.00  -0.00  -0.00     0.00   0.00   0.00
  44   1     0.00   0.00   0.00     0.00   0.00  -0.00    -0.00  -0.00   0.00
  45   1     0.00  -0.00  -0.00    -0.00   0.00   0.00     0.00  -0.00  -0.00
  46   6    -0.00  -0.00   0.00     0.00   0.00   0.00    -0.00  -0.00  -0.00
  47   8    -0.00   0.00  -0.00    -0.00   0.00  -0.00     0.00  -0.00   0.00
  48   7    -0.00   0.00  -0.00     0.00   0.00   0.01    -0.02  -0.06  -0.17
  49   1     0.00  -0.00  -0.00     0.03  -0.02  -0.01    -0.53   0.33   0.26
  50   1     0.00  -0.00   0.00    -0.03   0.01  -0.02     0.59  -0.11   0.37
  51   7    -0.00   0.00  -0.00    -0.00  -0.00  -0.00     0.02  -0.00   0.02
  52   1     0.00  -0.00   0.00     0.00  -0.00   0.00    -0.07   0.03  -0.06
  53   1    -0.00  -0.00   0.00     0.00   0.00   0.00    -0.00  -0.01  -0.01
                    145                    146                    147
                        a                      a                      a 
 Frequencies --  3503.0868              3512.8052              3530.8741
 Red. masses --     1.4453                 1.8786                 1.9000
 Frc consts  --     0.0000                 0.0000                 0.0000
 IR Inten    --    22.6667                10.3305                16.2417
 Raman Activ --     0.0000                 0.0000                 0.0000
 Depolar     --     0.0000                 0.0000                 0.0000
 Atom AN      X      Y      Z        X      Y      Z        X      Y      Z
   1   8    -0.00  -0.00   0.00    -0.00  -0.00   0.00     0.00   0.00  -0.00
   2   6     0.00   0.00  -0.00    -0.00   0.00   0.00     0.00  -0.00   0.00
   3   1    -0.00  -0.00   0.00     0.00   0.00  -0.00    -0.00   0.00  -0.00
   4   1    -0.00   0.00  -0.00     0.00  -0.00  -0.00    -0.00  -0.00  -0.00
   5   6    -0.00   0.00  -0.00     0.00  -0.00   0.00    -0.00   0.00   0.00
   6   1     0.00  -0.00  -0.00    -0.00  -0.00  -0.00    -0.00  -0.00   0.00
   7   1     0.00  -0.00  -0.00     0.00   0.00  -0.00     0.00  -0.00  -0.00
   8   7     0.00  -0.00   0.00     0.00  -0.00   0.00     0.00  -0.00  -0.00
   9   6    -0.00  -0.00   0.00    -0.00  -0.00   0.00     0.00  -0.00  -0.00
  10   1    -0.00   0.00  -0.00     0.00   0.00   0.00     0.00   0.00   0.00
  11   1     0.00   0.00  -0.00    -0.00   0.00  -0.00    -0.00  -0.00   0.00
  12   1    -0.00  -0.00   0.00     0.00   0.00  -0.00    -0.00   0.00   0.00
  13   6    -0.00   0.00   0.00    -0.00   0.00  -0.00     0.00   0.00  -0.00
  14   1     0.00  -0.00  -0.00     0.00  -0.00  -0.00     0.00   0.00  -0.00
  15   1     0.00   0.00   0.00     0.00  -0.00   0.00    -0.00  -0.00   0.00
  16   1    -0.00   0.00  -0.00     0.00   0.00   0.00    -0.00  -0.00  -0.00
  17   6    -0.00  -0.00   0.00     0.00  -0.00   0.00     0.00   0.00  -0.00
  18   1     0.00  -0.00  -0.00     0.00  -0.00  -0.00     0.00  -0.00  -0.00
  19   1     0.00   0.00  -0.00     0.00   0.00  -0.00    -0.00  -0.00  -0.00
  20   1     0.00   0.00   0.00    -0.00   0.00  -0.00    -0.00  -0.00   0.00
  21   1     0.00   0.00  -0.00     0.00   0.00  -0.00    -0.00  -0.00   0.00
  22   6     0.00  -0.00  -0.00     0.00   0.00  -0.00    -0.01   0.00  -0.00
  23   8    -0.00   0.00   0.00    -0.00  -0.00   0.00     0.00  -0.00  -0.00
  24   7     0.00  -0.00  -0.00     0.00  -0.00   0.00    -0.14   0.20   0.09
  25   1     0.00  -0.00  -0.00    -0.00   0.00  -0.00     0.05  -0.03   0.06
  26   1    -0.00   0.00   0.00     0.00  -0.00  -0.00     0.51  -0.71  -0.40
  27   7    -0.00   0.00  -0.00    -0.00   0.00  -0.00    -0.01  -0.01  -0.02
  28   1     0.00  -0.00  -0.00     0.00  -0.00  -0.00    -0.01   0.01   0.00
  29   1     0.00   0.00   0.00     0.00   0.00   0.00     0.03   0.04   0.07
  30   6     0.00   0.00  -0.00     0.00   0.00  -0.00     0.00   0.00   0.00
  31   8    -0.00  -0.00   0.00    -0.00  -0.00   0.00    -0.00  -0.00  -0.00
  32   7    -0.00  -0.00   0.00     0.00   0.00   0.00     0.00   0.01  -0.00
  33   1    -0.00   0.00  -0.00    -0.00   0.00  -0.00     0.00  -0.00   0.00
  34   1     0.00   0.00  -0.00    -0.00  -0.00   0.00    -0.01  -0.03   0.00
  35   7    -0.00  -0.00  -0.00    -0.00   0.00  -0.00    -0.00  -0.00   0.00
  36   1     0.00   0.00  -0.00    -0.00  -0.00   0.00     0.00   0.01  -0.00
  37   1     0.00   0.00   0.00     0.00   0.00   0.00     0.00   0.00   0.00
  38   6     0.00   0.00   0.00    -0.00  -0.00   0.00     0.00   0.00   0.00
  39   8    -0.00  -0.00   0.00     0.00   0.00   0.00     0.00   0.00  -0.00
  40   7    -0.01  -0.01  -0.00    -0.00  -0.00  -0.00     0.00   0.00  -0.00
  41   1     0.00   0.01   0.01     0.00   0.00   0.00     0.00  -0.00  -0.00
  42   1     0.04   0.02  -0.01     0.01   0.00  -0.00    -0.00  -0.00   0.00
  43   7     0.04   0.16   0.08     0.00   0.00   0.00     0.00   0.00   0.00
  44   1    -0.65  -0.31   0.02    -0.02  -0.01   0.00    -0.00  -0.00   0.00
  45   1     0.51  -0.28  -0.32     0.01  -0.00  -0.01     0.00  -0.00  -0.00
  46   6     0.00   0.00   0.00    -0.00   0.00  -0.01     0.00  -0.00   0.00
  47   8    -0.00  -0.00  -0.00     0.00  -0.00   0.00    -0.00   0.00  -0.00
  48   7    -0.00   0.00   0.00     0.01  -0.01  -0.02     0.00   0.00   0.00
  49   1     0.00  -0.00  -0.00    -0.08   0.05   0.04     0.00  -0.00  -0.00
  50   1    -0.00   0.00  -0.00     0.03  -0.01   0.02    -0.00   0.00  -0.00
  51   7     0.00  -0.00   0.00    -0.19   0.06  -0.16     0.00  -0.00   0.00
  52   1    -0.02   0.01  -0.01     0.72  -0.27   0.57    -0.00   0.00  -0.00
  53   1     0.00   0.00   0.01    -0.00   0.05   0.05    -0.00  -0.00   0.00
                    148                    149                    150
                        a                      a                      a 
 Frequencies --  3533.5903              3537.2133              3561.7006
 Red. masses --     1.9120                 1.9166                 2.1834
 Frc consts  --     0.0000                 0.0000                 0.0000
 IR Inten    --    16.8878                16.8527                18.5240
 Raman Activ --     0.0000                 0.0000                 0.0000
 Depolar     --     0.0000                 0.0000                 0.0000
 Atom AN      X      Y      Z        X      Y      Z        X      Y      Z
   1   8     0.00   0.00  -0.00     0.00   0.00  -0.00     0.00   0.00  -0.00
   2   6     0.00   0.00   0.00     0.00   0.00  -0.00    -0.00  -0.00   0.00
   3   1     0.00  -0.00   0.00    -0.00  -0.00   0.00    -0.00   0.00   0.00
   4   1    -0.00  -0.00   0.00    -0.00   0.00   0.00     0.00   0.00  -0.00
   5   6    -0.00   0.00  -0.00     0.00   0.00   0.00    -0.00  -0.00   0.00
   6   1     0.00  -0.00  -0.00    -0.00  -0.00   0.00     0.00  -0.00  -0.00
   7   1    -0.00   0.00   0.00    -0.00   0.00  -0.00     0.00   0.00   0.00
   8   7     0.00   0.00  -0.00    -0.00  -0.00   0.00    -0.00   0.00   0.00
   9   6    -0.00   0.00   0.00     0.00   0.00  -0.00    -0.00   0.00   0.00
  10   1    -0.00  -0.00  -0.00     0.00   0.00   0.00    -0.00  -0.00  -0.00
  11   1     0.00   0.00  -0.00    -0.00  -0.00   0.00    -0.00  -0.00  -0.00
  12   1     0.00  -0.00   0.00    -0.00   0.00   0.00     0.00   0.00   0.00
  13   6     0.00   0.00  -0.00    -0.00  -0.00  -0.00     0.00   0.00  -0.00
  14   1     0.00  -0.00   0.00     0.00  -0.00  -0.00    -0.00   0.00   0.00
  15   1    -0.00  -0.00   0.00    -0.00  -0.00   0.00    -0.00  -0.00   0.00
  16   1    -0.00  -0.00  -0.00     0.00   0.00   0.00    -0.00  -0.00  -0.00
  17   6     0.00   0.00  -0.00     0.00   0.00  -0.00    -0.00   0.00   0.00
  18   1     0.00  -0.00   0.00     0.00   0.00   0.00     0.00  -0.00  -0.00
  19   1    -0.00  -0.00   0.00    -0.00  -0.00   0.00     0.00   0.00  -0.00
  20   1     0.00  -0.00   0.00     0.00  -0.00   0.00    -0.00  -0.00   0.00
  21   1    -0.00  -0.00   0.00    -0.00  -0.00   0.00    -0.00  -0.00   0.00
  22   6    -0.00   0.00   0.00     0.00  -0.00  -0.00    -0.00   0.00  -0.00
  23   8     0.00  -0.00  -0.00    -0.00   0.00   0.00     0.00  -0.00   0.00
  24   7    -0.00   0.00   0.00    -0.00   0.01   0.00    -0.00   0.00  -0.00
  25   1     0.00  -0.00   0.00     0.00   0.00   0.00     0.01  -0.00   0.00
  26   1     0.00  -0.00  -0.00     0.02  -0.02  -0.01     0.00  -0.00  -0.00
  27   7    -0.00   0.00  -0.00    -0.00   0.00   0.00     0.00  -0.01  -0.01
  28   1     0.00  -0.00  -0.00     0.00  -0.01  -0.00    -0.01   0.01   0.01
  29   1     0.00   0.00   0.00     0.00   0.00   0.00     0.01   0.01   0.01
  30   6     0.00   0.00   0.00    -0.00  -0.01   0.01     0.01   0.01   0.00
  31   8     0.00  -0.00  -0.00     0.00   0.00  -0.00    -0.00  -0.00  -0.00
  32   7     0.00   0.00  -0.00    -0.07  -0.25   0.04     0.01   0.02  -0.01
  33   1     0.00  -0.00   0.00    -0.04   0.04  -0.08     0.01  -0.00   0.01
  34   1    -0.00  -0.00   0.00     0.31   0.90  -0.09    -0.03  -0.09   0.01
  35   7     0.00   0.00   0.00     0.02   0.02   0.02     0.13   0.25   0.11
  36   1    -0.00  -0.00   0.00    -0.01  -0.04   0.01    -0.22  -0.64   0.10
  37   1    -0.00  -0.00  -0.00    -0.04  -0.04  -0.07    -0.29  -0.29  -0.51
  38   6    -0.00  -0.01  -0.00    -0.00  -0.00   0.00     0.00  -0.00  -0.00
  39   8     0.00   0.00   0.00     0.00   0.00  -0.00     0.00   0.00  -0.00
  40   7    -0.22  -0.14   0.02    -0.00  -0.00   0.00     0.00   0.00  -0.00
  41   1    -0.00   0.08   0.06    -0.00  -0.00   0.00    -0.00  -0.00  -0.00
  42   1     0.82   0.47  -0.13     0.00   0.00  -0.00    -0.00  -0.00   0.00
  43   7     0.02  -0.01  -0.01    -0.00  -0.00   0.00     0.00   0.00  -0.00
  44   1    -0.00  -0.00  -0.00     0.00   0.00  -0.00    -0.00  -0.00   0.00
  45   1    -0.06   0.04   0.04     0.00  -0.00  -0.00    -0.00   0.00   0.00
  46   6    -0.00   0.00  -0.00    -0.00   0.00   0.00     0.00  -0.00   0.00
  47   8     0.00   0.00   0.00     0.00   0.00  -0.00    -0.00   0.00  -0.00
  48   7     0.00  -0.00   0.00    -0.00   0.00  -0.00     0.00  -0.00   0.00
  49   1     0.00  -0.00  -0.00    -0.00   0.00   0.00    -0.00   0.00   0.00
  50   1    -0.01   0.00  -0.01     0.00  -0.00   0.00    -0.00   0.00  -0.00
  51   7     0.00  -0.00   0.00     0.00   0.00  -0.00     0.00   0.00   0.00
  52   1    -0.01   0.00  -0.00     0.00  -0.00   0.00    -0.00   0.00  -0.00
  53   1     0.00   0.00   0.00    -0.00  -0.00   0.00    -0.00  -0.00  -0.00
                    151                    152                    153
                        a                      a                      a 
 Frequencies --  3564.9491              3567.0266              3571.0492
 Red. masses --     2.1835                 2.1897                 2.1886
 Frc consts  --     0.0000                 0.0000                 0.0000
 IR Inten    --    16.3332                14.3894                16.0140
 Raman Activ --     0.0000                 0.0000                 0.0000
 Depolar     --     0.0000                 0.0000                 0.0000
 Atom AN      X      Y      Z        X      Y      Z        X      Y      Z
   1   8    -0.00  -0.00   0.00    -0.00  -0.00  -0.00    -0.00  -0.00   0.00
   2   6     0.00  -0.00  -0.00    -0.00   0.00   0.00     0.00  -0.00  -0.00
   3   1     0.00   0.00   0.00     0.00   0.00  -0.00     0.00   0.00   0.00
   4   1     0.00   0.00   0.00     0.00  -0.00   0.00    -0.00   0.00   0.00
   5   6     0.00  -0.00  -0.00     0.00  -0.00   0.00    -0.00   0.00  -0.00
   6   1    -0.00   0.00   0.00    -0.00  -0.00  -0.00     0.00  -0.00   0.00
   7   1    -0.00   0.00  -0.00    -0.00   0.00  -0.00     0.00   0.00  -0.00
   8   7    -0.00   0.00  -0.00     0.00   0.00   0.00    -0.00  -0.00   0.00
   9   6    -0.00   0.00   0.00    -0.00  -0.00   0.00    -0.00  -0.00   0.00
  10   1     0.00   0.00   0.00     0.00  -0.00   0.00    -0.00  -0.00  -0.00
  11   1    -0.00  -0.00   0.00    -0.00   0.00  -0.00     0.00   0.00  -0.00
  12   1     0.00  -0.00  -0.00     0.00   0.00  -0.00     0.00  -0.00  -0.00
  13   6    -0.00   0.00  -0.00    -0.00   0.00  -0.00    -0.00   0.00  -0.00
  14   1    -0.00   0.00   0.00     0.00  -0.00  -0.00     0.00  -0.00  -0.00
  15   1     0.00  -0.00   0.00     0.00  -0.00   0.00    -0.00  -0.00   0.00
  16   1     0.00   0.00   0.00     0.00   0.00  -0.00    -0.00  -0.00   0.00
  17   6     0.00   0.00  -0.00     0.00  -0.00   0.00    -0.00   0.00   0.00
  18   1     0.00   0.00  -0.00    -0.00  -0.00   0.00     0.00  -0.00  -0.00
  19   1    -0.00  -0.00   0.00     0.00  -0.00  -0.00     0.00   0.00  -0.00
  20   1     0.00  -0.00   0.00    -0.00   0.00  -0.00    -0.00   0.00   0.00
  21   1     0.00   0.00  -0.00     0.00  -0.00   0.00     0.00   0.00  -0.00
  22   6     0.00  -0.01  -0.01     0.00  -0.00  -0.00     0.00  -0.00  -0.00
  23   8    -0.00   0.00   0.00     0.00   0.00   0.00    -0.00   0.00   0.00
  24   7     0.01  -0.01  -0.01     0.00  -0.00  -0.00    -0.00   0.00   0.00
  25   1    -0.00   0.00  -0.01    -0.00  -0.00  -0.00     0.00  -0.00   0.00
  26   1    -0.04   0.05   0.03    -0.00   0.00   0.00     0.00  -0.00  -0.00
  27   7     0.03  -0.21  -0.21     0.00  -0.00  -0.00    -0.00   0.00   0.00
  28   1    -0.35   0.49   0.24    -0.00   0.00   0.00     0.00  -0.00  -0.00
  29   1     0.26   0.31   0.56     0.00   0.00   0.01    -0.00  -0.00  -0.00
  30   6    -0.00  -0.00  -0.00    -0.00  -0.00   0.00     0.00   0.00  -0.00
  31   8    -0.00   0.00   0.00     0.00   0.00  -0.00    -0.00  -0.00   0.00
  32   7    -0.00  -0.00   0.00     0.00   0.00  -0.00     0.00   0.00  -0.00
  33   1    -0.00   0.00  -0.01    -0.00   0.00  -0.00     0.00  -0.00   0.00
  34   1     0.00   0.01  -0.00    -0.00  -0.00   0.00    -0.00  -0.00   0.00
  35   7    -0.00  -0.01  -0.00     0.00   0.00  -0.00     0.00   0.00   0.00
  36   1     0.01   0.02  -0.00    -0.00  -0.00   0.00    -0.00  -0.00   0.00
  37   1     0.01   0.01   0.01     0.00   0.00   0.00    -0.00  -0.00  -0.00
  38   6    -0.00   0.00   0.00    -0.00  -0.00  -0.00    -0.01   0.00   0.00
  39   8     0.00   0.00  -0.00     0.00   0.00   0.00     0.00  -0.00  -0.00
  40   7    -0.00  -0.00  -0.00    -0.00  -0.00  -0.00    -0.01  -0.01   0.00
  41   1     0.00   0.00   0.00     0.00   0.01   0.00    -0.00   0.01   0.01
  42   1     0.00   0.00  -0.00     0.00   0.00  -0.00     0.06   0.03  -0.01
  43   7    -0.00  -0.00   0.00     0.01  -0.00  -0.00    -0.29   0.00   0.09
  44   1     0.00   0.00  -0.00    -0.01  -0.01   0.00     0.57   0.30  -0.00
  45   1     0.00  -0.00  -0.00    -0.01   0.01   0.01     0.52  -0.32  -0.35
  46   6     0.00  -0.00   0.00    -0.01   0.00   0.00    -0.00   0.00  -0.00
  47   8    -0.00   0.00  -0.00     0.00  -0.00  -0.00     0.00   0.00   0.00
  48   7     0.00  -0.00   0.00    -0.28   0.11  -0.02    -0.00   0.00  -0.00
  49   1    -0.01   0.00   0.00     0.52  -0.34  -0.29     0.01  -0.01  -0.01
  50   1    -0.01   0.00  -0.00     0.54  -0.09   0.37     0.01  -0.00   0.01
  51   7    -0.00  -0.00  -0.00    -0.01   0.00  -0.01    -0.00  -0.00  -0.00
  52   1    -0.00   0.00  -0.00     0.03  -0.01   0.03     0.00  -0.00   0.00
  53   1     0.00   0.00   0.00    -0.00   0.00   0.00     0.00   0.00   0.01
