      -----------------------------------------------------------      
     |                   =====================                   |     
     |                           x T B                           |     
     |                   =====================                   |     
     |                         S. Grimme                         |     
     |          Mulliken Center for Theoretical Chemistry        |     
     |                    University of Bonn                     |     
      -----------------------------------------------------------      

   * xtb version 6.6.1 (unknown-commit) compiled by '@Linux' on 12/27/2023

   xtb is free software: you can redistribute it and/or modify it under
   the terms of the GNU Lesser General Public License as published by
   the Free Software Foundation, either version 3 of the License, or
   (at your option) any later version.
   
   xtb is distributed in the hope that it will be useful,
   but WITHOUT ANY WARRANTY; without even the implied warranty of
   MERCHANTABILITY or FITNESS FOR A PARTICULAR PURPOSE.  See the
   GNU Lesser General Public License for more details.
   
   Cite this work as:
   * C. Bannwarth, E. Caldeweyher, S. Ehlert, A. Hansen, P. Pracht,
     J. Seibert, S. Spicher, S. Grimme, WIREs Comput. Mol. Sci., 2020, 11,
     e01493. DOI: 10.1002/wcms.1493
   
   for GFN2-xTB:
   * C. Bannwarth, S. Ehlert and S. Grimme., J. Chem. Theory Comput., 2019,
     15, 1652-1671. DOI: 10.1021/acs.jctc.8b01176
   for GFN1-xTB:
   * S. Grimme, C. Bannwarth, P. Shushkov, J. Chem. Theory Comput., 2017,
     13, 1989-2009. DOI: 10.1021/acs.jctc.7b00118
   for GFN0-xTB:
   * P. Pracht, E. Caldeweyher, S. Ehlert, S. Grimme, ChemRxiv, 2019, preprint.
     DOI: 10.26434/chemrxiv.8326202.v1
   for GFN-FF:
   * S. Spicher and S. Grimme, Angew. Chem. Int. Ed., 2020, 59, 15665-15673.
     DOI: 10.1002/anie.202004239
   
   for ALPB and GBSA implicit solvation:
   * S. Ehlert, M. Stahn, S. Spicher, S. Grimme, J. Chem. Theory Comput.,
     2021, 17, 4250-4261. DOI: 10.1021/acs.jctc.1c00471
   
   for DFT-D4:
   * E. Caldeweyher, C. Bannwarth and S. Grimme, J. Chem. Phys., 2017,
     147, 034112. DOI: 10.1063/1.4993215
   * E. Caldeweyher, S. Ehlert, A. Hansen, H. Neugebauer, S. Spicher,
     C. Bannwarth and S. Grimme, J. Chem. Phys., 2019, 150, 154122.
     DOI: 10.1063/1.5090222
   * E. Caldeweyher, J.-M. Mewes, S. Ehlert and S. Grimme, Phys. Chem. Chem. Phys.
     2020, 22, 8499-8512. DOI: 10.1039/D0CP00502A
   
   for sTDA-xTB:
   * S. Grimme and C. Bannwarth, J. Chem. Phys., 2016, 145, 054103.
     DOI: 10.1063/1.4959605
   
   in the mass-spec context:
   * V. Asgeirsson, C. Bauer and S. Grimme, Chem. Sci., 2017, 8, 4879.
     DOI: 10.1039/c7sc00601b
   * J. Koopman and S. Grimme, ACS Omega 2019, 4, 12, 15120-15133.
     DOI: 10.1021/acsomega.9b02011
   
   for metadynamics refer to:
   * S. Grimme, J. Chem. Theory Comput., 2019, 155, 2847-2862
     DOI: 10.1021/acs.jctc.9b00143
   
   for SPH calculations refer to:
   * S. Spicher and S. Grimme, J. Chem. Theory Comput., 2021, 17, 1701-1714
     DOI: 10.1021/acs.jctc.0c01306
   
   with help from (in alphabetical order)
   P. Atkinson, C. Bannwarth, F. Bohle, G. Brandenburg, E. Caldeweyher
   M. Checinski, S. Dohm, S. Ehlert, S. Ehrlich, I. Gerasimov, C. Hölzer
   A. Katbashev, J. Koopman, C. Lavigne, S. Lehtola, F. März, M. Müller,
   F. Musil, H. Neugebauer, J. Pisarek, C. Plett, P. Pracht, F. Pultar,
   J. Seibert, P. Shushkov, S. Spicher, M. Stahn, M. Steiner, T. Strunk,
   J. Stückrath, T. Rose, and J. Unsleber
   
 * started run on 2024/01/10 at 15:39:22.163     

           -------------------------------------------------
          |                Calculation Setup                |
           -------------------------------------------------

          program call               : xtb struc.xyz --gfn2 --hess
          hostname                   : swaroop
          coordinate file            : struc.xyz
          omp threads                :                     1

   ID    Z sym.   atoms
    1    8 O      1, 23, 31, 39, 47
    2    6 C      2, 5, 9, 13, 17, 22, 30, 38, 46
    3    1 H      3, 4, 6, 7, 10-12, 14-16, 18-21, 25, 26, 28, 29, 33, 34,
                  36, 37, 41, 42, 44, 45, 49, 50, 52, 53
    4    7 N      8, 24, 27, 32, 35, 40, 43, 48, 51

molecular fragmentation (1/2 indicates fragments):
11111111111111111111122222222222222222222222222222222
# atoms in fragment 1/2:    21    32
 fragment masses (1/2) :      104.17      240.22
CMA distance (Bohr)    :   3.677
constraining FC (au)   :  0.0500

           -------------------------------------------------
          |                 G F N 2 - x T B                 |
           -------------------------------------------------

        Reference                      10.1021/acs.jctc.8b01176
      * Hamiltonian:
        H0-scaling (s, p, d)           1.850000    2.230000    2.230000
        zeta-weighting                 0.500000
      * Dispersion:
        s8                             2.700000
        a1                             0.520000
        a2                             5.000000
        s9                             5.000000
      * Repulsion:
        kExp                           1.500000    1.000000
        rExp                           1.000000
      * Coulomb:
        alpha                          2.000000
        third order                    shell-resolved
        anisotropic                    true
        a3                             3.000000
        a5                             4.000000
        cn-shift                       1.200000
        cn-exp                         4.000000
        max-rad                        5.000000


          ...................................................
          :                      SETUP                      :
          :.................................................:
          :  # basis functions                 122          :
          :  # atomic orbitals                 122          :
          :  # shells                           76          :
          :  # electrons                       140          :
          :  max. iterations                   250          :
          :  Hamiltonian                  GFN2-xTB          :
          :  restarted?                      false          :
          :  GBSA solvation                  false          :
          :  PC potential                    false          :
          :  electronic temp.          300.0000000     K    :
          :  accuracy                    1.0000000          :
          :  -> integral cutoff          0.2500000E+02      :
          :  -> integral neglect         0.1000000E-07      :
          :  -> SCF convergence          0.1000000E-05 Eh   :
          :  -> wf. convergence          0.1000000E-03 e    :
          :  Broyden damping             0.4000000          :
          ...................................................

 iter      E             dE          RMSdq      gap      omega  full diag
   1    -81.5501045 -0.815501E+02  0.428E+00    5.13       0.0  T
   2    -81.8354069 -0.285302E+00  0.232E+00    6.00       1.0  T
   3    -81.8409811 -0.557419E-02  0.114E+00    5.75       1.0  T
   4    -81.8422868 -0.130568E-02  0.238E-01    5.85       1.0  T
   5    -81.8431690 -0.882216E-03  0.905E-02    5.78       1.0  T
   6    -81.8431933 -0.242452E-04  0.266E-02    5.80       1.0  T
   7    -81.8431974 -0.411658E-05  0.744E-03    5.80       1.8  T
   8    -81.8431977 -0.271289E-06  0.251E-03    5.80       5.5  T
   9    -81.8431977 -0.130623E-07  0.828E-04    5.80      16.6  T
  10    -81.8431977 -0.471852E-08  0.180E-04    5.80      76.4  T

   *** convergence criteria satisfied after 10 iterations ***

         #    Occupation            Energy/Eh            Energy/eV
      -------------------------------------------------------------
         1        2.0000           -0.8000916             -21.7716
       ...           ...                  ...                  ...
        64        2.0000           -0.5015496             -13.6479
        65        2.0000           -0.5000324             -13.6066
        66        2.0000           -0.4985337             -13.5658
        67        2.0000           -0.4969504             -13.5227
        68        2.0000           -0.4940253             -13.4431
        69        2.0000           -0.4904275             -13.3452
        70        2.0000           -0.4894767             -13.3193 (HOMO)
        71                         -0.2764357              -7.5222 (LUMO)
        72                         -0.2733519              -7.4383
        73                         -0.2704209              -7.3585
        74                         -0.2619703              -7.1286
        75                         -0.1565261              -4.2593
       ...                                ...                  ...
       122                          0.5535100              15.0618
      -------------------------------------------------------------
                  HL-Gap            0.2130410 Eh            5.7971 eV
             Fermi-level           -0.3829562 Eh          -10.4208 eV

 SCC (total)                   0 d,  0 h,  0 min,  0.070 sec
 SCC setup                      ...        0 min,  0.000 sec (  0.418%)
 Dispersion                     ...        0 min,  0.001 sec (  0.879%)
 classical contributions        ...        0 min,  0.000 sec (  0.264%)
 integral evaluation            ...        0 min,  0.008 sec ( 11.474%)
 iterations                     ...        0 min,  0.033 sec ( 46.894%)
 molecular gradient             ...        0 min,  0.028 sec ( 39.685%)
 printout                       ...        0 min,  0.000 sec (  0.367%)

         :::::::::::::::::::::::::::::::::::::::::::::::::::::
         ::                     SUMMARY                     ::
         :::::::::::::::::::::::::::::::::::::::::::::::::::::
         :: total energy             -80.932815773743 Eh    ::
         :: gradient norm              0.000166964715 Eh/a0 ::
         :: HOMO-LUMO gap              5.797141305955 eV    ::
         ::.................................................::
         :: SCC energy               -81.843197671221 Eh    ::
         :: -> isotropic ES            0.292836290824 Eh    ::
         :: -> anisotropic ES         -0.026882464971 Eh    ::
         :: -> anisotropic XC          0.019937811700 Eh    ::
         :: -> dispersion             -0.044847580337 Eh    ::
         :: repulsion energy           0.909072866149 Eh    ::
         :: add. restraining           0.000000000000 Eh    ::
         :: total charge               1.000000000000 e     ::
         :::::::::::::::::::::::::::::::::::::::::::::::::::::

           ------------------------------------------------- 
          |                Numerical Hessian                |
           ------------------------------------------------- 
step length          :   0.00500
SCC accuracy         :   0.30000
Hessian scale factor :   1.00000
frozen atoms in %    :   0.00000    0
RMS gradient         :   0.00017
estimated CPU  time      0.24 min
estimated wall time      0.24 min

writing file <hessian>.

 projected vibrational frequencies (cm⁻¹)
eigval :       -0.00    -0.00    -0.00     0.00     0.00     0.00
eigval :       13.30    15.00    21.12    31.57    34.24    36.82
eigval :       41.72    45.01    51.02    53.42    61.38    65.04
eigval :       76.72    81.24    93.88   116.28   118.73   120.94
eigval :      126.90   130.15   162.66   171.82   175.15   185.03
eigval :      197.53   201.25   219.18   224.12   270.16   270.51
eigval :      273.07   302.96   314.13   333.13   349.27   374.30
eigval :      400.94   415.87   427.86   450.53   457.52   458.33
eigval :      466.66   468.89   480.21   483.83   485.93   487.76
eigval :      489.73   491.43   509.30   545.50   546.97   549.11
eigval :      551.31   554.77   665.40   673.02   673.37   674.87
eigval :      700.80   730.79   735.22   763.90   774.81   813.49
eigval :      902.63   919.94   960.49   963.18   964.41   966.53
eigval :     1001.41  1004.86  1016.09  1017.37  1022.02  1024.36
eigval :     1026.37  1029.47  1040.82  1084.00  1085.48  1089.18
eigval :     1089.68  1097.75  1100.78  1128.63  1163.40  1222.79
eigval :     1247.33  1267.79  1310.60  1331.76  1347.23  1350.59
eigval :     1353.91  1364.29  1372.04  1379.98  1413.07  1414.40
eigval :     1428.87  1439.42  1441.87  1444.01  1445.06  1447.64
eigval :     1450.46  1453.19  1458.88  1466.79  1471.79  1478.95
eigval :     1484.40  1501.86  1510.72  1511.01  1513.43  1665.13
eigval :     1674.39  1691.09  1702.16  2889.22  2978.89  2992.81
eigval :     2996.69  3010.41  3023.06  3023.89  3043.04  3044.53
eigval :     3047.04  3053.39  3065.96  3073.21  3142.87  3191.88
eigval :     3252.44  3255.29  3298.97  3495.87  3498.96  3499.24
eigval :     3503.09  3512.81  3530.87  3533.59  3537.21  3561.70
eigval :     3564.95  3567.03  3571.05
           -------------------------------------------------
          |                Property Printout                |
           -------------------------------------------------

    * Orbital Energies and Occupations

         #    Occupation            Energy/Eh            Energy/eV
      -------------------------------------------------------------
         1        2.0000           -0.8000918             -21.7716
       ...           ...                  ...                  ...
        58        2.0000           -0.5101232             -13.8812
        59        2.0000           -0.5098825             -13.8746
        60        2.0000           -0.5061119             -13.7720
        61        2.0000           -0.5043505             -13.7241
        62        2.0000           -0.5030799             -13.6895
        63        2.0000           -0.5022622             -13.6673
        64        2.0000           -0.5015498             -13.6479
        65        2.0000           -0.5000326             -13.6066
        66        2.0000           -0.4985344             -13.5658
        67        2.0000           -0.4969516             -13.5227
        68        2.0000           -0.4940269             -13.4432
        69        2.0000           -0.4904290             -13.3453
        70        2.0000           -0.4894785             -13.3194 (HOMO)
        71                         -0.2764359              -7.5222 (LUMO)
        72                         -0.2733522              -7.4383
        73                         -0.2704244              -7.3586
        74                         -0.2619718              -7.1286
        75                         -0.1565263              -4.2593
        76                         -0.1045228              -2.8442
        77                         -0.0971191              -2.6427
        78                         -0.0848585              -2.3091
        79                         -0.0811581              -2.2084
        80                         -0.0775406              -2.1100
        81                         -0.0732448              -1.9931
       ...                                ...                  ...
       122                          0.5535079              15.0617
      -------------------------------------------------------------
                  HL-Gap            0.2130426 Eh            5.7972 eV
             Fermi-level           -0.3829572 Eh          -10.4208 eV

     #   Z          covCN         q      C6AA      α(0)
     1   8 O        1.655    -0.454    21.917     6.320
     2   6 C        3.673     0.074    19.566     6.339
     3   1 H        0.923     0.040     2.447     2.446
     4   1 H        0.924     0.060     2.203     2.321
     5   6 C        3.766    -0.063    21.746     6.646
     6   1 H        0.924     0.071     2.078     2.254
     7   1 H        0.924     0.117     1.640     2.003
     8   7 N        3.623     0.156    18.609     6.407
     9   6 C        3.725    -0.122    22.951     6.841
    10   1 H        0.925     0.114     1.667     2.019
    11   1 H        0.924     0.123     1.592     1.973
    12   1 H        0.925     0.092     1.862     2.134
    13   6 C        3.721    -0.113    22.777     6.816
    14   1 H        0.925     0.081     1.970     2.195
    15   1 H        0.924     0.133     1.516     1.925
    16   1 H        0.925     0.094     1.845     2.124
    17   6 C        3.733    -0.114    22.769     6.811
    18   1 H        0.925     0.082     1.958     2.188
    19   1 H        0.924     0.117     1.641     2.003
    20   1 H        0.925     0.105     1.738     2.061
    21   1 H        0.803     0.333     0.629     1.246
    22   6 C        2.675     0.340    21.223     7.538
    23   8 O        0.861    -0.538    24.640     6.655
    24   7 N        2.643    -0.311    28.001     7.859
    25   1 H        0.859     0.245     0.904     1.490
    26   1 H        0.861     0.179     1.218     1.729
    27   7 N        2.644    -0.290    27.484     7.786
    28   1 H        0.861     0.185     1.183     1.704
    29   1 H        0.860     0.201     1.102     1.645
    30   6 C        2.675     0.342    21.194     7.533
    31   8 O        0.861    -0.530    24.458     6.631
    32   7 N        2.644    -0.305    27.866     7.840
    33   1 H        0.860     0.239     0.928     1.509
    34   1 H        0.861     0.181     1.208     1.722
    35   7 N        2.644    -0.287    27.398     7.774
    36   1 H        0.861     0.187     1.176     1.699
    37   1 H        0.860     0.207     1.073     1.623
    38   6 C        2.675     0.342    21.198     7.534
    39   8 O        0.861    -0.529    24.428     6.627
    40   7 N        2.644    -0.307    27.914     7.847
    41   1 H        0.860     0.239     0.928     1.509
    42   1 H        0.861     0.179     1.222     1.732
    43   7 N        2.645    -0.287    27.413     7.776
    44   1 H        0.861     0.185     1.188     1.707
    45   1 H        0.861     0.201     1.099     1.642
    46   6 C        2.675     0.341    21.208     7.536
    47   8 O        0.861    -0.521    24.247     6.602
    48   7 N        2.644    -0.288    27.426     7.778
    49   1 H        0.860     0.203     1.092     1.637
    50   1 H        0.861     0.184     1.191     1.709
    51   7 N        2.642    -0.326    28.388     7.913
    52   1 H        0.860     0.174     1.251     1.752
    53   1 H        0.859     0.242     0.913     1.497

 Mol. C6AA /au·bohr⁶  :      21802.018954
 Mol. C8AA /au·bohr⁸  :     454482.188608
 Mol. α(0) /au        :        220.607724


Wiberg/Mayer (AO) data.
largest (>0.10) Wiberg bond orders for each atom

 ---------------------------------------------------------------------------
     #   Z sym  total        # sym  WBO       # sym  WBO       # sym  WBO
 ---------------------------------------------------------------------------
     1   8 O    1.967 --     2 C    1.027    21 H    0.835
     2   6 C    3.967 --     1 O    1.027     5 C    0.989     4 H    0.965
                             3 H    0.963
     3   1 H    0.998 --     2 C    0.963
     4   1 H    0.996 --     2 C    0.965
     5   6 C    3.936 --     2 C    0.989     6 H    0.970     7 H    0.950
                             8 N    0.938
     6   1 H    0.995 --     5 C    0.970
     7   1 H    0.986 --     5 C    0.950
     8   7 N    3.821 --    13 C    0.958    17 C    0.957     9 C    0.951
                             5 C    0.938
     9   6 C    3.909 --    12 H    0.973    10 H    0.964    11 H    0.952
                             8 N    0.951
    10   1 H    0.987 --     9 C    0.964
    11   1 H    0.985 --     9 C    0.952
    12   1 H    0.992 --     9 C    0.973
    13   6 C    3.922 --    14 H    0.978    16 H    0.975     8 N    0.958
                            15 H    0.949
    14   1 H    0.993 --    13 C    0.978
    15   1 H    0.982 --    13 C    0.949
    16   1 H    0.991 --    13 C    0.975
    17   6 C    3.925 --    18 H    0.979    20 H    0.967    19 H    0.961
                             8 N    0.957
    18   1 H    0.993 --    17 C    0.979
    19   1 H    0.986 --    17 C    0.961
    20   1 H    0.989 --    17 C    0.967
    21   1 H    0.889 --     1 O    0.835
    22   6 C    3.960 --    23 O    1.484    24 N    1.251    27 N    1.211
    23   8 O    1.888 --    22 C    1.484    24 N    0.143    27 N    0.131
    24   7 N    3.338 --    22 C    1.251    26 H    0.948    25 H    0.869
                            23 O    0.143
    25   1 H    0.940 --    24 N    0.869
    26   1 H    0.968 --    24 N    0.948
    27   7 N    3.326 --    22 C    1.211    28 H    0.947    29 H    0.943
                            23 O    0.131
    28   1 H    0.965 --    27 N    0.947
    29   1 H    0.959 --    27 N    0.943
    30   6 C    3.960 --    31 O    1.474    32 N    1.252    35 N    1.219
    31   8 O    1.907 --    30 C    1.474    32 N    0.140    35 N    0.130
    32   7 N    3.343 --    30 C    1.252    34 H    0.948    33 H    0.878
                            31 O    0.140
    33   1 H    0.943 --    32 N    0.878
    34   1 H    0.967 --    32 N    0.948
    35   7 N    3.333 --    30 C    1.219    36 H    0.946    37 H    0.940
                            31 O    0.130
    36   1 H    0.965 --    35 N    0.946
    37   1 H    0.957 --    35 N    0.940
    38   6 C    3.960 --    39 O    1.487    40 N    1.247    43 N    1.214
    39   8 O    1.905 --    38 C    1.487    40 N    0.142    43 N    0.132
    40   7 N    3.336 --    38 C    1.247    42 H    0.948    41 H    0.877
                            39 O    0.142
    41   1 H    0.943 --    40 N    0.877
    42   1 H    0.968 --    40 N    0.948
    43   7 N    3.330 --    38 C    1.214    44 H    0.947    45 H    0.943
                            39 O    0.132
    44   1 H    0.965 --    43 N    0.947
    45   1 H    0.959 --    43 N    0.943
    46   6 C    3.959 --    47 O    1.509    51 N    1.221    48 N    1.217
    47   8 O    1.915 --    46 C    1.509    51 N    0.139    48 N    0.138
    48   7 N    3.334 --    46 C    1.217    50 H    0.947    49 H    0.942
                            47 O    0.138
    49   1 H    0.959 --    48 N    0.942
    50   1 H    0.966 --    48 N    0.947
    51   7 N    3.303 --    46 C    1.221    52 H    0.949    53 H    0.864
                            47 O    0.139
    52   1 H    0.970 --    51 N    0.949
    53   1 H    0.941 --    51 N    0.864
 ---------------------------------------------------------------------------

Topologies differ in total number of bonds
Writing topology from bond orders to xtbtopo.mol

molecular dipole:
                 x           y           z       tot (Debye)
 q only:        0.509       0.516       0.470
   full:        1.070       0.481       0.568       3.312
molecular quadrupole (traceless):
                xx          xy          yy          xz          yz          zz
 q only:      -12.995      12.257       3.287     -14.297     -27.493       9.708
  q+dip:      -16.195      16.183       3.259     -20.239     -36.473      12.937
   full:      -16.288      16.301       3.390     -20.531     -36.385      12.898

           -------------------------------------------------
          |               Frequency Printout                |
           -------------------------------------------------
 projected vibrational frequencies (cm⁻¹)
eigval :       -0.00    -0.00    -0.00     0.00     0.00     0.00
eigval :       13.30    15.00    21.12    31.57    34.24    36.82
eigval :       41.72    45.01    51.02    53.42    61.38    65.04
eigval :       76.72    81.24    93.88   116.28   118.73   120.94
eigval :      126.90   130.15   162.66   171.82   175.15   185.03
eigval :      197.53   201.25   219.18   224.12   270.16   270.51
eigval :      273.07   302.96   314.13   333.13   349.27   374.30
eigval :      400.94   415.87   427.86   450.53   457.52   458.33
eigval :      466.66   468.89   480.21   483.83   485.93   487.76
eigval :      489.73   491.43   509.30   545.50   546.97   549.11
eigval :      551.31   554.77   665.40   673.02   673.37   674.87
eigval :      700.80   730.79   735.22   763.90   774.81   813.49
eigval :      902.63   919.94   960.49   963.18   964.41   966.53
eigval :     1001.41  1004.86  1016.09  1017.37  1022.02  1024.36
eigval :     1026.37  1029.47  1040.82  1084.00  1085.48  1089.18
eigval :     1089.68  1097.75  1100.78  1128.63  1163.40  1222.79
eigval :     1247.33  1267.79  1310.60  1331.76  1347.23  1350.59
eigval :     1353.91  1364.29  1372.04  1379.98  1413.07  1414.40
eigval :     1428.87  1439.42  1441.87  1444.01  1445.06  1447.64
eigval :     1450.46  1453.19  1458.88  1466.79  1471.79  1478.95
eigval :     1484.40  1501.86  1510.72  1511.01  1513.43  1665.13
eigval :     1674.39  1691.09  1702.16  2889.22  2978.89  2992.81
eigval :     2996.69  3010.41  3023.06  3023.89  3043.04  3044.53
eigval :     3047.04  3053.39  3065.96  3073.21  3142.87  3191.88
eigval :     3252.44  3255.29  3298.97  3495.87  3498.96  3499.24
eigval :     3503.09  3512.81  3530.87  3533.59  3537.21  3561.70
eigval :     3564.95  3567.03  3571.05
 reduced masses (amu)
   1: 12.79   2: 12.44   3: 12.74   4: 12.64   5: 12.72   6: 12.46   7: 12.25   8: 12.41
   9: 12.22  10: 12.85  11: 12.60  12: 12.22  13: 12.53  14: 12.17  15: 12.48  16: 12.29
  17: 12.37  18: 12.59  19: 12.24  20: 10.30  21: 13.13  22: 13.28  23: 13.24  24: 13.04
  25: 11.49  26: 12.39  27: 13.41  28: 13.26  29: 12.40  30:  6.01  31:  9.28  32: 10.32
  33:  2.84  34: 13.16  35:  4.27  36:  3.10  37:  2.37  38:  5.54  39:  4.70  40:  6.04
  41:  2.75  42:  7.46  43:  3.53  44:  3.14  45:  8.64  46:  2.94  47:  8.65  48:  8.63
  49:  7.56  50:  8.12  51:  4.51  52:  3.62  53:  6.84  54:  5.11  55:  1.70  56:  3.31
  57:  3.22  58: 10.62  59: 11.37  60: 11.00  61: 11.43  62:  9.58  63:  9.21  64: 11.10
  65: 11.39  66: 11.55  67:  4.76  68:  1.99  69:  2.11  70:  9.04  71:  2.27  72:  2.83
  73:  7.23  74:  8.08  75:  5.12  76:  4.93  77:  5.53  78:  5.05  79:  7.46  80:  7.34
  81:  9.10  82:  9.15  83:  9.44  84:  6.99  85:  9.68  86:  6.35  87:  3.05  88:  8.97
  89:  8.61  90:  7.60  91:  7.45  92:  4.50  93:  7.09  94:  8.52  95:  2.92  96:  5.31
  97:  7.11  98:  8.15  99:  6.39 100:  3.17 101:  4.30 102:  5.31 103:  4.83 104:  3.38
 105:  5.09 106:  4.55 107:  2.56 108:  2.56 109:  2.30 110:  2.04 111:  2.08 112:  3.38
 113:  3.03 114:  3.17 115:  3.05 116:  1.79 117:  1.70 118:  1.79 119:  1.67 120:  1.69
 121:  1.68 122:  8.45 123:  9.22 124:  9.35 125:  9.53 126: 12.29 127: 12.37 128: 12.70
 129: 12.77 130:  1.76 131:  1.68 132:  1.68 133:  1.81 134:  1.80 135:  1.73 136:  1.74
 137:  1.72 138:  1.71 139:  1.74 140:  1.76 141:  1.73 142:  1.68 143:  1.81 144:  1.80
 145:  1.78 146:  1.77 147:  1.88 148:  1.45 149:  1.45 150:  1.45 151:  1.45 152:  1.88
 153:  1.90 154:  1.91 155:  1.92 156:  2.18 157:  2.18 158:  2.19 159:  2.19
 IR intensities (km·mol⁻¹)
   1:  2.15   2:  1.08   3:  1.19   4:  1.74   5:  1.64   6:  1.18   7:  0.02   8:  0.48
   9:  0.62  10:  0.35  11:  1.55  12:  4.24  13:  0.63  14:  4.25  15:  1.55  16:  0.44
  17:  6.81  18:  1.68  19:  1.62  20:  1.26  21:  0.13  22: 11.88  23:  1.90  24:  2.59
  25: 16.22  26: 24.93  27:  5.80  28:  4.60  29: 60.84  30: 94.67  31: 37.60  32:102.47
  33:221.90  34: 17.53  35: 26.24  36:177.73  37:110.42  38:  1.39  39:  0.85  40:  2.48
  41:  1.61  42:  1.52  43:230.27  44:228.32  45:  6.13  46:306.00  47:  1.72  48:  3.09
  49:  4.19  50: 22.98  51:  9.26  52:104.74  53: 29.71  54: 54.29  55:  7.78  56: 29.50
  57: 17.05  58:  6.50  59:  5.78  60: 19.42  61: 30.29  62:  6.93  63: 25.51  64: 34.86
  65: 11.12  66: 23.63  67:173.22  68: 77.52  69:125.90  70: 19.97  71:434.46  72:333.87
  73:  4.12  74:  2.11  75:  5.41  76:  9.90  77:  3.33  78:  2.56  79: 12.06  80: 24.34
  81:  1.57  82:  1.91  83:  0.25  84: 22.07  85:  3.12  86: 10.68  87:  0.65  88:  1.36
  89:  1.20  90:  1.66  91: 10.97  92: 20.04  93:  5.16  94: 43.34  95: 18.66  96:  4.86
  97:  3.99  98:  3.27  99:  0.34 100: 10.70 101:  4.95 102:213.53 103:191.81 104: 95.77
 105:  5.39 106: 11.00 107: 26.99 108: 10.27 109:  8.78 110:  3.93 111:  5.36 112:  3.75
 113: 17.99 114: 16.01 115: 11.57 116:  9.79 117:  2.01 118: 21.28 119:  5.13 120: 42.79
 121: 24.26 122:384.59 123:336.61 124:536.54 125:678.45 126:512.07 127:219.85 128:******
 129:****** 130: 36.25 131: 35.22 132: 17.83 133:  0.39 134: 45.24 135:144.89 136: 13.59
 137: 22.56 138:  0.88 139: 10.51 140:  9.44 141:  1.99 142:  3.03 143:509.73 144:252.94
 145:****** 146:****** 147:597.27 148: 26.38 149: 21.49 150: 24.31 151: 22.67 152: 10.33
 153: 16.24 154: 16.89 155: 16.85 156: 18.52 157: 16.33 158: 14.39 159: 16.01
 Raman intensities (amu)
Molecule has no symmetry elements
It seems to be the C1 point group
   1:  0.00   2:  0.00   3:  0.00   4:  0.00   5:  0.00   6:  0.00   7:  0.00   8:  0.00
   9:  0.00  10:  0.00  11:  0.00  12:  0.00  13:  0.00  14:  0.00  15:  0.00  16:  0.00
  17:  0.00  18:  0.00  19:  0.00  20:  0.00  21:  0.00  22:  0.00  23:  0.00  24:  0.00
  25:  0.00  26:  0.00  27:  0.00  28:  0.00  29:  0.00  30:  0.00  31:  0.00  32:  0.00
  33:  0.00  34:  0.00  35:  0.00  36:  0.00  37:  0.00  38:  0.00  39:  0.00  40:  0.00
  41:  0.00  42:  0.00  43:  0.00  44:  0.00  45:  0.00  46:  0.00  47:  0.00  48:  0.00
  49:  0.00  50:  0.00  51:  0.00  52:  0.00  53:  0.00  54:  0.00  55:  0.00  56:  0.00
  57:  0.00  58:  0.00  59:  0.00  60:  0.00  61:  0.00  62:  0.00  63:  0.00  64:  0.00
  65:  0.00  66:  0.00  67:  0.00  68:  0.00  69:  0.00  70:  0.00  71:  0.00  72:  0.00
  73:  0.00  74:  0.00  75:  0.00  76:  0.00  77:  0.00  78:  0.00  79:  0.00  80:  0.00
  81:  0.00  82:  0.00  83:  0.00  84:  0.00  85:  0.00  86:  0.00  87:  0.00  88:  0.00
  89:  0.00  90:  0.00  91:  0.00  92:  0.00  93:  0.00  94:  0.00  95:  0.00  96:  0.00
  97:  0.00  98:  0.00  99:  0.00 100:  0.00 101:  0.00 102:  0.00 103:  0.00 104:  0.00
 105:  0.00 106:  0.00 107:  0.00 108:  0.00 109:  0.00 110:  0.00 111:  0.00 112:  0.00
 113:  0.00 114:  0.00 115:  0.00 116:  0.00 117:  0.00 118:  0.00 119:  0.00 120:  0.00
 121:  0.00 122:  0.00 123:  0.00 124:  0.00 125:  0.00 126:  0.00 127:  0.00 128:  0.00
 129:  0.00 130:  0.00 131:  0.00 132:  0.00 133:  0.00 134:  0.00 135:  0.00 136:  0.00
 137:  0.00 138:  0.00 139:  0.00 140:  0.00 141:  0.00 142:  0.00 143:  0.00 144:  0.00
 145:  0.00 146:  0.00 147:  0.00 148:  0.00 149:  0.00 150:  0.00 151:  0.00 152:  0.00
 153:  0.00 154:  0.00 155:  0.00 156:  0.00 157:  0.00 158:  0.00 159:  0.00
 output can be read by thermo (or use thermo option).
 writing <g98.out> molden fake output.
 recommended (thermochemical) frequency scaling factor: 1.0
           -------------------------------------------------
          |             Thermodynamic Functions             |
           -------------------------------------------------

c1  symmetry found (for desy threshold:  0.10E+00) used in thermo

          ...................................................
          :                      SETUP                      :
          :.................................................:
          :  # frequencies                         153      :
          :  # imaginary freq.                       0      :
          :  linear?                             false      :
          :  only rotor calc.                    false      :
          :  symmetry                               c1      :
          :  rotational number                       1      :
          :  scaling factor                  1.0000000      :
          :  rotor cutoff                   50.0000000 cm⁻¹ :
          :  imag. cutoff                  -20.0000000 cm⁻¹ :
          :.................................................:

    mode    ω/cm⁻¹     T·S(HO)/kcal·mol⁻¹    T·S(FR)/kcal·mol⁻¹   T·S(vib)
   ------------------------------------------------------------------------
       1     13.30    -2.21939 (  0.50%)    -1.44866 ( 99.50%)    -1.45250
       2     15.00    -2.14844 (  0.80%)    -1.41318 ( 99.20%)    -1.41908
       3     21.12    -1.94562 (  3.09%)    -1.31173 ( 96.91%)    -1.33131
       4     31.57    -1.70790 ( 13.71%)    -1.19274 ( 86.29%)    -1.26337
       5     34.24    -1.65984 ( 18.03%)    -1.16866 ( 81.97%)    -1.25722
       6     36.82    -1.61697 ( 22.72%)    -1.14717 ( 77.28%)    -1.25391
       7     41.72    -1.54312 ( 32.65%)    -1.11014 ( 67.35%)    -1.25151
       8     45.01    -1.49834 ( 39.64%)    -1.08768 ( 60.36%)    -1.25044
       9     51.02    -1.42442 ( 52.01%)    -1.05055 ( 47.99%)    -1.24502
      10     53.42    -1.39733 ( 56.57%)    -1.03694 ( 43.43%)    -1.24082
      11     61.38    -1.31551 ( 69.43%)    -0.99577 ( 30.57%)    -1.21777
      12     65.04    -1.28152 ( 74.11%)    -0.97864 ( 25.89%)    -1.20310
      13     76.72    -1.18459 ( 84.71%)    -0.92971 ( 15.29%)    -1.14564
      14     81.24    -1.15108 ( 87.45%)    -0.91275 ( 12.55%)    -1.12117
      15     93.88    -1.06667 ( 92.55%)    -0.86991 (  7.45%)    -1.05201
      16    116.28    -0.94252 ( 96.69%)    -0.80651 (  3.31%)    -0.93803
      17    118.73    -0.93051 ( 96.95%)    -0.80034 (  3.05%)    -0.92654
      18    120.94    -0.91989 ( 97.16%)    -0.79488 (  2.84%)    -0.91634
      19    126.90    -0.89221 ( 97.65%)    -0.78063 (  2.35%)    -0.88959
      20    130.15    -0.87770 ( 97.87%)    -0.77313 (  2.13%)    -0.87547
      21    162.66    -0.75094 ( 99.12%)    -0.70709 (  0.88%)    -0.75056
      22    171.82    -0.72017 ( 99.29%)    -0.69085 (  0.71%)    -0.71996
      23    175.15    -0.70946 ( 99.34%)    -0.68517 (  0.66%)    -0.70930
      24    185.03    -0.67890 ( 99.47%)    -0.66891 (  0.53%)    -0.67884
      25    197.53    -0.64281 ( 99.59%)    -0.64955 (  0.41%)    -0.64283
      26    201.25    -0.63257 ( 99.62%)    -0.64402 (  0.38%)    -0.63261
      27    219.18    -0.58611 ( 99.73%)    -0.61873 (  0.27%)    -0.58620
      28    224.12    -0.57410 ( 99.75%)    -0.61213 (  0.25%)    -0.57420
      29    270.16    -0.47561 ( 99.88%)    -0.55679 (  0.12%)    -0.47570
      30    270.51    -0.47494 ( 99.88%)    -0.55641 (  0.12%)    -0.47504
      31    273.07    -0.47010 ( 99.89%)    -0.55362 (  0.11%)    -0.47019
   ------------------------------------------------------------------------

   temp. (K)  partition function   enthalpy   heat capacity  entropy
                                   cal/mol     cal/K/mol   cal/K/mol   J/K/mol
 298.15  VIB  0.535E+17            19281.474    103.647    126.215
         ROT  0.140E+08              888.752      2.981     35.675
         INT  0.747E+24            20170.226    106.628    161.890
         TR   0.618E+28             1481.254      4.968     43.384
         TOT                       21651.4799   111.5964   205.2745   858.8685

       T/K    H(0)-H(T)+PV         H(T)/Eh          T*S/Eh         G(T)/Eh
   ------------------------------------------------------------------------
    298.15    0.345038E-01    0.473740E+00    0.975325E-01    0.376208E+00
   ------------------------------------------------------------------------

         :::::::::::::::::::::::::::::::::::::::::::::::::::::
         ::                  THERMODYNAMIC                  ::
         :::::::::::::::::::::::::::::::::::::::::::::::::::::
         :: total free energy         -80.556608087419 Eh   ::
         ::.................................................::
         :: total energy              -80.932815774118 Eh   ::
         :: zero point energy           0.439236394732 Eh   ::
         :: G(RRHO) w/o ZPVE           -0.063028708033 Eh   ::
         :: G(RRHO) contrib.            0.376207686699 Eh   ::
         :::::::::::::::::::::::::::::::::::::::::::::::::::::

           -------------------------------------------------
          | TOTAL ENERGY              -80.932815774118 Eh   |
          | TOTAL ENTHALPY            -80.459075549969 Eh   |
          | TOTAL FREE ENERGY         -80.556608087419 Eh   |
          | GRADIENT NORM               0.000166957770 Eh/α |
          | HOMO-LUMO GAP               5.797184831029 eV   |
           -------------------------------------------------

------------------------------------------------------------------------
 * finished run on 2024/01/10 at 15:39:36.732     
------------------------------------------------------------------------
 total:
 * wall-time:     0 d,  0 h,  0 min, 14.570 sec
 *  cpu-time:     0 d,  0 h,  0 min, 14.449 sec
 * ratio c/w:     0.992 speedup
 SCF:
 * wall-time:     0 d,  0 h,  0 min,  0.070 sec
 *  cpu-time:     0 d,  0 h,  0 min,  0.059 sec
 * ratio c/w:     0.833 speedup
 analytical hessian:
 * wall-time:     0 d,  0 h,  0 min, 14.472 sec
 *  cpu-time:     0 d,  0 h,  0 min, 14.363 sec
 * ratio c/w:     0.992 speedup

