      -----------------------------------------------------------      
     |                   =====================                   |     
     |                           x T B                           |     
     |                   =====================                   |     
     |                         S. Grimme                         |     
     |          Mulliken Center for Theoretical Chemistry        |     
     |                    University of Bonn                     |     
      -----------------------------------------------------------      

   * xtb version 6.6.1 (unknown-commit) compiled by '@Linux' on 12/27/2023

   xtb is free software: you can redistribute it and/or modify it under
   the terms of the GNU Lesser General Public License as published by
   the Free Software Foundation, either version 3 of the License, or
   (at your option) any later version.
   
   xtb is distributed in the hope that it will be useful,
   but WITHOUT ANY WARRANTY; without even the implied warranty of
   MERCHANTABILITY or FITNESS FOR A PARTICULAR PURPOSE.  See the
   GNU Lesser General Public License for more details.
   
   Cite this work as:
   * C. Bannwarth, E. Caldeweyher, S. Ehlert, A. Hansen, P. Pracht,
     J. Seibert, S. Spicher, S. Grimme, WIREs Comput. Mol. Sci., 2020, 11,
     e01493. DOI: 10.1002/wcms.1493
   
   for GFN2-xTB:
   * C. Bannwarth, S. Ehlert and S. Grimme., J. Chem. Theory Comput., 2019,
     15, 1652-1671. DOI: 10.1021/acs.jctc.8b01176
   for GFN1-xTB:
   * S. Grimme, C. Bannwarth, P. Shushkov, J. Chem. Theory Comput., 2017,
     13, 1989-2009. DOI: 10.1021/acs.jctc.7b00118
   for GFN0-xTB:
   * P. Pracht, E. Caldeweyher, S. Ehlert, S. Grimme, ChemRxiv, 2019, preprint.
     DOI: 10.26434/chemrxiv.8326202.v1
   for GFN-FF:
   * S. Spicher and S. Grimme, Angew. Chem. Int. Ed., 2020, 59, 15665-15673.
     DOI: 10.1002/anie.202004239
   
   for ALPB and GBSA implicit solvation:
   * S. Ehlert, M. Stahn, S. Spicher, S. Grimme, J. Chem. Theory Comput.,
     2021, 17, 4250-4261. DOI: 10.1021/acs.jctc.1c00471
   
   for DFT-D4:
   * E. Caldeweyher, C. Bannwarth and S. Grimme, J. Chem. Phys., 2017,
     147, 034112. DOI: 10.1063/1.4993215
   * E. Caldeweyher, S. Ehlert, A. Hansen, H. Neugebauer, S. Spicher,
     C. Bannwarth and S. Grimme, J. Chem. Phys., 2019, 150, 154122.
     DOI: 10.1063/1.5090222
   * E. Caldeweyher, J.-M. Mewes, S. Ehlert and S. Grimme, Phys. Chem. Chem. Phys.
     2020, 22, 8499-8512. DOI: 10.1039/D0CP00502A
   
   for sTDA-xTB:
   * S. Grimme and C. Bannwarth, J. Chem. Phys., 2016, 145, 054103.
     DOI: 10.1063/1.4959605
   
   in the mass-spec context:
   * V. Asgeirsson, C. Bauer and S. Grimme, Chem. Sci., 2017, 8, 4879.
     DOI: 10.1039/c7sc00601b
   * J. Koopman and S. Grimme, ACS Omega 2019, 4, 12, 15120-15133.
     DOI: 10.1021/acsomega.9b02011
   
   for metadynamics refer to:
   * S. Grimme, J. Chem. Theory Comput., 2019, 155, 2847-2862
     DOI: 10.1021/acs.jctc.9b00143
   
   for SPH calculations refer to:
   * S. Spicher and S. Grimme, J. Chem. Theory Comput., 2021, 17, 1701-1714
     DOI: 10.1021/acs.jctc.0c01306
   
   with help from (in alphabetical order)
   P. Atkinson, C. Bannwarth, F. Bohle, G. Brandenburg, E. Caldeweyher
   M. Checinski, S. Dohm, S. Ehlert, S. Ehrlich, I. Gerasimov, C. Hölzer
   A. Katbashev, J. Koopman, C. Lavigne, S. Lehtola, F. März, M. Müller,
   F. Musil, H. Neugebauer, J. Pisarek, C. Plett, P. Pracht, F. Pultar,
   J. Seibert, P. Shushkov, S. Spicher, M. Stahn, M. Steiner, T. Strunk,
   J. Stückrath, T. Rose, and J. Unsleber
   
 * started run on 2024/01/10 at 15:42:46.575     

           -------------------------------------------------
          |                Calculation Setup                |
           -------------------------------------------------

          program call               : xtb struc.xyz --gfn2 --hess
          hostname                   : swaroop
          coordinate file            : struc.xyz
          omp threads                :                     1

   ID    Z sym.   atoms
    1    8 O      1, 23, 31, 39, 47
    2    6 C      2, 5, 9, 13, 17, 22, 30, 38, 46
    3    1 H      3, 4, 6, 7, 10-12, 14-16, 18-21, 25, 26, 28, 29, 33, 34,
                  36, 37, 41, 42, 44, 45, 49, 50, 52, 53
    4    7 N      8, 24, 27, 32, 35, 40, 43, 48, 51

molecular fragmentation (1/2 indicates fragments):
11111111111111111111122222222222222222222222222222222
# atoms in fragment 1/2:    21    32
 fragment masses (1/2) :      104.17      240.22
CMA distance (Bohr)    :   4.226
constraining FC (au)   :  0.0500

           -------------------------------------------------
          |                 G F N 2 - x T B                 |
           -------------------------------------------------

        Reference                      10.1021/acs.jctc.8b01176
      * Hamiltonian:
        H0-scaling (s, p, d)           1.850000    2.230000    2.230000
        zeta-weighting                 0.500000
      * Dispersion:
        s8                             2.700000
        a1                             0.520000
        a2                             5.000000
        s9                             5.000000
      * Repulsion:
        kExp                           1.500000    1.000000
        rExp                           1.000000
      * Coulomb:
        alpha                          2.000000
        third order                    shell-resolved
        anisotropic                    true
        a3                             3.000000
        a5                             4.000000
        cn-shift                       1.200000
        cn-exp                         4.000000
        max-rad                        5.000000


          ...................................................
          :                      SETUP                      :
          :.................................................:
          :  # basis functions                 122          :
          :  # atomic orbitals                 122          :
          :  # shells                           76          :
          :  # electrons                       140          :
          :  max. iterations                   250          :
          :  Hamiltonian                  GFN2-xTB          :
          :  restarted?                      false          :
          :  GBSA solvation                  false          :
          :  PC potential                    false          :
          :  electronic temp.          300.0000000     K    :
          :  accuracy                    1.0000000          :
          :  -> integral cutoff          0.2500000E+02      :
          :  -> integral neglect         0.1000000E-07      :
          :  -> SCF convergence          0.1000000E-05 Eh   :
          :  -> wf. convergence          0.1000000E-03 e    :
          :  Broyden damping             0.4000000          :
          ...................................................

 iter      E             dE          RMSdq      gap      omega  full diag
   1    -81.5489590 -0.815490E+02  0.430E+00    5.08       0.0  T
   2    -81.8404473 -0.291488E+00  0.232E+00    6.06       1.0  T
   3    -81.8462601 -0.581276E-02  0.114E+00    5.84       1.0  T
   4    -81.8476170 -0.135699E-02  0.238E-01    5.95       1.0  T
   5    -81.8484874 -0.870349E-03  0.910E-02    5.87       1.0  T
   6    -81.8485128 -0.253786E-04  0.282E-02    5.89       1.0  T
   7    -81.8485174 -0.466565E-05  0.758E-03    5.89       1.8  T
   8    -81.8485177 -0.265872E-06  0.255E-03    5.89       5.4  T
   9    -81.8485177 -0.126226E-07  0.775E-04    5.89      17.7  T
  10    -81.8485177 -0.416019E-08  0.170E-04    5.89      81.0  T

   *** convergence criteria satisfied after 10 iterations ***

         #    Occupation            Energy/Eh            Energy/eV
      -------------------------------------------------------------
         1        2.0000           -0.7863563             -21.3978
       ...           ...                  ...                  ...
        64        2.0000           -0.4941952             -13.4477
        65        2.0000           -0.4927722             -13.4090
        66        2.0000           -0.4903462             -13.3430
        67        2.0000           -0.4898527             -13.3296
        68        2.0000           -0.4880041             -13.2793
        69        2.0000           -0.4848041             -13.1922
        70        2.0000           -0.4837849             -13.1645 (HOMO)
        71                         -0.2674641              -7.2781 (LUMO)
        72                         -0.2663147              -7.2468
        73                         -0.2632865              -7.1644
        74                         -0.2601274              -7.0784
        75                         -0.1412017              -3.8423
       ...                                ...                  ...
       122                          0.5695087              15.4971
      -------------------------------------------------------------
                  HL-Gap            0.2163207 Eh            5.8864 eV
             Fermi-level           -0.3756245 Eh          -10.2213 eV

 SCC (total)                   0 d,  0 h,  0 min,  0.096 sec
 SCC setup                      ...        0 min,  0.000 sec (  0.295%)
 Dispersion                     ...        0 min,  0.001 sec (  0.605%)
 classical contributions        ...        0 min,  0.000 sec (  0.193%)
 integral evaluation            ...        0 min,  0.008 sec (  8.023%)
 iterations                     ...        0 min,  0.059 sec ( 61.635%)
 molecular gradient             ...        0 min,  0.028 sec ( 28.959%)
 printout                       ...        0 min,  0.000 sec (  0.279%)

         :::::::::::::::::::::::::::::::::::::::::::::::::::::
         ::                     SUMMARY                     ::
         :::::::::::::::::::::::::::::::::::::::::::::::::::::
         :: total energy             -80.931653639294 Eh    ::
         :: gradient norm              0.000049051781 Eh/a0 ::
         :: HOMO-LUMO gap              5.886386803494 eV    ::
         ::.................................................::
         :: SCC energy               -81.848517724156 Eh    ::
         :: -> isotropic ES            0.289924023156 Eh    ::
         :: -> anisotropic ES         -0.025902020570 Eh    ::
         :: -> anisotropic XC          0.020746276785 Eh    ::
         :: -> dispersion             -0.042671293321 Eh    ::
         :: repulsion energy           0.915591016704 Eh    ::
         :: add. restraining           0.000000000000 Eh    ::
         :: total charge               1.000000000000 e     ::
         :::::::::::::::::::::::::::::::::::::::::::::::::::::

           ------------------------------------------------- 
          |                Numerical Hessian                |
           ------------------------------------------------- 
step length          :   0.00500
SCC accuracy         :   0.30000
Hessian scale factor :   1.00000
frozen atoms in %    :   0.00000    0
RMS gradient         :   0.00005
estimated CPU  time      0.24 min
estimated wall time      0.24 min

writing file <hessian>.

 projected vibrational frequencies (cm⁻¹)
eigval :       -0.00     0.00     0.00     0.00     0.00     0.00
eigval :        6.13    10.94    15.19    19.77    24.61    30.69
eigval :       33.67    36.98    43.80    50.24    57.53    64.87
eigval :       70.28    72.30    74.17    81.32    84.63    96.09
eigval :      105.43   115.34   119.72   157.33   170.08   172.96
eigval :      197.16   200.49   246.83   266.39   274.87   305.65
eigval :      308.77   323.03   327.41   336.30   358.51   364.99
eigval :      377.29   411.09   429.09   434.46   443.78   450.73
eigval :      454.90   462.76   466.46   470.24   472.32   475.26
eigval :      481.97   482.94   485.66   501.48   531.71   533.26
eigval :      535.84   541.42   568.79   666.24   670.68   672.48
eigval :      674.33   710.91   715.61   749.07   767.46   776.70
eigval :      891.26   931.36   947.35   960.33   964.92   967.71
eigval :      995.27  1005.61  1006.38  1009.87  1011.31  1014.14
eigval :     1029.09  1035.46  1037.41  1081.77  1083.69  1087.59
eigval :     1091.99  1095.11  1104.01  1130.39  1163.96  1222.38
eigval :     1249.84  1282.83  1302.83  1327.34  1339.54  1351.34
eigval :     1352.79  1358.98  1366.44  1383.52  1398.08  1403.86
eigval :     1430.21  1436.44  1442.62  1449.66  1450.65  1456.19
eigval :     1457.17  1459.39  1463.03  1470.76  1472.13  1478.71
eigval :     1492.17  1496.39  1497.11  1508.31  1514.17  1667.24
eigval :     1693.23  1715.24  1726.45  2918.26  2968.44  3002.36
eigval :     3011.04  3029.25  3040.86  3042.35  3044.94  3050.91
eigval :     3054.03  3056.02  3060.59  3065.13  3236.11  3254.25
eigval :     3292.91  3317.81  3493.03  3496.31  3498.11  3499.33
eigval :     3503.39  3521.93  3528.07  3534.56  3558.15  3561.20
eigval :     3563.37  3564.17  3569.04
           -------------------------------------------------
          |                Property Printout                |
           -------------------------------------------------

    * Orbital Energies and Occupations

         #    Occupation            Energy/Eh            Energy/eV
      -------------------------------------------------------------
         1        2.0000           -0.7863565             -21.3979
       ...           ...                  ...                  ...
        58        2.0000           -0.5039449             -13.7130
        59        2.0000           -0.5026242             -13.6771
        60        2.0000           -0.5007598             -13.6264
        61        2.0000           -0.4979556             -13.5501
        62        2.0000           -0.4961285             -13.5003
        63        2.0000           -0.4958368             -13.4924
        64        2.0000           -0.4941958             -13.4478
        65        2.0000           -0.4927728             -13.4090
        66        2.0000           -0.4903467             -13.3430
        67        2.0000           -0.4898537             -13.3296
        68        2.0000           -0.4880044             -13.2793
        69        2.0000           -0.4848038             -13.1922
        70        2.0000           -0.4837853             -13.1645 (HOMO)
        71                         -0.2674645              -7.2781 (LUMO)
        72                         -0.2663165              -7.2468
        73                         -0.2632858              -7.1644
        74                         -0.2601300              -7.0785
        75                         -0.1412010              -3.8423
        76                         -0.0957392              -2.6052
        77                         -0.0924235              -2.5150
        78                         -0.0760923              -2.0706
        79                         -0.0733099              -1.9949
        80                         -0.0702300              -1.9111
        81                         -0.0642380              -1.7480
       ...                                ...                  ...
       122                          0.5695066              15.4971
      -------------------------------------------------------------
                  HL-Gap            0.2163208 Eh            5.8864 eV
             Fermi-level           -0.3756249 Eh          -10.2213 eV

     #   Z          covCN         q      C6AA      α(0)
     1   8 O        1.654    -0.465    22.157     6.354
     2   6 C        3.673     0.072    19.600     6.345
     3   1 H        0.924     0.051     2.311     2.377
     4   1 H        0.924     0.057     2.229     2.335
     5   6 C        3.763    -0.063    21.759     6.649
     6   1 H        0.924     0.126     1.565     1.956
     7   1 H        0.924     0.077     2.007     2.216
     8   7 N        3.624     0.158    18.572     6.401
     9   6 C        3.731    -0.116    22.811     6.818
    10   1 H        0.925     0.101     1.777     2.084
    11   1 H        0.925     0.107     1.719     2.050
    12   1 H        0.925     0.113     1.668     2.020
    13   6 C        3.735    -0.118    22.852     6.822
    14   1 H        0.925     0.118     1.628     1.996
    15   1 H        0.925     0.077     2.014     2.219
    16   1 H        0.925     0.117     1.634     1.999
    17   6 C        3.724    -0.107    22.656     6.797
    18   1 H        0.925     0.078     2.001     2.212
    19   1 H        0.925     0.098     1.802     2.099
    20   1 H        0.925     0.120     1.612     1.985
    21   1 H        0.803     0.331     0.636     1.252
    22   6 C        2.675     0.342    21.187     7.532
    23   8 O        0.860    -0.518    24.195     6.595
    24   7 N        2.644    -0.296    27.623     7.806
    25   1 H        0.860     0.197     1.120     1.658
    26   1 H        0.860     0.181     1.208     1.721
    27   7 N        2.644    -0.311    28.013     7.861
    28   1 H        0.860     0.175     1.242     1.746
    29   1 H        0.860     0.234     0.948     1.525
    30   6 C        2.675     0.346    21.127     7.521
    31   8 O        0.860    -0.519    24.214     6.597
    32   7 N        2.646    -0.290    27.473     7.785
    33   1 H        0.860     0.199     1.109     1.649
    34   1 H        0.861     0.186     1.180     1.702
    35   7 N        2.646    -0.289    27.466     7.784
    36   1 H        0.861     0.186     1.181     1.703
    37   1 H        0.860     0.199     1.112     1.652
    38   6 C        2.675     0.342    21.185     7.532
    39   8 O        0.861    -0.536    24.602     6.650
    40   7 N        2.644    -0.295    27.615     7.805
    41   1 H        0.860     0.249     0.887     1.475
    42   1 H        0.861     0.180     1.213     1.725
    43   7 N        2.645    -0.289    27.466     7.784
    44   1 H        0.861     0.184     1.192     1.710
    45   1 H        0.860     0.202     1.096     1.640
    46   6 C        2.675     0.343    21.180     7.531
    47   8 O        0.860    -0.538    24.631     6.654
    48   7 N        2.645    -0.296    27.628     7.806
    49   1 H        0.860     0.196     1.129     1.664
    50   1 H        0.861     0.182     1.201     1.717
    51   7 N        2.644    -0.302    27.788     7.829
    52   1 H        0.860     0.178     1.228     1.736
    53   1 H        0.860     0.246     0.899     1.485

 Mol. C6AA /au·bohr⁶  :      21793.978844
 Mol. C8AA /au·bohr⁸  :     454162.958407
 Mol. α(0) /au        :        220.566744


Wiberg/Mayer (AO) data.
largest (>0.10) Wiberg bond orders for each atom

 ---------------------------------------------------------------------------
     #   Z sym  total        # sym  WBO       # sym  WBO       # sym  WBO
 ---------------------------------------------------------------------------
     1   8 O    1.958 --     2 C    1.021    21 H    0.829
     2   6 C    3.964 --     1 O    1.021     5 C    0.991     3 H    0.968
                             4 H    0.960
     3   1 H    0.997 --     2 C    0.968
     4   1 H    0.996 --     2 C    0.960
     5   6 C    3.929 --     2 C    0.991     7 H    0.968     6 H    0.949
                             8 N    0.934
     6   1 H    0.984 --     5 C    0.949
     7   1 H    0.994 --     5 C    0.968
     8   7 N    3.822 --    17 C    0.961    13 C    0.957     9 C    0.953
                             5 C    0.934
     9   6 C    3.917 --    10 H    0.972    11 H    0.968    12 H    0.965
                             8 N    0.953
    10   1 H    0.990 --     9 C    0.972
    11   1 H    0.988 --     9 C    0.968
    12   1 H    0.987 --     9 C    0.965
    13   6 C    3.922 --    15 H    0.979    16 H    0.964    14 H    0.963
                             8 N    0.957
    14   1 H    0.986 --    13 C    0.963
    15   1 H    0.994 --    13 C    0.979
    16   1 H    0.986 --    13 C    0.964
    17   6 C    3.929 --    18 H    0.979    19 H    0.974     8 N    0.961
                            20 H    0.960
    18   1 H    0.994 --    17 C    0.979
    19   1 H    0.990 --    17 C    0.974
    20   1 H    0.986 --    17 C    0.960
    21   1 H    0.891 --     1 O    0.829
    22   6 C    3.959 --    23 O    1.529    27 N    1.224    24 N    1.194
    23   8 O    1.909 --    22 C    1.529    27 N    0.144    24 N    0.138
    24   7 N    3.309 --    22 C    1.194    26 H    0.948    25 H    0.944
                            23 O    0.138
    25   1 H    0.961 --    24 N    0.944
    26   1 H    0.967 --    24 N    0.948
    27   7 N    3.316 --    22 C    1.224    28 H    0.950    29 H    0.887
                            23 O    0.144
    28   1 H    0.969 --    27 N    0.950
    29   1 H    0.945 --    27 N    0.887
    30   6 C    3.959 --    31 O    1.541    32 N    1.206    35 N    1.206
    31   8 O    1.898 --    30 C    1.541    32 N    0.144    35 N    0.143
    32   7 N    3.321 --    30 C    1.206    34 H    0.947    33 H    0.943
                            31 O    0.144
    33   1 H    0.960 --    32 N    0.943
    34   1 H    0.965 --    32 N    0.947
    35   7 N    3.321 --    30 C    1.206    36 H    0.947    37 H    0.943
                            31 O    0.143
    36   1 H    0.965 --    35 N    0.947
    37   1 H    0.960 --    35 N    0.943
    38   6 C    3.959 --    39 O    1.461    40 N    1.269    43 N    1.210
    39   8 O    1.886 --    38 C    1.461    40 N    0.139    43 N    0.126
    40   7 N    3.360 --    38 C    1.269    42 H    0.948    41 H    0.876
                            39 O    0.139
    41   1 H    0.938 --    40 N    0.876
    42   1 H    0.968 --    40 N    0.948
    43   7 N    3.325 --    38 C    1.210    44 H    0.947    45 H    0.942
                            39 O    0.126
    44   1 H    0.966 --    43 N    0.947
    45   1 H    0.959 --    43 N    0.942
    46   6 C    3.959 --    47 O    1.490    51 N    1.258    48 N    1.197
    47   8 O    1.881 --    46 C    1.490    51 N    0.144    48 N    0.131
    48   7 N    3.311 --    46 C    1.197    50 H    0.948    49 H    0.945
                            47 O    0.131
    49   1 H    0.962 --    48 N    0.945
    50   1 H    0.967 --    48 N    0.948
    51   7 N    3.346 --    46 C    1.258    52 H    0.949    53 H    0.873
                            47 O    0.144
    52   1 H    0.968 --    51 N    0.949
    53   1 H    0.939 --    51 N    0.873
 ---------------------------------------------------------------------------

Topologies differ in total number of bonds
Writing topology from bond orders to xtbtopo.mol

molecular dipole:
                 x           y           z       tot (Debye)
 q only:        0.412       0.866      -1.339
   full:        0.864       0.503      -1.458       4.493
molecular quadrupole (traceless):
                xx          xy          yy          xz          yz          zz
 q only:      -18.259     -19.402      15.392      17.928     -38.531       2.867
  q+dip:      -22.388     -21.979      16.014      21.075     -45.578       6.374
   full:      -22.335     -21.718      16.380      21.247     -45.157       5.956

           -------------------------------------------------
          |               Frequency Printout                |
           -------------------------------------------------
 projected vibrational frequencies (cm⁻¹)
eigval :       -0.00     0.00     0.00     0.00     0.00     0.00
eigval :        6.13    10.94    15.19    19.77    24.61    30.69
eigval :       33.67    36.98    43.80    50.24    57.53    64.87
eigval :       70.28    72.30    74.17    81.32    84.63    96.09
eigval :      105.43   115.34   119.72   157.33   170.08   172.96
eigval :      197.16   200.49   246.83   266.39   274.87   305.65
eigval :      308.77   323.03   327.41   336.30   358.51   364.99
eigval :      377.29   411.09   429.09   434.46   443.78   450.73
eigval :      454.90   462.76   466.46   470.24   472.32   475.26
eigval :      481.97   482.94   485.66   501.48   531.71   533.26
eigval :      535.84   541.42   568.79   666.24   670.68   672.48
eigval :      674.33   710.91   715.61   749.07   767.46   776.70
eigval :      891.26   931.36   947.35   960.33   964.92   967.71
eigval :      995.27  1005.61  1006.38  1009.87  1011.31  1014.14
eigval :     1029.09  1035.46  1037.41  1081.77  1083.69  1087.59
eigval :     1091.99  1095.11  1104.01  1130.39  1163.96  1222.38
eigval :     1249.84  1282.83  1302.83  1327.34  1339.54  1351.34
eigval :     1352.79  1358.98  1366.44  1383.52  1398.08  1403.86
eigval :     1430.21  1436.44  1442.62  1449.66  1450.65  1456.19
eigval :     1457.17  1459.39  1463.03  1470.76  1472.13  1478.71
eigval :     1492.17  1496.39  1497.11  1508.31  1514.17  1667.24
eigval :     1693.23  1715.24  1726.45  2918.26  2968.44  3002.36
eigval :     3011.04  3029.25  3040.86  3042.35  3044.94  3050.91
eigval :     3054.03  3056.02  3060.59  3065.13  3236.11  3254.25
eigval :     3292.91  3317.81  3493.03  3496.31  3498.11  3499.33
eigval :     3503.39  3521.93  3528.07  3534.56  3558.15  3561.20
eigval :     3563.37  3564.17  3569.04
 reduced masses (amu)
   1: 12.53   2: 12.57   3: 12.52   4: 12.56   5: 12.57   6: 12.76   7: 10.97   8: 12.35
   9: 12.31  10: 11.95  11: 12.19  12: 11.87  13: 12.38  14: 12.45  15: 12.43  16: 12.10
  17: 12.55  18: 11.01  19: 13.16  20: 13.02  21: 12.92  22: 13.10  23: 12.80  24: 12.00
  25: 12.69  26: 11.67  27: 11.44  28: 12.50  29: 13.60  30: 13.29  31:  8.31  32:  6.55
  33: 13.23  34:  2.94  35:  5.13  36:  8.79  37:  3.08  38:  3.16  39:  4.44  40:  3.66
  41:  5.39  42:  2.57  43:  4.50  44:  3.39  45:  8.54  46:  3.10  47:  1.62  48:  3.15
  49:  8.37  50:  7.35  51:  6.82  52:  7.42  53:  4.80  54:  6.47  55:  5.73  56:  4.83
  57:  5.21  58:  3.22  59:  9.66  60: 11.17  61: 11.20  62: 11.18  63:  8.38  64:  9.62
  65: 10.34  66: 11.32  67: 11.99  68:  2.92  69:  3.59  70:  3.06  71:  6.58  72:  4.85
  73:  6.88  74:  8.46  75:  5.23  76:  4.85  77:  4.83  78:  4.95  79:  8.82  80:  8.68
  81:  8.42  82:  8.92  83:  7.86  84:  8.63  85:  8.04  86:  4.15  87:  3.72  88:  9.65
  89:  9.53  90:  8.96  91:  8.33  92:  6.54  93:  4.22  94:  8.18  95:  2.99  96:  4.41
  97:  7.10  98:  8.05  99:  6.89 100:  3.47 101:  4.77 102:  6.14 103:  6.04 104:  4.05
 105:  5.06 106:  4.45 107:  2.57 108:  2.55 109:  2.55 110:  1.79 111:  1.83 112:  1.81
 113:  3.06 114:  2.32 115:  3.03 116:  3.05 117:  2.38 118:  1.81 119:  1.63 120:  1.61
 121:  1.73 122:  7.66 123:  7.98 124:  8.64 125:  9.50 126: 12.62 127: 12.67 128: 12.79
 129: 12.85 130:  1.79 131:  1.64 132:  1.87 133:  1.64 134:  1.70 135:  1.66 136:  1.62
 137:  1.61 138:  1.65 139:  1.92 140:  1.88 141:  1.76 142:  1.79 143:  1.81 144:  1.85
 145:  1.78 146:  1.73 147:  1.45 148:  1.45 149:  1.45 150:  1.44 151:  1.46 152:  1.93
 153:  1.90 154:  1.92 155:  2.18 156:  2.18 157:  2.19 158:  2.18 159:  2.18
 IR intensities (km·mol⁻¹)
   1:  1.39   2:  0.92   3:  1.85   4:  2.60   5:  1.40   6:  1.00   7:  0.09   8:  0.96
   9:  3.18  10:  0.53  11:  0.39  12:  3.32  13:  2.52  14:  0.16  15:  1.15  16:  2.69
  17:  0.51  18:  2.02  19:  4.29  20:  9.03  21:  0.31  22:  6.23  23:  7.22  24:  4.70
  25:  5.66  26: 17.73  27:  6.93  28: 17.42  29: 42.28  30: 25.90  31: 17.70  32:  2.89
  33: 14.60  34:135.34  35: 15.46  36:  3.79  37:118.39  38:169.65  39: 27.16  40:507.89
  41:  3.75  42:  2.46  43:  2.68  44:205.89  45:  2.21  46:157.82  47: 10.75  48:332.22
  49:  0.91  50:  1.99  51:  5.23  52: 26.16  53: 11.16  54: 26.08  55: 14.50  56:  9.50
  57:  8.23  58: 38.96  59: 37.07  60:  8.87  61: 27.01  62: 31.72  63:  4.95  64: 19.52
  65:  5.07  66: 16.72  67: 51.76  68: 77.92  69: 45.93  70:492.78  71:153.75  72:159.54
  73:  3.58  74:  6.28  75:  1.49  76:  0.64  77:  0.29  78:  0.94  79:  0.05  80: 11.64
  81: 13.28  82: 29.19  83: 32.93  84:  1.69  85: 12.02  86: 30.92  87: 17.33  88:  1.82
  89:  1.73  90:  0.40  91:  1.46  92:  9.97  93: 21.69  94: 39.65  95: 13.18  96:  2.67
  97:  2.25  98: 24.25  99:  6.44 100: 20.55 101:  1.76 102: 89.39 103:156.24 104: 17.04
 105:146.41 106: 38.09 107: 26.78 108: 18.29 109:  6.91 110:  4.56 111:  2.21 112:  2.03
 113:  3.38 114: 11.72 115:  7.30 116:  2.70 117:  3.90 118: 16.90 119: 12.24 120: 15.95
 121: 24.64 122:332.02 123:408.81 124:603.43 125:765.78 126:****** 127:632.59 128:817.73
 129:798.92 130: 19.02 131: 46.17 132:  4.10 133: 11.59 134: 20.63 135: 11.18 136: 11.39
 137:  5.69 138:  7.04 139: 32.07 140:  4.30 141:  6.06 142:  4.38 143:662.02 144:215.70
 145:****** 146:813.48 147: 16.29 148: 15.97 149: 20.71 150: 37.87 151:  8.09 152: 13.57
 153: 10.03 154: 16.31 155: 10.53 156: 10.32 157: 13.19 158: 14.83 159: 11.45
 Raman intensities (amu)
Molecule has no symmetry elements
It seems to be the C1 point group
   1:  0.00   2:  0.00   3:  0.00   4:  0.00   5:  0.00   6:  0.00   7:  0.00   8:  0.00
   9:  0.00  10:  0.00  11:  0.00  12:  0.00  13:  0.00  14:  0.00  15:  0.00  16:  0.00
  17:  0.00  18:  0.00  19:  0.00  20:  0.00  21:  0.00  22:  0.00  23:  0.00  24:  0.00
  25:  0.00  26:  0.00  27:  0.00  28:  0.00  29:  0.00  30:  0.00  31:  0.00  32:  0.00
  33:  0.00  34:  0.00  35:  0.00  36:  0.00  37:  0.00  38:  0.00  39:  0.00  40:  0.00
  41:  0.00  42:  0.00  43:  0.00  44:  0.00  45:  0.00  46:  0.00  47:  0.00  48:  0.00
  49:  0.00  50:  0.00  51:  0.00  52:  0.00  53:  0.00  54:  0.00  55:  0.00  56:  0.00
  57:  0.00  58:  0.00  59:  0.00  60:  0.00  61:  0.00  62:  0.00  63:  0.00  64:  0.00
  65:  0.00  66:  0.00  67:  0.00  68:  0.00  69:  0.00  70:  0.00  71:  0.00  72:  0.00
  73:  0.00  74:  0.00  75:  0.00  76:  0.00  77:  0.00  78:  0.00  79:  0.00  80:  0.00
  81:  0.00  82:  0.00  83:  0.00  84:  0.00  85:  0.00  86:  0.00  87:  0.00  88:  0.00
  89:  0.00  90:  0.00  91:  0.00  92:  0.00  93:  0.00  94:  0.00  95:  0.00  96:  0.00
  97:  0.00  98:  0.00  99:  0.00 100:  0.00 101:  0.00 102:  0.00 103:  0.00 104:  0.00
 105:  0.00 106:  0.00 107:  0.00 108:  0.00 109:  0.00 110:  0.00 111:  0.00 112:  0.00
 113:  0.00 114:  0.00 115:  0.00 116:  0.00 117:  0.00 118:  0.00 119:  0.00 120:  0.00
 121:  0.00 122:  0.00 123:  0.00 124:  0.00 125:  0.00 126:  0.00 127:  0.00 128:  0.00
 129:  0.00 130:  0.00 131:  0.00 132:  0.00 133:  0.00 134:  0.00 135:  0.00 136:  0.00
 137:  0.00 138:  0.00 139:  0.00 140:  0.00 141:  0.00 142:  0.00 143:  0.00 144:  0.00
 145:  0.00 146:  0.00 147:  0.00 148:  0.00 149:  0.00 150:  0.00 151:  0.00 152:  0.00
 153:  0.00 154:  0.00 155:  0.00 156:  0.00 157:  0.00 158:  0.00 159:  0.00
 output can be read by thermo (or use thermo option).
 writing <g98.out> molden fake output.
 recommended (thermochemical) frequency scaling factor: 1.0
           -------------------------------------------------
          |             Thermodynamic Functions             |
           -------------------------------------------------

c1  symmetry found (for desy threshold:  0.10E+00) used in thermo

          ...................................................
          :                      SETUP                      :
          :.................................................:
          :  # frequencies                         153      :
          :  # imaginary freq.                       0      :
          :  linear?                             false      :
          :  only rotor calc.                    false      :
          :  symmetry                               c1      :
          :  rotational number                       1      :
          :  scaling factor                  1.0000000      :
          :  rotor cutoff                   50.0000000 cm⁻¹ :
          :  imag. cutoff                  -20.0000000 cm⁻¹ :
          :.................................................:

    mode    ω/cm⁻¹     T·S(HO)/kcal·mol⁻¹    T·S(FR)/kcal·mol⁻¹   T·S(vib)
   ------------------------------------------------------------------------
       1      6.13    -2.67794 (  0.02%)    -1.67786 ( 99.98%)    -1.67808
       2     10.94    -2.33501 (  0.23%)    -1.50647 ( 99.77%)    -1.50836
       3     15.19    -2.14080 (  0.85%)    -1.40936 ( 99.15%)    -1.41554
       4     19.77    -1.98474 (  2.39%)    -1.33131 ( 97.61%)    -1.34691
       5     24.61    -1.85515 (  5.55%)    -1.26646 ( 94.45%)    -1.29911
       6     30.69    -1.72461 ( 12.43%)    -1.20111 ( 87.57%)    -1.26617
       7     33.67    -1.66976 ( 17.06%)    -1.17363 ( 82.94%)    -1.25827
       8     36.98    -1.61438 ( 23.03%)    -1.14588 ( 76.97%)    -1.25377
       9     43.80    -1.51439 ( 37.07%)    -1.09573 ( 62.93%)    -1.25091
      10     50.24    -1.43344 ( 50.48%)    -1.05509 ( 49.52%)    -1.24610
      11     57.53    -1.35369 ( 63.66%)    -1.01499 ( 36.34%)    -1.23062
      12     64.87    -1.28299 ( 73.92%)    -0.97938 ( 26.08%)    -1.20380
      13     70.28    -1.23597 ( 79.61%)    -0.95567 ( 20.39%)    -1.17881
      14     72.30    -1.21936 ( 81.38%)    -0.94728 ( 18.62%)    -1.16871
      15     74.17    -1.20437 ( 82.88%)    -0.93971 ( 17.12%)    -1.15907
      16     81.32    -1.15052 ( 87.49%)    -0.91247 ( 12.51%)    -1.12074
      17     84.63    -1.12714 ( 89.14%)    -0.90062 ( 10.86%)    -1.10254
      18     96.09    -1.05310 ( 93.17%)    -0.86301 (  6.83%)    -1.04012
      19    105.43    -0.99918 ( 95.19%)    -0.83552 (  4.81%)    -0.99130
      20    115.34    -0.94723 ( 96.59%)    -0.80893 (  3.41%)    -0.94251
      21    119.72    -0.92570 ( 97.05%)    -0.79787 (  2.95%)    -0.92193
      22    157.33    -0.76970 ( 98.99%)    -0.71694 (  1.01%)    -0.76917
      23    170.08    -0.72588 ( 99.26%)    -0.69387 (  0.74%)    -0.72565
      24    172.96    -0.71646 ( 99.31%)    -0.68889 (  0.69%)    -0.71627
      25    197.16    -0.64384 ( 99.59%)    -0.65010 (  0.41%)    -0.64387
      26    200.49    -0.63464 ( 99.61%)    -0.64514 (  0.39%)    -0.63468
      27    246.83    -0.52269 ( 99.83%)    -0.58354 (  0.17%)    -0.52279
      28    266.39    -0.48287 ( 99.88%)    -0.56095 (  0.12%)    -0.48296
      29    274.87    -0.46672 ( 99.89%)    -0.55167 (  0.11%)    -0.46682
   ------------------------------------------------------------------------

   temp. (K)  partition function   enthalpy   heat capacity  entropy
                                   cal/mol     cal/K/mol   cal/K/mol   J/K/mol
 298.15  VIB  0.447E+19            19714.401    103.239    131.788
         ROT  0.151E+08              888.752      2.981     35.829
         INT  0.674E+26            20603.154    106.220    167.617
         TR   0.618E+28             1481.254      4.968     43.384
         TOT                       22084.4074   111.1877   211.0016   882.8307

       T/K    H(0)-H(T)+PV         H(T)/Eh          T*S/Eh         G(T)/Eh
   ------------------------------------------------------------------------
    298.15    0.351937E-01    0.474284E+00    0.100254E+00    0.374030E+00
   ------------------------------------------------------------------------

         :::::::::::::::::::::::::::::::::::::::::::::::::::::
         ::                  THERMODYNAMIC                  ::
         :::::::::::::::::::::::::::::::::::::::::::::::::::::
         :: total free energy         -80.557623254691 Eh   ::
         ::.................................................::
         :: total energy              -80.931653639604 Eh   ::
         :: zero point energy           0.439090305568 Eh   ::
         :: G(RRHO) w/o ZPVE           -0.065059920655 Eh   ::
         :: G(RRHO) contrib.            0.374030384914 Eh   ::
         :::::::::::::::::::::::::::::::::::::::::::::::::::::

           -------------------------------------------------
          | TOTAL ENERGY              -80.931653639604 Eh   |
          | TOTAL ENTHALPY            -80.457369590621 Eh   |
          | TOTAL FREE ENERGY         -80.557623254691 Eh   |
          | GRADIENT NORM               0.000049079484 Eh/α |
          | HOMO-LUMO GAP               5.886389484303 eV   |
           -------------------------------------------------

------------------------------------------------------------------------
 * finished run on 2024/01/10 at 15:43:01.025     
------------------------------------------------------------------------
 total:
 * wall-time:     0 d,  0 h,  0 min, 14.451 sec
 *  cpu-time:     0 d,  0 h,  0 min, 14.385 sec
 * ratio c/w:     0.995 speedup
 SCF:
 * wall-time:     0 d,  0 h,  0 min,  0.096 sec
 *  cpu-time:     0 d,  0 h,  0 min,  0.057 sec
 * ratio c/w:     0.593 speedup
 analytical hessian:
 * wall-time:     0 d,  0 h,  0 min, 14.328 sec
 *  cpu-time:     0 d,  0 h,  0 min, 14.301 sec
 * ratio c/w:     0.998 speedup

