 Entering Gaussian System
 *********************************************
 Gaussian 98:
 frequency output generated by the xtb code
 *********************************************
                         Standard orientation:
 --------------------------------------------------------------------
  Center     Atomic     Atomic              Coordinates (Angstroms)
  Number     Number      Type              X           Y           Z
 --------------------------------------------------------------------
    1          8             0       -0.584551    0.452168   -1.721889
    2          6             0        0.622972   -0.191584   -1.994592
    3          1             0        0.425277   -0.903862   -2.799497
    4          1             0        1.372057    0.522767   -2.362398
    5          6             0        1.247070   -0.884207   -0.770653
    6          1             0        1.296012   -0.164251    0.049902
    7          1             0        2.261664   -1.191456   -1.030591
    8          7             0        0.527563   -2.076172   -0.249178
    9          6             0       -0.823656   -1.715284    0.211928
   10          1             0       -0.745140   -0.982464    1.010832
   11          1             0       -1.312378   -2.613352    0.585194
   12          1             0       -1.395260   -1.281613   -0.605231
   13          6             0        1.279515   -2.594153    0.908486
   14          1             0        1.374656   -1.808449    1.657800
   15          1             0        2.271348   -2.916847    0.599516
   16          1             0        0.734833   -3.441648    1.322222
   17          6             0        0.418176   -3.141427   -1.257195
   18          1             0        1.401648   -3.392359   -1.649507
   19          1             0       -0.226261   -2.826640   -2.073726
   20          1             0       -0.019329   -4.018603   -0.780445
   21          1             0       -0.392570    1.232439   -1.161853
   22          6             0        1.563330    2.802616   -0.180886
   23          8             0        0.347531    2.508460   -0.200470
   24          7             0        2.404830    2.133664    0.639301
   25          1             0        2.017942    1.487055    1.322556
   26          1             0        3.349995    2.446710    0.766744
   27          7             0        2.071019    3.731182   -0.983698
   28          1             0        3.048753    3.957387   -0.957938
   29          1             0        1.473834    4.224492   -1.671891
   30          6             0       -0.697684    4.782165   -2.864977
   31          8             0        0.515248    4.959906   -2.829296
   32          7             0       -1.458003    5.305234   -3.861691
   33          1             0       -1.014555    5.960405   -4.481680
   34          1             0       -2.460081    5.321155   -3.803036
   35          7             0       -1.352296    4.061932   -1.927644
   36          1             0       -2.308804    3.790668   -2.064534
   37          1             0       -0.797385    3.530553   -1.262134
   38          6             0        0.093551    0.799627    2.878460
   39          8             0        1.033767    0.247143    2.299897
   40          7             0       -0.682987    1.701916    2.257360
   41          1             0       -0.398578    2.029964    1.330001
   42          1             0       -1.391775    2.212281    2.751319
   43          7             0       -0.249579    0.456236    4.144254
   44          1             0       -0.928966    0.980327    4.665223
   45          1             0        0.367460   -0.150701    4.654412
   46          6             0       -1.484757   -5.856548    1.340876
   47          8             0       -0.939097   -4.824712    0.971138
   48          7             0       -2.598567   -6.337289    0.740003
   49          1             0       -3.037525   -5.787955    0.023312
   50          1             0       -3.092217   -7.136757    1.091914
   51          7             0       -1.013535   -6.591452    2.375319
   52          1             0       -1.408609   -7.480275    2.621582
   53          1             0       -0.143791   -6.326033    2.800931
 --------------------------------------------------------------------
     1 basis functions        1 primitive gaussians
     1 alpha electrons        1 beta electrons

 Harmonic frequencies (cm**-1), IR intensities (km*mol⁻¹),
 Raman scattering activities (A**4/amu), Raman depolarization ratios,
 reduced masses (AMU), force constants (mDyne/A) and normal coordinates:
                      1                      2                      3
                        a                      a                      a 
 Frequencies --    -6.4279                11.0586                12.9510
 Red. masses --    11.2500                12.3190                12.7093
 Frc consts  --     0.0000                 0.0000                 0.0000
 IR Inten    --     0.0118                 0.2424                 0.3856
 Raman Activ --     0.0000                 0.0000                 0.0000
 Depolar     --     0.0000                 0.0000                 0.0000
 Atom AN      X      Y      Z        X      Y      Z        X      Y      Z
   1   8    -0.01   0.00  -0.00     0.27  -0.06  -0.15    -0.14   0.17   0.13
   2   6    -0.01  -0.00  -0.00     0.27  -0.03  -0.01    -0.13   0.16   0.05
   3   1    -0.01  -0.00  -0.00     0.11  -0.01  -0.01    -0.05   0.05   0.01
   4   1    -0.00  -0.00  -0.00     0.08  -0.00   0.02    -0.04   0.05   0.01
   5   6    -0.01  -0.01  -0.01     0.17  -0.01   0.05    -0.08   0.12   0.00
   6   1     0.00  -0.00  -0.00     0.04   0.00   0.01    -0.02   0.03   0.01
   7   1    -0.00  -0.01  -0.00     0.05  -0.01   0.04    -0.03   0.04  -0.01
   8   7    -0.02   0.00   0.00     0.13   0.01   0.03    -0.07   0.11  -0.01
   9   6    -0.01   0.02   0.02     0.11   0.05  -0.04    -0.04   0.09   0.06
  10   1     0.00   0.00   0.00     0.03   0.02  -0.01    -0.00   0.02   0.03
  11   1    -0.01   0.01   0.01     0.02   0.02  -0.01    -0.01   0.02   0.01
  12   1    -0.00   0.01   0.01     0.05   0.02  -0.02    -0.02   0.03   0.03
  13   6    -0.01  -0.01  -0.01     0.05  -0.01   0.06    -0.01   0.06  -0.06
  14   1     0.00  -0.00  -0.00     0.02  -0.00   0.02     0.00   0.01  -0.01
  15   1    -0.01  -0.01  -0.01     0.01  -0.01   0.03    -0.01   0.02  -0.03
  16   1    -0.00  -0.00  -0.00     0.00   0.01   0.01     0.00   0.01  -0.02
  17   6    -0.04   0.00   0.00     0.13   0.01   0.02    -0.11   0.14  -0.04
  18   1    -0.01  -0.00  -0.00     0.04  -0.01   0.02    -0.04   0.04  -0.03
  19   1    -0.01   0.00   0.00     0.05   0.01  -0.00    -0.04   0.05  -0.00
  20   1    -0.01   0.00   0.00     0.02   0.01   0.00    -0.02   0.03  -0.01
  21   1     0.00   0.00  -0.00     0.05  -0.02  -0.03    -0.03   0.04   0.04
  22   6     0.01  -0.01  -0.02    -0.03   0.03   0.02     0.01   0.02   0.09
  23   8     0.01  -0.01  -0.00    -0.00  -0.07   0.01     0.00   0.07   0.16
  24   7     0.03  -0.01  -0.03     0.02   0.10   0.03     0.02   0.04   0.10
  25   1     0.01  -0.00  -0.01     0.02   0.02   0.01     0.01   0.01   0.03
  26   1     0.01  -0.00  -0.01    -0.00   0.05   0.01     0.01   0.00   0.01
  27   7     0.00  -0.01  -0.03    -0.10   0.08   0.03     0.02  -0.02   0.04
  28   1     0.00  -0.00  -0.01    -0.03   0.04   0.01     0.01  -0.02  -0.00
  29   1    -0.00  -0.00  -0.00    -0.04   0.01   0.01     0.01  -0.03  -0.00
  30   6    -0.03   0.00   0.02    -0.16  -0.13   0.02     0.04  -0.24  -0.12
  31   8    -0.03   0.00   0.00    -0.20  -0.04   0.03     0.05  -0.33  -0.19
  32   7    -0.05   0.01   0.04    -0.21  -0.20   0.01     0.05  -0.43  -0.22
  33   1    -0.01   0.00   0.01    -0.07  -0.05   0.00     0.02  -0.15  -0.09
  34   1    -0.01   0.00   0.02    -0.06  -0.08   0.00     0.01  -0.10  -0.05
  35   7    -0.01   0.00   0.04    -0.13  -0.18   0.02     0.02  -0.05   0.02
  36   1    -0.00   0.00   0.01    -0.03  -0.07   0.00     0.00  -0.01   0.02
  37   1    -0.00   0.00   0.01    -0.02  -0.04   0.01     0.00   0.01   0.03
  38   6     0.06   0.01   0.01     0.10  -0.03   0.03     0.06   0.01   0.12
  39   8     0.05  -0.00  -0.01     0.14   0.01   0.04     0.04   0.01   0.08
  40   7     0.05   0.00   0.02     0.02  -0.12   0.00     0.08   0.06   0.18
  41   1     0.01  -0.00   0.00     0.00  -0.03  -0.00     0.01   0.02   0.05
  42   1     0.02   0.00   0.01     0.00  -0.04   0.00     0.03   0.02   0.06
  43   7     0.09   0.02   0.02     0.16   0.01   0.06     0.10  -0.02   0.13
  44   1     0.03   0.01   0.01     0.03  -0.01   0.01     0.04  -0.01   0.05
  45   1     0.03   0.01   0.00     0.06   0.02   0.02     0.03  -0.01   0.02
  46   6    -0.02  -0.01  -0.01    -0.17   0.13  -0.06     0.02   0.01  -0.12
  47   8    -0.03   0.01   0.01    -0.08   0.10  -0.04    -0.01   0.05  -0.08
  48   7     0.34  -0.33  -0.42    -0.22   0.27  -0.10     0.05   0.01  -0.17
  49   1     0.15  -0.15  -0.19    -0.04   0.09  -0.03     0.01   0.01  -0.03
  50   1     0.08  -0.08  -0.12    -0.08   0.08  -0.04     0.02  -0.01  -0.05
  51   7    -0.36   0.30   0.36    -0.28   0.07  -0.08     0.05  -0.04  -0.18
  52   1    -0.08   0.07   0.10    -0.10   0.03  -0.03     0.02  -0.02  -0.06
  53   1    -0.16   0.14   0.18    -0.07  -0.01  -0.02     0.01  -0.01  -0.04
                      4                      5                      6
                        a                      a                      a 
 Frequencies --    18.9095                26.5638                30.1693
 Red. masses --    11.9695                12.6564                12.1456
 Frc consts  --     0.0000                 0.0000                 0.0000
 IR Inten    --     0.0530                 6.8430                 1.5837
 Raman Activ --     0.0000                 0.0000                 0.0000
 Depolar     --     0.0000                 0.0000                 0.0000
 Atom AN      X      Y      Z        X      Y      Z        X      Y      Z
   1   8     0.01  -0.09   0.12     0.03  -0.02  -0.07     0.19   0.01  -0.32
   2   6     0.02  -0.08   0.14     0.06   0.01  -0.03     0.18  -0.03  -0.11
   3   1     0.01  -0.03   0.04     0.03  -0.00  -0.01     0.08  -0.01  -0.03
   4   1     0.01  -0.03   0.04     0.01   0.01  -0.00     0.07  -0.02  -0.01
   5   6    -0.00  -0.05   0.16     0.05   0.05  -0.00     0.01  -0.01  -0.01
   6   1    -0.01  -0.01   0.04     0.00   0.02  -0.00    -0.00   0.01  -0.01
   7   1     0.00  -0.02   0.06     0.02   0.02   0.01     0.00  -0.03   0.03
   8   7    -0.01  -0.05   0.18     0.08   0.04  -0.00    -0.13   0.07  -0.02
   9   6    -0.02  -0.04   0.15     0.05   0.01  -0.03    -0.11   0.20  -0.09
  10   1    -0.01  -0.01   0.04     0.01   0.00  -0.01    -0.02   0.06  -0.03
  11   1    -0.01  -0.01   0.04     0.02  -0.00  -0.01    -0.06   0.07  -0.03
  12   1    -0.00  -0.01   0.04     0.02  -0.00  -0.01    -0.01   0.07  -0.04
  13   6    -0.03  -0.03   0.19     0.06   0.07   0.02    -0.22   0.03   0.03
  14   1    -0.01  -0.00   0.05     0.00   0.02   0.00    -0.05   0.01   0.01
  15   1    -0.01  -0.01   0.06     0.02   0.03   0.01    -0.07  -0.02   0.02
  16   1    -0.01  -0.01   0.06     0.02   0.02   0.00    -0.09   0.02   0.01
  17   6     0.00  -0.06   0.18     0.12   0.02   0.01    -0.17   0.06   0.00
  18   1     0.00  -0.02   0.06     0.04   0.01   0.01    -0.05  -0.01   0.01
  19   1     0.00  -0.02   0.05     0.04  -0.00  -0.00    -0.04   0.03  -0.01
  20   1    -0.00  -0.02   0.05     0.04   0.00   0.00    -0.07   0.03   0.00
  21   1     0.00  -0.01   0.02    -0.00  -0.00  -0.02     0.03  -0.00  -0.07
  22   6     0.01   0.03  -0.10     0.01  -0.12  -0.06     0.02  -0.09   0.01
  23   8     0.01   0.06  -0.07    -0.01  -0.06  -0.00     0.03  -0.14  -0.03
  24   7     0.03   0.05  -0.11    -0.02  -0.06   0.03     0.01  -0.07   0.04
  25   1     0.01   0.02  -0.02    -0.01   0.00   0.02     0.00  -0.02   0.01
  26   1     0.01   0.01  -0.04     0.00  -0.03  -0.01     0.00  -0.01   0.02
  27   7     0.01  -0.00  -0.16     0.06  -0.29  -0.21     0.02  -0.09   0.02
  28   1     0.00  -0.00  -0.05     0.02  -0.09  -0.07     0.00  -0.01   0.02
  29   1    -0.00   0.00  -0.04     0.02  -0.09  -0.07     0.00  -0.02   0.01
  30   6    -0.04   0.07  -0.04    -0.03  -0.02   0.07    -0.01  -0.04   0.07
  31   8    -0.04   0.06  -0.08     0.03  -0.44  -0.29    -0.01  -0.04   0.08
  32   7    -0.07   0.12   0.01    -0.13   0.13   0.23    -0.01  -0.02   0.09
  33   1    -0.02   0.03   0.00    -0.02  -0.02   0.01    -0.00  -0.00   0.03
  34   1    -0.02   0.03   0.01    -0.03   0.12   0.13    -0.00  -0.01   0.02
  35   7    -0.01   0.05  -0.04    -0.02   0.28   0.32     0.00  -0.07   0.06
  36   1    -0.01   0.02  -0.00    -0.04   0.16   0.16     0.00  -0.02   0.01
  37   1    -0.00   0.01  -0.02    -0.00   0.04   0.06     0.00  -0.02   0.01
  38   6     0.06   0.17   0.01    -0.10   0.02   0.02     0.00   0.08   0.06
  39   8     0.02   0.12   0.00    -0.09   0.03   0.08    -0.03   0.02   0.09
  40   7     0.08   0.19   0.01    -0.07   0.03  -0.01    -0.07  -0.03  -0.03
  41   1     0.01   0.04  -0.01    -0.01   0.00  -0.00    -0.02  -0.03  -0.01
  42   1     0.03   0.06   0.00    -0.03   0.01  -0.01     0.00   0.02  -0.01
  43   7     0.10   0.25   0.04    -0.18   0.02   0.01     0.11   0.30   0.15
  44   1     0.04   0.08   0.01    -0.05   0.01  -0.01     0.02   0.08   0.03
  45   1     0.02   0.06   0.01    -0.05   0.00   0.01     0.03   0.09   0.05
  46   6    -0.03  -0.17  -0.13     0.03   0.06  -0.02     0.02  -0.03  -0.02
  47   8    -0.04  -0.11   0.09     0.09   0.04  -0.01    -0.26   0.12  -0.02
  48   7     0.00  -0.09  -0.30     0.02   0.12  -0.04     0.09  -0.27   0.06
  49   1     0.00   0.02  -0.05     0.02   0.04  -0.02    -0.03  -0.09   0.04
  50   1    -0.01  -0.04  -0.12    -0.01   0.04  -0.02     0.08  -0.10   0.02
  51   7    -0.07  -0.38  -0.27    -0.03   0.04  -0.01     0.30   0.03  -0.10
  52   1    -0.02  -0.12  -0.12    -0.02   0.02  -0.01     0.14  -0.02  -0.02
  53   1    -0.03  -0.12  -0.05    -0.01   0.00   0.00     0.07   0.06  -0.04
                      7                      8                      9
                        a                      a                      a 
 Frequencies --    35.7014                42.9682                47.1013
 Red. masses --    12.3913                12.3545                12.7610
 Frc consts  --     0.0000                 0.0000                 0.0000
 IR Inten    --     1.5125                 4.5635                 3.8267
 Raman Activ --     0.0000                 0.0000                 0.0000
 Depolar     --     0.0000                 0.0000                 0.0000
 Atom AN      X      Y      Z        X      Y      Z        X      Y      Z
   1   8    -0.14  -0.09  -0.08    -0.17   0.00  -0.04     0.01   0.06  -0.03
   2   6    -0.11  -0.04  -0.13    -0.18  -0.04  -0.09    -0.02  -0.00  -0.04
   3   1    -0.04  -0.02  -0.03    -0.07  -0.03  -0.01    -0.02  -0.01  -0.00
   4   1    -0.05  -0.00  -0.05    -0.06  -0.02  -0.06    -0.00  -0.01  -0.02
   5   6    -0.01   0.02  -0.15    -0.09   0.05  -0.09    -0.01   0.02  -0.03
   6   1     0.00   0.01  -0.05    -0.01   0.03  -0.04    -0.00   0.01  -0.01
   7   1    -0.00   0.02  -0.06    -0.03   0.01  -0.04    -0.00   0.00  -0.01
   8   7     0.08  -0.00  -0.09    -0.04   0.09   0.05    -0.02   0.04   0.01
   9   6     0.09  -0.04   0.01    -0.02   0.10   0.09    -0.02   0.05  -0.03
  10   1     0.04  -0.00  -0.00    -0.00   0.05   0.01    -0.01   0.02  -0.02
  11   1     0.04  -0.01   0.02     0.00   0.03   0.06    -0.01   0.02   0.00
  12   1     0.00  -0.02   0.01    -0.02   0.00   0.02    -0.00   0.00  -0.02
  13   6     0.16   0.05  -0.12     0.03   0.18   0.05    -0.03   0.09   0.04
  14   1     0.04   0.02  -0.03     0.02   0.07  -0.00    -0.02   0.03   0.00
  15   1     0.05   0.03  -0.05     0.00   0.05   0.00    -0.01   0.03   0.02
  16   1     0.07   0.00  -0.03     0.02   0.06   0.04    -0.01   0.03   0.02
  17   6     0.04  -0.02  -0.06    -0.08   0.00   0.14     0.01   0.00   0.05
  18   1     0.01   0.00  -0.03    -0.03  -0.00   0.03     0.01  -0.00   0.02
  19   1    -0.00  -0.02  -0.01    -0.04  -0.02   0.04     0.01  -0.01   0.01
  20   1     0.03  -0.01  -0.00    -0.01   0.01   0.07     0.00   0.01   0.02
  21   1    -0.04  -0.03  -0.01    -0.02   0.00  -0.02     0.02   0.01  -0.00
  22   6    -0.07  -0.16   0.01     0.06  -0.03  -0.00     0.16  -0.06  -0.06
  23   8    -0.08  -0.16  -0.01     0.09  -0.10  -0.05     0.17  -0.03  -0.01
  24   7    -0.09  -0.23  -0.01     0.08  -0.00   0.01     0.17  -0.09  -0.09
  25   1    -0.04  -0.05   0.00     0.03  -0.00   0.01     0.04  -0.00  -0.01
  26   1    -0.03  -0.06   0.01     0.02   0.01   0.01     0.05  -0.03  -0.03
  27   7    -0.04  -0.16   0.05     0.05  -0.01   0.02     0.16  -0.12  -0.13
  28   1    -0.01  -0.05   0.02     0.01   0.01   0.02     0.04  -0.03  -0.04
  29   1    -0.01  -0.02   0.03     0.01  -0.00   0.01     0.02  -0.01  -0.00
  30   6     0.03  -0.01   0.03     0.03  -0.02   0.03    -0.07  -0.09   0.13
  31   8     0.02   0.08   0.19     0.03   0.03   0.05    -0.12   0.13   0.26
  32   7     0.09   0.04   0.02     0.02  -0.01   0.05    -0.10  -0.21   0.10
  33   1     0.03   0.04   0.03     0.00   0.01   0.02    -0.05  -0.03   0.04
  34   1     0.02  -0.01  -0.02     0.01  -0.01   0.01    -0.03  -0.10   0.01
  35   7    -0.00  -0.17  -0.11     0.05  -0.08   0.00    -0.01  -0.26   0.06
  36   1     0.01  -0.06  -0.06     0.02  -0.03  -0.00     0.02  -0.13  -0.01
  37   1    -0.01  -0.05  -0.02     0.02  -0.02  -0.00     0.01  -0.05   0.02
  38   6    -0.05   0.13   0.13    -0.00  -0.09  -0.06    -0.08   0.07  -0.04
  39   8    -0.21  -0.05   0.07     0.21   0.07   0.10    -0.09   0.08  -0.05
  40   7    -0.03   0.16   0.13    -0.21  -0.42  -0.28     0.17   0.37   0.08
  41   1    -0.03   0.01   0.02    -0.02  -0.09  -0.06     0.05   0.09   0.02
  42   1     0.03   0.08   0.05    -0.08  -0.12  -0.10     0.02   0.07   0.01
  43   7     0.12   0.37   0.24    -0.02  -0.02  -0.05    -0.35  -0.21  -0.19
  44   1     0.05   0.12   0.07    -0.07  -0.04  -0.05    -0.07  -0.04  -0.04
  45   1     0.02   0.08   0.06     0.02   0.04   0.02    -0.12  -0.09  -0.06
  46   6     0.05   0.06  -0.02     0.05   0.07   0.04     0.01   0.05  -0.00
  47   8     0.22  -0.00   0.01     0.05   0.19   0.33    -0.02   0.10   0.08
  48   7     0.02   0.22  -0.08     0.13   0.16  -0.18     0.05   0.04  -0.06
  49   1     0.04   0.07  -0.03     0.04   0.09  -0.02     0.01   0.02  -0.00
  50   1    -0.03   0.07  -0.03     0.03   0.03  -0.10     0.02   0.00  -0.03
  51   7    -0.10  -0.00  -0.00    -0.01  -0.13  -0.09     0.03  -0.00  -0.05
  52   1    -0.06   0.01  -0.01    -0.01  -0.05  -0.08     0.01  -0.01  -0.03
  53   1    -0.02  -0.03   0.01    -0.02  -0.05   0.02     0.00   0.00   0.00
                     10                     11                     12
                        a                      a                      a 
 Frequencies --    53.0685                58.4553                69.6596
 Red. masses --    12.3978                12.3871                 9.5881
 Frc consts  --     0.0000                 0.0000                 0.0000
 IR Inten    --     0.4662                 0.0912                 0.2659
 Raman Activ --     0.0000                 0.0000                 0.0000
 Depolar     --     0.0000                 0.0000                 0.0000
 Atom AN      X      Y      Z        X      Y      Z        X      Y      Z
   1   8     0.07  -0.04  -0.04     0.11  -0.08  -0.16     0.08  -0.03   0.12
   2   6     0.11   0.03   0.03     0.05  -0.14  -0.16     0.11   0.05   0.08
   3   1     0.06   0.01  -0.00    -0.01  -0.05  -0.04     0.05   0.03   0.00
   4   1     0.03   0.02   0.03     0.02  -0.06  -0.06     0.03   0.04   0.05
   5   6     0.07   0.02   0.05     0.07  -0.13  -0.16     0.11  -0.04   0.03
   6   1     0.03   0.01   0.01     0.05  -0.03  -0.06     0.06  -0.02   0.02
   7   1     0.02  -0.01   0.02     0.01  -0.07  -0.06     0.02  -0.03  -0.01
   8   7     0.01   0.06   0.06     0.01  -0.05  -0.05     0.04  -0.00   0.02
   9   6     0.06   0.13   0.13     0.08   0.10   0.05     0.19   0.13   0.35
  10   1     0.04   0.03   0.04     0.06   0.04  -0.00     0.13  -0.00   0.13
  11   1     0.01   0.04   0.04     0.01   0.05   0.05     0.04   0.04   0.09
  12   1     0.01   0.05   0.05     0.01   0.03   0.02     0.03   0.10   0.15
  13   6     0.04  -0.02   0.00     0.06  -0.05  -0.09     0.20  -0.26  -0.21
  14   1     0.04  -0.01   0.00     0.04  -0.01  -0.03     0.12  -0.11  -0.03
  15   1     0.00  -0.02  -0.02     0.01  -0.03  -0.04     0.03  -0.10  -0.13
  16   1     0.00   0.00   0.00     0.01  -0.00  -0.01     0.05  -0.07  -0.06
  17   6    -0.11   0.09   0.03    -0.18  -0.08   0.01    -0.35   0.16  -0.11
  18   1    -0.04   0.01  -0.01    -0.07  -0.06  -0.02    -0.14   0.03  -0.12
  19   1    -0.04   0.05   0.02    -0.07  -0.02   0.02    -0.15   0.10   0.03
  20   1    -0.04   0.03   0.01    -0.06  -0.01   0.03    -0.09   0.04  -0.04
  21   1    -0.01  -0.01   0.00     0.04  -0.02  -0.04     0.01  -0.00   0.03
  22   6    -0.14  -0.09  -0.05    -0.07   0.07   0.07     0.05   0.01  -0.03
  23   8    -0.18  -0.02   0.05    -0.05  -0.03  -0.06     0.05   0.05  -0.03
  24   7    -0.15  -0.04  -0.00    -0.07  -0.01   0.01     0.02   0.02   0.01
  25   1    -0.03   0.00   0.02    -0.02  -0.02  -0.02    -0.00   0.01   0.01
  26   1    -0.03  -0.03  -0.03    -0.03   0.02   0.04     0.01  -0.00   0.00
  27   7    -0.10  -0.27  -0.22    -0.11   0.30   0.32     0.09  -0.05  -0.08
  28   1    -0.03  -0.08  -0.06    -0.03   0.08   0.09     0.02  -0.01  -0.02
  29   1    -0.03  -0.05  -0.04    -0.02   0.05   0.05     0.02  -0.00  -0.01
  30   6     0.01   0.09  -0.13     0.02   0.00  -0.01    -0.03  -0.02   0.04
  31   8     0.01   0.09  -0.06     0.04  -0.15  -0.11    -0.04   0.03   0.07
  32   7     0.06   0.27  -0.08     0.02  -0.01  -0.02    -0.03  -0.09   0.01
  33   1     0.02   0.10   0.01     0.02  -0.03  -0.03    -0.01  -0.02   0.00
  34   1     0.01   0.06  -0.04     0.01   0.03   0.01    -0.01  -0.03   0.00
  35   7    -0.02  -0.09  -0.31    -0.02   0.19   0.11    -0.02  -0.02   0.06
  36   1    -0.01  -0.00  -0.09    -0.01   0.07   0.05     0.00  -0.02   0.01
  37   1    -0.02  -0.03  -0.07    -0.01   0.03   0.02     0.00   0.00   0.02
  38   6     0.05  -0.13   0.13    -0.01   0.01  -0.02    -0.10   0.04  -0.07
  39   8     0.09  -0.07   0.13    -0.11  -0.07  -0.12    -0.08   0.03  -0.00
  40   7     0.12  -0.02   0.23     0.15   0.23   0.12    -0.14  -0.05  -0.19
  41   1     0.01   0.00   0.06     0.01   0.04   0.02    -0.02  -0.01  -0.04
  42   1     0.01  -0.04   0.06     0.04   0.05   0.04    -0.04  -0.00  -0.06
  43   7    -0.05  -0.34   0.06    -0.05  -0.12  -0.07    -0.14   0.15  -0.06
  44   1    -0.01  -0.09   0.03     0.02  -0.01   0.00    -0.05   0.04  -0.04
  45   1    -0.01  -0.10   0.01    -0.03  -0.07  -0.04    -0.04   0.05   0.00
  46   6     0.01   0.08   0.00     0.01   0.01   0.10     0.00  -0.03  -0.01
  47   8    -0.09   0.19   0.11    -0.03   0.12   0.35     0.04  -0.07  -0.07
  48   7     0.07   0.03  -0.06     0.09   0.04  -0.09    -0.02  -0.01   0.02
  49   1     0.00   0.02   0.00     0.02   0.05   0.01    -0.00  -0.01  -0.00
  50   1     0.03  -0.01  -0.03     0.02  -0.00  -0.06    -0.01   0.00   0.02
  51   7     0.08   0.04  -0.07    -0.01  -0.16  -0.01    -0.01  -0.00   0.02
  52   1     0.04  -0.00  -0.03     0.00  -0.06  -0.05    -0.01   0.01   0.01
  53   1     0.01   0.03  -0.00    -0.02  -0.04   0.03     0.00  -0.01  -0.00
                     13                     14                     15
                        a                      a                      a 
 Frequencies --    72.4091                78.1845                87.5483
 Red. masses --    12.7028                13.0438                13.4964
 Frc consts  --     0.0000                 0.0000                 0.0000
 IR Inten    --     8.9129                 5.6971                 9.2306
 Raman Activ --     0.0000                 0.0000                 0.0000
 Depolar     --     0.0000                 0.0000                 0.0000
 Atom AN      X      Y      Z        X      Y      Z        X      Y      Z
   1   8     0.09   0.04   0.08    -0.14  -0.13   0.24     0.04   0.07   0.13
   2   6     0.06   0.01   0.05    -0.14  -0.07   0.06    -0.01   0.01   0.01
   3   1     0.01   0.01   0.01    -0.06  -0.02   0.02    -0.03   0.01  -0.00
   4   1     0.02  -0.00   0.01    -0.06  -0.01  -0.01    -0.00  -0.01  -0.01
   5   6     0.06  -0.04   0.02     0.03  -0.07  -0.02     0.03  -0.08  -0.06
   6   1     0.03  -0.02   0.01     0.02  -0.02  -0.01     0.02  -0.04  -0.01
   7   1     0.01  -0.02  -0.00     0.00  -0.01  -0.04     0.00  -0.03  -0.04
   8   7     0.05  -0.03   0.02     0.13  -0.10   0.04     0.03  -0.10  -0.10
   9   6     0.03  -0.01  -0.03     0.13  -0.15   0.10     0.01  -0.10  -0.13
  10   1     0.00   0.00  -0.02     0.04  -0.04   0.03    -0.00  -0.01  -0.05
  11   1     0.01  -0.00  -0.00     0.05  -0.05   0.04     0.01  -0.02  -0.02
  12   1     0.01  -0.01  -0.02     0.02  -0.05   0.04     0.00  -0.04  -0.04
  13   6     0.01  -0.01   0.05     0.20  -0.05   0.01    -0.00  -0.09  -0.07
  14   1    -0.01  -0.00   0.01     0.06  -0.01  -0.00    -0.01  -0.02  -0.02
  15   1     0.00  -0.00   0.02     0.06  -0.01  -0.01     0.00  -0.02  -0.01
  16   1    -0.00  -0.00   0.01     0.07  -0.01   0.01    -0.01  -0.02  -0.02
  17   6     0.08  -0.04   0.03     0.13  -0.11   0.05     0.06  -0.10  -0.09
  18   1     0.03  -0.02   0.03     0.04  -0.04   0.02     0.02  -0.04  -0.01
  19   1     0.04  -0.01  -0.00     0.04  -0.03   0.01     0.03  -0.03  -0.04
  20   1     0.01  -0.01   0.01     0.03  -0.03   0.01     0.00  -0.02  -0.03
  21   1     0.02   0.01   0.02    -0.02  -0.03   0.05     0.03   0.01   0.03
  22   6    -0.06  -0.07  -0.09     0.01   0.01   0.01     0.00   0.06   0.05
  23   8    -0.12   0.14   0.06     0.02  -0.02  -0.03    -0.01   0.11   0.07
  24   7    -0.03  -0.37  -0.35     0.02  -0.06  -0.05    -0.10   0.36   0.38
  25   1    -0.02  -0.06  -0.06     0.00  -0.01  -0.01    -0.03   0.06   0.06
  26   1    -0.00  -0.12  -0.10    -0.00  -0.00   0.01    -0.01   0.05   0.06
  27   7    -0.03  -0.05  -0.04    -0.01   0.12   0.12     0.11  -0.27  -0.27
  28   1     0.01  -0.07  -0.05    -0.00   0.02   0.03     0.02  -0.04  -0.04
  29   1    -0.01   0.03   0.02    -0.00   0.01   0.02     0.02  -0.05  -0.05
  30   6    -0.01   0.10   0.04    -0.00  -0.05  -0.01     0.00   0.02   0.04
  31   8    -0.03   0.23   0.16     0.01  -0.12  -0.06    -0.01   0.12   0.08
  32   7     0.09  -0.30  -0.25    -0.03   0.09   0.08     0.01  -0.09  -0.03
  33   1     0.03  -0.11  -0.10    -0.01   0.03   0.03    -0.00  -0.02  -0.01
  34   1     0.02  -0.08  -0.09    -0.01   0.03   0.03     0.00  -0.03  -0.01
  35   7    -0.09   0.38   0.21     0.01  -0.11  -0.04     0.01   0.04   0.05
  36   1    -0.01   0.06   0.02    -0.00  -0.01   0.00     0.01  -0.02   0.00
  37   1    -0.03   0.12   0.08     0.00  -0.04  -0.02     0.01   0.02   0.02
  38   6    -0.03  -0.04   0.02    -0.02   0.03  -0.03    -0.04  -0.03  -0.08
  39   8    -0.02  -0.02   0.02    -0.03   0.01  -0.01    -0.18  -0.12  -0.24
  40   7    -0.10  -0.11   0.00    -0.01   0.03  -0.05    -0.10  -0.02   0.01
  41   1    -0.03  -0.02   0.00    -0.00   0.00  -0.02    -0.03   0.01   0.00
  42   1    -0.02  -0.03   0.01    -0.01   0.01  -0.02     0.02   0.03   0.03
  43   7     0.03   0.00   0.04    -0.03   0.08  -0.02     0.19   0.07   0.00
  44   1    -0.00  -0.01   0.01    -0.01   0.02  -0.01     0.06   0.01   0.02
  45   1     0.01   0.01   0.01    -0.01   0.02   0.00     0.05  -0.01  -0.03
  46   6    -0.00   0.06   0.01    -0.10   0.17  -0.09    -0.02   0.05   0.08
  47   8    -0.08   0.13   0.08    -0.41   0.36  -0.11    -0.13   0.18   0.28
  48   7     0.04   0.01  -0.04    -0.01  -0.09  -0.05     0.07   0.01  -0.05
  49   1    -0.00   0.01   0.00    -0.06  -0.04   0.01    -0.00   0.03   0.02
  50   1     0.02  -0.01  -0.02     0.06  -0.06  -0.00     0.03  -0.01  -0.04
  51   7     0.05   0.03  -0.04     0.19   0.27  -0.18     0.03  -0.06  -0.02
  52   1     0.03   0.00  -0.02     0.11   0.05  -0.03     0.02  -0.03  -0.04
  53   1     0.00   0.02   0.00     0.03   0.14  -0.05    -0.01  -0.00   0.03
                     16                     17                     18
                        a                      a                      a 
 Frequencies --    92.2155                98.9951               117.7632
 Red. masses --    13.0063                11.9960                11.7241
 Frc consts  --     0.0000                 0.0000                 0.0000
 IR Inten    --     0.1139                 4.6258                14.1612
 Raman Activ --     0.0000                 0.0000                 0.0000
 Depolar     --     0.0000                 0.0000                 0.0000
 Atom AN      X      Y      Z        X      Y      Z        X      Y      Z
   1   8    -0.14  -0.18  -0.19     0.09   0.22   0.08     0.16   0.11   0.18
   2   6    -0.10  -0.13  -0.14    -0.04   0.07  -0.14    -0.06  -0.17  -0.07
   3   1    -0.03  -0.06  -0.02    -0.08   0.02  -0.02    -0.11  -0.05   0.00
   4   1    -0.04  -0.04  -0.07    -0.01  -0.00  -0.09     0.01  -0.10  -0.07
   5   6    -0.03   0.03  -0.09     0.14   0.04  -0.25     0.04  -0.28  -0.18
   6   1    -0.01   0.03  -0.05     0.09   0.01  -0.08     0.09  -0.08  -0.06
   7   1    -0.00   0.02  -0.03     0.02  -0.01  -0.12    -0.02  -0.13  -0.10
   8   7     0.06   0.03   0.04     0.17   0.09  -0.11    -0.08  -0.17  -0.06
   9   6     0.08   0.01   0.12     0.17   0.13  -0.07    -0.05   0.01  -0.11
  10   1     0.03  -0.00   0.04     0.06   0.07  -0.05     0.00   0.03  -0.06
  11   1     0.03  -0.00   0.04     0.06   0.05   0.02    -0.03   0.03   0.00
  12   1     0.01   0.00   0.05     0.04   0.01  -0.03    -0.01  -0.02  -0.04
  13   6     0.15   0.11   0.01     0.18   0.18  -0.07    -0.13  -0.10   0.00
  14   1     0.05   0.04  -0.01     0.04   0.07  -0.03    -0.04  -0.02  -0.01
  15   1     0.04   0.03  -0.01     0.06   0.06  -0.02    -0.04  -0.04   0.02
  16   1     0.06   0.03   0.02     0.06   0.05  -0.00    -0.05  -0.02   0.01
  17   6     0.02  -0.03   0.10     0.11  -0.02   0.02    -0.15  -0.24   0.04
  18   1    -0.00  -0.01   0.01     0.03  -0.04   0.03    -0.05  -0.11   0.03
  19   1    -0.01  -0.03   0.04     0.05  -0.02  -0.01    -0.02  -0.07  -0.01
  20   1     0.02  -0.00   0.05     0.00   0.02   0.03    -0.07  -0.04   0.03
  21   1    -0.04  -0.03  -0.06     0.06   0.04   0.03     0.10   0.02   0.03
  22   6    -0.05  -0.02  -0.01     0.02   0.04   0.02     0.05   0.07   0.04
  23   8    -0.02  -0.18  -0.17    -0.00   0.16   0.14     0.04   0.17   0.06
  24   7    -0.11   0.25   0.25     0.04  -0.06  -0.07     0.01   0.06   0.07
  25   1    -0.02   0.04   0.05     0.00   0.01   0.00    -0.01   0.02   0.02
  26   1    -0.03   0.08   0.07     0.01  -0.03  -0.02     0.01  -0.00   0.02
  27   7    -0.03  -0.11  -0.10     0.03  -0.02  -0.03     0.10  -0.02  -0.04
  28   1    -0.02   0.03   0.03     0.02  -0.03  -0.04     0.03  -0.01  -0.01
  29   1    -0.00  -0.02  -0.02     0.00  -0.00  -0.00     0.02  -0.00  -0.00
  30   6     0.03   0.09   0.03    -0.03  -0.02  -0.02    -0.08   0.02  -0.04
  31   8     0.01   0.21   0.09    -0.02  -0.05  -0.02    -0.08  -0.05   0.02
  32   7     0.06  -0.19  -0.14    -0.02   0.08   0.02    -0.01   0.06  -0.08
  33   1     0.01  -0.07  -0.06    -0.00   0.03   0.01     0.01   0.02  -0.01
  34   1     0.01  -0.05  -0.05    -0.01   0.02   0.00    -0.00   0.04  -0.03
  35   7     0.01   0.27   0.16    -0.03  -0.08  -0.09    -0.16   0.04  -0.08
  36   1     0.02   0.03   0.02    -0.01  -0.01  -0.02    -0.04   0.01  -0.03
  37   1     0.01   0.06   0.03    -0.01  -0.01  -0.01    -0.05   0.01  -0.01
  38   6     0.08   0.02   0.06    -0.04   0.03   0.07     0.03   0.05   0.13
  39   8     0.18   0.05   0.18     0.03   0.15   0.09     0.17   0.10   0.32
  40   7     0.19   0.06   0.00    -0.13  -0.04   0.06     0.06  -0.02  -0.00
  41   1     0.04  -0.01  -0.01    -0.03   0.01   0.03     0.04  -0.00   0.00
  42   1     0.01  -0.01  -0.03    -0.04  -0.02   0.02    -0.02  -0.02  -0.03
  43   7    -0.10  -0.04  -0.00    -0.04  -0.01   0.06    -0.17   0.06   0.09
  44   1    -0.03   0.00  -0.02    -0.03  -0.03   0.01    -0.06   0.03  -0.01
  45   1    -0.03   0.00   0.02    -0.00   0.01   0.02    -0.05   0.05   0.06
  46   6    -0.07  -0.06  -0.06    -0.15  -0.20   0.07     0.09   0.06  -0.07
  47   8    -0.11  -0.10  -0.20    -0.25  -0.19   0.09     0.18   0.01  -0.16
  48   7    -0.10  -0.13   0.05    -0.14  -0.30   0.08     0.04   0.14  -0.03
  49   1    -0.04  -0.06   0.00    -0.07  -0.07   0.05     0.04   0.02  -0.04
  50   1    -0.02  -0.03   0.04    -0.04  -0.07   0.05     0.01   0.03  -0.02
  51   7    -0.01   0.04  -0.02    -0.12  -0.21   0.07     0.06   0.11  -0.04
  52   1     0.01   0.01   0.02    -0.01  -0.07  -0.01    -0.02   0.05   0.03
  53   1     0.01   0.02  -0.03    -0.03  -0.06   0.00     0.01   0.03  -0.00
                     19                     20                     21
                        a                      a                      a 
 Frequencies --   119.2918               126.8324               147.3252
 Red. masses --    11.7790                12.5649                13.8062
 Frc consts  --     0.0000                 0.0000                 0.0000
 IR Inten    --    18.8943                14.7112                13.3405
 Raman Activ --     0.0000                 0.0000                 0.0000
 Depolar     --     0.0000                 0.0000                 0.0000
 Atom AN      X      Y      Z        X      Y      Z        X      Y      Z
   1   8    -0.08  -0.02  -0.00     0.01   0.08   0.02    -0.00  -0.05   0.10
   2   6     0.05   0.17   0.08    -0.02   0.03   0.01     0.03   0.04   0.04
   3   1     0.07   0.07  -0.01    -0.02  -0.00   0.01     0.02   0.03  -0.01
   4   1     0.00   0.09   0.08    -0.00  -0.00  -0.01     0.00   0.03   0.03
   5   6    -0.04   0.09   0.08     0.01   0.06   0.03     0.04  -0.04  -0.01
   6   1    -0.05   0.00   0.05     0.01   0.02   0.00     0.03  -0.02   0.00
   7   1     0.01   0.06   0.05     0.00   0.02   0.01     0.00  -0.02  -0.02
   8   7     0.01  -0.03  -0.14     0.02   0.09   0.09    -0.01  -0.02  -0.04
   9   6    -0.03  -0.18  -0.15     0.02   0.09   0.07    -0.02  -0.00  -0.07
  10   1    -0.03  -0.08  -0.01     0.00   0.03   0.02    -0.01   0.01  -0.03
  11   1     0.00  -0.08  -0.08     0.00   0.03   0.02    -0.01   0.00  -0.01
  12   1    -0.01  -0.03  -0.04     0.01   0.02   0.02    -0.00  -0.01  -0.03
  13   6    -0.01  -0.14  -0.17     0.03   0.12   0.10    -0.05  -0.05  -0.02
  14   1    -0.00  -0.06  -0.03     0.00   0.04   0.02    -0.01  -0.01  -0.01
  15   1    -0.00  -0.03  -0.05     0.01   0.04   0.03    -0.02  -0.02  -0.00
  16   1    -0.01  -0.05  -0.07     0.01   0.03   0.03    -0.03  -0.01  -0.01
  17   6     0.12   0.09  -0.28     0.03   0.05   0.13    -0.02  -0.01  -0.06
  18   1     0.04   0.06  -0.08     0.01   0.01   0.04    -0.00  -0.01  -0.01
  19   1     0.03   0.04  -0.07     0.01   0.00   0.03     0.01   0.01  -0.02
  20   1     0.05   0.00  -0.12     0.01   0.02   0.04    -0.02   0.00  -0.02
  21   1    -0.06   0.00  -0.00     0.01   0.03  -0.01    -0.01  -0.01   0.03
  22   6     0.03  -0.02  -0.01     0.04  -0.06   0.07    -0.19  -0.06   0.06
  23   8     0.05  -0.05  -0.12     0.02   0.05  -0.04    -0.26   0.02   0.05
  24   7     0.00  -0.02   0.02    -0.06  -0.10   0.15    -0.26  -0.09   0.07
  25   1     0.00  -0.00   0.01    -0.03  -0.04   0.02    -0.07  -0.03   0.02
  26   1    -0.00   0.01   0.02    -0.01  -0.05   0.04    -0.06  -0.05  -0.01
  27   7     0.05   0.03   0.05     0.16  -0.10   0.10    -0.14  -0.13   0.05
  28   1     0.01   0.02   0.03     0.04  -0.03   0.04    -0.03  -0.05   0.02
  29   1     0.01   0.00   0.01     0.04  -0.03   0.04    -0.02  -0.02   0.01
  30   6    -0.06   0.01  -0.02    -0.13  -0.03   0.01     0.08  -0.09   0.11
  31   8    -0.07  -0.04   0.05    -0.13  -0.28   0.26     0.10  -0.13   0.15
  32   7     0.01   0.03  -0.07     0.17   0.14  -0.13     0.15  -0.04   0.11
  33   1     0.02   0.00  -0.01     0.12   0.01  -0.01     0.06  -0.01   0.04
  34   1     0.00   0.02  -0.03     0.04   0.09  -0.09     0.04  -0.00   0.01
  35   7    -0.14   0.05  -0.04    -0.45   0.08  -0.10     0.04  -0.10   0.07
  36   1    -0.04   0.01  -0.02    -0.12   0.04  -0.08     0.01  -0.00   0.02
  37   1    -0.04   0.01  -0.01    -0.16   0.00  -0.02    -0.00  -0.03   0.03
  38   6     0.08   0.02   0.08     0.06  -0.05  -0.16     0.11   0.21  -0.14
  39   8     0.21  -0.03   0.34    -0.03  -0.23  -0.19     0.32   0.50  -0.11
  40   7     0.24   0.02  -0.11     0.17   0.02  -0.19     0.00   0.13  -0.11
  41   1     0.08  -0.02  -0.03     0.05  -0.01  -0.06    -0.01   0.05  -0.03
  42   1     0.03  -0.00  -0.08     0.07   0.03  -0.05    -0.06  -0.04  -0.04
  43   7    -0.22   0.13   0.04     0.08   0.05  -0.15     0.07  -0.04  -0.24
  44   1    -0.07   0.07  -0.04     0.04   0.03  -0.04    -0.00  -0.05  -0.05
  45   1    -0.09   0.05   0.07    -0.00  -0.01  -0.04     0.07   0.04  -0.06
  46   6    -0.05  -0.02   0.12    -0.00  -0.01  -0.02     0.00  -0.00   0.00
  47   8    -0.13   0.08   0.30     0.01  -0.04  -0.06     0.01  -0.01   0.01
  48   7     0.03  -0.04  -0.01    -0.02  -0.02   0.01     0.00   0.01   0.01
  49   1    -0.01   0.02   0.03    -0.01  -0.01   0.00     0.01  -0.00  -0.01
  50   1     0.01  -0.02  -0.02    -0.01   0.00   0.01     0.01  -0.00  -0.01
  51   7    -0.03  -0.14   0.02    -0.01   0.02   0.01    -0.00  -0.01   0.00
  52   1     0.00  -0.05  -0.03     0.00   0.00  -0.00    -0.01   0.00   0.01
  53   1    -0.03  -0.03   0.04     0.01  -0.00  -0.01    -0.00  -0.00   0.01
                     22                     23                     24
                        a                      a                      a 
 Frequencies --   161.2640               168.8942               181.1326
 Red. masses --    12.7894                 3.7055                11.1359
 Frc consts  --     0.0000                 0.0000                 0.0000
 IR Inten    --     3.6500                 7.2343                11.4349
 Raman Activ --     0.0000                 0.0000                 0.0000
 Depolar     --     0.0000                 0.0000                 0.0000
 Atom AN      X      Y      Z        X      Y      Z        X      Y      Z
   1   8     0.01   0.06   0.11     0.01   0.05  -0.06     0.10   0.21  -0.41
   2   6    -0.00   0.06   0.02    -0.00   0.00  -0.02    -0.04  -0.16  -0.11
   3   1    -0.01   0.03   0.00    -0.00  -0.01   0.00    -0.05  -0.10   0.02
   4   1    -0.00   0.02   0.00     0.00  -0.01  -0.01     0.04  -0.12  -0.09
   5   6     0.07  -0.01  -0.05    -0.02   0.03   0.01    -0.21   0.05   0.10
   6   1     0.06  -0.01  -0.01    -0.02   0.01   0.00    -0.15   0.04   0.01
   7   1     0.00  -0.03  -0.05    -0.00   0.02   0.01    -0.02   0.07   0.10
   8   7     0.02   0.06   0.01     0.01   0.01   0.01    -0.03  -0.09   0.06
   9   6     0.02   0.12  -0.03     0.01  -0.02   0.02    -0.03  -0.25   0.16
  10   1     0.01   0.06  -0.03     0.00  -0.02   0.02    -0.01  -0.16   0.13
  11   1     0.00   0.05   0.02     0.00  -0.01  -0.01    -0.02  -0.11  -0.06
  12   1     0.00   0.01  -0.02     0.00   0.01   0.01     0.01   0.03   0.08
  13   6    -0.03   0.09   0.06     0.03   0.01  -0.01     0.14  -0.07  -0.04
  14   1    -0.03   0.03   0.02     0.01  -0.00  -0.00     0.08  -0.02  -0.02
  15   1    -0.00   0.03   0.03     0.01   0.01  -0.01     0.02  -0.03  -0.06
  16   1    -0.01   0.02   0.01     0.01  -0.00  -0.01     0.05  -0.01   0.02
  17   6     0.00  -0.00   0.08     0.02   0.00   0.01     0.03  -0.04   0.00
  18   1     0.00  -0.03   0.05     0.00   0.01  -0.01     0.00   0.08  -0.08
  19   1     0.03   0.00  -0.00    -0.01  -0.01   0.01    -0.08  -0.05   0.05
  20   1    -0.03   0.02   0.03     0.02  -0.00   0.01     0.11  -0.06   0.01
  21   1     0.00   0.02   0.01     0.00   0.01  -0.01     0.05   0.06  -0.11
  22   6    -0.15   0.10  -0.07    -0.01   0.02  -0.00    -0.03   0.16  -0.03
  23   8    -0.21   0.25  -0.10    -0.02   0.05   0.01    -0.09   0.39   0.05
  24   7    -0.29  -0.01  -0.05    -0.02  -0.00  -0.01    -0.10   0.02  -0.08
  25   1    -0.09  -0.01  -0.03    -0.01  -0.00  -0.00    -0.04   0.02  -0.01
  26   1    -0.06  -0.06  -0.02    -0.00  -0.01  -0.01    -0.01  -0.04  -0.04
  27   7    -0.05   0.04  -0.06     0.01   0.00  -0.01     0.10   0.04  -0.08
  28   1    -0.01  -0.02  -0.01     0.00  -0.01  -0.01     0.04  -0.04  -0.04
  29   1     0.00   0.03  -0.03     0.00   0.00  -0.00     0.03   0.02  -0.02
  30   6     0.09  -0.07   0.07     0.00  -0.01   0.01     0.02  -0.07   0.07
  31   8     0.10   0.04  -0.05     0.00  -0.01   0.00     0.04  -0.11   0.10
  32   7    -0.06  -0.10   0.18     0.00  -0.00   0.01     0.08   0.00   0.08
  33   1    -0.05  -0.01   0.04    -0.00  -0.00   0.00     0.04  -0.00   0.03
  34   1    -0.01  -0.06   0.07     0.00  -0.00   0.00     0.02   0.00   0.00
  35   7     0.24  -0.17   0.08     0.01  -0.02   0.00    -0.01  -0.11   0.01
  36   1     0.06  -0.03   0.06     0.00  -0.00   0.00    -0.01  -0.00   0.01
  37   1     0.08  -0.02   0.03     0.00  -0.00   0.00    -0.01  -0.01   0.03
  38   6     0.06  -0.12  -0.05     0.00  -0.01  -0.00     0.01   0.01   0.03
  39   8    -0.00  -0.43   0.10    -0.01  -0.03  -0.00     0.04   0.04   0.05
  40   7     0.30  -0.04  -0.21     0.01  -0.00  -0.00    -0.02  -0.03   0.03
  41   1     0.09  -0.04  -0.07     0.00  -0.00  -0.00    -0.00   0.01   0.01
  42   1     0.09   0.03  -0.08     0.00  -0.00  -0.00    -0.01  -0.01   0.01
  43   7    -0.11   0.16  -0.02     0.00   0.00   0.00     0.00  -0.02   0.03
  44   1    -0.02   0.10  -0.05     0.01   0.01   0.00     0.01  -0.00   0.01
  45   1    -0.09   0.01   0.03     0.00   0.00   0.00     0.01   0.01   0.01
  46   6     0.01  -0.01  -0.01    -0.02  -0.03   0.01    -0.01   0.02   0.00
  47   8     0.02  -0.02  -0.02    -0.03  -0.01   0.03    -0.03   0.03   0.01
  48   7     0.00  -0.01  -0.00    -0.16   0.15   0.21     0.02  -0.02  -0.03
  49   1    -0.01   0.01   0.01     0.19  -0.21  -0.27    -0.03   0.03   0.04
  50   1    -0.01   0.01   0.02     0.23  -0.29  -0.33    -0.03   0.03   0.04
  51   7    -0.01   0.00   0.01     0.15  -0.17  -0.21    -0.01   0.03   0.01
  52   1     0.01  -0.01  -0.01    -0.27   0.21   0.34     0.04  -0.02  -0.04
  53   1     0.01  -0.01  -0.01    -0.20   0.19   0.28     0.02  -0.01  -0.03
                     25                     26                     27
                        a                      a                      a 
 Frequencies --   201.2075               221.4647               236.8119
 Red. masses --    13.0270                12.0952                12.8593
 Frc consts  --     0.0000                 0.0000                 0.0000
 IR Inten    --     4.4031               104.3941                20.0800
 Raman Activ --     0.0000                 0.0000                 0.0000
 Depolar     --     0.0000                 0.0000                 0.0000
 Atom AN      X      Y      Z        X      Y      Z        X      Y      Z
   1   8    -0.13  -0.29   0.07    -0.09  -0.21  -0.05    -0.20  -0.49  -0.20
   2   6     0.03   0.02   0.02     0.03  -0.01  -0.01     0.08  -0.04  -0.06
   3   1     0.06   0.02  -0.02     0.05   0.00  -0.02     0.12   0.00  -0.05
   4   1    -0.03   0.06   0.04    -0.01   0.03   0.03    -0.02   0.07   0.05
   5   6     0.08  -0.01  -0.03     0.02   0.01   0.00     0.02  -0.01  -0.03
   6   1     0.05  -0.01  -0.01     0.01   0.01  -0.00     0.00   0.00  -0.01
   7   1     0.01  -0.02  -0.03     0.01  -0.00   0.00     0.01  -0.01   0.00
   8   7     0.00   0.04  -0.03    -0.00   0.02  -0.00    -0.01   0.01  -0.03
   9   6     0.00   0.08  -0.06    -0.01   0.01  -0.01    -0.01  -0.00  -0.01
  10   1     0.00   0.07  -0.06    -0.01   0.02  -0.02    -0.01   0.09  -0.08
  11   1     0.01   0.04   0.03     0.01   0.01   0.01     0.05   0.02   0.11
  12   1    -0.01  -0.03  -0.04    -0.01  -0.02  -0.01    -0.05  -0.12  -0.03
  13   6    -0.06   0.02   0.01    -0.02   0.02   0.01    -0.01   0.04  -0.02
  14   1    -0.04   0.00   0.01    -0.01   0.00   0.00    -0.04   0.01   0.00
  15   1    -0.01   0.01   0.02    -0.01   0.00   0.01     0.01   0.05   0.00
  16   1    -0.02   0.00  -0.01    -0.01   0.00  -0.00     0.02  -0.01  -0.02
  17   6    -0.02   0.04  -0.03    -0.00   0.03  -0.01    -0.05   0.00  -0.01
  18   1    -0.00  -0.02   0.02     0.00   0.01   0.00    -0.01  -0.05   0.03
  19   1     0.03   0.03  -0.03     0.01   0.02  -0.01     0.03   0.02  -0.03
  20   1    -0.04   0.02  -0.02    -0.01   0.01  -0.01    -0.07   0.02  -0.01
  21   1    -0.06  -0.05  -0.01    -0.06  -0.02  -0.05    -0.14  -0.12  -0.03
  22   6     0.00   0.16  -0.25     0.09   0.00   0.06     0.02   0.12   0.17
  23   8     0.02   0.14  -0.38     0.04   0.29  -0.21    -0.02   0.32   0.51
  24   7    -0.06   0.19  -0.18    -0.25  -0.25   0.19     0.19   0.04  -0.04
  25   1    -0.03   0.06  -0.04    -0.14  -0.07   0.02     0.08   0.03   0.02
  26   1    -0.03   0.07  -0.01    -0.05  -0.15   0.09     0.07  -0.02  -0.09
  27   7     0.12   0.18  -0.17     0.47  -0.04   0.20    -0.03  -0.03  -0.04
  28   1     0.03   0.05  -0.01     0.13  -0.05   0.10     0.01  -0.07  -0.10
  29   1     0.04   0.05  -0.05     0.17   0.01   0.05    -0.02  -0.00   0.01
  30   6     0.03  -0.11   0.14    -0.05   0.06  -0.10    -0.01   0.01  -0.00
  31   8     0.05  -0.22   0.25    -0.08   0.13  -0.16    -0.01  -0.01   0.02
  32   7     0.24   0.00   0.06    -0.27  -0.05  -0.04     0.03   0.03  -0.02
  33   1     0.12  -0.02   0.04    -0.13   0.04  -0.00     0.02  -0.01  -0.01
  34   1     0.06   0.03  -0.03    -0.07   0.02   0.09     0.01  -0.00  -0.03
  35   7    -0.12  -0.07   0.07     0.05   0.01  -0.06    -0.01  -0.02  -0.04
  36   1    -0.04   0.01  -0.00     0.03  -0.04  -0.01    -0.03   0.06   0.04
  37   1    -0.04  -0.04   0.02     0.04   0.02  -0.03    -0.02   0.04   0.04
  38   6    -0.05  -0.04   0.13     0.01   0.02   0.03     0.02   0.01  -0.04
  39   8    -0.07   0.04   0.05     0.04   0.11  -0.00     0.02  -0.04   0.00
  40   7    -0.14  -0.06   0.18    -0.07  -0.01   0.06     0.03  -0.01  -0.08
  41   1    -0.04  -0.00   0.05    -0.03   0.02   0.02     0.06   0.04   0.00
  42   1    -0.02  -0.01   0.06    -0.02  -0.01   0.03     0.05   0.04  -0.00
  43   7     0.05  -0.12   0.14     0.10  -0.08   0.02    -0.05   0.07  -0.04
  44   1     0.01  -0.06   0.06    -0.01  -0.08   0.02    -0.03   0.02  -0.03
  45   1     0.03  -0.04   0.01     0.04  -0.03  -0.02    -0.04   0.00   0.00
  46   6     0.00  -0.01  -0.00     0.00  -0.00  -0.00    -0.00  -0.00  -0.00
  47   8     0.01  -0.01  -0.00    -0.00  -0.00  -0.00     0.00  -0.00  -0.01
  48   7    -0.00   0.00   0.01    -0.00  -0.00   0.01    -0.00  -0.00  -0.00
  49   1     0.01  -0.01  -0.01     0.00  -0.00  -0.00    -0.00   0.00   0.00
  50   1     0.01  -0.01  -0.01     0.00  -0.01  -0.00    -0.00   0.00   0.00
  51   7    -0.00  -0.01   0.00    -0.00   0.00   0.01     0.00   0.00  -0.00
  52   1    -0.01   0.00   0.01     0.00  -0.00  -0.00    -0.00   0.00   0.00
  53   1    -0.00   0.00   0.00     0.00  -0.00  -0.00    -0.00   0.00   0.00
                     28                     29                     30
                        a                      a                      a 
 Frequencies --   264.2984               298.2078               303.5416
 Red. masses --     5.5986                 7.8392                 2.5711
 Frc consts  --     0.0000                 0.0000                 0.0000
 IR Inten    --    10.6649                 0.5407               148.0639
 Raman Activ --     0.0000                 0.0000                 0.0000
 Depolar     --     0.0000                 0.0000                 0.0000
 Atom AN      X      Y      Z        X      Y      Z        X      Y      Z
   1   8    -0.01   0.25  -0.23    -0.26   0.08  -0.21    -0.00   0.04  -0.02
   2   6     0.07   0.26   0.06    -0.21  -0.03   0.03    -0.03  -0.02   0.02
   3   1     0.09   0.13  -0.05    -0.06  -0.03   0.03    -0.02  -0.02   0.02
   4   1     0.06   0.10   0.14    -0.06  -0.02  -0.02    -0.00  -0.02  -0.01
   5   6    -0.12  -0.03   0.02    -0.01   0.04   0.04    -0.02   0.01   0.03
   6   1    -0.02  -0.04   0.03    -0.01   0.01   0.02    -0.02   0.00   0.01
   7   1    -0.04  -0.01  -0.02    -0.00   0.05  -0.02     0.00   0.02   0.02
   8   7    -0.05  -0.11   0.02     0.13  -0.05   0.05     0.01  -0.02   0.01
   9   6    -0.01  -0.14   0.13     0.21   0.33  -0.03     0.02   0.03  -0.02
  10   1    -0.00   0.11  -0.10     0.13   0.01   0.07     0.01   0.04  -0.03
  11   1     0.08  -0.01   0.22    -0.08   0.13  -0.11     0.00   0.02   0.03
  12   1    -0.08  -0.23  -0.01     0.15   0.25   0.01     0.00  -0.02  -0.02
  13   6     0.15  -0.02  -0.07    -0.13  -0.40   0.06     0.00  -0.06  -0.00
  14   1    -0.06  -0.04   0.03     0.04  -0.15   0.04     0.04  -0.01  -0.01
  15   1     0.09   0.15  -0.03    -0.07  -0.22   0.03    -0.01  -0.05  -0.01
  16   1     0.15  -0.10  -0.08    -0.15  -0.06  -0.02    -0.02   0.00   0.01
  17   6    -0.10  -0.19   0.13     0.21  -0.04   0.03     0.02  -0.01  -0.00
  18   1     0.01  -0.30   0.28     0.10  -0.14   0.18     0.00   0.01  -0.01
  19   1     0.24   0.05  -0.13     0.24   0.05  -0.11    -0.00  -0.01   0.01
  20   1    -0.32   0.07  -0.01    -0.12   0.05  -0.04     0.02  -0.01   0.00
  21   1    -0.04   0.05  -0.03    -0.07   0.03  -0.06     0.00   0.00   0.00
  22   6     0.00  -0.02  -0.03     0.01   0.01   0.02    -0.01  -0.01  -0.01
  23   8     0.01  -0.05  -0.09     0.00   0.04   0.04    -0.01  -0.03  -0.01
  24   7    -0.02   0.00   0.01     0.02   0.00  -0.00    -0.00   0.00  -0.01
  25   1    -0.01  -0.01  -0.01     0.01   0.00   0.00     0.00   0.00   0.00
  26   1    -0.01   0.00   0.01     0.01  -0.00  -0.01    -0.01   0.01   0.00
  27   7     0.02   0.01   0.01     0.01  -0.00   0.00    -0.03   0.00  -0.01
  28   1     0.00   0.01   0.02     0.01  -0.01  -0.01    -0.01   0.01  -0.00
  29   1     0.01   0.00  -0.00     0.00   0.00   0.00    -0.01  -0.00  -0.00
  30   6     0.00  -0.01  -0.00    -0.00   0.00  -0.00     0.00  -0.00   0.00
  31   8     0.00  -0.01  -0.00    -0.00  -0.00   0.00     0.00  -0.00   0.00
  32   7    -0.00   0.00   0.01     0.00   0.01   0.01     0.01  -0.00  -0.01
  33   1    -0.00   0.00   0.00     0.00  -0.01  -0.01     0.01   0.00   0.01
  34   1    -0.00  -0.00   0.00    -0.00  -0.03  -0.02     0.00   0.02   0.01
  35   7    -0.00   0.00   0.01     0.00  -0.01  -0.01    -0.00   0.00   0.00
  36   1     0.01  -0.02  -0.01    -0.01   0.02   0.02     0.00  -0.00  -0.00
  37   1     0.00  -0.01  -0.01    -0.00   0.01   0.01    -0.00  -0.01  -0.00
  38   6     0.00   0.01   0.01     0.00   0.01  -0.00     0.00  -0.01   0.00
  39   8     0.01   0.03   0.01     0.00   0.01  -0.00     0.04   0.00   0.03
  40   7    -0.01   0.00   0.01    -0.01   0.00   0.00    -0.06  -0.02  -0.01
  41   1    -0.00   0.00   0.00    -0.00   0.00  -0.00     0.06   0.06   0.04
  42   1    -0.00   0.00   0.00    -0.01  -0.01  -0.00     0.21   0.21   0.10
  43   7     0.01  -0.02   0.00    -0.02  -0.02  -0.01     0.20   0.22   0.02
  44   1    -0.00  -0.02   0.00     0.03   0.03   0.01    -0.50  -0.49  -0.18
  45   1     0.01  -0.00  -0.00     0.02   0.02   0.00    -0.28  -0.32  -0.07
  46   6     0.01   0.00  -0.01     0.01  -0.00   0.01     0.02  -0.02  -0.02
  47   8     0.01  -0.00  -0.02     0.02  -0.01   0.01    -0.00  -0.00  -0.01
  48   7     0.00   0.01  -0.01     0.02   0.01  -0.01    -0.03   0.04   0.05
  49   1    -0.00   0.00  -0.00     0.00   0.01   0.01     0.04  -0.04  -0.05
  50   1    -0.00   0.01   0.00    -0.01   0.01   0.01     0.07  -0.08  -0.09
  51   7     0.01   0.02   0.00     0.00  -0.02   0.00    -0.04   0.03   0.05
  52   1     0.01   0.00  -0.00    -0.01   0.00   0.01     0.07  -0.05  -0.08
  53   1     0.01   0.00  -0.01    -0.00  -0.00   0.01     0.04  -0.03  -0.05
                     31                     32                     33
                        a                      a                      a 
 Frequencies --   313.2633               317.8596               328.7188
 Red. masses --     4.5058                 2.6551                 3.4665
 Frc consts  --     0.0000                 0.0000                 0.0000
 IR Inten    --     3.7405               109.0100               497.9509
 Raman Activ --     0.0000                 0.0000                 0.0000
 Depolar     --     0.0000                 0.0000                 0.0000
 Atom AN      X      Y      Z        X      Y      Z        X      Y      Z
   1   8     0.11   0.04   0.06    -0.02  -0.01  -0.02    -0.02   0.01  -0.02
   2   6    -0.12  -0.31  -0.04     0.01   0.03  -0.00     0.01   0.03   0.03
   3   1    -0.15  -0.17   0.09     0.01   0.02  -0.01     0.01   0.01   0.00
   4   1    -0.03  -0.18  -0.17     0.00   0.02   0.02     0.00   0.01   0.02
   5   6    -0.00   0.08   0.10    -0.00  -0.00  -0.01    -0.01   0.00   0.02
   6   1    -0.05   0.06   0.00     0.00  -0.00  -0.00    -0.00  -0.01   0.01
   7   1     0.02   0.05   0.07    -0.00  -0.00  -0.01    -0.00   0.00   0.00
   8   7     0.02   0.08   0.05     0.00  -0.01  -0.00     0.00  -0.01   0.00
   9   6     0.03   0.07   0.05     0.00   0.01  -0.00     0.00   0.03  -0.03
  10   1    -0.01   0.27  -0.21     0.01  -0.03   0.03     0.00   0.01  -0.01
  11   1     0.13   0.08   0.31    -0.02  -0.00  -0.04    -0.01   0.01  -0.02
  12   1    -0.11  -0.28  -0.06     0.02   0.04   0.01     0.01   0.01  -0.01
  13   6    -0.07  -0.15  -0.00     0.00   0.00   0.00     0.02   0.00  -0.00
  14   1    -0.19  -0.13   0.11     0.02   0.01  -0.01    -0.00  -0.00   0.00
  15   1     0.05   0.15   0.04    -0.01  -0.03  -0.00     0.01   0.01  -0.00
  16   1     0.07  -0.18  -0.17    -0.01   0.02   0.02     0.02  -0.01  -0.01
  17   6     0.10   0.27  -0.17     0.00  -0.03   0.02    -0.02  -0.04   0.03
  18   1     0.04   0.09  -0.02     0.00  -0.02   0.02    -0.01   0.01  -0.02
  19   1     0.06   0.11  -0.05     0.01  -0.01  -0.00    -0.04  -0.03   0.03
  20   1     0.00   0.05  -0.11    -0.01  -0.00   0.01     0.03  -0.02   0.03
  21   1     0.10   0.02  -0.02    -0.02  -0.02   0.02    -0.01   0.00  -0.00
  22   6    -0.01  -0.01  -0.01    -0.02   0.01   0.00    -0.00  -0.01  -0.01
  23   8    -0.01  -0.01  -0.02    -0.02   0.01   0.05    -0.00  -0.01  -0.01
  24   7    -0.02  -0.01   0.00     0.03   0.04  -0.04    -0.01   0.00   0.00
  25   1    -0.00  -0.00  -0.00     0.02   0.01  -0.00     0.00  -0.00  -0.00
  26   1    -0.00  -0.01  -0.01     0.01   0.02  -0.02     0.00  -0.01  -0.01
  27   7    -0.02  -0.00   0.00    -0.04   0.01  -0.01    -0.00   0.00   0.00
  28   1    -0.00   0.00   0.00    -0.01  -0.01  -0.02    -0.00   0.00   0.00
  29   1    -0.00  -0.00  -0.00    -0.01  -0.00  -0.01     0.00   0.00  -0.00
  30   6     0.01  -0.00   0.00     0.03   0.01   0.04     0.00  -0.00  -0.00
  31   8     0.01   0.00  -0.00     0.03  -0.00   0.03     0.00  -0.00  -0.00
  32   7    -0.00  -0.03  -0.02    -0.01  -0.25  -0.21    -0.00  -0.00  -0.00
  33   1    -0.00   0.02   0.03     0.03   0.19   0.22     0.00   0.00   0.00
  34   1     0.00   0.07   0.06     0.03   0.65   0.49     0.00   0.01   0.01
  35   7    -0.00   0.01   0.01    -0.03   0.04   0.04    -0.00   0.00   0.00
  36   1     0.01  -0.03  -0.03     0.09  -0.23  -0.20     0.01  -0.01  -0.01
  37   1     0.00  -0.01  -0.01     0.01  -0.05  -0.04     0.00  -0.00  -0.00
  38   6     0.01   0.00  -0.00     0.00  -0.01  -0.00     0.00   0.00   0.00
  39   8     0.01   0.01   0.00    -0.00  -0.02  -0.00     0.01   0.00   0.01
  40   7     0.01   0.00  -0.00     0.01  -0.00  -0.00    -0.03  -0.01  -0.00
  41   1    -0.00   0.00  -0.00    -0.00   0.00  -0.00     0.02   0.02   0.01
  42   1    -0.01  -0.01  -0.01    -0.01  -0.01  -0.00     0.07   0.07   0.03
  43   7    -0.01  -0.02  -0.01    -0.02   0.01  -0.00     0.05   0.04   0.00
  44   1     0.02   0.02   0.01     0.01   0.02  -0.00    -0.12  -0.12  -0.04
  45   1     0.01   0.02   0.00    -0.00   0.01   0.01    -0.05  -0.07  -0.02
  46   6    -0.01   0.00   0.01     0.00  -0.00  -0.00    -0.06   0.06   0.08
  47   8    -0.01   0.01   0.01     0.00  -0.00  -0.00     0.01  -0.01   0.01
  48   7     0.01  -0.02  -0.01    -0.00   0.00   0.00     0.12  -0.18  -0.19
  49   1    -0.01   0.01   0.02     0.00  -0.00  -0.00    -0.13   0.15   0.20
  50   1    -0.01   0.01   0.02     0.00  -0.01  -0.01    -0.27   0.31   0.35
  51   7     0.01  -0.02  -0.01    -0.00   0.00   0.01     0.16  -0.11  -0.21
  52   1    -0.02   0.01   0.02     0.01  -0.00  -0.01    -0.31   0.25   0.37
  53   1    -0.01   0.01   0.02     0.00  -0.00  -0.00    -0.14   0.13   0.20
                     34                     35                     36
                        a                      a                      a 
 Frequencies --   340.7481               364.2702               372.9780
 Red. masses --     4.1332                 4.8833                 4.9645
 Frc consts  --     0.0000                 0.0000                 0.0000
 IR Inten    --     3.5476                 1.7110                 2.8834
 Raman Activ --     0.0000                 0.0000                 0.0000
 Depolar     --     0.0000                 0.0000                 0.0000
 Atom AN      X      Y      Z        X      Y      Z        X      Y      Z
   1   8    -0.13   0.13  -0.15     0.12  -0.11   0.19    -0.03  -0.06   0.04
   2   6    -0.02   0.14   0.15     0.03  -0.17   0.02    -0.01  -0.09   0.13
   3   1     0.05   0.04   0.03    -0.04  -0.11   0.07    -0.01  -0.07   0.08
   4   1     0.00   0.06   0.09    -0.01  -0.09  -0.09    -0.02  -0.04  -0.01
   5   6    -0.02   0.02   0.11    -0.07   0.18   0.19    -0.02   0.09   0.19
   6   1    -0.02  -0.03   0.06    -0.18   0.08   0.04    -0.10   0.01   0.08
   7   1     0.00   0.04   0.01     0.04   0.13   0.19     0.03   0.10   0.10
   8   7     0.07  -0.09  -0.00    -0.04   0.09  -0.05     0.05  -0.01  -0.03
   9   6     0.09   0.15  -0.16    -0.10   0.03  -0.18     0.00   0.19  -0.32
  10   1     0.03   0.28  -0.27    -0.07   0.06  -0.10    -0.02  -0.04   0.00
  11   1     0.07   0.13   0.22    -0.01   0.02  -0.01    -0.12   0.06  -0.24
  12   1    -0.02  -0.22  -0.15    -0.02  -0.06  -0.09     0.13   0.20  -0.10
  13   6     0.05  -0.14  -0.01     0.19   0.06  -0.22     0.20   0.01  -0.13
  14   1     0.14  -0.01  -0.05     0.37   0.09  -0.19    -0.21  -0.10   0.10
  15   1    -0.04  -0.18  -0.04    -0.08  -0.27  -0.20     0.18   0.35  -0.02
  16   1    -0.06   0.05   0.08    -0.06   0.20   0.15     0.26  -0.21  -0.22
  17   6    -0.02  -0.20   0.11    -0.08  -0.01   0.06    -0.18  -0.16   0.13
  18   1    -0.05   0.13  -0.21    -0.01  -0.17   0.17    -0.08  -0.07  -0.02
  19   1    -0.27  -0.20   0.18     0.14   0.03  -0.09    -0.12  -0.09   0.07
  20   1     0.27  -0.13   0.15    -0.21   0.09   0.02    -0.03  -0.02   0.12
  21   1    -0.07   0.04  -0.03     0.06  -0.01   0.01    -0.01   0.00  -0.02
  22   6    -0.00  -0.01  -0.01    -0.00  -0.00  -0.00     0.00  -0.01   0.00
  23   8     0.00  -0.01  -0.02    -0.01  -0.00  -0.01    -0.00   0.00   0.00
  24   7     0.00  -0.00  -0.00    -0.01  -0.01   0.00    -0.00   0.01   0.01
  25   1     0.00   0.00   0.00    -0.00   0.00   0.00     0.01  -0.01  -0.00
  26   1    -0.00   0.01   0.00     0.00  -0.01  -0.01     0.01  -0.02  -0.03
  27   7     0.01   0.00   0.01    -0.00  -0.00   0.00     0.00   0.00   0.01
  28   1     0.00  -0.00   0.00    -0.00   0.00   0.00     0.00   0.00   0.00
  29   1     0.01   0.00   0.00    -0.00  -0.00   0.00     0.00   0.00   0.00
  30   6     0.00  -0.00  -0.00     0.00   0.00   0.00    -0.00   0.01   0.00
  31   8     0.00  -0.00   0.00     0.00   0.00  -0.00    -0.00   0.00   0.01
  32   7    -0.00   0.00   0.00    -0.00  -0.00   0.00    -0.00  -0.01  -0.01
  33   1    -0.00   0.00   0.00    -0.00  -0.00  -0.00     0.00   0.00   0.00
  34   1    -0.00   0.01   0.01    -0.00  -0.00  -0.00     0.00   0.02   0.01
  35   7    -0.00   0.00   0.00     0.00   0.00  -0.00     0.01  -0.02  -0.01
  36   1     0.01  -0.02  -0.01    -0.00   0.01   0.00    -0.01   0.04   0.03
  37   1     0.00   0.00   0.00    -0.00  -0.00  -0.00    -0.00   0.01   0.01
  38   6    -0.00   0.00   0.01    -0.00  -0.01   0.00     0.00   0.01  -0.00
  39   8    -0.00   0.01  -0.00    -0.00  -0.01  -0.00     0.01   0.01   0.00
  40   7     0.01   0.00   0.00     0.01   0.00   0.01     0.00   0.00  -0.00
  41   1    -0.00   0.00  -0.00    -0.01   0.00  -0.00     0.00   0.00  -0.00
  42   1    -0.03  -0.03  -0.01    -0.02  -0.02  -0.01    -0.00  -0.00  -0.00
  43   7    -0.03  -0.03   0.00    -0.02   0.01   0.00     0.01  -0.01  -0.00
  44   1     0.07   0.07   0.03     0.02   0.03   0.01    -0.00  -0.01   0.00
  45   1     0.03   0.03   0.01    -0.00   0.00   0.00     0.01   0.00  -0.00
  46   6    -0.00  -0.01  -0.02     0.01  -0.00  -0.00    -0.00   0.00  -0.00
  47   8    -0.00  -0.01  -0.02     0.02  -0.01  -0.01    -0.01   0.01   0.00
  48   7    -0.02   0.00   0.01     0.00  -0.01  -0.00    -0.01   0.01   0.01
  49   1     0.01  -0.01  -0.02    -0.01   0.00   0.01     0.01  -0.01  -0.01
  50   1     0.01  -0.02  -0.02    -0.01   0.01   0.02     0.02  -0.03  -0.03
  51   7    -0.00   0.03   0.01     0.00  -0.01  -0.01    -0.01   0.01   0.01
  52   1     0.03  -0.01  -0.02    -0.03   0.02   0.03     0.04  -0.03  -0.05
  53   1     0.01  -0.00  -0.02    -0.00  -0.00   0.01     0.00  -0.00  -0.01
                     37                     38                     39
                        a                      a                      a 
 Frequencies --   394.6290               399.7734               429.7082
 Red. masses --     3.6818                 2.1880                 8.5153
 Frc consts  --     0.0000                 0.0000                 0.0000
 IR Inten    --   201.2805                92.2887                 1.3126
 Raman Activ --     0.0000                 0.0000                 0.0000
 Depolar     --     0.0000                 0.0000                 0.0000
 Atom AN      X      Y      Z        X      Y      Z        X      Y      Z
   1   8     0.02   0.03   0.01     0.02  -0.01   0.02    -0.12   0.12  -0.15
   2   6    -0.00   0.02  -0.01     0.01   0.02  -0.02    -0.12  -0.05   0.09
   3   1    -0.00   0.01  -0.00     0.01   0.01  -0.01    -0.04  -0.03   0.04
   4   1     0.00   0.00  -0.00     0.00   0.01  -0.00    -0.03  -0.04  -0.01
   5   6     0.00  -0.01  -0.01    -0.01   0.00  -0.02     0.15  -0.03   0.03
   6   1     0.00  -0.00  -0.00    -0.03   0.00  -0.00     0.10  -0.01   0.01
   7   1    -0.00  -0.01  -0.01     0.00   0.01   0.01     0.02  -0.01  -0.08
   8   7    -0.00  -0.00   0.00    -0.01  -0.00  -0.02     0.29  -0.06   0.14
   9   6     0.00  -0.02   0.02     0.01   0.02   0.03     0.12  -0.24  -0.27
  10   1     0.00   0.01  -0.01     0.01   0.00   0.01    -0.10  -0.06  -0.08
  11   1     0.01  -0.00   0.03     0.00   0.01   0.01     0.04  -0.09  -0.12
  12   1    -0.01  -0.02   0.01    -0.00   0.01   0.02     0.09  -0.11  -0.14
  13   6    -0.01   0.00   0.01    -0.01   0.01  -0.01     0.11   0.03   0.32
  14   1     0.01   0.01  -0.00    -0.00   0.00  -0.00     0.04   0.06   0.04
  15   1    -0.01  -0.02   0.00    -0.01  -0.01   0.00     0.02  -0.06   0.14
  16   1    -0.01   0.01   0.01    -0.01   0.01   0.00    -0.03   0.06   0.13
  17   6     0.01   0.01  -0.01     0.03  -0.02  -0.00    -0.33   0.23  -0.09
  18   1     0.00   0.01  -0.00     0.01   0.00   0.00    -0.16  -0.08  -0.10
  19   1     0.00   0.00  -0.00     0.00  -0.01  -0.00    -0.09   0.24   0.04
  20   1     0.01  -0.00  -0.01     0.02  -0.01   0.00    -0.22   0.10  -0.07
  21   1     0.01   0.04  -0.05     0.00  -0.01   0.02    -0.03   0.04  -0.05
  22   6     0.03  -0.04  -0.04     0.03  -0.03  -0.04     0.00  -0.00   0.00
  23   8     0.03  -0.05  -0.05     0.03  -0.06   0.00     0.00  -0.00   0.00
  24   7    -0.02   0.02   0.05    -0.11   0.16   0.13     0.00   0.01   0.01
  25   1     0.00  -0.02  -0.01     0.06  -0.10  -0.06     0.01   0.00   0.01
  26   1     0.03  -0.07  -0.06     0.25  -0.56  -0.58     0.02  -0.04  -0.05
  27   7    -0.01   0.03   0.02    -0.00   0.02  -0.02    -0.00  -0.00  -0.00
  28   1     0.00  -0.01  -0.02    -0.06   0.24   0.20    -0.01   0.03   0.02
  29   1    -0.01  -0.01  -0.01    -0.01   0.03   0.03    -0.00   0.00   0.00
  30   6    -0.06   0.08   0.06    -0.00  -0.02  -0.01    -0.00  -0.00  -0.00
  31   8    -0.06   0.06   0.10    -0.00  -0.02  -0.02    -0.00  -0.00  -0.00
  32   7    -0.01  -0.14  -0.17     0.02   0.03   0.01     0.00   0.01   0.00
  33   1     0.04   0.02   0.04     0.01  -0.00  -0.00     0.00  -0.00  -0.00
  34   1     0.01   0.24   0.10     0.00  -0.01  -0.02     0.00   0.00  -0.00
  35   7     0.15  -0.23  -0.17    -0.02   0.02   0.03    -0.00  -0.00   0.00
  36   1    -0.23   0.64   0.49     0.02  -0.07  -0.04     0.00  -0.01  -0.00
  37   1    -0.03   0.01   0.06     0.00  -0.00  -0.01     0.00   0.01   0.01
  38   6    -0.01   0.00   0.01     0.02   0.04   0.03    -0.01  -0.01  -0.00
  39   8    -0.01   0.01   0.00     0.00   0.02   0.02    -0.01  -0.00  -0.00
  40   7    -0.00   0.01  -0.00    -0.08  -0.06  -0.01     0.01   0.01   0.01
  41   1     0.00  -0.01  -0.01     0.03   0.02   0.02    -0.00  -0.00  -0.00
  42   1    -0.00   0.00  -0.01     0.15   0.15   0.07    -0.02  -0.02  -0.01
  43   7     0.01  -0.01   0.01    -0.06  -0.05  -0.01     0.01   0.01   0.01
  44   1     0.00  -0.01   0.01     0.04   0.04   0.01    -0.01  -0.00  -0.00
  45   1     0.01  -0.00  -0.00     0.01   0.03   0.01    -0.00  -0.00   0.00
  46   6    -0.00   0.00  -0.00    -0.00  -0.00  -0.00     0.01   0.00   0.00
  47   8    -0.00  -0.00   0.00    -0.00   0.00  -0.00     0.00   0.00  -0.00
  48   7     0.00  -0.00  -0.00    -0.00   0.00   0.01     0.01  -0.00   0.00
  49   1    -0.00   0.00   0.00     0.00  -0.00  -0.00    -0.02   0.01   0.02
  50   1    -0.01   0.01   0.01     0.01  -0.01  -0.01     0.01  -0.01  -0.01
  51   7     0.00   0.00  -0.00    -0.01   0.00   0.00    -0.01  -0.00   0.00
  52   1    -0.00   0.00   0.01     0.01  -0.01  -0.01    -0.03   0.02   0.02
  53   1    -0.00   0.00   0.00     0.00  -0.00  -0.00     0.01  -0.02  -0.01
                     40                     41                     42
                        a                      a                      a 
 Frequencies --   436.4946               444.2893               455.9888
 Red. masses --     3.1358                 1.4994                 8.4543
 Frc consts  --     0.0000                 0.0000                 0.0000
 IR Inten    --   205.2476                 3.3486                 4.6290
 Raman Activ --     0.0000                 0.0000                 0.0000
 Depolar     --     0.0000                 0.0000                 0.0000
 Atom AN      X      Y      Z        X      Y      Z        X      Y      Z
   1   8    -0.01  -0.02   0.00    -0.00   0.00  -0.01     0.01  -0.01   0.03
   2   6     0.01   0.01  -0.01    -0.01   0.00  -0.01     0.02   0.04  -0.08
   3   1     0.01   0.00  -0.01    -0.00  -0.00   0.00    -0.01  -0.00  -0.00
   4   1    -0.00   0.01   0.01    -0.00   0.00  -0.01    -0.01   0.01  -0.05
   5   6    -0.02   0.01   0.00     0.02   0.01  -0.01     0.05   0.12  -0.04
   6   1    -0.02   0.00   0.00     0.01   0.00  -0.00    -0.02   0.04  -0.01
   7   1     0.00   0.01   0.02     0.00  -0.00  -0.01     0.02   0.05   0.01
   8   7    -0.01  -0.01  -0.03     0.02   0.02   0.02     0.06   0.09  -0.03
   9   6     0.02   0.01   0.03    -0.01  -0.03  -0.02     0.03  -0.08  -0.00
  10   1     0.03   0.01   0.00    -0.02  -0.01  -0.01    -0.02  -0.03   0.01
  11   1     0.01   0.01   0.02     0.00  -0.01  -0.01     0.04  -0.05  -0.01
  12   1    -0.01   0.01   0.02     0.00  -0.02  -0.01    -0.01  -0.03   0.01
  13   6    -0.03   0.01  -0.00     0.00  -0.02   0.01    -0.07  -0.07  -0.01
  14   1    -0.02   0.01  -0.00     0.01  -0.01   0.00    -0.03  -0.05   0.03
  15   1    -0.00   0.01   0.01    -0.00  -0.02   0.00    -0.02  -0.03   0.02
  16   1    -0.01  -0.00  -0.00    -0.01   0.00   0.00    -0.05  -0.02  -0.05
  17   6     0.01  -0.03  -0.01    -0.02   0.02   0.02    -0.04  -0.02   0.09
  18   1     0.00  -0.00  -0.00    -0.01  -0.01   0.00    -0.02  -0.03   0.01
  19   1    -0.00  -0.02  -0.01    -0.00   0.01   0.01    -0.03  -0.03   0.03
  20   1     0.01  -0.01   0.00    -0.01   0.01   0.01    -0.01   0.02   0.07
  21   1     0.01   0.01  -0.02    -0.00   0.00  -0.00     0.01  -0.00   0.01
  22   6     0.01   0.03   0.04    -0.00   0.00   0.00    -0.00   0.00   0.00
  23   8     0.01   0.01   0.02    -0.00  -0.00   0.00    -0.00   0.00  -0.00
  24   7     0.01   0.01  -0.01     0.00   0.00  -0.00     0.00  -0.00  -0.01
  25   1     0.02   0.02   0.01     0.00   0.00   0.00     0.00   0.00   0.00
  26   1     0.06  -0.12  -0.14     0.00  -0.00  -0.00    -0.00   0.01   0.00
  27   7     0.02  -0.04  -0.05     0.00  -0.00  -0.00     0.00  -0.01  -0.00
  28   1    -0.04   0.18   0.16    -0.00   0.01   0.01    -0.00   0.01   0.01
  29   1    -0.00   0.01   0.01     0.00   0.00   0.00     0.00   0.00   0.00
  30   6    -0.02  -0.01  -0.00     0.00  -0.00  -0.00     0.00   0.00  -0.00
  31   8    -0.02  -0.01  -0.01     0.00  -0.00  -0.00     0.00  -0.00   0.00
  32   7     0.02   0.02  -0.01    -0.00   0.00   0.00    -0.00  -0.00   0.00
  33   1     0.02  -0.01  -0.01    -0.00   0.00  -0.00    -0.01   0.00   0.00
  34   1     0.00   0.02  -0.02    -0.00  -0.00   0.00    -0.00  -0.01   0.00
  35   7     0.01  -0.01   0.02    -0.00   0.00  -0.00    -0.00   0.00  -0.00
  36   1     0.01  -0.02   0.00     0.00  -0.00  -0.00    -0.00   0.00  -0.00
  37   1     0.02   0.01   0.01    -0.00   0.00   0.00    -0.00  -0.00  -0.00
  38   6    -0.09  -0.10  -0.04     0.00  -0.00  -0.00     0.01  -0.01  -0.01
  39   8    -0.04  -0.04  -0.05     0.00  -0.00  -0.01     0.01  -0.00  -0.01
  40   7     0.20   0.16   0.11     0.00   0.00   0.01    -0.00  -0.00   0.02
  41   1    -0.05   0.01  -0.01    -0.00  -0.00   0.00    -0.01   0.00   0.00
  42   1    -0.54  -0.55  -0.22    -0.00  -0.00   0.00     0.01   0.00   0.01
  43   7     0.13   0.17   0.07    -0.00   0.00  -0.00    -0.01   0.01  -0.01
  44   1    -0.18  -0.16  -0.07    -0.01  -0.01  -0.01    -0.01   0.00  -0.02
  45   1    -0.08  -0.07   0.00     0.00   0.01   0.01     0.00   0.02   0.02
  46   6     0.00  -0.00   0.00    -0.02  -0.05   0.02    -0.13  -0.25   0.09
  47   8    -0.00  -0.00  -0.00    -0.02  -0.05   0.02    -0.15  -0.28   0.10
  48   7     0.00  -0.00  -0.01    -0.08   0.08   0.03    -0.12   0.21  -0.31
  49   1     0.00   0.00   0.00     0.31  -0.18  -0.35     0.08   0.28   0.01
  50   1    -0.01   0.01   0.01    -0.30   0.29   0.23    -0.14   0.03  -0.29
  51   7     0.01  -0.00  -0.00     0.10  -0.05  -0.05     0.31   0.16   0.19
  52   1    -0.02   0.01   0.02     0.34  -0.22  -0.25     0.20   0.05   0.26
  53   1     0.00  -0.00  -0.00    -0.23   0.34   0.30     0.15   0.18  -0.17
                     43                     44                     45
                        a                      a                      a 
 Frequencies --   462.0182               465.7630               469.3211
 Red. masses --     7.7495                 7.4373                 5.7911
 Frc consts  --     0.0000                 0.0000                 0.0000
 IR Inten    --     6.7190                11.2071                 8.2877
 Raman Activ --     0.0000                 0.0000                 0.0000
 Depolar     --     0.0000                 0.0000                 0.0000
 Atom AN      X      Y      Z        X      Y      Z        X      Y      Z
   1   8     0.02  -0.00   0.05     0.01   0.00   0.03     0.02  -0.01   0.04
   2   6     0.01  -0.02   0.03     0.01   0.01  -0.01     0.02   0.02  -0.03
   3   1    -0.00  -0.02   0.02    -0.00  -0.00   0.00     0.00  -0.01   0.00
   4   1     0.00  -0.01  -0.01    -0.00   0.00  -0.01    -0.00   0.01  -0.02
   5   6    -0.11   0.08   0.11    -0.02   0.05   0.01    -0.02   0.09   0.02
   6   1    -0.22   0.01   0.06    -0.06   0.01   0.01    -0.10   0.03   0.01
   7   1     0.04   0.16   0.16     0.02   0.05   0.04     0.03   0.09   0.07
   8   7     0.10  -0.19  -0.25     0.04  -0.03  -0.07     0.06  -0.03  -0.10
   9   6     0.30   0.04   0.11     0.08  -0.01   0.03     0.12  -0.02   0.04
  10   1     0.21   0.01   0.02     0.05  -0.01   0.01     0.07  -0.01   0.01
  11   1     0.07   0.05   0.09     0.03   0.00   0.02     0.05  -0.00   0.03
  12   1     0.03   0.05   0.09     0.00   0.00   0.03     0.00  -0.00   0.04
  13   6    -0.18   0.24   0.11    -0.06   0.04   0.03    -0.10   0.05   0.04
  14   1    -0.14   0.16  -0.05    -0.04   0.03  -0.00    -0.06   0.03  -0.00
  15   1    -0.01   0.05   0.17    -0.01   0.01   0.05    -0.01   0.00   0.07
  16   1    -0.07   0.11   0.08    -0.03   0.02   0.01    -0.05   0.03   0.01
  17   6    -0.10  -0.20  -0.27    -0.04  -0.06  -0.04    -0.06  -0.09  -0.04
  18   1    -0.05  -0.11  -0.08    -0.02  -0.04  -0.02    -0.03  -0.06  -0.02
  19   1    -0.02  -0.02  -0.06    -0.02  -0.01  -0.01    -0.03  -0.03  -0.01
  20   1    -0.07  -0.03  -0.06    -0.02  -0.01   0.00    -0.03  -0.00   0.02
  21   1     0.01   0.01  -0.01     0.01   0.00   0.00     0.01   0.00  -0.00
  22   6     0.02  -0.01  -0.01    -0.09  -0.05  -0.03     0.02  -0.01  -0.02
  23   8     0.01   0.00  -0.00    -0.10  -0.02  -0.04     0.03  -0.01  -0.00
  24   7    -0.01  -0.00   0.02     0.07   0.13  -0.06    -0.05  -0.02   0.04
  25   1    -0.01  -0.01   0.00     0.10   0.02   0.00    -0.04  -0.02  -0.02
  26   1    -0.00  -0.01   0.01     0.03   0.06  -0.12    -0.01  -0.02   0.04
  27   7    -0.04   0.03   0.01     0.09  -0.03   0.10     0.01   0.05   0.02
  28   1     0.01  -0.07  -0.10     0.05  -0.13   0.01     0.03  -0.09  -0.10
  29   1    -0.02  -0.01  -0.00     0.07   0.01   0.01     0.00   0.00  -0.00
  30   6     0.01   0.00   0.00     0.22   0.04  -0.02    -0.16  -0.02   0.01
  31   8     0.01   0.00   0.00     0.24  -0.05   0.11    -0.18   0.04  -0.07
  32   7    -0.00  -0.01   0.01    -0.15  -0.17   0.13     0.10   0.13  -0.10
  33   1    -0.01   0.00   0.00    -0.27   0.17   0.09     0.19  -0.11  -0.07
  34   1    -0.00  -0.01   0.01    -0.04  -0.24   0.18     0.02   0.16  -0.14
  35   7    -0.01   0.01  -0.01    -0.18   0.14  -0.23     0.13  -0.10   0.16
  36   1     0.00  -0.01  -0.02    -0.08   0.19  -0.12     0.06  -0.14   0.09
  37   1    -0.01   0.01   0.01    -0.17  -0.03  -0.02     0.13   0.03   0.01
  38   6    -0.09   0.08   0.05     0.09  -0.08  -0.03     0.10  -0.10  -0.03
  39   8    -0.08   0.02   0.13     0.06  -0.03  -0.15     0.07  -0.04  -0.19
  40   7     0.03   0.02  -0.19    -0.01  -0.03   0.18     0.00  -0.03   0.21
  41   1     0.08  -0.02  -0.04    -0.07   0.01   0.04    -0.09  -0.01   0.04
  42   1    -0.00   0.05  -0.11     0.00  -0.05   0.10     0.06   0.00   0.13
  43   7     0.10  -0.10   0.04    -0.11   0.08  -0.03    -0.14   0.05  -0.04
  44   1     0.11  -0.05   0.14    -0.15   0.02  -0.16    -0.25  -0.03  -0.24
  45   1     0.03  -0.15  -0.13     0.01   0.21   0.16     0.12   0.41   0.27
  46   6    -0.01  -0.02   0.00     0.01   0.02  -0.01     0.01   0.02  -0.01
  47   8    -0.01  -0.02   0.01     0.01   0.02  -0.01     0.01   0.02  -0.01
  48   7    -0.01   0.01  -0.01     0.01  -0.01   0.02     0.01  -0.01   0.03
  49   1     0.02   0.00  -0.02    -0.01  -0.02   0.00    -0.01  -0.02   0.01
  50   1    -0.02   0.02  -0.00     0.01  -0.00   0.02     0.02  -0.01   0.02
  51   7     0.02   0.00   0.01    -0.02  -0.01  -0.01    -0.03  -0.01  -0.01
  52   1     0.02  -0.01   0.01    -0.01  -0.00  -0.02    -0.02  -0.00  -0.02
  53   1    -0.00   0.02   0.01    -0.01  -0.01   0.01    -0.01  -0.02   0.01
                     46                     47                     48
                        a                      a                      a 
 Frequencies --   474.5330               475.5761               479.7925
 Red. masses --     4.2425                 7.4708                 5.4465
 Frc consts  --     0.0000                 0.0000                 0.0000
 IR Inten    --   226.0446                87.2831                25.5210
 Raman Activ --     0.0000                 0.0000                 0.0000
 Depolar     --     0.0000                 0.0000                 0.0000
 Atom AN      X      Y      Z        X      Y      Z        X      Y      Z
   1   8    -0.01   0.02  -0.05     0.03  -0.03   0.08     0.01   0.01   0.01
   2   6    -0.02  -0.04   0.09     0.04   0.13  -0.22    -0.00  -0.01   0.01
   3   1     0.00   0.00   0.01    -0.01   0.00  -0.02     0.00   0.00  -0.00
   4   1     0.01  -0.02   0.05    -0.03   0.05  -0.12     0.00  -0.00   0.01
   5   6    -0.02  -0.14   0.02     0.12   0.30  -0.11    -0.04  -0.01   0.02
   6   1     0.06  -0.05   0.01    -0.04   0.10  -0.04    -0.05  -0.00   0.01
   7   1    -0.03  -0.08  -0.05     0.06   0.11   0.02     0.00   0.02   0.03
   8   7    -0.08  -0.05   0.06     0.14   0.21  -0.05     0.01  -0.06  -0.03
   9   6    -0.07   0.08  -0.02     0.04  -0.22   0.01     0.05   0.02   0.02
  10   1    -0.01   0.03  -0.01    -0.06  -0.08   0.03     0.04   0.00   0.01
  11   1    -0.05   0.04  -0.01     0.10  -0.12  -0.02     0.00   0.02   0.01
  12   1     0.01   0.04  -0.02    -0.04  -0.10   0.02     0.01   0.02   0.02
  13   6     0.11   0.05  -0.01    -0.19  -0.23  -0.02    -0.02   0.06   0.04
  14   1     0.05   0.03  -0.02    -0.08  -0.14   0.08    -0.03   0.04  -0.01
  15   1     0.02   0.03  -0.05    -0.05  -0.09   0.04     0.01   0.03   0.04
  16   1     0.07   0.01   0.04    -0.13  -0.08  -0.13     0.00   0.02   0.02
  17   6     0.06   0.07  -0.07    -0.10  -0.06   0.27    -0.01  -0.03  -0.07
  18   1     0.04   0.05  -0.00    -0.06  -0.08   0.04    -0.00  -0.01  -0.02
  19   1     0.04   0.04  -0.03    -0.08  -0.09   0.09    -0.00   0.01  -0.02
  20   1     0.02  -0.01  -0.07    -0.02   0.04   0.19    -0.01  -0.01  -0.03
  21   1    -0.01  -0.00   0.00     0.01  -0.02   0.03     0.00  -0.00   0.01
  22   6     0.03  -0.12  -0.13     0.02  -0.04  -0.05    -0.04  -0.01  -0.00
  23   8     0.02  -0.07  -0.03     0.01  -0.02  -0.02    -0.04  -0.01  -0.02
  24   7    -0.07   0.15   0.13    -0.03   0.04   0.05     0.01   0.01  -0.04
  25   1     0.01   0.01   0.02     0.00   0.00   0.01     0.02  -0.01  -0.01
  26   1     0.08  -0.16  -0.19     0.03  -0.06  -0.06    -0.02   0.06   0.02
  27   7    -0.02   0.20   0.18    -0.03   0.08   0.06     0.07  -0.05   0.02
  28   1     0.14  -0.52  -0.50     0.05  -0.19  -0.20     0.00   0.04   0.11
  29   1     0.01   0.00  -0.00    -0.01  -0.00  -0.00     0.04   0.01   0.00
  30   6    -0.03   0.01   0.01    -0.01   0.00   0.00    -0.04  -0.01   0.00
  31   8    -0.03   0.00  -0.01    -0.01  -0.00  -0.00    -0.05   0.01  -0.01
  32   7     0.03   0.02  -0.03     0.01   0.00  -0.01     0.02   0.03  -0.03
  33   1     0.01   0.06   0.05    -0.01   0.05   0.04     0.05  -0.04  -0.02
  34   1     0.00  -0.04  -0.05     0.00  -0.03  -0.02     0.00   0.05  -0.03
  35   7     0.01   0.00   0.04     0.00   0.01   0.02     0.04  -0.03   0.04
  36   1     0.03  -0.08  -0.02     0.01  -0.02  -0.01     0.01  -0.01   0.04
[...]
  44   1    -0.00  -0.00  -0.00    -0.00   0.00   0.00    -0.00   0.00   0.00
  45   1    -0.00   0.00  -0.00     0.01  -0.01   0.01     0.00  -0.00   0.00
  46   6     0.00   0.00  -0.00     0.00   0.00   0.00    -0.00   0.00  -0.00
  47   8    -0.00  -0.00   0.00    -0.00  -0.00  -0.00     0.00  -0.00  -0.00
  48   7    -0.00  -0.00  -0.00    -0.00  -0.00  -0.00     0.00   0.00  -0.00
  49   1     0.00   0.00  -0.00    -0.00   0.00  -0.00     0.00  -0.00   0.00
  50   1    -0.00  -0.00   0.00    -0.00  -0.00   0.00    -0.00   0.00   0.00
  51   7    -0.00  -0.00   0.00     0.00  -0.00  -0.00     0.00  -0.00  -0.00
  52   1    -0.00  -0.00   0.00    -0.00  -0.00   0.00    -0.00  -0.00   0.00
  53   1     0.00   0.00   0.00    -0.00   0.00  -0.00     0.00   0.00   0.00
                    142                    143                    144
                        a                      a                      a 
 Frequencies --  3492.7126              3496.5120              3500.8900
 Red. masses --     1.4486                 1.4516                 1.4389
 Frc consts  --     0.0000                 0.0000                 0.0000
 IR Inten    --    16.9774                18.6432                40.2295
 Raman Activ --     0.0000                 0.0000                 0.0000
 Depolar     --     0.0000                 0.0000                 0.0000
 Atom AN      X      Y      Z        X      Y      Z        X      Y      Z
   1   8    -0.00   0.00   0.00    -0.00   0.00   0.00    -0.00  -0.00  -0.00
   2   6     0.00  -0.00   0.00     0.00   0.00  -0.00     0.00   0.00   0.00
   3   1     0.00  -0.00   0.00     0.00   0.00   0.00     0.00  -0.00  -0.00
   4   1     0.00  -0.00   0.00    -0.00  -0.00   0.00    -0.00  -0.00   0.00
   5   6     0.00  -0.00  -0.00     0.00   0.00   0.00     0.00  -0.00  -0.00
   6   1     0.00   0.00   0.00     0.00  -0.00  -0.00     0.00  -0.00  -0.00
   7   1    -0.00   0.00  -0.00    -0.00   0.00   0.00    -0.00   0.00   0.00
   8   7    -0.00  -0.00  -0.00    -0.00   0.00  -0.00    -0.00   0.00  -0.00
   9   6    -0.00   0.00  -0.00     0.00   0.00   0.00     0.00   0.00  -0.00
  10   1    -0.00  -0.00  -0.00    -0.00  -0.00  -0.00    -0.00  -0.00  -0.00
  11   1    -0.00  -0.00  -0.00    -0.00  -0.00   0.00    -0.00  -0.00   0.00
  12   1     0.00  -0.00   0.00     0.00   0.00   0.00    -0.00   0.00  -0.00
  13   6     0.00   0.00  -0.00     0.00   0.00   0.00     0.00  -0.00   0.00
  14   1     0.00   0.00   0.00     0.00  -0.00  -0.00    -0.00  -0.00  -0.00
  15   1    -0.00   0.00   0.00    -0.00   0.00   0.00    -0.00   0.00   0.00
  16   1    -0.00  -0.00   0.00     0.00  -0.00   0.00     0.00   0.00   0.00
  17   6     0.00   0.00  -0.00     0.00   0.00  -0.00     0.00   0.00  -0.00
  18   1     0.00  -0.00  -0.00    -0.00   0.00   0.00    -0.00   0.00   0.00
  19   1     0.00  -0.00   0.00    -0.00   0.00  -0.00    -0.00   0.00  -0.00
  20   1    -0.00  -0.00   0.00    -0.00  -0.00   0.00    -0.00  -0.00   0.00
  21   1     0.00  -0.00   0.00    -0.00  -0.00  -0.00     0.00   0.00   0.00
  22   6     0.00  -0.00   0.00     0.00   0.00  -0.00     0.00  -0.00   0.00
  23   8    -0.00   0.00  -0.00    -0.00  -0.00   0.00    -0.00  -0.00  -0.00
  24   7    -0.00   0.00  -0.00     0.00  -0.00   0.00    -0.00   0.00  -0.00
  25   1    -0.00  -0.00   0.00     0.00   0.01  -0.01    -0.00  -0.00   0.00
  26   1     0.00   0.00   0.00    -0.01  -0.00  -0.00     0.00   0.00   0.00
  27   7     0.00   0.00  -0.00    -0.00  -0.00   0.00     0.00   0.00  -0.00
  28   1    -0.00  -0.00  -0.00     0.00   0.00   0.00    -0.00  -0.00   0.00
  29   1     0.00  -0.00   0.00    -0.00   0.00  -0.00     0.00  -0.00   0.00
  30   6     0.00  -0.00   0.00     0.00   0.00  -0.00     0.00   0.00   0.00
  31   8    -0.00  -0.00   0.00     0.00  -0.00   0.00    -0.00  -0.00  -0.00
  32   7     0.10  -0.11   0.10    -0.00   0.00  -0.00     0.00   0.00  -0.00
  33   1     0.32   0.44  -0.43    -0.00  -0.00   0.00    -0.00  -0.00   0.00
  34   1    -0.70  -0.01   0.05     0.00   0.00  -0.00    -0.00   0.00   0.00
  35   7    -0.01   0.00  -0.01     0.00  -0.00   0.00     0.00   0.00  -0.00
  36   1     0.02   0.01   0.00     0.00   0.00   0.00    -0.00  -0.00  -0.00
  37   1     0.01  -0.01   0.01    -0.00   0.00  -0.00     0.00  -0.00   0.00
  38   6     0.00  -0.00   0.00     0.00  -0.00  -0.00     0.00  -0.00   0.00
  39   8    -0.00   0.00  -0.00    -0.00   0.00   0.00    -0.00   0.00  -0.00
  40   7    -0.00   0.00  -0.00    -0.01   0.00   0.01    -0.00   0.00   0.00
  41   1    -0.00  -0.00   0.00     0.00   0.00  -0.01     0.00   0.00   0.00
  42   1     0.00  -0.00  -0.00     0.03  -0.02  -0.02     0.00  -0.00  -0.00
  43   7     0.00   0.00  -0.00     0.02   0.01  -0.18     0.00   0.00  -0.00
  44   1    -0.00   0.00   0.00    -0.49   0.38   0.36    -0.01   0.00   0.00
  45   1     0.00  -0.00   0.00     0.41  -0.41   0.33     0.00  -0.00   0.00
  46   6    -0.00  -0.00   0.00     0.00  -0.00   0.00    -0.00   0.00  -0.00
  47   8     0.00   0.00  -0.00     0.00   0.00  -0.00    -0.00  -0.00  -0.00
  48   7     0.00   0.00   0.00     0.00   0.00   0.00    -0.12  -0.04  -0.04
  49   1    -0.00   0.00  -0.00    -0.00   0.00  -0.00     0.19  -0.26   0.33
  50   1    -0.00  -0.00   0.00    -0.00  -0.00   0.00     0.25   0.42  -0.19
  51   7    -0.00   0.00  -0.00     0.00  -0.00   0.00    -0.05   0.09  -0.08
  52   1    -0.00  -0.00   0.00     0.00   0.01  -0.00    -0.22  -0.46   0.12
  53   1     0.00   0.00   0.00    -0.01  -0.00  -0.00     0.39   0.13   0.19
                    145                    146                    147
                        a                      a                      a 
 Frequencies --  3505.2990              3527.9900              3534.2320
 Red. masses --     1.4634                 1.8824                 1.9087
 Frc consts  --     0.0000                 0.0000                 0.0000
 IR Inten    --     8.9951                 2.7509                11.1744
 Raman Activ --     0.0000                 0.0000                 0.0000
 Depolar     --     0.0000                 0.0000                 0.0000
 Atom AN      X      Y      Z        X      Y      Z        X      Y      Z
   1   8     0.00   0.00   0.00     0.00   0.00   0.00    -0.00  -0.00  -0.00
   2   6     0.00  -0.00   0.00    -0.00  -0.00  -0.00     0.00  -0.00   0.00
   3   1     0.00  -0.00  -0.00     0.00   0.00   0.00    -0.00  -0.00  -0.00
   4   1     0.00   0.00  -0.00    -0.00  -0.00  -0.00     0.00   0.00  -0.00
   5   6    -0.00   0.00   0.00    -0.00   0.00  -0.00     0.00  -0.00  -0.00
   6   1     0.00  -0.00  -0.00    -0.00  -0.00   0.00    -0.00   0.00   0.00
   7   1     0.00   0.00  -0.00     0.00   0.00   0.00    -0.00  -0.00   0.00
   8   7     0.00  -0.00   0.00     0.00   0.00   0.00    -0.00   0.00   0.00
   9   6     0.00   0.00  -0.00    -0.00  -0.00  -0.00    -0.00   0.00  -0.00
  10   1    -0.00   0.00  -0.00     0.00   0.00   0.00     0.00   0.00  -0.00
  11   1    -0.00  -0.00   0.00     0.00   0.00  -0.00    -0.00  -0.00  -0.00
  12   1     0.00   0.00  -0.00    -0.00  -0.00   0.00     0.00  -0.00   0.00
  13   6     0.00   0.00  -0.00    -0.00  -0.00  -0.00     0.00  -0.00  -0.00
  14   1     0.00   0.00  -0.00     0.00   0.00   0.00     0.00   0.00  -0.00
  15   1     0.00  -0.00  -0.00     0.00  -0.00  -0.00    -0.00   0.00   0.00
  16   1    -0.00  -0.00   0.00     0.00   0.00  -0.00     0.00   0.00  -0.00
  17   6     0.00   0.00  -0.00     0.00   0.00  -0.00     0.00  -0.00   0.00
  18   1     0.00   0.00  -0.00     0.00  -0.00  -0.00    -0.00   0.00   0.00
  19   1     0.00   0.00  -0.00    -0.00   0.00  -0.00    -0.00   0.00  -0.00
  20   1    -0.00  -0.00   0.00     0.00   0.00   0.00     0.00   0.00  -0.00
  21   1    -0.00  -0.00  -0.00    -0.00  -0.00  -0.00    -0.00   0.00   0.00
  22   6    -0.00  -0.00   0.00    -0.00   0.00  -0.00     0.00   0.00   0.00
  23   8     0.00   0.00  -0.00     0.00  -0.00   0.00    -0.00  -0.00   0.00
  24   7     0.00   0.00  -0.00     0.11   0.04   0.00     0.05   0.02   0.00
  25   1    -0.00  -0.00   0.00    -0.01  -0.03   0.04    -0.01  -0.01   0.02
  26   1     0.00   0.00  -0.00    -0.41  -0.13  -0.05    -0.18  -0.06  -0.02
  27   7     0.00   0.00  -0.00    -0.22  -0.05  -0.01     0.03   0.01   0.00
  28   1    -0.00  -0.00  -0.00     0.84   0.20   0.02    -0.13  -0.03  -0.00
  29   1     0.00  -0.00   0.00     0.01  -0.02   0.03    -0.00   0.00  -0.00
  30   6     0.00  -0.00   0.00    -0.00  -0.00   0.00    -0.00   0.00  -0.00
  31   8    -0.00   0.00  -0.00     0.00   0.00   0.00     0.00   0.00   0.00
  32   7    -0.00  -0.00   0.00     0.00   0.00  -0.00     0.02   0.01  -0.01
  33   1     0.00   0.00  -0.00    -0.00  -0.00   0.00    -0.03  -0.04   0.04
  34   1    -0.00  -0.00   0.00    -0.01   0.00   0.00    -0.03   0.00   0.00
  35   7    -0.00   0.00  -0.00    -0.01  -0.00  -0.00    -0.16  -0.03  -0.03
  36   1    -0.00  -0.00  -0.00     0.03   0.01   0.00     0.58   0.16   0.08
  37   1     0.00  -0.00   0.00     0.00  -0.00   0.00     0.03  -0.05   0.05
  38   6     0.00  -0.00  -0.00     0.00  -0.00  -0.00     0.00  -0.00  -0.01
  39   8     0.00   0.00   0.00    -0.00   0.00   0.00    -0.00   0.00   0.00
  40   7     0.00   0.00  -0.00     0.00  -0.00  -0.00     0.13  -0.09  -0.10
  41   1    -0.00  -0.00   0.00    -0.00  -0.00   0.00    -0.01  -0.03   0.05
  42   1    -0.00   0.00   0.00    -0.01   0.01   0.01    -0.50   0.35   0.34
  43   7    -0.00  -0.00   0.00    -0.00   0.00   0.00    -0.02   0.01  -0.01
  44   1     0.00  -0.00  -0.00     0.00  -0.00  -0.00     0.02  -0.01  -0.01
  45   1    -0.00   0.00  -0.00     0.00  -0.00   0.00     0.04  -0.04   0.04
  46   6    -0.00  -0.00   0.00     0.00   0.00   0.00     0.00   0.00   0.00
  47   8     0.00   0.00  -0.00    -0.00  -0.00  -0.00    -0.00  -0.00  -0.00
  48   7    -0.12  -0.04  -0.04    -0.00  -0.00   0.00    -0.00  -0.00   0.00
  49   1     0.20  -0.26   0.34     0.00  -0.00   0.00    -0.00   0.00  -0.00
  50   1     0.24   0.41  -0.18     0.00   0.00  -0.00     0.00   0.00  -0.00
  51   7     0.05  -0.09   0.09     0.00   0.00   0.00     0.00   0.00  -0.00
  52   1     0.21   0.45  -0.12    -0.00  -0.00   0.00    -0.00  -0.00   0.00
  53   1    -0.41  -0.14  -0.20    -0.00  -0.00  -0.00    -0.00   0.00  -0.00
                    148                    149                    150
                        a                      a                      a 
 Frequencies --  3534.6560              3534.9130              3558.2199
 Red. masses --     1.9205                 1.9077                 2.1769
 Frc consts  --     0.0000                 0.0000                 0.0000
 IR Inten    --    19.7557                28.5004                13.0293
 Raman Activ --     0.0000                 0.0000                 0.0000
 Depolar     --     0.0000                 0.0000                 0.0000
 Atom AN      X      Y      Z        X      Y      Z        X      Y      Z
   1   8    -0.00  -0.00  -0.00     0.00   0.00   0.00     0.00   0.00   0.00
   2   6     0.00   0.00  -0.00     0.00   0.00   0.00     0.00  -0.00   0.00
   3   1     0.00  -0.00  -0.00     0.00  -0.00  -0.00    -0.00   0.00   0.00
   4   1    -0.00  -0.00   0.00    -0.00  -0.00   0.00    -0.00   0.00  -0.00
   5   6    -0.00   0.00  -0.00     0.00   0.00   0.00    -0.00   0.00  -0.00
   6   1     0.00   0.00  -0.00    -0.00   0.00  -0.00     0.00  -0.00  -0.00
   7   1     0.00   0.00   0.00     0.00  -0.00  -0.00    -0.00   0.00   0.00
   8   7    -0.00  -0.00  -0.00    -0.00  -0.00  -0.00     0.00  -0.00   0.00
   9   6     0.00  -0.00  -0.00     0.00   0.00   0.00     0.00  -0.00  -0.00
  10   1    -0.00  -0.00   0.00    -0.00  -0.00  -0.00     0.00   0.00   0.00
  11   1     0.00   0.00   0.00    -0.00  -0.00   0.00    -0.00   0.00  -0.00
  12   1    -0.00   0.00  -0.00     0.00   0.00   0.00    -0.00  -0.00  -0.00
  13   6    -0.00  -0.00  -0.00     0.00   0.00   0.00     0.00   0.00   0.00
  14   1     0.00   0.00   0.00    -0.00  -0.00  -0.00     0.00  -0.00  -0.00
  15   1     0.00  -0.00  -0.00     0.00  -0.00   0.00    -0.00   0.00   0.00
  16   1     0.00   0.00   0.00    -0.00  -0.00   0.00    -0.00  -0.00   0.00
  17   6    -0.00  -0.00   0.00    -0.00   0.00   0.00     0.00   0.00   0.00
  18   1    -0.00   0.00   0.00     0.00  -0.00  -0.00     0.00   0.00  -0.00
  19   1     0.00   0.00   0.00     0.00   0.00   0.00    -0.00   0.00  -0.00
  20   1     0.00   0.00  -0.00    -0.00  -0.00   0.00    -0.00   0.00   0.00
  21   1     0.00   0.01   0.00     0.00   0.00   0.00     0.00  -0.00  -0.00
  22   6    -0.00  -0.00   0.00    -0.01  -0.00   0.00     0.00   0.00  -0.00
  23   8     0.00   0.00  -0.00     0.00   0.00  -0.00    -0.00  -0.00  -0.00
  24   7     0.01   0.00   0.00    -0.21  -0.08  -0.01     0.00   0.00   0.00
  25   1     0.00  -0.00   0.00     0.02   0.06  -0.08    -0.00  -0.00   0.00
  26   1    -0.04  -0.01  -0.01     0.78   0.26   0.10    -0.00  -0.00  -0.00
  27   7     0.01   0.00  -0.00    -0.11  -0.02  -0.00     0.00  -0.00   0.00
  28   1    -0.04  -0.01  -0.00     0.41   0.10   0.01    -0.01  -0.00  -0.00
  29   1     0.00  -0.00   0.00     0.00  -0.01   0.01    -0.00   0.00  -0.00
  30   6    -0.00   0.00  -0.00    -0.00  -0.00  -0.00     0.01   0.00  -0.01
  31   8     0.00   0.00   0.00     0.00   0.00   0.00    -0.00  -0.00   0.00
  32   7     0.02   0.01  -0.01     0.01   0.00  -0.00     0.25   0.11  -0.12
  33   1    -0.03  -0.05   0.04    -0.01  -0.01   0.01    -0.29  -0.44   0.42
  34   1    -0.04   0.00   0.00    -0.02   0.00   0.00    -0.66   0.02   0.03
  35   7    -0.19  -0.03  -0.04    -0.05  -0.01  -0.01     0.03   0.00   0.01
  36   1     0.67   0.19   0.09     0.18   0.05   0.03    -0.10  -0.03  -0.01
  37   1     0.04  -0.06   0.07     0.01  -0.02   0.02    -0.01   0.01  -0.01
  38   6    -0.00   0.00   0.01    -0.00   0.00  -0.00    -0.00   0.00   0.00
  39   8     0.00  -0.00  -0.00     0.00   0.00  -0.00    -0.00  -0.00  -0.00
  40   7    -0.12   0.08   0.09     0.03  -0.02  -0.02     0.00  -0.00  -0.00
  41   1     0.01   0.03  -0.05     0.00  -0.00   0.00    -0.00  -0.00   0.00
  42   1     0.45  -0.32  -0.31    -0.09   0.07   0.07    -0.00   0.00   0.00
  43   7     0.01  -0.01   0.01    -0.00   0.00  -0.00    -0.00   0.00  -0.00
  44   1    -0.01   0.01   0.01    -0.00   0.00   0.00     0.00  -0.00  -0.00
  45   1    -0.04   0.04  -0.03     0.01  -0.01   0.01     0.00  -0.00   0.00
  46   6     0.00   0.00   0.00    -0.00  -0.00  -0.00    -0.00   0.00  -0.00
  47   8    -0.00  -0.00   0.00     0.00   0.00   0.00     0.00  -0.00   0.00
  48   7    -0.00  -0.00   0.00    -0.00  -0.00   0.00    -0.00   0.00  -0.00
  49   1    -0.00   0.00  -0.00    -0.00   0.00  -0.00     0.00  -0.00   0.00
  50   1     0.00   0.00  -0.00     0.00   0.00  -0.00    -0.00  -0.00   0.00
  51   7    -0.00   0.00  -0.00     0.00  -0.00   0.00    -0.00  -0.00  -0.00
  52   1    -0.00  -0.00   0.00     0.00   0.00  -0.00     0.00   0.00  -0.00
  53   1     0.00   0.00   0.00    -0.00  -0.00  -0.00     0.00   0.00   0.00
                    151                    152                    153
                        a                      a                      a 
 Frequencies --  3561.0135              3565.1412              3570.6226
 Red. masses --     2.1782                 2.1906                 2.1772
 Frc consts  --     0.0000                 0.0000                 0.0000
 IR Inten    --    13.9981                13.8160                12.6829
 Raman Activ --     0.0000                 0.0000                 0.0000
 Depolar     --     0.0000                 0.0000                 0.0000
 Atom AN      X      Y      Z        X      Y      Z        X      Y      Z
   1   8    -0.00  -0.00  -0.00    -0.00  -0.00  -0.00     0.00  -0.00  -0.00
   2   6    -0.00   0.00  -0.00     0.00  -0.00   0.00    -0.00   0.00  -0.00
   3   1     0.00  -0.00   0.00     0.00  -0.00  -0.00    -0.00  -0.00  -0.00
   4   1     0.00  -0.00   0.00    -0.00  -0.00   0.00    -0.00  -0.00   0.00
   5   6    -0.00   0.00   0.00     0.00  -0.00  -0.00     0.00   0.00  -0.00
   6   1     0.00  -0.00  -0.00     0.00   0.00   0.00     0.00   0.00   0.00
   7   1     0.00   0.00   0.00    -0.00   0.00   0.00    -0.00  -0.00   0.00
   8   7     0.00  -0.00  -0.00    -0.00   0.00  -0.00    -0.00   0.00  -0.00
   9   6     0.00   0.00   0.00     0.00   0.00  -0.00    -0.00  -0.00   0.00
  10   1    -0.00   0.00  -0.00     0.00   0.00   0.00    -0.00   0.00   0.00
  11   1    -0.00  -0.00   0.00    -0.00  -0.00   0.00     0.00   0.00  -0.00
  12   1     0.00   0.00   0.00     0.00   0.00   0.00    -0.00  -0.00  -0.00
  13   6     0.00   0.00   0.00    -0.00  -0.00   0.00    -0.00  -0.00   0.00
  14   1     0.00  -0.00  -0.00     0.00  -0.00  -0.00    -0.00  -0.00   0.00
  15   1    -0.00   0.00   0.00    -0.00  -0.00   0.00    -0.00  -0.00   0.00
  16   1    -0.00  -0.00   0.00     0.00   0.00  -0.00     0.00   0.00  -0.00
  17   6     0.00   0.00  -0.00     0.00   0.00  -0.00    -0.00  -0.00   0.00
  18   1     0.00   0.00   0.00    -0.00   0.00  -0.00    -0.00  -0.00   0.00
  19   1     0.00   0.00   0.00     0.00   0.00   0.00    -0.00  -0.00  -0.00
  20   1    -0.00  -0.00   0.00    -0.00  -0.00   0.00     0.00   0.00  -0.00
  21   1     0.00   0.00   0.00     0.00   0.00   0.00     0.00   0.00   0.00
  22   6    -0.00  -0.00  -0.00     0.00  -0.00   0.00     0.00   0.00  -0.00
  23   8     0.00   0.00  -0.00    -0.00  -0.00  -0.00    -0.00  -0.00  -0.00
  24   7    -0.00  -0.00   0.00     0.00   0.00  -0.00     0.00  -0.00   0.00
  25   1     0.00   0.01  -0.01    -0.00  -0.00   0.00     0.00   0.00   0.00
  26   1     0.01   0.00   0.00    -0.00  -0.00   0.00    -0.00  -0.00  -0.00
  27   7    -0.00  -0.00  -0.00    -0.00   0.00  -0.00     0.00  -0.00   0.00
  28   1     0.00   0.00   0.00     0.00   0.00   0.00    -0.00  -0.00   0.00
  29   1     0.00  -0.00   0.00     0.00  -0.00   0.00    -0.00   0.00  -0.00
  30   6    -0.00  -0.00   0.00    -0.00  -0.00   0.00    -0.00   0.00  -0.00
  31   8     0.00   0.00  -0.00    -0.00   0.00  -0.00     0.00  -0.00   0.00
  32   7    -0.00  -0.00   0.00    -0.00  -0.00   0.00     0.00   0.00  -0.00
  33   1     0.00   0.00  -0.00     0.00   0.00  -0.00    -0.00  -0.00   0.00
  34   1     0.00  -0.00  -0.00     0.00  -0.00  -0.00    -0.00   0.00   0.00
  35   7    -0.00   0.00  -0.00    -0.00  -0.00  -0.00     0.00   0.00   0.00
  36   1     0.00   0.00   0.00     0.00   0.00   0.00    -0.00  -0.00  -0.00
  37   1     0.00  -0.00   0.00     0.00  -0.00   0.00    -0.00   0.00  -0.00
  38   6    -0.01   0.01  -0.00    -0.00   0.00   0.00    -0.00   0.00   0.00
  39   8     0.00  -0.00  -0.00    -0.00   0.00  -0.00     0.00  -0.00  -0.00
  40   7    -0.02   0.01   0.01    -0.00   0.00   0.00    -0.00   0.00   0.00
  41   1     0.00   0.00  -0.01    -0.00   0.00   0.00    -0.00   0.00  -0.00
  42   1     0.06  -0.05  -0.04     0.00  -0.00  -0.00     0.00  -0.00  -0.00
  43   7    -0.22   0.20  -0.00    -0.00   0.00  -0.00    -0.00   0.00  -0.00
  44   1     0.44  -0.33  -0.35     0.00  -0.00  -0.00     0.00  -0.00  -0.00
  45   1     0.42  -0.42   0.36     0.00  -0.00   0.00     0.00  -0.00   0.00
  46   6     0.00  -0.00   0.00    -0.01   0.00  -0.01    -0.01  -0.01   0.00
  47   8     0.00   0.00  -0.00     0.00  -0.00   0.00     0.00   0.00  -0.00
  48   7    -0.00  -0.00   0.00     0.00   0.17  -0.14    -0.00  -0.16   0.13
  49   1    -0.00   0.00  -0.00     0.23  -0.28   0.37    -0.22   0.26  -0.34
  50   1     0.00   0.00  -0.00    -0.23  -0.36   0.16     0.23   0.36  -0.15
  51   7     0.00   0.00   0.00    -0.16  -0.13  -0.03    -0.16  -0.14  -0.03
  52   1    -0.00  -0.00   0.00     0.16   0.38  -0.11     0.18   0.42  -0.12
  53   1    -0.00  -0.00  -0.00     0.43   0.12   0.22     0.44   0.13   0.22
