 Entering Gaussian System
 *********************************************
 Gaussian 98:
 frequency output generated by the xtb code
 *********************************************
                         Standard orientation:
 --------------------------------------------------------------------
  Center     Atomic     Atomic              Coordinates (Angstroms)
  Number     Number      Type              X           Y           Z
 --------------------------------------------------------------------
    1          8             0       -0.277726   -2.651722    1.771466
    2          6             0       -1.029053   -1.897178    0.864056
    3          1             0       -1.799866   -2.564450    0.469392
    4          1             0       -1.540736   -1.070928    1.378187
    5          6             0       -0.198466   -1.241937   -0.241616
    6          1             0        0.604659   -0.690101    0.252985
    7          1             0       -0.829455   -0.549489   -0.801371
    8          7             0        0.439840   -2.159339   -1.228047
    9          6             0        1.293405   -3.150403   -0.554162
   10          1             0        1.996663   -2.632575    0.097131
   11          1             0        1.835917   -3.737653   -1.292500
   12          1             0        0.687635   -3.811076    0.062065
   13          6             0        1.269845   -1.333863   -2.121880
   14          1             0        2.014459   -0.792879   -1.541589
   15          1             0        0.627107   -0.626453   -2.642538
   16          1             0        1.774641   -1.965851   -2.850165
   17          6             0       -0.584098   -2.832346   -2.040293
   18          1             0       -1.216454   -3.456187   -1.414148
   19          1             0       -0.108828   -3.460497   -2.791433
   20          1             0       -1.191225   -2.075316   -2.535731
   21          1             0        0.526825   -2.144558    1.993670
   22          6             0        2.783898   -0.616198    2.600275
   23          8             0        2.076453   -1.163900    1.754597
   24          7             0        3.136502    0.677737    2.504840
   25          1             0        2.652181    1.258441    1.823349
   26          1             0        3.615582    1.137235    3.258118
   27          7             0        3.254099   -1.300959    3.672143
   28          1             0        3.922031   -0.900518    4.305165
   29          1             0        3.102626   -2.293306    3.712534
   30          6             0        1.382036    2.042950   -0.522266
   31          8             0        1.545618    2.141052    0.696349
   32          7             0        2.452548    1.926540   -1.365976
   33          1             0        3.348843    2.186018   -0.986485
   34          1             0        2.320623    2.119545   -2.344513
   35          7             0        0.167185    2.003869   -1.080864
   36          1             0        0.037630    1.749032   -2.045565
   37          1             0       -0.643058    1.878799   -0.467814
   38          6             0       -2.472586    0.657523   -3.040425
   39          8             0       -1.352580    0.175782   -2.871325
   40          7             0       -3.007594    0.771497   -4.280330
   41          1             0       -2.493911    0.416295   -5.066293
   42          1             0       -3.938032    1.113386   -4.434276
   43          7             0       -3.243946    1.071244   -2.017583
   44          1             0       -4.103673    1.559452   -2.192164
   45          1             0       -2.848974    1.134777   -1.086199
   46          6             0       -1.904129    1.677366    1.760671
   47          8             0       -2.003992    1.411139    0.557570
   48          7             0       -0.730333    1.981832    2.328605
   49          1             0        0.110588    2.065077    1.750812
   50          1             0       -0.674525    2.241369    3.296160
   51          7             0       -2.987164    1.629461    2.572418
   52          1             0       -2.943062    1.893443    3.539244
   53          1             0       -3.886808    1.436957    2.170692
 --------------------------------------------------------------------
     1 basis functions        1 primitive gaussians
     1 alpha electrons        1 beta electrons

 Harmonic frequencies (cm**-1), IR intensities (km*mol⁻¹),
 Raman scattering activities (A**4/amu), Raman depolarization ratios,
 reduced masses (AMU), force constants (mDyne/A) and normal coordinates:
                      1                      2                      3
                        a                      a                      a 
 Frequencies --    11.3311                20.7255                30.4342
 Red. masses --    12.4546                12.0946                12.3334
 Frc consts  --     0.0000                 0.0000                 0.0000
 IR Inten    --     0.2494                 0.8601                 2.3416
 Raman Activ --     0.0000                 0.0000                 0.0000
 Depolar     --     0.0000                 0.0000                 0.0000
 Atom AN      X      Y      Z        X      Y      Z        X      Y      Z
   1   8     0.09   0.06   0.10     0.04  -0.06  -0.17    -0.01   0.04   0.04
   2   6     0.06   0.06   0.10     0.06  -0.01  -0.14    -0.04  -0.08  -0.03
   3   1     0.01   0.02   0.04     0.01   0.01  -0.04     0.00  -0.05   0.00
   4   1     0.03   0.03   0.03     0.03  -0.00  -0.04    -0.03  -0.02  -0.03
   5   6     0.04   0.02   0.06     0.09  -0.02  -0.13    -0.05  -0.11  -0.06
   6   1     0.02  -0.00   0.00     0.03  -0.01  -0.03    -0.02  -0.02  -0.02
   7   1     0.01   0.01   0.02     0.03  -0.00  -0.04    -0.02  -0.04  -0.03
   8   7    -0.04  -0.02   0.05     0.09  -0.03  -0.13    -0.02  -0.15  -0.01
   9   6    -0.06  -0.06   0.02     0.10  -0.02  -0.12    -0.05  -0.12   0.05
  10   1    -0.00  -0.02  -0.00     0.03  -0.00  -0.04    -0.02  -0.03   0.01
  11   1    -0.03  -0.02   0.00     0.03  -0.01  -0.04    -0.01  -0.05   0.02
  12   1    -0.02  -0.01   0.01     0.03  -0.01  -0.03    -0.02  -0.03   0.02
  13   6    -0.02  -0.07   0.01     0.07  -0.03  -0.14     0.01  -0.18  -0.01
  14   1     0.00  -0.03  -0.00     0.02  -0.00  -0.04     0.00  -0.05   0.00
  15   1    -0.00  -0.01   0.01     0.02  -0.01  -0.04     0.01  -0.05  -0.01
  16   1    -0.02  -0.03   0.00     0.02  -0.01  -0.04     0.01  -0.06   0.01
  17   6    -0.09   0.02   0.08     0.09  -0.04  -0.11    -0.00  -0.16  -0.03
  18   1    -0.03   0.02   0.03     0.03  -0.02  -0.03    -0.01  -0.04  -0.01
  19   1    -0.04  -0.00   0.02     0.02  -0.01  -0.04     0.00  -0.06   0.00
  20   1    -0.02   0.01   0.02     0.02  -0.01  -0.03     0.01  -0.05  -0.02
  21   1     0.03   0.01   0.01     0.01  -0.02  -0.04    -0.01   0.03  -0.00
  22   6     0.21  -0.06  -0.11    -0.06  -0.06   0.01    -0.05   0.12  -0.11
  23   8     0.19  -0.07  -0.09     0.03  -0.06  -0.08    -0.06   0.16  -0.13
  24   7     0.11  -0.03  -0.07    -0.11  -0.04   0.10    -0.06   0.13  -0.08
  25   1    -0.01  -0.01   0.01    -0.02  -0.01   0.02    -0.02   0.04  -0.02
  26   1     0.04  -0.01  -0.02    -0.05  -0.02   0.04    -0.01   0.03  -0.02
  27   7     0.42  -0.11  -0.23    -0.12  -0.09   0.02    -0.04   0.11  -0.14
  28   1     0.12  -0.02  -0.07    -0.05  -0.02   0.02    -0.01   0.03  -0.03
  29   1     0.13  -0.03  -0.07    -0.02  -0.03  -0.01    -0.01   0.03  -0.04
  30   6    -0.07  -0.05   0.13    -0.02  -0.03   0.07    -0.07  -0.02   0.01
  31   8    -0.15  -0.05   0.16    -0.01   0.04   0.07    -0.04   0.21  -0.01
  32   7    -0.03  -0.10   0.20    -0.03  -0.10   0.07    -0.11  -0.14  -0.01
  33   1    -0.01  -0.04   0.07    -0.01  -0.02   0.01    -0.03  -0.01  -0.02
  34   1     0.01  -0.03   0.05    -0.01  -0.04   0.02    -0.04  -0.08  -0.01
  35   7    -0.04   0.00   0.07    -0.02  -0.05   0.08    -0.10  -0.14   0.06
  36   1     0.00  -0.00   0.02    -0.01  -0.03   0.03    -0.03  -0.09   0.03
  37   1    -0.02   0.01   0.01    -0.00  -0.01   0.03    -0.02  -0.03   0.03
  38   6     0.05   0.03  -0.06    -0.01  -0.08   0.08     0.15   0.10  -0.02
  39   8     0.05   0.02   0.01     0.06   0.05   0.00     0.13  -0.01  -0.05
  40   7     0.14   0.04  -0.09    -0.14  -0.21   0.13     0.22   0.33  -0.03
  41   1     0.05   0.01  -0.02    -0.03  -0.02   0.02     0.06   0.09  -0.01
  42   1     0.04   0.01  -0.04    -0.04  -0.06   0.05     0.07   0.11  -0.00
  43   7     0.00   0.03  -0.11     0.02  -0.16   0.13     0.17   0.05   0.00
  44   1     0.00   0.01  -0.04    -0.02  -0.08   0.05     0.06   0.04   0.01
  45   1    -0.01   0.01  -0.02     0.02  -0.03   0.03     0.03  -0.02   0.01
  46   6    -0.20   0.07  -0.05    -0.03   0.22   0.07     0.01  -0.03   0.12
  47   8    -0.15   0.03  -0.05     0.01  -0.05   0.14    -0.01  -0.20   0.18
  48   7    -0.24   0.04   0.02    -0.05   0.36   0.04    -0.02   0.29   0.03
  49   1    -0.05   0.00   0.02    -0.01   0.06   0.01    -0.01   0.08   0.00
  50   1    -0.08   0.03   0.00    -0.02   0.17  -0.01    -0.00   0.09   0.00
  51   7    -0.28   0.18  -0.13    -0.07   0.48   0.03     0.07  -0.15   0.20
  52   1    -0.09   0.05  -0.03    -0.02   0.16   0.00     0.02   0.00   0.04
  53   1    -0.07   0.04  -0.05    -0.01   0.08   0.02     0.02  -0.09   0.07
                      4                      5                      6
                        a                      a                      a 
 Frequencies --    31.7529                37.0146                41.2421
 Red. masses --    12.5980                12.0356                12.7033
 Frc consts  --     0.0000                 0.0000                 0.0000
 IR Inten    --     4.2920                 4.9998                 0.3757
 Raman Activ --     0.0000                 0.0000                 0.0000
 Depolar     --     0.0000                 0.0000                 0.0000
 Atom AN      X      Y      Z        X      Y      Z        X      Y      Z
   1   8     0.32  -0.16   0.03    -0.16  -0.18   0.04     0.07   0.05   0.04
   2   6     0.19  -0.11   0.13    -0.13  -0.18   0.01    -0.00  -0.01   0.03
   3   1     0.04  -0.03   0.05    -0.02  -0.07  -0.02     0.00  -0.02   0.02
   4   1     0.07  -0.04   0.06    -0.07  -0.07  -0.00    -0.00  -0.01   0.01
   5   6     0.07  -0.07   0.06    -0.11  -0.09   0.08    -0.07  -0.02  -0.02
   6   1     0.03  -0.02  -0.00    -0.05  -0.02   0.04    -0.02   0.00  -0.02
   7   1    -0.00  -0.02   0.04    -0.03  -0.03   0.02    -0.03  -0.01  -0.00
   8   7    -0.00  -0.05  -0.01     0.00  -0.01   0.09    -0.10  -0.03  -0.02
   9   6     0.12  -0.01  -0.11    -0.03  -0.03   0.08    -0.06  -0.01  -0.04
  10   1     0.05   0.01  -0.05    -0.03  -0.01   0.05    -0.01   0.00  -0.02
  11   1     0.02   0.01  -0.05     0.01   0.01   0.03    -0.03  -0.01  -0.01
  12   1     0.06  -0.01  -0.01    -0.02  -0.02  -0.00    -0.01  -0.00  -0.00
  13   6    -0.13  -0.01  -0.10     0.05   0.08   0.21    -0.12  -0.03  -0.05
  14   1    -0.03   0.01  -0.05    -0.00   0.02   0.09    -0.03  -0.01  -0.02
  15   1    -0.06  -0.01  -0.01     0.02   0.03   0.06    -0.04  -0.01  -0.01
  16   1    -0.05   0.00  -0.04     0.04   0.04   0.06    -0.04  -0.01  -0.02
  17   6    -0.06  -0.08   0.10     0.09   0.02  -0.05    -0.11  -0.04   0.01
  18   1     0.01  -0.03   0.05     0.01  -0.01  -0.04    -0.03  -0.01   0.01
  19   1    -0.03  -0.02   0.01     0.05   0.02  -0.01    -0.04  -0.02   0.00
  20   1    -0.04  -0.03   0.05     0.04   0.01  -0.02    -0.03  -0.01   0.00
  21   1     0.08  -0.04  -0.01    -0.05  -0.03   0.02     0.02   0.02  -0.01
  22   6    -0.01   0.02   0.09     0.01  -0.08  -0.04    -0.03   0.02  -0.05
  23   8     0.18  -0.04  -0.02    -0.15  -0.08   0.09     0.01   0.12  -0.16
  24   7    -0.10   0.05   0.15     0.06  -0.10  -0.13    -0.10   0.05   0.15
  25   1    -0.01   0.00   0.02     0.00  -0.02  -0.02    -0.02   0.03   0.05
  26   1    -0.07   0.02   0.06     0.05  -0.03  -0.06    -0.03  -0.01   0.06
  27   7    -0.15   0.06   0.19     0.16  -0.08  -0.10    -0.02  -0.11  -0.14
  28   1    -0.07   0.03   0.07     0.06  -0.02  -0.05    -0.02  -0.05  -0.01
  29   1    -0.02   0.01   0.04     0.02  -0.02  -0.01     0.00  -0.03  -0.07
  30   6     0.01  -0.04  -0.05     0.03   0.15  -0.04     0.18   0.08   0.12
  31   8    -0.01  -0.08  -0.05     0.03   0.04  -0.03     0.07   0.21   0.15
  32   7     0.03   0.04  -0.04     0.04   0.48  -0.07     0.28   0.11   0.25
  33   1     0.00   0.02  -0.01    -0.00   0.16  -0.01     0.06   0.05   0.09
  34   1     0.01   0.02  -0.01    -0.00   0.14  -0.01     0.10   0.01   0.06
  35   7     0.02  -0.09  -0.07     0.03  -0.02  -0.02     0.25  -0.05   0.02
  36   1     0.01  -0.00  -0.02     0.02   0.03  -0.02     0.09  -0.01   0.00
  37   1     0.00  -0.04  -0.02     0.01  -0.05  -0.01     0.05  -0.01  -0.01
  38   6    -0.09   0.09   0.02    -0.00  -0.03   0.03    -0.09  -0.06   0.03
  39   8    -0.24  -0.17   0.07    -0.03  -0.09   0.02    -0.11  -0.09   0.03
  40   7     0.05   0.43  -0.02     0.05   0.17   0.03    -0.15  -0.17   0.04
  41   1    -0.02   0.05   0.00     0.00   0.03   0.01    -0.05  -0.06   0.01
  42   1     0.01   0.11  -0.00     0.00   0.02   0.02    -0.03  -0.03   0.01
  43   7    -0.10   0.15   0.01    -0.03  -0.14   0.06    -0.04   0.05   0.03
  44   1     0.01   0.11  -0.00     0.00  -0.01   0.02    -0.01   0.02   0.01
  45   1    -0.03   0.01   0.01    -0.01  -0.05   0.02     0.00   0.02   0.00
  46   6    -0.02  -0.00  -0.08     0.02   0.02  -0.06     0.03  -0.01  -0.09
  47   8     0.04  -0.15  -0.07     0.10  -0.27  -0.01     0.15  -0.01  -0.12
  48   7    -0.03  -0.01  -0.06    -0.01   0.18  -0.07    -0.07   0.30  -0.06
  49   1    -0.00  -0.02  -0.01     0.00   0.02  -0.01    -0.01   0.09   0.00
  50   1    -0.02   0.04  -0.03    -0.02   0.11  -0.04    -0.04   0.04  -0.01
  51   7    -0.07   0.19  -0.15    -0.02   0.21  -0.12     0.02  -0.34  -0.13
  52   1    -0.02   0.04  -0.04    -0.02   0.08  -0.04    -0.03  -0.04  -0.05
  53   1    -0.01   0.02  -0.04     0.00  -0.00  -0.03     0.02  -0.10  -0.06
                      7                      8                      9
                        a                      a                      a 
 Frequencies --    44.7451                49.2456                49.7049
 Red. masses --    12.4764                12.7105                12.2774
 Frc consts  --     0.0000                 0.0000                 0.0000
 IR Inten    --     0.3693                 4.0796                 2.7557
 Raman Activ --     0.0000                 0.0000                 0.0000
 Depolar     --     0.0000                 0.0000                 0.0000
 Atom AN      X      Y      Z        X      Y      Z        X      Y      Z
   1   8    -0.00   0.02   0.00    -0.06  -0.20  -0.09    -0.12   0.06  -0.07
   2   6     0.05   0.13   0.06    -0.02  -0.08  -0.03    -0.09  -0.01  -0.12
   3   1    -0.01   0.06   0.01    -0.01  -0.01  -0.03    -0.01  -0.02  -0.04
   4   1     0.04   0.04   0.03    -0.01  -0.03   0.01    -0.05  -0.01  -0.05
   5   6     0.08   0.09   0.05     0.01  -0.00   0.04    -0.06   0.01  -0.09
   6   1     0.04   0.00   0.01    -0.01  -0.00   0.03    -0.04   0.02  -0.02
   7   1     0.03   0.04   0.03     0.00   0.00   0.02    -0.02  -0.01  -0.04
   8   7    -0.03   0.06   0.02     0.08   0.07   0.02     0.06   0.03  -0.02
   9   6    -0.07  -0.01  -0.03     0.15   0.11  -0.00     0.14   0.15   0.06
  10   1    -0.00  -0.02  -0.01     0.03   0.04   0.01     0.02   0.08   0.02
  11   1    -0.04  -0.01  -0.02     0.06   0.05  -0.00     0.07   0.05   0.03
  12   1    -0.03   0.01  -0.01     0.06   0.01  -0.01     0.05   0.03   0.02
  13   6     0.00   0.01  -0.01     0.01   0.15   0.03    -0.01   0.06  -0.05
  14   1     0.02  -0.01  -0.01    -0.01   0.06   0.01    -0.02   0.05  -0.02
  15   1     0.01   0.02   0.00    -0.01   0.03   0.01    -0.02  -0.01  -0.03
  16   1    -0.02  -0.01  -0.01     0.02   0.06   0.01     0.02   0.02  -0.00
  17   6    -0.10   0.14   0.05     0.13   0.01   0.01     0.15  -0.13  -0.01
  18   1    -0.04   0.05   0.02     0.06  -0.02  -0.00     0.07  -0.06  -0.00
  19   1    -0.05   0.03   0.01     0.05   0.02  -0.01     0.07  -0.02   0.00
  20   1    -0.02   0.05   0.02     0.02  -0.01   0.01     0.02  -0.06  -0.01
  21   1     0.01  -0.02   0.01    -0.02  -0.05   0.01    -0.05   0.03  -0.00
  22   6     0.02  -0.07   0.08     0.04  -0.06   0.09     0.01   0.10  -0.02
  23   8     0.10  -0.17   0.08    -0.09  -0.11   0.25    -0.20   0.22   0.09
  24   7    -0.09  -0.05   0.06     0.04  -0.07  -0.04     0.29   0.02  -0.15
  25   1    -0.02  -0.03   0.00    -0.01  -0.03  -0.01     0.06   0.02  -0.02
  26   1    -0.03   0.00   0.01     0.04  -0.01  -0.04     0.10  -0.01  -0.05
  27   7     0.05  -0.00   0.12     0.20   0.00   0.07    -0.00   0.06  -0.05
  28   1     0.00   0.02   0.03     0.08   0.01  -0.01     0.04  -0.01  -0.04
  29   1     0.04  -0.00   0.04     0.05   0.00   0.04    -0.05   0.03   0.01
  30   6    -0.01  -0.02  -0.07    -0.04  -0.10  -0.04     0.08  -0.13   0.08
  31   8    -0.00  -0.08  -0.08    -0.02  -0.11  -0.05     0.01  -0.05   0.09
  32   7    -0.02  -0.13  -0.07    -0.06  -0.22  -0.06     0.13  -0.30   0.16
  33   1     0.00  -0.06  -0.02    -0.01  -0.07  -0.02     0.03  -0.09   0.06
  34   1     0.00  -0.02  -0.02    -0.02  -0.05  -0.01     0.06  -0.09   0.04
  35   7    -0.01   0.14  -0.09    -0.06   0.01  -0.03     0.12  -0.09   0.01
  36   1    -0.01   0.03  -0.02    -0.02  -0.00  -0.01     0.04  -0.02   0.00
  37   1    -0.00   0.04  -0.03    -0.01   0.01  -0.01     0.02   0.00  -0.01
  38   6     0.01  -0.01   0.03    -0.05   0.06  -0.02    -0.10  -0.02   0.07
  39   8     0.11   0.21  -0.05    -0.13  -0.08   0.05    -0.14  -0.10   0.03
  40   7     0.06   0.25   0.03    -0.07  -0.09  -0.03    -0.02   0.31   0.07
  41   1     0.04   0.13  -0.01    -0.03  -0.07   0.00    -0.02   0.07   0.01
  42   1    -0.01  -0.01   0.03    -0.00   0.02  -0.02    -0.02   0.04   0.03
  43   7    -0.16  -0.51   0.12     0.04   0.39  -0.09    -0.17  -0.24   0.13
  44   1    -0.05  -0.14   0.05     0.02   0.11  -0.04    -0.02  -0.02   0.04
  45   1    -0.03  -0.12   0.03     0.00   0.09  -0.02    -0.03  -0.06   0.03
  46   6     0.00   0.01  -0.07    -0.03   0.07  -0.01    -0.03   0.01  -0.05
  47   8     0.02  -0.02  -0.08    -0.03   0.05  -0.00     0.02   0.08  -0.07
  48   7    -0.06   0.32  -0.13    -0.10   0.45  -0.09    -0.04  -0.08   0.03
  49   1    -0.01   0.07  -0.03    -0.02   0.09  -0.02    -0.00  -0.02   0.02
  50   1    -0.01   0.05  -0.02    -0.02   0.07  -0.01    -0.02  -0.03   0.01
  51   7     0.05  -0.29  -0.02     0.03  -0.25   0.06    -0.08   0.04  -0.11
  52   1    -0.00  -0.01  -0.02    -0.01   0.01  -0.00    -0.03  -0.01  -0.03
  53   1     0.01  -0.08  -0.01     0.01  -0.07   0.02    -0.02   0.03  -0.05
                     10                     11                     12
                        a                      a                      a 
 Frequencies --    57.6602                63.7389                73.3674
 Red. masses --    12.5789                12.0004                12.4959
 Frc consts  --     0.0000                 0.0000                 0.0000
 IR Inten    --     5.4338                 1.0362                 0.8306
 Raman Activ --     0.0000                 0.0000                 0.0000
 Depolar     --     0.0000                 0.0000                 0.0000
 Atom AN      X      Y      Z        X      Y      Z        X      Y      Z
   1   8    -0.17   0.11  -0.07     0.10  -0.09   0.09     0.09   0.10   0.14
   2   6    -0.05   0.13  -0.11    -0.04  -0.18   0.09     0.01  -0.08   0.03
   3   1    -0.02   0.05  -0.04     0.02  -0.09   0.02     0.04  -0.07   0.01
   4   1    -0.00   0.05  -0.05    -0.05  -0.08   0.03    -0.04  -0.04  -0.01
   5   6     0.05   0.03  -0.09    -0.13  -0.02   0.12    -0.03  -0.02   0.05
   6   1     0.01   0.01  -0.02    -0.05   0.01   0.04    -0.02   0.02   0.02
   7   1     0.03   0.00  -0.05    -0.06  -0.01   0.05    -0.02  -0.02   0.01
   8   7     0.08  -0.05  -0.01    -0.04   0.12   0.06     0.09   0.04   0.07
   9   6     0.09   0.03   0.09    -0.02   0.09   0.01    -0.03  -0.05   0.08
  10   1     0.02   0.03   0.02    -0.02   0.02   0.02    -0.02  -0.03   0.05
  11   1     0.04  -0.00   0.04     0.01   0.05  -0.01     0.00  -0.01   0.02
  12   1     0.03   0.02   0.04    -0.00   0.00  -0.02    -0.03  -0.02  -0.01
  13   6     0.05  -0.11  -0.08    -0.02   0.23   0.18     0.22   0.10   0.25
  14   1     0.01  -0.01  -0.04    -0.02   0.06   0.08     0.05   0.00   0.11
  15   1     0.01  -0.05  -0.04    -0.01   0.07   0.05     0.09   0.05   0.07
  16   1     0.02  -0.04  -0.01     0.02   0.09   0.05     0.08   0.05   0.07
  17   6     0.09  -0.15   0.05     0.04   0.15  -0.07     0.17   0.14  -0.13
  18   1     0.04  -0.04   0.03    -0.00   0.03  -0.05     0.01   0.04  -0.07
  19   1     0.03  -0.05   0.02     0.03   0.06  -0.02     0.07   0.05  -0.03
  20   1     0.01  -0.06   0.01     0.02   0.05  -0.02     0.08   0.06  -0.05
  21   1    -0.04   0.01  -0.00     0.01   0.01   0.01     0.03   0.04  -0.01
  22   6    -0.03  -0.06   0.07    -0.04   0.07   0.01    -0.02  -0.05  -0.15
  23   8    -0.03  -0.06   0.06    -0.04   0.16  -0.04     0.16   0.01  -0.37
  24   7    -0.41   0.05   0.32    -0.26   0.14   0.26     0.01  -0.06  -0.01
  25   1    -0.10   0.01   0.08    -0.06   0.05   0.07     0.02  -0.00  -0.01
  26   1    -0.07   0.00   0.07    -0.04   0.02   0.07    -0.04  -0.03   0.03
  27   7     0.33  -0.18  -0.17     0.17  -0.09  -0.19    -0.28  -0.14  -0.10
  28   1     0.06  -0.04  -0.03     0.03  -0.03  -0.03    -0.11  -0.06   0.02
  29   1     0.13  -0.06  -0.08     0.06  -0.03  -0.09    -0.08  -0.04  -0.06
  30   6    -0.02   0.05  -0.06     0.03  -0.12  -0.05    -0.03  -0.04  -0.04
  31   8    -0.02   0.07  -0.08     0.04   0.04  -0.07    -0.02  -0.11  -0.04
  32   7    -0.03   0.08  -0.08     0.02  -0.34  -0.04    -0.05  -0.08  -0.05
  33   1    -0.01   0.03  -0.02     0.01  -0.09  -0.02    -0.01  -0.05  -0.01
  34   1    -0.01   0.02  -0.02     0.01  -0.12  -0.02    -0.01  -0.01  -0.01
  35   7    -0.02   0.02  -0.06     0.03  -0.13  -0.04    -0.04   0.08  -0.04
  36   1    -0.00   0.01  -0.02    -0.00  -0.07  -0.00    -0.01   0.04  -0.01
  37   1    -0.01   0.02  -0.02     0.01  -0.02  -0.01    -0.01   0.03  -0.01
  38   6    -0.03  -0.05   0.04    -0.01   0.06  -0.06    -0.03  -0.07   0.08
  39   8    -0.12  -0.24   0.07     0.06   0.21  -0.14    -0.12  -0.23   0.20
  40   7     0.08   0.18   0.01    -0.11  -0.03  -0.02     0.12   0.07   0.03
  41   1    -0.00  -0.01   0.01    -0.02   0.04  -0.02     0.02  -0.05   0.03
  42   1     0.01   0.03   0.01    -0.03  -0.00   0.00     0.03  -0.01  -0.01
  43   7    -0.04  -0.04   0.03    -0.00  -0.03  -0.01    -0.09  -0.01   0.02
  44   1     0.02   0.04  -0.00    -0.02  -0.04   0.01     0.01   0.04  -0.02
  45   1    -0.01  -0.01   0.01     0.01  -0.01  -0.01    -0.03   0.01   0.01
  46   6     0.03   0.05   0.02     0.06  -0.06  -0.03    -0.04   0.10  -0.01
  47   8    -0.03   0.24  -0.01     0.06  -0.18  -0.01    -0.09   0.26  -0.04
  48   7     0.08  -0.10   0.01     0.08  -0.14  -0.04    -0.03   0.10  -0.03
  49   1     0.01  -0.01  -0.01     0.02  -0.03  -0.02    -0.01   0.02  -0.01
  50   1     0.03  -0.05   0.01     0.02   0.01  -0.02     0.01  -0.03   0.00
  51   7     0.07   0.01   0.06     0.04   0.15  -0.05     0.01  -0.08   0.04
  52   1     0.03  -0.03   0.02     0.02   0.02  -0.01     0.00  -0.00   0.01
  53   1     0.01   0.03   0.02     0.01   0.02  -0.00    -0.01   0.03   0.01
                     13                     14                     15
                        a                      a                      a 
 Frequencies --    76.3294                80.7384                91.3767
 Red. masses --    13.3660                11.6340                12.4092
 Frc consts  --     0.0000                 0.0000                 0.0000
 IR Inten    --     3.8848                 0.7613                 1.2127
 Raman Activ --     0.0000                 0.0000                 0.0000
 Depolar     --     0.0000                 0.0000                 0.0000
 Atom AN      X      Y      Z        X      Y      Z        X      Y      Z
   1   8     0.05  -0.41  -0.10     0.15  -0.12   0.03    -0.04   0.01   0.02
   2   6     0.02  -0.23   0.03     0.02  -0.11   0.11    -0.03   0.02   0.02
   3   1    -0.00  -0.05  -0.00     0.00  -0.04   0.05    -0.01   0.01   0.01
   4   1     0.02  -0.08   0.04     0.01  -0.04   0.05    -0.00   0.01   0.00
   5   6    -0.00  -0.14   0.07    -0.10  -0.03   0.06    -0.03   0.00   0.01
   6   1     0.01  -0.06   0.03    -0.04   0.01   0.01    -0.02   0.01  -0.00
   7   1     0.00  -0.02   0.04    -0.05  -0.03   0.03    -0.01  -0.01  -0.01
   8   7    -0.04  -0.08  -0.02    -0.05   0.02   0.05     0.02  -0.02   0.07
   9   6    -0.03  -0.14  -0.12     0.16   0.17  -0.00     0.18   0.14   0.10
  10   1    -0.00  -0.06  -0.03     0.04   0.09  -0.02     0.04   0.08   0.01
  11   1    -0.01  -0.02  -0.05     0.06   0.07  -0.01     0.06   0.04   0.03
  12   1    -0.01  -0.06  -0.05     0.09   0.03   0.02     0.08   0.03   0.05
  13   6    -0.04  -0.02   0.03    -0.24   0.10  -0.06    -0.12  -0.01  -0.06
  14   1    -0.01  -0.02   0.02    -0.08   0.06  -0.04    -0.04   0.03  -0.04
  15   1    -0.01   0.01   0.03    -0.11  -0.00  -0.01    -0.06  -0.02  -0.01
  16   1    -0.02   0.01  -0.01    -0.06   0.04  -0.02    -0.03  -0.00  -0.02
  17   6    -0.06   0.00  -0.05    -0.02  -0.17   0.17     0.06  -0.22   0.19
  18   1    -0.02  -0.01  -0.03     0.04  -0.07   0.07     0.06  -0.08   0.08
  19   1    -0.03   0.02  -0.03     0.00  -0.04   0.05     0.03  -0.06   0.05
  20   1    -0.02   0.01   0.01    -0.05  -0.08   0.05    -0.03  -0.10   0.06
  21   1     0.00  -0.10   0.00     0.03  -0.02  -0.00    -0.01   0.00  -0.00
  22   6    -0.06   0.05  -0.04    -0.02  -0.05  -0.01    -0.06  -0.05  -0.09
  23   8    -0.10  -0.08   0.07    -0.10   0.10  -0.06    -0.06   0.01  -0.16
  24   7    -0.15   0.07  -0.18     0.12  -0.09   0.07    -0.05  -0.05  -0.03
  25   1    -0.06   0.01  -0.05     0.05  -0.00   0.03    -0.01  -0.01  -0.01
  26   1    -0.03   0.04  -0.07     0.05  -0.05   0.02    -0.01  -0.02  -0.00
  27   7     0.07   0.19  -0.01    -0.09  -0.20  -0.08    -0.11  -0.13  -0.13
  28   1     0.03   0.08  -0.03    -0.02  -0.09  -0.01    -0.04  -0.05  -0.02
  29   1     0.04   0.05   0.02    -0.06  -0.05  -0.04    -0.04  -0.03  -0.05
  30   6     0.02   0.10   0.00     0.00   0.02   0.04    -0.03   0.07  -0.06
  31   8    -0.04   0.30  -0.00     0.10  -0.04   0.04    -0.02  -0.03  -0.07
  32   7     0.07  -0.10   0.09    -0.05   0.15  -0.05    -0.06  -0.09  -0.08
  33   1     0.02  -0.03   0.03    -0.01   0.05  -0.03    -0.00  -0.07  -0.02
  34   1     0.04  -0.06   0.01    -0.04   0.05  -0.01    -0.01  -0.00  -0.02
  35   7     0.05   0.12  -0.05    -0.03  -0.05   0.13    -0.05   0.40  -0.09
  36   1     0.02  -0.00  -0.01    -0.02   0.01   0.03    -0.01   0.07  -0.01
  37   1     0.00   0.07  -0.02    -0.01  -0.00   0.04    -0.01   0.07  -0.02
  38   6     0.05   0.00   0.10     0.04  -0.04  -0.16     0.09   0.09   0.17
  39   8     0.08   0.06   0.21     0.09   0.06  -0.15     0.16   0.24   0.29
  40   7     0.15  -0.03   0.07     0.11  -0.01  -0.19     0.13  -0.13   0.15
  41   1     0.06  -0.00   0.03     0.05   0.01  -0.05     0.07   0.00   0.05
  42   1     0.04  -0.02  -0.00     0.02  -0.04  -0.06     0.05  -0.02   0.01
  43   7    -0.05  -0.06   0.05    -0.06  -0.21  -0.17     0.02   0.11   0.11
  44   1    -0.01  -0.01  -0.01    -0.02  -0.06  -0.05    -0.01  -0.01   0.01
  45   1    -0.02   0.02   0.01    -0.02  -0.03  -0.05    -0.01   0.03   0.04
  46   6     0.00   0.12  -0.03    -0.01   0.13   0.05     0.01  -0.09  -0.08
  47   8    -0.03   0.41  -0.09    -0.17   0.29   0.04     0.10  -0.22  -0.07
  48   7     0.03  -0.10   0.03     0.05   0.10  -0.05    -0.03  -0.03  -0.04
  49   1     0.00   0.02   0.01     0.01   0.01  -0.02    -0.00  -0.01  -0.01
  50   1     0.01  -0.07   0.02     0.04  -0.03   0.00    -0.03   0.03  -0.02
  51   7     0.00   0.02  -0.03     0.10  -0.01   0.20    -0.06   0.01  -0.17
  52   1     0.00  -0.03   0.00     0.05   0.05   0.04    -0.03  -0.02  -0.04
  53   1    -0.01   0.06  -0.02     0.01   0.08   0.06    -0.00  -0.05  -0.05
                     16                     17                     18
                        a                      a                      a 
 Frequencies --   103.9942               106.3373               110.8812
 Red. masses --    12.9176                13.1602                12.5243
 Frc consts  --     0.0000                 0.0000                 0.0000
 IR Inten    --     8.0959                 2.8285                 5.0993
 Raman Activ --     0.0000                 0.0000                 0.0000
 Depolar     --     0.0000                 0.0000                 0.0000
 Atom AN      X      Y      Z        X      Y      Z        X      Y      Z
   1   8    -0.10  -0.05   0.04     0.02  -0.06  -0.07    -0.14   0.00  -0.08
   2   6    -0.03   0.05   0.07    -0.00   0.03   0.03    -0.03   0.18  -0.01
   3   1    -0.02   0.04   0.01    -0.01   0.03   0.01    -0.03   0.09  -0.02
   4   1     0.01   0.02   0.03     0.02   0.01   0.03     0.03   0.06   0.02
   5   6     0.01   0.04   0.09    -0.04   0.07   0.02     0.05   0.15   0.04
   6   1    -0.00   0.02   0.03    -0.00   0.01   0.01     0.02   0.02   0.02
   7   1     0.01   0.01   0.02    -0.01   0.03   0.02     0.03   0.06   0.01
   8   7     0.06   0.05   0.13    -0.11   0.12  -0.05     0.01   0.16   0.01
   9   6     0.14   0.12   0.13    -0.08   0.07  -0.12     0.04   0.15  -0.03
  10   1     0.03   0.05   0.03    -0.01   0.01  -0.04     0.02   0.04  -0.02
  11   1     0.05   0.04   0.04    -0.04   0.03  -0.05    -0.00   0.04  -0.02
  12   1     0.06   0.02   0.04    -0.02   0.02  -0.03     0.02   0.05   0.00
  13   6    -0.01   0.07   0.07    -0.12   0.12  -0.06    -0.03   0.13  -0.03
  14   1    -0.02   0.05   0.01    -0.03   0.03  -0.02    -0.01   0.05  -0.02
  15   1    -0.02  -0.01   0.01    -0.04   0.03  -0.01    -0.02   0.02  -0.02
  16   1     0.01   0.02   0.03    -0.04   0.04  -0.02    -0.01   0.03  -0.00
  17   6     0.10  -0.07   0.17    -0.15   0.15  -0.02    -0.04   0.14   0.08
  18   1     0.05  -0.03   0.06    -0.04   0.04  -0.00     0.01   0.03   0.03
  19   1     0.04  -0.02   0.05    -0.06   0.04  -0.01    -0.02   0.05   0.00
  20   1     0.01  -0.04   0.04    -0.04   0.05   0.01    -0.03   0.04   0.05
  21   1    -0.01  -0.04   0.00     0.00  -0.02  -0.01    -0.02  -0.03  -0.01
  22   6    -0.03  -0.11  -0.14    -0.02   0.02   0.02    -0.02  -0.06  -0.07
  23   8     0.16  -0.34  -0.19    -0.09   0.09   0.04     0.05  -0.17  -0.08
  24   7    -0.18  -0.09  -0.25     0.04   0.01   0.03    -0.07  -0.06  -0.13
  25   1    -0.06  -0.04  -0.07     0.01   0.01   0.02    -0.02  -0.02  -0.04
  26   1    -0.09   0.01  -0.06     0.02  -0.01   0.01    -0.03  -0.00  -0.03
  27   7    -0.11   0.07   0.01     0.01  -0.03  -0.03    -0.05   0.03   0.00
  28   1    -0.05   0.06   0.00     0.01  -0.02  -0.01    -0.02   0.02  -0.00
  29   1     0.02   0.01   0.02    -0.01  -0.01  -0.01     0.01   0.00   0.01
  30   6    -0.01   0.06   0.01    -0.05   0.08   0.04     0.05  -0.02   0.03
  31   8    -0.12   0.21   0.02    -0.04   0.03   0.04     0.10   0.31   0.01
  32   7     0.06  -0.07   0.12    -0.07  -0.16   0.05     0.03  -0.07   0.01
  33   1     0.01  -0.01   0.05    -0.00  -0.10   0.02     0.00   0.04  -0.02
  34   1     0.04  -0.05   0.02    -0.00  -0.03   0.01    -0.01  -0.08  -0.01
  35   7     0.03   0.00  -0.07    -0.06   0.41   0.01     0.03  -0.36   0.11
  36   1     0.02  -0.01  -0.02    -0.01   0.11   0.00     0.00  -0.13   0.04
  37   1     0.00   0.02  -0.02    -0.01   0.08   0.00     0.01  -0.08   0.03
  38   6    -0.02  -0.00  -0.13     0.08  -0.22  -0.05    -0.01  -0.05   0.05
  39   8    -0.01  -0.06  -0.36    -0.03  -0.53  -0.05    -0.06  -0.07   0.32
  40   7    -0.23   0.11  -0.04     0.17   0.00  -0.07     0.27  -0.09  -0.07
  41   1    -0.11   0.03  -0.04     0.01  -0.07  -0.01     0.12  -0.04   0.02
  42   1    -0.07   0.03   0.04     0.04  -0.00  -0.01     0.08  -0.03  -0.08
  43   7     0.15  -0.03   0.01     0.17  -0.11  -0.04    -0.20  -0.02  -0.11
  44   1     0.04   0.01   0.04     0.08   0.03  -0.01    -0.04  -0.00  -0.07
  45   1     0.07  -0.02  -0.01     0.05  -0.06  -0.01    -0.09  -0.00  -0.01
  46   6     0.03   0.01   0.06     0.09  -0.04   0.07     0.00  -0.07  -0.01
  47   8     0.13   0.07   0.05     0.18  -0.16   0.10    -0.10  -0.22   0.02
  48   7     0.01  -0.05   0.17     0.06   0.01   0.12     0.05  -0.05  -0.11
  49   1    -0.00   0.03   0.04     0.02   0.01   0.04     0.00   0.02  -0.04
  50   1    -0.02   0.01   0.04    -0.00   0.04   0.02     0.01   0.05  -0.04
  51   7    -0.02  -0.00  -0.02     0.04   0.08  -0.00     0.06   0.06   0.07
  52   1    -0.02  -0.04   0.01     0.00  -0.01   0.01     0.05  -0.02   0.03
  53   1     0.00  -0.02  -0.02     0.02  -0.03  -0.00     0.01  -0.05   0.06
                     19                     20                     21
                        a                      a                      a 
 Frequencies --   124.6405               131.2860               150.3471
 Red. masses --    12.8352                11.6402                12.8309
 Frc consts  --     0.0000                 0.0000                 0.0000
 IR Inten    --    12.1306                24.0223                13.1514
 Raman Activ --     0.0000                 0.0000                 0.0000
 Depolar     --     0.0000                 0.0000                 0.0000
 Atom AN      X      Y      Z        X      Y      Z        X      Y      Z
   1   8     0.01  -0.04  -0.06    -0.12   0.15   0.03     0.11   0.17   0.12
   2   6     0.00   0.07   0.04    -0.23  -0.17  -0.12    -0.00  -0.06   0.01
   3   1    -0.02   0.04   0.01    -0.00  -0.12  -0.03     0.03  -0.07   0.02
   4   1     0.02   0.02   0.03    -0.14  -0.07  -0.07    -0.04  -0.03  -0.02
   5   6    -0.01   0.08   0.03    -0.29  -0.08  -0.11    -0.11  -0.02  -0.04
   6   1     0.00   0.02   0.01    -0.11   0.01  -0.03    -0.04   0.02  -0.03
   7   1    -0.01   0.03   0.02    -0.10  -0.04  -0.04    -0.05  -0.02  -0.01
   8   7    -0.05   0.12  -0.01    -0.15  -0.00  -0.09    -0.06   0.03  -0.06
   9   6     0.00   0.12  -0.07    -0.05   0.12  -0.02    -0.02   0.07  -0.04
  10   1     0.01   0.04  -0.03    -0.05   0.06   0.01    -0.01   0.03  -0.01
  11   1    -0.01   0.04  -0.03     0.03   0.06   0.01     0.00   0.02  -0.01
  12   1     0.01   0.03  -0.01     0.00   0.01  -0.02    -0.00   0.01  -0.01
  13   6    -0.10   0.11  -0.05    -0.19   0.11  -0.03    -0.08   0.08  -0.04
  14   1    -0.03   0.04  -0.02    -0.08   0.05   0.00    -0.03   0.04  -0.01
  15   1    -0.04   0.02  -0.01    -0.07   0.02  -0.01    -0.03   0.01  -0.02
  16   1    -0.03   0.03  -0.01    -0.03   0.05  -0.01    -0.01   0.03  -0.01
  17   6    -0.09   0.10   0.05     0.01  -0.15  -0.15    -0.00  -0.01  -0.09
  18   1    -0.01   0.03   0.02     0.02  -0.07  -0.06    -0.01  -0.00  -0.03
  19   1    -0.04   0.03   0.01     0.05  -0.02  -0.03     0.01  -0.00  -0.01
  20   1    -0.03   0.03   0.02    -0.02  -0.07  -0.06     0.00  -0.01  -0.04
  21   1     0.01  -0.02  -0.01    -0.04   0.06  -0.02     0.03   0.06  -0.01
  22   6    -0.07   0.05  -0.06     0.16   0.01   0.03     0.07  -0.11   0.10
  23   8    -0.10   0.06  -0.05     0.44  -0.17  -0.06     0.05  -0.10   0.11
  24   7    -0.10   0.06  -0.05    -0.04   0.08   0.05     0.13  -0.13   0.06
  25   1    -0.03   0.01  -0.02    -0.01  -0.01  -0.01     0.05  -0.03   0.01
  26   1    -0.02   0.02  -0.02    -0.08   0.05   0.04     0.05  -0.04   0.01
  27   7    -0.02   0.04  -0.09     0.09   0.20   0.20     0.02  -0.12   0.12
  28   1     0.00   0.01  -0.03     0.00   0.10   0.05     0.00  -0.04   0.04
  29   1     0.00   0.01  -0.03     0.10   0.04   0.05    -0.02  -0.03   0.04
  30   6     0.01  -0.17  -0.11     0.01  -0.03   0.01     0.02   0.10  -0.04
  31   8    -0.15  -0.34  -0.10    -0.04  -0.16   0.03     0.18   0.42  -0.09
  32   7     0.10   0.16  -0.04     0.05   0.03   0.06    -0.10  -0.07  -0.19
  33   1     0.01   0.07   0.02     0.01  -0.02   0.04    -0.02   0.02  -0.11
  34   1     0.04   0.07  -0.01     0.03   0.03   0.02    -0.08  -0.07  -0.05
  35   7     0.06  -0.37  -0.20     0.03   0.04  -0.02    -0.04  -0.08   0.09
  36   1     0.03  -0.06  -0.06     0.01   0.03  -0.01    -0.03  -0.07   0.04
  37   1     0.01  -0.08  -0.06     0.00  -0.00  -0.01    -0.00   0.01   0.04
  38   6     0.18  -0.04   0.13     0.04  -0.02   0.01     0.10  -0.03   0.10
  39   8     0.20  -0.11   0.05     0.04   0.01   0.09     0.11  -0.14  -0.06
  40   7     0.11  -0.03   0.18     0.13  -0.06  -0.02    -0.05   0.03   0.19
  41   1     0.01  -0.01   0.04     0.06  -0.00   0.00    -0.04   0.03   0.02
  42   1     0.03   0.01   0.06     0.04  -0.01  -0.03     0.00   0.07   0.08
  43   7     0.29  -0.01   0.19    -0.03  -0.04  -0.03     0.27   0.01   0.20
  44   1     0.07  -0.00   0.06    -0.01  -0.02  -0.02     0.07   0.01   0.07
  45   1     0.08  -0.01   0.05    -0.02  -0.00  -0.01     0.08  -0.01   0.05
  46   6    -0.07   0.03   0.06     0.04   0.02   0.03    -0.13  -0.00  -0.09
  47   8     0.01   0.13   0.04     0.04   0.01   0.04    -0.17   0.09  -0.12
  48   7    -0.10   0.03   0.12     0.04   0.04   0.03    -0.11  -0.08  -0.11
  49   1    -0.02  -0.02   0.04     0.01  -0.01   0.01    -0.04   0.03  -0.03
  50   1    -0.02  -0.04   0.04     0.01  -0.00   0.01    -0.03  -0.01  -0.03
  51   7    -0.11  -0.08   0.00     0.05   0.01   0.05    -0.14  -0.03  -0.11
  52   1    -0.06   0.01  -0.01     0.01   0.03   0.01    -0.03  -0.08  -0.01
  53   1    -0.03   0.03  -0.03     0.01   0.02   0.01    -0.03  -0.04  -0.03
                     22                     23                     24
                        a                      a                      a 
 Frequencies --   164.7650               172.8482               184.8644
 Red. masses --    13.2816                12.8195                12.4866
 Frc consts  --     0.0000                 0.0000                 0.0000
 IR Inten    --     8.8241                 8.8889                34.8271
 Raman Activ --     0.0000                 0.0000                 0.0000
 Depolar     --     0.0000                 0.0000                 0.0000
 Atom AN      X      Y      Z        X      Y      Z        X      Y      Z
   1   8    -0.32  -0.38  -0.29     0.04   0.05   0.03     0.08   0.06   0.05
   2   6    -0.15   0.05  -0.07     0.02   0.01   0.02     0.04   0.00   0.02
   3   1    -0.09   0.09  -0.05     0.01  -0.00   0.01     0.02  -0.01   0.02
   4   1     0.02   0.02   0.03     0.00   0.00   0.00     0.00   0.00   0.00
   5   6     0.04   0.03   0.08    -0.00   0.01  -0.01    -0.01   0.00  -0.02
   6   1     0.02  -0.03   0.05    -0.00   0.01  -0.01    -0.01   0.01  -0.01
   7   1     0.05   0.04   0.02    -0.01  -0.00  -0.00    -0.02  -0.01  -0.01
   8   7    -0.01  -0.01   0.10     0.00   0.02  -0.01     0.01   0.00  -0.01
   9   6    -0.01  -0.04   0.05     0.01   0.02  -0.01     0.01   0.01   0.00
  10   1    -0.00  -0.02   0.02     0.00   0.01  -0.01    -0.00   0.01   0.01
  11   1    -0.00   0.00   0.01     0.00   0.01  -0.00     0.01   0.01   0.00
  12   1    -0.00  -0.02   0.00     0.00   0.01  -0.00     0.00   0.00  -0.00
  13   6     0.01  -0.04   0.07    -0.01   0.02  -0.01     0.01   0.00  -0.01
  14   1    -0.00  -0.01   0.02    -0.00   0.01  -0.01     0.01  -0.01  -0.00
  15   1     0.01  -0.02   0.01    -0.00   0.00  -0.00     0.00   0.01   0.00
  16   1     0.00  -0.02   0.03    -0.00   0.01  -0.00    -0.01   0.00  -0.01
  17   6    -0.05   0.01   0.13     0.00   0.01  -0.01     0.02  -0.01  -0.02
  18   1     0.00  -0.01   0.04    -0.00   0.01  -0.00    -0.01   0.01  -0.00
  19   1    -0.03   0.02   0.02     0.00  -0.00   0.00     0.01  -0.02   0.01
  20   1    -0.03   0.01   0.06     0.00   0.00  -0.01     0.02  -0.00  -0.02
  21   1    -0.09  -0.13  -0.00     0.01   0.01   0.00     0.02   0.02   0.00
  22   6     0.14   0.11  -0.04    -0.02  -0.02   0.00    -0.06  -0.01  -0.02
  23   8     0.32   0.18  -0.20    -0.04  -0.03   0.02    -0.09  -0.07   0.03
  24   7     0.15   0.14   0.19    -0.00  -0.03  -0.05    -0.11  -0.01  -0.10
  25   1     0.06   0.05   0.05    -0.03  -0.01   0.00    -0.04  -0.01  -0.03
  26   1    -0.02   0.02   0.10    -0.01  -0.00  -0.01    -0.02   0.01  -0.04
  27   7    -0.06   0.04   0.02    -0.00  -0.00   0.00     0.03   0.05  -0.03
  28   1    -0.00  -0.01   0.01    -0.00   0.00  -0.00    -0.01   0.04  -0.01
  29   1     0.04  -0.00  -0.06    -0.01   0.00   0.01    -0.00   0.02   0.02
  30   6     0.03   0.01   0.04    -0.25  -0.04   0.14     0.15   0.04  -0.03
  31   8     0.13  -0.01   0.03    -0.34  -0.04   0.18     0.02  -0.07  -0.01
  32   7    -0.04  -0.00  -0.05    -0.17   0.04   0.29     0.27  -0.01   0.13
  33   1     0.00  -0.02  -0.03    -0.06   0.02   0.11     0.07  -0.05   0.09
  34   1    -0.03  -0.00  -0.01    -0.01  -0.00   0.07     0.13   0.00   0.03
  35   7    -0.00   0.04   0.11    -0.20  -0.11   0.06     0.19   0.23  -0.15
  36   1    -0.01   0.02   0.03    -0.03  -0.01   0.01     0.06   0.08  -0.05
  37   1     0.00   0.01   0.03    -0.07  -0.04  -0.00     0.04   0.05  -0.07
  38   6     0.03  -0.01   0.02     0.05   0.00   0.06     0.01  -0.02   0.02
  39   8     0.03  -0.07  -0.08     0.06  -0.03  -0.02     0.01  -0.07  -0.05
  40   7    -0.08   0.04   0.08    -0.03   0.01   0.10    -0.05   0.03   0.05
  41   1    -0.05   0.01   0.00    -0.02   0.01   0.01    -0.03   0.01   0.00
  42   1    -0.02   0.03   0.05    -0.00   0.03   0.04    -0.01   0.03   0.03
  43   7     0.14   0.02   0.08     0.12   0.03   0.09     0.09   0.03   0.04
  44   1     0.03   0.00   0.04     0.03  -0.00   0.03     0.01  -0.02   0.02
  45   1     0.04  -0.01   0.02     0.03  -0.00   0.03     0.00  -0.03   0.02
  46   6    -0.07  -0.01  -0.08     0.18   0.02  -0.21    -0.18  -0.06  -0.00
  47   8    -0.17  -0.03  -0.08     0.01   0.02  -0.24    -0.47  -0.19   0.05
  48   7    -0.02  -0.04  -0.18     0.25  -0.01  -0.37    -0.05  -0.05  -0.30
  49   1    -0.00  -0.03  -0.05     0.07  -0.02  -0.11    -0.03  -0.04  -0.11
  50   1     0.02  -0.04  -0.04     0.09  -0.04  -0.09     0.04  -0.01  -0.09
  51   7    -0.00  -0.04   0.02     0.31   0.02  -0.08     0.05   0.07   0.35
  52   1     0.00   0.10  -0.02     0.11   0.06  -0.04     0.10   0.10   0.07
  53   1    -0.02   0.07   0.00     0.06   0.06  -0.00    -0.03   0.05   0.18
                     25                     26                     27
                        a                      a                      a 
 Frequencies --   192.1849               204.3674               205.7952
 Red. masses --    12.6693                 5.7057                 5.9766
 Frc consts  --     0.0000                 0.0000                 0.0000
 IR Inten    --    11.9089                54.5223                11.4810
 Raman Activ --     0.0000                 0.0000                 0.0000
 Depolar     --     0.0000                 0.0000                 0.0000
 Atom AN      X      Y      Z        X      Y      Z        X      Y      Z
   1   8     0.02   0.07   0.08    -0.25   0.05   0.27    -0.23   0.13   0.32
   2   6     0.02   0.00   0.02    -0.04  -0.10  -0.05    -0.03  -0.10  -0.05
   3   1     0.01  -0.01   0.01     0.03  -0.06  -0.05     0.05  -0.07  -0.05
   4   1    -0.00   0.00  -0.01    -0.07  -0.03  -0.07    -0.09  -0.04  -0.08
   5   6     0.01  -0.01   0.00     0.18  -0.10   0.12     0.18  -0.10   0.11
   6   1     0.01  -0.00  -0.00     0.07  -0.09   0.08     0.07  -0.09   0.07
   7   1     0.00  -0.00   0.00     0.10   0.03   0.06     0.10   0.03   0.06
   8   7     0.01   0.00  -0.01     0.07  -0.03  -0.02     0.07  -0.02  -0.05
   9   6     0.02   0.01  -0.02     0.10  -0.08  -0.16     0.11  -0.07  -0.18
  10   1     0.01   0.00  -0.01     0.11  -0.03  -0.13     0.12  -0.03  -0.15
  11   1     0.01   0.00  -0.01    -0.07  -0.08  -0.07    -0.08  -0.10  -0.07
  12   1     0.01   0.00  -0.01     0.05   0.04   0.04     0.05   0.06   0.05
  13   6    -0.01   0.02  -0.02    -0.05   0.05  -0.06    -0.04   0.05  -0.09
  14   1     0.01  -0.00  -0.01    -0.04   0.05  -0.03    -0.04   0.06  -0.04
  15   1    -0.01   0.02   0.01    -0.04  -0.02  -0.03    -0.04  -0.02  -0.04
  16   1    -0.02   0.01  -0.02     0.01   0.03  -0.01     0.02   0.02  -0.01
  17   6     0.01   0.00  -0.01    -0.03   0.06   0.03    -0.03   0.07   0.01
  18   1    -0.00   0.00   0.00     0.08  -0.09  -0.01     0.08  -0.09  -0.01
  19   1     0.00  -0.00   0.00    -0.03   0.12  -0.10    -0.03   0.13  -0.11
  20   1     0.00  -0.00  -0.01    -0.09   0.03   0.13    -0.09   0.04   0.13
  21   1     0.02   0.01  -0.00    -0.06   0.00   0.05    -0.06   0.03   0.07
  22   6    -0.11   0.05  -0.10     0.01   0.03  -0.02     0.00  -0.00   0.00
  23   8    -0.11  -0.11  -0.03     0.02   0.06  -0.04    -0.00   0.01  -0.00
  24   7    -0.31   0.07  -0.17     0.02   0.04   0.03     0.02  -0.00   0.01
  25   1    -0.06   0.00  -0.08     0.00   0.01   0.01     0.01   0.00   0.00
  26   1    -0.05   0.03  -0.07    -0.01   0.00   0.02     0.01  -0.01   0.00
  27   7     0.05   0.20  -0.08    -0.03   0.01  -0.02    -0.01  -0.03  -0.01
  28   1    -0.00   0.10  -0.04     0.01  -0.01  -0.02    -0.01  -0.01   0.01
  29   1     0.05   0.05   0.01     0.01  -0.00  -0.03    -0.02  -0.00   0.00
  30   6     0.12  -0.08   0.16     0.00  -0.03   0.01    -0.01   0.03  -0.02
  31   8     0.41  -0.29   0.17    -0.01  -0.11   0.02    -0.03   0.10  -0.03
  32   7    -0.10   0.01  -0.12     0.02   0.03   0.02     0.00  -0.02  -0.00
  33   1     0.01  -0.03  -0.09     0.00  -0.00   0.02    -0.00   0.00  -0.00
  34   1    -0.10   0.03  -0.02     0.01   0.03   0.01     0.00  -0.02  -0.00
  35   7     0.00   0.05   0.46     0.01   0.01  -0.00     0.00   0.00  -0.05
  36   1    -0.05   0.08   0.11     0.00   0.02  -0.01     0.00  -0.01  -0.01
  37   1     0.02  -0.01   0.15    -0.00   0.01  -0.01     0.00   0.00  -0.01
  38   6     0.01  -0.03   0.01     0.01   0.01  -0.01    -0.00  -0.01  -0.01
  39   8     0.01  -0.04  -0.03     0.01  -0.01  -0.04     0.01   0.03  -0.01
  40   7    -0.01   0.07   0.02    -0.04  -0.04   0.01     0.03   0.08  -0.02
  41   1    -0.06  -0.08   0.01     0.02   0.08  -0.02    -0.06  -0.14   0.02
  42   1    -0.06  -0.11   0.04     0.04   0.11  -0.01    -0.08  -0.21   0.03
  43   7     0.06  -0.00   0.03     0.02  -0.02   0.00     0.01   0.01  -0.01
  44   1     0.03   0.03   0.01     0.00  -0.01   0.01     0.02   0.03  -0.01
  45   1     0.03   0.01   0.00     0.01  -0.00   0.00     0.01   0.01  -0.01
  46   6    -0.01  -0.01  -0.07    -0.01  -0.01  -0.01    -0.01   0.01   0.01
  47   8    -0.01   0.01  -0.09    -0.07   0.09  -0.03     0.03  -0.07   0.03
  48   7    -0.02   0.02  -0.07     0.01   0.02  -0.05    -0.01  -0.02   0.02
  49   1     0.02  -0.03   0.01    -0.02   0.06  -0.03     0.01  -0.06   0.02
  50   1     0.00  -0.05  -0.00    -0.01   0.12  -0.04     0.02  -0.12   0.03
  51   7    -0.02  -0.03  -0.11     0.01   0.19  -0.02    -0.01  -0.16   0.05
  52   1    -0.02   0.00  -0.03     0.10  -0.50   0.14    -0.08   0.43  -0.11
  53   1    -0.00   0.01  -0.05     0.04  -0.35   0.10    -0.04   0.31  -0.07
                     28                     29                     30
                        a                      a                      a 
 Frequencies --   206.8959               259.3361               285.6444
 Red. masses --     2.7581                 4.4227                 3.1174
 Frc consts  --     0.0000                 0.0000                 0.0000
 IR Inten    --   268.1409                 1.6891               155.6431
 Raman Activ --     0.0000                 0.0000                 0.0000
 Depolar     --     0.0000                 0.0000                 0.0000
 Atom AN      X      Y      Z        X      Y      Z        X      Y      Z
   1   8     0.03  -0.03  -0.07    -0.26  -0.01   0.27     0.01  -0.01   0.06
   2   6    -0.01   0.01  -0.00     0.01   0.04   0.09     0.04   0.07   0.09
   3   1    -0.01   0.01   0.01    -0.03   0.04   0.03    -0.02   0.04   0.05
   4   1     0.01   0.00   0.01     0.03   0.05  -0.01     0.05   0.04   0.03
   5   6    -0.04   0.01  -0.02     0.10  -0.10   0.05    -0.01  -0.01  -0.02
   6   1    -0.02   0.01  -0.01     0.04  -0.04   0.01    -0.00   0.01  -0.03
   7   1    -0.02  -0.00  -0.01     0.03  -0.02   0.03    -0.02  -0.02  -0.00
   8   7    -0.03  -0.00   0.00     0.05  -0.04  -0.07    -0.00  -0.01  -0.03
   9   6    -0.03   0.01   0.03     0.15  -0.01  -0.15    -0.02  -0.00  -0.01
  10   1    -0.03   0.00   0.03    -0.12  -0.01   0.14     0.03   0.00  -0.05
  11   1     0.01   0.02   0.01     0.24   0.19  -0.05    -0.06  -0.05   0.00
  12   1    -0.01  -0.01  -0.01     0.04  -0.18  -0.24    -0.01   0.05   0.05
  13   6    -0.01  -0.02   0.01    -0.07   0.05  -0.09    -0.01   0.03  -0.00
  14   1     0.01  -0.02   0.00     0.14  -0.16  -0.06    -0.03   0.04   0.01
  15   1     0.01   0.01   0.01    -0.01   0.16   0.17    -0.01  -0.02  -0.03
  16   1    -0.01  -0.01  -0.00    -0.22   0.06  -0.20     0.04   0.01   0.02
  17   6    -0.01  -0.03  -0.00     0.02   0.00  -0.05     0.06  -0.05  -0.09
  18   1    -0.02   0.01   0.00    -0.20   0.25   0.03     0.00  -0.00  -0.03
  19   1     0.00  -0.03   0.02    -0.01  -0.25   0.18     0.04  -0.02  -0.00
  20   1     0.01  -0.01  -0.02     0.20   0.01  -0.25     0.03  -0.02  -0.05
  21   1     0.00  -0.01  -0.01    -0.06  -0.03   0.08    -0.01  -0.00   0.05
  22   6     0.03  -0.00   0.02     0.01   0.02  -0.01     0.02  -0.03  -0.04
  23   8     0.03   0.02   0.00     0.02   0.03  -0.02    -0.05   0.01   0.00
  24   7     0.06  -0.01   0.03     0.03   0.02   0.03     0.02  -0.02  -0.02
  25   1     0.01   0.00   0.02     0.01   0.01   0.01    -0.05   0.00   0.04
  26   1     0.01  -0.00   0.02    -0.00  -0.00   0.02    -0.15   0.01   0.08
  27   7    -0.01  -0.03   0.02    -0.02  -0.01  -0.01    -0.26   0.06   0.23
  28   1     0.01  -0.02   0.00     0.01  -0.01  -0.01     0.55  -0.17  -0.47
  29   1     0.00  -0.01  -0.01     0.00  -0.00  -0.02     0.35  -0.07  -0.28
  30   6    -0.02   0.00  -0.02    -0.00  -0.00  -0.01     0.00   0.01  -0.01
  31   8    -0.07   0.03  -0.02    -0.01   0.03  -0.01     0.01   0.01  -0.01
  32   7     0.02  -0.01   0.03    -0.00  -0.01  -0.00     0.01  -0.01  -0.01
  33   1    -0.00   0.01   0.02    -0.00  -0.00   0.00    -0.00   0.01  -0.00
  34   1     0.01  -0.01   0.01     0.00  -0.01  -0.00     0.00   0.01  -0.00
  35   7     0.00  -0.03  -0.06    -0.00  -0.02  -0.01     0.00   0.01  -0.00
  36   1     0.00   0.01  -0.02    -0.00   0.02  -0.01    -0.00  -0.00   0.00
  37   1    -0.00   0.00  -0.02    -0.00  -0.01  -0.01     0.00   0.00   0.00
  38   6     0.01  -0.03   0.02    -0.01  -0.00   0.00    -0.00   0.00   0.00
  39   8     0.07   0.11  -0.00    -0.01  -0.00   0.01    -0.00   0.00   0.00
  40   7     0.10   0.24  -0.03     0.01  -0.00  -0.00     0.00   0.00  -0.00
  41   1    -0.19  -0.44   0.07     0.01   0.01  -0.00     0.00  -0.00   0.00
  42   1    -0.26  -0.65   0.10     0.01   0.01  -0.00    -0.00  -0.00  -0.00
  43   7     0.00  -0.00   0.02    -0.00   0.01  -0.00    -0.00   0.00  -0.00
  44   1     0.08   0.13  -0.03    -0.01  -0.01   0.00    -0.00  -0.00  -0.00
  45   1     0.04   0.10  -0.02    -0.00  -0.01   0.00    -0.00  -0.00   0.00
  46   6    -0.01  -0.02   0.00     0.00   0.00   0.00    -0.00  -0.01   0.00
  47   8    -0.04  -0.01   0.00     0.00   0.00   0.00     0.00  -0.01   0.00
  48   7     0.00  -0.00  -0.03    -0.00  -0.00   0.01    -0.00   0.01  -0.01
  49   1    -0.01   0.04  -0.02    -0.00  -0.00   0.00    -0.00  -0.00  -0.00
  50   1    -0.01   0.07  -0.03    -0.00  -0.00   0.00     0.01  -0.03   0.01
  51   7     0.00   0.09   0.01    -0.00  -0.01   0.00     0.00   0.00   0.01
  52   1     0.05  -0.21   0.06    -0.00   0.01  -0.00     0.00   0.02  -0.00
  53   1     0.02  -0.16   0.05    -0.00   0.01  -0.00    -0.00   0.02   0.00
                     31                     32                     33
                        a                      a                      a 
 Frequencies --   287.9651               304.4286               317.1105
 Red. masses --     7.6794                 2.4781                 7.5344
 Frc consts  --     0.0000                 0.0000                 0.0000
 IR Inten    --     2.9166                 7.4289                 2.2153
 Raman Activ --     0.0000                 0.0000                 0.0000
 Depolar     --     0.0000                 0.0000                 0.0000
 Atom AN      X      Y      Z        X      Y      Z        X      Y      Z
   1   8    -0.06   0.04  -0.02     0.09   0.16  -0.10    -0.13  -0.23   0.27
   2   6    -0.01   0.36   0.23    -0.00   0.02  -0.10     0.16   0.05   0.20
   3   1    -0.13   0.21   0.14     0.04  -0.03  -0.05    -0.01   0.08   0.06
   4   1     0.17   0.19   0.10    -0.05  -0.01  -0.04     0.13   0.06   0.07
   5   6    -0.04  -0.08  -0.03     0.05   0.04  -0.01     0.07  -0.02   0.02
   6   1     0.01  -0.01  -0.05     0.02  -0.00   0.01     0.05  -0.01  -0.03
   7   1    -0.01  -0.04  -0.03     0.04   0.02  -0.01    -0.01   0.01   0.05
   8   7    -0.04  -0.14  -0.02     0.00  -0.06   0.06    -0.05   0.05  -0.13
   9   6     0.02  -0.24  -0.25     0.02  -0.11  -0.03    -0.17   0.18   0.22
  10   1     0.05  -0.11  -0.09    -0.24  -0.07   0.29    -0.20   0.09   0.20
  11   1    -0.05  -0.06  -0.12     0.29   0.25  -0.02     0.13   0.11   0.15
  12   1     0.02  -0.07  -0.06    -0.02  -0.30  -0.33    -0.11  -0.01  -0.06
  13   6    -0.12   0.24   0.24    -0.03   0.00   0.09    -0.02  -0.11  -0.26
  14   1    -0.12   0.11   0.13     0.04  -0.07   0.03    -0.11   0.12  -0.09
  15   1    -0.07   0.03   0.07    -0.01   0.05   0.10    -0.03  -0.16  -0.23
  16   1     0.07   0.15   0.07    -0.07   0.03  -0.04     0.12  -0.09   0.06
  17   6     0.16  -0.25  -0.17    -0.08   0.00   0.11     0.10   0.02  -0.30
  18   1     0.10  -0.15  -0.08     0.18  -0.25  -0.01     0.09  -0.12  -0.15
  19   1     0.11   0.01  -0.08    -0.04   0.25  -0.19     0.08   0.13  -0.16
  20   1    -0.02  -0.10  -0.02    -0.22   0.01   0.29    -0.04   0.00  -0.00
  21   1     0.03  -0.05  -0.03    -0.00   0.07  -0.01    -0.02  -0.10   0.12
  22   6    -0.01   0.02   0.02    -0.00  -0.01   0.00     0.01   0.02  -0.02
  23   8    -0.01   0.02   0.01    -0.03  -0.00   0.02     0.03   0.01  -0.03
  24   7     0.02   0.01   0.02    -0.01  -0.01  -0.02     0.01   0.02   0.01
  25   1     0.02   0.01   0.00    -0.01  -0.01  -0.00     0.01   0.01  -0.00
  26   1     0.03  -0.00  -0.01    -0.02   0.00   0.00     0.02  -0.00  -0.00
  27   7     0.06  -0.00  -0.04    -0.05  -0.00   0.04     0.00  -0.01  -0.04
  28   1    -0.09   0.03   0.08     0.10  -0.04  -0.08    -0.07   0.02   0.05
  29   1    -0.06   0.02   0.05     0.05  -0.01  -0.05    -0.03   0.00   0.01
  30   6    -0.00  -0.00  -0.00    -0.00   0.00  -0.00    -0.00  -0.00   0.01
  31   8    -0.00  -0.00  -0.00    -0.00   0.01  -0.00     0.00  -0.02   0.01
  32   7     0.00  -0.01  -0.00     0.00  -0.00   0.00    -0.00   0.01  -0.00
  33   1     0.00  -0.00  -0.00     0.00   0.00  -0.00    -0.00   0.00   0.00
  34   1     0.00  -0.00  -0.00     0.00  -0.01  -0.00    -0.00   0.02   0.00
  35   7     0.00  -0.01  -0.00    -0.00  -0.01  -0.00     0.00   0.03  -0.00
  36   1     0.00   0.01  -0.00    -0.00   0.02  -0.01     0.00  -0.04   0.01
  37   1    -0.00  -0.01  -0.00    -0.00  -0.00  -0.00     0.00   0.00   0.00
  38   6     0.00   0.00   0.00     0.00  -0.00  -0.01     0.00   0.00   0.00
  39   8     0.01   0.01  -0.00     0.00  -0.01  -0.01     0.00   0.00   0.00
  40   7     0.00  -0.00  -0.00    -0.01  -0.00  -0.00     0.00  -0.00   0.00
  41   1     0.00  -0.00   0.00    -0.00   0.00  -0.00    -0.00  -0.00   0.00
  42   1    -0.00  -0.01  -0.00     0.00   0.01   0.00    -0.00  -0.01   0.00
  43   7     0.01   0.00   0.00     0.02  -0.01   0.00    -0.01  -0.00   0.00
  44   1    -0.00  -0.00   0.00     0.00  -0.00   0.00     0.00   0.01  -0.00
  45   1     0.00  -0.00   0.00     0.01  -0.00  -0.00    -0.00   0.00  -0.00
  46   6    -0.00  -0.00   0.00    -0.00  -0.00   0.00    -0.00   0.00  -0.00
  47   8     0.00  -0.01   0.00     0.00  -0.01   0.00    -0.00   0.00  -0.00
  48   7     0.00  -0.01  -0.00    -0.00   0.00  -0.00     0.00  -0.01  -0.00
  49   1     0.00  -0.00  -0.00    -0.00  -0.00  -0.00     0.00   0.00  -0.00
  50   1    -0.00   0.01  -0.00     0.00  -0.01   0.00    -0.00   0.01  -0.00
  51   7    -0.00  -0.01   0.00     0.00   0.00   0.00     0.00  -0.01  -0.00
  52   1    -0.00   0.00  -0.00    -0.00   0.01  -0.00    -0.00   0.00  -0.00
  53   1     0.00  -0.00  -0.00    -0.00   0.01   0.00     0.00  -0.00  -0.00
                     34                     35                     36
                        a                      a                      a 
 Frequencies --   339.9014               378.2205               403.5515
 Red. masses --     2.1264                 7.7988                 3.2266
 Frc consts  --     0.0000                 0.0000                 0.0000
 IR Inten    --     0.3434                 0.8508               201.7202
 Raman Activ --     0.0000                 0.0000                 0.0000
 Depolar     --     0.0000                 0.0000                 0.0000
 Atom AN      X      Y      Z        X      Y      Z        X      Y      Z
   1   8     0.02   0.09  -0.03    -0.07  -0.02   0.09    -0.01  -0.02   0.01
   2   6    -0.03  -0.04  -0.07    -0.13   0.05   0.20     0.00   0.01   0.01
   3   1     0.01  -0.04  -0.02    -0.12   0.05   0.15    -0.01   0.01   0.01
   4   1    -0.04  -0.02  -0.04     0.07   0.07   0.07     0.01   0.01   0.00
   5   6     0.04  -0.02   0.01    -0.31  -0.13  -0.11    -0.01  -0.00  -0.01
   6   1     0.01  -0.03   0.04    -0.14   0.07  -0.08    -0.00   0.00  -0.01
   7   1     0.04   0.01  -0.01    -0.15  -0.12  -0.07    -0.01  -0.00  -0.00
   8   7     0.03  -0.02   0.01    -0.02  -0.07  -0.05    -0.00  -0.00  -0.00
   9   6     0.07  -0.11  -0.14     0.36   0.16  -0.18     0.01   0.01   0.00
  10   1    -0.07  -0.06   0.09     0.09   0.12  -0.10     0.00   0.01  -0.00
  11   1     0.13   0.10  -0.06     0.11   0.09  -0.08     0.00   0.00   0.00
  12   1     0.01  -0.16  -0.18     0.21  -0.01  -0.01     0.01   0.00   0.00
  13   6     0.01   0.03   0.04     0.28  -0.25   0.05     0.01  -0.01   0.01
  14   1    -0.30   0.36   0.07     0.08  -0.10   0.05     0.00  -0.00   0.00
  15   1    -0.06  -0.28  -0.31     0.17  -0.05  -0.05     0.01  -0.00   0.00
  16   1     0.38  -0.02   0.30     0.09  -0.13   0.07     0.00  -0.00   0.00
  17   6    -0.12   0.04   0.15    -0.20   0.18  -0.02    -0.01   0.00  -0.01
  18   1    -0.15   0.19   0.10    -0.02   0.01  -0.01    -0.00   0.00  -0.00
  19   1    -0.08  -0.17   0.16    -0.13   0.11  -0.10    -0.00   0.00  -0.00
  20   1     0.09   0.02  -0.09    -0.08   0.11   0.11    -0.00   0.00   0.00
  21   1    -0.00   0.04  -0.02     0.01  -0.03  -0.02     0.01  -0.02  -0.02
  22   6    -0.00  -0.00   0.00    -0.01  -0.01   0.00     0.06  -0.01  -0.02
  23   8    -0.01  -0.00   0.00    -0.00  -0.00  -0.01     0.03   0.01  -0.02
  24   7    -0.01  -0.00  -0.01     0.02  -0.01   0.02    -0.10   0.01   0.04
  25   1    -0.00  -0.00  -0.00     0.00   0.00   0.01     0.04   0.01  -0.02
  26   1     0.00  -0.00  -0.01    -0.03  -0.00   0.02     0.27  -0.04  -0.15
  27   7    -0.01   0.00   0.01     0.02   0.02   0.01    -0.04  -0.00   0.04
  28   1     0.02  -0.00  -0.01     0.00   0.02  -0.00    -0.00  -0.01   0.01
  29   1     0.00  -0.00  -0.00     0.01   0.01   0.02     0.02  -0.01  -0.02
  30   6    -0.00   0.00   0.01     0.00  -0.00   0.00    -0.02   0.03  -0.01
  31   8     0.01  -0.02   0.01     0.01  -0.01   0.00    -0.02   0.04  -0.01
  32   7     0.00   0.00  -0.00    -0.00   0.01  -0.00     0.02  -0.02   0.02
  33   1    -0.00   0.01   0.00     0.00  -0.00   0.00    -0.01   0.04   0.00
  34   1    -0.00   0.03   0.01    -0.00   0.02   0.00     0.01  -0.02   0.00
  35   7     0.00   0.03  -0.01    -0.00   0.03  -0.00    -0.01  -0.01  -0.02
  36   1     0.00  -0.06   0.01     0.00  -0.05   0.01    -0.00   0.01  -0.01
  37   1     0.00   0.01   0.00     0.00  -0.01   0.00    -0.00   0.02  -0.00
  38   6    -0.00   0.01   0.01     0.01   0.01  -0.00     0.01   0.02  -0.00
  39   8    -0.00   0.01   0.01     0.00   0.00  -0.00     0.01   0.01  -0.01
  40   7     0.01  -0.00   0.00    -0.01  -0.01   0.00    -0.01  -0.03   0.00
  41   1     0.00  -0.00   0.00    -0.00   0.00  -0.00     0.01   0.01  -0.00
  42   1    -0.00  -0.01  -0.00    -0.00   0.00   0.00     0.01   0.01  -0.00
  43   7    -0.02   0.00  -0.00    -0.02  -0.02   0.00    -0.04  -0.05   0.01
  44   1    -0.00   0.01  -0.00     0.02   0.05  -0.01     0.08   0.14  -0.02
  45   1    -0.00   0.00  -0.00     0.00   0.01  -0.00     0.01   0.02  -0.01
  46   6    -0.00  -0.00  -0.00    -0.00   0.01  -0.00     0.02  -0.14   0.04
  47   8    -0.00  -0.00  -0.00    -0.00   0.00  -0.00     0.03  -0.07   0.01
  48   7    -0.00   0.00  -0.00     0.00  -0.01   0.00    -0.07   0.26  -0.07
  49   1     0.00  -0.00   0.00    -0.00   0.01  -0.00     0.03  -0.07   0.03
  50   1     0.00  -0.01   0.00    -0.01   0.03  -0.01     0.14  -0.78   0.20
  51   7     0.00   0.00   0.00     0.00  -0.01   0.00    -0.03   0.19  -0.02
  52   1     0.00   0.00   0.00    -0.00   0.01  -0.00     0.02  -0.09   0.03
  53   1    -0.00   0.00   0.00     0.00  -0.00  -0.00     0.01  -0.08   0.03
                     37                     38                     39
                        a                      a                      a 
 Frequencies --   418.4510               432.9031               435.9951
 Red. masses --     2.9197                 3.4600                 7.3715
 Frc consts  --     0.0000                 0.0000                 0.0000
 IR Inten    --   177.9202               105.4166                15.8285
 Raman Activ --     0.0000                 0.0000                 0.0000
 Depolar     --     0.0000                 0.0000                 0.0000
 Atom AN      X      Y      Z        X      Y      Z        X      Y      Z
   1   8    -0.01  -0.00   0.02     0.04   0.05  -0.09     0.09   0.10  -0.18
   2   6     0.02  -0.01  -0.01    -0.04   0.04  -0.01    -0.09   0.07  -0.01
   3   1     0.01  -0.01  -0.01    -0.01   0.01  -0.00    -0.02   0.02  -0.01
   4   1    -0.01  -0.01  -0.01    -0.01   0.01   0.00    -0.02   0.02   0.01
   5   6     0.01   0.03   0.00     0.05  -0.05   0.05     0.08  -0.09   0.09
   6   1     0.00   0.01  -0.00     0.03  -0.06   0.03     0.05  -0.08   0.05
   7   1    -0.01  -0.00   0.01     0.05   0.02   0.01     0.09   0.02   0.01
   8   7     0.01   0.05  -0.01    -0.03  -0.13   0.07    -0.02  -0.24   0.18
   9   6    -0.06  -0.02  -0.03     0.13   0.01   0.10     0.24  -0.03   0.21
  10   1    -0.01  -0.03   0.01     0.03   0.05  -0.00     0.06   0.07   0.01
  11   1    -0.02  -0.01  -0.01     0.04   0.00   0.03     0.08  -0.00   0.07
  12   1    -0.03  -0.00  -0.02     0.07   0.00   0.06     0.13  -0.02   0.11
  13   6     0.02   0.04  -0.01    -0.14  -0.06   0.04    -0.32  -0.11   0.05
  14   1     0.02  -0.00  -0.00    -0.06   0.01   0.00    -0.09   0.03  -0.04
  15   1     0.01   0.02   0.01    -0.07  -0.04   0.01    -0.15  -0.07   0.04
  16   1    -0.01   0.01  -0.02    -0.02  -0.00   0.01    -0.09  -0.01  -0.01
  17   6     0.02  -0.04   0.04    -0.02   0.10  -0.14     0.00   0.22  -0.25
  18   1     0.02  -0.01   0.03    -0.07   0.03  -0.10    -0.12   0.06  -0.20
  19   1     0.01  -0.02   0.02    -0.00   0.04  -0.05     0.01   0.10  -0.09
  20   1    -0.01  -0.03  -0.00     0.05   0.08  -0.03     0.12   0.17  -0.06
  21   1    -0.01  -0.00   0.01    -0.01   0.03  -0.01     0.02   0.04  -0.07
  22   6    -0.03  -0.00   0.00     0.05   0.00  -0.01    -0.01   0.01   0.03
  23   8    -0.02  -0.01   0.00     0.04   0.02  -0.00     0.00  -0.00   0.03
  24   7     0.04  -0.01  -0.01    -0.13   0.01   0.02     0.02   0.01  -0.06
  25   1    -0.01  -0.00   0.01     0.01   0.01  -0.02    -0.03  -0.02  -0.01
  26   1    -0.12   0.02   0.07     0.32  -0.04  -0.19    -0.13   0.04   0.05
  27   7     0.02   0.01  -0.02    -0.06  -0.01   0.05     0.01  -0.04  -0.02
  28   1    -0.00   0.01  -0.00     0.03  -0.04  -0.02     0.01  -0.03  -0.00
  29   1    -0.01   0.01   0.01     0.02  -0.01  -0.04    -0.05  -0.00  -0.00
  30   6     0.01  -0.02  -0.00     0.03  -0.04   0.03    -0.01   0.02  -0.02
  31   8     0.01  -0.01  -0.01    -0.05  -0.09   0.04     0.03   0.05  -0.03
  32   7     0.00   0.01  -0.00     0.01   0.07   0.06    -0.01  -0.03  -0.03
  33   1     0.01  -0.05   0.02    -0.02   0.35  -0.18     0.01  -0.21   0.11
  34   1     0.02   0.05   0.01    -0.12  -0.58  -0.08     0.08   0.32   0.05
  35   7    -0.02   0.03  -0.00     0.05   0.07  -0.04    -0.03  -0.04   0.03
  36   1     0.00  -0.11   0.03     0.02   0.10  -0.03    -0.01  -0.04   0.02
  37   1     0.01  -0.02   0.02     0.01  -0.03  -0.02    -0.00   0.01   0.02
  38   6     0.07   0.09  -0.01     0.00   0.02   0.00    -0.02   0.02  -0.00
  39   8     0.05   0.03  -0.04     0.00   0.01  -0.01    -0.02   0.01  -0.01
  40   7    -0.06  -0.15   0.05    -0.00  -0.03   0.01     0.02  -0.02  -0.01
  41   1     0.04   0.11  -0.02     0.02   0.02  -0.00     0.03   0.01   0.01
  42   1     0.02   0.05   0.02     0.01   0.01  -0.00     0.00  -0.02  -0.02
  43   7    -0.18  -0.22   0.03    -0.03  -0.03   0.01     0.01  -0.02   0.03
  44   1     0.43   0.76  -0.09     0.08   0.13  -0.01     0.03   0.05   0.02
  45   1     0.05   0.01  -0.03     0.01  -0.01  -0.00     0.02  -0.02   0.00
  46   6    -0.02   0.01  -0.00    -0.01   0.03  -0.02     0.00  -0.01   0.01
  47   8    -0.01  -0.00  -0.00     0.00   0.01  -0.02    -0.00  -0.00   0.01
  48   7     0.00  -0.04  -0.01    -0.01  -0.06   0.02     0.01   0.01  -0.01
  49   1    -0.01   0.01  -0.01    -0.01  -0.00   0.00     0.00   0.00  -0.01
  50   1    -0.01   0.10  -0.03    -0.04   0.18  -0.04     0.02  -0.05   0.01
  51   7     0.01  -0.02   0.02     0.02  -0.03   0.03    -0.01   0.01  -0.01
  52   1    -0.01   0.07  -0.01     0.02   0.02   0.00    -0.01   0.01  -0.00
  53   1     0.00  -0.01   0.01    -0.01   0.03   0.02     0.00  -0.02  -0.01
                     40                     41                     42
                        a                      a                      a 
 Frequencies --   437.5978               457.4025               466.8568
 Red. masses --     2.5020                 8.3177                 8.2464
 Frc consts  --     0.0000                 0.0000                 0.0000
 IR Inten    --   127.8636                 5.8168                13.1614
 Raman Activ --     0.0000                 0.0000                 0.0000
 Depolar     --     0.0000                 0.0000                 0.0000
 Atom AN      X      Y      Z        X      Y      Z        X      Y      Z
   1   8     0.01   0.00  -0.00    -0.03  -0.04   0.04    -0.01  -0.00   0.01
   2   6     0.01   0.00  -0.01     0.21  -0.00  -0.15     0.06   0.00  -0.04
   3   1     0.00   0.00  -0.00     0.03   0.02  -0.02     0.00   0.01   0.00
   4   1     0.00   0.00  -0.01     0.09   0.04  -0.07     0.03   0.01  -0.02
   5   6     0.02  -0.01  -0.01     0.20  -0.17  -0.20     0.03  -0.06  -0.08
   6   1     0.01  -0.00  -0.01     0.09  -0.09  -0.07    -0.01   0.01  -0.04
   7   1     0.01   0.00  -0.00     0.07  -0.00  -0.01    -0.01  -0.04  -0.03
   8   7    -0.00  -0.03   0.01    -0.08  -0.19  -0.26     0.05  -0.07  -0.03
   9   6     0.02   0.01   0.04     0.00   0.20   0.18     0.02  -0.02   0.10
  10   1     0.00   0.01   0.01    -0.05   0.18   0.01    -0.01   0.01   0.03
  11   1     0.01   0.00   0.02     0.07  -0.01   0.15     0.02  -0.03   0.05
  12   1     0.01  -0.00   0.01     0.02   0.11   0.12    -0.01   0.01   0.04
  13   6    -0.03  -0.00   0.01     0.07   0.20   0.26    -0.04   0.08   0.02
  14   1    -0.02   0.02   0.01    -0.05   0.00   0.22    -0.02   0.02   0.01
  15   1    -0.02  -0.02  -0.00     0.05   0.11   0.11    -0.04   0.02   0.04
  16   1     0.01   0.00   0.01     0.11   0.17   0.04    -0.01   0.06  -0.02
  17   6    -0.02   0.02  -0.02    -0.36  -0.11  -0.02    -0.06   0.04   0.01
  18   1    -0.02   0.01  -0.01    -0.08   0.02   0.06    -0.02   0.03   0.01
  19   1    -0.01   0.01  -0.01    -0.19  -0.07  -0.03    -0.05   0.01  -0.02
  20   1     0.01   0.02  -0.00    -0.10  -0.01   0.03    -0.01   0.04   0.03
  21   1     0.02  -0.02  -0.03    -0.02  -0.02   0.06     0.00  -0.01   0.01
  22   6    -0.09   0.02   0.04     0.03   0.03   0.03    -0.09  -0.08  -0.07
  23   8    -0.05  -0.04   0.04     0.03   0.01   0.04    -0.11  -0.01  -0.12
  24   7     0.22  -0.00  -0.08    -0.02   0.03  -0.05     0.09  -0.12   0.12
  25   1    -0.01  -0.04  -0.01    -0.03  -0.01  -0.02     0.04   0.04   0.08
  26   1    -0.63   0.12   0.36    -0.00   0.03  -0.03     0.02  -0.10   0.08
  27   7     0.10  -0.02  -0.11    -0.02  -0.06  -0.00     0.05   0.15   0.02
  28   1    -0.03   0.01   0.02    -0.01  -0.05   0.02    -0.08   0.19   0.00
  29   1    -0.10   0.02   0.07    -0.01  -0.02  -0.05     0.21   0.01   0.05
  30   6     0.04   0.01   0.01    -0.01   0.02  -0.04     0.05   0.01   0.17
  31   8    -0.03  -0.03   0.03     0.01   0.01  -0.04    -0.09   0.03   0.20
  32   7    -0.01   0.05   0.01     0.03  -0.01   0.02    -0.18  -0.05  -0.16
  33   1    -0.00   0.19  -0.14     0.00  -0.06   0.05     0.01  -0.03  -0.16
  34   1    -0.09  -0.40  -0.07     0.06   0.02   0.00    -0.20   0.15   0.01
  35   7     0.05   0.01  -0.01    -0.04  -0.05   0.05     0.20  -0.01  -0.16
  36   1     0.01   0.12  -0.03    -0.03   0.12  -0.02     0.16  -0.07  -0.04
  37   1     0.00  -0.00  -0.02    -0.01  -0.01   0.02     0.00   0.00  -0.12
  38   6    -0.00  -0.00   0.00     0.00   0.00  -0.00     0.02  -0.00   0.00
  39   8     0.00   0.00  -0.00    -0.00   0.00  -0.00     0.02  -0.01   0.01
  40   7     0.00   0.00  -0.00     0.00  -0.01  -0.00    -0.02   0.01   0.02
  41   1    -0.00  -0.01   0.00     0.01   0.01  -0.00    -0.02   0.01  -0.01
  42   1     0.00   0.01  -0.00     0.00  -0.00  -0.00    -0.01  -0.00   0.02
  43   7     0.00   0.00   0.00     0.00  -0.00   0.01    -0.01   0.00  -0.02
  44   1    -0.02  -0.03   0.00     0.01   0.02   0.00     0.00   0.00  -0.02
  45   1    -0.00   0.01  -0.00     0.00  -0.01   0.00    -0.01  -0.00  -0.00
  46   6     0.00  -0.04   0.01     0.00   0.01   0.02    -0.05  -0.06  -0.16
  47   8     0.01  -0.01   0.01    -0.01   0.01   0.02     0.11  -0.04  -0.19
  48   7    -0.01   0.07  -0.02     0.03  -0.01  -0.01    -0.21   0.02   0.12
  49   1     0.00   0.00  -0.00    -0.00  -0.00  -0.02    -0.01   0.00   0.11
  50   1     0.05  -0.25   0.06     0.02   0.02  -0.01    -0.15  -0.02   0.04
  51   7    -0.01   0.06  -0.01    -0.02  -0.01  -0.01     0.16   0.05   0.14
  52   1    -0.00  -0.01   0.01    -0.03   0.02  -0.01     0.24  -0.06   0.05
  53   1     0.01  -0.05   0.01     0.01  -0.02  -0.02    -0.05   0.18   0.18
                     43                     44                     45
                        a                      a                      a 
 Frequencies --   469.3619               473.8231               477.4528
 Red. masses --     7.7888                 3.9687                 5.3116
 Frc consts  --     0.0000                 0.0000                 0.0000
 IR Inten    --    16.4157                 2.2500                 0.7667
 Raman Activ --     0.0000                 0.0000                 0.0000
 Depolar     --     0.0000                 0.0000                 0.0000
 Atom AN      X      Y      Z        X      Y      Z        X      Y      Z
   1   8    -0.02  -0.02   0.03     0.02   0.02  -0.02     0.03   0.03  -0.03
   2   6     0.04  -0.01  -0.02     0.00   0.00  -0.01    -0.00   0.02  -0.01
   3   1    -0.01   0.01   0.02     0.01  -0.01  -0.02     0.02  -0.01  -0.03
   4   1     0.04   0.02  -0.02    -0.01  -0.01  -0.00    -0.03  -0.02   0.00
   5   6    -0.05  -0.06  -0.13     0.04   0.02   0.04     0.06   0.04   0.08
   6   1    -0.06   0.07  -0.07     0.03  -0.03   0.02     0.05  -0.04   0.03
   7   1    -0.07  -0.09  -0.07     0.03   0.03   0.02     0.05   0.06   0.04
   8   7     0.15  -0.05   0.01    -0.05  -0.01   0.01    -0.10  -0.00   0.02
   9   6     0.01  -0.12   0.11     0.02   0.03  -0.01     0.02   0.07  -0.04
  10   1    -0.00  -0.05   0.05     0.00   0.02  -0.01     0.00   0.04  -0.02
  11   1     0.00  -0.06   0.05     0.01   0.02  -0.01     0.01   0.04  -0.02
  12   1    -0.04  -0.00   0.02     0.02  -0.00   0.01     0.04  -0.00  -0.00
  13   6    -0.06   0.10  -0.07    -0.02  -0.03   0.03    -0.01  -0.06   0.06
  14   1    -0.02   0.06  -0.05    -0.01  -0.01   0.02    -0.01  -0.03   0.03
  15   1    -0.08  -0.00   0.01     0.00  -0.00   0.00     0.02  -0.01  -0.00
  16   1    -0.02   0.06  -0.05    -0.00  -0.01   0.01     0.00  -0.03   0.03
  17   6     0.01   0.12   0.08    -0.01  -0.01  -0.04    -0.01  -0.05  -0.07
  18   1     0.00   0.05   0.03    -0.02  -0.01  -0.03    -0.02  -0.02  -0.04
  19   1    -0.06   0.03  -0.01     0.01  -0.00  -0.00     0.03  -0.01  -0.00
  20   1     0.01   0.07   0.06     0.01  -0.00  -0.02     0.01  -0.02  -0.04
  21   1    -0.00  -0.01   0.01    -0.00   0.01   0.01    -0.00   0.01   0.01
  22   6    -0.10  -0.11  -0.08    -0.05  -0.05  -0.03    -0.08  -0.07  -0.03
  23   8    -0.14   0.02  -0.16    -0.07   0.02  -0.07    -0.11   0.03  -0.08
  24   7     0.10  -0.15   0.16     0.05  -0.08   0.06     0.09  -0.11   0.06
  25   1     0.06   0.04   0.09     0.01   0.02   0.05     0.03   0.01   0.05
  26   1     0.06  -0.13   0.07     0.04  -0.06   0.02    -0.01  -0.06   0.06
  27   7     0.06   0.18   0.04     0.02   0.07   0.02     0.03   0.08   0.02
  28   1    -0.10   0.24   0.01    -0.08   0.13   0.03    -0.14   0.18   0.06
  29   1     0.29   0.01   0.05     0.20  -0.01  -0.02     0.30  -0.02  -0.04
  30   6    -0.03  -0.00  -0.06    -0.00  -0.01   0.02    -0.04   0.00  -0.08
  31   8     0.03  -0.01  -0.07    -0.00  -0.01   0.01     0.06   0.00  -0.11
  32   7     0.06   0.02   0.07    -0.02   0.00  -0.01     0.08   0.02   0.08
  33   1    -0.01   0.04   0.05     0.00  -0.01  -0.01    -0.01   0.02   0.09
  34   1     0.06  -0.08  -0.00    -0.01   0.01   0.00     0.10  -0.07  -0.00
  35   7    -0.08   0.02   0.02     0.02   0.00  -0.03    -0.11   0.01   0.05
  36   1    -0.05   0.01   0.01     0.02  -0.00  -0.01    -0.07  -0.00   0.02
  37   1    -0.00  -0.00   0.03    -0.00  -0.01  -0.02    -0.01  -0.01   0.04
  38   6    -0.14   0.06   0.01     0.15  -0.05  -0.01     0.12  -0.06  -0.01
  39   8    -0.14   0.05  -0.10     0.16  -0.03   0.11     0.13  -0.04   0.10
  40   7     0.13  -0.07  -0.12    -0.12   0.08   0.12    -0.11   0.06   0.10
  41   1     0.17  -0.02   0.05    -0.25  -0.13  -0.04    -0.15   0.02  -0.05
  42   1     0.03  -0.08  -0.17     0.01   0.20   0.17    -0.03   0.07   0.15
  43   7     0.08  -0.00   0.20    -0.09  -0.03  -0.21    -0.07  -0.00  -0.19
  44   1     0.01   0.02   0.14    -0.03  -0.06  -0.15    -0.00   0.00  -0.13
  45   1     0.10  -0.04   0.03    -0.09   0.09  -0.04    -0.08   0.02  -0.02
  46   6     0.02   0.04   0.10     0.02   0.06   0.01     0.04  -0.03   0.09
  47   8    -0.07   0.03   0.12    -0.06   0.06   0.02    -0.02  -0.05   0.11
  48   7     0.14  -0.02  -0.10     0.06  -0.09   0.03     0.08   0.10  -0.06
  49   1     0.00  -0.00  -0.08    -0.00   0.06  -0.01     0.02  -0.06  -0.04
  50   1     0.10   0.00  -0.03     0.02  -0.04   0.01     0.07   0.03  -0.02
  51   7    -0.11  -0.03  -0.08     0.00   0.02  -0.02    -0.09  -0.05  -0.07
  52   1    -0.15   0.05  -0.03    -0.14   0.38  -0.10    -0.01  -0.35   0.07
  53   1     0.03  -0.14  -0.11     0.10  -0.55   0.04    -0.06   0.45  -0.16
                     46                     47                     48
                        a                      a                      a 
 Frequencies --   480.4480               482.8428               484.8986
 Red. masses --     3.4750                 4.0764                 6.6621
 Frc consts  --     0.0000                 0.0000                 0.0000
 IR Inten    --     4.6373                 0.0813                38.5107
 Raman Activ --     0.0000                 0.0000                 0.0000
 Depolar     --     0.0000                 0.0000                 0.0000
 Atom AN      X      Y      Z        X      Y      Z        X      Y      Z
   1   8     0.03   0.02  -0.02    -0.01  -0.01   0.01    -0.03  -0.03   0.02
   2   6    -0.02   0.01   0.01     0.02  -0.00  -0.01    -0.01  -0.01   0.02
   3   1     0.03  -0.02  -0.04    -0.00   0.00   0.00    -0.05   0.02   0.06
   4   1    -0.05  -0.03   0.01     0.01   0.01  -0.01     0.06   0.04  -0.00
   5   6     0.06   0.09   0.13     0.01  -0.02  -0.03    -0.13  -0.10  -0.16
   6   1     0.06  -0.06   0.06    -0.00   0.01  -0.01    -0.11   0.10  -0.08
   7   1     0.07   0.10   0.07    -0.00  -0.01  -0.01    -0.11  -0.13  -0.10
   8   7    -0.17   0.05   0.01     0.02  -0.02  -0.01     0.24  -0.03   0.01
   9   6    -0.00   0.12  -0.12     0.00  -0.01   0.05    -0.00  -0.19   0.12
  10   1     0.00   0.05  -0.05    -0.00   0.00   0.01     0.00  -0.09   0.06
  11   1     0.00   0.07  -0.06     0.01  -0.01   0.02    -0.01  -0.09   0.05
  12   1     0.05  -0.00  -0.02    -0.01   0.00   0.01    -0.07  -0.01   0.01
  13   6     0.05  -0.12   0.09    -0.02   0.03  -0.00    -0.05   0.13  -0.16
  14   1     0.02  -0.07   0.05    -0.01   0.01  -0.00    -0.02   0.10  -0.09
  15   1     0.08  -0.01  -0.01    -0.02   0.00   0.01    -0.10  -0.01  -0.01
  16   1     0.02  -0.07   0.06    -0.00   0.02  -0.01    -0.02   0.06  -0.07
  17   6    -0.01  -0.12  -0.08    -0.02   0.03   0.01     0.05   0.17   0.12
  18   1    -0.00  -0.05  -0.04    -0.01   0.01   0.00     0.02   0.07   0.06
  19   1     0.07  -0.03   0.01    -0.02   0.01  -0.01    -0.07   0.05  -0.01
  20   1    -0.01  -0.07  -0.07    -0.00   0.02   0.01     0.02   0.09   0.09
  21   1    -0.01   0.02   0.02     0.02  -0.02  -0.03    -0.00  -0.01   0.00
  22   6    -0.02   0.01   0.03    -0.02  -0.08  -0.11     0.05   0.08   0.08
  23   8    -0.03   0.03   0.03    -0.03  -0.05  -0.15     0.06   0.03   0.13
  24   7     0.05  -0.02  -0.07    -0.03  -0.07   0.20    -0.01   0.09  -0.15
  25   1    -0.04  -0.01   0.01     0.09   0.04   0.03    -0.07  -0.03  -0.04
  26   1    -0.02   0.01  -0.01     0.06  -0.10   0.06    -0.02   0.09  -0.07
  27   7    -0.03  -0.04   0.01     0.08   0.17  -0.01    -0.07  -0.15   0.01
  28   1    -0.17   0.08   0.12     0.27  -0.01  -0.23    -0.14  -0.06   0.15
  29   1     0.28  -0.06  -0.17    -0.37   0.12   0.35     0.16  -0.08  -0.23
  30   6     0.02   0.01   0.03    -0.03   0.00  -0.00    -0.00   0.03  -0.03
  31   8    -0.02   0.00   0.04     0.02   0.00  -0.02     0.01   0.01  -0.03
  32   7    -0.04   0.00  -0.03     0.01  -0.01   0.03     0.01  -0.01   0.00
  33   1     0.01  -0.02  -0.03    -0.01   0.02   0.02     0.01  -0.05   0.02
  34   1    -0.03   0.01  -0.00     0.02   0.00   0.01     0.04  -0.03  -0.01
  35   7     0.05  -0.02  -0.02    -0.02  -0.01  -0.02    -0.02  -0.06   0.06
  36   1     0.02   0.03  -0.02     0.01   0.03  -0.01    -0.01   0.22  -0.04
[...]
  44   1    -0.00   0.00  -0.00     0.00  -0.00   0.00     0.18  -0.09   0.05
  45   1     0.01   0.00   0.03    -0.00  -0.00  -0.01    -0.37  -0.05  -0.87
  46   6     0.00   0.00   0.00     0.00   0.00   0.00    -0.00   0.00   0.01
  47   8    -0.00  -0.00   0.00     0.00  -0.00  -0.00     0.00  -0.00  -0.01
  48   7    -0.04  -0.01   0.02     0.01   0.00  -0.01    -0.01  -0.00   0.00
  49   1     0.13   0.01  -0.09    -0.05  -0.01   0.04     0.04   0.00  -0.03
  50   1    -0.00   0.01   0.02     0.00  -0.00  -0.01    -0.00   0.00   0.01
  51   7     0.00  -0.00  -0.00    -0.00  -0.00   0.00    -0.00  -0.00  -0.00
  52   1    -0.00  -0.00  -0.00     0.00   0.00  -0.00    -0.00  -0.00  -0.01
  53   1     0.00   0.00   0.00    -0.00   0.00   0.00     0.02   0.00   0.01
                    142                    143                    144
                        a                      a                      a 
 Frequencies --  3472.4557              3491.9129              3497.1340
 Red. masses --     1.4657                 1.8779                 1.4501
 Frc consts  --     0.0000                 0.0000                 0.0000
 IR Inten    --    14.6467                62.4261                19.2231
 Raman Activ --     0.0000                 0.0000                 0.0000
 Depolar     --     0.0000                 0.0000                 0.0000
 Atom AN      X      Y      Z        X      Y      Z        X      Y      Z
   1   8     0.00   0.00   0.00     0.00   0.00   0.00    -0.00  -0.00  -0.00
   2   6     0.00   0.00  -0.00    -0.00  -0.00  -0.00    -0.00   0.00  -0.00
   3   1    -0.00  -0.00   0.00     0.00   0.00  -0.00    -0.00  -0.00   0.00
   4   1    -0.00   0.00   0.00    -0.00   0.00   0.00     0.00  -0.00  -0.00
   5   6    -0.00  -0.00   0.00     0.00  -0.00   0.00    -0.00  -0.00  -0.00
   6   1     0.00   0.00  -0.00     0.00   0.00   0.00     0.00   0.00   0.00
   7   1    -0.00   0.00  -0.00    -0.00  -0.00  -0.00     0.00  -0.00   0.00
   8   7    -0.00  -0.00  -0.00     0.00  -0.00   0.00    -0.00  -0.00   0.00
   9   6     0.00   0.00   0.00    -0.00  -0.00  -0.00    -0.00  -0.00  -0.00
  10   1    -0.00  -0.00  -0.00     0.00  -0.00   0.00     0.00   0.00   0.00
  11   1    -0.00   0.00   0.00    -0.00   0.00   0.00     0.00  -0.00  -0.00
  12   1    -0.00  -0.00   0.00     0.00  -0.00  -0.00    -0.00  -0.00  -0.00
  13   6    -0.00  -0.00  -0.00     0.00  -0.00   0.00    -0.00   0.00  -0.00
  14   1     0.00   0.00   0.00     0.00  -0.00   0.00     0.00   0.00   0.00
  15   1     0.00  -0.00   0.00    -0.00   0.00  -0.00     0.00  -0.00   0.00
  16   1    -0.00  -0.00  -0.00    -0.00   0.00   0.00     0.00  -0.00  -0.00
  17   6     0.00  -0.00   0.00     0.00  -0.00   0.00    -0.00   0.00  -0.00
  18   1    -0.00  -0.00   0.00     0.00  -0.00   0.00    -0.00   0.00  -0.00
  19   1    -0.00   0.00   0.00    -0.00   0.00   0.00    -0.00  -0.00  -0.00
  20   1     0.00  -0.00   0.00    -0.00   0.00  -0.00     0.00  -0.00   0.00
  21   1    -0.00  -0.00  -0.00    -0.00  -0.00  -0.00     0.01   0.01   0.00
  22   6    -0.00  -0.00  -0.00     0.00  -0.00   0.00     0.00  -0.00   0.00
  23   8     0.00   0.00   0.00    -0.00   0.00  -0.00    -0.00  -0.00  -0.00
  24   7     0.00  -0.00   0.00    -0.00   0.00  -0.00    -0.01   0.00  -0.01
  25   1    -0.01   0.01  -0.01     0.00  -0.00   0.00     0.01  -0.01   0.01
  26   1     0.00   0.00   0.00    -0.00  -0.00  -0.00     0.02   0.02   0.03
  27   7     0.00  -0.00   0.00     0.00  -0.00   0.00     0.09  -0.10   0.12
  28   1    -0.00  -0.00  -0.00    -0.00  -0.00  -0.00    -0.46  -0.30  -0.44
  29   1     0.00   0.00  -0.00     0.00   0.00  -0.00     0.12   0.67  -0.02
  30   6     0.00   0.00  -0.00    -0.00   0.00   0.01     0.00  -0.00   0.00
  31   8     0.00  -0.00   0.00     0.00  -0.00  -0.00    -0.00   0.00  -0.00
  32   7     0.14   0.07  -0.10    -0.02  -0.00  -0.01    -0.00  -0.00   0.00
  33   1    -0.63  -0.16  -0.28     0.08   0.02   0.03     0.00  -0.00   0.00
  34   1     0.11  -0.11   0.66    -0.00  -0.00  -0.00    -0.00   0.00  -0.00
  35   7    -0.00   0.00   0.02     0.02   0.06   0.25    -0.00  -0.00  -0.00
  36   1    -0.01  -0.02  -0.06    -0.12  -0.23  -0.92     0.00   0.00   0.01
  37   1     0.01  -0.00  -0.01     0.05   0.01  -0.02    -0.00  -0.00   0.00
  38   6     0.00  -0.00   0.00     0.00  -0.00  -0.00     0.00  -0.00   0.00
  39   8    -0.00  -0.00  -0.00    -0.00  -0.00   0.00    -0.00   0.00  -0.00
  40   7     0.00   0.00   0.00     0.00   0.00   0.01    -0.00   0.00  -0.00
  41   1     0.00  -0.00  -0.00     0.03  -0.02  -0.04    -0.00   0.00   0.00
  42   1    -0.00   0.00  -0.00    -0.04   0.02  -0.01     0.00  -0.00   0.00
  43   7    -0.00   0.00   0.00    -0.00   0.00   0.01     0.00  -0.00  -0.00
  44   1     0.00  -0.00   0.00     0.01  -0.00   0.00    -0.00   0.00  -0.00
  45   1    -0.00  -0.00  -0.00    -0.01  -0.00  -0.02     0.00   0.00   0.00
  46   6     0.00   0.00  -0.00     0.00   0.00   0.00     0.00  -0.00   0.00
  47   8    -0.00  -0.00   0.00     0.00   0.00  -0.00    -0.00   0.00  -0.00
  48   7    -0.00  -0.00   0.00     0.00   0.00   0.00    -0.00   0.00  -0.00
  49   1     0.01   0.00  -0.00    -0.00  -0.00   0.00     0.00  -0.00  -0.00
  50   1     0.00   0.00   0.00    -0.00  -0.00  -0.01     0.00  -0.00   0.00
  51   7    -0.00   0.00   0.00    -0.00  -0.00   0.00     0.00  -0.00  -0.00
  52   1    -0.00  -0.00  -0.00    -0.00  -0.00  -0.01     0.00   0.00   0.00
  53   1     0.00   0.00   0.00     0.02   0.00   0.01    -0.00  -0.00  -0.00
                    145                    146                    147
                        a                      a                      a 
 Frequencies --  3503.5284              3503.7647              3528.1553
 Red. masses --     1.4508                 1.4507                 1.9231
 Frc consts  --     0.0000                 0.0000                 0.0000
 IR Inten    --    16.3232                18.2069                16.9004
 Raman Activ --     0.0000                 0.0000                 0.0000
 Depolar     --     0.0000                 0.0000                 0.0000
 Atom AN      X      Y      Z        X      Y      Z        X      Y      Z
   1   8    -0.00  -0.00  -0.00     0.00  -0.00   0.00    -0.00  -0.00  -0.00
   2   6    -0.00  -0.00   0.00     0.00   0.00  -0.00     0.00  -0.00   0.00
   3   1     0.00   0.00   0.00    -0.00  -0.00  -0.00    -0.00  -0.00  -0.00
   4   1     0.00  -0.00  -0.00    -0.00   0.00   0.00     0.00   0.00  -0.00
   5   6    -0.00   0.00  -0.00    -0.00   0.00  -0.00    -0.00   0.00  -0.00
   6   1     0.00   0.00  -0.00    -0.00  -0.00  -0.00     0.00   0.00   0.00
   7   1     0.00  -0.00   0.00     0.00  -0.00   0.00    -0.00  -0.00   0.00
   8   7    -0.00   0.00   0.00     0.00   0.00  -0.00    -0.00  -0.00  -0.00
   9   6     0.00  -0.00  -0.00    -0.00   0.00  -0.00     0.00  -0.00   0.00
  10   1     0.00   0.00   0.00    -0.00   0.00   0.00    -0.00   0.00   0.00
  11   1    -0.00   0.00   0.00     0.00  -0.00  -0.00    -0.00  -0.00  -0.00
  12   1    -0.00  -0.00   0.00    -0.00   0.00   0.00     0.00   0.00  -0.00
  13   6    -0.00   0.00  -0.00    -0.00   0.00  -0.00    -0.00   0.00   0.00
  14   1    -0.00   0.00  -0.00    -0.00   0.00  -0.00     0.00  -0.00   0.00
  15   1     0.00  -0.00   0.00     0.00  -0.00   0.00    -0.00  -0.00  -0.00
  16   1    -0.00   0.00   0.00     0.00   0.00  -0.00    -0.00  -0.00  -0.00
  17   6    -0.00   0.00  -0.00    -0.00   0.00  -0.00    -0.00   0.00  -0.00
  18   1    -0.00  -0.00  -0.00    -0.00   0.00   0.00     0.00   0.00   0.00
  19   1    -0.00   0.00   0.00    -0.00   0.00  -0.00     0.00  -0.00  -0.00
  20   1     0.00  -0.00   0.00     0.00  -0.00   0.00    -0.00  -0.00   0.00
  21   1     0.00   0.00   0.00    -0.00  -0.00  -0.00     0.00   0.00   0.00
  22   6     0.00   0.00   0.00    -0.00   0.00  -0.00    -0.00   0.00  -0.01
  23   8    -0.00  -0.00  -0.00     0.00  -0.00   0.00     0.00   0.00   0.00
  24   7    -0.00   0.00  -0.00     0.00   0.00   0.00    -0.14  -0.10  -0.20
  25   1     0.00  -0.00   0.00    -0.00   0.00   0.00     0.05  -0.08   0.07
  26   1    -0.00  -0.00  -0.00    -0.00  -0.00  -0.00     0.46   0.44   0.71
  27   7    -0.00   0.00  -0.00     0.00  -0.00   0.00     0.01   0.02   0.00
  28   1     0.00   0.00   0.00    -0.00  -0.00  -0.00    -0.01  -0.01  -0.01
  29   1    -0.00  -0.00   0.00     0.00   0.00  -0.00    -0.01  -0.08   0.00
  30   6     0.00  -0.00  -0.00     0.00  -0.00  -0.00     0.00  -0.00  -0.00
  31   8    -0.00   0.00   0.00     0.00   0.00  -0.00     0.00   0.00   0.00
  32   7     0.00   0.00   0.00     0.00   0.00   0.00     0.00   0.00   0.01
  33   1    -0.00  -0.00  -0.00    -0.00  -0.00  -0.00    -0.01  -0.00  -0.01
  34   1    -0.00   0.00  -0.00    -0.00   0.00  -0.00    -0.00   0.00  -0.02
  35   7    -0.00  -0.00  -0.01     0.00  -0.00  -0.01     0.00   0.00   0.00
  36   1     0.01   0.01   0.05     0.01   0.01   0.04    -0.00  -0.00  -0.01
  37   1    -0.00  -0.00  -0.00    -0.01  -0.00   0.01    -0.00  -0.00   0.00
  38   6     0.00   0.00   0.00     0.00  -0.00   0.00    -0.00  -0.00  -0.00
  39   8    -0.00   0.00   0.00    -0.00   0.00  -0.00     0.00   0.00   0.00
  40   7     0.08  -0.00   0.15     0.03  -0.00   0.06     0.00   0.00   0.00
  41   1     0.33  -0.22  -0.48     0.12  -0.08  -0.18     0.00  -0.00  -0.00
  42   1    -0.63   0.24  -0.09    -0.23   0.09  -0.03    -0.00   0.00  -0.00
  43   7    -0.01   0.01  -0.01    -0.00  -0.00  -0.01    -0.00   0.00  -0.00
  44   1     0.04  -0.02   0.01    -0.00   0.00  -0.00     0.00  -0.00   0.00
  45   1     0.01   0.00   0.02     0.01   0.00   0.02    -0.00  -0.00   0.00
  46   6     0.00  -0.00  -0.00    -0.00   0.00   0.00    -0.00  -0.00   0.00
  47   8     0.00   0.00   0.00    -0.00  -0.00  -0.00     0.00   0.00  -0.00
  48   7    -0.00   0.00   0.00     0.00  -0.00  -0.01     0.00   0.00   0.01
  49   1     0.00   0.00  -0.00    -0.01  -0.00   0.01    -0.00  -0.00   0.00
  50   1    -0.00  -0.00  -0.02     0.00   0.01   0.05    -0.00  -0.01  -0.02
  51   7     0.05  -0.00  -0.04    -0.14   0.01   0.11    -0.00  -0.00  -0.00
  52   1     0.02   0.07   0.24    -0.05  -0.18  -0.65    -0.00  -0.00  -0.00
  53   1    -0.21  -0.05  -0.10     0.55   0.12   0.26     0.00   0.00   0.00
                    148                    149                    150
                        a                      a                      a 
 Frequencies --  3530.8371              3532.5580              3536.9858
 Red. masses --     2.1584                 1.9627                 1.8930
 Frc consts  --     0.0000                 0.0000                 0.0000
 IR Inten    --    12.9949                21.6512                16.2711
 Raman Activ --     0.0000                 0.0000                 0.0000
 Depolar     --     0.0000                 0.0000                 0.0000
 Atom AN      X      Y      Z        X      Y      Z        X      Y      Z
   1   8    -0.00  -0.00  -0.00    -0.00   0.00   0.00     0.00   0.00   0.00
   2   6    -0.00   0.00  -0.00    -0.00  -0.00  -0.00    -0.00   0.00   0.00
   3   1    -0.00  -0.00  -0.00     0.00   0.00   0.00     0.00   0.00   0.00
   4   1     0.00  -0.00   0.00     0.00  -0.00   0.00     0.00  -0.00  -0.00
   5   6    -0.00  -0.00  -0.00     0.00  -0.00   0.00     0.00   0.00  -0.00
   6   1     0.00   0.00   0.00     0.00  -0.00  -0.00    -0.00  -0.00  -0.00
   7   1    -0.00  -0.00  -0.00    -0.00   0.00  -0.00     0.00  -0.00   0.00
   8   7    -0.00  -0.00   0.00    -0.00   0.00   0.00     0.00  -0.00  -0.00
   9   6    -0.00  -0.00  -0.00     0.00  -0.00  -0.00     0.00   0.00   0.00
  10   1     0.00   0.00   0.00    -0.00  -0.00  -0.00    -0.00  -0.00  -0.00
  11   1    -0.00  -0.00  -0.00    -0.00   0.00   0.00     0.00  -0.00  -0.00
  12   1    -0.00   0.00  -0.00     0.00  -0.00  -0.00    -0.00  -0.00   0.00
  13   6    -0.00  -0.00  -0.00     0.00   0.00   0.00     0.00   0.00   0.00
  14   1     0.00   0.00   0.00    -0.00  -0.00  -0.00    -0.00  -0.00  -0.00
  15   1    -0.00   0.00  -0.00    -0.00   0.00   0.00     0.00  -0.00   0.00
  16   1    -0.00   0.00  -0.00    -0.00  -0.00   0.00     0.00  -0.00  -0.00
  17   6     0.00  -0.00   0.00    -0.00  -0.00  -0.00    -0.00   0.00   0.00
  18   1     0.00   0.00  -0.00     0.00   0.00  -0.00     0.00   0.00  -0.00
  19   1    -0.00   0.00  -0.00     0.00   0.00   0.00     0.00  -0.00  -0.00
  20   1    -0.00   0.00  -0.00     0.00   0.00   0.00     0.00  -0.00   0.00
  21   1     0.00   0.00   0.00     0.00   0.00  -0.00    -0.00  -0.00  -0.00
  22   6    -0.00  -0.00   0.00     0.00  -0.00  -0.00     0.00  -0.00  -0.00
  23   8     0.00  -0.00   0.00    -0.00   0.00   0.00    -0.00   0.00   0.00
  24   7     0.00   0.00   0.01    -0.00  -0.00  -0.00    -0.00  -0.00  -0.01
  25   1    -0.00   0.01  -0.01     0.00  -0.00   0.00     0.00  -0.00   0.00
  26   1    -0.01  -0.01  -0.02     0.00   0.00   0.00     0.01   0.01   0.02
  27   7    -0.00  -0.00  -0.00    -0.00   0.00  -0.00     0.00   0.00   0.00
  28   1     0.00   0.00   0.00     0.00   0.00   0.00    -0.00  -0.00  -0.00
  29   1     0.00   0.00  -0.00    -0.00  -0.00   0.00    -0.00  -0.00   0.00
  30   6     0.01   0.00   0.01    -0.00  -0.00  -0.00    -0.00  -0.00  -0.00
  31   8    -0.00   0.00  -0.00    -0.00   0.00   0.00     0.00   0.00   0.00
  32   7     0.17   0.01   0.24    -0.01  -0.00  -0.01    -0.01  -0.00  -0.01
  33   1    -0.59  -0.17  -0.23     0.02   0.01   0.01     0.02   0.01   0.01
  34   1    -0.08   0.13  -0.67     0.00  -0.00   0.02     0.00  -0.00   0.02
  35   7     0.00   0.00   0.01    -0.00  -0.00   0.00     0.00   0.00   0.00
  36   1    -0.01  -0.01  -0.06    -0.00   0.00   0.00    -0.00  -0.00  -0.01
  37   1     0.00   0.00  -0.00     0.01   0.00  -0.01    -0.00  -0.00   0.00
  38   6     0.00  -0.00   0.00     0.01  -0.00   0.01    -0.00   0.00  -0.00
  39   8    -0.00   0.00   0.00    -0.00   0.00  -0.00     0.00  -0.00   0.00
  40   7    -0.00   0.00   0.00    -0.01   0.01   0.02     0.00  -0.00  -0.00
  41   1     0.00  -0.00  -0.00     0.04  -0.03  -0.07    -0.00   0.00   0.00
  42   1     0.00  -0.00   0.00     0.01  -0.00   0.00    -0.00   0.00  -0.00
  43   7     0.01  -0.00   0.00     0.23  -0.11   0.08    -0.00   0.00  -0.00
  44   1    -0.02   0.01  -0.00    -0.81   0.45  -0.16     0.01  -0.00   0.00
  45   1    -0.00  -0.00  -0.01    -0.06  -0.02  -0.16     0.00   0.00   0.00
  46   6     0.00   0.00   0.00    -0.00   0.00   0.00     0.01  -0.00  -0.01
  47   8     0.00   0.00  -0.00     0.00  -0.00  -0.00    -0.00   0.00   0.00
  48   7    -0.00  -0.00  -0.01    -0.00  -0.00  -0.00    -0.00  -0.06  -0.25
  49   1     0.00   0.00  -0.00     0.00   0.00  -0.00    -0.07  -0.01   0.03
  50   1     0.00   0.01   0.03     0.00   0.00   0.01     0.05   0.25   0.92
  51   7     0.00  -0.00  -0.00     0.00  -0.00  -0.00     0.02   0.01   0.01
  52   1     0.00   0.00   0.00     0.00   0.00   0.02     0.00  -0.00  -0.01
  53   1    -0.00  -0.00  -0.00    -0.00  -0.00  -0.00    -0.08  -0.02  -0.04
                    151                    152                    153
                        a                      a                      a 
 Frequencies --  3562.3910              3569.9948              3570.1132
 Red. masses --     2.1813                 2.1842                 2.1837
 Frc consts  --     0.0000                 0.0000                 0.0000
 IR Inten    --    12.1515                12.7986                14.2674
 Raman Activ --     0.0000                 0.0000                 0.0000
 Depolar     --     0.0000                 0.0000                 0.0000
 Atom AN      X      Y      Z        X      Y      Z        X      Y      Z
   1   8     0.00   0.00   0.00    -0.00   0.00  -0.00    -0.00   0.00  -0.00
   2   6    -0.00  -0.00   0.00    -0.00  -0.00   0.00     0.00  -0.00   0.00
   3   1     0.00   0.00   0.00    -0.00  -0.00  -0.00    -0.00  -0.00  -0.00
   4   1    -0.00   0.00   0.00     0.00  -0.00   0.00     0.00  -0.00   0.00
   5   6     0.00  -0.00   0.00    -0.00   0.00  -0.00     0.00  -0.00   0.00
   6   1    -0.00   0.00  -0.00     0.00   0.00   0.00     0.00   0.00   0.00
   7   1     0.00   0.00   0.00     0.00  -0.00   0.00    -0.00   0.00  -0.00
   8   7     0.00   0.00  -0.00    -0.00   0.00   0.00    -0.00   0.00   0.00
   9   6     0.00   0.00   0.00     0.00  -0.00  -0.00     0.00   0.00   0.00
  10   1    -0.00  -0.00  -0.00     0.00   0.00   0.00     0.00  -0.00  -0.00
  11   1     0.00   0.00   0.00    -0.00   0.00   0.00    -0.00   0.00   0.00
  12   1    -0.00  -0.00   0.00    -0.00  -0.00   0.00     0.00  -0.00  -0.00
  13   6    -0.00  -0.00  -0.00    -0.00   0.00  -0.00     0.00  -0.00   0.00
  14   1     0.00   0.00  -0.00     0.00   0.00  -0.00     0.00  -0.00   0.00
  15   1     0.00   0.00  -0.00     0.00  -0.00   0.00    -0.00   0.00  -0.00
  16   1    -0.00   0.00   0.00    -0.00   0.00  -0.00    -0.00  -0.00   0.00
  17   6     0.00  -0.00  -0.00    -0.00   0.00  -0.00     0.00  -0.00   0.00
  18   1    -0.00  -0.00   0.00    -0.00   0.00  -0.00     0.00  -0.00   0.00
  19   1    -0.00   0.00   0.00    -0.00   0.00  -0.00    -0.00   0.00   0.00
  20   1     0.00   0.00  -0.00     0.00  -0.00   0.00    -0.00   0.00  -0.00
  21   1    -0.01  -0.00  -0.00     0.00   0.00   0.00     0.00   0.00   0.00
  22   6     0.01   0.01   0.00     0.00   0.00   0.00    -0.00   0.00  -0.00
  23   8    -0.00  -0.00  -0.00    -0.00  -0.00  -0.00     0.00  -0.00   0.00
  24   7     0.01   0.01   0.02     0.00   0.00   0.00     0.00   0.00   0.00
  25   1    -0.00   0.01  -0.01    -0.00   0.00  -0.00    -0.00   0.00  -0.00
  26   1    -0.04  -0.03  -0.05    -0.00  -0.00  -0.00    -0.00  -0.00  -0.00
  27   7     0.14   0.24   0.10     0.00   0.00   0.00     0.00   0.00   0.00
  28   1    -0.44  -0.26  -0.42    -0.00  -0.00  -0.00    -0.00  -0.00  -0.00
  29   1    -0.10  -0.67   0.04    -0.00  -0.00   0.00    -0.00  -0.00   0.00
  30   6     0.00   0.00   0.00     0.00   0.00   0.00     0.00   0.00   0.00
  31   8    -0.00  -0.00  -0.00     0.00  -0.00  -0.00     0.00  -0.00  -0.00
  32   7     0.00  -0.00   0.00     0.00  -0.00   0.00     0.00   0.00   0.00
  33   1    -0.00  -0.00  -0.00    -0.00  -0.00  -0.00    -0.00  -0.00  -0.00
  34   1    -0.00   0.00  -0.00    -0.00   0.00  -0.00    -0.00   0.00  -0.00
  35   7    -0.00  -0.00   0.00    -0.00  -0.00  -0.00    -0.00   0.00   0.00
  36   1    -0.00  -0.00  -0.00     0.00   0.00   0.00    -0.00  -0.00  -0.01
  37   1     0.00   0.00  -0.00     0.00   0.00  -0.00     0.01   0.00  -0.00
  38   6    -0.00   0.00  -0.00    -0.01   0.00   0.00     0.01  -0.00  -0.00
  39   8     0.00  -0.00   0.00     0.00  -0.00  -0.00    -0.00   0.00   0.00
  40   7    -0.00   0.00   0.00    -0.19   0.09   0.09     0.16  -0.08  -0.08
  41   1     0.00  -0.00  -0.00     0.26  -0.18  -0.42    -0.23   0.16   0.37
  42   1     0.00  -0.00   0.00     0.45  -0.16   0.08    -0.39   0.14  -0.07
  43   7     0.00  -0.00   0.00    -0.01   0.01  -0.00     0.01  -0.01   0.01
  44   1     0.00  -0.00   0.00     0.04  -0.02   0.01    -0.04   0.02  -0.01
  45   1    -0.00   0.00  -0.00     0.00   0.00   0.00    -0.01  -0.00  -0.02
  46   6    -0.00   0.00   0.00     0.00   0.00   0.01     0.01   0.00   0.01
  47   8    -0.00  -0.00  -0.00    -0.00  -0.00  -0.00    -0.00  -0.00  -0.00
  48   7    -0.00   0.00   0.00    -0.00   0.00   0.01    -0.00   0.00   0.01
  49   1     0.00   0.00  -0.00     0.00   0.00  -0.00     0.01   0.00  -0.00
  50   1    -0.00  -0.00  -0.00    -0.00  -0.01  -0.05    -0.00  -0.01  -0.05
  51   7    -0.00  -0.00  -0.00     0.11   0.05   0.16     0.13   0.06   0.18
  52   1     0.00   0.00   0.00    -0.01  -0.11  -0.41    -0.01  -0.13  -0.47
  53   1     0.00   0.00   0.00    -0.42  -0.09  -0.18    -0.47  -0.10  -0.20
