      -----------------------------------------------------------      
     |                   =====================                   |     
     |                           x T B                           |     
     |                   =====================                   |     
     |                         S. Grimme                         |     
     |          Mulliken Center for Theoretical Chemistry        |     
     |                    University of Bonn                     |     
      -----------------------------------------------------------      

   * xtb version 6.6.1 (unknown-commit) compiled by '@Linux' on 12/27/2023

   xtb is free software: you can redistribute it and/or modify it under
   the terms of the GNU Lesser General Public License as published by
   the Free Software Foundation, either version 3 of the License, or
   (at your option) any later version.
   
   xtb is distributed in the hope that it will be useful,
   but WITHOUT ANY WARRANTY; without even the implied warranty of
   MERCHANTABILITY or FITNESS FOR A PARTICULAR PURPOSE.  See the
   GNU Lesser General Public License for more details.
   
   Cite this work as:
   * C. Bannwarth, E. Caldeweyher, S. Ehlert, A. Hansen, P. Pracht,
     J. Seibert, S. Spicher, S. Grimme, WIREs Comput. Mol. Sci., 2020, 11,
     e01493. DOI: 10.1002/wcms.1493
   
   for GFN2-xTB:
   * C. Bannwarth, S. Ehlert and S. Grimme., J. Chem. Theory Comput., 2019,
     15, 1652-1671. DOI: 10.1021/acs.jctc.8b01176
   for GFN1-xTB:
   * S. Grimme, C. Bannwarth, P. Shushkov, J. Chem. Theory Comput., 2017,
     13, 1989-2009. DOI: 10.1021/acs.jctc.7b00118
   for GFN0-xTB:
   * P. Pracht, E. Caldeweyher, S. Ehlert, S. Grimme, ChemRxiv, 2019, preprint.
     DOI: 10.26434/chemrxiv.8326202.v1
   for GFN-FF:
   * S. Spicher and S. Grimme, Angew. Chem. Int. Ed., 2020, 59, 15665-15673.
     DOI: 10.1002/anie.202004239
   
   for ALPB and GBSA implicit solvation:
   * S. Ehlert, M. Stahn, S. Spicher, S. Grimme, J. Chem. Theory Comput.,
     2021, 17, 4250-4261. DOI: 10.1021/acs.jctc.1c00471
   
   for DFT-D4:
   * E. Caldeweyher, C. Bannwarth and S. Grimme, J. Chem. Phys., 2017,
     147, 034112. DOI: 10.1063/1.4993215
   * E. Caldeweyher, S. Ehlert, A. Hansen, H. Neugebauer, S. Spicher,
     C. Bannwarth and S. Grimme, J. Chem. Phys., 2019, 150, 154122.
     DOI: 10.1063/1.5090222
   * E. Caldeweyher, J.-M. Mewes, S. Ehlert and S. Grimme, Phys. Chem. Chem. Phys.
     2020, 22, 8499-8512. DOI: 10.1039/D0CP00502A
   
   for sTDA-xTB:
   * S. Grimme and C. Bannwarth, J. Chem. Phys., 2016, 145, 054103.
     DOI: 10.1063/1.4959605
   
   in the mass-spec context:
   * V. Asgeirsson, C. Bauer and S. Grimme, Chem. Sci., 2017, 8, 4879.
     DOI: 10.1039/c7sc00601b
   * J. Koopman and S. Grimme, ACS Omega 2019, 4, 12, 15120-15133.
     DOI: 10.1021/acsomega.9b02011
   
   for metadynamics refer to:
   * S. Grimme, J. Chem. Theory Comput., 2019, 155, 2847-2862
     DOI: 10.1021/acs.jctc.9b00143
   
   for SPH calculations refer to:
   * S. Spicher and S. Grimme, J. Chem. Theory Comput., 2021, 17, 1701-1714
     DOI: 10.1021/acs.jctc.0c01306
   
   with help from (in alphabetical order)
   P. Atkinson, C. Bannwarth, F. Bohle, G. Brandenburg, E. Caldeweyher
   M. Checinski, S. Dohm, S. Ehlert, S. Ehrlich, I. Gerasimov, C. Hölzer
   A. Katbashev, J. Koopman, C. Lavigne, S. Lehtola, F. März, M. Müller,
   F. Musil, H. Neugebauer, J. Pisarek, C. Plett, P. Pracht, F. Pultar,
   J. Seibert, P. Shushkov, S. Spicher, M. Stahn, M. Steiner, T. Strunk,
   J. Stückrath, T. Rose, and J. Unsleber
   
 * started run on 2024/01/10 at 18:29:48.555     

           -------------------------------------------------
          |                Calculation Setup                |
           -------------------------------------------------

          program call               : xtb struc.xyz --gfn2 --hess
          hostname                   : swaroop
          coordinate file            : struc.xyz
          omp threads                :                     1

   ID    Z sym.   atoms
    1    8 O      1, 23, 31, 39, 47
    2    6 C      2, 5, 9, 13, 17, 22, 30, 38, 46
    3    1 H      3, 4, 6, 7, 10-12, 14-16, 18-21, 25, 26, 28, 29, 33, 34,
                  36, 37, 41, 42, 44, 45, 49, 50, 52, 53
    4    7 N      8, 24, 27, 32, 35, 40, 43, 48, 51

molecular fragmentation (1/2 indicates fragments):
11111111111111111111122222222222222222222222222222222
# atoms in fragment 1/2:    21    32
 fragment masses (1/2) :      104.17      240.22
CMA distance (Bohr)    :   5.931
constraining FC (au)   :  0.0500

           -------------------------------------------------
          |                 G F N 2 - x T B                 |
           -------------------------------------------------

        Reference                      10.1021/acs.jctc.8b01176
      * Hamiltonian:
        H0-scaling (s, p, d)           1.850000    2.230000    2.230000
        zeta-weighting                 0.500000
      * Dispersion:
        s8                             2.700000
        a1                             0.520000
        a2                             5.000000
        s9                             5.000000
      * Repulsion:
        kExp                           1.500000    1.000000
        rExp                           1.000000
      * Coulomb:
        alpha                          2.000000
        third order                    shell-resolved
        anisotropic                    true
        a3                             3.000000
        a5                             4.000000
        cn-shift                       1.200000
        cn-exp                         4.000000
        max-rad                        5.000000


          ...................................................
          :                      SETUP                      :
          :.................................................:
          :  # basis functions                 122          :
          :  # atomic orbitals                 122          :
          :  # shells                           76          :
          :  # electrons                       140          :
          :  max. iterations                   250          :
          :  Hamiltonian                  GFN2-xTB          :
          :  restarted?                      false          :
          :  GBSA solvation                  false          :
          :  PC potential                    false          :
          :  electronic temp.          300.0000000     K    :
          :  accuracy                    1.0000000          :
          :  -> integral cutoff          0.2500000E+02      :
          :  -> integral neglect         0.1000000E-07      :
          :  -> SCF convergence          0.1000000E-05 Eh   :
          :  -> wf. convergence          0.1000000E-03 e    :
          :  Broyden damping             0.4000000          :
          ...................................................

 iter      E             dE          RMSdq      gap      omega  full diag
   1    -81.5519318 -0.815519E+02  0.430E+00    5.13       0.0  T
   2    -81.8371696 -0.285238E+00  0.233E+00    5.82       1.0  T
   3    -81.8427992 -0.562960E-02  0.113E+00    5.60       1.0  T
   4    -81.8441990 -0.139975E-02  0.243E-01    5.73       1.0  T
   5    -81.8451138 -0.914804E-03  0.914E-02    5.65       1.0  T
   6    -81.8451374 -0.236799E-04  0.246E-02    5.65       1.0  T
   7    -81.8451417 -0.421115E-05  0.743E-03    5.65       1.8  T
   8    -81.8451419 -0.246857E-06  0.256E-03    5.65       5.4  T
   9    -81.8451419 -0.173353E-07  0.827E-04    5.65      16.6  T
  10    -81.8451419 -0.466841E-08  0.186E-04    5.65      73.7  T

   *** convergence criteria satisfied after 10 iterations ***

         #    Occupation            Energy/Eh            Energy/eV
      -------------------------------------------------------------
         1        2.0000           -0.8100954             -22.0438
       ...           ...                  ...                  ...
        64        2.0000           -0.5002418             -13.6123
        65        2.0000           -0.4992546             -13.5854
        66        2.0000           -0.4955216             -13.4838
        67        2.0000           -0.4930664             -13.4170
        68        2.0000           -0.4881799             -13.2841
        69        2.0000           -0.4873257             -13.2608
        70        2.0000           -0.4795909             -13.0503 (HOMO)
        71                         -0.2720920              -7.4040 (LUMO)
        72                         -0.2704514              -7.3594
        73                         -0.2648930              -7.2081
        74                         -0.2583990              -7.0314
        75                         -0.1631081              -4.4384
       ...                                ...                  ...
       122                          0.5640289              15.3480
      -------------------------------------------------------------
                  HL-Gap            0.2074989 Eh            5.6463 eV
             Fermi-level           -0.3758415 Eh          -10.2272 eV

 SCC (total)                   0 d,  0 h,  0 min,  0.099 sec
 SCC setup                      ...        0 min,  0.000 sec (  0.289%)
 Dispersion                     ...        0 min,  0.001 sec (  0.602%)
 classical contributions        ...        0 min,  0.000 sec (  0.183%)
 integral evaluation            ...        0 min,  0.008 sec (  8.392%)
 iterations                     ...        0 min,  0.061 sec ( 61.367%)
 molecular gradient             ...        0 min,  0.029 sec ( 28.891%)
 printout                       ...        0 min,  0.000 sec (  0.265%)

         :::::::::::::::::::::::::::::::::::::::::::::::::::::
         ::                     SUMMARY                     ::
         :::::::::::::::::::::::::::::::::::::::::::::::::::::
         :: total energy             -80.933308604460 Eh    ::
         :: gradient norm              0.000066377828 Eh/a0 ::
         :: HOMO-LUMO gap              5.646333009489 eV    ::
         ::.................................................::
         :: SCC energy               -81.845141920871 Eh    ::
         :: -> isotropic ES            0.298744093740 Eh    ::
         :: -> anisotropic ES         -0.027598944522 Eh    ::
         :: -> anisotropic XC          0.020589223475 Eh    ::
         :: -> dispersion             -0.046973996965 Eh    ::
         :: repulsion energy           0.910014219733 Eh    ::
         :: add. restraining           0.000000000000 Eh    ::
         :: total charge               1.000000000000 e     ::
         :::::::::::::::::::::::::::::::::::::::::::::::::::::

           ------------------------------------------------- 
          |                Numerical Hessian                |
           ------------------------------------------------- 
step length          :   0.00500
SCC accuracy         :   0.30000
Hessian scale factor :   1.00000
frozen atoms in %    :   0.00000    0
RMS gradient         :   0.00007
estimated CPU  time      0.25 min
estimated wall time      0.25 min

writing file <hessian>.

 projected vibrational frequencies (cm⁻¹)
eigval :       -0.00    -0.00    -0.00     0.00     0.00     0.00
eigval :       18.08    24.46    31.70    34.30    40.37    41.46
eigval :       46.73    49.05    56.49    63.96    67.83    76.45
eigval :       76.82    83.33    86.62    92.76    99.32   112.08
eigval :      124.39   125.01   141.49   147.25   162.13   197.64
eigval :      203.45   217.61   245.30   246.13   262.59   280.12
eigval :      294.60   301.06   303.78   309.16   330.29   375.86
eigval :      395.49   421.17   433.65   457.13   462.39   470.98
eigval :      471.83   474.12   475.72   479.28   483.54   486.54
eigval :      489.44   495.76   534.46   547.35   551.07   553.51
eigval :      563.88   567.38   617.55   663.17   673.98   675.66
eigval :      677.19   679.40   726.30   765.29   803.21   809.50
eigval :      909.16   923.56   957.75   962.60   972.12   983.97
eigval :      997.30  1008.18  1009.45  1012.34  1017.74  1024.21
eigval :     1024.47  1028.80  1037.34  1084.73  1087.43  1092.74
eigval :     1093.85  1101.02  1103.40  1128.60  1167.89  1227.43
eigval :     1248.11  1269.01  1320.98  1327.23  1347.62  1360.53
eigval :     1366.13  1372.22  1377.04  1380.12  1408.03  1414.82
eigval :     1417.99  1438.58  1441.76  1451.13  1452.61  1453.92
eigval :     1457.91  1459.62  1460.84  1463.63  1467.99  1480.73
eigval :     1483.59  1495.01  1508.77  1510.74  1516.11  1673.91
eigval :     1679.84  1696.69  1714.14  2900.94  2970.61  3002.37
eigval :     3005.88  3021.08  3038.04  3041.32  3043.10  3046.31
eigval :     3051.33  3055.47  3058.61  3062.10  3085.20  3090.31
eigval :     3259.62  3287.43  3413.75  3439.13  3496.26  3499.46
eigval :     3501.57  3526.13  3528.56  3533.44  3534.64  3550.96
eigval :     3561.38  3564.40  3566.92
           -------------------------------------------------
          |                Property Printout                |
           -------------------------------------------------

    * Orbital Energies and Occupations

         #    Occupation            Energy/Eh            Energy/eV
      -------------------------------------------------------------
         1        2.0000           -0.8100947             -22.0438
       ...           ...                  ...                  ...
        58        2.0000           -0.5103649             -13.8877
        59        2.0000           -0.5086511             -13.8411
        60        2.0000           -0.5054811             -13.7548
        61        2.0000           -0.5030426             -13.6885
        62        2.0000           -0.5016059             -13.6494
        63        2.0000           -0.5010134             -13.6333
        64        2.0000           -0.5002429             -13.6123
        65        2.0000           -0.4992560             -13.5854
        66        2.0000           -0.4955229             -13.4839
        67        2.0000           -0.4930680             -13.4171
        68        2.0000           -0.4881813             -13.2841
        69        2.0000           -0.4873271             -13.2608
        70        2.0000           -0.4795925             -13.0504 (HOMO)
        71                         -0.2720931              -7.4040 (LUMO)
        72                         -0.2704510              -7.3593
        73                         -0.2648965              -7.2082
        74                         -0.2584020              -7.0315
        75                         -0.1631073              -4.4384
        76                         -0.1079885              -2.9385
        77                         -0.0957715              -2.6061
        78                         -0.0909381              -2.4746
        79                         -0.0894439              -2.4339
        80                         -0.0844243              -2.2973
        81                         -0.0743164              -2.0223
       ...                                ...                  ...
       122                          0.5640264              15.3479
      -------------------------------------------------------------
                  HL-Gap            0.2074994 Eh            5.6463 eV
             Fermi-level           -0.3758428 Eh          -10.2272 eV

     #   Z          covCN         q      C6AA      α(0)
     1   8 O        1.652    -0.477    22.407     6.390
     2   6 C        3.673     0.066    19.693     6.360
     3   1 H        0.923     0.061     2.190     2.314
     4   1 H        0.924     0.051     2.307     2.375
     5   6 C        3.772    -0.080    22.066     6.694
     6   1 H        0.924     0.129     1.545     1.944
     7   1 H        0.924     0.114     1.663     2.017
     8   7 N        3.623     0.155    18.624     6.410
     9   6 C        3.723    -0.105    22.627     6.793
    10   1 H        0.924     0.121     1.604     1.981
    11   1 H        0.925     0.085     1.926     2.170
    12   1 H        0.925     0.092     1.858     2.131
    13   6 C        3.737    -0.104    22.566     6.779
    14   1 H        0.925     0.086     1.918     2.166
    15   1 H        0.925     0.110     1.696     2.037
    16   1 H        0.925     0.102     1.766     2.078
    17   6 C        3.719    -0.106    22.644     6.797
    18   1 H        0.925     0.080     1.981     2.201
    19   1 H        0.925     0.119     1.619     1.990
    20   1 H        0.925     0.109     1.703     2.041
    21   1 H        0.802     0.340     0.612     1.229
    22   6 C        2.675     0.338    21.249     7.543
    23   8 O        0.860    -0.549    24.888     6.689
    24   7 N        2.643    -0.318    28.177     7.884
    25   1 H        0.859     0.252     0.877     1.467
    26   1 H        0.860     0.176     1.236     1.741
    27   7 N        2.644    -0.295    27.600     7.803
    28   1 H        0.861     0.182     1.200     1.716
    29   1 H        0.860     0.197     1.120     1.658
    30   6 C        2.675     0.342    21.190     7.533
    31   8 O        0.860    -0.537    24.612     6.652
    32   7 N        2.644    -0.303    27.793     7.830
    33   1 H        0.860     0.235     0.942     1.520
    34   1 H        0.861     0.181     1.207     1.721
    35   7 N        2.645    -0.290    27.468     7.784
    36   1 H        0.861     0.186     1.180     1.702
    37   1 H        0.860     0.200     1.106     1.647
    38   6 C        2.675     0.344    21.160     7.527
    39   8 O        0.861    -0.537    24.621     6.653
    40   7 N        2.645    -0.305    27.846     7.837
    41   1 H        0.860     0.241     0.920     1.503
    42   1 H        0.861     0.179     1.221     1.731
    43   7 N        2.646    -0.288    27.428     7.778
    44   1 H        0.861     0.185     1.186     1.706
    45   1 H        0.860     0.201     1.102     1.644
    46   6 C        2.675     0.340    21.219     7.538
    47   8 O        0.860    -0.512    24.053     6.576
    48   7 N        2.646    -0.304    27.838     7.836
    49   1 H        0.860     0.217     1.023     1.584
    50   1 H        0.861     0.186     1.182     1.703
    51   7 N        2.646    -0.303    27.812     7.832
    52   1 H        0.860     0.215     1.032     1.591
    53   1 H        0.860     0.192     1.148     1.678

 Mol. C6AA /au·bohr⁶  :      21785.570823
 Mol. C8AA /au·bohr⁸  :     454308.112533
 Mol. α(0) /au        :        220.500950


Wiberg/Mayer (AO) data.
largest (>0.10) Wiberg bond orders for each atom

 ---------------------------------------------------------------------------
     #   Z sym  total        # sym  WBO       # sym  WBO       # sym  WBO
 ---------------------------------------------------------------------------
     1   8 O    1.974 --     2 C    1.007    21 H    0.807
     2   6 C    3.962 --     1 O    1.007     5 C    1.004     4 H    0.966
                             3 H    0.954
     3   1 H    0.996 --     2 C    0.954
     4   1 H    0.997 --     2 C    0.966
     5   6 C    3.915 --     2 C    1.004     7 H    0.951     6 H    0.936
                             8 N    0.924
     6   1 H    0.983 --     5 C    0.936
     7   1 H    0.987 --     5 C    0.951
     8   7 N    3.820 --     9 C    0.960    13 C    0.959    17 C    0.958
                             5 C    0.924
     9   6 C    3.929 --    11 H    0.978    12 H    0.974    10 H    0.964
                             8 N    0.960
    10   1 H    0.985 --     9 C    0.964
    11   1 H    0.993 --     9 C    0.978
    12   1 H    0.991 --     9 C    0.974
    13   6 C    3.930 --    14 H    0.977    16 H    0.974    15 H    0.970
                             8 N    0.959
    14   1 H    0.992 --    13 C    0.977
    15   1 H    0.988 --    13 C    0.970
    16   1 H    0.990 --    13 C    0.974
    17   6 C    3.924 --    18 H    0.978    20 H    0.970    19 H    0.966
                             8 N    0.958
    18   1 H    0.994 --    17 C    0.978
    19   1 H    0.986 --    17 C    0.966
    20   1 H    0.988 --    17 C    0.970
    21   1 H    0.884 --     1 O    0.807
    22   6 C    3.959 --    23 O    1.489    24 N    1.259    27 N    1.200
    23   8 O    1.871 --    22 C    1.489    24 N    0.146    27 N    0.131
    24   7 N    3.335 --    22 C    1.259    26 H    0.949    25 H    0.851
                            23 O    0.146
    25   1 H    0.937 --    24 N    0.851
    26   1 H    0.969 --    24 N    0.949
    27   7 N    3.315 --    22 C    1.200    28 H    0.948    29 H    0.944
                            23 O    0.131
    28   1 H    0.966 --    27 N    0.948
    29   1 H    0.961 --    27 N    0.944
    30   6 C    3.959 --    31 O    1.489    32 N    1.248    35 N    1.211
    31   8 O    1.890 --    30 C    1.489    32 N    0.143    35 N    0.133
    32   7 N    3.341 --    30 C    1.248    34 H    0.948    33 H    0.886
                            31 O    0.143
    33   1 H    0.945 --    32 N    0.886
    34   1 H    0.967 --    32 N    0.948
    35   7 N    3.326 --    30 C    1.211    36 H    0.947    37 H    0.943
                            31 O    0.133
    36   1 H    0.965 --    35 N    0.947
    37   1 H    0.960 --    35 N    0.943
    38   6 C    3.960 --    39 O    1.485    40 N    1.253    43 N    1.212
    39   8 O    1.894 --    38 C    1.485    40 N    0.143    43 N    0.131
    40   7 N    3.345 --    38 C    1.253    42 H    0.949    41 H    0.879
                            39 O    0.143
    41   1 H    0.942 --    40 N    0.879
    42   1 H    0.968 --    40 N    0.949
    43   7 N    3.326 --    38 C    1.212    44 H    0.947    45 H    0.943
                            39 O    0.131
    44   1 H    0.965 --    43 N    0.947
    45   1 H    0.959 --    43 N    0.943
    46   6 C    3.960 --    47 O    1.523    48 N    1.219    51 N    1.210
    47   8 O    1.937 --    46 C    1.523    48 N    0.146    51 N    0.133
    48   7 N    3.330 --    46 C    1.219    50 H    0.946    49 H    0.913
                            47 O    0.146
    49   1 H    0.953 --    48 N    0.913
    50   1 H    0.966 --    48 N    0.946
    51   7 N    3.303 --    46 C    1.210    53 H    0.945    52 H    0.916
                            47 O    0.133
    52   1 H    0.953 --    51 N    0.916
    53   1 H    0.963 --    51 N    0.945
 ---------------------------------------------------------------------------

Topologies differ in total number of bonds
Writing topology from bond orders to xtbtopo.mol

molecular dipole:
                 x           y           z       tot (Debye)
 q only:       -0.207      -0.765       1.282
   full:       -0.122      -0.214       1.008       2.637
molecular quadrupole (traceless):
                xx          xy          yy          xz          yz          zz
 q only:      -11.670      -9.868      36.252      -4.082       3.385     -24.582
  q+dip:       -9.572     -13.665      40.614      -5.069       6.766     -31.042
   full:       -9.610     -13.912      40.324      -5.616       7.315     -30.714

           -------------------------------------------------
          |               Frequency Printout                |
           -------------------------------------------------
 projected vibrational frequencies (cm⁻¹)
eigval :       -0.00    -0.00    -0.00     0.00     0.00     0.00
eigval :       18.08    24.46    31.70    34.30    40.37    41.46
eigval :       46.73    49.05    56.49    63.96    67.83    76.45
eigval :       76.82    83.33    86.62    92.76    99.32   112.08
eigval :      124.39   125.01   141.49   147.25   162.13   197.64
eigval :      203.45   217.61   245.30   246.13   262.59   280.12
eigval :      294.60   301.06   303.78   309.16   330.29   375.86
eigval :      395.49   421.17   433.65   457.13   462.39   470.98
eigval :      471.83   474.12   475.72   479.28   483.54   486.54
eigval :      489.44   495.76   534.46   547.35   551.07   553.51
eigval :      563.88   567.38   617.55   663.17   673.98   675.66
eigval :      677.19   679.40   726.30   765.29   803.21   809.50
eigval :      909.16   923.56   957.75   962.60   972.12   983.97
eigval :      997.30  1008.18  1009.45  1012.34  1017.74  1024.21
eigval :     1024.47  1028.80  1037.34  1084.73  1087.43  1092.74
eigval :     1093.85  1101.02  1103.40  1128.60  1167.89  1227.43
eigval :     1248.11  1269.01  1320.98  1327.23  1347.62  1360.53
eigval :     1366.13  1372.22  1377.04  1380.12  1408.03  1414.82
eigval :     1417.99  1438.58  1441.76  1451.13  1452.61  1453.92
eigval :     1457.91  1459.62  1460.84  1463.63  1467.99  1480.73
eigval :     1483.59  1495.01  1508.77  1510.74  1516.11  1673.91
eigval :     1679.84  1696.69  1714.14  2900.94  2970.61  3002.37
eigval :     3005.88  3021.08  3038.04  3041.32  3043.10  3046.31
eigval :     3051.33  3055.47  3058.61  3062.10  3085.20  3090.31
eigval :     3259.62  3287.43  3413.75  3439.13  3496.26  3499.46
eigval :     3501.57  3526.13  3528.56  3533.44  3534.64  3550.96
eigval :     3561.38  3564.40  3566.92
 reduced masses (amu)
   1: 12.80   2: 12.41   3: 12.24   4: 12.55   5: 12.38   6: 12.62   7: 12.13   8: 12.50
   9: 10.97  10: 12.47  11: 12.07  12: 12.20  13: 12.33  14: 12.60  15: 12.08  16: 12.55
  17: 11.23  18: 12.37  19: 13.40  20: 12.89  21: 13.51  22: 13.50  23: 13.29  24: 11.98
  25: 12.54  26: 13.40  27: 12.52  28: 12.40  29: 13.34  30: 12.38  31: 13.55  32:  5.33
  33:  3.55  34:  4.95  35:  2.87  36:  7.76  37:  2.89  38:  3.08  39:  1.54  40:  2.70
  41:  9.22  42:  7.92  43:  3.25  44:  3.07  45:  9.03  46:  8.29  47:  7.36  48:  3.61
  49:  5.77  50:  3.68  51:  5.62  52:  5.76  53:  4.12  54:  6.58  55:  7.99  56:  2.88
  57:  8.83  58: 11.05  59: 11.17  60: 11.27  61:  7.29  62:  7.76  63:  1.59  64:  6.79
  65: 11.44  66:  7.02  67: 10.98  68: 11.81  69:  2.57  70:  9.38  71:  1.97  72:  1.80
  73:  7.40  74:  8.13  75:  4.95  76:  5.00  77:  4.94  78:  4.92  79:  7.42  80:  8.62
  81:  7.25  82:  9.69  83:  8.97  84:  7.50  85:  7.93  86:  3.89  87:  6.95  88:  9.65
  89:  8.99  90:  6.09  91:  7.70  92:  8.02  93:  4.34  94:  9.05  95:  3.10  96:  6.28
  97:  7.18  98:  8.26  99:  5.28 100:  3.12 101:  5.58 102:  4.80 103:  4.24 104:  4.33
 105:  4.53 106:  4.61 107:  2.51 108:  2.55 109:  2.23 110:  2.27 111:  1.95 112:  3.26
 113:  2.78 114:  3.05 115:  1.95 116:  2.26 117:  2.54 118:  1.85 119:  1.72 120:  1.74
 121:  1.68 122:  8.30 123:  8.93 124:  9.09 125:  8.87 126: 12.51 127: 12.59 128: 12.66
 129: 12.70 130:  1.78 131:  1.65 132:  1.76 133:  1.77 134:  1.73 135:  1.72 136:  1.66
 137:  1.89 138:  1.78 139:  1.88 140:  1.67 141:  1.63 142:  1.63 143:  1.84 144:  1.91
 145:  1.78 146:  1.75 147:  1.63 148:  1.59 149:  1.45 150:  1.45 151:  1.45 152:  1.88
 153:  2.05 154:  1.92 155:  1.91 156:  2.02 157:  2.18 158:  2.18 159:  2.18
 IR intensities (km·mol⁻¹)
   1:  2.34   2:  1.44   3:  1.29   4:  0.37   5:  2.43   6:  0.93   7:  0.66   8:  1.07
   9:  1.80  10:  4.24  11:  1.09  12:  3.09  13:  0.74  14:  1.71  15:  1.34  16:  0.82
  17:  3.01  18:  2.26  19:  7.15  20: 16.23  21:  6.89  22: 17.75  23:  3.30  24:  8.92
  25:  5.71  26:  0.11  27: 10.39  28: 33.49  29: 24.55  30: 50.92  31: 14.19  32: 10.11
  33: 95.03  34: 43.52  35:155.29  36:  0.28  37: 63.43  38:103.73  39: 35.21  40: 93.95
  41:  4.31  42:  1.60  43:169.43  44:418.05  45:  2.26  46:  1.95  47: 21.28  48:187.22
  49: 27.89  50: 13.14  51: 23.28  52: 12.27  53:  4.48  54: 21.48  55: 33.02  56: 18.38
  57: 57.04  58: 42.86  59: 59.91  60:  6.15  61:197.27  62: 93.45  63:137.20  64: 53.52
  65: 18.77  66: 80.31  67: 64.28  68: 54.61  69:103.93  70:  2.50  71:146.97  72:322.95
  73:  4.87  74:  9.36  75:  1.89  76:  1.84  77:  6.07  78:  7.44  79: 15.70  80: 14.87
  81: 26.67  82:  0.08  83:  2.34  84: 10.76  85:  9.33  86: 10.47  87: 38.92  88:  0.54
  89:  0.07  90:  9.20  91:  3.07  92:  3.06  93: 22.72  94: 24.78  95:  7.98  96:  1.72
  97:  1.31  98:  2.60  99:  6.05 100: 30.45 101:227.10 102: 85.44 103: 48.60 104: 91.53
 105: 30.86 106: 10.30 107: 17.08 108: 16.83 109:  8.70 110: 10.26 111:  5.28 112:  3.81
 113: 15.26 114:  5.91 115:  4.53 116:  6.14 117:  0.74 118:  2.49 119: 11.20 120: 24.27
 121: 51.77 122:587.28 123:533.64 124:497.66 125:363.17 126:351.69 127:900.53 128:******
 129:558.15 130: 11.15 131: 52.83 132: 59.35 133:  5.63 134: 33.87 135:  0.76 136:  8.16
 137:  4.24 138: 10.19 139:  8.30 140: 14.98 141:  6.45 142:  4.59 143:982.35 144:853.98
 145:677.11 146:780.04 147:278.82 148:119.45 149: 18.25 150: 22.02 151: 21.28 152:  9.55
 153: 25.01 154: 18.95 155: 13.37 156: 35.28 157: 12.78 158: 15.61 159: 13.96
 Raman intensities (amu)
Molecule has no symmetry elements
It seems to be the C1 point group
   1:  0.00   2:  0.00   3:  0.00   4:  0.00   5:  0.00   6:  0.00   7:  0.00   8:  0.00
   9:  0.00  10:  0.00  11:  0.00  12:  0.00  13:  0.00  14:  0.00  15:  0.00  16:  0.00
  17:  0.00  18:  0.00  19:  0.00  20:  0.00  21:  0.00  22:  0.00  23:  0.00  24:  0.00
  25:  0.00  26:  0.00  27:  0.00  28:  0.00  29:  0.00  30:  0.00  31:  0.00  32:  0.00
  33:  0.00  34:  0.00  35:  0.00  36:  0.00  37:  0.00  38:  0.00  39:  0.00  40:  0.00
  41:  0.00  42:  0.00  43:  0.00  44:  0.00  45:  0.00  46:  0.00  47:  0.00  48:  0.00
  49:  0.00  50:  0.00  51:  0.00  52:  0.00  53:  0.00  54:  0.00  55:  0.00  56:  0.00
  57:  0.00  58:  0.00  59:  0.00  60:  0.00  61:  0.00  62:  0.00  63:  0.00  64:  0.00
  65:  0.00  66:  0.00  67:  0.00  68:  0.00  69:  0.00  70:  0.00  71:  0.00  72:  0.00
  73:  0.00  74:  0.00  75:  0.00  76:  0.00  77:  0.00  78:  0.00  79:  0.00  80:  0.00
  81:  0.00  82:  0.00  83:  0.00  84:  0.00  85:  0.00  86:  0.00  87:  0.00  88:  0.00
  89:  0.00  90:  0.00  91:  0.00  92:  0.00  93:  0.00  94:  0.00  95:  0.00  96:  0.00
  97:  0.00  98:  0.00  99:  0.00 100:  0.00 101:  0.00 102:  0.00 103:  0.00 104:  0.00
 105:  0.00 106:  0.00 107:  0.00 108:  0.00 109:  0.00 110:  0.00 111:  0.00 112:  0.00
 113:  0.00 114:  0.00 115:  0.00 116:  0.00 117:  0.00 118:  0.00 119:  0.00 120:  0.00
 121:  0.00 122:  0.00 123:  0.00 124:  0.00 125:  0.00 126:  0.00 127:  0.00 128:  0.00
 129:  0.00 130:  0.00 131:  0.00 132:  0.00 133:  0.00 134:  0.00 135:  0.00 136:  0.00
 137:  0.00 138:  0.00 139:  0.00 140:  0.00 141:  0.00 142:  0.00 143:  0.00 144:  0.00
 145:  0.00 146:  0.00 147:  0.00 148:  0.00 149:  0.00 150:  0.00 151:  0.00 152:  0.00
 153:  0.00 154:  0.00 155:  0.00 156:  0.00 157:  0.00 158:  0.00 159:  0.00
 output can be read by thermo (or use thermo option).
 writing <g98.out> molden fake output.
 recommended (thermochemical) frequency scaling factor: 1.0
           -------------------------------------------------
          |             Thermodynamic Functions             |
           -------------------------------------------------

c1  symmetry found (for desy threshold:  0.10E+00) used in thermo

          ...................................................
          :                      SETUP                      :
          :.................................................:
          :  # frequencies                         153      :
          :  # imaginary freq.                       0      :
          :  linear?                             false      :
          :  only rotor calc.                    false      :
          :  symmetry                               c1      :
          :  rotational number                       1      :
          :  scaling factor                  1.0000000      :
          :  rotor cutoff                   50.0000000 cm⁻¹ :
          :  imag. cutoff                  -20.0000000 cm⁻¹ :
          :.................................................:

    mode    ω/cm⁻¹     T·S(HO)/kcal·mol⁻¹    T·S(FR)/kcal·mol⁻¹   T·S(vib)
   ------------------------------------------------------------------------
       1     18.08    -2.03769 (  1.68%)    -1.35778 ( 98.32%)    -1.36921
       2     24.46    -1.85878 (  5.42%)    -1.26827 ( 94.58%)    -1.30026
       3     31.70    -1.70552 ( 13.90%)    -1.19153 ( 86.10%)    -1.26299
       4     34.30    -1.65891 ( 18.12%)    -1.16818 ( 81.88%)    -1.25712
       5     40.37    -1.56259 ( 29.82%)    -1.11990 ( 70.18%)    -1.25190
       6     41.46    -1.54687 ( 32.09%)    -1.11202 ( 67.91%)    -1.25157
       7     46.73    -1.47614 ( 43.29%)    -1.07653 ( 56.71%)    -1.24950
       8     49.05    -1.44755 ( 48.09%)    -1.06217 ( 51.91%)    -1.24751
       9     56.49    -1.36441 ( 61.96%)    -1.02037 ( 38.04%)    -1.23355
      10     63.96    -1.29128 ( 72.81%)    -0.98356 ( 27.19%)    -1.20763
      11     67.83    -1.25679 ( 77.21%)    -0.96617 ( 22.79%)    -1.19055
      12     76.45    -1.18666 ( 84.53%)    -0.93075 ( 15.47%)    -1.14708
      13     76.82    -1.18379 ( 84.79%)    -0.92930 ( 15.21%)    -1.14507
      14     83.33    -1.13623 ( 88.52%)    -0.90522 ( 11.48%)    -1.10972
      15     86.62    -1.11356 ( 90.01%)    -0.89373 (  9.99%)    -1.09160
      16     92.76    -1.07367 ( 92.21%)    -0.87347 (  7.79%)    -1.05808
      17     99.32    -1.03386 ( 93.97%)    -0.85321 (  6.03%)    -1.02296
      18    112.08    -0.96380 ( 96.19%)    -0.81742 (  3.81%)    -0.95822
      19    124.39    -0.90368 ( 97.46%)    -0.78653 (  2.54%)    -0.90070
      20    125.01    -0.90086 ( 97.50%)    -0.78508 (  2.50%)    -0.89797
      21    141.49    -0.82992 ( 98.46%)    -0.74838 (  1.54%)    -0.82867
      22    147.25    -0.80721 ( 98.69%)    -0.73656 (  1.31%)    -0.80628
      23    162.13    -0.75278 ( 99.10%)    -0.70805 (  0.90%)    -0.75238
      24    197.64    -0.64251 ( 99.59%)    -0.64938 (  0.41%)    -0.64253
      25    203.45    -0.62662 ( 99.64%)    -0.64080 (  0.36%)    -0.62668
      26    217.61    -0.58999 ( 99.72%)    -0.62086 (  0.28%)    -0.59008
      27    245.30    -0.52597 ( 99.83%)    -0.58538 (  0.17%)    -0.52607
      28    246.13    -0.52419 ( 99.83%)    -0.58438 (  0.17%)    -0.52429
      29    262.59    -0.49030 ( 99.87%)    -0.56520 (  0.13%)    -0.49039
      30    280.12    -0.45704 ( 99.90%)    -0.54606 (  0.10%)    -0.45713
      31    294.60    -0.43153 ( 99.92%)    -0.53113 (  0.08%)    -0.43162
   ------------------------------------------------------------------------

   temp. (K)  partition function   enthalpy   heat capacity  entropy
                                   cal/mol     cal/K/mol   cal/K/mol   J/K/mol
 298.15  VIB  0.105E+17            19242.439    104.588    125.945
         ROT  0.113E+08              888.752      2.981     35.251
         INT  0.119E+24            20131.192    107.568    161.197
         TR   0.618E+28             1481.254      4.968     43.384
         TOT                       21612.4456   112.5366   204.5810   855.9668

       T/K    H(0)-H(T)+PV         H(T)/Eh          T*S/Eh         G(T)/Eh
   ------------------------------------------------------------------------
    298.15    0.344416E-01    0.473867E+00    0.972030E-01    0.376664E+00
   ------------------------------------------------------------------------

         :::::::::::::::::::::::::::::::::::::::::::::::::::::
         ::                  THERMODYNAMIC                  ::
         :::::::::::::::::::::::::::::::::::::::::::::::::::::
         :: total free energy         -80.556644704681 Eh   ::
         ::.................................................::
         :: total energy              -80.933308604866 Eh   ::
         :: zero point energy           0.439425299269 Eh   ::
         :: G(RRHO) w/o ZPVE           -0.062761399084 Eh   ::
         :: G(RRHO) contrib.            0.376663900185 Eh   ::
         :::::::::::::::::::::::::::::::::::::::::::::::::::::

           -------------------------------------------------
          | TOTAL ENERGY              -80.933308604866 Eh   |
          | TOTAL ENTHALPY            -80.459441681269 Eh   |
          | TOTAL FREE ENERGY         -80.556644704681 Eh   |
          | GRADIENT NORM               0.000066303511 Eh/α |
          | HOMO-LUMO GAP               5.646347372004 eV   |
           -------------------------------------------------

------------------------------------------------------------------------
 * finished run on 2024/01/10 at 18:30:03.442     
------------------------------------------------------------------------
 total:
 * wall-time:     0 d,  0 h,  0 min, 14.887 sec
 *  cpu-time:     0 d,  0 h,  0 min, 14.822 sec
 * ratio c/w:     0.996 speedup
 SCF:
 * wall-time:     0 d,  0 h,  0 min,  0.099 sec
 *  cpu-time:     0 d,  0 h,  0 min,  0.059 sec
 * ratio c/w:     0.597 speedup
 analytical hessian:
 * wall-time:     0 d,  0 h,  0 min, 14.761 sec
 *  cpu-time:     0 d,  0 h,  0 min, 14.736 sec
 * ratio c/w:     0.998 speedup

