      -----------------------------------------------------------      
     |                   =====================                   |     
     |                           x T B                           |     
     |                   =====================                   |     
     |                         S. Grimme                         |     
     |          Mulliken Center for Theoretical Chemistry        |     
     |                    University of Bonn                     |     
      -----------------------------------------------------------      

   * xtb version 6.6.1 (unknown-commit) compiled by '@Linux' on 12/27/2023

   xtb is free software: you can redistribute it and/or modify it under
   the terms of the GNU Lesser General Public License as published by
   the Free Software Foundation, either version 3 of the License, or
   (at your option) any later version.
   
   xtb is distributed in the hope that it will be useful,
   but WITHOUT ANY WARRANTY; without even the implied warranty of
   MERCHANTABILITY or FITNESS FOR A PARTICULAR PURPOSE.  See the
   GNU Lesser General Public License for more details.
   
   Cite this work as:
   * C. Bannwarth, E. Caldeweyher, S. Ehlert, A. Hansen, P. Pracht,
     J. Seibert, S. Spicher, S. Grimme, WIREs Comput. Mol. Sci., 2020, 11,
     e01493. DOI: 10.1002/wcms.1493
   
   for GFN2-xTB:
   * C. Bannwarth, S. Ehlert and S. Grimme., J. Chem. Theory Comput., 2019,
     15, 1652-1671. DOI: 10.1021/acs.jctc.8b01176
   for GFN1-xTB:
   * S. Grimme, C. Bannwarth, P. Shushkov, J. Chem. Theory Comput., 2017,
     13, 1989-2009. DOI: 10.1021/acs.jctc.7b00118
   for GFN0-xTB:
   * P. Pracht, E. Caldeweyher, S. Ehlert, S. Grimme, ChemRxiv, 2019, preprint.
     DOI: 10.26434/chemrxiv.8326202.v1
   for GFN-FF:
   * S. Spicher and S. Grimme, Angew. Chem. Int. Ed., 2020, 59, 15665-15673.
     DOI: 10.1002/anie.202004239
   
   for ALPB and GBSA implicit solvation:
   * S. Ehlert, M. Stahn, S. Spicher, S. Grimme, J. Chem. Theory Comput.,
     2021, 17, 4250-4261. DOI: 10.1021/acs.jctc.1c00471
   
   for DFT-D4:
   * E. Caldeweyher, C. Bannwarth and S. Grimme, J. Chem. Phys., 2017,
     147, 034112. DOI: 10.1063/1.4993215
   * E. Caldeweyher, S. Ehlert, A. Hansen, H. Neugebauer, S. Spicher,
     C. Bannwarth and S. Grimme, J. Chem. Phys., 2019, 150, 154122.
     DOI: 10.1063/1.5090222
   * E. Caldeweyher, J.-M. Mewes, S. Ehlert and S. Grimme, Phys. Chem. Chem. Phys.
     2020, 22, 8499-8512. DOI: 10.1039/D0CP00502A
   
   for sTDA-xTB:
   * S. Grimme and C. Bannwarth, J. Chem. Phys., 2016, 145, 054103.
     DOI: 10.1063/1.4959605
   
   in the mass-spec context:
   * V. Asgeirsson, C. Bauer and S. Grimme, Chem. Sci., 2017, 8, 4879.
     DOI: 10.1039/c7sc00601b
   * J. Koopman and S. Grimme, ACS Omega 2019, 4, 12, 15120-15133.
     DOI: 10.1021/acsomega.9b02011
   
   for metadynamics refer to:
   * S. Grimme, J. Chem. Theory Comput., 2019, 155, 2847-2862
     DOI: 10.1021/acs.jctc.9b00143
   
   for SPH calculations refer to:
   * S. Spicher and S. Grimme, J. Chem. Theory Comput., 2021, 17, 1701-1714
     DOI: 10.1021/acs.jctc.0c01306
   
   with help from (in alphabetical order)
   P. Atkinson, C. Bannwarth, F. Bohle, G. Brandenburg, E. Caldeweyher
   M. Checinski, S. Dohm, S. Ehlert, S. Ehrlich, I. Gerasimov, C. Hölzer
   A. Katbashev, J. Koopman, C. Lavigne, S. Lehtola, F. März, M. Müller,
   F. Musil, H. Neugebauer, J. Pisarek, C. Plett, P. Pracht, F. Pultar,
   J. Seibert, P. Shushkov, S. Spicher, M. Stahn, M. Steiner, T. Strunk,
   J. Stückrath, T. Rose, and J. Unsleber
   
 * started run on 2024/01/10 at 18:28:37.597     

           -------------------------------------------------
          |                Calculation Setup                |
           -------------------------------------------------

          program call               : xtb struc.xyz --gfn2 --hess
          hostname                   : swaroop
          coordinate file            : struc.xyz
          omp threads                :                     1

   ID    Z sym.   atoms
    1    8 O      1, 23, 31, 39, 47
    2    6 C      2, 5, 9, 13, 17, 22, 30, 38, 46
    3    1 H      3, 4, 6, 7, 10-12, 14-16, 18-21, 25, 26, 28, 29, 33, 34,
                  36, 37, 41, 42, 44, 45, 49, 50, 52, 53
    4    7 N      8, 24, 27, 32, 35, 40, 43, 48, 51

molecular fragmentation (1/2 indicates fragments):
11111111111111111111122222222222222222222222222222222
# atoms in fragment 1/2:    21    32
 fragment masses (1/2) :      104.17      240.22
CMA distance (Bohr)    :   6.549
constraining FC (au)   :  0.0500

           -------------------------------------------------
          |                 G F N 2 - x T B                 |
           -------------------------------------------------

        Reference                      10.1021/acs.jctc.8b01176
      * Hamiltonian:
        H0-scaling (s, p, d)           1.850000    2.230000    2.230000
        zeta-weighting                 0.500000
      * Dispersion:
        s8                             2.700000
        a1                             0.520000
        a2                             5.000000
        s9                             5.000000
      * Repulsion:
        kExp                           1.500000    1.000000
        rExp                           1.000000
      * Coulomb:
        alpha                          2.000000
        third order                    shell-resolved
        anisotropic                    true
        a3                             3.000000
        a5                             4.000000
        cn-shift                       1.200000
        cn-exp                         4.000000
        max-rad                        5.000000


          ...................................................
          :                      SETUP                      :
          :.................................................:
          :  # basis functions                 122          :
          :  # atomic orbitals                 122          :
          :  # shells                           76          :
          :  # electrons                       140          :
          :  max. iterations                   250          :
          :  Hamiltonian                  GFN2-xTB          :
          :  restarted?                      false          :
          :  GBSA solvation                  false          :
          :  PC potential                    false          :
          :  electronic temp.          300.0000000     K    :
          :  accuracy                    1.0000000          :
          :  -> integral cutoff          0.2500000E+02      :
          :  -> integral neglect         0.1000000E-07      :
          :  -> SCF convergence          0.1000000E-05 Eh   :
          :  -> wf. convergence          0.1000000E-03 e    :
          :  Broyden damping             0.4000000          :
          ...................................................

 iter      E             dE          RMSdq      gap      omega  full diag
   1    -81.5491782 -0.815492E+02  0.432E+00    4.96       0.0  T
   2    -81.8362580 -0.287080E+00  0.234E+00    5.72       1.0  T
   3    -81.8421183 -0.586029E-02  0.114E+00    5.55       1.0  T
   4    -81.8435444 -0.142612E-02  0.243E-01    5.64       1.0  T
   5    -81.8444758 -0.931404E-03  0.919E-02    5.58       1.0  T
   6    -81.8445001 -0.243324E-04  0.265E-02    5.58       1.0  T
   7    -81.8445049 -0.480797E-05  0.761E-03    5.58       1.8  T
   8    -81.8445052 -0.281351E-06  0.311E-03    5.58       4.4  T
   9    -81.8445053 -0.480440E-07  0.118E-03    5.58      11.7  T
  10    -81.8445053 -0.735811E-08  0.225E-04    5.58      61.2  T
  11    -81.8445053 -0.612431E-09  0.966E-05    5.58     142.2  T

   *** convergence criteria satisfied after 11 iterations ***

         #    Occupation            Energy/Eh            Energy/eV
      -------------------------------------------------------------
         1        2.0000           -0.8036211             -21.8676
       ...           ...                  ...                  ...
        64        2.0000           -0.4972848             -13.5318
        65        2.0000           -0.4949516             -13.4683
        66        2.0000           -0.4941756             -13.4472
        67        2.0000           -0.4906411             -13.3510
        68        2.0000           -0.4889797             -13.3058
        69        2.0000           -0.4883403             -13.2884
        70        2.0000           -0.4873094             -13.2604 (HOMO)
        71                         -0.2822353              -7.6800 (LUMO)
        72                         -0.2760492              -7.5117
        73                         -0.2622232              -7.1355
        74                         -0.2583241              -7.0294
        75                         -0.1585107              -4.3133
       ...                                ...                  ...
       122                          0.5629236              15.3179
      -------------------------------------------------------------
                  HL-Gap            0.2050741 Eh            5.5804 eV
             Fermi-level           -0.3847724 Eh          -10.4702 eV

 SCC (total)                   0 d,  0 h,  0 min,  0.083 sec
 SCC setup                      ...        0 min,  0.000 sec (  0.351%)
 Dispersion                     ...        0 min,  0.001 sec (  0.710%)
 classical contributions        ...        0 min,  0.000 sec (  0.225%)
 integral evaluation            ...        0 min,  0.008 sec ( 10.053%)
 iterations                     ...        0 min,  0.044 sec ( 53.868%)
 molecular gradient             ...        0 min,  0.028 sec ( 34.469%)
 printout                       ...        0 min,  0.000 sec (  0.309%)

         :::::::::::::::::::::::::::::::::::::::::::::::::::::
         ::                     SUMMARY                     ::
         :::::::::::::::::::::::::::::::::::::::::::::::::::::
         :: total energy             -80.933852074518 Eh    ::
         :: gradient norm              0.000123233588 Eh/a0 ::
         :: HOMO-LUMO gap              5.580350671184 eV    ::
         ::.................................................::
         :: SCC energy               -81.844505259013 Eh    ::
         :: -> isotropic ES            0.296136916200 Eh    ::
         :: -> anisotropic ES         -0.031414699641 Eh    ::
         :: -> anisotropic XC          0.021102464756 Eh    ::
         :: -> dispersion             -0.046648500228 Eh    ::
         :: repulsion energy           0.908552847322 Eh    ::
         :: add. restraining           0.000000000000 Eh    ::
         :: total charge               1.000000000000 e     ::
         :::::::::::::::::::::::::::::::::::::::::::::::::::::

           ------------------------------------------------- 
          |                Numerical Hessian                |
           ------------------------------------------------- 
step length          :   0.00500
SCC accuracy         :   0.30000
Hessian scale factor :   1.00000
frozen atoms in %    :   0.00000    0
RMS gradient         :   0.00012
estimated CPU  time      0.25 min
estimated wall time      0.25 min

writing file <hessian>.

 projected vibrational frequencies (cm⁻¹)
eigval :       -0.00    -0.00    -0.00    -0.00     0.00     0.00
eigval :       15.27    24.92    25.49    30.12    33.07    42.89
eigval :       43.87    55.21    59.23    60.51    68.71    72.64
eigval :       86.41    91.99   100.35   102.74   110.83   118.52
eigval :      120.75   125.63   155.79   162.74   169.17   174.61
eigval :      194.13   232.60   240.25   247.22   268.58   302.44
eigval :      311.15   315.88   339.62   357.07   362.64   377.50
eigval :      378.79   427.10   427.89   443.59   461.42   462.15
eigval :      464.13   466.72   467.84   475.41   477.82   482.19
eigval :      498.75   537.61   541.31   543.48   557.81   562.42
eigval :      568.59   604.86   647.49   667.14   673.17   675.70
eigval :      675.91   734.70   748.72   765.11   786.20   795.21
eigval :      913.78   923.95   955.94   959.61   970.48   996.63
eigval :     1003.13  1004.11  1004.75  1011.04  1019.69  1025.01
eigval :     1030.00  1034.63  1037.06  1083.06  1084.36  1089.47
eigval :     1092.39  1099.49  1117.95  1126.13  1162.15  1224.71
eigval :     1246.68  1270.85  1312.12  1328.22  1346.37  1352.11
eigval :     1353.44  1358.89  1380.24  1393.16  1404.58  1408.31
eigval :     1425.62  1434.81  1442.73  1448.37  1453.51  1454.16
eigval :     1456.11  1460.96  1466.60  1467.68  1474.36  1482.54
eigval :     1492.77  1497.87  1500.86  1505.98  1517.28  1670.69
eigval :     1698.84  1702.78  1732.50  2887.10  2974.95  2994.87
eigval :     3011.46  3036.02  3036.83  3039.35  3043.88  3044.26
eigval :     3048.16  3055.42  3058.17  3070.77  3167.01  3170.03
eigval :     3241.13  3359.45  3396.82  3419.59  3445.37  3496.14
eigval :     3496.42  3496.96  3499.64  3531.72  3537.11  3540.75
eigval :     3560.10  3561.05  3563.52
           -------------------------------------------------
          |                Property Printout                |
           -------------------------------------------------

    * Orbital Energies and Occupations

         #    Occupation            Energy/Eh            Energy/eV
      -------------------------------------------------------------
         1        2.0000           -0.8036210             -21.8676
       ...           ...                  ...                  ...
        58        2.0000           -0.5188018             -14.1173
        59        2.0000           -0.5153268             -14.0228
        60        2.0000           -0.5131446             -13.9634
        61        2.0000           -0.5093035             -13.8589
        62        2.0000           -0.5003033             -13.6139
        63        2.0000           -0.4977571             -13.5447
        64        2.0000           -0.4972853             -13.5318
        65        2.0000           -0.4949510             -13.4683
        66        2.0000           -0.4941754             -13.4472
        67        2.0000           -0.4906416             -13.3510
        68        2.0000           -0.4889801             -13.3058
        69        2.0000           -0.4883407             -13.2884
        70        2.0000           -0.4873099             -13.2604 (HOMO)
        71                         -0.2822359              -7.6800 (LUMO)
        72                         -0.2760490              -7.5117
        73                         -0.2622236              -7.1355
        74                         -0.2583245              -7.0294
        75                         -0.1585104              -4.3133
        76                         -0.1139216              -3.1000
        77                         -0.0958639              -2.6086
        78                         -0.0911144              -2.4793
        79                         -0.0808355              -2.1996
        80                         -0.0774608              -2.1078
        81                         -0.0716130              -1.9487
       ...                                ...                  ...
       122                          0.5629235              15.3179
      -------------------------------------------------------------
                  HL-Gap            0.2050740 Eh            5.5803 eV
             Fermi-level           -0.3847729 Eh          -10.4702 eV

     #   Z          covCN         q      C6AA      α(0)
     1   8 O        1.654    -0.468    22.221     6.363
     2   6 C        3.673     0.075    19.545     6.336
     3   1 H        0.924     0.049     2.326     2.385
     4   1 H        0.923     0.042     2.422     2.434
     5   6 C        3.766    -0.081    22.080     6.697
     6   1 H        0.924     0.133     1.510     1.921
     7   1 H        0.924     0.100     1.783     2.088
     8   7 N        3.623     0.157    18.587     6.403
     9   6 C        3.733    -0.125    22.984     6.843
    10   1 H        0.925     0.082     1.957     2.188
    11   1 H        0.925     0.131     1.527     1.932
    12   1 H        0.925     0.114     1.664     2.017
    13   6 C        3.721    -0.096    22.452     6.767
    14   1 H        0.925     0.091     1.867     2.137
    15   1 H        0.925     0.099     1.797     2.096
    16   1 H        0.925     0.087     1.910     2.161
    17   6 C        3.724    -0.111    22.735     6.809
    18   1 H        0.925     0.116     1.643     2.004
    19   1 H        0.925     0.118     1.627     1.995
    20   1 H        0.925     0.077     2.008     2.216
    21   1 H        0.802     0.336     0.623     1.240
    22   6 C        2.675     0.342    21.184     7.532
    23   8 O        0.860    -0.513    24.069     6.578
    24   7 N        2.643    -0.316    28.122     7.876
    25   1 H        0.859     0.244     0.909     1.493
    26   1 H        0.860     0.212     1.045     1.601
    27   7 N        2.642    -0.326    28.395     7.914
    28   1 H        0.860     0.184     1.189     1.708
    29   1 H        0.860     0.193     1.141     1.673
    30   6 C        2.675     0.349    21.066     7.510
    31   8 O        0.860    -0.533    24.533     6.641
    32   7 N        2.644    -0.300    27.740     7.822
    33   1 H        0.860     0.243     0.910     1.494
    34   1 H        0.861     0.177     1.229     1.737
    35   7 N        2.645    -0.292    27.523     7.792
    36   1 H        0.861     0.182     1.202     1.717
    37   1 H        0.860     0.193     1.141     1.674
    38   6 C        2.675     0.342    21.198     7.534
    39   8 O        0.860    -0.525    24.353     6.616
    40   7 N        2.645    -0.297    27.663     7.811
    41   1 H        0.860     0.198     1.114     1.654
    42   1 H        0.861     0.182     1.202     1.718
    43   7 N        2.645    -0.300    27.738     7.822
    44   1 H        0.861     0.180     1.214     1.726
    45   1 H        0.860     0.239     0.929     1.510
    46   6 C        2.675     0.341    21.200     7.534
    47   8 O        0.860    -0.529    24.430     6.627
    48   7 N        2.645    -0.290    27.477     7.785
    49   1 H        0.860     0.201     1.099     1.642
    50   1 H        0.861     0.187     1.173     1.697
    51   7 N        2.645    -0.299    27.706     7.818
    52   1 H        0.861     0.185     1.185     1.705
    53   1 H        0.860     0.215     1.034     1.593

 Mol. C6AA /au·bohr⁶  :      21798.760345
 Mol. C8AA /au·bohr⁸  :     454440.586365
 Mol. α(0) /au        :        220.587065


Wiberg/Mayer (AO) data.
largest (>0.10) Wiberg bond orders for each atom

 ---------------------------------------------------------------------------
     #   Z sym  total        # sym  WBO       # sym  WBO       # sym  WBO
 ---------------------------------------------------------------------------
     1   8 O    1.952 --     2 C    1.024    21 H    0.818
     2   6 C    3.969 --     1 O    1.024     5 C    0.993     3 H    0.967
                             4 H    0.961
     3   1 H    0.997 --     2 C    0.967
     4   1 H    0.998 --     2 C    0.961
     5   6 C    3.919 --     2 C    0.993     7 H    0.953     6 H    0.946
                             8 N    0.928
     6   1 H    0.982 --     5 C    0.946
     7   1 H    0.990 --     5 C    0.953
     8   7 N    3.822 --    13 C    0.966    17 C    0.956     9 C    0.954
                             5 C    0.928
     9   6 C    3.916 --    10 H    0.977    12 H    0.966    11 H    0.958
                             8 N    0.954
    10   1 H    0.993 --     9 C    0.977
    11   1 H    0.983 --     9 C    0.958
    12   1 H    0.987 --     9 C    0.966
    13   6 C    3.941 --    14 H    0.977    16 H    0.976    15 H    0.973
                             8 N    0.966
    14   1 H    0.992 --    13 C    0.977
    15   1 H    0.990 --    13 C    0.973
    16   1 H    0.992 --    13 C    0.976
    17   6 C    3.919 --    20 H    0.979    18 H    0.964    19 H    0.964
                             8 N    0.956
    18   1 H    0.986 --    17 C    0.964
    19   1 H    0.986 --    17 C    0.964
    20   1 H    0.994 --    17 C    0.979
    21   1 H    0.887 --     1 O    0.818
    22   6 C    3.958 --    23 O    1.516    24 N    1.297    27 N    1.129
    23   8 O    1.944 --    22 C    1.516    24 N    0.160    27 N    0.110
    24   7 N    3.365 --    22 C    1.297    26 H    0.913    25 H    0.864
                            23 O    0.160
    25   1 H    0.941 --    24 N    0.864
    26   1 H    0.955 --    24 N    0.913
    27   7 N    3.243 --    22 C    1.129    29 H    0.945    28 H    0.943
                            23 O    0.110
    28   1 H    0.966 --    27 N    0.943
    29   1 H    0.962 --    27 N    0.945
    30   6 C    3.958 --    31 O    1.485    32 N    1.264    35 N    1.200
    31   8 O    1.904 --    30 C    1.485    32 N    0.142    35 N    0.127
    32   7 N    3.345 --    30 C    1.264    34 H    0.949    33 H    0.870
                            31 O    0.142
    33   1 H    0.941 --    32 N    0.870
    34   1 H    0.968 --    32 N    0.949
    35   7 N    3.312 --    30 C    1.200    36 H    0.948    37 H    0.945
                            31 O    0.127
    36   1 H    0.966 --    35 N    0.948
    37   1 H    0.962 --    35 N    0.945
    38   6 C    3.960 --    39 O    1.512    43 N    1.245    40 N    1.194
    39   8 O    1.906 --    38 C    1.512    43 N    0.145    40 N    0.136
    40   7 N    3.309 --    38 C    1.194    42 H    0.948    41 H    0.943
                            39 O    0.136
    41   1 H    0.960 --    40 N    0.943
    42   1 H    0.967 --    40 N    0.948
    43   7 N    3.342 --    38 C    1.245    44 H    0.948    45 H    0.890
                            39 O    0.145
    44   1 H    0.967 --    43 N    0.948
    45   1 H    0.943 --    43 N    0.890
    46   6 C    3.960 --    47 O    1.517    51 N    1.226    48 N    1.208
    47   8 O    1.892 --    46 C    1.517    51 N    0.145    48 N    0.138
    48   7 N    3.322 --    46 C    1.208    50 H    0.946    49 H    0.942
                            47 O    0.138
    49   1 H    0.959 --    48 N    0.942
    50   1 H    0.965 --    48 N    0.946
    51   7 N    3.333 --    46 C    1.226    52 H    0.947    53 H    0.914
                            47 O    0.145
    52   1 H    0.966 --    51 N    0.947
    53   1 H    0.954 --    51 N    0.914
 ---------------------------------------------------------------------------

Topologies differ in total number of bonds
Writing topology from bond orders to xtbtopo.mol

molecular dipole:
                 x           y           z       tot (Debye)
 q only:       -1.384      -0.882       0.816
   full:       -1.249      -0.931       0.063       3.963
molecular quadrupole (traceless):
                xx          xy          yy          xz          yz          zz
 q only:       -6.548      36.075       3.137       6.673      -1.589       3.411
  q+dip:       -8.028      43.863       5.467       9.465      -1.315       2.561
   full:       -7.686      43.339       5.962       9.552      -0.856       1.724

           -------------------------------------------------
          |               Frequency Printout                |
           -------------------------------------------------
 projected vibrational frequencies (cm⁻¹)
eigval :       -0.00    -0.00    -0.00    -0.00     0.00     0.00
eigval :       15.27    24.92    25.49    30.12    33.07    42.89
eigval :       43.87    55.21    59.23    60.51    68.71    72.64
eigval :       86.41    91.99   100.35   102.74   110.83   118.52
eigval :      120.75   125.63   155.79   162.74   169.17   174.61
eigval :      194.13   232.60   240.25   247.22   268.58   302.44
eigval :      311.15   315.88   339.62   357.07   362.64   377.50
eigval :      378.79   427.10   427.89   443.59   461.42   462.15
eigval :      464.13   466.72   467.84   475.41   477.82   482.19
eigval :      498.75   537.61   541.31   543.48   557.81   562.42
eigval :      568.59   604.86   647.49   667.14   673.17   675.70
eigval :      675.91   734.70   748.72   765.11   786.20   795.21
eigval :      913.78   923.95   955.94   959.61   970.48   996.63
eigval :     1003.13  1004.11  1004.75  1011.04  1019.69  1025.01
eigval :     1030.00  1034.63  1037.06  1083.06  1084.36  1089.47
eigval :     1092.39  1099.49  1117.95  1126.13  1162.15  1224.71
eigval :     1246.68  1270.85  1312.12  1328.22  1346.37  1352.11
eigval :     1353.44  1358.89  1380.24  1393.16  1404.58  1408.31
eigval :     1425.62  1434.81  1442.73  1448.37  1453.51  1454.16
eigval :     1456.11  1460.96  1466.60  1467.68  1474.36  1482.54
eigval :     1492.77  1497.87  1500.86  1505.98  1517.28  1670.69
eigval :     1698.84  1702.78  1732.50  2887.10  2974.95  2994.87
eigval :     3011.46  3036.02  3036.83  3039.35  3043.88  3044.26
eigval :     3048.16  3055.42  3058.17  3070.77  3167.01  3170.03
eigval :     3241.13  3359.45  3396.82  3419.59  3445.37  3496.14
eigval :     3496.42  3496.96  3499.64  3531.72  3537.11  3540.75
eigval :     3560.10  3561.05  3563.52
 reduced masses (amu)
   1: 12.13   2: 12.45   3: 12.71   4: 12.18   5: 12.64   6: 12.86   7: 12.31   8: 11.82
   9: 12.18  10: 12.38  11: 12.19  12: 12.43  13: 12.69  14: 11.34  15: 13.06  16: 12.57
  17: 12.64  18: 11.22  19: 12.70  20: 13.11  21: 13.09  22: 11.21  23: 12.59  24: 12.76
  25: 11.94  26: 12.83  27: 13.66  28: 13.20  29: 12.90  30: 12.34  31:  9.35  32: 12.16
  33:  3.74  34:  4.96  35:  2.49  36:  4.18  37:  3.87  38:  6.47  39:  6.33  40:  3.78
  41:  3.32  42:  3.64  43:  6.27  44:  3.37  45:  7.58  46:  2.35  47:  5.37  48:  6.59
  49:  4.66  50:  5.78  51:  4.97  52:  5.83  53:  7.48  54:  7.96  55:  8.64  56: 10.97
  57: 11.04  58:  8.15  59:  7.89  60: 10.20  61:  8.25  62:  4.47  63:  5.01  64: 10.85
  65:  8.21  66: 10.97  67:  8.92  68:  1.59  69:  6.58  70:  9.19  71:  2.45  72:  2.42
  73:  6.67  74:  8.41  75:  5.02  76:  4.89  77:  4.82  78:  7.27  79:  8.89  80:  9.59
  81:  9.07  82:  7.05  83:  9.27  84:  6.92  85:  4.96  86:  6.64  87:  3.27  88:  9.36
  89:  9.15  90:  6.94  91:  8.33  92:  4.36  93:  6.45  94:  8.51  95:  2.86  96:  5.69
  97:  6.90  98:  8.14  99:  6.16 100:  3.31 101:  4.68 102:  5.44 103:  5.85 104:  5.46
 105:  4.26 106:  5.30 107:  2.65 108:  2.63 109:  2.23 110:  1.80 111:  2.12 112:  3.03
 113:  3.15 114:  1.73 115:  3.03 116:  2.47 117:  2.14 118:  1.79 119:  2.04 120:  2.99
 121:  2.48 122:  5.89 123:  7.81 124:  7.63 125:  8.87 126: 12.58 127: 12.68 128: 12.75
 129: 12.66 130:  1.76 131:  1.66 132:  1.74 133:  1.79 134:  1.87 135:  1.61 136:  1.68
 137:  1.76 138:  1.64 139:  1.79 140:  1.74 141:  1.78 142:  1.72 143:  1.81 144:  1.90
 145:  1.79 146:  1.71 147:  1.68 148:  1.88 149:  1.48 150:  2.14 151:  1.45 152:  1.46
 153:  1.45 154:  1.90 155:  1.96 156:  2.00 157:  2.18 158:  2.18 159:  2.17
 IR intensities (km·mol⁻¹)
   1:  2.24   2:  3.00   3:  0.06   4:  1.08   5:  1.40   6:  1.25   7:  1.24   8:  1.55
   9:  0.63  10:  1.72  11:  6.10  12:  4.60  13:  4.26  14:  3.90  15:  3.10  16:  5.27
  17:  2.56  18:  2.10  19:  2.14  20:  3.46  21:  7.93  22:  3.28  23:  1.71  24: 15.52
  25: 17.22  26:  3.19  27:  5.84  28: 10.39  29:  9.74  30: 57.93  31:  6.43  32:  6.86
  33: 11.20  34:  3.99  35: 95.56  36: 25.40  37:146.23  38:  1.26  39:  1.85  40:  1.95
  41:342.43  42:411.34  43: 23.04  44: 65.90  45: 18.68  46:131.73  47: 13.45  48:  6.76
  49: 11.59  50:  3.66  51:  4.55  52:  7.36  53: 24.22  54:  4.73  55: 85.13  56: 36.83
  57: 25.00  58: 42.95  59: 29.86  60: 80.97  61:  7.87  62:165.76  63:112.26  64: 55.93
  65: 14.31  66: 10.70  67: 97.53  68: 47.55  69:222.06  70:  2.73  71:641.72  72: 81.62
  73:  9.50  74:  7.44  75:  3.53  76:  0.08  77:  2.77  78: 25.15  79:  4.87  80: 10.67
  81:  4.83  82: 22.20  83:  0.93  84: 24.42  85: 13.42  86: 12.03  87:  3.54  88:  1.57
  89:  0.48  90: 15.21  91:  5.01  92: 22.31  93:  1.53  94: 31.93  95:  8.68  96:  4.84
  97:  4.55  98:  5.03  99:  2.83 100:  9.37 101: 40.23 102: 76.19 103:202.10 104: 88.36
 105: 93.44 106: 30.55 107: 16.79 108: 35.75 109: 15.54 110:  5.99 111:  8.62 112: 69.01
 113: 13.91 114:  6.80 115:  4.27 116:  9.92 117: 32.68 118: 11.54 119: 30.57 120: 92.45
 121: 68.63 122:372.13 123:158.99 124:412.77 125:690.26 126:136.91 127:547.37 128:901.27
 129:****** 130: 32.47 131: 56.74 132:  1.41 133: 17.41 134:  6.27 135:  8.75 136: 14.22
 137: 13.12 138:  9.54 139:  7.35 140:  4.08 141:  4.34 142: 25.82 143:240.44 144:640.75
 145:****** 146:787.76 147: 87.76 148:315.79 149:  9.41 150: 11.18 151: 16.44 152: 19.05
 153: 13.71 154: 13.43 155: 26.08 156: 20.59 157: 16.45 158: 12.46 159:  9.31
 Raman intensities (amu)
Molecule has no symmetry elements
It seems to be the C1 point group
   1:  0.00   2:  0.00   3:  0.00   4:  0.00   5:  0.00   6:  0.00   7:  0.00   8:  0.00
   9:  0.00  10:  0.00  11:  0.00  12:  0.00  13:  0.00  14:  0.00  15:  0.00  16:  0.00
  17:  0.00  18:  0.00  19:  0.00  20:  0.00  21:  0.00  22:  0.00  23:  0.00  24:  0.00
  25:  0.00  26:  0.00  27:  0.00  28:  0.00  29:  0.00  30:  0.00  31:  0.00  32:  0.00
  33:  0.00  34:  0.00  35:  0.00  36:  0.00  37:  0.00  38:  0.00  39:  0.00  40:  0.00
  41:  0.00  42:  0.00  43:  0.00  44:  0.00  45:  0.00  46:  0.00  47:  0.00  48:  0.00
  49:  0.00  50:  0.00  51:  0.00  52:  0.00  53:  0.00  54:  0.00  55:  0.00  56:  0.00
  57:  0.00  58:  0.00  59:  0.00  60:  0.00  61:  0.00  62:  0.00  63:  0.00  64:  0.00
  65:  0.00  66:  0.00  67:  0.00  68:  0.00  69:  0.00  70:  0.00  71:  0.00  72:  0.00
  73:  0.00  74:  0.00  75:  0.00  76:  0.00  77:  0.00  78:  0.00  79:  0.00  80:  0.00
  81:  0.00  82:  0.00  83:  0.00  84:  0.00  85:  0.00  86:  0.00  87:  0.00  88:  0.00
  89:  0.00  90:  0.00  91:  0.00  92:  0.00  93:  0.00  94:  0.00  95:  0.00  96:  0.00
  97:  0.00  98:  0.00  99:  0.00 100:  0.00 101:  0.00 102:  0.00 103:  0.00 104:  0.00
 105:  0.00 106:  0.00 107:  0.00 108:  0.00 109:  0.00 110:  0.00 111:  0.00 112:  0.00
 113:  0.00 114:  0.00 115:  0.00 116:  0.00 117:  0.00 118:  0.00 119:  0.00 120:  0.00
 121:  0.00 122:  0.00 123:  0.00 124:  0.00 125:  0.00 126:  0.00 127:  0.00 128:  0.00
 129:  0.00 130:  0.00 131:  0.00 132:  0.00 133:  0.00 134:  0.00 135:  0.00 136:  0.00
 137:  0.00 138:  0.00 139:  0.00 140:  0.00 141:  0.00 142:  0.00 143:  0.00 144:  0.00
 145:  0.00 146:  0.00 147:  0.00 148:  0.00 149:  0.00 150:  0.00 151:  0.00 152:  0.00
 153:  0.00 154:  0.00 155:  0.00 156:  0.00 157:  0.00 158:  0.00 159:  0.00
 output can be read by thermo (or use thermo option).
 writing <g98.out> molden fake output.
 recommended (thermochemical) frequency scaling factor: 1.0
           -------------------------------------------------
          |             Thermodynamic Functions             |
           -------------------------------------------------

c1  symmetry found (for desy threshold:  0.10E+00) used in thermo

          ...................................................
          :                      SETUP                      :
          :.................................................:
          :  # frequencies                         153      :
          :  # imaginary freq.                       0      :
          :  linear?                             false      :
          :  only rotor calc.                    false      :
          :  symmetry                               c1      :
          :  rotational number                       1      :
          :  scaling factor                  1.0000000      :
          :  rotor cutoff                   50.0000000 cm⁻¹ :
          :  imag. cutoff                  -20.0000000 cm⁻¹ :
          :.................................................:

    mode    ω/cm⁻¹     T·S(HO)/kcal·mol⁻¹    T·S(FR)/kcal·mol⁻¹   T·S(vib)
   ------------------------------------------------------------------------
       1     15.27    -2.13794 (  0.86%)    -1.40790 ( 99.14%)    -1.41419
       2     24.92    -1.84775 (  5.81%)    -1.26274 ( 94.19%)    -1.29675
       3     25.49    -1.83433 (  6.33%)    -1.25602 ( 93.67%)    -1.29263
       4     30.12    -1.73572 ( 11.63%)    -1.20666 ( 88.37%)    -1.26821
       5     33.07    -1.68044 ( 16.06%)    -1.17897 ( 83.94%)    -1.25951
       6     42.89    -1.52680 ( 35.12%)    -1.10195 ( 64.88%)    -1.25118
       7     43.87    -1.51350 ( 37.20%)    -1.09528 ( 62.80%)    -1.25088
       8     55.21    -1.37794 ( 59.78%)    -1.02718 ( 40.22%)    -1.23685
       9     59.23    -1.33653 ( 66.32%)    -1.00635 ( 33.68%)    -1.22532
      10     60.51    -1.32391 ( 68.21%)    -0.99999 ( 31.79%)    -1.22093
      11     68.71    -1.24923 ( 78.10%)    -0.96235 ( 21.90%)    -1.18641
      12     72.64    -1.21659 ( 81.67%)    -0.94588 ( 18.33%)    -1.16697
      13     86.41    -1.11498 ( 89.92%)    -0.89445 ( 10.08%)    -1.09275
      14     91.99    -1.07851 ( 91.97%)    -0.87593 (  8.03%)    -1.06225
      15    100.35    -1.02787 ( 94.19%)    -0.85016 (  5.81%)    -1.01755
      16    102.74    -1.01420 ( 94.69%)    -0.84318 (  5.31%)    -1.00511
      17    110.83    -0.97029 ( 96.02%)    -0.82074 (  3.98%)    -0.96434
      18    118.52    -0.93152 ( 96.93%)    -0.80086 (  3.07%)    -0.92751
      19    120.75    -0.92080 ( 97.14%)    -0.79535 (  2.86%)    -0.91722
      20    125.63    -0.89798 ( 97.55%)    -0.78360 (  2.45%)    -0.89518
      21    155.79    -0.77528 ( 98.95%)    -0.71987 (  1.05%)    -0.77470
      22    162.74    -0.75067 ( 99.12%)    -0.70694 (  0.88%)    -0.75028
      23    169.17    -0.72887 ( 99.24%)    -0.69545 (  0.76%)    -0.72862
      24    174.61    -0.71117 ( 99.33%)    -0.68608 (  0.67%)    -0.71100
      25    194.13    -0.65237 ( 99.56%)    -0.65469 (  0.44%)    -0.65238
      26    232.60    -0.55419 ( 99.79%)    -0.60113 (  0.21%)    -0.55429
      27    240.25    -0.53698 ( 99.81%)    -0.59155 (  0.19%)    -0.53708
      28    247.22    -0.52186 ( 99.83%)    -0.58308 (  0.17%)    -0.52196
      29    268.58    -0.47863 ( 99.88%)    -0.55852 (  0.12%)    -0.47873
   ------------------------------------------------------------------------

   temp. (K)  partition function   enthalpy   heat capacity  entropy
                                   cal/mol     cal/K/mol   cal/K/mol   J/K/mol
 298.15  VIB  0.863E+16            19020.293    103.905    124.019
         ROT  0.107E+08              888.752      2.981     35.144
         INT  0.923E+23            19909.046    106.885    159.163
         TR   0.618E+28             1481.254      4.968     43.384
         TOT                       21390.2995   111.8536   202.5478   847.4602

       T/K    H(0)-H(T)+PV         H(T)/Eh          T*S/Eh         G(T)/Eh
   ------------------------------------------------------------------------
    298.15    0.340876E-01    0.474492E+00    0.962370E-01    0.378255E+00
   ------------------------------------------------------------------------

         :::::::::::::::::::::::::::::::::::::::::::::::::::::
         ::                  THERMODYNAMIC                  ::
         :::::::::::::::::::::::::::::::::::::::::::::::::::::
         :: total free energy         -80.555596753141 Eh   ::
         ::.................................................::
         :: total energy              -80.933852074555 Eh   ::
         :: zero point energy           0.440404723294 Eh   ::
         :: G(RRHO) w/o ZPVE           -0.062149401880 Eh   ::
         :: G(RRHO) contrib.            0.378255321414 Eh   ::
         :::::::::::::::::::::::::::::::::::::::::::::::::::::

           -------------------------------------------------
          | TOTAL ENERGY              -80.933852074555 Eh   |
          | TOTAL ENTHALPY            -80.459359739287 Eh   |
          | TOTAL FREE ENERGY         -80.555596753141 Eh   |
          | GRADIENT NORM               0.000123199271 Eh/α |
          | HOMO-LUMO GAP               5.580347230345 eV   |
           -------------------------------------------------

------------------------------------------------------------------------
 * finished run on 2024/01/10 at 18:28:52.794     
------------------------------------------------------------------------
 total:
 * wall-time:     0 d,  0 h,  0 min, 15.197 sec
 *  cpu-time:     0 d,  0 h,  0 min, 15.142 sec
 * ratio c/w:     0.996 speedup
 SCF:
 * wall-time:     0 d,  0 h,  0 min,  0.083 sec
 *  cpu-time:     0 d,  0 h,  0 min,  0.061 sec
 * ratio c/w:     0.738 speedup
 analytical hessian:
 * wall-time:     0 d,  0 h,  0 min, 15.087 sec
 *  cpu-time:     0 d,  0 h,  0 min, 15.054 sec
 * ratio c/w:     0.998 speedup

