 Entering Gaussian System
 *********************************************
 Gaussian 98:
 frequency output generated by the xtb code
 *********************************************
                         Standard orientation:
 --------------------------------------------------------------------
  Center     Atomic     Atomic              Coordinates (Angstroms)
  Number     Number      Type              X           Y           Z
 --------------------------------------------------------------------
    1          8             0        3.090234    0.008140   -0.191901
    2          6             0        2.979946    1.347006   -0.568544
    3          1             0        3.819166    1.872354   -0.103561
    4          1             0        3.082136    1.458769   -1.657259
    5          6             0        1.643689    2.012604   -0.195486
    6          1             0        0.824565    1.533400   -0.738315
    7          1             0        1.704076    3.057937   -0.505060
    8          7             0        1.274802    1.973607    1.245001
    9          6             0        0.821131    0.623470    1.623654
   10          1             0       -0.042448    0.360466    1.015243
   11          1             0        0.542357    0.634931    2.675388
   12          1             0        1.620844   -0.093290    1.454664
   13          6             0        0.149256    2.898725    1.463207
   14          1             0       -0.680671    2.602104    0.824199
   15          1             0        0.446756    3.918940    1.229932
   16          1             0       -0.147504    2.838527    2.509145
   17          6             0        2.393390    2.363162    2.115508
   18          1             0        2.777907    3.338141    1.822080
   19          1             0        3.187680    1.623436    2.053675
   20          1             0        2.027728    2.409371    3.140866
   21          1             0        2.440158   -0.511897   -0.726325
   22          6             0        1.692379   -2.322000   -2.347608
   23          8             0        1.347937   -1.303368   -1.739509
   24          7             0        2.963027   -2.777620   -2.259138
   25          1             0        3.610140   -2.293998   -1.660750
   26          1             0        3.264077   -3.621654   -2.709886
   27          7             0        0.846997   -3.023469   -3.116354
   28          1             0        1.163700   -3.820682   -3.637209
   29          1             0       -0.115165   -2.726053   -3.242420
   30          6             0        0.095086    2.061270    5.681430
   31          8             0        0.397056    2.052675    4.496591
   32          7             0        0.703548    1.257900    6.587354
   33          1             0        1.488736    0.707346    6.289528
   34          1             0        0.529993    1.338856    7.572277
   35          7             0       -0.869200    2.874448    6.175904
   36          1             0       -1.183750    2.810785    7.126554
   37          1             0       -1.415813    3.418204    5.532660
   38          6             0       -2.974244   -2.990572   -3.036447
   39          8             0       -1.971909   -2.473917   -3.520197
   40          7             0       -3.285713   -4.290273   -3.268969
   41          1             0       -2.760537   -4.778537   -3.973042
   42          1             0       -4.175984   -4.672429   -3.005345
   43          7             0       -3.821195   -2.312899   -2.231848
   44          1             0       -4.594429   -2.770279   -1.784801
   45          1             0       -3.593054   -1.368094   -1.950012
   46          6             0       -1.799840    0.636045   -1.654881
   47          8             0       -1.389325    1.164462   -0.629773
   48          7             0       -3.146900    0.658265   -1.987470
   49          1             0       -3.691854    1.335611   -1.474249
   50          1             0       -3.365117    0.615235   -2.971666
   51          7             0       -1.013541   -0.008428   -2.531349
   52          1             0       -1.440698   -0.658049   -3.183232
   53          1             0       -0.094804   -0.305872   -2.206763
 --------------------------------------------------------------------
     1 basis functions        1 primitive gaussians
     1 alpha electrons        1 beta electrons

 Harmonic frequencies (cm**-1), IR intensities (km*mol⁻¹),
 Raman scattering activities (A**4/amu), Raman depolarization ratios,
 reduced masses (AMU), force constants (mDyne/A) and normal coordinates:
                      1                      2                      3
                        a                      a                      a 
 Frequencies --    -8.1393                11.1113                14.8793
 Red. masses --    11.1306                12.4953                11.9836
 Frc consts  --     0.0000                 0.0000                 0.0000
 IR Inten    --     0.0154                 0.9537                 0.3534
 Raman Activ --     0.0000                 0.0000                 0.0000
 Depolar     --     0.0000                 0.0000                 0.0000
 Atom AN      X      Y      Z        X      Y      Z        X      Y      Z
   1   8    -0.01   0.03  -0.00     0.07   0.11  -0.08     0.00   0.17  -0.02
   2   6    -0.01   0.02  -0.01     0.05   0.09  -0.06    -0.07   0.14  -0.05
   3   1    -0.00   0.01  -0.00     0.01   0.03  -0.01    -0.02   0.05  -0.02
   4   1    -0.00   0.01  -0.00     0.02   0.03  -0.02    -0.03   0.03  -0.02
   5   6    -0.01   0.02  -0.01     0.05   0.09  -0.06    -0.09   0.08  -0.04
   6   1    -0.00   0.00  -0.00     0.02   0.03  -0.03    -0.02   0.01  -0.01
   7   1    -0.01   0.00  -0.00     0.02   0.03  -0.01    -0.04   0.02  -0.01
   8   7    -0.01   0.02  -0.01     0.03   0.05  -0.07    -0.08   0.08  -0.04
   9   6    -0.00   0.02  -0.00    -0.00   0.04  -0.12    -0.02   0.07  -0.02
  10   1    -0.00   0.00  -0.00     0.00   0.02  -0.04    -0.00   0.01  -0.00
  11   1    -0.00   0.01  -0.00    -0.01   0.00  -0.04    -0.00   0.02  -0.01
  12   1     0.00   0.01   0.00    -0.00   0.01  -0.04     0.00   0.03  -0.01
  13   6    -0.02   0.01  -0.01     0.04   0.05  -0.05    -0.10   0.04  -0.02
  14   1    -0.00   0.00  -0.00     0.01   0.03  -0.02    -0.03   0.00  -0.00
  15   1    -0.01   0.00  -0.00     0.02   0.02  -0.00    -0.04   0.01  -0.01
  16   1    -0.01   0.00  -0.00     0.00   0.00  -0.02    -0.02   0.01  -0.01
  17   6    -0.02   0.03  -0.01     0.02  -0.01  -0.03    -0.07   0.12  -0.05
  18   1    -0.01   0.01  -0.00     0.01   0.00   0.00    -0.03   0.04  -0.02
  19   1    -0.00   0.01  -0.00     0.00  -0.00  -0.02    -0.01   0.04  -0.02
  20   1    -0.00   0.01  -0.00     0.00  -0.01  -0.01    -0.02   0.03  -0.01
  21   1    -0.00   0.01  -0.00     0.01   0.03  -0.02     0.00   0.03   0.00
  22   6     0.01   0.02  -0.01    -0.00   0.01   0.08    -0.01  -0.07   0.23
  23   8     0.01   0.01  -0.01     0.02   0.06   0.02     0.00   0.00   0.13
  24   7     0.02   0.03  -0.02    -0.00   0.01   0.10    -0.05  -0.14   0.39
  25   1     0.00   0.01  -0.01     0.00   0.01   0.01    -0.01  -0.02   0.09
  26   1     0.01   0.01  -0.00    -0.00  -0.01   0.04    -0.01  -0.05   0.12
  27   7     0.02   0.01  -0.00    -0.02  -0.04   0.15    -0.00  -0.12   0.27
  28   1     0.01   0.00  -0.00    -0.01  -0.02   0.06    -0.00  -0.05   0.10
  29   1     0.00  -0.00   0.00    -0.01  -0.01   0.04     0.01  -0.02   0.05
  30   6    -0.01  -0.01  -0.01    -0.09  -0.21  -0.10     0.14  -0.07   0.02
  31   8    -0.01   0.02  -0.01    -0.06  -0.14  -0.10     0.03   0.01  -0.01
  32   7    -0.42  -0.47  -0.13    -0.09  -0.27  -0.14     0.27  -0.13  -0.10
  33   1    -0.18  -0.22  -0.06    -0.01  -0.05  -0.04     0.06  -0.03  -0.06
  34   1    -0.10  -0.14  -0.03    -0.03  -0.09  -0.04     0.10  -0.06  -0.02
  35   7     0.41   0.40   0.12    -0.16  -0.32  -0.08     0.20  -0.12   0.18
  36   1     0.10   0.11   0.03    -0.05  -0.11  -0.03     0.08  -0.05   0.06
  37   1     0.18   0.21   0.06    -0.04  -0.08  -0.02     0.03  -0.02   0.07
  38   6     0.02  -0.03   0.03    -0.01   0.02   0.23    -0.03  -0.00  -0.15
  39   8     0.01  -0.03   0.02    -0.01  -0.05   0.19     0.06  -0.04  -0.04
  40   7     0.03  -0.03   0.04    -0.01  -0.01   0.42    -0.09   0.03  -0.26
  41   1     0.01  -0.01   0.01    -0.00  -0.03   0.13    -0.01   0.01  -0.06
  42   1     0.01  -0.01   0.01    -0.00   0.01   0.13    -0.04   0.02  -0.10
  43   7     0.02  -0.03   0.03    -0.00   0.12   0.17    -0.07   0.02  -0.22
  44   1     0.01  -0.01   0.01     0.00   0.05   0.06    -0.04   0.01  -0.09
  45   1     0.00  -0.01   0.01    -0.00   0.04   0.01    -0.01  -0.00  -0.04
  46   6    -0.01  -0.01  -0.00     0.04   0.10  -0.11    -0.01  -0.02  -0.05
  47   8    -0.00  -0.00  -0.01     0.05   0.17  -0.16    -0.05  -0.01  -0.04
  48   7    -0.01  -0.03   0.01     0.05   0.12  -0.13     0.01  -0.01  -0.11
  49   1    -0.00  -0.01   0.00     0.02   0.04  -0.05    -0.00  -0.00  -0.04
  50   1    -0.00  -0.01   0.00     0.01   0.02  -0.03     0.01  -0.00  -0.03
  51   7    -0.01  -0.01  -0.01     0.04   0.04  -0.08     0.02  -0.04  -0.01
  52   1    -0.00  -0.00   0.00     0.01   0.00  -0.01     0.01  -0.01  -0.00
  53   1    -0.00   0.00  -0.00     0.01   0.01  -0.02     0.00  -0.01   0.01
                      4                      5                      6
                        a                      a                      a 
 Frequencies --    21.1084                29.8455                31.2483
 Red. masses --    11.9925                12.0505                12.5478
 Frc consts  --     0.0000                 0.0000                 0.0000
 IR Inten    --     3.2138                 3.1413                 5.6031
 Raman Activ --     0.0000                 0.0000                 0.0000
 Depolar     --     0.0000                 0.0000                 0.0000
 Atom AN      X      Y      Z        X      Y      Z        X      Y      Z
   1   8    -0.14  -0.10   0.11    -0.11  -0.18   0.23    -0.09  -0.08  -0.04
   2   6    -0.09  -0.09   0.08     0.01  -0.19   0.07     0.00  -0.05   0.01
   3   1    -0.03  -0.03   0.03     0.01  -0.06   0.01     0.00  -0.03   0.01
   4   1    -0.02  -0.03   0.02     0.01  -0.09   0.02     0.01  -0.01   0.01
   5   6    -0.09  -0.06   0.04     0.04  -0.06  -0.02     0.02  -0.00  -0.00
   6   1    -0.02  -0.01   0.00     0.01  -0.02   0.00     0.00   0.00   0.00
   7   1    -0.02  -0.02   0.01     0.03  -0.03  -0.04     0.01  -0.00  -0.00
   8   7    -0.14  -0.07   0.03     0.02   0.13  -0.03     0.01   0.03  -0.00
   9   6    -0.19  -0.05   0.00    -0.06   0.19   0.12     0.02   0.03   0.02
  10   1    -0.05  -0.00  -0.01    -0.02   0.05   0.04     0.01   0.00   0.01
  11   1    -0.07  -0.01  -0.00    -0.02   0.09   0.03     0.01   0.01   0.01
  12   1    -0.06  -0.02   0.01    -0.03   0.04   0.06     0.01   0.01   0.01
  13   6    -0.11  -0.02  -0.00     0.06   0.21  -0.14     0.00   0.02  -0.03
  14   1    -0.03   0.00  -0.01     0.02   0.05  -0.04     0.00  -0.00  -0.01
  15   1    -0.02  -0.01   0.01     0.04   0.05  -0.07    -0.00   0.00  -0.02
  16   1    -0.04  -0.01  -0.00     0.01   0.10  -0.04    -0.00   0.01  -0.01
  17   6    -0.14  -0.11   0.06     0.02   0.16  -0.05     0.00   0.06  -0.00
  18   1    -0.03  -0.03   0.02     0.02   0.03  -0.04    -0.00   0.01  -0.01
  19   1    -0.05  -0.04   0.02    -0.00   0.03   0.01     0.00   0.02   0.01
  20   1    -0.05  -0.03   0.01     0.00   0.09  -0.02    -0.00   0.02  -0.00
  21   1    -0.03  -0.03   0.02    -0.03  -0.05   0.06    -0.02  -0.00  -0.02
  22   6    -0.01  -0.01  -0.05     0.01  -0.03  -0.03    -0.13  -0.03  -0.01
  23   8    -0.08  -0.09   0.04    -0.05  -0.16   0.14    -0.06   0.12  -0.23
  24   7     0.02   0.05  -0.09     0.05   0.05  -0.15    -0.26  -0.31   0.34
  25   1    -0.01   0.01  -0.00     0.00  -0.01  -0.01    -0.07  -0.08   0.08
  26   1     0.02   0.02  -0.04     0.02   0.03  -0.06    -0.08  -0.09   0.10
  27   7     0.04   0.01  -0.13     0.04   0.03  -0.12    -0.12   0.05  -0.11
  28   1     0.02   0.02  -0.05     0.02   0.04  -0.07    -0.05  -0.04   0.03
  29   1     0.01  -0.01  -0.03     0.01  -0.00  -0.02    -0.02   0.04  -0.07
  30   6     0.10   0.04   0.09    -0.01   0.00  -0.06    -0.01  -0.00  -0.01
  31   8    -0.12  -0.03   0.05    -0.03   0.38  -0.08    -0.01   0.07  -0.01
  32   7     0.28   0.09   0.03     0.06  -0.20  -0.30     0.01  -0.04  -0.05
  33   1     0.05   0.01  -0.03     0.04  -0.00  -0.12     0.01  -0.00  -0.02
  34   1     0.12   0.03   0.01     0.02  -0.12  -0.07     0.00  -0.02  -0.01
  35   7     0.22   0.08   0.24    -0.10  -0.24   0.16    -0.02  -0.05   0.03
  36   1     0.10   0.03   0.08    -0.02  -0.14   0.04    -0.00  -0.02   0.01
  37   1     0.03   0.01   0.08    -0.04  -0.02   0.09    -0.01  -0.00   0.01
  38   6     0.10   0.02   0.06     0.00  -0.01  -0.01     0.15   0.04   0.00
  39   8     0.06   0.01  -0.05     0.00  -0.00  -0.01    -0.01   0.22  -0.21
  40   7     0.20  -0.05   0.31    -0.01  -0.00  -0.04     0.33  -0.01   0.05
  41   1     0.06  -0.03   0.10    -0.00   0.00  -0.02     0.06   0.03  -0.03
  42   1     0.06  -0.02   0.10    -0.00  -0.00  -0.01     0.11  -0.04   0.05
  43   7     0.06   0.10  -0.04     0.02  -0.03   0.02     0.24  -0.11   0.20
  44   1     0.03   0.03   0.02     0.01  -0.01   0.00     0.10  -0.06   0.09
  45   1     0.00   0.04  -0.05     0.01  -0.01   0.01     0.04  -0.02   0.04
  46   6     0.01   0.07  -0.18     0.00  -0.01   0.08    -0.02   0.02   0.01
  47   8    -0.06   0.07  -0.18    -0.01   0.03   0.07     0.03  -0.07   0.03
  48   7     0.03   0.11  -0.30     0.01   0.01   0.05    -0.05  -0.07   0.14
  49   1     0.00   0.04  -0.09     0.00   0.01   0.00    -0.02  -0.05   0.07
  50   1     0.03   0.03  -0.08     0.01  -0.01   0.01    -0.04  -0.00   0.04
  51   7     0.05   0.04  -0.13     0.00  -0.07   0.13    -0.04   0.20  -0.15
  52   1     0.02   0.01  -0.04     0.00  -0.02   0.03    -0.01   0.07  -0.05
  53   1     0.00  -0.00  -0.01    -0.00  -0.02   0.04    -0.00   0.06  -0.07
                      7                      8                      9
                        a                      a                      a 
 Frequencies --    35.8840                43.4714                51.0609
 Red. masses --    12.9514                11.8694                12.3194
 Frc consts  --     0.0000                 0.0000                 0.0000
 IR Inten    --     3.7175                 1.8314                 1.5516
 Raman Activ --     0.0000                 0.0000                 0.0000
 Depolar     --     0.0000                 0.0000                 0.0000
 Atom AN      X      Y      Z        X      Y      Z        X      Y      Z
   1   8     0.00   0.00  -0.07    -0.03   0.09  -0.09    -0.17   0.13  -0.05
   2   6    -0.10  -0.04  -0.17    -0.11   0.08  -0.05    -0.19   0.09  -0.11
   3   1    -0.02   0.01  -0.09    -0.03   0.03  -0.02    -0.04   0.03  -0.06
   4   1    -0.06  -0.04  -0.05    -0.05   0.03  -0.01    -0.08   0.01  -0.03
   5   6    -0.10  -0.07  -0.08    -0.12   0.02   0.03    -0.14   0.13  -0.00
   6   1    -0.04  -0.03  -0.00    -0.04  -0.02   0.03    -0.06   0.06   0.01
   7   1    -0.04  -0.02  -0.03    -0.06   0.00  -0.01    -0.03   0.04   0.01
   8   7     0.01  -0.05  -0.06    -0.03   0.06   0.06    -0.06   0.10   0.02
   9   6     0.01  -0.04  -0.01     0.19   0.02   0.16    -0.13   0.10  -0.02
  10   1    -0.01  -0.01   0.02     0.05  -0.04   0.07    -0.05   0.06   0.00
  11   1     0.03  -0.00   0.00     0.08   0.01   0.05    -0.02   0.02  -0.00
  12   1    -0.00  -0.02  -0.01     0.08   0.03   0.04    -0.06   0.02  -0.03
  13   6     0.05  -0.03   0.02    -0.14  -0.09   0.07     0.03   0.16   0.14
  14   1    -0.00  -0.01   0.03    -0.04  -0.07   0.04    -0.01   0.08   0.04
  15   1     0.01  -0.01  -0.00    -0.08  -0.02  -0.00     0.03   0.04   0.05
  16   1     0.04  -0.00   0.01    -0.02  -0.02   0.03     0.02   0.03   0.04
  17   6     0.09  -0.07  -0.15    -0.03   0.27  -0.04     0.03  -0.05  -0.03
  18   1     0.02  -0.02  -0.05    -0.05   0.09  -0.04     0.02  -0.01   0.00
  19   1     0.02  -0.02  -0.06     0.02   0.11  -0.01    -0.01  -0.03  -0.04
  20   1     0.05  -0.02  -0.03     0.01   0.09  -0.01     0.03  -0.03   0.00
  21   1    -0.02  -0.02   0.02     0.01   0.01  -0.03    -0.02   0.01  -0.01
  22   6    -0.06  -0.02   0.14     0.02  -0.14  -0.12     0.02  -0.18  -0.05
  23   8    -0.20  -0.19   0.36     0.12  -0.11  -0.16     0.03  -0.27   0.03
  24   7    -0.02   0.10   0.08    -0.00  -0.22  -0.18     0.02  -0.21  -0.12
  25   1    -0.02   0.01   0.05     0.02  -0.06  -0.06     0.01  -0.07  -0.02
  26   1     0.02   0.05  -0.01    -0.02  -0.07  -0.04     0.00  -0.05  -0.04
  27   7     0.02   0.04   0.00    -0.06  -0.14  -0.05     0.01  -0.15  -0.10
  28   1     0.03   0.05  -0.05    -0.03  -0.04  -0.01     0.00  -0.02  -0.05
  29   1     0.00   0.00  -0.00    -0.01  -0.02  -0.01     0.01  -0.03  -0.02
  30   6     0.04  -0.03  -0.07    -0.01   0.03   0.08     0.02  -0.03   0.07
  31   8     0.23  -0.05  -0.04     0.12   0.16   0.12     0.13  -0.07   0.11
  32   7    -0.10  -0.03   0.02    -0.10  -0.05   0.07    -0.07  -0.01   0.15
  33   1    -0.01  -0.01   0.04    -0.01   0.01   0.03    -0.01  -0.00   0.06
  34   1    -0.06   0.00  -0.00    -0.05  -0.03   0.02    -0.04   0.01   0.04
  35   7    -0.01  -0.01  -0.23    -0.10  -0.05   0.06    -0.02  -0.01  -0.03
  36   1    -0.04   0.00  -0.07    -0.05  -0.04   0.01    -0.03   0.01  -0.02
  37   1     0.02  -0.00  -0.08    -0.01   0.00   0.01     0.01  -0.01  -0.03
  38   6     0.13   0.07  -0.04    -0.03   0.09   0.01     0.05  -0.01   0.01
  39   8     0.11   0.15  -0.07    -0.02   0.05  -0.02     0.01   0.00  -0.08
  40   7     0.31   0.01   0.11     0.03   0.04   0.23    -0.08   0.06  -0.17
  41   1     0.11  -0.00   0.05     0.02  -0.01   0.09    -0.06   0.03  -0.08
  42   1     0.09  -0.02   0.03     0.00   0.02   0.06    -0.01   0.01  -0.01
  43   7     0.01   0.07  -0.17    -0.11   0.21  -0.17     0.27  -0.10   0.30
  44   1     0.02   0.01  -0.04    -0.03   0.07  -0.03     0.07  -0.02   0.08
  45   1    -0.02   0.03  -0.06    -0.03   0.07  -0.07     0.08  -0.03   0.08
  46   6    -0.11   0.04   0.12     0.10  -0.10   0.00     0.06   0.07  -0.02
  47   8    -0.24  -0.02   0.21     0.06  -0.29   0.12     0.04   0.28  -0.10
  48   7    -0.07   0.11  -0.06     0.13   0.04  -0.10     0.08   0.04  -0.07
  49   1    -0.03   0.03  -0.03     0.04  -0.00  -0.01     0.02   0.04  -0.06
  50   1     0.02   0.04  -0.02     0.06   0.05  -0.03     0.03  -0.05  -0.02
  51   7    -0.02   0.05   0.20     0.13  -0.02  -0.03     0.08  -0.11   0.13
  52   1     0.01   0.03   0.03     0.03   0.02  -0.03     0.02  -0.04   0.05
  53   1    -0.02  -0.01   0.09     0.03  -0.03  -0.00     0.02  -0.02   0.05
                     10                     11                     12
                        a                      a                      a 
 Frequencies --    59.1223                59.3143                62.5996
 Red. masses --    12.8882                12.5541                13.1844
 Frc consts  --     0.0000                 0.0000                 0.0000
 IR Inten    --     2.0643                 1.5615                 1.9844
 Raman Activ --     0.0000                 0.0000                 0.0000
 Depolar     --     0.0000                 0.0000                 0.0000
 Atom AN      X      Y      Z        X      Y      Z        X      Y      Z
   1   8     0.08   0.06   0.03     0.13   0.02   0.01    -0.08  -0.10  -0.05
   2   6    -0.01   0.03  -0.02     0.02   0.01  -0.00    -0.03  -0.08  -0.01
   3   1    -0.01   0.03  -0.01    -0.01   0.02  -0.00    -0.00  -0.03  -0.01
   4   1    -0.01  -0.00  -0.01     0.01   0.00  -0.00    -0.02  -0.02  -0.00
   5   6    -0.04  -0.03  -0.02    -0.04  -0.09  -0.03    -0.00  -0.05   0.03
   6   1    -0.01  -0.02   0.00     0.00  -0.05  -0.01    -0.01  -0.01   0.02
   7   1    -0.03  -0.01  -0.01    -0.04  -0.03  -0.02    -0.00  -0.02  -0.00
   8   7    -0.02  -0.02  -0.01    -0.06  -0.08  -0.04     0.06   0.01   0.05
   9   6     0.05  -0.03   0.02     0.09  -0.11   0.02     0.16  -0.00   0.13
  10   1     0.02  -0.03   0.01     0.04  -0.07   0.00     0.05  -0.03   0.05
  11   1     0.02  -0.01   0.01     0.02  -0.03   0.00     0.05   0.01   0.04
  12   1     0.03   0.00   0.01     0.05  -0.01   0.02     0.06   0.01   0.05
  13   6    -0.07  -0.07  -0.02    -0.15  -0.18  -0.08    -0.00  -0.06   0.03
  14   1    -0.02  -0.04  -0.00    -0.03  -0.08  -0.02     0.00  -0.04   0.02
  15   1    -0.04  -0.02  -0.01    -0.07  -0.05  -0.03    -0.02  -0.02  -0.01
  16   1    -0.02  -0.02  -0.01    -0.04  -0.05  -0.02     0.01  -0.01   0.01
  17   6    -0.03   0.06  -0.04    -0.10   0.09  -0.04     0.06   0.14  -0.02
  18   1    -0.03   0.02  -0.02    -0.06   0.03  -0.02    -0.01   0.04  -0.03
  19   1     0.00   0.03  -0.01    -0.01   0.05   0.00     0.03   0.06  -0.00
  20   1    -0.01   0.02  -0.01    -0.03   0.03  -0.01     0.03   0.05  -0.00
  21   1     0.02   0.00   0.03     0.03  -0.01   0.02    -0.05  -0.01   0.01
  22   6     0.07   0.06  -0.00    -0.05   0.01   0.09    -0.11   0.09   0.08
  23   8     0.03  -0.04   0.16    -0.04  -0.07   0.26    -0.29   0.01   0.15
  24   7    -0.04  -0.18   0.35     0.01   0.13  -0.17    -0.05   0.29   0.07
  25   1    -0.01  -0.06   0.10     0.01   0.01  -0.03    -0.04   0.09   0.04
  26   1     0.03   0.03  -0.03    -0.01   0.03  -0.04     0.02   0.09   0.02
  27   7     0.25   0.45  -0.53    -0.12  -0.01   0.19    -0.01   0.02   0.04
  28   1     0.05   0.08  -0.09    -0.03   0.04  -0.01     0.03   0.03  -0.01
  29   1     0.05   0.08  -0.10    -0.03   0.01   0.06    -0.01  -0.02   0.00
  30   6     0.01  -0.01  -0.02    -0.04  -0.00  -0.08     0.07   0.02   0.11
  31   8     0.01  -0.06  -0.03    -0.17  -0.05  -0.12     0.33   0.15   0.19
  32   7     0.00   0.01  -0.00     0.06   0.03  -0.12    -0.10  -0.06   0.17
  33   1    -0.00  -0.00   0.00     0.00  -0.00  -0.05     0.00   0.01   0.08
  34   1     0.00   0.01  -0.00     0.04   0.01  -0.03    -0.07  -0.03   0.04
  35   7     0.02   0.01  -0.05     0.03   0.03  -0.01    -0.06  -0.07   0.00
  36   1     0.00   0.01  -0.01     0.03   0.02   0.01    -0.06  -0.04  -0.02
  37   1     0.00  -0.00  -0.02    -0.01   0.00   0.01     0.02   0.00  -0.01
  38   6    -0.09  -0.00   0.06     0.03   0.13   0.05    -0.01  -0.10  -0.02
  39   8    -0.06  -0.10   0.05    -0.04   0.17  -0.07    -0.01  -0.15  -0.05
  40   7    -0.23   0.03   0.05    -0.11   0.21  -0.14    -0.10  -0.08  -0.07
  41   1    -0.08  -0.00   0.01    -0.07   0.08  -0.08    -0.04  -0.02  -0.03
  42   1    -0.07   0.03   0.02    -0.01   0.05   0.01    -0.03  -0.01  -0.01
  43   7    -0.01   0.06   0.10     0.28   0.03   0.40     0.07  -0.10   0.05
  44   1    -0.01   0.03   0.02     0.07   0.01   0.10     0.02  -0.02   0.02
  45   1     0.01   0.01   0.02     0.07   0.01   0.09     0.03  -0.03   0.01
  46   6     0.02  -0.06  -0.02     0.06  -0.07  -0.02     0.03   0.03  -0.21
  47   8     0.01  -0.07  -0.01    -0.02  -0.22   0.08     0.15   0.01  -0.28
  48   7     0.04   0.01  -0.08     0.09  -0.06  -0.10    -0.00   0.03  -0.08
  49   1     0.01   0.01  -0.03     0.01  -0.03  -0.03     0.01   0.01  -0.01
  50   1     0.02  -0.00  -0.02     0.04  -0.01  -0.03    -0.03  -0.00  -0.01
  51   7     0.03  -0.12   0.03     0.14   0.06  -0.05    -0.05   0.06  -0.33
  52   1     0.01  -0.03   0.01     0.05   0.03  -0.03    -0.03   0.01  -0.07
  53   1     0.00  -0.04   0.02     0.02  -0.00   0.01    -0.01   0.01  -0.09
                     13                     14                     15
                        a                      a                      a 
 Frequencies --    75.1049                76.9107                81.2104
 Red. masses --    12.6385                12.9501                13.1270
 Frc consts  --     0.0000                 0.0000                 0.0000
 IR Inten    --     4.9389                 4.8084                 5.3460
 Raman Activ --     0.0000                 0.0000                 0.0000
 Depolar     --     0.0000                 0.0000                 0.0000
 Atom AN      X      Y      Z        X      Y      Z        X      Y      Z
   1   8    -0.04  -0.02   0.17    -0.23  -0.17   0.17     0.13   0.05   0.30
   2   6     0.06  -0.01   0.15    -0.14  -0.17   0.05     0.04  -0.01   0.09
   3   1     0.02  -0.02   0.06    -0.04  -0.05   0.00    -0.00   0.03   0.01
   4   1     0.04  -0.00   0.04    -0.04  -0.07   0.01     0.02  -0.04   0.02
   5   6     0.09   0.08   0.06    -0.12  -0.10  -0.01    -0.01  -0.06  -0.02
   6   1     0.02   0.03   0.02    -0.04  -0.04   0.01     0.01  -0.04  -0.01
   7   1     0.04   0.02   0.00    -0.03  -0.04  -0.03    -0.02  -0.02  -0.02
   8   7     0.03   0.19   0.05    -0.11   0.03  -0.00    -0.06  -0.01  -0.03
   9   6     0.10   0.17   0.13    -0.10   0.06   0.12    -0.17   0.03  -0.01
  10   1     0.04   0.02   0.03    -0.04   0.01   0.05    -0.06   0.03   0.00
  11   1     0.02   0.06   0.03    -0.02   0.04   0.04    -0.04   0.02  -0.00
  12   1     0.04   0.06   0.06    -0.03   0.01   0.04    -0.07  -0.01  -0.01
  13   6    -0.05   0.11  -0.07    -0.09   0.06  -0.05     0.01   0.08  -0.06
  14   1     0.00   0.01  -0.03    -0.03   0.01  -0.01    -0.00   0.03  -0.02
  15   1    -0.03   0.03  -0.03    -0.02   0.01  -0.04     0.02   0.01  -0.02
  16   1    -0.03   0.03  -0.03    -0.02   0.03  -0.01     0.00   0.04  -0.02
  17   6    -0.04   0.32   0.07    -0.08   0.09  -0.06    -0.03  -0.09  -0.02
  18   1    -0.04   0.10   0.01    -0.03   0.02  -0.04     0.01  -0.03  -0.01
  19   1     0.01   0.12   0.04    -0.02   0.03  -0.01    -0.03  -0.04  -0.00
  20   1    -0.02   0.09   0.02    -0.01   0.04  -0.02    -0.01  -0.02  -0.01
  21   1    -0.01   0.00   0.04    -0.04  -0.04   0.02     0.06  -0.01   0.06
  22   6    -0.08  -0.02   0.01     0.12   0.01  -0.05     0.02   0.10   0.01
  23   8    -0.05  -0.08   0.13     0.05   0.11  -0.27     0.26   0.19   0.01
  24   7    -0.08  -0.02  -0.12     0.14   0.07   0.11    -0.04  -0.10  -0.09
  25   1    -0.02  -0.04  -0.01     0.02   0.06   0.02     0.03  -0.05  -0.05
  26   1    -0.04  -0.01  -0.03     0.05   0.00   0.07    -0.06  -0.04  -0.03
  27   7    -0.13   0.04   0.00     0.19  -0.15   0.02    -0.15   0.20   0.12
  28   1    -0.04   0.04  -0.04     0.06  -0.07   0.05    -0.08   0.04   0.03
  29   1    -0.03   0.02   0.00     0.05  -0.05  -0.00    -0.03   0.08   0.05
  30   6     0.03  -0.15  -0.08     0.09  -0.08  -0.10     0.12   0.00   0.03
  31   8    -0.06  -0.50  -0.11     0.18  -0.21  -0.09     0.38   0.09   0.09
  32   7     0.06   0.05   0.07     0.02  -0.01   0.01    -0.06  -0.06   0.10
  33   1    -0.01  -0.04   0.04     0.00  -0.02   0.03     0.01   0.01   0.06
  34   1     0.02   0.06   0.02    -0.02   0.02  -0.00    -0.06  -0.02   0.02
  35   7     0.13   0.04  -0.22     0.08  -0.01  -0.26     0.00  -0.06  -0.11
  36   1     0.04   0.07  -0.05     0.00   0.03  -0.07    -0.05  -0.03  -0.05
  37   1     0.02  -0.04  -0.09     0.04  -0.02  -0.09     0.04   0.00  -0.05
  38   6    -0.04  -0.05  -0.06     0.05   0.08   0.09    -0.08   0.01   0.01
  39   8    -0.12   0.02  -0.16     0.19  -0.03   0.26    -0.16   0.13  -0.02
  40   7     0.10  -0.11   0.05    -0.12   0.15  -0.06     0.05  -0.02  -0.00
  41   1     0.03  -0.03   0.01    -0.03   0.03  -0.01     0.02   0.01  -0.01
  42   1     0.04  -0.05   0.03    -0.05   0.07  -0.04     0.03  -0.03   0.00
  43   7    -0.08  -0.08  -0.09     0.07   0.13   0.07    -0.11  -0.10   0.06
  44   1     0.01  -0.04   0.01    -0.02   0.06  -0.02    -0.02  -0.04   0.01
  45   1    -0.03  -0.02  -0.03     0.03   0.03   0.03    -0.05  -0.01   0.00
  46   6     0.04  -0.00  -0.00    -0.03   0.02   0.02    -0.03  -0.07  -0.09
  47   8     0.10   0.07  -0.06    -0.06  -0.08   0.08    -0.21  -0.03  -0.06
  48   7     0.03   0.01   0.03    -0.04  -0.01   0.04     0.00  -0.24  -0.25
  49   1     0.02   0.01   0.00    -0.02  -0.03   0.03    -0.03  -0.07  -0.09
  50   1     0.00  -0.01   0.01    -0.02   0.02   0.01     0.04  -0.08  -0.08
  51   7    -0.00  -0.09   0.03    -0.01   0.17  -0.07     0.12  -0.00  -0.02
  52   1    -0.01  -0.03   0.01     0.01   0.04  -0.02     0.05  -0.01  -0.01
  53   1    -0.00  -0.02   0.01     0.00   0.05  -0.03     0.03   0.02   0.01
                     16                     17                     18
                        a                      a                      a 
 Frequencies --    87.4930                97.1725               102.2720
 Red. masses --    12.6292                12.6590                12.0599
 Frc consts  --     0.0000                 0.0000                 0.0000
 IR Inten    --     1.8980                13.0142                14.3759
 Raman Activ --     0.0000                 0.0000                 0.0000
 Depolar     --     0.0000                 0.0000                 0.0000
 Atom AN      X      Y      Z        X      Y      Z        X      Y      Z
   1   8    -0.10   0.07  -0.01    -0.08   0.08   0.08     0.04  -0.08  -0.06
   2   6    -0.11   0.04  -0.08    -0.06   0.06   0.02     0.12  -0.08  -0.10
   3   1    -0.02   0.02  -0.05    -0.01   0.02  -0.01     0.03  -0.03  -0.02
   4   1    -0.06  -0.01  -0.03    -0.02   0.00   0.00     0.05  -0.03  -0.03
   5   6    -0.07   0.08  -0.01    -0.04   0.07   0.03     0.13   0.01  -0.20
   6   1    -0.03   0.04   0.01    -0.01   0.03   0.01     0.04   0.00  -0.06
   7   1    -0.01   0.02   0.01    -0.01   0.02   0.02     0.05  -0.00  -0.07
   8   7    -0.01   0.04   0.01    -0.03   0.04   0.03     0.04   0.11  -0.23
   9   6    -0.12   0.06  -0.04    -0.21   0.07  -0.04    -0.05   0.14  -0.18
  10   1    -0.04   0.04  -0.02    -0.06   0.06  -0.02    -0.01   0.05  -0.06
  11   1    -0.04   0.01  -0.01    -0.07   0.02  -0.01    -0.02   0.05  -0.05
  12   1    -0.05   0.00  -0.02    -0.08  -0.00  -0.02    -0.02   0.03  -0.04
  13   6     0.08   0.13   0.09     0.09   0.16   0.09     0.08   0.16  -0.31
  14   1     0.01   0.06   0.03     0.01   0.08   0.03     0.02   0.04  -0.09
  15   1     0.05   0.03   0.04     0.06   0.04   0.03     0.03   0.04  -0.10
  16   1     0.03   0.03   0.03     0.03   0.05   0.03     0.01   0.06  -0.09
  17   6     0.06  -0.12  -0.02     0.03  -0.18   0.04    -0.00   0.08  -0.15
  18   1     0.04  -0.04   0.01     0.05  -0.06   0.03     0.01   0.02  -0.04
  19   1    -0.00  -0.06  -0.03    -0.02  -0.08  -0.01    -0.00   0.02  -0.03
  20   1     0.03  -0.05   0.00     0.02  -0.06   0.01    -0.02   0.02  -0.05
  21   1    -0.03   0.00   0.02    -0.02   0.02   0.02    -0.00  -0.01  -0.01
  22   6    -0.06  -0.02   0.03    -0.01   0.07   0.04     0.01  -0.01   0.01
  23   8    -0.12  -0.14   0.19    -0.04   0.09   0.01    -0.04  -0.03   0.01
  24   7    -0.05   0.02  -0.03     0.01   0.14   0.04     0.03   0.04   0.02
  25   1    -0.02  -0.01   0.01    -0.01   0.04   0.02    -0.00   0.01   0.02
  26   1    -0.00   0.03  -0.04     0.01   0.02   0.04     0.01   0.01   0.02
  27   7    -0.03   0.07  -0.10     0.00   0.01   0.09     0.05  -0.03  -0.02
  28   1    -0.00   0.03  -0.04     0.01   0.01   0.01     0.02  -0.00  -0.01
  29   1    -0.02   0.00   0.01     0.01   0.01  -0.01     0.01  -0.01  -0.01
  30   6    -0.03  -0.01  -0.03     0.03  -0.00  -0.06    -0.06  -0.07   0.25
  31   8    -0.10  -0.06  -0.05     0.08   0.01  -0.06    -0.11  -0.20   0.29
  32   7     0.02   0.02  -0.04     0.01  -0.00  -0.05    -0.08   0.00   0.35
  33   1    -0.01  -0.00  -0.02     0.00  -0.00  -0.01    -0.02  -0.00   0.11
  34   1     0.02   0.01  -0.01    -0.01  -0.01  -0.02    -0.00   0.05   0.09
  35   7     0.01   0.02  -0.00     0.01  -0.01  -0.09    -0.02   0.02   0.25
  36   1     0.01   0.01   0.00     0.00   0.00  -0.03    -0.02  -0.00   0.06
  37   1    -0.01  -0.00   0.00     0.01   0.00  -0.03    -0.03  -0.03   0.06
  38   6    -0.05   0.02   0.07    -0.01   0.03  -0.10     0.01   0.06   0.01
  39   8     0.00   0.12   0.29    -0.07  -0.11  -0.41     0.04   0.02  -0.01
  40   7     0.08   0.01  -0.05    -0.13   0.01   0.19    -0.04   0.08   0.03
  41   1     0.06   0.02  -0.00    -0.09  -0.04   0.04    -0.02   0.01   0.01
  42   1     0.01  -0.01  -0.07    -0.03   0.03   0.11    -0.01   0.03   0.01
  43   7    -0.25  -0.06  -0.07     0.19   0.20  -0.04     0.05   0.10   0.01
  44   1    -0.06  -0.04  -0.04     0.07   0.08   0.04     0.01   0.04  -0.00
  45   1    -0.06  -0.03   0.03     0.07   0.06  -0.05     0.01   0.03  -0.01
  46   6     0.20  -0.07  -0.03     0.06  -0.19   0.03    -0.04  -0.09   0.02
  47   8     0.23  -0.16   0.01     0.20  -0.38   0.06    -0.09  -0.18   0.07
  48   7     0.17  -0.30   0.13     0.04   0.00   0.12    -0.04  -0.10  -0.01
  49   1     0.03  -0.13   0.08     0.04  -0.01   0.07    -0.02  -0.05   0.01
  50   1     0.02  -0.06   0.04    -0.00   0.06   0.03    -0.00  -0.00  -0.01
  51   7     0.26   0.25  -0.25    -0.07  -0.22  -0.06    -0.01  -0.01  -0.02
  52   1     0.06   0.06  -0.06    -0.04  -0.03  -0.03     0.00   0.00  -0.01
  53   1     0.07   0.06  -0.07    -0.01  -0.07  -0.04    -0.00  -0.01  -0.00
                     19                     20                     21
                        a                      a                      a 
 Frequencies --   117.0874               117.2381               122.7344
 Red. masses --    10.7325                12.1602                12.9419
 Frc consts  --     0.0000                 0.0000                 0.0000
 IR Inten    --     5.4397                21.2474                16.6907
 Raman Activ --     0.0000                 0.0000                 0.0000
 Depolar     --     0.0000                 0.0000                 0.0000
 Atom AN      X      Y      Z        X      Y      Z        X      Y      Z
   1   8     0.00  -0.00   0.10     0.08   0.00   0.14     0.01   0.03   0.02
   2   6    -0.17  -0.09  -0.19    -0.13  -0.08  -0.13     0.03   0.03   0.03
   3   1    -0.03   0.02  -0.14    -0.05   0.04  -0.08     0.00   0.01   0.02
   4   1    -0.12  -0.09  -0.07    -0.07  -0.08  -0.05     0.02   0.01   0.01
   5   6    -0.14  -0.12  -0.02    -0.19  -0.20  -0.16     0.02   0.02  -0.02
   6   1    -0.06  -0.06   0.06    -0.05  -0.10  -0.02     0.01   0.00  -0.01
   7   1    -0.07  -0.04  -0.04    -0.10  -0.07  -0.08     0.01   0.01  -0.01
   8   7     0.15   0.01   0.07    -0.14  -0.10  -0.14    -0.04   0.03  -0.04
   9   6     0.13   0.07   0.25    -0.08  -0.07   0.01    -0.10   0.04  -0.06
  10   1     0.01   0.01   0.11    -0.03  -0.04   0.02    -0.03   0.03  -0.03
  11   1     0.08   0.05   0.08    -0.01   0.00   0.01    -0.03   0.01  -0.02
  12   1     0.02   0.01   0.06    -0.02  -0.02   0.01    -0.04   0.00  -0.02
  13   6     0.23   0.09   0.19    -0.12  -0.09  -0.13    -0.00   0.06  -0.06
  14   1     0.04   0.04   0.08    -0.04  -0.03  -0.03    -0.00   0.02  -0.01
  15   1     0.08   0.02   0.04    -0.04  -0.03  -0.05     0.01   0.02  -0.02
  16   1     0.10   0.03   0.06    -0.03  -0.01  -0.04    -0.00   0.03  -0.02
  17   6     0.32   0.01  -0.17    -0.09  -0.01  -0.23    -0.04  -0.04   0.01
  18   1     0.09  -0.01  -0.08    -0.04  -0.01  -0.09     0.00  -0.01   0.01
  19   1     0.08  -0.01  -0.08    -0.02   0.00  -0.07    -0.02  -0.02   0.00
  20   1     0.15   0.02  -0.03    -0.01   0.01  -0.06    -0.02  -0.01  -0.00
  21   1     0.01  -0.04   0.05     0.04  -0.04   0.06     0.00   0.01  -0.00
  22   6     0.02   0.09  -0.00     0.06   0.06   0.04    -0.10   0.04  -0.03
  23   8     0.12   0.18  -0.08     0.14   0.11   0.02    -0.02   0.08  -0.03
  24   7    -0.02  -0.00   0.02     0.04  -0.00   0.01    -0.13  -0.05  -0.06
  25   1     0.02   0.01  -0.03     0.03  -0.00  -0.01    -0.02  -0.01  -0.03
  26   1    -0.02  -0.00   0.00    -0.00  -0.00   0.00    -0.05  -0.01  -0.03
  27   7    -0.05   0.09   0.09    -0.01   0.07   0.11    -0.15   0.09  -0.02
  28   1    -0.03   0.00   0.05    -0.01   0.02   0.02    -0.06   0.00   0.02
  29   1    -0.01   0.03   0.02     0.01   0.04   0.02    -0.05   0.02   0.02
  30   6    -0.11  -0.03   0.01    -0.01  -0.01   0.05     0.01  -0.01   0.01
  31   8    -0.33  -0.15  -0.04    -0.01  -0.02   0.06     0.03  -0.02   0.01
  32   7     0.02   0.04  -0.02    -0.03  -0.01   0.07    -0.01  -0.00   0.03
  33   1    -0.02  -0.01  -0.03     0.00   0.01   0.02     0.00   0.00   0.01
  34   1     0.05   0.03   0.00     0.01   0.02   0.02    -0.00   0.01   0.01
  35   7    -0.00   0.05   0.12    -0.01  -0.00   0.05     0.01   0.00  -0.01
  36   1     0.03   0.02   0.04    -0.01  -0.01   0.01    -0.01  -0.00  -0.01
  37   1    -0.04  -0.01   0.04    -0.01  -0.01   0.01     0.00  -0.01  -0.01
  38   6    -0.01  -0.05  -0.01    -0.03  -0.00  -0.03     0.05  -0.19   0.03
  39   8    -0.02  -0.07  -0.05    -0.10   0.08  -0.08     0.11  -0.21   0.18
  40   7    -0.04  -0.05  -0.00     0.09  -0.04   0.02    -0.02  -0.16  -0.14
  41   1    -0.02  -0.02  -0.00     0.02   0.00  -0.00     0.01  -0.04  -0.03
  42   1    -0.01  -0.01   0.01     0.03  -0.03   0.01    -0.01  -0.04  -0.06
  43   7     0.04  -0.04   0.02    -0.09  -0.05  -0.04     0.03  -0.22   0.04
  44   1     0.00  -0.00   0.00     0.01  -0.04   0.02    -0.01  -0.05  -0.01
  45   1     0.00  -0.00  -0.01    -0.02  -0.02   0.02     0.02  -0.07   0.02
  46   6    -0.05   0.00  -0.06     0.15   0.10   0.06     0.06   0.08   0.04
  47   8    -0.14  -0.04  -0.02     0.41   0.20  -0.07     0.05  -0.31   0.27
  48   7    -0.02   0.02  -0.19     0.12   0.19   0.31     0.15   0.55  -0.15
  49   1    -0.02   0.01  -0.07     0.07   0.08   0.09     0.06   0.16  -0.04
  50   1     0.02   0.00  -0.06    -0.02   0.03   0.10     0.05   0.13  -0.04
  51   7     0.01   0.01  -0.03    -0.02  -0.07   0.04     0.06   0.12   0.00
  52   1     0.01   0.01  -0.02    -0.04  -0.02   0.03     0.01   0.10  -0.05
  53   1     0.00   0.01   0.00     0.01  -0.01  -0.02    -0.01  -0.04   0.02
                     22                     23                     24
                        a                      a                      a 
 Frequencies --   141.3951               171.7384               180.9509
 Red. masses --    13.0360                12.4961                 3.9263
 Frc consts  --     0.0000                 0.0000                 0.0000
 IR Inten    --    16.8054                20.7092                11.8918
 Raman Activ --     0.0000                 0.0000                 0.0000
 Depolar     --     0.0000                 0.0000                 0.0000
 Atom AN      X      Y      Z        X      Y      Z        X      Y      Z
   1   8    -0.05  -0.02  -0.06     0.26   0.17   0.15    -0.04   0.01   0.05
   2   6     0.01  -0.00   0.00     0.06   0.11   0.05    -0.01   0.01   0.02
   3   1     0.01  -0.02   0.01    -0.00   0.07   0.00     0.00   0.00   0.00
   4   1     0.01   0.01   0.00     0.01   0.02   0.01    -0.00  -0.00   0.00
   5   6     0.03   0.03   0.02    -0.03  -0.05   0.01     0.00   0.03   0.02
   6   1     0.00   0.02   0.00     0.01  -0.06   0.02    -0.00   0.02   0.00
   7   1     0.02   0.01   0.01    -0.05  -0.02  -0.02     0.01   0.01   0.01
   8   7     0.03   0.02   0.02    -0.00   0.01   0.03     0.01   0.00   0.02
   9   6     0.00   0.02  -0.01    -0.04   0.04   0.07     0.02  -0.01  -0.01
  10   1     0.00   0.01  -0.01    -0.02   0.01   0.03     0.01  -0.00  -0.01
  11   1    -0.00   0.00  -0.00    -0.00   0.02   0.02     0.00  -0.01  -0.01
  12   1    -0.00   0.00  -0.00    -0.02   0.00   0.02     0.01  -0.00  -0.01
  13   6     0.03   0.03   0.02     0.04   0.06   0.01    -0.00  -0.01   0.03
  14   1     0.01   0.01   0.01     0.01   0.03   0.00    -0.00  -0.01   0.01
  15   1     0.01   0.01   0.00     0.03   0.01   0.00    -0.00  -0.00   0.01
  16   1     0.01   0.01   0.00     0.01   0.02   0.00     0.00  -0.00   0.01
  17   6     0.02  -0.01   0.03     0.03  -0.02  -0.00     0.01  -0.01   0.01
  18   1     0.01  -0.00   0.01     0.02  -0.01  -0.01     0.00  -0.00   0.00
  19   1     0.00  -0.01   0.01    -0.00  -0.02   0.00     0.00  -0.00   0.00
  20   1     0.00  -0.01   0.01     0.01   0.01   0.00     0.00  -0.00   0.00
  21   1    -0.02   0.01  -0.02     0.08   0.01   0.05    -0.00   0.00   0.01
  22   6     0.18  -0.06   0.03     0.09  -0.13   0.04    -0.00  -0.00   0.00
  23   8     0.02  -0.09  -0.05     0.14  -0.23   0.19     0.00  -0.00   0.01
  24   7     0.25   0.11   0.14     0.10  -0.22  -0.15    -0.00  -0.01  -0.01
  25   1     0.03   0.05   0.07     0.05  -0.11  -0.02    -0.00  -0.01   0.00
  26   1     0.10   0.02   0.08    -0.01  -0.06  -0.06    -0.01  -0.01   0.00
  27   7     0.29  -0.19   0.01     0.05  -0.03  -0.02    -0.01   0.01  -0.00
  28   1     0.10  -0.03  -0.01     0.01   0.02  -0.05    -0.00   0.00  -0.00
  29   1     0.09  -0.04  -0.03     0.02   0.00   0.01    -0.00   0.00   0.00
  30   6    -0.00  -0.00  -0.00    -0.00  -0.01   0.00     0.01   0.00  -0.03
  31   8    -0.01  -0.01  -0.01    -0.00  -0.01   0.00     0.01   0.01  -0.03
  32   7     0.00   0.00  -0.00     0.01   0.02   0.01    -0.18  -0.23  -0.05
  33   1    -0.00  -0.00  -0.00    -0.01  -0.02  -0.00     0.23   0.29   0.04
  34   1     0.00   0.00  -0.00    -0.02  -0.02  -0.00     0.32   0.38   0.02
  35   7     0.00   0.00   0.00    -0.01  -0.01  -0.01     0.19   0.24   0.05
  36   1    -0.00  -0.00  -0.00     0.02   0.03   0.01    -0.29  -0.38  -0.12
  37   1    -0.00  -0.00  -0.00     0.01   0.02   0.00    -0.22  -0.30  -0.07
  38   6    -0.19   0.03  -0.01     0.04   0.01   0.02     0.01   0.02   0.02
  39   8    -0.43   0.31  -0.13     0.08  -0.01   0.05     0.03   0.04   0.06
  40   7     0.08  -0.04  -0.01     0.00   0.04  -0.02     0.03   0.03  -0.03
  41   1     0.01   0.05  -0.05     0.01   0.00   0.01     0.02   0.01   0.00
  42   1     0.05  -0.07   0.01     0.00   0.01  -0.01     0.01  -0.00  -0.01
  43   7    -0.26  -0.22   0.17     0.03   0.03  -0.01    -0.00   0.01   0.01
  44   1    -0.00  -0.12   0.10     0.01   0.01  -0.00    -0.01   0.00  -0.01
  45   1    -0.10  -0.06   0.05     0.01   0.00   0.01    -0.01   0.00   0.00
  46   6    -0.02   0.01  -0.03    -0.20   0.04  -0.11    -0.02  -0.03  -0.03
  47   8    -0.03  -0.18   0.07    -0.02  -0.14  -0.12     0.02  -0.04  -0.04
  48   7     0.02   0.22  -0.13    -0.28   0.15   0.16    -0.03   0.02  -0.00
  49   1     0.01   0.08  -0.06    -0.04   0.02   0.11     0.00   0.02  -0.00
  50   1     0.01   0.02  -0.03    -0.14   0.08   0.05    -0.01   0.01   0.00
  51   7    -0.03   0.04  -0.07    -0.34   0.16  -0.34    -0.06  -0.08  -0.03
  52   1    -0.02   0.03  -0.03    -0.10   0.04  -0.08    -0.02  -0.02  -0.00
  53   1    -0.02  -0.02  -0.01    -0.09   0.04  -0.11    -0.01  -0.02  -0.01
                     25                     26                     27
                        a                      a                      a 
 Frequencies --   181.7206               189.1790               230.4806
 Red. masses --    12.5169                10.5946                 2.2404
 Frc consts  --     0.0000                 0.0000                 0.0000
 IR Inten    --    14.1402                 3.6589               116.3480
 Raman Activ --     0.0000                 0.0000                 0.0000
 Depolar     --     0.0000                 0.0000                 0.0000
 Atom AN      X      Y      Z        X      Y      Z        X      Y      Z
   1   8     0.10   0.02  -0.02    -0.35   0.03   0.45     0.00   0.04   0.01
   2   6     0.03   0.02   0.02    -0.08  -0.09  -0.09     0.02   0.04   0.02
   3   1    -0.00   0.01   0.02     0.02  -0.02  -0.11    -0.00   0.01   0.02
   4   1     0.01   0.02   0.01    -0.06  -0.14  -0.04     0.02   0.01   0.01
   5   6    -0.02  -0.05  -0.01     0.10   0.29  -0.07    -0.02  -0.03  -0.02
   6   1     0.01  -0.03  -0.00    -0.01   0.19  -0.06     0.00  -0.03  -0.00
   7   1    -0.02  -0.02  -0.01     0.13   0.10   0.06    -0.03  -0.01  -0.01
   8   7    -0.03  -0.02  -0.01     0.09   0.01  -0.10    -0.00  -0.02  -0.01
   9   6    -0.03  -0.01   0.02     0.22  -0.10  -0.31    -0.00  -0.01   0.02
  10   1    -0.02   0.00   0.02     0.12  -0.06  -0.16    -0.01   0.00   0.02
  11   1     0.01  -0.00   0.01    -0.02  -0.06  -0.11     0.02   0.00   0.01
  12   1    -0.01  -0.01  -0.01     0.11   0.01  -0.03    -0.00  -0.00  -0.01
  13   6    -0.02   0.00  -0.03    -0.05  -0.19   0.07     0.01  -0.01   0.01
  14   1    -0.01   0.00  -0.01    -0.02  -0.09   0.05     0.00   0.00   0.00
  15   1    -0.00  -0.00  -0.01    -0.07  -0.04   0.03     0.00  -0.00   0.01
  16   1    -0.01   0.01  -0.01     0.02  -0.08   0.03     0.00  -0.01   0.00
  17   6    -0.04   0.01  -0.01     0.05   0.00  -0.05     0.02  -0.01  -0.04
  18   1    -0.01  -0.00  -0.01    -0.04   0.04   0.05     0.02  -0.01  -0.03
  19   1    -0.01  -0.00   0.01     0.05   0.05  -0.08    -0.00  -0.01  -0.00
  20   1    -0.01   0.01  -0.00     0.02  -0.09  -0.01     0.01   0.02  -0.01
  21   1     0.03  -0.00  -0.00    -0.05  -0.03   0.10     0.02   0.02  -0.03
  22   6     0.05  -0.05   0.01     0.06  -0.00   0.03    -0.04  -0.01   0.03
  23   8     0.03  -0.07   0.04     0.12  -0.00   0.07    -0.02   0.03  -0.03
  24   7     0.07  -0.02  -0.02     0.05  -0.06  -0.06     0.07   0.16  -0.21
  25   1     0.01  -0.02   0.01     0.02  -0.06   0.01    -0.16  -0.27   0.38
  26   1     0.01  -0.01   0.01    -0.02  -0.04   0.01    -0.22  -0.40   0.60
  27   7     0.07  -0.05  -0.01     0.00   0.06   0.04    -0.00   0.01  -0.03
  28   1     0.02  -0.01  -0.01    -0.01   0.02  -0.01     0.07   0.16  -0.20
  29   1     0.02  -0.02  -0.01     0.01   0.03   0.01     0.03   0.08  -0.11
  30   6     0.00  -0.00  -0.00    -0.00   0.01   0.01    -0.00   0.00   0.00
  31   8     0.00  -0.00  -0.00    -0.00   0.03   0.01    -0.01   0.00  -0.00
  32   7    -0.03  -0.04  -0.00     0.01   0.02   0.00    -0.00  -0.00  -0.00
  33   1     0.04   0.05   0.01    -0.01  -0.01  -0.01     0.00   0.00  -0.00
  34   1     0.06   0.07   0.00    -0.02  -0.02  -0.00     0.00   0.00  -0.00
  35   7     0.03   0.04   0.01    -0.02  -0.01   0.02    -0.00  -0.01   0.00
  36   1    -0.05  -0.07  -0.02     0.02   0.02   0.01     0.01   0.01   0.00
  37   1    -0.04  -0.05  -0.01     0.01   0.02   0.01     0.00   0.01   0.00
  38   6    -0.07  -0.14  -0.11    -0.00  -0.02  -0.01     0.00  -0.01   0.02
  39   8    -0.14  -0.24  -0.32    -0.01  -0.04  -0.04     0.02  -0.02   0.05
  40   7    -0.22  -0.18   0.16    -0.03  -0.02   0.02    -0.02  -0.00  -0.01
  41   1    -0.13  -0.08   0.01    -0.02  -0.01   0.00     0.01  -0.01   0.01
  42   1    -0.08   0.01   0.06    -0.01   0.00   0.01    -0.01   0.00  -0.00
  43   7     0.05  -0.01  -0.09     0.02   0.00  -0.01    -0.01  -0.01   0.00
  44   1     0.06   0.00   0.07     0.01   0.00   0.01    -0.01   0.00  -0.01
  45   1     0.06  -0.02  -0.02     0.01  -0.00  -0.00    -0.00  -0.00  -0.00
  46   6     0.03   0.19   0.09    -0.04   0.03   0.00     0.01  -0.00   0.00
  47   8    -0.15   0.17   0.19    -0.03  -0.03   0.03     0.00   0.01   0.00
  48   7     0.05  -0.09   0.08    -0.05   0.04   0.04     0.02  -0.01  -0.02
  49   1    -0.04  -0.09   0.05    -0.01  -0.00   0.03     0.00   0.00  -0.01
  50   1     0.01  -0.03   0.02    -0.02   0.02   0.01     0.01  -0.00  -0.01
  51   7     0.22   0.52  -0.01    -0.03   0.10  -0.05     0.01  -0.02   0.02
  52   1     0.08   0.15  -0.03    -0.00   0.03  -0.02    -0.00  -0.01   0.01
  53   1     0.05   0.13   0.00    -0.01   0.03  -0.01     0.01   0.00   0.00
                     28                     29                     30
                        a                      a                      a 
 Frequencies --   256.5429               280.2433               288.6206
 Red. masses --    12.3636                 5.4423                 2.6781
 Frc consts  --     0.0000                 0.0000                 0.0000
 IR Inten    --    19.9103                 6.3038                 7.6769
 Raman Activ --     0.0000                 0.0000                 0.0000
 Depolar     --     0.0000                 0.0000                 0.0000
 Atom AN      X      Y      Z        X      Y      Z        X      Y      Z
   1   8    -0.09  -0.31  -0.47     0.31   0.07   0.08     0.01   0.01   0.01
   2   6    -0.13  -0.23  -0.17    -0.06  -0.05  -0.26     0.00   0.00   0.00
   3   1    -0.00  -0.10  -0.07     0.02   0.05  -0.22     0.00   0.00  -0.00
   4   1    -0.10  -0.02  -0.05    -0.16  -0.10  -0.10     0.00  -0.00   0.00
   5   6     0.02   0.01   0.09     0.04  -0.01   0.06     0.00  -0.00  -0.00
   6   1    -0.03   0.08   0.03    -0.02   0.03   0.03     0.00  -0.00  -0.00
   7   1     0.08   0.01   0.04     0.04  -0.00   0.03    -0.00  -0.00  -0.00
   8   7    -0.03   0.06   0.09     0.03  -0.00   0.08    -0.00  -0.00  -0.00
   9   6    -0.05   0.04  -0.02    -0.06   0.03   0.10    -0.00  -0.00  -0.00
  10   1    -0.02   0.03  -0.00     0.11  -0.07  -0.12     0.00  -0.00  -0.00
  11   1     0.00  -0.02  -0.00    -0.22   0.07  -0.03    -0.00   0.00  -0.00
  12   1    -0.02   0.01  -0.05     0.04   0.03   0.25     0.00   0.00   0.01
  13   6    -0.03   0.09   0.01     0.03   0.05  -0.12    -0.00   0.00  -0.00
  14   1    -0.00   0.03  -0.00    -0.03  -0.08   0.05    -0.00  -0.00   0.00
  15   1     0.00   0.02   0.00    -0.02  -0.01  -0.20    -0.00  -0.00  -0.00
  16   1    -0.02   0.03  -0.00     0.07   0.16  -0.01     0.00   0.00   0.00
  17   6    -0.12   0.06   0.19    -0.10  -0.04   0.24    -0.00   0.00  -0.00
  18   1    -0.08   0.05   0.11    -0.21   0.12   0.28    -0.00   0.00   0.00
  19   1     0.00   0.06   0.01     0.10   0.14  -0.13     0.00   0.00  -0.00
  20   1    -0.04  -0.06   0.05    -0.01  -0.30   0.09    -0.00  -0.00  -0.00
  21   1    -0.04  -0.07  -0.12     0.06  -0.03   0.10     0.00   0.00   0.00
  22   6     0.17   0.05   0.12    -0.07  -0.01  -0.05     0.01  -0.01  -0.01
  23   8     0.28   0.05   0.20    -0.09   0.00  -0.10    -0.00  -0.01  -0.00
  24   7     0.13  -0.12  -0.08    -0.05   0.05   0.02     0.01   0.00   0.02
  25   1     0.06  -0.10   0.01    -0.03   0.02   0.02     0.00   0.01  -0.00
  26   1    -0.04  -0.08   0.01    -0.01  -0.01   0.06     0.01   0.01  -0.01
  27   7    -0.03   0.28   0.17     0.01  -0.12  -0.06     0.02  -0.02  -0.01
  28   1    -0.07   0.08   0.00     0.04  -0.01  -0.02     0.02   0.01  -0.02
  29   1     0.00   0.12   0.08     0.00  -0.04  -0.05     0.00  -0.01  -0.00
  30   6     0.01   0.00  -0.01     0.01   0.00  -0.00    -0.00  -0.00  -0.00
  31   8     0.02   0.01  -0.00     0.02   0.01  -0.00    -0.00  -0.00   0.00
  32   7     0.00  -0.01  -0.01    -0.00  -0.01  -0.01     0.00   0.01   0.00
  33   1     0.00   0.00  -0.00     0.01   0.01  -0.00    -0.00  -0.01  -0.00
  34   1     0.00   0.00  -0.00     0.01   0.00  -0.00    -0.01  -0.01  -0.00
  35   7     0.00   0.00  -0.02     0.00   0.00  -0.01     0.00   0.01   0.00
  36   1    -0.00  -0.00  -0.01    -0.01  -0.00  -0.01    -0.01  -0.01  -0.00
  37   1     0.00  -0.00  -0.01     0.00  -0.00  -0.01    -0.00  -0.01  -0.00
  38   6     0.00  -0.01  -0.01     0.00   0.00   0.00    -0.07  -0.02  -0.04
  39   8     0.01  -0.02  -0.01     0.00   0.00   0.01    -0.06  -0.01  -0.04
  40   7    -0.01  -0.01   0.00     0.00   0.00  -0.00    -0.08   0.06  -0.15
  41   1    -0.00  -0.01   0.01    -0.00   0.00  -0.00     0.15  -0.14   0.21
  42   1     0.00  -0.00   0.01    -0.00   0.00  -0.01     0.21  -0.22   0.39
  43   7     0.02   0.00  -0.00    -0.01   0.00  -0.00     0.15  -0.11   0.20
  44   1    -0.01   0.01  -0.01     0.00  -0.00   0.01    -0.39   0.19  -0.47
  45   1     0.00   0.00  -0.01     0.00  -0.00   0.01    -0.18   0.11  -0.23
  46   6    -0.03   0.01  -0.02     0.00   0.00   0.00     0.03   0.01   0.03
  47   8     0.01  -0.03  -0.02    -0.01   0.02   0.00     0.02   0.04   0.02
  48   7    -0.04   0.03   0.03     0.01  -0.01  -0.01    -0.00  -0.02   0.01
  49   1    -0.00   0.00   0.03    -0.00   0.00  -0.01     0.00  -0.05   0.07
  50   1    -0.02   0.02   0.01     0.01  -0.01  -0.00     0.04   0.16  -0.01
  51   7    -0.04   0.02  -0.05     0.01  -0.00   0.02     0.02   0.06  -0.02
  52   1    -0.01  -0.00  -0.01     0.00  -0.00   0.00    -0.00  -0.03   0.04
  53   1    -0.00   0.03  -0.01     0.00  -0.00   0.00     0.01   0.03  -0.01
                     31                     32                     33
                        a                      a                      a 
 Frequencies --   312.8263               324.9974               328.3029
 Red. masses --     9.7246                 3.7398                 3.8878
 Frc consts  --     0.0000                 0.0000                 0.0000
 IR Inten    --     0.4031               227.7879               297.8526
 Raman Activ --     0.0000                 0.0000                 0.0000
 Depolar     --     0.0000                 0.0000                 0.0000
 Atom AN      X      Y      Z        X      Y      Z        X      Y      Z
   1   8    -0.43   0.20  -0.07    -0.07  -0.06  -0.10     0.05   0.06   0.10
   2   6    -0.00   0.18  -0.05     0.07   0.03   0.18    -0.08  -0.02  -0.17
   3   1    -0.00   0.01   0.03    -0.01  -0.02   0.14     0.00   0.03  -0.13
   4   1     0.04   0.08  -0.01     0.11   0.08   0.07    -0.10  -0.07  -0.06
   5   6     0.03   0.05  -0.02    -0.02  -0.03  -0.03     0.00   0.02   0.02
   6   1     0.02   0.00  -0.01     0.02  -0.03  -0.02    -0.02   0.02   0.02
   7   1    -0.04   0.03   0.03    -0.02  -0.01  -0.02     0.00   0.01   0.02
   8   7     0.10  -0.14  -0.00    -0.06  -0.00  -0.04     0.05  -0.01   0.04
   9   6     0.06  -0.03   0.34    -0.06   0.01  -0.03     0.08  -0.03   0.01
  10   1     0.08  -0.10   0.05     0.06  -0.05  -0.10    -0.05   0.04   0.09
  11   1    -0.08   0.11   0.07    -0.14   0.04  -0.04     0.14  -0.04   0.04
  12   1     0.05  -0.01   0.25     0.02   0.02   0.12    -0.01  -0.02  -0.12
  13   6     0.06  -0.08  -0.42    -0.01   0.01   0.14     0.02  -0.01  -0.15
  14   1     0.05  -0.10  -0.13    -0.12  -0.16   0.27     0.10   0.13  -0.23
  15   1     0.02  -0.05  -0.22    -0.10  -0.03  -0.24     0.09   0.02   0.18
  16   1    -0.03   0.09  -0.13     0.22   0.20   0.12    -0.18  -0.15  -0.10
  17   6     0.06  -0.23   0.09     0.06  -0.01  -0.17    -0.07  -0.01   0.19
  18   1     0.10  -0.11   0.01    -0.04   0.03  -0.02     0.04  -0.04   0.02
  19   1    -0.04  -0.13   0.09     0.04   0.03  -0.12    -0.05  -0.04   0.13
  20   1    -0.03  -0.00   0.01     0.07  -0.07  -0.03    -0.08   0.07   0.03
  21   1    -0.11   0.08  -0.04    -0.03   0.02  -0.05     0.02  -0.02   0.05
  22   6     0.06   0.00   0.03     0.03   0.00   0.02    -0.02   0.00  -0.02
  23   8     0.07  -0.00   0.05     0.03  -0.00   0.03    -0.02   0.01  -0.02
  24   7     0.04  -0.05  -0.03     0.02  -0.02  -0.01    -0.02   0.02   0.01
  25   1     0.02  -0.02  -0.01     0.01  -0.01  -0.00    -0.01   0.01   0.00
  26   1    -0.00  -0.01  -0.03    -0.00  -0.00  -0.01    -0.00  -0.00   0.02
  27   7    -0.01   0.09   0.05    -0.01   0.05   0.03     0.00  -0.04  -0.02
  28   1    -0.03   0.01   0.01    -0.02   0.01   0.00     0.02   0.00  -0.02
  29   1    -0.00   0.04   0.03    -0.00   0.02   0.02     0.00  -0.01  -0.02
  30   6     0.01  -0.00   0.00    -0.06  -0.06  -0.01    -0.05  -0.06  -0.01
  31   8     0.01  -0.01   0.00    -0.01  -0.03   0.00     0.02  -0.01   0.00
  32   7    -0.01  -0.01   0.02     0.13   0.16  -0.00     0.14   0.17  -0.00
  33   1     0.01   0.01   0.01    -0.11  -0.15  -0.02    -0.12  -0.16  -0.01
  34   1     0.01   0.02   0.00    -0.25  -0.28  -0.03    -0.29  -0.32  -0.03
  35   7    -0.00  -0.01  -0.01     0.11   0.16   0.06     0.13   0.17   0.06
  36   1     0.01   0.01   0.00    -0.23  -0.27  -0.09    -0.27  -0.31  -0.10
  37   1     0.01   0.01  -0.00    -0.11  -0.15  -0.03    -0.11  -0.16  -0.04
  38   6     0.00  -0.00  -0.00    -0.00   0.00  -0.00    -0.00   0.00  -0.00
  39   8     0.00  -0.00  -0.01     0.00  -0.00  -0.00    -0.00   0.00   0.00
  40   7    -0.00  -0.00   0.00     0.01  -0.01   0.01     0.00  -0.00   0.01
  41   1    -0.00  -0.00   0.00    -0.01   0.01  -0.01    -0.00   0.00  -0.01
  42   1    -0.00  -0.00   0.00    -0.01   0.01  -0.02    -0.01   0.01  -0.02
  43   7     0.01   0.00  -0.00     0.00   0.00   0.00     0.00  -0.00   0.00
  44   1    -0.00   0.00  -0.00     0.00  -0.00   0.00    -0.00  -0.00  -0.00
  45   1     0.00   0.00  -0.00     0.00   0.00  -0.00    -0.00   0.00   0.00
  46   6    -0.01   0.01   0.00     0.00   0.01  -0.01     0.00  -0.01   0.00
  47   8    -0.01   0.01  -0.00     0.01   0.02  -0.01    -0.00  -0.01   0.00
  48   7    -0.01   0.00   0.01    -0.00  -0.01   0.01     0.00   0.00   0.00
  49   1    -0.00  -0.00   0.01     0.00   0.00  -0.00     0.00   0.00   0.00
  50   1    -0.01   0.00   0.00    -0.00  -0.00   0.00     0.00   0.00   0.00
  51   7     0.00   0.01   0.01    -0.00  -0.00  -0.00     0.00   0.00   0.00
  52   1     0.00   0.00   0.00    -0.00  -0.00  -0.00     0.00   0.00  -0.00
  53   1     0.00   0.01   0.00     0.00   0.00  -0.00     0.00  -0.00   0.00
                     34                     35                     36
                        a                      a                      a 
 Frequencies --   357.7912               365.4740               374.6091
 Red. masses --     5.4666                 3.8058                 3.7285
 Frc consts  --     0.0000                 0.0000                 0.0000
 IR Inten    --     1.3714               163.2590                 1.6953
 Raman Activ --     0.0000                 0.0000                 0.0000
 Depolar     --     0.0000                 0.0000                 0.0000
 Atom AN      X      Y      Z        X      Y      Z        X      Y      Z
   1   8    -0.22   0.04   0.04    -0.03  -0.00  -0.01     0.08  -0.04  -0.03
   2   6    -0.03   0.09   0.16    -0.01   0.01   0.02    -0.15  -0.03   0.03
   3   1    -0.07   0.02   0.16    -0.01  -0.00   0.02    -0.07   0.02   0.03
   4   1     0.12   0.07   0.06     0.01   0.01   0.01    -0.03   0.00   0.01
   5   6    -0.19  -0.21  -0.13    -0.03  -0.02  -0.01    -0.18  -0.10  -0.02
   6   1    -0.02  -0.21   0.03    -0.01  -0.02   0.00    -0.06  -0.06   0.03
   7   1    -0.19  -0.09  -0.14    -0.02  -0.01  -0.01    -0.08  -0.04  -0.06
   8   7     0.04  -0.02  -0.08     0.01   0.00  -0.01    -0.01   0.04   0.01
   9   6     0.22  -0.10  -0.12     0.03  -0.01  -0.02     0.19  -0.08  -0.21
  10   1     0.03  -0.03   0.02     0.01  -0.00  -0.01     0.29  -0.19  -0.33
  11   1     0.13  -0.08  -0.02     0.01  -0.01  -0.01    -0.29  -0.01  -0.15
  12   1     0.08   0.01  -0.12     0.01   0.00  -0.01     0.22   0.09   0.24
  13   6     0.23   0.17  -0.04     0.02   0.02  -0.01     0.11   0.18   0.07
  14   1     0.07   0.16  -0.07     0.00   0.01  -0.00     0.02   0.11   0.00
  15   1     0.17   0.04   0.08     0.01   0.00  -0.00     0.10   0.04   0.05
  16   1     0.01   0.00  -0.03     0.01   0.01  -0.00     0.01   0.04   0.01
  17   6    -0.10   0.00   0.10    -0.01  -0.00   0.01    -0.09   0.04   0.13
  18   1    -0.24   0.16   0.27    -0.01   0.01   0.02     0.17  -0.11  -0.12
  19   1     0.12   0.18  -0.15     0.01   0.01  -0.00    -0.13  -0.12   0.28
  20   1    -0.03  -0.31   0.04    -0.01  -0.02   0.00    -0.13   0.26  -0.01
  21   1    -0.03   0.03  -0.05    -0.01   0.00  -0.00     0.02  -0.02   0.02
  22   6     0.01  -0.01   0.02     0.02   0.05  -0.06     0.00   0.00  -0.00
  23   8     0.01  -0.01   0.02     0.02   0.03  -0.02     0.00   0.00  -0.00
  24   7     0.02  -0.00  -0.01    -0.04  -0.06   0.08     0.00  -0.00  -0.00
  25   1     0.00  -0.01   0.01     0.01   0.01  -0.03     0.00   0.00  -0.00
  26   1     0.00   0.00  -0.01     0.02   0.05  -0.07    -0.00  -0.01   0.01
  27   7     0.00   0.03  -0.00    -0.04  -0.08   0.11     0.00  -0.00   0.00
  28   1    -0.02  -0.03   0.04     0.09   0.23  -0.29     0.00   0.01  -0.01
  29   1    -0.00   0.00   0.02     0.02   0.05  -0.06     0.00   0.00  -0.00
  30   6    -0.00   0.01  -0.00    -0.00  -0.00  -0.00     0.01  -0.01   0.00
  31   8     0.00   0.01  -0.00     0.00  -0.00   0.00     0.01  -0.00   0.00
  32   7    -0.00  -0.00  -0.01     0.00   0.01  -0.00    -0.00  -0.01   0.01
  33   1     0.00   0.00  -0.00    -0.00  -0.00  -0.00     0.00   0.00   0.00
  34   1     0.01   0.00  -0.00    -0.01  -0.01  -0.00     0.01   0.01   0.00
  35   7    -0.01  -0.00   0.01     0.00   0.00   0.00     0.00  -0.01  -0.02
  36   1     0.00   0.00   0.00    -0.01  -0.01  -0.00     0.01   0.01  -0.00
  37   1     0.00   0.01   0.00    -0.00  -0.00  -0.00     0.01   0.00  -0.01
  38   6    -0.01   0.00  -0.01     0.08  -0.03   0.07    -0.00  -0.00  -0.00
  39   8    -0.01   0.00  -0.00     0.07  -0.04   0.03    -0.00   0.00  -0.00
  40   7     0.01  -0.01   0.02    -0.15   0.18  -0.21     0.00  -0.01   0.01
  41   1    -0.01   0.01  -0.02     0.08  -0.13   0.16    -0.00   0.00  -0.00
  42   1    -0.02   0.01  -0.04     0.23  -0.19   0.49    -0.01   0.01  -0.02
  43   7     0.01  -0.00   0.01    -0.15   0.05  -0.16     0.01  -0.00   0.00
  44   1    -0.02   0.01  -0.02     0.22  -0.12   0.27    -0.01   0.00  -0.01
  45   1    -0.01   0.01  -0.01     0.09  -0.08   0.14    -0.00   0.00  -0.01
  46   6     0.00   0.00   0.01    -0.02   0.01  -0.00    -0.00   0.00   0.01
  47   8     0.00   0.01   0.00    -0.00  -0.03   0.02    -0.01   0.00   0.01
  48   7     0.00  -0.01  -0.01     0.03   0.01   0.01     0.00  -0.00  -0.01
  49   1    -0.00  -0.01   0.01    -0.00   0.07  -0.10    -0.00  -0.01   0.00
  50   1     0.01   0.02  -0.00    -0.03  -0.23   0.02     0.01   0.01  -0.00
  51   7    -0.00  -0.00  -0.00    -0.00   0.01  -0.01    -0.00   0.00   0.01
  52   1    -0.00   0.00  -0.00    -0.00   0.01  -0.01    -0.00   0.00   0.00
  53   1    -0.00  -0.01  -0.00    -0.01  -0.01   0.01     0.00   0.00  -0.00
                     37                     38                     39
                        a                      a                      a 
 Frequencies --   381.2731               398.9984               427.7075
 Red. masses --     3.2473                 3.0567                 8.6007
 Frc consts  --     0.0000                 0.0000                 0.0000
 IR Inten    --     1.7000               415.2651                 0.1130
 Raman Activ --     0.0000                 0.0000                 0.0000
 Depolar     --     0.0000                 0.0000                 0.0000
 Atom AN      X      Y      Z        X      Y      Z        X      Y      Z
   1   8    -0.05  -0.02  -0.09     0.01   0.00   0.01     0.17  -0.15  -0.04
   2   6     0.11   0.02   0.03    -0.00  -0.00  -0.01    -0.06  -0.07   0.16
   3   1     0.04  -0.02   0.03     0.00   0.00  -0.01    -0.03  -0.02   0.06
   4   1     0.05   0.03   0.01    -0.01  -0.01  -0.00     0.01   0.01   0.05
   5   6     0.08   0.01   0.01    -0.00  -0.01   0.00    -0.08   0.10  -0.02
   6   1     0.04   0.01  -0.04    -0.00  -0.00   0.00    -0.03   0.06  -0.02
   7   1     0.02   0.01   0.04    -0.00  -0.00  -0.00     0.04   0.02  -0.03
   8   7    -0.02  -0.08  -0.01     0.00   0.00   0.01    -0.17   0.28  -0.06
   9   6    -0.22   0.02   0.14    -0.00   0.00  -0.00     0.32   0.18   0.09
  10   1     0.10  -0.08  -0.15     0.01   0.00  -0.01     0.12  -0.09   0.05
  11   1    -0.33   0.13  -0.03    -0.01   0.00  -0.00     0.10   0.05   0.03
  12   1    -0.01  -0.00   0.34     0.00   0.00   0.01     0.18   0.14   0.05
  13   6    -0.01  -0.09   0.10    -0.00  -0.00   0.01    -0.32   0.12  -0.05
  14   1     0.11   0.20  -0.22     0.00  -0.00   0.00    -0.03   0.04  -0.09
  15   1     0.10   0.03   0.40    -0.00  -0.00   0.00    -0.11   0.06   0.08
  16   1    -0.21  -0.30  -0.05    -0.00  -0.00   0.00    -0.16  -0.05  -0.04
  17   6     0.08   0.09  -0.24     0.00   0.00   0.01     0.08  -0.39  -0.10
  18   1    -0.12   0.09  -0.04     0.01  -0.00  -0.00     0.11  -0.10   0.11
  19   1     0.10   0.12  -0.19    -0.00  -0.00   0.01    -0.06  -0.19  -0.19
  20   1     0.11  -0.08  -0.03    -0.00   0.01   0.00     0.09  -0.24   0.00
  21   1    -0.04   0.02  -0.01     0.01   0.00  -0.01     0.04  -0.04  -0.01
  22   6     0.02  -0.00   0.01    -0.04  -0.08   0.10    -0.01   0.00  -0.00
  23   8     0.02  -0.00   0.01    -0.02  -0.04   0.04    -0.00   0.00   0.00
  24   7     0.02  -0.02  -0.01     0.06   0.11  -0.15    -0.01   0.01   0.00
  25   1     0.01  -0.01  -0.00    -0.03  -0.04   0.06    -0.00   0.00  -0.00
  26   1     0.00  -0.00  -0.01    -0.04  -0.09   0.13    -0.00  -0.00   0.01
  27   7    -0.01   0.03   0.02     0.06   0.16  -0.19     0.00  -0.01  -0.01
  28   1    -0.01   0.01  -0.01    -0.19  -0.46   0.60     0.00  -0.01   0.01
  29   1     0.00   0.02   0.01    -0.03  -0.05   0.05    -0.00  -0.01  -0.00
  30   6     0.00   0.00   0.00    -0.00  -0.00  -0.00     0.00   0.01  -0.01
  31   8     0.01   0.01   0.00     0.00  -0.00   0.00     0.00   0.00  -0.01
  32   7     0.01   0.01   0.00     0.01   0.00  -0.00    -0.01   0.01   0.00
  33   1    -0.01  -0.01  -0.00    -0.00  -0.00  -0.00    -0.01  -0.01   0.01
  34   1    -0.02  -0.02  -0.00    -0.01  -0.01  -0.00    -0.01   0.01  -0.00
  35   7     0.01   0.01   0.01     0.00   0.01   0.00     0.00  -0.01   0.02
  36   1    -0.04  -0.04  -0.01    -0.01  -0.01  -0.00    -0.00  -0.03   0.00
  37   1     0.00  -0.00  -0.00    -0.00  -0.00  -0.00     0.00   0.01   0.02
  38   6     0.00  -0.00   0.00     0.03   0.00   0.01    -0.00   0.00   0.00
  39   8     0.00  -0.00   0.00     0.02  -0.01  -0.01    -0.00  -0.00   0.00
  40   7    -0.01   0.00  -0.00    -0.03   0.08  -0.09     0.00   0.00  -0.00
  41   1     0.00  -0.00   0.00    -0.03  -0.03  -0.00     0.00   0.00  -0.00
  42   1     0.00  -0.00   0.01     0.15  -0.12   0.31     0.00  -0.00   0.00
  43   7    -0.00   0.00  -0.00    -0.06   0.03  -0.07    -0.00   0.00   0.00
  44   1     0.01  -0.00   0.01     0.07  -0.04   0.09     0.00  -0.00   0.00
  45   1     0.00  -0.00   0.00     0.04  -0.04   0.07    -0.00   0.00  -0.00
  46   6    -0.01  -0.00   0.01    -0.01   0.00  -0.00    -0.00  -0.00   0.00
  47   8    -0.01  -0.01   0.01     0.01  -0.01   0.00     0.00  -0.00   0.00
  48   7    -0.00   0.00  -0.01    -0.00   0.01   0.02    -0.00   0.00  -0.00
  49   1    -0.00  -0.00  -0.00     0.01   0.07  -0.08    -0.00  -0.00  -0.00
  50   1     0.00  -0.00  -0.00    -0.02  -0.15   0.02     0.00   0.00  -0.00
  51   7    -0.00   0.01   0.01    -0.01  -0.01   0.02    -0.00   0.00   0.00
  52   1     0.00   0.01  -0.00     0.01   0.04  -0.05     0.00  -0.00   0.00
  53   1    -0.00  -0.00   0.00     0.00  -0.00  -0.01     0.00   0.00   0.00
                     40                     41                     42
                        a                      a                      a 
 Frequencies --   431.9037               443.8215               454.5022
 Red. masses --     2.4053                 1.6330                 8.3535
 Frc consts  --     0.0000                 0.0000                 0.0000
 IR Inten    --   114.6674                 4.7139                 2.1540
 Raman Activ --     0.0000                 0.0000                 0.0000
 Depolar     --     0.0000                 0.0000                 0.0000
 Atom AN      X      Y      Z        X      Y      Z        X      Y      Z
   1   8    -0.00  -0.00  -0.00    -0.01   0.00   0.00    -0.03   0.00   0.01
   2   6    -0.00  -0.00   0.00     0.01  -0.00  -0.01     0.08  -0.01  -0.08
   3   1    -0.00  -0.00   0.00     0.00   0.00  -0.00     0.02  -0.00  -0.01
   4   1     0.00   0.00   0.00     0.01  -0.00  -0.00     0.05  -0.02  -0.02
   5   6    -0.00  -0.00   0.00     0.00  -0.01  -0.02     0.04  -0.03  -0.16
   6   1    -0.00  -0.00   0.00     0.00  -0.02   0.00     0.02  -0.05  -0.02
   7   1    -0.00  -0.00  -0.00    -0.01  -0.01  -0.02    -0.03  -0.02  -0.08
   8   7     0.00   0.00   0.00     0.02   0.01  -0.01     0.03   0.06  -0.12
   9   6    -0.00   0.00  -0.00    -0.00   0.02  -0.00     0.01   0.12   0.06
  10   1     0.00   0.00  -0.00    -0.01   0.01   0.00    -0.00   0.01   0.04
  11   1    -0.00   0.00  -0.00     0.00   0.01  -0.00     0.01   0.08   0.02
  12   1    -0.00   0.00  -0.00    -0.01   0.00  -0.00    -0.00   0.02   0.05
  13   6    -0.00  -0.00  -0.00    -0.00  -0.02   0.01    -0.03  -0.06   0.12
  14   1     0.00  -0.00  -0.00    -0.00  -0.02   0.01    -0.02  -0.01   0.05
  15   1    -0.00   0.00   0.00    -0.01  -0.00  -0.00    -0.05   0.00   0.07
  16   1    -0.00  -0.00  -0.00     0.01  -0.01   0.01     0.03  -0.07   0.04
  17   6     0.00  -0.00   0.00    -0.00  -0.00   0.02    -0.08  -0.05   0.07
  18   1     0.00   0.00   0.00     0.01  -0.00   0.01     0.02  -0.02   0.06
  19   1     0.00  -0.00  -0.00    -0.00  -0.01   0.02    -0.04  -0.03   0.06
  20   1     0.00  -0.00   0.00    -0.01   0.00   0.00    -0.08  -0.02   0.00
  21   1    -0.00   0.00   0.00    -0.00   0.00  -0.00    -0.01   0.00   0.00
  22   6     0.01   0.02   0.00     0.00  -0.00  -0.00     0.00  -0.00   0.00
  23   8    -0.01   0.01   0.00     0.00  -0.00  -0.00    -0.00  -0.00  -0.00
  24   7    -0.01  -0.03  -0.00     0.00   0.00  -0.00     0.00  -0.00   0.00
  25   1     0.01  -0.01  -0.01    -0.00   0.00   0.00    -0.00  -0.01   0.01
  26   1    -0.01   0.00  -0.02     0.00  -0.00   0.00     0.00   0.00  -0.01
  27   7     0.01  -0.01   0.02    -0.00   0.00  -0.00    -0.00   0.00   0.00
  28   1     0.02   0.04  -0.05    -0.00  -0.00   0.00    -0.00   0.00  -0.00
  29   1     0.01   0.00  -0.00    -0.00   0.00   0.00     0.00   0.00   0.00
  30   6    -0.00   0.00   0.00    -0.02  -0.00   0.07    -0.07   0.00   0.28
  31   8    -0.00   0.00   0.00    -0.02  -0.00   0.07    -0.08   0.00   0.30
  32   7     0.00  -0.00  -0.00     0.12   0.04   0.00     0.24  -0.25  -0.15
  33   1    -0.00  -0.00  -0.00    -0.30  -0.36  -0.19     0.12   0.12  -0.23
  34   1     0.01   0.00   0.00     0.39   0.24   0.04     0.15  -0.28  -0.01
  35   7    -0.00  -0.00  -0.00    -0.11  -0.04  -0.05    -0.15   0.24  -0.25
  36   1     0.00   0.01   0.00    -0.37  -0.25  -0.14    -0.12   0.28  -0.08
  37   1     0.00   0.00  -0.00     0.36   0.37  -0.02    -0.01  -0.13  -0.26
  38   6     0.06   0.06  -0.07     0.00  -0.00   0.00    -0.00  -0.00   0.00
  39   8     0.07   0.05  -0.08     0.00   0.00   0.00    -0.00  -0.00   0.00
  40   7    -0.00   0.01   0.19    -0.00   0.00  -0.00     0.00  -0.00  -0.00
  41   1    -0.15   0.02  -0.07    -0.00   0.00  -0.00     0.01  -0.00   0.01
  42   1    -0.06   0.11   0.00     0.00  -0.00   0.00    -0.00  -0.00  -0.01
  43   7     0.03  -0.08   0.01    -0.00   0.00  -0.00     0.00   0.00   0.00
  44   1    -0.25   0.04  -0.39     0.00  -0.00   0.00     0.00   0.00   0.01
  45   1     0.02  -0.10   0.21     0.00   0.00  -0.00    -0.00   0.00  -0.00
  46   6    -0.05  -0.01   0.06     0.00   0.00  -0.00     0.00   0.01   0.01
  47   8     0.08  -0.06   0.04    -0.00   0.00  -0.00     0.01   0.01   0.01
  48   7     0.00   0.01   0.06     0.00  -0.00  -0.00     0.00  -0.01  -0.01
  49   1     0.02   0.30  -0.36    -0.00  -0.00   0.00    -0.00  -0.00  -0.01
  50   1    -0.00  -0.59   0.04    -0.00   0.00  -0.00     0.01  -0.00  -0.00
  51   7    -0.07   0.08  -0.04     0.00  -0.00   0.00    -0.01   0.00  -0.01
  52   1    -0.01   0.04  -0.03    -0.00   0.00  -0.00    -0.01  -0.00   0.00
  53   1    -0.03  -0.00  -0.01     0.00  -0.00   0.00    -0.00  -0.00  -0.01
                     43                     44                     45
                        a                      a                      a 
 Frequencies --   465.3892               467.7898               471.4067
 Red. masses --     7.7373                 4.9209                 7.0107
 Frc consts  --     0.0000                 0.0000                 0.0000
 IR Inten    --     1.7479                26.0822                11.5891
 Raman Activ --     0.0000                 0.0000                 0.0000
 Depolar     --     0.0000                 0.0000                 0.0000
 Atom AN      X      Y      Z        X      Y      Z        X      Y      Z
   1   8    -0.09   0.02   0.01    -0.04   0.01   0.01     0.02  -0.01  -0.01
   2   6     0.07   0.00  -0.10     0.10  -0.01  -0.10    -0.11   0.02   0.10
   3   1    -0.00   0.01   0.00     0.02  -0.01  -0.02    -0.03   0.01   0.02
   4   1     0.06  -0.01  -0.03     0.04  -0.02  -0.03    -0.04   0.03   0.03
   5   6    -0.02  -0.18  -0.18     0.05  -0.02  -0.15    -0.08  -0.04   0.15
   6   1     0.02  -0.23   0.06     0.03  -0.04  -0.03    -0.03  -0.03   0.07
   7   1    -0.16  -0.09  -0.20    -0.02  -0.01  -0.06    -0.04  -0.02   0.01
   8   7     0.23   0.21  -0.05     0.01   0.03  -0.11     0.08   0.04   0.14
   9   6    -0.09   0.33  -0.09     0.01   0.08   0.08    -0.05   0.00  -0.15
  10   1    -0.01   0.14  -0.07    -0.01  -0.00   0.05     0.00   0.06  -0.09
  11   1    -0.09   0.11  -0.04     0.01   0.07   0.03    -0.06  -0.06  -0.05
  12   1    -0.07   0.03   0.03    -0.00   0.01   0.05    -0.03  -0.01  -0.06
  13   6    -0.13  -0.26   0.11    -0.01  -0.04   0.14    -0.04  -0.05  -0.16
  14   1    -0.00  -0.16   0.03    -0.03   0.00   0.07     0.04  -0.07  -0.09
  15   1    -0.19  -0.02   0.08    -0.03   0.00   0.07    -0.03  -0.01  -0.06
  16   1    -0.02  -0.17   0.03     0.05  -0.05   0.05    -0.08   0.01  -0.06
  17   6     0.12  -0.02   0.26    -0.12  -0.04   0.08     0.21   0.04  -0.01
  18   1     0.10  -0.01   0.15     0.01  -0.02   0.05     0.03   0.02  -0.02
  19   1     0.00  -0.05   0.10    -0.04  -0.03   0.07     0.06   0.02  -0.06
  20   1    -0.05  -0.04   0.05    -0.09  -0.00   0.00     0.11  -0.00   0.02
  21   1    -0.02   0.01  -0.00    -0.02   0.01   0.01     0.01  -0.00  -0.01
  22   6     0.01  -0.02  -0.02     0.01   0.02   0.04    -0.01  -0.01  -0.00
  23   8     0.02  -0.02  -0.02    -0.04   0.02   0.01     0.00  -0.00  -0.00
  24   7     0.02   0.02   0.03    -0.00  -0.03  -0.05    -0.00   0.02  -0.01
  25   1    -0.01   0.02   0.01     0.01  -0.08   0.03    -0.02  -0.01   0.03
  26   1     0.03   0.01   0.01    -0.03   0.00  -0.06     0.01   0.01  -0.01
  27   7    -0.04   0.02   0.01     0.05   0.01   0.01    -0.01   0.01  -0.01
  28   1    -0.03   0.02  -0.03     0.01  -0.05   0.08    -0.02  -0.05   0.06
  29   1    -0.01   0.02   0.02     0.02   0.00  -0.03     0.01   0.02  -0.02
  30   6     0.03   0.00  -0.09     0.02  -0.00  -0.07    -0.01   0.00   0.05
  31   8     0.03   0.00  -0.10     0.02   0.00  -0.08    -0.02  -0.00   0.06
  32   7    -0.08   0.07   0.04    -0.06   0.06   0.03     0.05  -0.04  -0.02
  33   1    -0.01  -0.00   0.08    -0.02  -0.01   0.06     0.02   0.01  -0.04
  34   1    -0.07   0.06  -0.00    -0.05   0.06  -0.00     0.03  -0.05   0.00
  35   7     0.06  -0.07   0.07     0.04  -0.06   0.06    -0.03   0.04  -0.04
  36   1     0.05  -0.07   0.03     0.04  -0.06   0.02    -0.03   0.05  -0.01
  37   1    -0.02   0.01   0.08    -0.01   0.02   0.06     0.00  -0.02  -0.05
  38   6     0.02  -0.00  -0.01    -0.06   0.02  -0.00     0.14   0.09  -0.10
  39   8     0.02   0.03   0.01    -0.03  -0.08  -0.07     0.16   0.11  -0.10
  40   7    -0.00  -0.01   0.03    -0.04   0.06  -0.07    -0.22   0.16   0.11
  41   1    -0.10   0.02  -0.09     0.41  -0.14   0.40     0.14  -0.23   0.38
  42   1     0.01   0.01   0.08    -0.08   0.00  -0.30    -0.16   0.20  -0.11
  43   7    -0.01  -0.03  -0.02     0.03   0.03   0.09    -0.04  -0.29   0.02
  44   1    -0.03  -0.00  -0.05     0.08  -0.02   0.12     0.07  -0.22  -0.00
  45   1     0.01  -0.02   0.03    -0.05   0.06  -0.08    -0.20  -0.03  -0.02
  46   6     0.01  -0.01  -0.07    -0.00   0.04   0.14    -0.01  -0.04  -0.05
  47   8    -0.07   0.00  -0.05     0.15   0.02   0.11    -0.03  -0.01  -0.06
  48   7    -0.01   0.04   0.06     0.05  -0.09  -0.10    -0.03   0.04   0.06
  49   1     0.03  -0.01   0.08    -0.06   0.04  -0.19     0.04   0.02   0.05
  50   1    -0.07   0.04   0.03     0.14  -0.15  -0.05    -0.05   0.03   0.02
  51   7     0.10  -0.03   0.03    -0.19   0.07  -0.06     0.09  -0.01   0.04
  52   1     0.04   0.03  -0.04    -0.09  -0.05   0.07     0.05   0.03  -0.04
  53   1     0.01  -0.03   0.04    -0.02   0.05  -0.08     0.01  -0.02   0.04
                     46                     47                     48
                        a                      a                      a 
 Frequencies --   474.0153               478.4950               488.1780
 Red. masses --     8.0594                 7.9749                 8.7855
 Frc consts  --     0.0000                 0.0000                 0.0000
 IR Inten    --     7.5924                 8.4756                28.3394
 Raman Activ --     0.0000                 0.0000                 0.0000
 Depolar     --     0.0000                 0.0000                 0.0000
 Atom AN      X      Y      Z        X      Y      Z        X      Y      Z
   1   8     0.01  -0.01  -0.01     0.03   0.01   0.03     0.02   0.02   0.02
   2   6    -0.12   0.02   0.11     0.05  -0.00  -0.03    -0.03   0.01   0.02
   3   1    -0.04   0.01   0.02     0.01   0.00  -0.01    -0.00   0.01  -0.01
   4   1    -0.05   0.03   0.03     0.02  -0.01  -0.01    -0.03   0.00   0.00
   5   6    -0.09  -0.06   0.16     0.04   0.04  -0.06    -0.02  -0.03   0.06
   6   1    -0.03  -0.06   0.09     0.01   0.05  -0.04    -0.00  -0.03   0.03
   7   1    -0.06  -0.03  -0.00     0.04   0.02   0.02    -0.03  -0.01  -0.00
   8   7     0.10   0.06   0.17    -0.06  -0.04  -0.07     0.03   0.03   0.06
   9   6    -0.07   0.03  -0.19     0.04  -0.04   0.09    -0.03   0.01  -0.07
  10   1     0.00   0.08  -0.12     0.00  -0.05   0.05    -0.00   0.03  -0.04
  11   1    -0.07  -0.06  -0.07     0.04   0.02   0.03    -0.02  -0.03  -0.02
  12   1    -0.04  -0.01  -0.07     0.03   0.00   0.03    -0.02  -0.00  -0.03
  13   6    -0.07  -0.08  -0.18     0.04   0.06   0.07    -0.04  -0.03  -0.07
  14   1     0.05  -0.09  -0.11    -0.02   0.05   0.04     0.01  -0.03  -0.04
  15   1    -0.06  -0.02  -0.07     0.04   0.01   0.03    -0.03  -0.01  -0.03
  16   1    -0.10   0.00  -0.07     0.04   0.01   0.03    -0.04   0.00  -0.03
  17   6     0.26   0.05   0.01    -0.12  -0.02  -0.02     0.09   0.01   0.01
  18   1     0.05   0.02  -0.01    -0.03  -0.01  -0.01     0.02   0.00  -0.00
  19   1     0.07   0.02  -0.06    -0.03  -0.00   0.02     0.02   0.00  -0.02
  20   1     0.13  -0.01   0.02    -0.05   0.00  -0.01     0.05   0.00   0.01
  21   1     0.01  -0.01  -0.01     0.00  -0.00   0.01     0.01  -0.00   0.00
  22   6     0.01  -0.03  -0.01     0.04  -0.22  -0.14     0.05  -0.15  -0.07
  23   8     0.01  -0.03  -0.01     0.15  -0.23  -0.10     0.06  -0.17  -0.08
  24   7     0.02   0.01   0.02     0.17   0.19   0.20     0.15   0.10   0.11
  25   1     0.00   0.04  -0.02    -0.10   0.26   0.04    -0.07   0.09   0.10
  26   1     0.02  -0.01   0.04     0.23   0.04   0.20     0.17   0.06   0.05
  27   7    -0.03   0.02  -0.01    -0.34   0.12  -0.05    -0.23   0.10   0.01
  28   1    -0.02   0.01  -0.02    -0.25   0.02  -0.08    -0.19   0.02  -0.06
  29   1    -0.01   0.00   0.03    -0.08   0.14   0.12    -0.04   0.13   0.08
  30   6    -0.01   0.00   0.05     0.00   0.00  -0.01    -0.00  -0.00   0.01
  31   8    -0.01  -0.00   0.06     0.00  -0.00  -0.02    -0.00   0.00   0.01
  32   7     0.05  -0.04  -0.02    -0.01   0.01   0.00     0.01  -0.01  -0.00
  33   1     0.02   0.01  -0.04    -0.01  -0.01   0.01     0.01   0.00  -0.01
  34   1     0.03  -0.05   0.00    -0.00   0.02  -0.00     0.00  -0.01   0.00
  35   7    -0.03   0.04  -0.04     0.01  -0.01   0.01    -0.01   0.01  -0.01
  36   1    -0.03   0.05  -0.01     0.01  -0.01   0.00    -0.01   0.01  -0.00
[...]
  44   1     0.00   0.00  -0.00     0.09   0.06  -0.05    -0.12  -0.08   0.06
  45   1    -0.00  -0.02  -0.01    -0.13  -0.54  -0.16     0.17   0.69   0.20
  46   6     0.00  -0.01  -0.01     0.00  -0.00  -0.00    -0.01  -0.00  -0.00
  47   8     0.00   0.00   0.00    -0.00   0.00   0.00     0.00   0.00   0.00
  48   7    -0.00   0.00   0.00    -0.01   0.00  -0.00     0.02  -0.01   0.01
  49   1     0.00  -0.00  -0.00     0.02  -0.03  -0.02    -0.03   0.04   0.03
  50   1    -0.00  -0.00  -0.01     0.01   0.01   0.03    -0.02  -0.01  -0.08
  51   7    -0.01  -0.08  -0.07    -0.12  -0.09  -0.13    -0.07  -0.08  -0.10
  52   1     0.20   0.28   0.30     0.27   0.41   0.43     0.23   0.34   0.35
  53   1    -0.17   0.04  -0.06     0.18  -0.06   0.06     0.04  -0.02   0.01
                    142                    143                    144
                        a                      a                      a 
 Frequencies --  3446.0971              3492.9405              3494.3197
 Red. masses --     1.4745                 1.4589                 1.4549
 Frc consts  --     0.0000                 0.0000                 0.0000
 IR Inten    --     8.1988                28.3860                17.7632
 Raman Activ --     0.0000                 0.0000                 0.0000
 Depolar     --     0.0000                 0.0000                 0.0000
 Atom AN      X      Y      Z        X      Y      Z        X      Y      Z
   1   8     0.00   0.00   0.00    -0.00  -0.00  -0.00     0.00   0.00   0.00
   2   6    -0.00  -0.00   0.00     0.00  -0.00   0.00    -0.00  -0.00   0.00
   3   1     0.00   0.00   0.00    -0.00  -0.00  -0.00     0.00  -0.00  -0.00
   4   1     0.00   0.00  -0.00     0.00   0.00  -0.00     0.00   0.00  -0.00
   5   6     0.00   0.00   0.00    -0.00   0.00  -0.00     0.00   0.00   0.00
   6   1    -0.00  -0.00  -0.00     0.00   0.00   0.00    -0.00  -0.00  -0.00
   7   1    -0.00   0.00  -0.00    -0.00   0.00   0.00     0.00   0.00  -0.00
   8   7    -0.00   0.00  -0.00    -0.00   0.00   0.00     0.00  -0.00  -0.00
   9   6     0.00   0.00   0.00    -0.00   0.00   0.00     0.00   0.00   0.00
  10   1    -0.00  -0.00  -0.00     0.00   0.00   0.00    -0.00  -0.00  -0.00
  11   1     0.00  -0.00   0.00     0.00   0.00  -0.00     0.00  -0.00  -0.00
  12   1     0.00  -0.00   0.00     0.00  -0.00  -0.00    -0.00  -0.00   0.00
  13   6     0.00   0.00   0.00    -0.00  -0.00  -0.00     0.00   0.00   0.00
  14   1    -0.00  -0.00  -0.00     0.00   0.00   0.00    -0.00  -0.00  -0.00
  15   1     0.00   0.00  -0.00     0.00  -0.00  -0.00     0.00   0.00   0.00
  16   1     0.00  -0.00   0.00    -0.00   0.00   0.00     0.00  -0.00  -0.00
  17   6    -0.00  -0.00   0.00    -0.00   0.00   0.00    -0.00   0.00   0.00
  18   1     0.00  -0.00   0.00    -0.00  -0.00  -0.00     0.00  -0.00   0.00
  19   1    -0.00   0.00   0.00     0.00  -0.00  -0.00    -0.00  -0.00   0.00
  20   1     0.00  -0.00  -0.00    -0.00   0.00  -0.00     0.00  -0.00  -0.00
  21   1    -0.00  -0.00  -0.00     0.01   0.01   0.01    -0.00  -0.00  -0.00
  22   6    -0.00   0.00   0.00    -0.00   0.00  -0.00    -0.00   0.00   0.00
  23   8     0.00  -0.00  -0.00     0.00  -0.00  -0.00     0.00  -0.00  -0.00
  24   7     0.00  -0.00  -0.00    -0.18   0.04  -0.05    -0.00   0.00  -0.00
  25   1     0.00   0.00   0.00     0.49   0.38   0.46     0.00   0.00   0.00
  26   1    -0.00   0.00   0.00     0.17  -0.51  -0.28     0.00  -0.00  -0.00
  27   7    -0.00  -0.00  -0.00     0.01  -0.01  -0.00     0.00   0.00   0.00
  28   1    -0.00   0.00   0.00    -0.01   0.02   0.01     0.00  -0.01  -0.01
  29   1     0.00  -0.00   0.00    -0.03   0.01  -0.00    -0.01   0.00  -0.00
  30   6     0.00  -0.00  -0.00     0.00  -0.00  -0.00    -0.00  -0.00  -0.00
  31   8    -0.00   0.00   0.00    -0.00  -0.00   0.00    -0.00   0.00   0.00
  32   7    -0.00   0.00   0.00     0.00  -0.00   0.00    -0.00   0.00  -0.00
  33   1     0.00  -0.00  -0.00    -0.00   0.00   0.00     0.00  -0.00  -0.00
  34   1    -0.00  -0.00  -0.00     0.00  -0.00  -0.00    -0.00   0.00   0.00
  35   7     0.00  -0.00  -0.00     0.00  -0.00  -0.00    -0.00   0.00   0.00
  36   1    -0.00  -0.00   0.00    -0.00  -0.00   0.00     0.00   0.00  -0.00
  37   1    -0.00   0.00  -0.00    -0.00   0.00  -0.00     0.00  -0.00   0.00
  38   6    -0.00  -0.00  -0.00    -0.00   0.00   0.00    -0.00  -0.00  -0.00
  39   8    -0.00  -0.00  -0.00     0.00  -0.00   0.00     0.00   0.00  -0.00
  40   7    -0.00  -0.00  -0.00     0.00   0.00   0.00    -0.07  -0.16  -0.07
  41   1    -0.00   0.00   0.00     0.00  -0.00  -0.00    -0.36   0.32   0.46
  42   1     0.00   0.00  -0.00    -0.01  -0.00   0.00     0.64   0.26  -0.21
  43   7     0.00  -0.02  -0.01     0.00  -0.00  -0.00     0.01   0.01  -0.00
  44   1    -0.03  -0.02   0.02     0.00   0.00  -0.00    -0.02  -0.01   0.01
  45   1     0.02   0.10   0.03    -0.00   0.00   0.00    -0.00  -0.02  -0.01
  46   6    -0.00   0.00  -0.00    -0.00   0.00   0.00     0.00  -0.00  -0.00
  47   8     0.00   0.00   0.00    -0.00  -0.00  -0.00     0.00   0.00   0.00
  48   7    -0.13   0.09  -0.09     0.00  -0.00  -0.00     0.00  -0.00  -0.00
  49   1     0.35  -0.42  -0.35    -0.00   0.00   0.00    -0.01   0.01   0.01
  50   1     0.15   0.06   0.71     0.00   0.00   0.00     0.00  -0.00   0.00
  51   7    -0.00  -0.00  -0.01     0.00  -0.00   0.00     0.00   0.00   0.00
  52   1     0.01   0.02   0.02    -0.00  -0.00  -0.00    -0.00  -0.01  -0.01
  53   1    -0.00  -0.00   0.00    -0.01   0.01  -0.00    -0.00   0.00  -0.00
                    145                    146                    147
                        a                      a                      a 
 Frequencies --  3499.0731              3500.1635              3504.2419
 Red. masses --     2.1413                 1.4380                 1.4618
 Frc consts  --     0.0000                 0.0000                 0.0000
 IR Inten    --     5.1745                38.6119                 7.5935
 Raman Activ --     0.0000                 0.0000                 0.0000
 Depolar     --     0.0000                 0.0000                 0.0000
 Atom AN      X      Y      Z        X      Y      Z        X      Y      Z
   1   8     0.00   0.00   0.00     0.00  -0.00   0.00     0.00   0.00   0.00
   2   6    -0.00  -0.00  -0.00    -0.00   0.00  -0.00     0.00  -0.00   0.00
   3   1    -0.00   0.00   0.00     0.00   0.00  -0.00    -0.00  -0.00  -0.00
   4   1    -0.00  -0.00   0.00     0.00  -0.00   0.00    -0.00  -0.00   0.00
   5   6    -0.00  -0.00  -0.00     0.00   0.00  -0.00     0.00   0.00  -0.00
   6   1     0.00   0.00  -0.00    -0.00   0.00  -0.00    -0.00  -0.00  -0.00
   7   1     0.00   0.00  -0.00    -0.00  -0.00   0.00    -0.00  -0.00   0.00
   8   7     0.00  -0.00   0.00     0.00  -0.00  -0.00     0.00  -0.00  -0.00
   9   6    -0.00  -0.00  -0.00     0.00   0.00  -0.00    -0.00   0.00   0.00
  10   1     0.00  -0.00   0.00     0.00   0.00   0.00    -0.00   0.00  -0.00
  11   1    -0.00  -0.00   0.00    -0.00   0.00   0.00     0.00  -0.00  -0.00
  12   1    -0.00  -0.00  -0.00     0.00  -0.00  -0.00    -0.00   0.00   0.00
  13   6    -0.00  -0.00  -0.00    -0.00   0.00   0.00    -0.00  -0.00   0.00
  14   1     0.00   0.00   0.00     0.00   0.00   0.00     0.00   0.00   0.00
  15   1    -0.00  -0.00  -0.00    -0.00  -0.00   0.00    -0.00  -0.00   0.00
  16   1    -0.00   0.00   0.00    -0.00   0.00  -0.00     0.00   0.00  -0.00
  17   6     0.00   0.00  -0.00     0.00   0.00  -0.00    -0.00   0.00   0.00
  18   1    -0.00  -0.00  -0.00    -0.00  -0.00   0.00    -0.00  -0.00   0.00
  19   1    -0.00   0.00  -0.00     0.00  -0.00  -0.00    -0.00   0.00   0.00
  20   1    -0.00   0.00   0.00    -0.00   0.00   0.00     0.00  -0.00  -0.00
  21   1    -0.00  -0.00  -0.00    -0.00  -0.00  -0.00    -0.00  -0.00  -0.00
  22   6    -0.00   0.00   0.00    -0.00   0.00  -0.00     0.00  -0.00  -0.00
  23   8     0.00  -0.00   0.00     0.00  -0.00   0.00    -0.00   0.00   0.00
  24   7     0.00  -0.00   0.00     0.00  -0.00   0.00     0.00  -0.00   0.00
  25   1    -0.00  -0.00  -0.00    -0.00  -0.00  -0.00    -0.00  -0.00  -0.00
  26   1    -0.00   0.00   0.00    -0.00   0.00   0.00    -0.00   0.00   0.00
  27   7     0.00  -0.00  -0.00     0.00   0.00   0.00    -0.00   0.00   0.00
  28   1    -0.00   0.00   0.00     0.00  -0.00  -0.00     0.00  -0.00  -0.00
  29   1    -0.00   0.00   0.00    -0.00   0.00  -0.00     0.00  -0.00  -0.00
  30   6    -0.00   0.00   0.00     0.00  -0.00   0.00     0.00  -0.00  -0.00
  31   8     0.00   0.00  -0.00     0.00  -0.00  -0.00    -0.00  -0.00   0.01
  32   7    -0.00   0.00  -0.00     0.07  -0.06   0.10    -0.07   0.06  -0.09
  33   1     0.01  -0.00  -0.00    -0.38   0.27   0.16     0.35  -0.25  -0.14
  34   1    -0.00   0.00   0.01     0.11  -0.05  -0.53    -0.09   0.04   0.47
  35   7    -0.00   0.00   0.00     0.10  -0.05  -0.05     0.11  -0.06  -0.05
  36   1     0.00   0.00  -0.01    -0.14  -0.04   0.47    -0.15  -0.04   0.51
  37   1     0.00  -0.00   0.00    -0.23   0.24  -0.29    -0.26   0.27  -0.33
  38   6    -0.00   0.00   0.00    -0.00   0.00   0.00    -0.00  -0.00  -0.00
  39   8    -0.00  -0.00  -0.00     0.00  -0.00  -0.00     0.00   0.00   0.00
  40   7     0.00   0.00   0.00    -0.00  -0.00  -0.00     0.00   0.00   0.00
  41   1     0.00  -0.00  -0.01    -0.00   0.00   0.00     0.00  -0.00  -0.00
  42   1    -0.01  -0.00   0.00     0.00   0.00  -0.00    -0.00  -0.00   0.00
  43   7    -0.00  -0.00   0.00     0.00  -0.00  -0.00    -0.00   0.00   0.00
  44   1     0.01   0.00  -0.00    -0.00  -0.00   0.00     0.00   0.00  -0.00
  45   1     0.00   0.01  -0.00     0.00   0.00   0.00    -0.00  -0.00  -0.00
  46   6     0.00  -0.01  -0.01     0.00  -0.00  -0.00    -0.00  -0.00  -0.00
  47   8    -0.00   0.00   0.00     0.00  -0.00   0.00     0.00   0.00   0.00
  48   7     0.07  -0.13  -0.26     0.00  -0.00  -0.00    -0.00   0.00   0.00
  49   1    -0.40   0.48   0.36    -0.01   0.01   0.01     0.00  -0.00  -0.00
  50   1     0.15   0.02   0.61     0.00   0.00   0.01    -0.00  -0.00  -0.00
  51   7    -0.00  -0.00  -0.00     0.00  -0.00  -0.00     0.00   0.00   0.00
  52   1     0.01   0.01   0.01     0.00   0.00   0.00    -0.00  -0.00  -0.00
  53   1     0.00  -0.00   0.00    -0.00   0.00  -0.00    -0.00  -0.00  -0.00
                    148                    149                    150
                        a                      a                      a 
 Frequencies --  3535.9575              3537.7293              3557.9337
 Red. masses --     1.9395                 1.9725                 2.1734
 Frc consts  --     0.0000                 0.0000                 0.0000
 IR Inten    --    15.7556                20.9245                15.8741
 Raman Activ --     0.0000                 0.0000                 0.0000
 Depolar     --     0.0000                 0.0000                 0.0000
 Atom AN      X      Y      Z        X      Y      Z        X      Y      Z
   1   8    -0.00  -0.00  -0.00     0.00  -0.00  -0.00     0.00   0.00   0.00
   2   6    -0.00   0.00  -0.00    -0.00   0.00   0.00    -0.00   0.00  -0.00
   3   1    -0.00  -0.00  -0.00     0.00  -0.00   0.00     0.00   0.00   0.00
   4   1     0.00  -0.00   0.00     0.00  -0.00  -0.00    -0.00  -0.00   0.00
   5   6     0.00   0.00   0.00     0.00   0.00   0.00    -0.00  -0.00  -0.00
   6   1    -0.00  -0.00  -0.00    -0.00  -0.00  -0.00     0.00  -0.00  -0.00
   7   1    -0.00  -0.00  -0.00    -0.00  -0.00  -0.00     0.00   0.00   0.00
   8   7    -0.00  -0.00  -0.00     0.00  -0.00  -0.00     0.00  -0.00   0.00
   9   6     0.00   0.00   0.00     0.00   0.00   0.00    -0.00  -0.00  -0.00
  10   1    -0.00  -0.00  -0.00    -0.00  -0.00  -0.00     0.00   0.00   0.00
  11   1    -0.00  -0.00  -0.00     0.00   0.00  -0.00    -0.00   0.00   0.00
  12   1     0.00  -0.00   0.00     0.00  -0.00   0.00    -0.00   0.00  -0.00
  13   6     0.00   0.00   0.00     0.00   0.00   0.00    -0.00  -0.00  -0.00
  14   1    -0.00  -0.00  -0.00    -0.00  -0.00  -0.00     0.00   0.00   0.00
  15   1    -0.00  -0.00   0.00     0.00   0.00  -0.00    -0.00  -0.00   0.00
  16   1    -0.00   0.00  -0.00     0.00   0.00  -0.00    -0.00  -0.00   0.00
  17   6    -0.00   0.00  -0.00    -0.00   0.00   0.00     0.00  -0.00  -0.00
  18   1    -0.00  -0.00   0.00    -0.00  -0.00   0.00     0.00   0.00  -0.00
  19   1     0.00  -0.00   0.00     0.00   0.00   0.00    -0.00   0.00   0.00
  20   1     0.00   0.00  -0.00     0.00   0.00  -0.00    -0.00   0.00   0.00
  21   1     0.00   0.00   0.00     0.00   0.00   0.00    -0.00  -0.00  -0.00
  22   6     0.01  -0.01  -0.00    -0.00   0.00   0.00     0.00   0.00   0.00
  23   8    -0.00   0.00   0.00     0.00  -0.00  -0.00    -0.00  -0.00  -0.00
  24   7     0.01   0.03   0.02    -0.00  -0.00  -0.00     0.00   0.01   0.01
  25   1    -0.06  -0.04  -0.05     0.00   0.00   0.00    -0.01  -0.01  -0.01
  26   1     0.02  -0.06  -0.03    -0.00   0.00   0.00     0.01  -0.02  -0.01
  27   7     0.11  -0.21  -0.12    -0.00  -0.00  -0.00     0.00  -0.00  -0.00
  28   1    -0.30   0.75   0.49    -0.00   0.00   0.00    -0.00   0.01   0.01
  29   1    -0.13   0.03  -0.03     0.00  -0.00   0.00    -0.01   0.00  -0.00
  30   6    -0.00   0.00   0.00     0.00   0.00  -0.00    -0.00   0.00   0.00
  31   8     0.00  -0.00  -0.00    -0.00  -0.00   0.00     0.00   0.00  -0.00
  32   7    -0.00   0.00   0.00     0.00  -0.00   0.00    -0.00   0.00   0.00
  33   1     0.00  -0.00  -0.00    -0.00   0.00   0.00     0.00  -0.00  -0.00
  34   1     0.00  -0.00  -0.00     0.00  -0.00  -0.00     0.00  -0.00  -0.00
  35   7     0.00   0.00  -0.00    -0.00   0.00  -0.00    -0.00  -0.00   0.00
  36   1    -0.00  -0.00   0.00    -0.00  -0.00   0.00     0.00   0.00  -0.00
  37   1     0.00  -0.00   0.00     0.00  -0.00   0.00    -0.00   0.00  -0.00
  38   6     0.00   0.00  -0.00    -0.00  -0.01   0.00     0.01  -0.00  -0.01
  39   8    -0.00  -0.00   0.00     0.00   0.00  -0.00    -0.00   0.00   0.00
  40   7    -0.01  -0.00   0.00     0.03  -0.01  -0.03     0.24  -0.02  -0.17
  41   1     0.00  -0.00  -0.00    -0.06   0.06   0.08    -0.35   0.35   0.48
  42   1     0.02   0.01  -0.01    -0.05  -0.02   0.01    -0.57  -0.25   0.16
  43   7    -0.00   0.00   0.00    -0.20  -0.15   0.09     0.03   0.02  -0.01
  44   1     0.00   0.00  -0.00     0.72   0.43  -0.41    -0.10  -0.06   0.06
  45   1    -0.00  -0.00  -0.00     0.03   0.16   0.06    -0.00  -0.03  -0.01
  46   6    -0.00   0.00  -0.00    -0.00   0.00  -0.00     0.00  -0.00  -0.00
  47   8     0.00   0.00   0.00     0.00   0.00   0.00    -0.00   0.00   0.00
  48   7     0.00   0.00   0.00    -0.00   0.00   0.00     0.00  -0.00  -0.00
  49   1     0.00  -0.00  -0.00     0.01  -0.01  -0.01    -0.00   0.00   0.00
  50   1    -0.00  -0.00  -0.00     0.00   0.00   0.00    -0.00  -0.00  -0.00
  51   7     0.00   0.00   0.00     0.00  -0.00  -0.00     0.00   0.00   0.00
  52   1    -0.00  -0.01  -0.01     0.00   0.00   0.00    -0.00  -0.01  -0.00
  53   1    -0.00   0.00   0.00    -0.00   0.00  -0.00    -0.00   0.00  -0.00
                    151                    152                    153
                        a                      a                      a 
 Frequencies --  3561.4265              3564.5220              3570.0078
 Red. masses --     2.1760                 2.1910                 2.1771
 Frc consts  --     0.0000                 0.0000                 0.0000
 IR Inten    --    20.0505                13.1135                11.1931
 Raman Activ --     0.0000                 0.0000                 0.0000
 Depolar     --     0.0000                 0.0000                 0.0000
 Atom AN      X      Y      Z        X      Y      Z        X      Y      Z
   1   8     0.00   0.00   0.00     0.00  -0.00   0.00    -0.00   0.00   0.00
   2   6    -0.00   0.00  -0.00    -0.00   0.00  -0.00     0.00  -0.00   0.00
   3   1     0.00   0.00   0.00     0.00   0.00  -0.00     0.00   0.00   0.00
   4   1    -0.00  -0.00   0.00     0.00  -0.00   0.00    -0.00   0.00   0.00
   5   6     0.00  -0.00  -0.00     0.00   0.00   0.00     0.00   0.00  -0.00
   6   1     0.00  -0.00  -0.00    -0.00   0.00  -0.00    -0.00  -0.00  -0.00
   7   1     0.00   0.00   0.00    -0.00  -0.00  -0.00    -0.00  -0.00   0.00
   8   7     0.00  -0.00   0.00     0.00  -0.00  -0.00     0.00  -0.00  -0.00
   9   6     0.00  -0.00  -0.00     0.00  -0.00  -0.00    -0.00   0.00   0.00
  10   1     0.00  -0.00   0.00    -0.00   0.00  -0.00    -0.00  -0.00   0.00
  11   1    -0.00   0.00   0.00    -0.00   0.00   0.00     0.00  -0.00  -0.00
  12   1    -0.00   0.00   0.00    -0.00   0.00  -0.00     0.00  -0.00   0.00
  13   6     0.00   0.00  -0.00    -0.00  -0.00   0.00    -0.00  -0.00   0.00
  14   1    -0.00  -0.00  -0.00     0.00   0.00   0.00    -0.00   0.00   0.00
  15   1     0.00   0.00  -0.00    -0.00  -0.00   0.00    -0.00  -0.00   0.00
  16   1    -0.00  -0.00   0.00     0.00   0.00  -0.00    -0.00   0.00  -0.00
  17   6     0.00  -0.00  -0.00     0.00  -0.00  -0.00    -0.00   0.00   0.00
  18   1     0.00   0.00   0.00     0.00   0.00  -0.00    -0.00   0.00   0.00
  19   1    -0.00   0.00   0.00    -0.00   0.00  -0.00     0.00  -0.00   0.00
  20   1    -0.00   0.00   0.00    -0.00  -0.00   0.00     0.00   0.00  -0.00
  21   1    -0.01  -0.00  -0.00    -0.00  -0.00  -0.00    -0.00  -0.00  -0.00
  22   6     0.00   0.01   0.01    -0.00   0.00   0.00     0.00  -0.00  -0.00
  23   8    -0.00  -0.00  -0.00     0.00  -0.00   0.00    -0.00   0.00   0.00
  24   7     0.04   0.24   0.18     0.00   0.00   0.00    -0.00  -0.00  -0.00
  25   1    -0.38  -0.27  -0.34    -0.00  -0.00  -0.00     0.00   0.00   0.00
  26   1     0.23  -0.63  -0.33     0.00  -0.00  -0.00    -0.00   0.00   0.00
  27   7    -0.01   0.02   0.01     0.00   0.00   0.00     0.00  -0.00  -0.00
  28   1     0.03  -0.08  -0.06     0.00  -0.00  -0.00    -0.00   0.00   0.00
  29   1     0.02  -0.00   0.00    -0.00   0.00  -0.00    -0.00   0.00  -0.00
  30   6    -0.00   0.00   0.00     0.01  -0.01   0.00    -0.00   0.00   0.01
  31   8     0.00  -0.00  -0.00    -0.00   0.00  -0.00     0.00  -0.00  -0.00
  32   7    -0.00   0.00   0.00     0.12  -0.08  -0.16    -0.12   0.08   0.15
  33   1     0.00  -0.00  -0.00    -0.40   0.28   0.14     0.38  -0.27  -0.14
  34   1     0.00  -0.00  -0.00    -0.07   0.03   0.45     0.07  -0.03  -0.45
  35   7    -0.00   0.00  -0.00     0.03  -0.08   0.19     0.03  -0.08   0.20
  36   1    -0.00  -0.00   0.00     0.14   0.02  -0.42     0.15   0.02  -0.44
  37   1     0.00  -0.00   0.00    -0.28   0.27  -0.31    -0.28   0.27  -0.31
  38   6    -0.00  -0.00   0.00    -0.00   0.00   0.00    -0.00   0.00   0.00
  39   8     0.00   0.00  -0.00     0.00  -0.00  -0.00     0.00   0.00   0.00
  40   7    -0.01   0.00   0.01     0.00  -0.00  -0.00    -0.00  -0.00   0.00
  41   1     0.01  -0.01  -0.02    -0.00   0.00   0.00     0.00  -0.00  -0.00
  42   1     0.02   0.01  -0.00    -0.00   0.00  -0.00     0.00   0.00  -0.00
  43   7    -0.00  -0.00   0.00    -0.00  -0.00   0.00    -0.00  -0.00   0.00
  44   1     0.00   0.00  -0.00     0.00   0.00  -0.00     0.00   0.00  -0.00
  45   1     0.00   0.00   0.00     0.00   0.00   0.00    -0.00   0.00   0.00
  46   6     0.00  -0.00  -0.00    -0.00   0.00   0.00    -0.00  -0.00  -0.00
  47   8     0.00   0.00   0.00     0.00  -0.00  -0.00     0.00   0.00   0.00
  48   7    -0.00  -0.00  -0.00     0.00  -0.00  -0.00     0.00  -0.00  -0.00
  49   1    -0.00   0.00   0.00    -0.00   0.00   0.00    -0.00   0.00   0.00
  50   1     0.00   0.00   0.00     0.00   0.00   0.00     0.00   0.00   0.00
  51   7    -0.00   0.00  -0.00     0.00  -0.00  -0.00     0.00  -0.00   0.00
  52   1     0.00   0.00   0.00     0.00   0.00   0.00     0.00   0.00   0.00
  53   1     0.01  -0.00   0.00    -0.00   0.00  -0.00    -0.00  -0.00  -0.00
