      -----------------------------------------------------------      
     |                   =====================                   |     
     |                           x T B                           |     
     |                   =====================                   |     
     |                         S. Grimme                         |     
     |          Mulliken Center for Theoretical Chemistry        |     
     |                    University of Bonn                     |     
      -----------------------------------------------------------      

   * xtb version 6.6.1 (unknown-commit) compiled by '@Linux' on 12/27/2023

   xtb is free software: you can redistribute it and/or modify it under
   the terms of the GNU Lesser General Public License as published by
   the Free Software Foundation, either version 3 of the License, or
   (at your option) any later version.
   
   xtb is distributed in the hope that it will be useful,
   but WITHOUT ANY WARRANTY; without even the implied warranty of
   MERCHANTABILITY or FITNESS FOR A PARTICULAR PURPOSE.  See the
   GNU Lesser General Public License for more details.
   
   Cite this work as:
   * C. Bannwarth, E. Caldeweyher, S. Ehlert, A. Hansen, P. Pracht,
     J. Seibert, S. Spicher, S. Grimme, WIREs Comput. Mol. Sci., 2020, 11,
     e01493. DOI: 10.1002/wcms.1493
   
   for GFN2-xTB:
   * C. Bannwarth, S. Ehlert and S. Grimme., J. Chem. Theory Comput., 2019,
     15, 1652-1671. DOI: 10.1021/acs.jctc.8b01176
   for GFN1-xTB:
   * S. Grimme, C. Bannwarth, P. Shushkov, J. Chem. Theory Comput., 2017,
     13, 1989-2009. DOI: 10.1021/acs.jctc.7b00118
   for GFN0-xTB:
   * P. Pracht, E. Caldeweyher, S. Ehlert, S. Grimme, ChemRxiv, 2019, preprint.
     DOI: 10.26434/chemrxiv.8326202.v1
   for GFN-FF:
   * S. Spicher and S. Grimme, Angew. Chem. Int. Ed., 2020, 59, 15665-15673.
     DOI: 10.1002/anie.202004239
   
   for ALPB and GBSA implicit solvation:
   * S. Ehlert, M. Stahn, S. Spicher, S. Grimme, J. Chem. Theory Comput.,
     2021, 17, 4250-4261. DOI: 10.1021/acs.jctc.1c00471
   
   for DFT-D4:
   * E. Caldeweyher, C. Bannwarth and S. Grimme, J. Chem. Phys., 2017,
     147, 034112. DOI: 10.1063/1.4993215
   * E. Caldeweyher, S. Ehlert, A. Hansen, H. Neugebauer, S. Spicher,
     C. Bannwarth and S. Grimme, J. Chem. Phys., 2019, 150, 154122.
     DOI: 10.1063/1.5090222
   * E. Caldeweyher, J.-M. Mewes, S. Ehlert and S. Grimme, Phys. Chem. Chem. Phys.
     2020, 22, 8499-8512. DOI: 10.1039/D0CP00502A
   
   for sTDA-xTB:
   * S. Grimme and C. Bannwarth, J. Chem. Phys., 2016, 145, 054103.
     DOI: 10.1063/1.4959605
   
   in the mass-spec context:
   * V. Asgeirsson, C. Bauer and S. Grimme, Chem. Sci., 2017, 8, 4879.
     DOI: 10.1039/c7sc00601b
   * J. Koopman and S. Grimme, ACS Omega 2019, 4, 12, 15120-15133.
     DOI: 10.1021/acsomega.9b02011
   
   for metadynamics refer to:
   * S. Grimme, J. Chem. Theory Comput., 2019, 155, 2847-2862
     DOI: 10.1021/acs.jctc.9b00143
   
   for SPH calculations refer to:
   * S. Spicher and S. Grimme, J. Chem. Theory Comput., 2021, 17, 1701-1714
     DOI: 10.1021/acs.jctc.0c01306
   
   with help from (in alphabetical order)
   P. Atkinson, C. Bannwarth, F. Bohle, G. Brandenburg, E. Caldeweyher
   M. Checinski, S. Dohm, S. Ehlert, S. Ehrlich, I. Gerasimov, C. Hölzer
   A. Katbashev, J. Koopman, C. Lavigne, S. Lehtola, F. März, M. Müller,
   F. Musil, H. Neugebauer, J. Pisarek, C. Plett, P. Pracht, F. Pultar,
   J. Seibert, P. Shushkov, S. Spicher, M. Stahn, M. Steiner, T. Strunk,
   J. Stückrath, T. Rose, and J. Unsleber
   
 * started run on 2024/01/10 at 18:29:10.149     

           -------------------------------------------------
          |                Calculation Setup                |
           -------------------------------------------------

          program call               : xtb struc.xyz --gfn2 --hess
          hostname                   : swaroop
          coordinate file            : struc.xyz
          omp threads                :                     1

   ID    Z sym.   atoms
    1    8 O      1, 23, 31, 39, 47
    2    6 C      2, 5, 9, 13, 17, 22, 30, 38, 46
    3    1 H      3, 4, 6, 7, 10-12, 14-16, 18-21, 25, 26, 28, 29, 33, 34,
                  36, 37, 41, 42, 44, 45, 49, 50, 52, 53
    4    7 N      8, 24, 27, 32, 35, 40, 43, 48, 51

molecular fragmentation (1/2 indicates fragments):
11111111111111111111122222222222222222222222222222222
# atoms in fragment 1/2:    21    32
 fragment masses (1/2) :      104.17      240.22
CMA distance (Bohr)    :   5.697
constraining FC (au)   :  0.0500

           -------------------------------------------------
          |                 G F N 2 - x T B                 |
           -------------------------------------------------

        Reference                      10.1021/acs.jctc.8b01176
      * Hamiltonian:
        H0-scaling (s, p, d)           1.850000    2.230000    2.230000
        zeta-weighting                 0.500000
      * Dispersion:
        s8                             2.700000
        a1                             0.520000
        a2                             5.000000
        s9                             5.000000
      * Repulsion:
        kExp                           1.500000    1.000000
        rExp                           1.000000
      * Coulomb:
        alpha                          2.000000
        third order                    shell-resolved
        anisotropic                    true
        a3                             3.000000
        a5                             4.000000
        cn-shift                       1.200000
        cn-exp                         4.000000
        max-rad                        5.000000


          ...................................................
          :                      SETUP                      :
          :.................................................:
          :  # basis functions                 122          :
          :  # atomic orbitals                 122          :
          :  # shells                           76          :
          :  # electrons                       140          :
          :  max. iterations                   250          :
          :  Hamiltonian                  GFN2-xTB          :
          :  restarted?                      false          :
          :  GBSA solvation                  false          :
          :  PC potential                    false          :
          :  electronic temp.          300.0000000     K    :
          :  accuracy                    1.0000000          :
          :  -> integral cutoff          0.2500000E+02      :
          :  -> integral neglect         0.1000000E-07      :
          :  -> SCF convergence          0.1000000E-05 Eh   :
          :  -> wf. convergence          0.1000000E-03 e    :
          :  Broyden damping             0.4000000          :
          ...................................................

 iter      E             dE          RMSdq      gap      omega  full diag
   1    -81.5476929 -0.815477E+02  0.426E+00    5.18       0.0  T
   2    -81.8363552 -0.288662E+00  0.229E+00    5.83       1.0  T
   3    -81.8423280 -0.597275E-02  0.113E+00    5.62       1.0  T
   4    -81.8437298 -0.140179E-02  0.245E-01    5.73       1.0  T
   5    -81.8446600 -0.930207E-03  0.910E-02    5.65       1.0  T
   6    -81.8446840 -0.240626E-04  0.266E-02    5.66       1.0  T
   7    -81.8446886 -0.455569E-05  0.746E-03    5.66       1.8  T
   8    -81.8446889 -0.278821E-06  0.280E-03    5.66       4.9  T
   9    -81.8446889 -0.196855E-07  0.100E-03    5.66      13.7  T
  10    -81.8446889 -0.522728E-08  0.171E-04    5.66      80.5  T
  11    -81.8446889 -0.288964E-09  0.835E-05    5.66     164.5  T

   *** convergence criteria satisfied after 11 iterations ***

         #    Occupation            Energy/Eh            Energy/eV
      -------------------------------------------------------------
         1        2.0000           -0.7959266             -21.6583
       ...           ...                  ...                  ...
        64        2.0000           -0.4928389             -13.4108
        65        2.0000           -0.4889378             -13.3047
        66        2.0000           -0.4888002             -13.3009
        67        2.0000           -0.4875912             -13.2680
        68        2.0000           -0.4854645             -13.2102
        69        2.0000           -0.4829698             -13.1423
        70        2.0000           -0.4826347             -13.1332 (HOMO)
        71                         -0.2747947              -7.4775 (LUMO)
        72                         -0.2609196              -7.1000
        73                         -0.2596820              -7.0663
        74                         -0.2545599              -6.9269
        75                         -0.1513148              -4.1175
       ...                                ...                  ...
       122                          0.5667047              15.4208
      -------------------------------------------------------------
                  HL-Gap            0.2078400 Eh            5.6556 eV
             Fermi-level           -0.3787147 Eh          -10.3054 eV

 SCC (total)                   0 d,  0 h,  0 min,  0.102 sec
 SCC setup                      ...        0 min,  0.000 sec (  0.284%)
 Dispersion                     ...        0 min,  0.001 sec (  0.574%)
 classical contributions        ...        0 min,  0.000 sec (  0.181%)
 integral evaluation            ...        0 min,  0.008 sec (  7.768%)
 iterations                     ...        0 min,  0.065 sec ( 63.535%)
 molecular gradient             ...        0 min,  0.028 sec ( 27.399%)
 printout                       ...        0 min,  0.000 sec (  0.249%)

         :::::::::::::::::::::::::::::::::::::::::::::::::::::
         ::                     SUMMARY                     ::
         :::::::::::::::::::::::::::::::::::::::::::::::::::::
         :: total energy             -80.931553069464 Eh    ::
         :: gradient norm              0.000049887404 Eh/a0 ::
         :: HOMO-LUMO gap              5.655615061474 eV    ::
         ::.................................................::
         :: SCC energy               -81.844688894751 Eh    ::
         :: -> isotropic ES            0.293716980393 Eh    ::
         :: -> anisotropic ES         -0.028215762656 Eh    ::
         :: -> anisotropic XC          0.020399448470 Eh    ::
         :: -> dispersion             -0.043139894835 Eh    ::
         :: repulsion energy           0.911606384445 Eh    ::
         :: add. restraining           0.000000000000 Eh    ::
         :: total charge               1.000000000000 e     ::
         :::::::::::::::::::::::::::::::::::::::::::::::::::::

           ------------------------------------------------- 
          |                Numerical Hessian                |
           ------------------------------------------------- 
step length          :   0.00500
SCC accuracy         :   0.30000
Hessian scale factor :   1.00000
frozen atoms in %    :   0.00000    0
RMS gradient         :   0.00005
estimated CPU  time      0.24 min
estimated wall time      0.24 min

writing file <hessian>.

 projected vibrational frequencies (cm⁻¹)
eigval :       -0.00    -0.00    -0.00     0.00     0.00     0.00
eigval :        7.27    13.49    15.54    17.44    21.48    26.57
eigval :       29.33    29.72    48.25    49.04    57.92    61.50
eigval :       66.92    73.11    74.22    90.67    99.77   103.19
eigval :      108.60   115.51   156.43   169.56   180.19   184.75
eigval :      194.13   195.59   205.88   249.64   266.86   295.98
eigval :      313.32   315.03   337.19   343.67   366.64   372.73
eigval :      385.91   395.91   415.50   430.66   446.46   450.19
eigval :      455.28   456.41   462.66   468.73   475.45   477.39
eigval :      478.88   483.18   503.94   505.16   531.17   558.20
eigval :      559.76   568.64   572.38   657.50   668.98   673.48
eigval :      674.60   700.83   741.26   766.00   785.94   857.36
eigval :      912.07   927.94   946.27   965.48   972.08   978.48
eigval :      995.09  1000.12  1012.54  1015.93  1016.22  1023.45
eigval :     1027.08  1037.99  1039.43  1080.91  1087.64  1088.51
eigval :     1093.75  1095.08  1108.27  1129.52  1170.42  1230.85
eigval :     1248.60  1273.56  1317.78  1331.95  1348.91  1353.47
eigval :     1354.75  1356.51  1391.48  1401.99  1402.38  1410.47
eigval :     1416.76  1435.08  1443.26  1447.96  1452.93  1453.55
eigval :     1457.04  1457.64  1465.47  1467.19  1474.39  1479.78
eigval :     1495.20  1497.65  1504.64  1510.28  1514.28  1658.96
eigval :     1688.14  1714.57  1726.34  2875.77  2970.80  2992.85
eigval :     3009.49  3013.22  3035.88  3038.52  3039.19  3043.40
eigval :     3044.82  3048.84  3049.65  3055.22  3062.34  3109.56
eigval :     3181.06  3312.64  3490.08  3493.85  3496.63  3498.94
eigval :     3503.41  3529.96  3531.80  3537.42  3551.26  3558.45
eigval :     3562.81  3563.72  3568.71
           -------------------------------------------------
          |                Property Printout                |
           -------------------------------------------------

    * Orbital Energies and Occupations

         #    Occupation            Energy/Eh            Energy/eV
      -------------------------------------------------------------
         1        2.0000           -0.7959266             -21.6583
       ...           ...                  ...                  ...
        58        2.0000           -0.5122932             -13.9402
        59        2.0000           -0.5089435             -13.8491
        60        2.0000           -0.5043678             -13.7245
        61        2.0000           -0.5000899             -13.6081
        62        2.0000           -0.4966303             -13.5140
        63        2.0000           -0.4933076             -13.4236
        64        2.0000           -0.4928393             -13.4108
        65        2.0000           -0.4889370             -13.3047
        66        2.0000           -0.4888003             -13.3009
        67        2.0000           -0.4875915             -13.2680
        68        2.0000           -0.4854649             -13.2102
        69        2.0000           -0.4829702             -13.1423
        70        2.0000           -0.4826351             -13.1332 (HOMO)
        71                         -0.2747952              -7.4776 (LUMO)
        72                         -0.2609195              -7.1000
        73                         -0.2596821              -7.0663
        74                         -0.2545605              -6.9269
        75                         -0.1513147              -4.1175
        76                         -0.1037766              -2.8239
        77                         -0.0973836              -2.6499
        78                         -0.0851278              -2.3164
        79                         -0.0758433              -2.0638
        80                         -0.0733112              -1.9949
        81                         -0.0642751              -1.7490
       ...                                ...                  ...
       122                          0.5667046              15.4208
      -------------------------------------------------------------
                  HL-Gap            0.2078399 Eh            5.6556 eV
             Fermi-level           -0.3787151 Eh          -10.3054 eV

     #   Z          covCN         q      C6AA      α(0)
     1   8 O        1.652    -0.483    22.539     6.409
     2   6 C        3.673     0.077    19.514     6.331
     3   1 H        0.924     0.050     2.326     2.385
     4   1 H        0.923     0.040     2.446     2.446
     5   6 C        3.767    -0.076    21.982     6.682
     6   1 H        0.924     0.121     1.609     1.984
     7   1 H        0.924     0.103     1.754     2.071
     8   7 N        3.623     0.159    18.558     6.398
     9   6 C        3.722    -0.109    22.698     6.804
    10   1 H        0.925     0.117     1.640     2.003
    11   1 H        0.925     0.074     2.041     2.234
    12   1 H        0.925     0.115     1.655     2.012
    13   6 C        3.735    -0.122    22.928     6.834
    14   1 H        0.925     0.127     1.561     1.954
    15   1 H        0.925     0.113     1.673     2.023
    16   1 H        0.925     0.079     1.991     2.207
    17   6 C        3.723    -0.103    22.590     6.787
    18   1 H        0.925     0.094     1.841     2.122
    19   1 H        0.925     0.082     1.960     2.190
    20   1 H        0.925     0.115     1.653     2.010
    21   1 H        0.801     0.338     0.618     1.235
    22   6 C        2.675     0.341    21.205     7.535
    23   8 O        0.861    -0.521    24.264     6.604
    24   7 N        2.644    -0.301    27.763     7.825
    25   1 H        0.860     0.243     0.913     1.497
    26   1 H        0.860     0.179     1.219     1.729
    27   7 N        2.645    -0.297    27.649     7.809
    28   1 H        0.861     0.182     1.201     1.716
    29   1 H        0.860     0.202     1.094     1.639
    30   6 C        2.675     0.345    21.147     7.525
    31   8 O        0.861    -0.515    24.126     6.585
    32   7 N        2.644    -0.293    27.567     7.798
    33   1 H        0.860     0.200     1.104     1.646
    34   1 H        0.861     0.179     1.219     1.729
    35   7 N        2.643    -0.308    27.922     7.848
    36   1 H        0.861     0.173     1.253     1.753
    37   1 H        0.859     0.249     0.886     1.475
    38   6 C        2.675     0.345    21.139     7.524
    39   8 O        0.860    -0.531    24.472     6.633
    40   7 N        2.644    -0.300    27.719     7.819
    41   1 H        0.859     0.251     0.878     1.468
    42   1 H        0.861     0.179     1.217     1.728
    43   7 N        2.645    -0.301    27.758     7.825
    44   1 H        0.860     0.181     1.210     1.723
    45   1 H        0.860     0.191     1.156     1.684
    46   6 C        2.675     0.345    21.139     7.524
    47   8 O        0.860    -0.524    24.311     6.611
    48   7 N        2.646    -0.290    27.467     7.784
    49   1 H        0.860     0.199     1.110     1.650
    50   1 H        0.861     0.187     1.173     1.697
    51   7 N        2.646    -0.289    27.464     7.783
    52   1 H        0.861     0.187     1.174     1.697
    53   1 H        0.860     0.200     1.106     1.647

 Mol. C6AA /au·bohr⁶  :      21805.732828
 Mol. C8AA /au·bohr⁸  :     454369.765059
 Mol. α(0) /au        :        220.631271


Wiberg/Mayer (AO) data.
largest (>0.10) Wiberg bond orders for each atom

 ---------------------------------------------------------------------------
     #   Z sym  total        # sym  WBO       # sym  WBO       # sym  WBO
 ---------------------------------------------------------------------------
     1   8 O    1.940 --     2 C    1.026    21 H    0.794
     2   6 C    3.969 --     1 O    1.026     5 C    0.993     3 H    0.967
                             4 H    0.961
     3   1 H    0.997 --     2 C    0.967
     4   1 H    0.998 --     2 C    0.961
     5   6 C    3.924 --     2 C    0.993     7 H    0.958     6 H    0.955
                             8 N    0.931
     6   1 H    0.985 --     5 C    0.955
     7   1 H    0.989 --     5 C    0.958
     8   7 N    3.823 --    17 C    0.963     9 C    0.958    13 C    0.954
                             5 C    0.931
     9   6 C    3.923 --    11 H    0.979    10 H    0.965    12 H    0.964
                             8 N    0.958
    10   1 H    0.986 --     9 C    0.965
    11   1 H    0.994 --     9 C    0.979
    12   1 H    0.987 --     9 C    0.964
    13   6 C    3.917 --    16 H    0.978    15 H    0.966    14 H    0.958
                             8 N    0.954
    14   1 H    0.984 --    13 C    0.958
    15   1 H    0.987 --    13 C    0.966
    16   1 H    0.993 --    13 C    0.978
    17   6 C    3.933 --    19 H    0.978    18 H    0.974    20 H    0.965
                             8 N    0.963
    18   1 H    0.991 --    17 C    0.974
    19   1 H    0.993 --    17 C    0.978
    20   1 H    0.987 --    17 C    0.965
    21   1 H    0.886 --     1 O    0.794
    22   6 C    3.960 --    23 O    1.503    24 N    1.248    27 N    1.202
    23   8 O    1.924 --    22 C    1.503    24 N    0.141    27 N    0.137
    24   7 N    3.336 --    22 C    1.248    26 H    0.948    25 H    0.880
                            23 O    0.141
    25   1 H    0.941 --    24 N    0.880
    26   1 H    0.967 --    24 N    0.948
    27   7 N    3.316 --    22 C    1.202    28 H    0.948    29 H    0.940
                            23 O    0.137
    28   1 H    0.967 --    27 N    0.948
    29   1 H    0.959 --    27 N    0.940
    30   6 C    3.959 --    31 O    1.484    35 N    1.265    32 N    1.197
    31   8 O    1.936 --    30 C    1.484    35 N    0.144    32 N    0.125
    32   7 N    3.309 --    30 C    1.197    34 H    0.949    33 H    0.943
                            31 O    0.125
    33   1 H    0.960 --    32 N    0.943
    34   1 H    0.967 --    32 N    0.949
    35   7 N    3.347 --    30 C    1.265    36 H    0.950    37 H    0.857
                            31 O    0.144
    36   1 H    0.970 --    35 N    0.950
    37   1 H    0.938 --    35 N    0.857
    38   6 C    3.959 --    39 O    1.485    40 N    1.284    43 N    1.181
    39   8 O    1.913 --    38 C    1.485    40 N    0.148    43 N    0.123
    40   7 N    3.360 --    38 C    1.284    42 H    0.948    41 H    0.856
                            39 O    0.148
    41   1 H    0.937 --    40 N    0.856
    42   1 H    0.968 --    40 N    0.948
    43   7 N    3.290 --    38 C    1.181    44 H    0.948    45 H    0.946
                            39 O    0.123
    44   1 H    0.967 --    43 N    0.948
    45   1 H    0.963 --    43 N    0.946
    46   6 C    3.959 --    47 O    1.537    48 N    1.208    51 N    1.207
    47   8 O    1.893 --    46 C    1.537    48 N    0.144    51 N    0.143
    48   7 N    3.324 --    46 C    1.208    50 H    0.946    49 H    0.943
                            47 O    0.144
    49   1 H    0.960 --    48 N    0.943
    50   1 H    0.965 --    48 N    0.946
    51   7 N    3.322 --    46 C    1.207    52 H    0.946    53 H    0.943
                            47 O    0.143
    52   1 H    0.965 --    51 N    0.946
    53   1 H    0.960 --    51 N    0.943
 ---------------------------------------------------------------------------

Topologies differ in total number of bonds
Writing topology from bond orders to xtbtopo.mol

molecular dipole:
                 x           y           z       tot (Debye)
 q only:       -2.061      -0.533       0.385
   full:       -2.085      -0.026       0.500       5.451
molecular quadrupole (traceless):
                xx          xy          yy          xz          yz          zz
 q only:       37.179      -3.992     -23.721     -23.599      15.985     -13.458
  q+dip:       43.488      -5.871     -29.978     -27.608      20.060     -13.511
   full:       43.414      -6.406     -29.935     -27.653      19.822     -13.479

           -------------------------------------------------
          |               Frequency Printout                |
           -------------------------------------------------
 projected vibrational frequencies (cm⁻¹)
eigval :       -0.00    -0.00    -0.00     0.00     0.00     0.00
eigval :        7.27    13.49    15.54    17.44    21.48    26.57
eigval :       29.33    29.72    48.25    49.04    57.92    61.50
eigval :       66.92    73.11    74.22    90.67    99.77   103.19
eigval :      108.60   115.51   156.43   169.56   180.19   184.75
eigval :      194.13   195.59   205.88   249.64   266.86   295.98
eigval :      313.32   315.03   337.19   343.67   366.64   372.73
eigval :      385.91   395.91   415.50   430.66   446.46   450.19
eigval :      455.28   456.41   462.66   468.73   475.45   477.39
eigval :      478.88   483.18   503.94   505.16   531.17   558.20
eigval :      559.76   568.64   572.38   657.50   668.98   673.48
eigval :      674.60   700.83   741.26   766.00   785.94   857.36
eigval :      912.07   927.94   946.27   965.48   972.08   978.48
eigval :      995.09  1000.12  1012.54  1015.93  1016.22  1023.45
eigval :     1027.08  1037.99  1039.43  1080.91  1087.64  1088.51
eigval :     1093.75  1095.08  1108.27  1129.52  1170.42  1230.85
eigval :     1248.60  1273.56  1317.78  1331.95  1348.91  1353.47
eigval :     1354.75  1356.51  1391.48  1401.99  1402.38  1410.47
eigval :     1416.76  1435.08  1443.26  1447.96  1452.93  1453.55
eigval :     1457.04  1457.64  1465.47  1467.19  1474.39  1479.78
eigval :     1495.20  1497.65  1504.64  1510.28  1514.28  1658.96
eigval :     1688.14  1714.57  1726.34  2875.77  2970.80  2992.85
eigval :     3009.49  3013.22  3035.88  3038.52  3039.19  3043.40
eigval :     3044.82  3048.84  3049.65  3055.22  3062.34  3109.56
eigval :     3181.06  3312.64  3490.08  3493.85  3496.63  3498.94
eigval :     3503.41  3529.96  3531.80  3537.42  3551.26  3558.45
eigval :     3562.81  3563.72  3568.71
 reduced masses (amu)
   1: 12.40   2: 12.89   3: 12.39   4: 12.31   5: 12.71   6: 12.64   7: 12.33   8: 11.51
   9: 11.77  10: 12.56  11: 12.16  12: 12.60  13: 11.87  14: 12.02  15: 12.64  16: 12.95
  17: 13.17  18: 13.10  19: 12.42  20: 12.86  21: 12.86  22: 11.82  23: 13.14  24: 11.58
  25: 11.52  26: 11.21  27: 13.03  28: 13.39  29: 13.04  30: 11.80  31:  5.91  32:  6.86
  33:  3.78  34: 11.75  35:  5.20  36:  2.17  37:  6.34  38:  6.08  39:  3.57  40:  5.16
  41:  4.30  42:  5.88  43:  4.07  44:  2.44  45:  2.85  46:  8.83  47:  1.66  48:  2.46
  49:  4.54  50:  7.65  51:  8.27  52:  6.88  53:  7.57  54:  6.10  55:  4.93  56:  3.58
  57:  8.07  58:  4.53  59:  9.27  60: 11.08  61: 11.04  62: 11.28  63: 10.05  64:  7.81
  65: 11.15  66: 11.71  67: 11.97  68:  6.11  69:  2.05  70:  9.28  71:  1.88  72:  2.07
  73:  6.61  74:  8.65  75:  5.24  76:  4.88  77:  4.64  78:  4.67  79:  8.75  80:  7.47
  81:  9.14  82:  8.70  83:  8.26  84:  9.56  85:  7.47  86:  3.58  87:  5.05  88:  9.71
  89:  8.73  90:  8.53  91:  7.15  92:  7.94  93:  4.24  94:  8.59  95:  2.78  96:  5.69
  97:  6.69  98:  8.15  99:  5.91 100:  3.55 101:  4.94 102:  5.51 103:  5.25 104:  5.00
 105:  5.05 106:  2.59 107:  2.78 108:  3.01 109:  2.15 110:  2.22 111:  1.94 112:  2.93
 113:  3.01 114:  1.94 115:  2.91 116:  2.29 117:  2.84 118:  1.78 119:  1.77 120:  1.72
 121:  1.77 122:  8.16 123:  8.56 124:  8.81 125:  8.75 126: 12.50 127: 12.61 128: 12.73
 129: 12.78 130:  1.76 131:  1.67 132:  1.70 133:  1.78 134:  1.97 135:  1.64 136:  1.58
 137:  1.77 138:  1.58 139:  1.89 140:  1.64 141:  1.89 142:  1.86 143:  1.72 144:  1.84
 145:  1.80 146:  1.73 147:  1.46 148:  1.45 149:  1.45 150:  1.44 151:  1.46 152:  1.93
 153:  1.89 154:  1.90 155:  2.16 156:  2.17 157:  2.19 158:  2.18 159:  2.18
 IR intensities (km·mol⁻¹)
   1:  1.57   2:  0.68   3:  1.61   4:  1.60   5:  1.74   6:  2.10   7:  0.55   8:  0.06
   9:  0.44  10:  0.03  11:  0.80  12:  5.17  13:  4.97  14:  2.24  15:  4.31  16:  2.09
  17:  2.09  18:  5.43  19:  1.82  20:  5.64  21:  5.56  22:  0.67  23:  7.10  24:  7.40
  25:  5.96  26: 15.44  27:  3.78  28: 12.06  29: 24.08  30: 34.00  31:  3.30  32: 20.36
  33:150.97  34: 31.96  35:  7.60  36: 46.49  37:  2.00  38:  9.95  39:415.33  40:106.71
  41:  3.66  42:  1.03  43:111.31  44: 77.96  45:328.28  46:  1.89  47:  7.86  48:  9.85
  49:261.79  50: 59.01  51:  1.13  52: 33.04  53: 16.65  54: 21.30  55: 81.36  56:  2.90
  57: 48.51  58: 52.57  59: 40.74  60: 16.85  61:  2.00  62: 42.18  63: 50.98  64: 29.11
  65: 16.14  66: 20.45  67: 41.17  68:155.36  69:165.57  70:  3.11  71:321.96  72:213.50
  73:  4.19  74:  3.09  75:  1.86  76:  1.93  77:  3.09  78:  0.63  79:  0.32  80: 22.70
  81: 16.25  82: 15.46  83: 20.05  84:  2.56  85: 21.32  86:  4.48  87:  9.01  88:  2.23
  89:  0.24  90:  0.35  91: 21.00  92:  8.87  93: 15.56  94: 42.03  95:  8.93  96:  9.69
  97:  4.65  98:  2.73  99:  9.93 100:  4.54 101: 25.24 102:182.42 103: 49.07 104:110.81
 105:  2.11 106: 19.24 107:  5.76 108:117.32 109: 13.79 110:  6.55 111:  3.57 112: 10.26
 113: 11.50 114:  6.73 115:  3.09 116: 11.63 117:  1.74 118: 14.82 119:  7.43 120: 77.03
 121:  9.41 122:441.78 123:402.24 124:627.94 125:450.79 126: 48.95 127:245.57 128:******
 129:148.52 130: 35.00 131:247.69 132:180.11 133:377.59 134:332.52 135: 17.34 136:  8.33
 137:  1.80 138: 26.70 139: 14.92 140: 34.93 141:  5.91 142: 96.80 143:  1.30 144: 24.72
 145:****** 146:844.80 147:  9.69 148: 16.12 149: 21.61 150: 38.39 151:  9.77 152: 16.48
 153: 15.71 154:  9.79 155:  7.71 156: 12.66 157: 13.58 158: 15.24 159: 12.31
 Raman intensities (amu)
Molecule has no symmetry elements
It seems to be the C1 point group
   1:  0.00   2:  0.00   3:  0.00   4:  0.00   5:  0.00   6:  0.00   7:  0.00   8:  0.00
   9:  0.00  10:  0.00  11:  0.00  12:  0.00  13:  0.00  14:  0.00  15:  0.00  16:  0.00
  17:  0.00  18:  0.00  19:  0.00  20:  0.00  21:  0.00  22:  0.00  23:  0.00  24:  0.00
  25:  0.00  26:  0.00  27:  0.00  28:  0.00  29:  0.00  30:  0.00  31:  0.00  32:  0.00
  33:  0.00  34:  0.00  35:  0.00  36:  0.00  37:  0.00  38:  0.00  39:  0.00  40:  0.00
  41:  0.00  42:  0.00  43:  0.00  44:  0.00  45:  0.00  46:  0.00  47:  0.00  48:  0.00
  49:  0.00  50:  0.00  51:  0.00  52:  0.00  53:  0.00  54:  0.00  55:  0.00  56:  0.00
  57:  0.00  58:  0.00  59:  0.00  60:  0.00  61:  0.00  62:  0.00  63:  0.00  64:  0.00
  65:  0.00  66:  0.00  67:  0.00  68:  0.00  69:  0.00  70:  0.00  71:  0.00  72:  0.00
  73:  0.00  74:  0.00  75:  0.00  76:  0.00  77:  0.00  78:  0.00  79:  0.00  80:  0.00
  81:  0.00  82:  0.00  83:  0.00  84:  0.00  85:  0.00  86:  0.00  87:  0.00  88:  0.00
  89:  0.00  90:  0.00  91:  0.00  92:  0.00  93:  0.00  94:  0.00  95:  0.00  96:  0.00
  97:  0.00  98:  0.00  99:  0.00 100:  0.00 101:  0.00 102:  0.00 103:  0.00 104:  0.00
 105:  0.00 106:  0.00 107:  0.00 108:  0.00 109:  0.00 110:  0.00 111:  0.00 112:  0.00
 113:  0.00 114:  0.00 115:  0.00 116:  0.00 117:  0.00 118:  0.00 119:  0.00 120:  0.00
 121:  0.00 122:  0.00 123:  0.00 124:  0.00 125:  0.00 126:  0.00 127:  0.00 128:  0.00
 129:  0.00 130:  0.00 131:  0.00 132:  0.00 133:  0.00 134:  0.00 135:  0.00 136:  0.00
 137:  0.00 138:  0.00 139:  0.00 140:  0.00 141:  0.00 142:  0.00 143:  0.00 144:  0.00
 145:  0.00 146:  0.00 147:  0.00 148:  0.00 149:  0.00 150:  0.00 151:  0.00 152:  0.00
 153:  0.00 154:  0.00 155:  0.00 156:  0.00 157:  0.00 158:  0.00 159:  0.00
 output can be read by thermo (or use thermo option).
 writing <g98.out> molden fake output.
 recommended (thermochemical) frequency scaling factor: 1.0
           -------------------------------------------------
          |             Thermodynamic Functions             |
           -------------------------------------------------

c1  symmetry found (for desy threshold:  0.10E+00) used in thermo

          ...................................................
          :                      SETUP                      :
          :.................................................:
          :  # frequencies                         153      :
          :  # imaginary freq.                       0      :
          :  linear?                             false      :
          :  only rotor calc.                    false      :
          :  symmetry                               c1      :
          :  rotational number                       1      :
          :  scaling factor                  1.0000000      :
          :  rotor cutoff                   50.0000000 cm⁻¹ :
          :  imag. cutoff                  -20.0000000 cm⁻¹ :
          :.................................................:

    mode    ω/cm⁻¹     T·S(HO)/kcal·mol⁻¹    T·S(FR)/kcal·mol⁻¹   T·S(vib)
   ------------------------------------------------------------------------
       1      7.27    -2.57755 (  0.04%)    -1.62767 ( 99.96%)    -1.62809
       2     13.49    -2.21136 (  0.53%)    -1.44463 ( 99.47%)    -1.44867
       3     15.54    -2.12730 (  0.92%)    -1.40260 ( 99.08%)    -1.40931
       4     17.44    -2.05924 (  1.46%)    -1.36856 ( 98.54%)    -1.37863
       5     21.48    -1.93574 (  3.29%)    -1.30679 ( 96.71%)    -1.32750
       6     26.57    -1.80983 (  7.39%)    -1.24377 ( 92.61%)    -1.28559
       7     29.33    -1.75148 ( 10.58%)    -1.21456 ( 89.42%)    -1.27137
       8     29.72    -1.74367 ( 11.09%)    -1.21065 ( 88.91%)    -1.26977
       9     48.25    -1.45732 ( 46.44%)    -1.06708 ( 53.56%)    -1.24831
      10     49.04    -1.44776 ( 48.06%)    -1.06228 ( 51.94%)    -1.24753
      11     57.92    -1.34967 ( 64.30%)    -1.01296 ( 35.70%)    -1.22945
      12     61.50    -1.31438 ( 69.60%)    -0.99520 ( 30.40%)    -1.21733
      13     66.92    -1.26478 ( 76.24%)    -0.97020 ( 23.76%)    -1.19477
      14     73.11    -1.21282 ( 82.05%)    -0.94398 ( 17.95%)    -1.16457
      15     74.22    -1.20398 ( 82.92%)    -0.93951 ( 17.08%)    -1.15881
      16     90.67    -1.08695 ( 91.53%)    -0.88022 (  8.47%)    -1.06945
      17     99.77    -1.03127 ( 94.07%)    -0.85189 (  5.93%)    -1.02062
      18    103.19    -1.01168 ( 94.78%)    -0.84190 (  5.22%)    -1.00281
      19    108.60    -0.98206 ( 95.70%)    -0.82677 (  4.30%)    -0.97538
      20    115.51    -0.94636 ( 96.61%)    -0.80848 (  3.39%)    -0.94168
      21    156.43    -0.77296 ( 98.97%)    -0.71865 (  1.03%)    -0.77240
      22    169.56    -0.72760 ( 99.25%)    -0.69478 (  0.75%)    -0.72735
      23    180.19    -0.69364 ( 99.41%)    -0.67677 (  0.59%)    -0.69354
      24    184.75    -0.67974 ( 99.47%)    -0.66936 (  0.53%)    -0.67969
      25    194.13    -0.65236 ( 99.56%)    -0.65469 (  0.44%)    -0.65237
      26    195.59    -0.64824 ( 99.57%)    -0.65247 (  0.43%)    -0.64826
      27    205.88    -0.62011 ( 99.65%)    -0.63727 (  0.35%)    -0.62017
      28    249.64    -0.51672 ( 99.84%)    -0.58018 (  0.16%)    -0.51682
      29    266.86    -0.48195 ( 99.88%)    -0.56043 (  0.12%)    -0.48205
      30    295.98    -0.42920 ( 99.92%)    -0.52975 (  0.08%)    -0.42928
   ------------------------------------------------------------------------

   temp. (K)  partition function   enthalpy   heat capacity  entropy
                                   cal/mol     cal/K/mol   cal/K/mol   J/K/mol
 298.15  VIB  0.378E+19            19619.943    102.617    130.570
         ROT  0.136E+08              888.752      2.981     35.626
         INT  0.515E+26            20508.696    105.598    166.196
         TR   0.618E+28             1481.254      4.968     43.384
         TOT                       21989.9497   110.5658   209.5804   876.8845

       T/K    H(0)-H(T)+PV         H(T)/Eh          T*S/Eh         G(T)/Eh
   ------------------------------------------------------------------------
    298.15    0.350432E-01    0.473689E+00    0.995784E-01    0.374111E+00
   ------------------------------------------------------------------------

         :::::::::::::::::::::::::::::::::::::::::::::::::::::
         ::                  THERMODYNAMIC                  ::
         :::::::::::::::::::::::::::::::::::::::::::::::::::::
         :: total free energy         -80.557442481691 Eh   ::
         ::.................................................::
         :: total energy              -80.931553069492 Eh   ::
         :: zero point energy           0.438645795131 Eh   ::
         :: G(RRHO) w/o ZPVE           -0.064535207329 Eh   ::
         :: G(RRHO) contrib.            0.374110587801 Eh   ::
         :::::::::::::::::::::::::::::::::::::::::::::::::::::

           -------------------------------------------------
          | TOTAL ENERGY              -80.931553069492 Eh   |
          | TOTAL ENTHALPY            -80.457864058887 Eh   |
          | TOTAL FREE ENERGY         -80.557442481691 Eh   |
          | GRADIENT NORM               0.000049813070 Eh/α |
          | HOMO-LUMO GAP               5.655611563503 eV   |
           -------------------------------------------------

------------------------------------------------------------------------
 * finished run on 2024/01/10 at 18:29:24.684     
------------------------------------------------------------------------
 total:
 * wall-time:     0 d,  0 h,  0 min, 14.535 sec
 *  cpu-time:     0 d,  0 h,  0 min, 14.461 sec
 * ratio c/w:     0.995 speedup
 SCF:
 * wall-time:     0 d,  0 h,  0 min,  0.102 sec
 *  cpu-time:     0 d,  0 h,  0 min,  0.059 sec
 * ratio c/w:     0.578 speedup
 analytical hessian:
 * wall-time:     0 d,  0 h,  0 min, 14.406 sec
 *  cpu-time:     0 d,  0 h,  0 min, 14.376 sec
 * ratio c/w:     0.998 speedup

