      -----------------------------------------------------------      
     |                   =====================                   |     
     |                           x T B                           |     
     |                   =====================                   |     
     |                         S. Grimme                         |     
     |          Mulliken Center for Theoretical Chemistry        |     
     |                    University of Bonn                     |     
      -----------------------------------------------------------      

   * xtb version 6.6.1 (unknown-commit) compiled by '@Linux' on 12/27/2023

   xtb is free software: you can redistribute it and/or modify it under
   the terms of the GNU Lesser General Public License as published by
   the Free Software Foundation, either version 3 of the License, or
   (at your option) any later version.
   
   xtb is distributed in the hope that it will be useful,
   but WITHOUT ANY WARRANTY; without even the implied warranty of
   MERCHANTABILITY or FITNESS FOR A PARTICULAR PURPOSE.  See the
   GNU Lesser General Public License for more details.
   
   Cite this work as:
   * C. Bannwarth, E. Caldeweyher, S. Ehlert, A. Hansen, P. Pracht,
     J. Seibert, S. Spicher, S. Grimme, WIREs Comput. Mol. Sci., 2020, 11,
     e01493. DOI: 10.1002/wcms.1493
   
   for GFN2-xTB:
   * C. Bannwarth, S. Ehlert and S. Grimme., J. Chem. Theory Comput., 2019,
     15, 1652-1671. DOI: 10.1021/acs.jctc.8b01176
   for GFN1-xTB:
   * S. Grimme, C. Bannwarth, P. Shushkov, J. Chem. Theory Comput., 2017,
     13, 1989-2009. DOI: 10.1021/acs.jctc.7b00118
   for GFN0-xTB:
   * P. Pracht, E. Caldeweyher, S. Ehlert, S. Grimme, ChemRxiv, 2019, preprint.
     DOI: 10.26434/chemrxiv.8326202.v1
   for GFN-FF:
   * S. Spicher and S. Grimme, Angew. Chem. Int. Ed., 2020, 59, 15665-15673.
     DOI: 10.1002/anie.202004239
   
   for ALPB and GBSA implicit solvation:
   * S. Ehlert, M. Stahn, S. Spicher, S. Grimme, J. Chem. Theory Comput.,
     2021, 17, 4250-4261. DOI: 10.1021/acs.jctc.1c00471
   
   for DFT-D4:
   * E. Caldeweyher, C. Bannwarth and S. Grimme, J. Chem. Phys., 2017,
     147, 034112. DOI: 10.1063/1.4993215
   * E. Caldeweyher, S. Ehlert, A. Hansen, H. Neugebauer, S. Spicher,
     C. Bannwarth and S. Grimme, J. Chem. Phys., 2019, 150, 154122.
     DOI: 10.1063/1.5090222
   * E. Caldeweyher, J.-M. Mewes, S. Ehlert and S. Grimme, Phys. Chem. Chem. Phys.
     2020, 22, 8499-8512. DOI: 10.1039/D0CP00502A
   
   for sTDA-xTB:
   * S. Grimme and C. Bannwarth, J. Chem. Phys., 2016, 145, 054103.
     DOI: 10.1063/1.4959605
   
   in the mass-spec context:
   * V. Asgeirsson, C. Bauer and S. Grimme, Chem. Sci., 2017, 8, 4879.
     DOI: 10.1039/c7sc00601b
   * J. Koopman and S. Grimme, ACS Omega 2019, 4, 12, 15120-15133.
     DOI: 10.1021/acsomega.9b02011
   
   for metadynamics refer to:
   * S. Grimme, J. Chem. Theory Comput., 2019, 155, 2847-2862
     DOI: 10.1021/acs.jctc.9b00143
   
   for SPH calculations refer to:
   * S. Spicher and S. Grimme, J. Chem. Theory Comput., 2021, 17, 1701-1714
     DOI: 10.1021/acs.jctc.0c01306
   
   with help from (in alphabetical order)
   P. Atkinson, C. Bannwarth, F. Bohle, G. Brandenburg, E. Caldeweyher
   M. Checinski, S. Dohm, S. Ehlert, S. Ehrlich, I. Gerasimov, C. Hölzer
   A. Katbashev, J. Koopman, C. Lavigne, S. Lehtola, F. März, M. Müller,
   F. Musil, H. Neugebauer, J. Pisarek, C. Plett, P. Pracht, F. Pultar,
   J. Seibert, P. Shushkov, S. Spicher, M. Stahn, M. Steiner, T. Strunk,
   J. Stückrath, T. Rose, and J. Unsleber
   
 * started run on 2024/01/10 at 15:36:10.823     

           -------------------------------------------------
          |                Calculation Setup                |
           -------------------------------------------------

          program call               : xtb struc.xyz --gfn2 --hess
          hostname                   : swaroop
          coordinate file            : struc.xyz
          omp threads                :                     1

   ID    Z sym.   atoms
    1    8 O      1, 23, 31, 39, 47
    2    6 C      2, 5, 9, 13, 17, 22, 30, 38, 46
    3    1 H      3, 4, 6, 7, 10-12, 14-16, 18-21, 25, 26, 28, 29, 33, 34,
                  36, 37, 41, 42, 44, 45, 49, 50, 52, 53
    4    7 N      8, 24, 27, 32, 35, 40, 43, 48, 51

molecular fragmentation (1/2 indicates fragments):
11111111111111111111122222222222222222222222222222222
# atoms in fragment 1/2:    21    32
 fragment masses (1/2) :      104.17      240.22
CMA distance (Bohr)    :   6.313
constraining FC (au)   :  0.0500

           -------------------------------------------------
          |                 G F N 2 - x T B                 |
           -------------------------------------------------

        Reference                      10.1021/acs.jctc.8b01176
      * Hamiltonian:
        H0-scaling (s, p, d)           1.850000    2.230000    2.230000
        zeta-weighting                 0.500000
      * Dispersion:
        s8                             2.700000
        a1                             0.520000
        a2                             5.000000
        s9                             5.000000
      * Repulsion:
        kExp                           1.500000    1.000000
        rExp                           1.000000
      * Coulomb:
        alpha                          2.000000
        third order                    shell-resolved
        anisotropic                    true
        a3                             3.000000
        a5                             4.000000
        cn-shift                       1.200000
        cn-exp                         4.000000
        max-rad                        5.000000


          ...................................................
          :                      SETUP                      :
          :.................................................:
          :  # basis functions                 122          :
          :  # atomic orbitals                 122          :
          :  # shells                           76          :
          :  # electrons                       140          :
          :  max. iterations                   250          :
          :  Hamiltonian                  GFN2-xTB          :
          :  restarted?                      false          :
          :  GBSA solvation                  false          :
          :  PC potential                    false          :
          :  electronic temp.          300.0000000     K    :
          :  accuracy                    1.0000000          :
          :  -> integral cutoff          0.2500000E+02      :
          :  -> integral neglect         0.1000000E-07      :
          :  -> SCF convergence          0.1000000E-05 Eh   :
          :  -> wf. convergence          0.1000000E-03 e    :
          :  Broyden damping             0.4000000          :
          ...................................................

 iter      E             dE          RMSdq      gap      omega  full diag
   1    -81.5544859 -0.815545E+02  0.431E+00    5.07       0.0  T
   2    -81.8408687 -0.286383E+00  0.234E+00    5.95       1.0  T
   3    -81.8466342 -0.576549E-02  0.115E+00    5.57       1.0  T
   4    -81.8480020 -0.136787E-02  0.244E-01    5.60       1.0  T
   5    -81.8489219 -0.919918E-03  0.915E-02    5.52       1.0  T
   6    -81.8489469 -0.249362E-04  0.266E-02    5.55       1.0  T
   7    -81.8489513 -0.440744E-05  0.777E-03    5.54       1.8  T
   8    -81.8489516 -0.302892E-06  0.276E-03    5.54       5.0  T
   9    -81.8489516 -0.216815E-07  0.103E-03    5.54      13.3  T
  10    -81.8489516 -0.588481E-08  0.186E-04    5.54      73.8  T
  11    -81.8489516 -0.361950E-09  0.845E-05    5.54     162.6  T

   *** convergence criteria satisfied after 11 iterations ***

         #    Occupation            Energy/Eh            Energy/eV
      -------------------------------------------------------------
         1        2.0000           -0.7917758             -21.5453
       ...           ...                  ...                  ...
        64        2.0000           -0.4977061             -13.5433
        65        2.0000           -0.4962618             -13.5040
        66        2.0000           -0.4919188             -13.3858
        67        2.0000           -0.4893991             -13.3172
        68        2.0000           -0.4871498             -13.2560
        69        2.0000           -0.4805379             -13.0761
        70        2.0000           -0.4758582             -12.9488 (HOMO)
        71                         -0.2722602              -7.4086 (LUMO)
        72                         -0.2684841              -7.3058
        73                         -0.2612312              -7.1085
        74                         -0.2516165              -6.8468
        75                         -0.1480956              -4.0299
       ...                                ...                  ...
       122                          0.5572482              15.1635
      -------------------------------------------------------------
                  HL-Gap            0.2035980 Eh            5.5402 eV
             Fermi-level           -0.3740592 Eh          -10.1787 eV

 SCC (total)                   0 d,  0 h,  0 min,  0.098 sec
 SCC setup                      ...        0 min,  0.000 sec (  0.296%)
 Dispersion                     ...        0 min,  0.001 sec (  0.607%)
 classical contributions        ...        0 min,  0.000 sec (  0.190%)
 integral evaluation            ...        0 min,  0.008 sec (  7.787%)
 iterations                     ...        0 min,  0.061 sec ( 62.778%)
 molecular gradient             ...        0 min,  0.027 sec ( 28.056%)
 printout                       ...        0 min,  0.000 sec (  0.274%)

         :::::::::::::::::::::::::::::::::::::::::::::::::::::
         ::                     SUMMARY                     ::
         :::::::::::::::::::::::::::::::::::::::::::::::::::::
         :: total energy             -80.934986399497 Eh    ::
         :: gradient norm              0.000051043369 Eh/a0 ::
         :: HOMO-LUMO gap              5.540184264486 eV    ::
         ::.................................................::
         :: SCC energy               -81.848951623557 Eh    ::
         :: -> isotropic ES            0.293531332297 Eh    ::
         :: -> anisotropic ES         -0.028948512399 Eh    ::
         :: -> anisotropic XC          0.020545053702 Eh    ::
         :: -> dispersion             -0.042221708830 Eh    ::
         :: repulsion energy           0.912947804589 Eh    ::
         :: add. restraining           0.000000000000 Eh    ::
         :: total charge               1.000000000000 e     ::
         :::::::::::::::::::::::::::::::::::::::::::::::::::::

           ------------------------------------------------- 
          |                Numerical Hessian                |
           ------------------------------------------------- 
step length          :   0.00500
SCC accuracy         :   0.30000
Hessian scale factor :   1.00000
frozen atoms in %    :   0.00000    0
RMS gradient         :   0.00005
estimated CPU  time      0.23 min
estimated wall time      0.23 min

writing file <hessian>.

 projected vibrational frequencies (cm⁻¹)
eigval :       -0.00    -0.00     0.00     0.00     0.00     0.00
eigval :        3.78     9.95    12.39    20.14    26.19    33.78
eigval :       45.08    47.12    51.30    54.13    61.31    72.64
eigval :       79.52    84.51    93.13   101.72   107.12   113.32
eigval :      122.04   129.53   138.56   149.75   165.18   178.55
eigval :      184.58   195.74   235.99   256.91   267.10   286.65
eigval :      307.19   317.99   329.27   335.38   343.95   358.71
eigval :      362.02   375.06   427.24   437.10   443.92   455.78
eigval :      459.78   464.58   470.31   477.01   483.39   486.02
eigval :      490.53   495.12   503.50   528.47   530.80   553.46
eigval :      555.62   561.65   580.43   637.77   669.71   674.16
eigval :      677.23   684.82   720.33   747.59   765.26   799.67
eigval :      907.33   925.34   946.09   960.23   971.78   977.91
eigval :      995.31  1000.63  1011.64  1016.01  1017.83  1028.04
eigval :     1028.77  1039.39  1042.44  1081.17  1082.00  1085.55
eigval :     1093.93  1096.53  1110.04  1130.33  1176.34  1231.12
eigval :     1250.28  1274.65  1319.94  1336.15  1350.42  1351.91
eigval :     1354.30  1367.57  1374.99  1400.49  1403.32  1408.69
eigval :     1418.39  1435.77  1441.51  1446.27  1447.99  1454.01
eigval :     1456.42  1458.01  1466.98  1471.22  1473.55  1480.71
eigval :     1491.42  1497.53  1503.10  1512.19  1527.10  1648.50
eigval :     1689.20  1707.95  1725.14  2909.01  2968.27  2980.51
eigval :     3004.39  3031.96  3033.62  3040.09  3043.10  3044.01
eigval :     3048.54  3052.23  3052.84  3060.45  3104.64  3125.28
eigval :     3318.90  3391.28  3427.69  3486.67  3498.56  3498.97
eigval :     3499.93  3504.54  3534.87  3541.56  3553.90  3564.30
eigval :     3565.19  3566.68  3570.06
           -------------------------------------------------
          |                Property Printout                |
           -------------------------------------------------

    * Orbital Energies and Occupations

         #    Occupation            Energy/Eh            Energy/eV
      -------------------------------------------------------------
         1        2.0000           -0.7917758             -21.5453
       ...           ...                  ...                  ...
        58        2.0000           -0.5089742             -13.8499
        59        2.0000           -0.5062702             -13.7763
        60        2.0000           -0.5029975             -13.6873
        61        2.0000           -0.5023663             -13.6701
        62        2.0000           -0.4988781             -13.5752
        63        2.0000           -0.4985849             -13.5672
        64        2.0000           -0.4977067             -13.5433
        65        2.0000           -0.4962608             -13.5039
        66        2.0000           -0.4919193             -13.3858
        67        2.0000           -0.4893997             -13.3172
        68        2.0000           -0.4871507             -13.2560
        69        2.0000           -0.4805386             -13.0761
        70        2.0000           -0.4758591             -12.9488 (HOMO)
        71                         -0.2722599              -7.4086 (LUMO)
        72                         -0.2684844              -7.3058
        73                         -0.2612321              -7.1085
        74                         -0.2516168              -6.8468
        75                         -0.1480955              -4.0299
        76                         -0.1031447              -2.8067
        77                         -0.0983521              -2.6763
        78                         -0.0823313              -2.2403
        79                         -0.0760674              -2.0699
        80                         -0.0703402              -1.9141
        81                         -0.0649959              -1.7686
       ...                                ...                  ...
       122                          0.5572479              15.1635
      -------------------------------------------------------------
                  HL-Gap            0.2035992 Eh            5.5402 eV
             Fermi-level           -0.3740595 Eh          -10.1787 eV

     #   Z          covCN         q      C6AA      α(0)
     1   8 O        1.653    -0.481    22.487     6.401
     2   6 C        3.673     0.075    19.558     6.338
     3   1 H        0.924     0.054     2.274     2.358
     4   1 H        0.924     0.043     2.403     2.424
     5   6 C        3.768    -0.073    21.932     6.674
     6   1 H        0.924     0.115     1.652     2.010
     7   1 H        0.924     0.106     1.733     2.059
     8   7 N        3.623     0.160    18.552     6.397
     9   6 C        3.722    -0.110    22.716     6.807
    10   1 H        0.925     0.122     1.597     1.976
    11   1 H        0.925     0.075     2.029     2.228
    12   1 H        0.925     0.107     1.721     2.052
    13   6 C        3.736    -0.117    22.830     6.819
    14   1 H        0.925     0.126     1.567     1.957
    15   1 H        0.925     0.111     1.684     2.030
    16   1 H        0.925     0.080     1.974     2.197
    17   6 C        3.722    -0.105    22.634     6.795
    18   1 H        0.925     0.120     1.614     1.987
    19   1 H        0.925     0.091     1.869     2.138
    20   1 H        0.925     0.082     1.961     2.190
    21   1 H        0.802     0.333     0.631     1.248
    22   6 C        2.675     0.342    21.188     7.532
    23   8 O        0.861    -0.519    24.215     6.598
    24   7 N        2.645    -0.286    27.380     7.771
    25   1 H        0.860     0.204     1.087     1.633
    26   1 H        0.861     0.185     1.188     1.707
    27   7 N        2.644    -0.302    27.777     7.827
    28   1 H        0.861     0.180     1.215     1.727
    29   1 H        0.860     0.233     0.952     1.528
    30   6 C        2.675     0.346    21.127     7.521
    31   8 O        0.860    -0.522    24.277     6.606
    32   7 N        2.646    -0.290    27.481     7.786
    33   1 H        0.860     0.199     1.110     1.650
    34   1 H        0.861     0.186     1.178     1.700
    35   7 N        2.646    -0.288    27.429     7.778
    36   1 H        0.861     0.187     1.176     1.699
    37   1 H        0.860     0.200     1.108     1.649
    38   6 C        2.675     0.343    21.179     7.531
    39   8 O        0.860    -0.541    24.721     6.666
    40   7 N        2.645    -0.294    27.572     7.798
    41   1 H        0.860     0.194     1.138     1.671
    42   1 H        0.861     0.185     1.183     1.704
    43   7 N        2.645    -0.320    28.247     7.893
    44   1 H        0.860     0.206     1.078     1.626
    45   1 H        0.860     0.215     1.034     1.593
    46   6 C        2.675     0.340    21.216     7.537
    47   8 O        0.861    -0.539    24.666     6.659
    48   7 N        2.643    -0.297    27.663     7.811
    49   1 H        0.859     0.254     0.869     1.460
    50   1 H        0.861     0.183     1.198     1.715
    51   7 N        2.644    -0.293    27.560     7.797
    52   1 H        0.861     0.186     1.182     1.703
    53   1 H        0.860     0.212     1.045     1.602

 Mol. C6AA /au·bohr⁶  :      21795.427581
 Mol. C8AA /au·bohr⁸  :     454274.707783
 Mol. α(0) /au        :        220.564476


Wiberg/Mayer (AO) data.
largest (>0.10) Wiberg bond orders for each atom

 ---------------------------------------------------------------------------
     #   Z sym  total        # sym  WBO       # sym  WBO       # sym  WBO
 ---------------------------------------------------------------------------
     1   8 O    1.946 --     2 C    1.019    21 H    0.812
     2   6 C    3.965 --     1 O    1.019     5 C    0.993     3 H    0.966
                             4 H    0.964
     3   1 H    0.997 --     2 C    0.966
     4   1 H    0.998 --     2 C    0.964
     5   6 C    3.925 --     2 C    0.993     7 H    0.957     6 H    0.951
                             8 N    0.932
     6   1 H    0.987 --     5 C    0.951
     7   1 H    0.989 --     5 C    0.957
     8   7 N    3.823 --    17 C    0.963     9 C    0.958    13 C    0.954
                             5 C    0.932
     9   6 C    3.923 --    11 H    0.979    12 H    0.966    10 H    0.961
                             8 N    0.958
    10   1 H    0.985 --     9 C    0.961
    11   1 H    0.994 --     9 C    0.979
    12   1 H    0.989 --     9 C    0.966
    13   6 C    3.919 --    16 H    0.978    15 H    0.967    14 H    0.961
                             8 N    0.954
    14   1 H    0.984 --    13 C    0.961
    15   1 H    0.988 --    13 C    0.967
    16   1 H    0.993 --    13 C    0.978
    17   6 C    3.931 --    20 H    0.978    19 H    0.974     8 N    0.963
                            18 H    0.962
    18   1 H    0.986 --    17 C    0.962
    19   1 H    0.992 --    17 C    0.974
    20   1 H    0.993 --    17 C    0.978
    21   1 H    0.889 --     1 O    0.812
    22   6 C    3.960 --    23 O    1.492    27 N    1.244    24 N    1.214
    23   8 O    1.922 --    22 C    1.492    27 N    0.143    24 N    0.131
    24   7 N    3.327 --    22 C    1.214    26 H    0.947    25 H    0.942
                            23 O    0.131
    25   1 H    0.958 --    24 N    0.942
    26   1 H    0.965 --    24 N    0.947
    27   7 N    3.340 --    22 C    1.244    28 H    0.948    29 H    0.891
                            23 O    0.143
    28   1 H    0.968 --    27 N    0.948
    29   1 H    0.946 --    27 N    0.891
    30   6 C    3.959 --    31 O    1.538    35 N    1.209    32 N    1.205
    31   8 O    1.896 --    30 C    1.538    35 N    0.144    32 N    0.143
    32   7 N    3.320 --    30 C    1.205    34 H    0.946    33 H    0.943
                            31 O    0.143
    33   1 H    0.960 --    32 N    0.943
    34   1 H    0.965 --    32 N    0.946
    35   7 N    3.325 --    30 C    1.209    36 H    0.946    37 H    0.943
                            31 O    0.144
    36   1 H    0.965 --    35 N    0.946
    37   1 H    0.960 --    35 N    0.943
    38   6 C    3.959 --    39 O    1.516    43 N    1.230    40 N    1.203
    39   8 O    1.876 --    38 C    1.516    43 N    0.141    40 N    0.138
    40   7 N    3.318 --    38 C    1.203    42 H    0.947    41 H    0.945
                            39 O    0.138
    41   1 H    0.962 --    40 N    0.945
    42   1 H    0.965 --    40 N    0.947
    43   7 N    3.312 --    38 C    1.230    44 H    0.916    45 H    0.907
                            39 O    0.141
    44   1 H    0.958 --    43 N    0.916
    45   1 H    0.954 --    43 N    0.907
    46   6 C    3.960 --    47 O    1.441    48 N    1.291    51 N    1.218
    47   8 O    1.913 --    46 C    1.441    48 N    0.139    51 N    0.122
    48   7 N    3.368 --    46 C    1.291    50 H    0.947    49 H    0.855
                            47 O    0.139
    49   1 H    0.936 --    48 N    0.855
    50   1 H    0.966 --    48 N    0.947
    51   7 N    3.324 --    46 C    1.218    52 H    0.947    53 H    0.933
                            47 O    0.122
    52   1 H    0.965 --    51 N    0.947
    53   1 H    0.955 --    51 N    0.933
 ---------------------------------------------------------------------------

Topologies differ in total number of bonds
Writing topology from bond orders to xtbtopo.mol

molecular dipole:
                 x           y           z       tot (Debye)
 q only:       -1.488       0.832      -0.748
   full:       -0.942       0.909      -0.899       4.036
molecular quadrupole (traceless):
                xx          xy          yy          xz          yz          zz
 q only:       32.568     -22.524     -31.068      23.340     -24.635      -1.500
  q+dip:       35.009     -26.340     -34.398      28.180     -29.054      -0.611
   full:       34.540     -25.827     -34.786      28.938     -29.103       0.245

           -------------------------------------------------
          |               Frequency Printout                |
           -------------------------------------------------
 projected vibrational frequencies (cm⁻¹)
eigval :       -0.00    -0.00     0.00     0.00     0.00     0.00
eigval :        3.78     9.95    12.39    20.14    26.19    33.78
eigval :       45.08    47.12    51.30    54.13    61.31    72.64
eigval :       79.52    84.51    93.13   101.72   107.12   113.32
eigval :      122.04   129.53   138.56   149.75   165.18   178.55
eigval :      184.58   195.74   235.99   256.91   267.10   286.65
eigval :      307.19   317.99   329.27   335.38   343.95   358.71
eigval :      362.02   375.06   427.24   437.10   443.92   455.78
eigval :      459.78   464.58   470.31   477.01   483.39   486.02
eigval :      490.53   495.12   503.50   528.47   530.80   553.46
eigval :      555.62   561.65   580.43   637.77   669.71   674.16
eigval :      677.23   684.82   720.33   747.59   765.26   799.67
eigval :      907.33   925.34   946.09   960.23   971.78   977.91
eigval :      995.31  1000.63  1011.64  1016.01  1017.83  1028.04
eigval :     1028.77  1039.39  1042.44  1081.17  1082.00  1085.55
eigval :     1093.93  1096.53  1110.04  1130.33  1176.34  1231.12
eigval :     1250.28  1274.65  1319.94  1336.15  1350.42  1351.91
eigval :     1354.30  1367.57  1374.99  1400.49  1403.32  1408.69
eigval :     1418.39  1435.77  1441.51  1446.27  1447.99  1454.01
eigval :     1456.42  1458.01  1466.98  1471.22  1473.55  1480.71
eigval :     1491.42  1497.53  1503.10  1512.19  1527.10  1648.50
eigval :     1689.20  1707.95  1725.14  2909.01  2968.27  2980.51
eigval :     3004.39  3031.96  3033.62  3040.09  3043.10  3044.01
eigval :     3048.54  3052.23  3052.84  3060.45  3104.64  3125.28
eigval :     3318.90  3391.28  3427.69  3486.67  3498.56  3498.97
eigval :     3499.93  3504.54  3534.87  3541.56  3553.90  3564.30
eigval :     3565.19  3566.68  3570.06
 reduced masses (amu)
   1: 12.15   2: 12.73   3: 12.81   4: 12.39   5: 12.49   6: 12.75   7: 11.16   8: 12.19
   9: 12.21  10: 11.95  11: 12.01  12: 11.98  13: 12.21  14: 12.53  15: 12.27  16: 12.28
  17: 12.88  18: 13.25  19: 13.62  20: 13.18  21: 12.86  22: 12.00  23: 12.21  24: 12.57
  25: 11.93  26: 11.22  27: 12.92  28: 13.01  29: 13.44  30:  3.66  31: 12.70  32: 10.57
  33:  2.20  34: 12.93  35:  4.32  36:  3.28  37:  8.08  38:  5.19  39:  3.55  40:  2.53
  41:  3.81  42:  3.80  43:  3.99  44:  5.76  45:  8.77  46:  3.46  47:  1.56  48:  8.35
  49:  8.27  50:  8.16  51:  7.20  52:  5.73  53:  5.99  54:  3.09  55:  6.75  56:  2.29
  57:  3.22  58:  6.13  59:  9.63  60: 11.07  61:  8.59  62:  8.38  63: 11.92  64:  4.59
  65: 10.69  66: 11.97  67: 11.52  68:  7.90  69:  3.49  70:  3.37  71:  8.88  72:  1.93
  73:  6.80  74:  8.73  75:  5.26  76:  4.96  77:  4.98  78:  4.56  79:  8.76  80:  7.57
  81:  9.02  82:  7.73  83:  8.94  84:  8.13  85:  8.57  86:  5.16  87:  3.54  88:  9.72
  89:  9.10  90:  8.58  91:  8.37  92:  7.36  93:  4.37  94:  8.50  95:  2.93  96:  5.03
  97:  6.40  98:  8.05  99:  6.40 100:  3.35 101:  4.69 102:  5.22 103:  4.92 104:  5.23
 105:  5.05 106:  2.71 107:  2.58 108:  2.76 109:  2.09 110:  2.38 111:  1.76 112:  3.23
 113:  3.31 114:  1.63 115:  2.87 116:  1.98 117:  1.78 118:  1.62 119:  4.01 120:  1.67
 121:  1.70 122:  8.23 123:  7.30 124:  8.97 125: 10.06 126: 12.19 127: 12.67 128: 12.72
 129: 12.84 130:  1.78 131:  1.66 132:  1.71 133:  1.81 134:  1.61 135:  1.77 136:  1.77
 137:  1.71 138:  1.34 139:  1.91 140:  1.83 141:  1.93 142:  1.73 143:  1.91 144:  1.86
 145:  1.74 146:  1.50 147:  2.14 148:  1.46 149:  1.44 150:  1.45 151:  1.44 152:  1.46
 153:  1.89 154:  1.94 155:  2.17 156:  2.19 157:  2.18 158:  2.19 159:  2.18
 IR intensities (km·mol⁻¹)
   1:  0.16   2:  2.83   3:  2.49   4:  0.22   5:  0.61   6:  2.62   7:  0.00   8:  0.68
   9:  1.22  10:  1.37  11:  2.97  12:  0.08  13:  3.49  14:  0.12  15: 10.82  16:  1.07
  17:  0.29  18:  4.06  19:  6.17  20: 12.73  21:  0.48  22:  7.24  23:  3.03  24: 13.42
  25:  9.12  26: 19.92  27: 18.35  28:  1.28  29: 24.25  30: 10.21  31: 41.16  32:  6.94
  33: 72.17  34: 21.96  35:  0.33  36:221.66  37:  4.28  38:  5.78  39:432.92  40:180.46
  41:  0.53  42:246.20  43:  8.82  44:  0.84  45:  3.20  46:326.22  47:  3.81  48:  2.69
  49:  2.14  50: 22.26  51: 24.30  52: 13.65  53: 11.02  54: 13.34  55: 16.60  56: 17.40
  57: 34.47  58: 14.99  59: 37.08  60: 21.10  61: 21.48  62:  4.84  63: 56.62  64: 18.92
  65: 11.91  66: 36.54  67:  5.92  68:  4.19  69:511.36  70:164.19  71:  3.47  72:406.00
  73:  8.07  74:  5.99  75:  2.05  76:  5.83  77: 18.29  78:  6.71  79:  0.16  80: 21.19
  81:  4.55  82: 31.67  83:  7.92  84:  5.76  85: 18.82  86:  9.93  87:  4.66  88:  2.06
  89:  0.93  90:  2.91  91:  4.44  92: 39.91  93: 16.04  94: 49.60  95: 17.35  96:  5.28
  97:  3.37  98:  1.63  99: 15.48 100:  0.97 101:180.17 102:  3.55 103: 74.33 104: 78.68
 105: 53.34 106: 13.20 107: 22.64 108:130.80 109: 13.47 110: 19.70 111:  2.56 112:  2.50
 113: 14.26 114:  6.39 115:  8.74 116:  2.87 117:  3.84 118:  1.62 119: 50.39 120: 52.40
 121:  9.21 122:463.70 123:474.43 124:755.22 125:383.45 126:568.70 127:****** 128:922.48
 129:657.39 130: 29.02 131: 67.69 132: 13.70 133:  6.96 134: 28.99 135:  6.58 136:  2.58
 137:  0.36 138: 40.85 139: 15.41 140: 29.88 141:  0.89 142:  4.67 143:****** 144:500.81
 145:602.45 146:291.35 147:203.19 148: 29.88 149: 20.57 150: 22.47 151: 36.16 152: 10.13
 153: 14.18 154: 19.47 155: 25.35 156: 13.65 157: 17.09 158: 10.69 159: 12.02
 Raman intensities (amu)
Molecule has no symmetry elements
It seems to be the C1 point group
   1:  0.00   2:  0.00   3:  0.00   4:  0.00   5:  0.00   6:  0.00   7:  0.00   8:  0.00
   9:  0.00  10:  0.00  11:  0.00  12:  0.00  13:  0.00  14:  0.00  15:  0.00  16:  0.00
  17:  0.00  18:  0.00  19:  0.00  20:  0.00  21:  0.00  22:  0.00  23:  0.00  24:  0.00
  25:  0.00  26:  0.00  27:  0.00  28:  0.00  29:  0.00  30:  0.00  31:  0.00  32:  0.00
  33:  0.00  34:  0.00  35:  0.00  36:  0.00  37:  0.00  38:  0.00  39:  0.00  40:  0.00
  41:  0.00  42:  0.00  43:  0.00  44:  0.00  45:  0.00  46:  0.00  47:  0.00  48:  0.00
  49:  0.00  50:  0.00  51:  0.00  52:  0.00  53:  0.00  54:  0.00  55:  0.00  56:  0.00
  57:  0.00  58:  0.00  59:  0.00  60:  0.00  61:  0.00  62:  0.00  63:  0.00  64:  0.00
  65:  0.00  66:  0.00  67:  0.00  68:  0.00  69:  0.00  70:  0.00  71:  0.00  72:  0.00
  73:  0.00  74:  0.00  75:  0.00  76:  0.00  77:  0.00  78:  0.00  79:  0.00  80:  0.00
  81:  0.00  82:  0.00  83:  0.00  84:  0.00  85:  0.00  86:  0.00  87:  0.00  88:  0.00
  89:  0.00  90:  0.00  91:  0.00  92:  0.00  93:  0.00  94:  0.00  95:  0.00  96:  0.00
  97:  0.00  98:  0.00  99:  0.00 100:  0.00 101:  0.00 102:  0.00 103:  0.00 104:  0.00
 105:  0.00 106:  0.00 107:  0.00 108:  0.00 109:  0.00 110:  0.00 111:  0.00 112:  0.00
 113:  0.00 114:  0.00 115:  0.00 116:  0.00 117:  0.00 118:  0.00 119:  0.00 120:  0.00
 121:  0.00 122:  0.00 123:  0.00 124:  0.00 125:  0.00 126:  0.00 127:  0.00 128:  0.00
 129:  0.00 130:  0.00 131:  0.00 132:  0.00 133:  0.00 134:  0.00 135:  0.00 136:  0.00
 137:  0.00 138:  0.00 139:  0.00 140:  0.00 141:  0.00 142:  0.00 143:  0.00 144:  0.00
 145:  0.00 146:  0.00 147:  0.00 148:  0.00 149:  0.00 150:  0.00 151:  0.00 152:  0.00
 153:  0.00 154:  0.00 155:  0.00 156:  0.00 157:  0.00 158:  0.00 159:  0.00
 output can be read by thermo (or use thermo option).
 writing <g98.out> molden fake output.
 recommended (thermochemical) frequency scaling factor: 1.0
           -------------------------------------------------
          |             Thermodynamic Functions             |
           -------------------------------------------------

c1  symmetry found (for desy threshold:  0.10E+00) used in thermo

          ...................................................
          :                      SETUP                      :
          :.................................................:
          :  # frequencies                         153      :
          :  # imaginary freq.                       0      :
          :  linear?                             false      :
          :  only rotor calc.                    false      :
          :  symmetry                               c1      :
          :  rotational number                       1      :
          :  scaling factor                  1.0000000      :
          :  rotor cutoff                   50.0000000 cm⁻¹ :
          :  imag. cutoff                  -20.0000000 cm⁻¹ :
          :.................................................:

    mode    ω/cm⁻¹     T·S(HO)/kcal·mol⁻¹    T·S(FR)/kcal·mol⁻¹   T·S(vib)
   ------------------------------------------------------------------------
       1      3.78    -2.96440 (  0.00%)    -1.82099 (100.00%)    -1.82102
       2      9.95    -2.39162 (  0.16%)    -1.53478 ( 99.84%)    -1.53612
       3     12.39    -2.26178 (  0.38%)    -1.46986 ( 99.62%)    -1.47283
       4     20.14    -1.97398 (  2.56%)    -1.32593 ( 97.44%)    -1.34254
       5     26.19    -1.81833 (  7.00%)    -1.24804 ( 93.00%)    -1.28798
       6     33.78    -1.66786 ( 17.24%)    -1.17268 ( 82.76%)    -1.25806
       7     45.08    -1.49741 ( 39.79%)    -1.08721 ( 60.21%)    -1.25042
       8     47.12    -1.47124 ( 44.10%)    -1.07408 ( 55.90%)    -1.24924
       9     51.30    -1.42119 ( 52.56%)    -1.04893 ( 47.44%)    -1.24460
      10     54.13    -1.38954 ( 57.87%)    -1.03302 ( 42.13%)    -1.23933
      11     61.31    -1.31625 ( 69.33%)    -0.99614 ( 30.67%)    -1.21806
      12     72.64    -1.21657 ( 81.67%)    -0.94587 ( 18.33%)    -1.16696
      13     79.52    -1.16359 ( 86.48%)    -0.91908 ( 13.52%)    -1.13054
      14     84.51    -1.12799 ( 89.08%)    -0.90105 ( 10.92%)    -1.10322
      15     93.13    -1.07133 ( 92.33%)    -0.87229 (  7.67%)    -1.05606
      16    101.72    -1.01998 ( 94.48%)    -0.84614 (  5.52%)    -1.01039
      17    107.12    -0.98999 ( 95.47%)    -0.83082 (  4.53%)    -0.98278
      18    113.32    -0.95742 ( 96.35%)    -0.81415 (  3.65%)    -0.95219
      19    122.04    -0.91467 ( 97.26%)    -0.79220 (  2.74%)    -0.91131
      20    129.53    -0.88043 ( 97.83%)    -0.77455 (  2.17%)    -0.87814
      21    138.56    -0.84188 ( 98.33%)    -0.75459 (  1.67%)    -0.84042
      22    149.75    -0.79767 ( 98.77%)    -0.73158 (  1.23%)    -0.79686
      23    165.18    -0.74228 ( 99.17%)    -0.70253 (  0.83%)    -0.74195
      24    178.55    -0.69873 ( 99.39%)    -0.67948 (  0.61%)    -0.69862
      25    184.58    -0.68024 ( 99.46%)    -0.66963 (  0.54%)    -0.68018
      26    195.74    -0.64780 ( 99.58%)    -0.65224 (  0.42%)    -0.64782
      27    235.99    -0.54648 ( 99.80%)    -0.59685 (  0.20%)    -0.54658
      28    256.91    -0.50170 ( 99.86%)    -0.57169 (  0.14%)    -0.50180
      29    267.10    -0.48147 ( 99.88%)    -0.56016 (  0.12%)    -0.48157
      30    286.65    -0.44534 ( 99.91%)    -0.53924 (  0.09%)    -0.44542
   ------------------------------------------------------------------------

   temp. (K)  partition function   enthalpy   heat capacity  entropy
                                   cal/mol     cal/K/mol   cal/K/mol   J/K/mol
 298.15  VIB  0.125E+19            19512.218    104.224    130.121
         ROT  0.161E+08              888.752      2.981     35.954
         INT  0.201E+26            20400.970    107.205    166.075
         TR   0.618E+28             1481.254      4.968     43.384
         TOT                       21882.2239   112.1728   209.4594   876.3780

       T/K    H(0)-H(T)+PV         H(T)/Eh          T*S/Eh         G(T)/Eh
   ------------------------------------------------------------------------
    298.15    0.348715E-01    0.474016E+00    0.995209E-01    0.374495E+00
   ------------------------------------------------------------------------

         :::::::::::::::::::::::::::::::::::::::::::::::::::::
         ::                  THERMODYNAMIC                  ::
         :::::::::::::::::::::::::::::::::::::::::::::::::::::
         :: total free energy         -80.560491633993 Eh   ::
         ::.................................................::
         :: total energy              -80.934986399534 Eh   ::
         :: zero point energy           0.439144128843 Eh   ::
         :: G(RRHO) w/o ZPVE           -0.064649363302 Eh   ::
         :: G(RRHO) contrib.            0.374494765541 Eh   ::
         :::::::::::::::::::::::::::::::::::::::::::::::::::::

           -------------------------------------------------
          | TOTAL ENERGY              -80.934986399534 Eh   |
          | TOTAL ENTHALPY            -80.460970727228 Eh   |
          | TOTAL FREE ENERGY         -80.560491633993 Eh   |
          | GRADIENT NORM               0.000051081637 Eh/α |
          | HOMO-LUMO GAP               5.540215832455 eV   |
           -------------------------------------------------

------------------------------------------------------------------------
 * finished run on 2024/01/10 at 15:36:25.066     
------------------------------------------------------------------------
 total:
 * wall-time:     0 d,  0 h,  0 min, 14.243 sec
 *  cpu-time:     0 d,  0 h,  0 min, 14.177 sec
 * ratio c/w:     0.995 speedup
 SCF:
 * wall-time:     0 d,  0 h,  0 min,  0.098 sec
 *  cpu-time:     0 d,  0 h,  0 min,  0.058 sec
 * ratio c/w:     0.597 speedup
 analytical hessian:
 * wall-time:     0 d,  0 h,  0 min, 14.118 sec
 *  cpu-time:     0 d,  0 h,  0 min, 14.092 sec
 * ratio c/w:     0.998 speedup

