 Entering Gaussian System
 *********************************************
 Gaussian 98:
 frequency output generated by the xtb code
 *********************************************
                         Standard orientation:
 --------------------------------------------------------------------
  Center     Atomic     Atomic              Coordinates (Angstroms)
  Number     Number      Type              X           Y           Z
 --------------------------------------------------------------------
    1          8             0       -1.144840   -2.087646   -2.479849
    2          6             0        0.202013   -1.705942   -2.445820
    3          1             0        0.778135   -2.572095   -2.777637
    4          1             0        0.388428   -0.893166   -3.161803
    5          6             0        0.674973   -1.188748   -1.083426
    6          1             0        0.009098   -0.385092   -0.764522
    7          1             0        1.685496   -0.789027   -1.193890
    8          7             0        0.732590   -2.179065    0.026493
    9          6             0       -0.608545   -2.692030    0.346457
   10          1             0       -1.211330   -1.882046    0.754552
   11          1             0       -0.533746   -3.483410    1.089837
   12          1             0       -1.082375   -3.079463   -0.553568
   13          6             0        1.271673   -1.482089    1.206433
   14          1             0        0.650197   -0.619533    1.435667
   15          1             0        2.283104   -1.146956    0.983264
   16          1             0        1.285119   -2.156079    2.060047
   17          6             0        1.640491   -3.283397   -0.317411
   18          1             0        2.601529   -2.866867   -0.616713
   19          1             0        1.225342   -3.879289   -1.126090
   20          1             0        1.784062   -3.925820    0.549377
   21          1             0       -1.675771   -1.312566   -2.206294
   22          6             0        4.286303    0.260158   -0.518849
   23          8             0        3.693409   -0.810894   -0.569099
   24          7             0        5.637674    0.331071   -0.632492
   25          1             0        6.128488   -0.506119   -0.892620
   26          1             0        6.115511    1.206598   -0.744693
   27          7             0        3.643732    1.435550   -0.336767
   28          1             0        4.166925    2.276287   -0.172819
   29          1             0        2.648324    1.437912   -0.129777
   30          6             0       -1.402949    0.869752    2.851850
   31          8             0       -1.609457   -0.111167    2.143273
   32          7             0       -1.715663    2.124601    2.453386
   33          1             0       -1.878383    2.268101    1.465001
   34          1             0       -1.390434    2.914978    2.981684
   35          7             0       -0.859686    0.748538    4.086801
   36          1             0       -0.817186    1.526263    4.720361
   37          1             0       -0.774423   -0.174191    4.475856
   38          6             0       -3.563573   -0.259446   -0.870544
   39          8             0       -2.446696    0.018646   -1.323758
   40          7             0       -4.567693   -0.643101   -1.687212
   41          1             0       -4.400946   -0.683479   -2.677017
   42          1             0       -5.484698   -0.864606   -1.345910
   43          7             0       -3.831099   -0.165219    0.441918
   44          1             0       -4.703834   -0.495802    0.812449
   45          1             0       -3.039219   -0.079171    1.082679
   46          6             0        0.091916    2.581758   -0.310671
   47          8             0        0.794339    1.674248    0.111453
   48          7             0        0.575899    3.837949   -0.485808
   49          1             0        1.543416    4.018544   -0.289094
   50          1             0        0.021689    4.583018   -0.865942
   51          7             0       -1.242007    2.429785   -0.545631
   52          1             0       -1.709719    3.145417   -1.078472
   53          1             0       -1.582933    1.481812   -0.731629
 --------------------------------------------------------------------
     1 basis functions        1 primitive gaussians
     1 alpha electrons        1 beta electrons

 Harmonic frequencies (cm**-1), IR intensities (km*mol⁻¹),
 Raman scattering activities (A**4/amu), Raman depolarization ratios,
 reduced masses (AMU), force constants (mDyne/A) and normal coordinates:
                      1                      2                      3
                        a                      a                      a 
 Frequencies --     9.4168                20.7228                25.8876
 Red. masses --    11.7136                12.3341                12.1830
 Frc consts  --     0.0000                 0.0000                 0.0000
 IR Inten    --     0.7646                 2.2523                 0.1259
 Raman Activ --     0.0000                 0.0000                 0.0000
 Depolar     --     0.0000                 0.0000                 0.0000
 Atom AN      X      Y      Z        X      Y      Z        X      Y      Z
   1   8    -0.01   0.09  -0.07     0.03   0.16  -0.11     0.05   0.05  -0.21
   2   6    -0.03   0.14  -0.02     0.02   0.14  -0.04     0.05  -0.00  -0.14
   3   1     0.00   0.06  -0.03     0.01   0.05  -0.02     0.01  -0.01  -0.03
   4   1    -0.02   0.06   0.02     0.01   0.05   0.00     0.03  -0.01  -0.05
   5   6    -0.05   0.03   0.03    -0.01   0.05   0.00     0.02   0.01  -0.14
   6   1    -0.02  -0.01   0.03    -0.00   0.01   0.01     0.02   0.02  -0.06
   7   1    -0.02   0.02   0.02    -0.00   0.02   0.01     0.01  -0.01  -0.03
   8   7    -0.04  -0.08  -0.07    -0.03  -0.01  -0.06    -0.08   0.05  -0.11
   9   6    -0.03  -0.11  -0.10    -0.03  -0.05  -0.13    -0.11   0.13  -0.14
  10   1    -0.01  -0.04  -0.02    -0.02  -0.02  -0.03    -0.02   0.05  -0.05
  11   1    -0.01  -0.05  -0.05    -0.01  -0.02  -0.05    -0.05   0.04  -0.03
  12   1    -0.01  -0.02  -0.04     0.00  -0.00  -0.05    -0.03   0.04  -0.04
  13   6    -0.04  -0.17   0.00    -0.07  -0.08   0.00    -0.09   0.06  -0.10
  14   1    -0.02  -0.06   0.03    -0.04  -0.04   0.02    -0.01   0.03  -0.05
  15   1    -0.02  -0.03   0.01    -0.03  -0.00   0.01    -0.02  -0.00  -0.02
  16   1    -0.00  -0.08  -0.02    -0.01  -0.04  -0.02    -0.05   0.03  -0.02
  17   6    -0.03  -0.03  -0.16    -0.00   0.02  -0.10    -0.12  -0.01  -0.03
  18   1    -0.01   0.00  -0.04     0.00   0.01  -0.01    -0.03  -0.02  -0.00
  19   1    -0.01   0.01  -0.06     0.01   0.02  -0.05    -0.03  -0.00  -0.01
  20   1    -0.01  -0.03  -0.06    -0.01  -0.01  -0.04    -0.06   0.00  -0.00
  21   1    -0.01   0.01  -0.01     0.01   0.03  -0.01     0.02   0.01  -0.04
  22   6    -0.05   0.04   0.20     0.05  -0.05   0.06     0.00  -0.09  -0.01
  23   8    -0.07   0.05   0.09    -0.01  -0.03   0.12     0.00  -0.11  -0.03
  24   7    -0.05   0.04   0.33     0.07  -0.15   0.20     0.00  -0.09  -0.01
  25   1    -0.01   0.01   0.08     0.01  -0.05   0.09     0.00  -0.02  -0.01
  26   1    -0.01   0.01   0.12     0.03  -0.05   0.04     0.00  -0.02   0.00
  27   7    -0.06   0.03   0.27     0.10  -0.00  -0.12     0.00  -0.10   0.02
  28   1    -0.02   0.00   0.11     0.04  -0.00  -0.04     0.00  -0.03   0.01
  29   1    -0.02   0.01   0.05     0.02   0.02  -0.06     0.00  -0.03   0.01
  30   6     0.18   0.05  -0.12    -0.04  -0.02   0.12    -0.01   0.20   0.04
  31   8     0.17   0.01  -0.06     0.09  -0.02   0.10     0.05   0.21   0.05
  32   7     0.02   0.02  -0.12     0.12  -0.01   0.04    -0.13   0.19   0.06
  33   1    -0.03  -0.01  -0.03     0.09  -0.00  -0.00    -0.04   0.05   0.02
  34   1     0.02   0.02  -0.05     0.00  -0.00   0.03    -0.05   0.06   0.01
  35   7     0.40   0.14  -0.21    -0.34  -0.03   0.26     0.03   0.25   0.03
  36   1     0.12   0.05  -0.07    -0.12  -0.01   0.07    -0.00   0.07   0.01
  37   1     0.15   0.04  -0.05    -0.12  -0.01   0.08     0.04   0.07   0.00
  38   6    -0.05  -0.04   0.08     0.02  -0.06   0.10     0.11  -0.16   0.04
  39   8    -0.10  -0.02   0.02    -0.01   0.02   0.09     0.09  -0.06   0.03
  40   7    -0.11  -0.05   0.15     0.02  -0.10   0.13     0.19  -0.44   0.07
  41   1    -0.05  -0.00   0.04    -0.00  -0.01   0.03     0.05  -0.13   0.02
  42   1    -0.02  -0.01   0.06     0.01  -0.04   0.04     0.06  -0.13   0.02
  43   7     0.03  -0.06   0.11     0.07  -0.15   0.13     0.08  -0.05   0.03
  44   1     0.02  -0.02   0.04     0.02  -0.05   0.04     0.03  -0.04   0.01
  45   1     0.02  -0.01   0.01     0.02  -0.03   0.03     0.02   0.03   0.01
  46   6    -0.03  -0.01  -0.07    -0.00   0.09  -0.19    -0.03  -0.01   0.13
  47   8    -0.08   0.01   0.05     0.09   0.13  -0.32    -0.01  -0.05   0.06
  48   7     0.01  -0.04  -0.14    -0.06   0.10  -0.34    -0.06   0.02   0.30
  49   1     0.00  -0.01  -0.03    -0.01   0.04  -0.14    -0.01   0.00   0.08
  50   1     0.02  -0.02  -0.07    -0.04   0.02  -0.07    -0.01   0.01   0.09
  51   7    -0.01  -0.01  -0.16    -0.05   0.06   0.04    -0.02  -0.02   0.10
  52   1     0.01  -0.01  -0.06    -0.04   0.01   0.03    -0.01   0.00   0.04
  53   1    -0.01  -0.00  -0.02    -0.01   0.01   0.02    -0.00  -0.00   0.02
                      4                      5                      6
                        a                      a                      a 
 Frequencies --    29.6299                33.9861                40.8678
 Red. masses --    11.7289                11.9303                12.3344
 Frc consts  --     0.0000                 0.0000                 0.0000
 IR Inten    --     0.9091                 1.1354                 4.5258
 Raman Activ --     0.0000                 0.0000                 0.0000
 Depolar     --     0.0000                 0.0000                 0.0000
 Atom AN      X      Y      Z        X      Y      Z        X      Y      Z
   1   8     0.12   0.08   0.02    -0.04  -0.00   0.03    -0.12  -0.20   0.06
   2   6     0.09   0.10   0.11    -0.04   0.03  -0.00    -0.09  -0.23  -0.07
   3   1     0.04   0.04   0.02    -0.01   0.02  -0.01    -0.04  -0.08  -0.00
   4   1     0.03   0.05   0.05    -0.02   0.02   0.01    -0.03  -0.09  -0.05
   5   6     0.02  -0.02   0.17    -0.02  -0.01   0.00     0.01  -0.11  -0.15
   6   1     0.00  -0.01   0.06    -0.01  -0.01   0.02     0.01  -0.02  -0.05
   7   1     0.01   0.00   0.07    -0.01   0.01  -0.00     0.00  -0.04  -0.07
   8   7     0.00  -0.13   0.09     0.06  -0.05  -0.04     0.07  -0.02  -0.07
   9   6    -0.00  -0.16  -0.01     0.09  -0.11  -0.02     0.09  -0.03   0.02
  10   1    -0.01  -0.06   0.01     0.02  -0.04   0.01     0.02  -0.00  -0.01
  11   1    -0.01  -0.06  -0.02     0.04  -0.04  -0.02     0.04   0.01   0.02
  12   1     0.01  -0.03  -0.02     0.02  -0.03  -0.01     0.02  -0.03   0.02
  13   6    -0.04  -0.22   0.16     0.06  -0.08  -0.03     0.07   0.10  -0.13
  14   1    -0.03  -0.08   0.07     0.01  -0.04   0.01     0.01   0.03  -0.05
  15   1    -0.02  -0.04   0.06     0.01  -0.00  -0.01     0.02   0.03  -0.05
  16   1    -0.00  -0.09   0.03     0.04  -0.03  -0.02     0.03   0.05  -0.02
  17   6     0.03  -0.07   0.01     0.09   0.00  -0.11     0.09  -0.02   0.01
  18   1     0.01  -0.01   0.03     0.02   0.01  -0.04     0.02  -0.00  -0.01
  19   1     0.02   0.00  -0.02     0.02   0.00  -0.04     0.03  -0.03   0.02
  20   1    -0.00  -0.05  -0.01     0.04  -0.01  -0.04     0.03   0.01   0.02
  21   1     0.02   0.02  -0.00    -0.01  -0.00   0.01    -0.02  -0.04   0.00
  22   6    -0.03  -0.06  -0.05     0.01   0.02  -0.05     0.07  -0.02   0.06
  23   8    -0.00  -0.10   0.30    -0.01   0.04  -0.18     0.07  -0.01  -0.15
  24   7    -0.04  -0.07  -0.18     0.00   0.03  -0.14     0.10  -0.04   0.38
  25   1    -0.01  -0.03   0.01    -0.01   0.02  -0.08     0.04  -0.01   0.10
  26   1    -0.02  -0.02  -0.12     0.00   0.01  -0.01     0.03  -0.01   0.14
  27   7    -0.04  -0.04  -0.33     0.03   0.00   0.16     0.05  -0.03   0.02
  28   1    -0.01   0.01  -0.17     0.01  -0.01   0.07     0.01  -0.01   0.05
  29   1    -0.01   0.00  -0.07     0.01  -0.01   0.05     0.00  -0.01  -0.05
  30   6     0.03   0.02  -0.07    -0.14   0.08  -0.01     0.04   0.04   0.01
  31   8     0.16  -0.02  -0.07     0.18  -0.01   0.04     0.16   0.05  -0.03
  32   7    -0.15  -0.03  -0.07    -0.33  -0.00  -0.17    -0.03   0.02   0.02
  33   1    -0.05  -0.01  -0.02    -0.05  -0.03  -0.06     0.00   0.01   0.00
  34   1    -0.07   0.00  -0.02    -0.16   0.03  -0.05    -0.03   0.01   0.02
  35   7     0.09   0.10  -0.09    -0.36   0.31   0.10    -0.00   0.05   0.03
  36   1     0.00   0.03  -0.03    -0.16   0.10   0.01    -0.02   0.01   0.01
  37   1     0.06   0.03  -0.02    -0.05   0.10   0.05     0.01   0.01   0.00
  38   6     0.03   0.03  -0.05    -0.00   0.01   0.06    -0.01   0.08  -0.02
  39   8     0.00   0.07  -0.11    -0.04   0.03  -0.01    -0.03  -0.01  -0.12
  40   7    -0.03   0.11  -0.02    -0.11   0.19   0.11    -0.13   0.22   0.06
  41   1    -0.02   0.05  -0.01    -0.05   0.08   0.02    -0.06   0.05   0.01
  42   1    -0.00   0.02   0.00    -0.02   0.04   0.05    -0.03   0.07   0.04
  43   7     0.11  -0.08  -0.03     0.14  -0.19   0.10     0.11   0.09   0.01
  44   1     0.04  -0.03   0.00     0.04  -0.04   0.04     0.03   0.05   0.02
  45   1     0.04  -0.02  -0.02     0.05  -0.06   0.01     0.04   0.01  -0.01
  46   6    -0.07   0.12   0.04     0.10  -0.07   0.04    -0.11   0.02  -0.02
  47   8    -0.01   0.11  -0.12     0.04  -0.09   0.15    -0.02  -0.03  -0.32
  48   7    -0.18   0.20   0.29     0.18  -0.09   0.06    -0.25   0.11   0.28
  49   1    -0.05   0.07   0.09     0.04  -0.03   0.05    -0.06   0.03   0.02
  50   1    -0.06   0.06   0.11     0.06  -0.02   0.01    -0.08   0.03   0.08
  51   7    -0.06   0.07   0.00     0.13  -0.03  -0.10    -0.13  -0.03   0.06
  52   1    -0.03   0.03   0.02     0.06  -0.01  -0.05    -0.06   0.01   0.06
  53   1     0.00   0.02  -0.03     0.03  -0.01  -0.03    -0.02  -0.01  -0.02
                      7                      8                      9
                        a                      a                      a 
 Frequencies --    52.0177                55.8914                57.9046
 Red. masses --    12.3372                12.2389                12.3592
 Frc consts  --     0.0000                 0.0000                 0.0000
 IR Inten    --     1.1109                 3.6554                 1.8342
 Raman Activ --     0.0000                 0.0000                 0.0000
 Depolar     --     0.0000                 0.0000                 0.0000
 Atom AN      X      Y      Z        X      Y      Z        X      Y      Z
   1   8     0.02  -0.16  -0.15     0.05   0.13  -0.09    -0.19  -0.02   0.07
   2   6     0.03  -0.16  -0.07     0.09  -0.06  -0.09    -0.13  -0.15   0.03
   3   1     0.01  -0.05  -0.00    -0.01  -0.04  -0.01    -0.06  -0.07   0.03
   4   1     0.02  -0.05  -0.02     0.06  -0.04  -0.04    -0.01  -0.07  -0.01
   5   6    -0.05  -0.14  -0.05     0.14  -0.02  -0.13    -0.09  -0.06  -0.02
   6   1    -0.03  -0.05  -0.03     0.07   0.03  -0.05    -0.03  -0.01  -0.02
   7   1    -0.02  -0.03  -0.00     0.06  -0.05  -0.04    -0.03  -0.02  -0.02
   8   7    -0.07  -0.14  -0.05     0.00   0.06  -0.05    -0.07   0.00   0.04
   9   6    -0.06  -0.20  -0.13    -0.05   0.19  -0.07    -0.05  -0.02   0.07
  10   1    -0.04  -0.06  -0.05    -0.00   0.08  -0.04    -0.02  -0.01   0.02
  11   1    -0.02  -0.05  -0.03    -0.04   0.07  -0.00    -0.01  -0.00   0.02
  12   1     0.01  -0.07  -0.05    -0.02   0.05  -0.02    -0.02  -0.01   0.02
  13   6    -0.18  -0.09  -0.01     0.01   0.10  -0.07    -0.08   0.08  -0.00
  14   1    -0.08  -0.05  -0.01     0.03   0.06  -0.05    -0.03   0.02  -0.01
  15   1    -0.06   0.01   0.01     0.02  -0.01  -0.01    -0.03   0.03  -0.01
  16   1    -0.04  -0.03  -0.01    -0.04   0.05  -0.00    -0.02   0.04   0.01
  17   6     0.02  -0.08   0.03    -0.08  -0.05   0.08    -0.04   0.01   0.10
  18   1     0.01  -0.01   0.03    -0.00  -0.05   0.03    -0.02   0.01   0.02
  19   1     0.03  -0.03  -0.00    -0.02  -0.02   0.02    -0.01  -0.02   0.04
  20   1    -0.00  -0.02   0.01    -0.06  -0.00   0.04    -0.00   0.02   0.04
  21   1     0.01  -0.04  -0.04     0.03   0.04  -0.01    -0.02   0.02   0.00
  22   6    -0.15   0.15   0.02     0.03  -0.01   0.01    -0.10   0.02  -0.00
  23   8    -0.13   0.15   0.15     0.18  -0.10   0.17    -0.16   0.05  -0.12
  24   7    -0.17   0.21  -0.03     0.03   0.15   0.17    -0.11  -0.02   0.01
  25   1    -0.04   0.05   0.01     0.04   0.04   0.10    -0.04  -0.00  -0.02
  26   1    -0.06   0.06  -0.04    -0.02   0.05   0.00    -0.02  -0.01   0.03
  27   7    -0.20   0.16  -0.09    -0.14  -0.04  -0.33    -0.07   0.02   0.13
  28   1    -0.06   0.05  -0.04    -0.06   0.01  -0.09    -0.01  -0.00   0.05
  29   1    -0.05   0.03  -0.00    -0.04  -0.04  -0.07    -0.02   0.01   0.01
  30   6     0.07   0.04   0.10    -0.04  -0.04   0.06     0.07  -0.07   0.03
  31   8     0.13   0.07   0.07    -0.13  -0.13   0.23     0.02  -0.14   0.13
  32   7     0.14   0.06   0.10    -0.13  -0.09  -0.03     0.15  -0.09  -0.09
  33   1     0.06   0.02   0.02    -0.07  -0.05  -0.01     0.03  -0.04  -0.02
  34   1     0.03   0.01   0.04    -0.02  -0.01  -0.04     0.05  -0.02  -0.04
  35   7    -0.07   0.01   0.17     0.14   0.13  -0.00     0.09   0.01   0.03
  36   1    -0.02   0.00   0.05     0.05   0.05  -0.03     0.03   0.02  -0.01
  37   1    -0.03   0.00   0.04     0.06   0.05   0.03     0.01   0.01   0.03
  38   6     0.16   0.09  -0.01    -0.01   0.01   0.08     0.14  -0.06  -0.06
  39   8     0.20  -0.06  -0.07     0.03  -0.00   0.16     0.10   0.23  -0.03
  40   7     0.12   0.11   0.04    -0.04   0.32  -0.02     0.19  -0.04  -0.14
  41   1     0.03   0.00   0.01     0.00   0.10  -0.00     0.05   0.05  -0.04
  42   1     0.03   0.07   0.02    -0.01   0.05  -0.02     0.07  -0.09  -0.05
  43   7     0.20   0.27  -0.02    -0.01  -0.24   0.09     0.16  -0.43  -0.04
  44   1     0.05   0.11   0.01    -0.02  -0.05   0.01     0.05  -0.16  -0.03
  45   1     0.06   0.06  -0.01    -0.01  -0.08   0.04     0.03  -0.09  -0.00
  46   6     0.00  -0.06   0.01    -0.02  -0.08  -0.02     0.03   0.16  -0.04
  47   8    -0.07  -0.11   0.06    -0.12  -0.14   0.03    -0.05   0.09  -0.10
  48   7     0.09  -0.11  -0.05     0.09  -0.14  -0.08     0.13   0.16   0.10
  49   1     0.03  -0.04  -0.01     0.02  -0.05   0.00     0.04   0.02   0.03
  50   1     0.04  -0.02  -0.02     0.04  -0.02  -0.01     0.05   0.06   0.03
  51   7    -0.01  -0.00   0.01    -0.03   0.01  -0.05     0.04   0.27  -0.12
  52   1     0.01   0.00  -0.01     0.01   0.01  -0.02     0.03   0.09  -0.02
  53   1    -0.00   0.00  -0.00    -0.02   0.01  -0.01    -0.00   0.08  -0.05
                     10                     11                     12
                        a                      a                      a 
 Frequencies --    60.8914                63.8433                69.3389
 Red. masses --    12.9373                12.4253                11.7720
 Frc consts  --     0.0000                 0.0000                 0.0000
 IR Inten    --     5.9957                 1.0440                 1.0253
 Raman Activ --     0.0000                 0.0000                 0.0000
 Depolar     --     0.0000                 0.0000                 0.0000
 Atom AN      X      Y      Z        X      Y      Z        X      Y      Z
   1   8     0.15  -0.16  -0.16     0.14   0.08  -0.02    -0.05  -0.04  -0.04
   2   6     0.09  -0.01  -0.06     0.13   0.01   0.01    -0.04  -0.05  -0.01
   3   1     0.06   0.01  -0.01     0.03  -0.01   0.01    -0.01  -0.02   0.02
   4   1     0.02   0.00  -0.01     0.06  -0.00   0.00    -0.00  -0.03  -0.02
   5   6    -0.04   0.04  -0.04     0.14  -0.02   0.01    -0.09   0.03  -0.03
   6   1    -0.04  -0.00  -0.03     0.06   0.02  -0.00    -0.05  -0.00  -0.02
   7   1    -0.02   0.03   0.01     0.05  -0.03   0.01    -0.03   0.03  -0.01
   8   7    -0.05   0.05  -0.03     0.03  -0.00   0.03    -0.04   0.08   0.01
   9   6    -0.03  -0.03  -0.08    -0.03   0.15   0.03     0.01  -0.08  -0.06
  10   1    -0.03  -0.02  -0.04     0.02   0.06   0.01    -0.03  -0.04  -0.04
  11   1    -0.01  -0.00  -0.02    -0.04   0.04   0.01     0.02  -0.01  -0.01
  12   1     0.01  -0.02  -0.03    -0.02   0.06   0.01     0.03  -0.05  -0.02
  13   6    -0.14   0.09  -0.00     0.10  -0.04   0.02    -0.20   0.18   0.02
  14   1    -0.06   0.02  -0.01     0.06   0.01  -0.00    -0.10   0.03  -0.01
  15   1    -0.04   0.04   0.01     0.04  -0.05   0.01    -0.07   0.09   0.02
  16   1    -0.04   0.03   0.00    -0.00  -0.01   0.01    -0.04   0.06   0.01
  17   6     0.03   0.09   0.03    -0.10  -0.11   0.05     0.13   0.18   0.10
  18   1     0.01   0.04   0.02    -0.02  -0.07   0.01     0.03   0.08   0.05
  19   1     0.03   0.02   0.01    -0.05  -0.03   0.02     0.08   0.03   0.02
  20   1     0.01   0.03   0.01    -0.05  -0.03   0.02     0.04   0.06   0.04
  21   1     0.02  -0.06  -0.02     0.04   0.03  -0.02    -0.01  -0.01  -0.02
  22   6     0.01  -0.05   0.01    -0.01  -0.07   0.03     0.00  -0.01   0.01
  23   8    -0.11   0.00  -0.00     0.11  -0.15  -0.02    -0.11   0.05   0.09
  24   7    -0.01  -0.17  -0.21    -0.05   0.09  -0.28     0.01  -0.15  -0.02
  25   1    -0.03  -0.05  -0.09     0.00   0.05  -0.11    -0.02  -0.06   0.00
  26   1     0.02  -0.06  -0.03    -0.04   0.04  -0.03     0.02  -0.05  -0.02
  27   7     0.14  -0.03   0.27    -0.09  -0.19   0.41     0.11   0.06  -0.06
  28   1     0.06  -0.01   0.04    -0.04  -0.03   0.07     0.05   0.00  -0.02
  29   1     0.04   0.02   0.06    -0.03  -0.06   0.09     0.03   0.03  -0.00
  30   6    -0.02  -0.05   0.05     0.07   0.05   0.06     0.04   0.07  -0.01
  31   8    -0.15  -0.15   0.22     0.16   0.10  -0.01     0.16   0.17  -0.18
  32   7    -0.02  -0.09  -0.08     0.10   0.07   0.13    -0.18   0.09   0.22
  33   1    -0.03  -0.05  -0.02     0.04   0.03   0.03    -0.05   0.06   0.06
  34   1     0.02  -0.01  -0.06     0.01   0.01   0.05    -0.07   0.01   0.09
  35   7     0.11   0.10   0.01    -0.02  -0.03   0.10     0.14  -0.06  -0.07
  36   1     0.06   0.05  -0.03    -0.02  -0.02   0.04     0.02  -0.04   0.01
  37   1     0.03   0.04   0.03    -0.01  -0.01   0.01     0.09  -0.03  -0.06
  38   6     0.06  -0.01   0.07     0.02   0.03  -0.09    -0.02  -0.05  -0.06
  39   8     0.18  -0.31   0.18    -0.03   0.08  -0.19    -0.03   0.02  -0.05
  40   7     0.02   0.28  -0.01    -0.08   0.15  -0.03    -0.06   0.16  -0.11
  41   1     0.03   0.05   0.00    -0.04   0.06  -0.01    -0.02   0.07  -0.03
  42   1    -0.01   0.11  -0.02    -0.01   0.01   0.01    -0.01   0.00  -0.03
  43   7    -0.02   0.05   0.05     0.16  -0.14  -0.05     0.05  -0.34  -0.04
  44   1    -0.04   0.08  -0.00     0.05  -0.03   0.00     0.01  -0.08  -0.01
  45   1    -0.02  -0.02   0.03     0.05  -0.02  -0.03     0.01  -0.06  -0.01
  46   6    -0.04   0.08  -0.04    -0.17  -0.01  -0.05     0.04  -0.07   0.08
  47   8     0.07   0.20  -0.00    -0.19  -0.01  -0.05     0.13  -0.00   0.11
  48   7    -0.22   0.16  -0.01    -0.15  -0.05  -0.20     0.02  -0.11  -0.23
  49   1    -0.07   0.08   0.01    -0.04  -0.01  -0.06     0.01  -0.01  -0.09
  50   1    -0.08   0.02  -0.01    -0.05  -0.01  -0.04    -0.02  -0.04  -0.03
  51   7    -0.01  -0.10  -0.12    -0.21   0.01   0.08    -0.00  -0.10   0.33
  52   1    -0.02  -0.05  -0.04    -0.06   0.00   0.02    -0.01  -0.04   0.08
  53   1     0.03  -0.04  -0.02    -0.05   0.00   0.01     0.00  -0.03   0.10
                     13                     14                     15
                        a                      a                      a 
 Frequencies --    71.3870                75.1014                83.1763
 Red. masses --    12.5776                12.2911                12.3572
 Frc consts  --     0.0000                 0.0000                 0.0000
 IR Inten    --     0.4730                 3.0756                 6.8716
 Raman Activ --     0.0000                 0.0000                 0.0000
 Depolar     --     0.0000                 0.0000                 0.0000
 Atom AN      X      Y      Z        X      Y      Z        X      Y      Z
   1   8     0.06  -0.04  -0.07     0.15  -0.15  -0.00     0.09  -0.03  -0.05
   2   6     0.03   0.06  -0.02     0.06   0.12   0.06     0.05   0.07  -0.00
   3   1     0.03   0.03  -0.00     0.07   0.08  -0.01     0.04   0.03   0.02
   4   1    -0.00   0.02   0.00    -0.02   0.07   0.04     0.01   0.02  -0.01
   5   6    -0.04   0.06   0.00    -0.06   0.07   0.12    -0.04   0.14   0.00
   6   1    -0.02   0.01  -0.01    -0.04  -0.00   0.04    -0.03   0.03  -0.01
   7   1    -0.01   0.03   0.01    -0.02   0.04   0.05    -0.02   0.06   0.00
   8   7    -0.06   0.07   0.01    -0.06  -0.01   0.06     0.02   0.19   0.03
   9   6    -0.07   0.07  -0.01    -0.07   0.12   0.16     0.05   0.07   0.01
  10   1    -0.02   0.02  -0.01     0.02   0.04   0.08    -0.00   0.00   0.01
  11   1    -0.02   0.02  -0.00    -0.02   0.01   0.02     0.03   0.01  -0.01
  12   1    -0.02   0.02  -0.01    -0.06   0.07   0.05     0.02   0.02  -0.00
  13   6    -0.07   0.07   0.01     0.14  -0.13   0.04    -0.07   0.25   0.03
  14   1    -0.02   0.02  -0.00     0.08  -0.01   0.03    -0.02   0.08  -0.02
  15   1    -0.02   0.02   0.01     0.05  -0.08  -0.01    -0.01   0.06   0.03
  16   1    -0.03   0.02   0.00     0.03  -0.05   0.00    -0.04   0.09   0.02
  17   6    -0.06   0.06   0.02    -0.22  -0.09  -0.11     0.11   0.24   0.09
  18   1    -0.01   0.02   0.01    -0.07  -0.05  -0.08     0.02   0.09   0.02
  19   1    -0.01   0.02   0.00    -0.12  -0.01  -0.01     0.05   0.05   0.03
  20   1    -0.02   0.02   0.01    -0.03  -0.03  -0.04     0.05   0.09   0.03
  21   1    -0.01  -0.02  -0.03     0.00  -0.06  -0.01     0.00  -0.01  -0.04
  22   6     0.03   0.06   0.03    -0.08   0.01  -0.12    -0.08  -0.15  -0.02
  23   8     0.00   0.08   0.15    -0.15   0.07  -0.39    -0.05  -0.19  -0.04
  24   7     0.03   0.03  -0.04    -0.04  -0.08   0.28    -0.08  -0.13   0.10
  25   1     0.00  -0.00   0.00    -0.02  -0.02   0.06    -0.01  -0.03   0.04
  26   1     0.01   0.00  -0.04     0.00  -0.03   0.09    -0.03  -0.03   0.02
  27   7     0.07   0.10  -0.05    -0.05   0.06  -0.25    -0.14  -0.17  -0.13
  28   1     0.02   0.03  -0.03     0.00  -0.01   0.04    -0.04  -0.05  -0.02
  29   1     0.02   0.03   0.01    -0.01   0.02  -0.06    -0.03  -0.05  -0.02
  30   6     0.10   0.06   0.01     0.02   0.04   0.05     0.05  -0.13   0.02
  31   8    -0.02   0.09   0.02     0.04   0.05   0.05     0.19  -0.17   0.02
  32   7     0.47   0.12  -0.08     0.01   0.04   0.06    -0.03  -0.17  -0.01
  33   1     0.14   0.03  -0.02     0.01   0.01   0.02    -0.01  -0.05  -0.00
  34   1     0.16   0.02  -0.03     0.00   0.01   0.02    -0.04  -0.03   0.00
  35   7    -0.10  -0.02   0.10     0.01   0.04   0.06    -0.02  -0.09   0.06
  36   1    -0.00  -0.00   0.02     0.00   0.01   0.02    -0.03  -0.02   0.01
  37   1    -0.10  -0.01   0.04     0.00   0.01   0.02     0.02  -0.02   0.02
  38   6    -0.14  -0.10  -0.05     0.09  -0.04  -0.08     0.03   0.04  -0.03
  39   8    -0.19  -0.12  -0.16     0.14  -0.14  -0.07    -0.06   0.04  -0.26
  40   7    -0.27   0.06   0.01     0.06   0.13  -0.12    -0.09  -0.13   0.18
  41   1    -0.10   0.03  -0.00     0.02   0.04  -0.03    -0.08  -0.03   0.04
  42   1    -0.06   0.01   0.03     0.01   0.05  -0.04    -0.01  -0.00   0.09
  43   7     0.00  -0.27  -0.02     0.10  -0.12  -0.08     0.22   0.19  -0.00
  44   1     0.00  -0.05   0.01     0.01   0.00  -0.03     0.08   0.04   0.04
  45   1     0.01  -0.05  -0.02     0.02  -0.03  -0.02     0.08   0.03  -0.03
  46   6     0.06  -0.11   0.02    -0.02   0.00   0.07    -0.03   0.02   0.01
  47   8     0.08  -0.11   0.03     0.03   0.11   0.22    -0.13   0.05   0.24
  48   7    -0.03  -0.04   0.31    -0.10   0.02  -0.07     0.03  -0.02  -0.06
  49   1    -0.01  -0.01   0.09    -0.03   0.03  -0.03    -0.01   0.00   0.06
  50   1     0.01  -0.03   0.03    -0.04  -0.02  -0.06     0.02  -0.00  -0.03
  51   7     0.11  -0.20  -0.21    -0.01  -0.11   0.06     0.00   0.03  -0.21
  52   1     0.03  -0.05  -0.05    -0.01  -0.05  -0.01     0.03   0.00  -0.09
  53   1     0.03  -0.05  -0.06     0.02  -0.04   0.02    -0.00   0.01  -0.06
                     16                     17                     18
                        a                      a                      a 
 Frequencies --    87.6131                94.4648               102.2618
 Red. masses --    11.6559                13.7077                12.9527
 Frc consts  --     0.0000                 0.0000                 0.0000
 IR Inten    --     3.7284                 1.7654                 9.9954
 Raman Activ --     0.0000                 0.0000                 0.0000
 Depolar     --     0.0000                 0.0000                 0.0000
 Atom AN      X      Y      Z        X      Y      Z        X      Y      Z
   1   8     0.04   0.08   0.03     0.06   0.06  -0.04     0.21   0.21  -0.13
   2   6     0.02   0.10   0.03     0.04   0.10   0.05     0.23  -0.01   0.05
   3   1     0.01   0.04  -0.01     0.03   0.04   0.01     0.04  -0.03   0.05
   4   1    -0.00   0.04   0.02     0.01   0.04   0.03     0.13  -0.02   0.01
   5   6     0.01   0.05   0.05    -0.05   0.06   0.09     0.12  -0.02   0.08
   6   1    -0.01  -0.01   0.03    -0.03   0.00   0.03     0.04   0.01   0.00
   7   1    -0.01   0.04   0.01    -0.02   0.04   0.04     0.04  -0.02   0.05
   8   7     0.15  -0.02  -0.02    -0.03   0.02   0.05    -0.02   0.01   0.12
   9   6     0.21  -0.23  -0.08    -0.02  -0.02   0.03    -0.07   0.04  -0.05
  10   1     0.02  -0.10  -0.02    -0.00  -0.02   0.04    -0.03   0.02  -0.05
  11   1     0.09  -0.08  -0.03    -0.00  -0.03  -0.02    -0.06   0.02  -0.00
  12   1     0.08  -0.07  -0.03    -0.01   0.02  -0.00     0.01   0.01  -0.03
  13   6     0.01  -0.02   0.05    -0.03  -0.02   0.07    -0.15   0.04   0.15
  14   1    -0.03  -0.04   0.03    -0.01  -0.01   0.03    -0.06   0.01   0.02
  15   1    -0.01   0.04   0.03    -0.01   0.00   0.02    -0.04   0.02   0.07
  16   1     0.02  -0.02   0.00    -0.00  -0.02   0.01    -0.06   0.02   0.05
  17   6     0.33   0.15  -0.08    -0.01   0.05  -0.00     0.01  -0.02   0.26
  18   1     0.08   0.09  -0.01    -0.01   0.03  -0.01     0.01  -0.01   0.09
  19   1     0.13   0.04  -0.04    -0.01   0.02  -0.00     0.02  -0.02   0.07
  20   1     0.12   0.03  -0.04     0.01   0.01  -0.01    -0.02   0.01   0.09
  21   1     0.01   0.01   0.02     0.00   0.01  -0.04     0.07   0.06  -0.01
  22   6    -0.09  -0.13  -0.05     0.04   0.06  -0.03    -0.09   0.04  -0.11
  23   8    -0.02  -0.19  -0.19    -0.07   0.14  -0.08    -0.18   0.09  -0.39
  24   7    -0.09  -0.05   0.08     0.05  -0.06  -0.03    -0.08  -0.04   0.06
  25   1    -0.01   0.00   0.01    -0.01  -0.02  -0.02    -0.03  -0.01  -0.02
  26   1    -0.04  -0.00   0.05     0.04  -0.03   0.00    -0.00  -0.01   0.06
  27   7    -0.19  -0.19  -0.04     0.15   0.11   0.05    -0.04   0.05   0.02
  28   1    -0.06  -0.05   0.02     0.05   0.02   0.02     0.00  -0.01   0.07
  29   1    -0.05  -0.06  -0.02     0.03   0.04  -0.01    -0.02   0.02  -0.02
  30   6    -0.02   0.13   0.05    -0.05  -0.02   0.17     0.02  -0.04  -0.13
  31   8    -0.25   0.15   0.13    -0.19  -0.12   0.37     0.13  -0.01  -0.22
  32   7     0.22   0.19   0.01    -0.15  -0.08   0.08    -0.00  -0.04  -0.09
  33   1     0.05   0.05   0.00    -0.07  -0.05   0.02     0.02   0.00  -0.03
  34   1     0.11   0.04  -0.01    -0.02  -0.00  -0.02    -0.03  -0.01  -0.00
  35   7     0.02   0.11   0.04     0.22   0.16   0.08    -0.06  -0.10  -0.10
  36   1     0.04   0.04   0.00     0.07   0.06  -0.01    -0.04  -0.04  -0.01
  37   1    -0.05   0.03   0.03     0.07   0.06   0.06    -0.01  -0.03  -0.04
  38   6    -0.02  -0.00  -0.02    -0.01   0.05  -0.14    -0.03   0.01   0.12
  39   8     0.03   0.01   0.10    -0.10   0.14  -0.30    -0.01  -0.00   0.19
  40   7     0.06   0.07  -0.15    -0.06  -0.12  -0.02    -0.01   0.06   0.09
  41   1     0.05   0.01  -0.03    -0.05  -0.02  -0.01     0.01   0.00   0.03
  42   1     0.01  -0.00  -0.07    -0.01  -0.02   0.02    -0.00   0.00   0.01
  43   7    -0.13  -0.07  -0.04     0.09   0.11  -0.12    -0.09   0.02   0.12
  44   1    -0.05  -0.01  -0.03     0.04   0.01  -0.02    -0.02   0.00   0.03
  45   1    -0.05  -0.00   0.01     0.03   0.02  -0.04    -0.02  -0.00   0.03
  46   6    -0.09  -0.04   0.02     0.02  -0.15  -0.08     0.02  -0.07  -0.05
  47   8    -0.16  -0.10   0.00     0.04  -0.26  -0.34     0.01  -0.17  -0.24
  48   7    -0.01  -0.07   0.05     0.05  -0.16   0.02     0.05  -0.05   0.15
  49   1     0.00  -0.04   0.01     0.03  -0.07  -0.05     0.03  -0.05  -0.03
  50   1     0.01  -0.01   0.01     0.02  -0.03   0.03     0.04  -0.01   0.01
  51   7    -0.10   0.05   0.02    -0.03  -0.06   0.10     0.00   0.01   0.02
  52   1    -0.02   0.02   0.01    -0.02   0.01   0.07    -0.01   0.02   0.04
  53   1    -0.04   0.02   0.01    -0.02  -0.00  -0.02    -0.01   0.01   0.00
                     19                     20                     21
                        a                      a                      a 
 Frequencies --   113.2367               119.0292               140.2160
 Red. masses --    12.3487                12.3011                12.3795
 Frc consts  --     0.0000                 0.0000                 0.0000
 IR Inten    --    22.2990                 6.8052                13.6710
 Raman Activ --     0.0000                 0.0000                 0.0000
 Depolar     --     0.0000                 0.0000                 0.0000
 Atom AN      X      Y      Z        X      Y      Z        X      Y      Z
   1   8    -0.01  -0.17   0.06    -0.10   0.13   0.02    -0.07  -0.03  -0.02
   2   6    -0.11   0.20   0.03    -0.06  -0.00   0.01    -0.08   0.05   0.06
   3   1     0.03   0.11  -0.02    -0.04  -0.02   0.01    -0.00   0.03   0.01
   4   1    -0.10   0.09   0.03     0.00  -0.01  -0.01    -0.03   0.03   0.03
   5   6    -0.20   0.19   0.07    -0.02   0.00  -0.01    -0.17   0.01   0.11
   6   1    -0.10   0.02   0.03     0.00   0.01  -0.00    -0.06  -0.01   0.03
   7   1    -0.08   0.10   0.03    -0.00  -0.00  -0.01    -0.05   0.01   0.04
   8   7    -0.07   0.16   0.01    -0.02   0.02   0.01    -0.20  -0.04   0.07
   9   6    -0.02   0.11   0.14    -0.01   0.01   0.01    -0.17  -0.16  -0.06
  10   1     0.00   0.03   0.06     0.00  -0.00   0.02    -0.08  -0.06  -0.02
  11   1     0.02   0.03   0.03    -0.00  -0.01  -0.01    -0.05  -0.05  -0.02
  12   1    -0.03   0.03   0.05    -0.01   0.02  -0.00    -0.02  -0.05  -0.03
  13   6     0.05   0.09  -0.01    -0.02   0.04   0.00    -0.30  -0.03   0.11
  14   1     0.03   0.03   0.01    -0.00   0.01  -0.00    -0.12  -0.03   0.04
  15   1     0.02   0.01  -0.02    -0.00   0.01   0.00    -0.09   0.02   0.05
  16   1     0.02   0.02  -0.01    -0.01   0.02   0.00    -0.07  -0.02   0.02
  17   6    -0.09   0.18  -0.16    -0.00   0.02   0.03    -0.07   0.06   0.08
  18   1    -0.04   0.06  -0.07    -0.00   0.01   0.01    -0.02   0.04   0.05
  19   1    -0.06   0.06  -0.04     0.00   0.00   0.01     0.01   0.02   0.01
  20   1     0.01   0.04  -0.06    -0.00   0.01   0.01    -0.03   0.01   0.02
  21   1    -0.04  -0.08   0.03    -0.01   0.05  -0.00    -0.03  -0.02  -0.01
  22   6    -0.02  -0.03   0.06     0.04   0.01   0.00     0.27   0.00  -0.09
  23   8     0.03  -0.07   0.20    -0.00   0.03   0.03     0.47  -0.08  -0.27
  24   7    -0.04   0.05  -0.05     0.04  -0.04  -0.01     0.29   0.28   0.03
  25   1     0.00   0.01   0.00     0.00  -0.02   0.00     0.13   0.11  -0.03
  26   1    -0.02   0.02  -0.03     0.02  -0.02  -0.01     0.02   0.11   0.02
  27   7    -0.08  -0.06   0.06     0.07   0.04  -0.03     0.10  -0.10  -0.03
  28   1    -0.03   0.00  -0.03     0.03   0.00   0.01    -0.01  -0.02   0.05
  29   1    -0.02  -0.02   0.00     0.02   0.01   0.01     0.03  -0.06  -0.01
  30   6     0.03  -0.02  -0.08     0.05  -0.03  -0.17     0.01  -0.00   0.01
  31   8     0.15  -0.00  -0.16     0.01  -0.19   0.01     0.03  -0.00  -0.00
  32   7    -0.02  -0.03  -0.05     0.25  -0.09  -0.47     0.00  -0.01   0.02
  33   1     0.01   0.00  -0.01     0.10  -0.06  -0.14     0.00   0.00   0.01
  34   1    -0.04  -0.01   0.01     0.07  -0.01  -0.15    -0.00  -0.00   0.01
  35   7    -0.05  -0.06  -0.06    -0.10   0.16  -0.09     0.01  -0.02   0.01
  36   1    -0.03  -0.02  -0.00    -0.02   0.08  -0.07     0.00  -0.01   0.00
  37   1     0.00  -0.02  -0.03    -0.07   0.06   0.03     0.01  -0.01  -0.00
  38   6     0.13  -0.02   0.06     0.08   0.07   0.01     0.03  -0.01  -0.01
  39   8     0.22  -0.13   0.17     0.06   0.17  -0.02     0.04  -0.05  -0.00
  40   7     0.18   0.10  -0.04     0.11  -0.01   0.02     0.03  -0.00  -0.02
  41   1     0.07   0.02  -0.01     0.03  -0.00   0.01     0.01   0.01  -0.00
  42   1     0.04   0.04  -0.04     0.04  -0.03   0.01     0.00   0.02  -0.01
  43   7     0.05  -0.02   0.04     0.10   0.08   0.01     0.03  -0.00  -0.01
  44   1    -0.00   0.02  -0.00     0.03   0.00   0.00     0.00   0.01  -0.00
  45   1     0.01  -0.01   0.02     0.03   0.01   0.00     0.01   0.00  -0.00
  46   6    -0.02  -0.12  -0.08    -0.10  -0.10   0.16    -0.04   0.02   0.00
  47   8    -0.07  -0.28  -0.33    -0.03  -0.04   0.19    -0.09   0.02   0.07
  48   7     0.07  -0.14   0.11    -0.18  -0.12  -0.07    -0.02   0.01  -0.00
  49   1     0.03  -0.08  -0.01    -0.05  -0.01  -0.05    -0.00  -0.00  -0.00
  50   1     0.03  -0.01   0.06    -0.08  -0.04  -0.00     0.01  -0.00  -0.03
  51   7    -0.06   0.01   0.03    -0.16  -0.16   0.39    -0.04   0.04  -0.05
  52   1    -0.02   0.03   0.04    -0.06  -0.04   0.12    -0.00   0.01  -0.03
  53   1    -0.03   0.01  -0.01    -0.03  -0.04   0.07    -0.01   0.01  -0.01
                     22                     23                     24
                        a                      a                      a 
 Frequencies --   154.5874               156.2615               179.0265
 Red. masses --    12.7109                12.5401                11.2124
 Frc consts  --     0.0000                 0.0000                 0.0000
 IR Inten    --    30.5803                30.5265                39.0475
 Raman Activ --     0.0000                 0.0000                 0.0000
 Depolar     --     0.0000                 0.0000                 0.0000
 Atom AN      X      Y      Z        X      Y      Z        X      Y      Z
   1   8    -0.16   0.25   0.09    -0.21   0.29   0.09     0.04  -0.06  -0.02
   2   6    -0.08   0.03   0.03    -0.13   0.06   0.04     0.03  -0.01  -0.00
   3   1    -0.06  -0.02   0.01    -0.08  -0.01   0.01     0.02   0.00   0.00
   4   1     0.00  -0.00   0.00    -0.01   0.01   0.01     0.00  -0.00  -0.00
   5   6     0.05  -0.02   0.00     0.03   0.01   0.01    -0.02  -0.00   0.01
   6   1     0.04   0.01   0.01     0.04   0.02   0.01    -0.02  -0.01  -0.00
   7   1     0.02  -0.03  -0.02     0.02  -0.03  -0.02    -0.01   0.01   0.01
   8   7     0.03  -0.01   0.01    -0.00   0.02   0.02     0.00  -0.01  -0.00
   9   6     0.02   0.01  -0.01    -0.01   0.02  -0.02     0.01  -0.03   0.01
  10   1     0.01   0.01  -0.00    -0.00   0.00  -0.00     0.00  -0.01   0.01
  11   1     0.00   0.00  -0.00    -0.01  -0.00  -0.01     0.01  -0.02  -0.01
  12   1     0.01   0.01  -0.00    -0.00   0.01  -0.01    -0.00   0.00   0.00
  13   6     0.02  -0.01   0.01    -0.03   0.02   0.03     0.02  -0.02  -0.01
  14   1     0.01  -0.00   0.00    -0.02  -0.00   0.02     0.02   0.01  -0.02
  15   1     0.01  -0.00   0.00    -0.01   0.02   0.01     0.01  -0.03   0.00
  16   1     0.01  -0.00   0.00     0.01   0.00   0.00    -0.02   0.00   0.01
  17   6     0.03  -0.02   0.02     0.02   0.02   0.05     0.00  -0.00  -0.03
  18   1     0.01  -0.01   0.02     0.01   0.01   0.04    -0.01   0.00  -0.03
  19   1     0.01  -0.00  -0.00     0.02   0.02  -0.00    -0.01  -0.01   0.00
  20   1    -0.00  -0.01   0.00    -0.02  -0.00   0.01     0.02   0.01  -0.01
  21   1    -0.00   0.08   0.04    -0.02   0.09   0.03     0.00  -0.01  -0.02
  22   6     0.10   0.03  -0.01    -0.10  -0.02   0.01     0.00  -0.01   0.01
  23   8    -0.09   0.15   0.03     0.03  -0.11  -0.02     0.02  -0.02   0.02
  24   7     0.12  -0.23  -0.03    -0.12   0.17   0.02    -0.00   0.02  -0.02
  25   1    -0.02  -0.09  -0.00     0.00   0.07  -0.00     0.00   0.01  -0.01
  26   1     0.08  -0.09  -0.02    -0.07   0.06   0.01    -0.01   0.01  -0.01
  27   7     0.27   0.14  -0.07    -0.23  -0.10   0.05    -0.02  -0.01  -0.02
  28   1     0.10   0.02   0.01    -0.08  -0.02   0.01    -0.00  -0.02   0.05
  29   1     0.08   0.05   0.00    -0.06  -0.04   0.01     0.00  -0.01   0.02
  30   6     0.01   0.01   0.04     0.02  -0.01   0.05    -0.20   0.04  -0.09
  31   8     0.05   0.07  -0.04     0.07  -0.01   0.03    -0.50   0.09  -0.10
  32   7    -0.05   0.03   0.14    -0.07  -0.03   0.07    -0.04   0.11   0.01
  33   1    -0.02   0.02   0.04    -0.01  -0.01   0.02    -0.04   0.05   0.01
  34   1    -0.01   0.00   0.04    -0.03  -0.00   0.01     0.05   0.01  -0.00
  35   7    -0.02  -0.08   0.04     0.03   0.00   0.05    -0.04  -0.18  -0.21
  36   1    -0.00  -0.04   0.03     0.01   0.00   0.01     0.09  -0.06  -0.04
  37   1     0.01  -0.03  -0.01     0.03   0.00   0.01    -0.04  -0.06  -0.09
  38   6     0.09   0.03   0.02     0.05   0.03  -0.03     0.15   0.03   0.11
  39   8     0.13   0.06   0.07     0.07   0.07  -0.00     0.07   0.11  -0.09
  40   7     0.16   0.07  -0.05     0.12   0.02  -0.08     0.00   0.05   0.29
  41   1     0.08  -0.02  -0.01     0.06  -0.03  -0.02    -0.06   0.04   0.07
  42   1     0.05  -0.04  -0.03     0.04  -0.05  -0.03     0.02  -0.00   0.13
  43   7     0.07   0.01   0.01     0.04   0.03  -0.04     0.36  -0.10   0.14
  44   1     0.01   0.01  -0.00     0.01   0.02  -0.01     0.10  -0.03   0.05
  45   1     0.01   0.02   0.01     0.01   0.02  -0.01     0.11  -0.01   0.03
  46   6    -0.20  -0.13  -0.07     0.12  -0.11  -0.10     0.02   0.00  -0.04
  47   8    -0.33  -0.12   0.14     0.37   0.05  -0.09     0.03   0.03  -0.00
  48   7    -0.16  -0.12   0.07    -0.23   0.05   0.06    -0.05   0.07   0.14
  49   1    -0.04  -0.05   0.03    -0.05   0.05  -0.09     0.05  -0.05  -0.21
  50   1     0.01  -0.06  -0.11    -0.07  -0.07  -0.13     0.08  -0.08  -0.29
  51   7    -0.14  -0.08  -0.40     0.20  -0.44  -0.14     0.02  -0.02   0.01
  52   1     0.00  -0.03  -0.14    -0.00  -0.14  -0.01    -0.01   0.00   0.03
  53   1    -0.05  -0.02  -0.08     0.08  -0.13  -0.01    -0.00  -0.00   0.01
                     25                     26                     27
                        a                      a                      a 
 Frequencies --   186.9663               191.1443               225.3297
 Red. masses --     8.9999                 5.3604                10.6427
 Frc consts  --     0.0000                 0.0000                 0.0000
 IR Inten    --    11.1365               180.8469                24.9170
 Raman Activ --     0.0000                 0.0000                 0.0000
 Depolar     --     0.0000                 0.0000                 0.0000
 Atom AN      X      Y      Z        X      Y      Z        X      Y      Z
   1   8     0.03  -0.21   0.51     0.06  -0.13   0.11     0.19  -0.27   0.00
   2   6    -0.06   0.16   0.02     0.01   0.02  -0.02     0.12  -0.05  -0.03
   3   1     0.02   0.10  -0.08     0.02   0.02  -0.03     0.07   0.00   0.00
   4   1    -0.14   0.09   0.02    -0.04   0.02  -0.00     0.00  -0.01  -0.01
   5   6     0.27   0.07  -0.07     0.07   0.02  -0.04    -0.03   0.02  -0.01
   6   1     0.17   0.08  -0.00     0.04   0.02  -0.01    -0.04  -0.01  -0.02
   7   1     0.11  -0.08  -0.05     0.03  -0.01  -0.02    -0.02   0.03   0.02
   8   7     0.01   0.04  -0.09     0.01   0.02  -0.04    -0.04  -0.00  -0.03
   9   6    -0.06   0.12  -0.27    -0.01   0.04  -0.07    -0.02  -0.03  -0.01
  10   1    -0.07   0.08  -0.25    -0.01   0.03  -0.07    -0.01  -0.01  -0.01
  11   1    -0.07   0.15   0.05    -0.01   0.05   0.02     0.01   0.00   0.01
  12   1     0.07  -0.11  -0.06     0.02  -0.03  -0.01    -0.00  -0.03   0.00
  13   6    -0.16  -0.05   0.04    -0.04  -0.00  -0.00    -0.04   0.00  -0.03
  14   1    -0.11  -0.07   0.06    -0.03  -0.01   0.01    -0.00   0.01  -0.02
  15   1    -0.07   0.07   0.03    -0.01   0.01   0.01    -0.00  -0.02  -0.00
  16   1    -0.00  -0.06  -0.02    -0.01  -0.01  -0.01    -0.03   0.01  -0.00
  17   6    -0.03  -0.01   0.01    -0.00  -0.00  -0.01    -0.03   0.01  -0.06
  18   1     0.05  -0.03   0.15     0.01  -0.01   0.03    -0.02   0.01  -0.06
  19   1     0.06   0.08  -0.10     0.01   0.02  -0.03    -0.03  -0.02   0.01
  20   1    -0.15  -0.08  -0.03    -0.03  -0.02  -0.01     0.03   0.02  -0.01
  21   1    -0.02  -0.07   0.13    -0.00  -0.05   0.03     0.02  -0.08  -0.03
  22   6    -0.03   0.01  -0.02     0.00  -0.02   0.02     0.01  -0.00   0.00
  23   8    -0.06   0.03  -0.07    -0.01  -0.01   0.06     0.02  -0.01   0.00
  24   7    -0.03  -0.03   0.01    -0.01  -0.03  -0.05     0.01   0.01  -0.00
  25   1    -0.01  -0.01   0.00    -0.01  -0.01  -0.02     0.01   0.00   0.00
  26   1     0.00  -0.01   0.02    -0.00  -0.01  -0.03     0.00   0.00   0.01
  27   7    -0.00   0.01   0.02     0.00   0.02  -0.08     0.00  -0.01   0.00
  28   1    -0.00   0.01  -0.02     0.02  -0.03   0.13    -0.00   0.00  -0.02
  29   1    -0.01   0.01  -0.02     0.02  -0.02   0.06     0.00   0.00  -0.00
  30   6    -0.03  -0.01  -0.01     0.08  -0.03   0.03     0.01   0.01   0.01
  31   8    -0.08  -0.01  -0.00     0.22  -0.07   0.06     0.04   0.02  -0.01
  32   7     0.01  -0.00  -0.02    -0.02  -0.07  -0.02    -0.01   0.01   0.03
  33   1    -0.01  -0.00  -0.00     0.03  -0.02  -0.01    -0.00   0.00   0.01
  34   1     0.01  -0.00  -0.01    -0.00  -0.01  -0.02    -0.00   0.00   0.01
  35   7     0.00  -0.03  -0.03     0.01   0.10   0.09     0.00  -0.00   0.02
  36   1     0.02  -0.01  -0.01    -0.04   0.04   0.01    -0.00  -0.00   0.01
  37   1    -0.01  -0.01  -0.01     0.02   0.04   0.05     0.01  -0.00   0.00
  38   6     0.04  -0.00  -0.01    -0.08  -0.00  -0.05    -0.03   0.23   0.07
  39   8     0.03  -0.01  -0.06    -0.06  -0.01   0.03    -0.09   0.52   0.13
  40   7     0.01  -0.01   0.04    -0.02  -0.05  -0.12     0.20  -0.22   0.00
  41   1    -0.01   0.01   0.01     0.01   0.01  -0.03    -0.03   0.34  -0.03
  42   1     0.01   0.01   0.02    -0.02   0.02  -0.05    -0.06   0.31  -0.07
  43   7     0.11  -0.02   0.00    -0.17   0.03  -0.06    -0.14  -0.03   0.09
  44   1     0.03  -0.00   0.01    -0.05   0.00  -0.02     0.01  -0.18  -0.01
  45   1     0.03  -0.00  -0.00    -0.05   0.00  -0.01    -0.04  -0.03   0.03
  46   6     0.00  -0.01   0.02     0.00   0.03  -0.04    -0.03  -0.08  -0.03
  47   8     0.01  -0.02  -0.02    -0.07   0.02   0.06     0.03  -0.02   0.02
  48   7     0.03  -0.04  -0.06    -0.02   0.10   0.27    -0.14  -0.04  -0.02
  49   1    -0.02   0.02   0.09     0.13  -0.13  -0.41    -0.06   0.03   0.05
  50   1    -0.04   0.04   0.14     0.20  -0.15  -0.57    -0.07  -0.02   0.03
  51   7    -0.00  -0.01   0.02    -0.02   0.09   0.07     0.02  -0.16  -0.13
  52   1     0.01  -0.00  -0.00    -0.04   0.05   0.08     0.01  -0.05  -0.04
  53   1     0.01  -0.00  -0.01    -0.03   0.03   0.05    -0.00  -0.04  -0.01
                     28                     29                     30
                        a                      a                      a 
 Frequencies --   251.3444               254.8895               285.7936
 Red. masses --     5.5483                 4.7651                 2.5415
 Frc consts  --     0.0000                 0.0000                 0.0000
 IR Inten    --   115.3363                73.1288                68.8451
 Raman Activ --     0.0000                 0.0000                 0.0000
 Depolar     --     0.0000                 0.0000                 0.0000
 Atom AN      X      Y      Z        X      Y      Z        X      Y      Z
   1   8    -0.15   0.17  -0.24     0.09  -0.11  -0.26     0.01  -0.02  -0.04
   2   6    -0.14   0.11  -0.04     0.04   0.04  -0.07    -0.03   0.09  -0.04
   3   1    -0.04   0.04  -0.05     0.05   0.05  -0.04     0.01   0.05  -0.05
   4   1    -0.02   0.07   0.03     0.00   0.05   0.02    -0.04   0.06   0.02
   5   6    -0.02  -0.07   0.01    -0.10  -0.04   0.01    -0.01  -0.02  -0.00
   6   1     0.03  -0.00   0.03    -0.04  -0.03   0.01    -0.00  -0.01   0.01
   7   1     0.00  -0.05  -0.03    -0.04   0.01   0.01    -0.01  -0.00  -0.00
   8   7     0.05  -0.03   0.07    -0.02  -0.03   0.04     0.02  -0.03  -0.00
   9   6     0.05   0.03   0.13     0.03  -0.03   0.20     0.04  -0.04   0.03
  10   1    -0.01   0.04  -0.06    -0.06   0.05  -0.17    -0.00  -0.00  -0.03
  11   1    -0.00   0.08   0.12     0.01   0.18   0.26     0.01   0.02   0.04
  12   1     0.04  -0.08   0.06     0.08  -0.25   0.12     0.02  -0.05   0.02
  13   6     0.11   0.05  -0.00     0.08   0.05  -0.06     0.01   0.04  -0.03
  14   1    -0.06  -0.08   0.10    -0.12  -0.13   0.13     0.06   0.07  -0.08
  15   1    -0.03   0.15  -0.08    -0.07   0.22  -0.13     0.04  -0.07   0.02
  16   1     0.20  -0.02  -0.03     0.29  -0.04  -0.07    -0.09   0.05   0.03
  17   6     0.03  -0.06   0.15    -0.04  -0.04   0.02     0.01  -0.06   0.06
  18   1     0.07  -0.03   0.20     0.03  -0.02   0.15     0.02  -0.03   0.06
  19   1     0.09   0.08  -0.07     0.05   0.08  -0.10     0.03   0.01  -0.01
  20   1    -0.14  -0.11   0.00    -0.13  -0.10  -0.04    -0.04  -0.03   0.01
  21   1    -0.05   0.02  -0.02     0.00  -0.05  -0.06    -0.01  -0.02   0.00
  22   6    -0.01  -0.00  -0.00     0.01  -0.01  -0.00    -0.03  -0.02  -0.01
  23   8    -0.01  -0.00  -0.00     0.02  -0.01  -0.00    -0.02  -0.01   0.02
  24   7    -0.01  -0.01   0.01     0.01   0.00  -0.01     0.08  -0.00   0.27
  25   1    -0.00  -0.00   0.00     0.01  -0.00   0.02    -0.11   0.04  -0.33
  26   1     0.00  -0.00   0.00     0.01   0.00   0.04    -0.17   0.01  -0.70
  27   7    -0.01  -0.00   0.00    -0.00  -0.02   0.01    -0.00   0.03  -0.07
  28   1    -0.00  -0.00   0.00    -0.01   0.01  -0.04     0.04  -0.09   0.37
  29   1    -0.00  -0.00  -0.00    -0.00   0.00  -0.01     0.02  -0.02   0.10
  30   6    -0.02   0.00  -0.01     0.00  -0.01   0.01    -0.00  -0.00   0.00
  31   8    -0.03   0.00   0.00    -0.00  -0.01   0.01    -0.00   0.00   0.00
  32   7     0.01   0.01  -0.01    -0.01  -0.01   0.00     0.00   0.00   0.00
  33   1    -0.00   0.00  -0.00     0.00  -0.01  -0.00    -0.00   0.00   0.00
  34   1     0.01   0.00  -0.00    -0.00  -0.00  -0.00    -0.01   0.00   0.00
  35   7     0.00  -0.00  -0.02     0.00  -0.01   0.01     0.01   0.00   0.00
  36   1     0.00  -0.00  -0.00     0.01  -0.00   0.00    -0.01  -0.00   0.00
  37   1    -0.01  -0.00  -0.00     0.00  -0.00   0.00    -0.01   0.00   0.00
  38   6     0.02  -0.03  -0.04    -0.01   0.06   0.03    -0.00   0.01   0.00
  39   8     0.07  -0.22  -0.05    -0.06   0.25   0.03    -0.01   0.04   0.00
  40   7     0.03  -0.21   0.03    -0.00   0.14  -0.00     0.00   0.01  -0.00
  41   1    -0.11   0.30  -0.03     0.08  -0.19   0.02     0.01  -0.01   0.00
  42   1    -0.15   0.52  -0.03     0.11  -0.38   0.03     0.01  -0.04   0.00
  43   7     0.06   0.00  -0.03    -0.04  -0.01   0.03    -0.00  -0.00   0.01
  44   1     0.04  -0.06  -0.01    -0.02   0.03   0.00    -0.00   0.00   0.00
  45   1     0.03  -0.06  -0.02    -0.03   0.04   0.02    -0.00   0.00   0.00
  46   6     0.00   0.02   0.01    -0.01  -0.03  -0.00     0.00   0.00  -0.01
  47   8    -0.03   0.00  -0.01     0.01  -0.00   0.04     0.01  -0.00  -0.04
  48   7     0.04   0.01   0.01    -0.04  -0.01  -0.00    -0.01   0.00  -0.03
  49   1     0.02  -0.02  -0.02    -0.01   0.01   0.01    -0.01   0.02   0.02
  50   1     0.02   0.00  -0.02    -0.01  -0.01  -0.02    -0.03   0.02   0.08
  51   7    -0.02   0.04   0.04     0.01  -0.04  -0.04    -0.00  -0.00  -0.01
  52   1    -0.00   0.01   0.00     0.00  -0.01  -0.01     0.00  -0.00  -0.01
  53   1     0.01   0.01   0.01    -0.01  -0.01  -0.01     0.00  -0.00  -0.01
                     31                     32                     33
                        a                      a                      a 
 Frequencies --   289.4122               300.2886               312.3215
 Red. masses --     5.8159                 3.8933                 5.3289
 Frc consts  --     0.0000                 0.0000                 0.0000
 IR Inten    --     7.7809                 3.0918                 4.7076
 Raman Activ --     0.0000                 0.0000                 0.0000
 Depolar     --     0.0000                 0.0000                 0.0000
 Atom AN      X      Y      Z        X      Y      Z        X      Y      Z
   1   8    -0.05   0.01  -0.00    -0.07  -0.25  -0.16    -0.16  -0.10  -0.25
   2   6     0.05  -0.34   0.12    -0.10  -0.00  -0.05    -0.15  -0.03   0.05
   3   1    -0.04  -0.18   0.16     0.00   0.04  -0.06    -0.02  -0.00   0.03
   4   1     0.12  -0.21  -0.06    -0.07   0.04   0.02    -0.03  -0.01   0.02
   5   6    -0.03   0.08   0.00     0.01  -0.04  -0.03    -0.13   0.02   0.07
   6   1    -0.04   0.02  -0.03     0.02   0.00   0.00    -0.06  -0.02   0.04
   7   1    -0.02   0.05  -0.01     0.01  -0.03  -0.04    -0.06   0.05  -0.00
   8   7     0.02   0.14   0.02     0.06   0.03   0.04     0.09   0.01   0.06
   9   6    -0.07   0.26  -0.13    -0.03   0.16  -0.06    -0.00   0.19  -0.16
  10   1    -0.01   0.10  -0.06     0.12  -0.02   0.30    -0.06   0.15  -0.32
  11   1    -0.07   0.08  -0.03    -0.03  -0.21  -0.29    -0.10   0.24   0.16
  12   1    -0.01   0.09  -0.05    -0.13   0.38  -0.10     0.12  -0.17  -0.02
  13   6     0.05  -0.22   0.20     0.07  -0.09   0.11     0.13  -0.23   0.18
  14   1    -0.13  -0.23   0.29     0.03  -0.02   0.05     0.24   0.11  -0.08
  15   1    -0.07   0.16  -0.00     0.03  -0.03   0.05     0.15  -0.34   0.17
  16   1     0.25  -0.22  -0.07     0.00  -0.06   0.01    -0.27  -0.02   0.09
  17   6     0.04   0.21  -0.18     0.11   0.04   0.13     0.16   0.06   0.06
  18   1    -0.02   0.09  -0.11     0.13   0.02   0.34     0.04   0.04   0.04
  19   1    -0.02   0.04  -0.02     0.20   0.19  -0.18     0.08   0.01   0.00
  20   1     0.09   0.06  -0.06    -0.22  -0.16  -0.05     0.04   0.02   0.02
  21   1     0.03   0.04  -0.04    -0.05  -0.07  -0.06    -0.06  -0.04  -0.07
  22   6     0.00  -0.02  -0.00    -0.00   0.01  -0.01     0.00   0.01  -0.00
  23   8     0.01  -0.02   0.01    -0.00   0.01  -0.02     0.00   0.01  -0.01
  24   7     0.03   0.01   0.08    -0.00  -0.01  -0.00    -0.01   0.01  -0.04
  25   1    -0.02   0.01  -0.09     0.00  -0.00   0.00     0.02   0.00   0.03
  26   1    -0.05   0.01  -0.20     0.01  -0.00   0.02     0.02   0.00   0.10
  27   7    -0.01  -0.01  -0.02     0.00   0.00   0.01     0.01   0.01   0.00
  28   1     0.01  -0.03   0.10    -0.00   0.01  -0.02     0.00   0.01  -0.03
  29   1     0.00  -0.01   0.03    -0.00   0.00  -0.01     0.00   0.00  -0.01
  30   6    -0.01   0.00   0.00     0.00   0.01  -0.00     0.00  -0.01   0.00
  31   8    -0.02  -0.00   0.00     0.00   0.01  -0.01     0.01  -0.01   0.00
  32   7     0.00  -0.00  -0.01    -0.00   0.01   0.00    -0.01  -0.01   0.01
  33   1     0.00  -0.00  -0.00    -0.00   0.00   0.00     0.01  -0.00   0.00
  34   1    -0.00   0.00  -0.00    -0.01   0.00   0.00     0.01  -0.00  -0.00
  35   7     0.01  -0.01  -0.01    -0.01  -0.01  -0.00     0.03   0.02   0.01
  36   1     0.00  -0.01   0.00     0.01  -0.00  -0.00    -0.06   0.00   0.01
  37   1    -0.01  -0.01  -0.00     0.00  -0.00  -0.01    -0.03   0.01   0.01
  38   6     0.01  -0.01   0.00    -0.00   0.04   0.03     0.00   0.02   0.00
  39   8     0.01  -0.03  -0.00    -0.02   0.11   0.03    -0.00   0.04  -0.00
  40   7    -0.00  -0.01   0.01     0.02   0.04  -0.00     0.01   0.00  -0.00
  41   1    -0.01   0.02   0.00     0.02  -0.03   0.00     0.00  -0.00   0.00
  42   1    -0.01   0.05   0.00     0.04  -0.11   0.00     0.01  -0.02   0.00
  43   7     0.00   0.00   0.00    -0.05  -0.01   0.03    -0.00  -0.01   0.00
  44   1     0.00  -0.01  -0.00    -0.01  -0.02  -0.00    -0.00   0.00  -0.00
  45   1    -0.00  -0.00   0.00    -0.02   0.00   0.01    -0.01   0.01   0.01
  46   6    -0.00  -0.00   0.00    -0.00  -0.01  -0.00     0.00  -0.00  -0.00
  47   8    -0.01  -0.00   0.00    -0.00  -0.00   0.01     0.01   0.00  -0.01
  48   7    -0.00  -0.01  -0.00    -0.01  -0.00  -0.00    -0.01   0.00  -0.00
  49   1    -0.00   0.00   0.01    -0.00   0.00   0.00    -0.00   0.01   0.00
  50   1    -0.01   0.00   0.02    -0.00  -0.00  -0.00    -0.01  -0.00   0.00
  51   7    -0.01   0.01  -0.01     0.00  -0.01  -0.01     0.01  -0.01   0.00
  52   1     0.00  -0.00  -0.01     0.00  -0.00  -0.00    -0.00   0.00   0.01
  53   1    -0.00   0.00  -0.00    -0.00  -0.00   0.00     0.00  -0.00  -0.01
                     34                     35                     36
                        a                      a                      a 
 Frequencies --   339.8050               345.5746               372.8347
 Red. masses --     5.2672                 3.2434                 6.4887
 Frc consts  --     0.0000                 0.0000                 0.0000
 IR Inten    --     1.3476               138.3234               112.3608
 Raman Activ --     0.0000                 0.0000                 0.0000
 Depolar     --     0.0000                 0.0000                 0.0000
 Atom AN      X      Y      Z        X      Y      Z        X      Y      Z
   1   8     0.08   0.17   0.15     0.00   0.00   0.01     0.05   0.05   0.16
   2   6     0.16  -0.22   0.00     0.00   0.00  -0.00     0.08  -0.07   0.18
   3   1    -0.02  -0.13   0.06     0.00   0.00  -0.00     0.02  -0.06   0.15
   4   1     0.12  -0.13  -0.06    -0.00   0.00  -0.00     0.07  -0.09  -0.01
   5   6    -0.00  -0.01  -0.04     0.01   0.00  -0.01    -0.22   0.15   0.14
   6   1    -0.04  -0.01  -0.07     0.01   0.00  -0.00    -0.18  -0.05   0.04
   7   1    -0.00   0.01   0.04     0.00  -0.00  -0.00    -0.11   0.16   0.08
   8   7    -0.10   0.03  -0.01    -0.01   0.01  -0.00    -0.01   0.01  -0.04
   9   6     0.00  -0.08   0.26    -0.00  -0.02  -0.00    -0.03  -0.10  -0.33
  10   1    -0.01  -0.02   0.04     0.00  -0.02   0.02    -0.06  -0.05  -0.11
  11   1     0.07   0.04   0.13     0.01  -0.02  -0.02    -0.05  -0.05  -0.11
  12   1    -0.02  -0.11   0.13    -0.01   0.01  -0.01     0.06  -0.01  -0.14
  13   6    -0.11  -0.00   0.01    -0.00   0.02  -0.01     0.25   0.11  -0.22
  14   1     0.06   0.10  -0.11    -0.01  -0.01   0.02     0.11   0.06  -0.06
  15   1     0.03  -0.14   0.08    -0.01   0.03  -0.02     0.06   0.00  -0.15
  16   1    -0.21   0.05   0.04     0.03   0.00  -0.01     0.12   0.07  -0.03
  17   6    -0.06   0.16  -0.31    -0.02  -0.00   0.00    -0.09  -0.10   0.11
  18   1     0.06   0.08   0.21    -0.00  -0.01   0.00     0.03  -0.07   0.16
  19   1     0.12   0.28  -0.33    -0.01   0.00   0.00     0.04   0.02  -0.04
  20   1    -0.24  -0.19  -0.23    -0.01  -0.00   0.00    -0.18  -0.07   0.03
  21   1     0.07   0.08   0.04     0.00   0.00  -0.00     0.02   0.03   0.00
  22   6     0.00   0.00  -0.01     0.00  -0.01   0.03    -0.00   0.02  -0.06
  23   8    -0.00   0.00  -0.02     0.01  -0.01   0.02    -0.01   0.02  -0.04
  24   7    -0.00   0.00  -0.01    -0.02   0.00  -0.05     0.04  -0.01   0.12
  25   1     0.00   0.00   0.00     0.01   0.00   0.02    -0.03  -0.00  -0.04
  26   1     0.00   0.00   0.02     0.01   0.00   0.06    -0.02  -0.01  -0.16
  27   7     0.00   0.00  -0.00    -0.00   0.02  -0.05    -0.00  -0.05   0.13
  28   1     0.00  -0.00   0.01     0.01  -0.03   0.13    -0.03   0.08  -0.37
  29   1     0.00  -0.00   0.00     0.01  -0.01   0.03    -0.01   0.02  -0.03
  30   6     0.00  -0.00  -0.00    -0.06  -0.01  -0.00     0.00  -0.01  -0.00
  31   8     0.01  -0.00  -0.00    -0.04   0.00  -0.02    -0.00  -0.01  -0.00
  32   7     0.00  -0.00   0.00    -0.07   0.01   0.02    -0.01   0.00   0.01
  33   1    -0.00   0.00   0.00     0.06  -0.01  -0.01     0.01  -0.00   0.00
  34   1    -0.00  -0.00   0.00     0.18  -0.03  -0.06     0.05  -0.01  -0.02
  35   7     0.00   0.00   0.00     0.38   0.04  -0.08     0.02   0.02  -0.00
  36   1    -0.01   0.00   0.00    -0.76  -0.11   0.19    -0.06   0.00   0.01
  37   1    -0.00   0.00   0.00    -0.35  -0.01   0.06    -0.01   0.01   0.01
  38   6    -0.00  -0.02  -0.01     0.02   0.00   0.00    -0.01  -0.01  -0.00
  39   8     0.01  -0.05  -0.01     0.01   0.01   0.00     0.00  -0.02   0.00
  40   7    -0.02  -0.02   0.00     0.00   0.01   0.03    -0.00  -0.01  -0.01
  41   1    -0.01   0.00  -0.00    -0.01  -0.00   0.01    -0.00   0.00  -0.00
  42   1    -0.02   0.06  -0.00     0.00  -0.00   0.01    -0.01   0.02  -0.00
  43   7     0.01   0.01  -0.01     0.01  -0.00   0.00     0.01   0.00  -0.00
  44   1     0.01   0.00   0.00     0.01  -0.01   0.00    -0.00   0.02   0.00
  45   1     0.01  -0.00  -0.01     0.00   0.01  -0.00     0.00   0.00  -0.00
  46   6     0.00   0.00  -0.00     0.01  -0.00  -0.01    -0.01  -0.01   0.00
  47   8     0.00   0.00  -0.00     0.00  -0.00   0.00    -0.00  -0.00   0.02
  48   7     0.00   0.00  -0.00    -0.01   0.00  -0.01    -0.00  -0.00   0.02
  49   1     0.00   0.00  -0.00    -0.01   0.01   0.01    -0.00  -0.00   0.01
  50   1    -0.00   0.00   0.01    -0.01   0.01   0.02     0.03  -0.03  -0.10
  51   7     0.00   0.00   0.00     0.00  -0.01  -0.01    -0.00  -0.00   0.00
  52   1    -0.00  -0.00  -0.00     0.01  -0.01  -0.01    -0.01   0.01   0.03
  53   1     0.00   0.00   0.00     0.01  -0.00  -0.01    -0.01   0.00  -0.00
                     37                     38                     39
                        a                      a                      a 
 Frequencies --   374.0003               426.1501               441.4819
 Red. masses --     4.3397                 8.8475                 2.7305
 Frc consts  --     0.0000                 0.0000                 0.0000
 IR Inten    --   247.4184                 1.0890                87.5849
 Raman Activ --     0.0000                 0.0000                 0.0000
 Depolar     --     0.0000                 0.0000                 0.0000
 Atom AN      X      Y      Z        X      Y      Z        X      Y      Z
   1   8     0.03   0.03   0.08     0.12   0.09   0.21    -0.00  -0.00  -0.01
   2   6     0.04  -0.03   0.10     0.09   0.08  -0.11    -0.00  -0.00  -0.01
   3   1     0.01  -0.03   0.08     0.03   0.03  -0.05    -0.00  -0.00  -0.00
   4   1     0.04  -0.05  -0.00     0.00   0.04  -0.02     0.00  -0.00  -0.00
   5   6    -0.13   0.09   0.08    -0.14  -0.08  -0.03     0.01   0.00  -0.01
   6   1    -0.10  -0.03   0.03    -0.12  -0.08  -0.01     0.01   0.01  -0.01
   7   1    -0.07   0.10   0.04    -0.06   0.05   0.06     0.01  -0.01  -0.01
   8   7     0.00   0.01  -0.02    -0.18  -0.23  -0.17    -0.00   0.02   0.01
   9   6    -0.01  -0.05  -0.17    -0.29   0.18   0.15     0.01  -0.01   0.01
  10   1    -0.03  -0.03  -0.06     0.03   0.14   0.05    -0.01  -0.01   0.01
  11   1    -0.02  -0.03  -0.06    -0.12   0.08   0.08     0.01  -0.01  -0.00
  12   1     0.04  -0.01  -0.08    -0.18   0.06   0.09     0.00   0.00  -0.00
  13   6     0.14   0.06  -0.12    -0.00  -0.21  -0.29     0.01  -0.00   0.02
  14   1     0.05   0.02  -0.03     0.02  -0.05  -0.05     0.00  -0.00   0.01
  15   1     0.03   0.01  -0.09    -0.01  -0.06  -0.13     0.00   0.00   0.01
  16   1     0.08   0.03  -0.02     0.04  -0.05  -0.08     0.00  -0.00   0.00
  17   6    -0.05  -0.06   0.08     0.36   0.09   0.15    -0.01   0.01   0.00
  18   1     0.02  -0.05   0.10     0.05   0.17   0.09    -0.00  -0.00  -0.00
  19   1     0.02   0.01  -0.02     0.26  -0.08   0.04    -0.01   0.01   0.00
  20   1    -0.10  -0.04   0.02     0.15   0.10   0.09    -0.00   0.00  -0.00
  21   1     0.01   0.02  -0.01     0.05   0.03   0.07    -0.00  -0.00   0.00
  22   6     0.00  -0.04   0.10     0.00   0.01   0.00     0.00  -0.00  -0.00
  23   8     0.03  -0.05   0.08     0.01   0.00   0.00    -0.00  -0.00   0.00
  24   7    -0.08   0.01  -0.21     0.00  -0.01   0.00    -0.00   0.00  -0.01
  25   1     0.04   0.00   0.08    -0.00  -0.01  -0.00     0.00   0.00   0.01
  26   1     0.04   0.01   0.30     0.00  -0.01  -0.00    -0.00   0.00   0.01
  27   7    -0.01   0.09  -0.23    -0.01  -0.01  -0.00     0.00   0.00  -0.01
  28   1     0.05  -0.14   0.66    -0.01  -0.00   0.00     0.00  -0.01   0.04
  29   1     0.02  -0.04   0.07    -0.00  -0.01   0.00    -0.00  -0.00  -0.01
  30   6     0.00   0.00   0.00     0.00   0.00   0.00     0.05  -0.03  -0.04
  31   8    -0.00   0.00   0.01    -0.00   0.00   0.01     0.08  -0.04  -0.02
  32   7     0.02   0.00  -0.01    -0.01  -0.00  -0.01    -0.20   0.07   0.14
  33   1    -0.01   0.01   0.00     0.00  -0.01  -0.00    -0.10  -0.09   0.02
  34   1    -0.06   0.01   0.03     0.02  -0.00  -0.02     0.74  -0.04  -0.35
  35   7    -0.05  -0.01   0.01     0.00  -0.01   0.00    -0.18   0.01   0.01
  36   1     0.13   0.02  -0.03    -0.01  -0.01   0.01     0.02   0.01  -0.01
  37   1     0.05  -0.00  -0.01     0.00  -0.00  -0.01     0.23  -0.00  -0.07
  38   6    -0.00  -0.00  -0.00    -0.01  -0.00  -0.01    -0.01   0.04  -0.01
  39   8    -0.00  -0.00  -0.00     0.00  -0.01   0.00     0.01   0.03   0.01
  40   7     0.00  -0.00  -0.00    -0.01  -0.01  -0.00     0.00  -0.06   0.02
  41   1     0.00  -0.00  -0.00     0.00  -0.01  -0.00    -0.03   0.05  -0.00
  42   1     0.00  -0.00  -0.00    -0.01   0.02  -0.00     0.00  -0.00   0.02
  43   7     0.00   0.00   0.00     0.02  -0.01  -0.01     0.04  -0.10  -0.02
  44   1    -0.00   0.00   0.00    -0.00   0.03   0.00    -0.11   0.30  -0.02
  45   1     0.00   0.00   0.00     0.00   0.01  -0.00    -0.02  -0.00   0.02
  46   6     0.01  -0.00  -0.01     0.01  -0.00   0.00    -0.01   0.00  -0.01
  47   8     0.01  -0.01  -0.03     0.00  -0.01   0.01    -0.00   0.01  -0.00
  48   7    -0.01  -0.00  -0.03    -0.01   0.00  -0.00     0.02  -0.00  -0.01
  49   1    -0.00   0.01  -0.03    -0.00   0.01  -0.00     0.01  -0.01  -0.03
  50   1    -0.06   0.04   0.16    -0.01  -0.00  -0.00    -0.01   0.02   0.07
  51   7    -0.00   0.01  -0.01     0.00   0.01  -0.00     0.01  -0.01  -0.00
  52   1     0.02  -0.02  -0.05     0.01   0.01  -0.00    -0.01   0.02   0.04
  53   1     0.01   0.00  -0.00    -0.00   0.01  -0.01    -0.00  -0.00  -0.02
                     40                     41                     42
                        a                      a                      a 
 Frequencies --   452.4324               459.1460               460.6120
 Red. masses --     3.2673                 7.2132                 7.2596
 Frc consts  --     0.0000                 0.0000                 0.0000
 IR Inten    --   186.9609                 3.7857                 8.1398
 Raman Activ --     0.0000                 0.0000                 0.0000
 Depolar     --     0.0000                 0.0000                 0.0000
 Atom AN      X      Y      Z        X      Y      Z        X      Y      Z
   1   8     0.01  -0.00  -0.01     0.01   0.02   0.04     0.01   0.02   0.05
   2   6     0.00  -0.01  -0.00     0.01   0.01  -0.18     0.01   0.01  -0.18
   3   1     0.00  -0.00  -0.00    -0.00  -0.01  -0.02    -0.00  -0.02  -0.00
   4   1     0.00  -0.00   0.00    -0.01  -0.03  -0.09    -0.00  -0.04  -0.10
   5   6     0.01  -0.01  -0.00    -0.00   0.15  -0.19    -0.04   0.19  -0.20
   6   1    -0.00  -0.00  -0.00     0.01   0.06  -0.08    -0.04   0.04  -0.07
   7   1     0.00  -0.00  -0.00     0.01   0.02  -0.04    -0.02   0.07  -0.03
   8   7     0.01   0.01   0.01    -0.11   0.19  -0.09    -0.05   0.19  -0.13
   9   6     0.01  -0.00  -0.00     0.05  -0.16   0.07     0.12  -0.13   0.07
  10   1    -0.00  -0.01   0.00    -0.04  -0.10   0.05    -0.02  -0.09   0.05
  11   1     0.00  -0.01  -0.01     0.12  -0.04   0.01     0.14  -0.03   0.02
  12   1     0.00   0.01  -0.00     0.02  -0.09   0.04     0.02  -0.09   0.05
  13   6     0.01   0.01   0.01     0.11  -0.22   0.05     0.06  -0.22   0.06
  14   1     0.00   0.00   0.00     0.09  -0.05   0.12     0.06  -0.05   0.10
  15   1     0.00   0.00   0.00     0.05  -0.11   0.02     0.04  -0.10   0.05
  16   1    -0.00   0.00   0.00     0.01  -0.15  -0.05    -0.02  -0.15  -0.05
  17   6    -0.01   0.00  -0.01    -0.12   0.11   0.23    -0.11   0.04   0.23
  18   1    -0.00  -0.00  -0.00    -0.01  -0.00   0.08    -0.00  -0.05   0.09
  19   1    -0.01   0.01  -0.00    -0.00  -0.02   0.09    -0.01  -0.04   0.09
  20   1    -0.00  -0.00  -0.01    -0.08   0.09   0.12    -0.10   0.07   0.12
  21   1    -0.00  -0.01   0.04     0.01   0.01   0.03     0.01   0.01   0.03
  22   6    -0.00   0.00   0.00     0.00   0.01  -0.00    -0.01  -0.04   0.00
  23   8    -0.00   0.00  -0.00     0.01   0.01  -0.00    -0.04  -0.02   0.01
  24   7    -0.00  -0.00  -0.00     0.01  -0.01   0.01    -0.01   0.04   0.00
  25   1    -0.00  -0.00   0.00    -0.01  -0.00  -0.02     0.02   0.04  -0.05
  26   1     0.00  -0.00  -0.00     0.01  -0.01   0.00    -0.03   0.03   0.05
  27   7    -0.00   0.00   0.00    -0.01  -0.00   0.01     0.05   0.00  -0.02
  28   1    -0.00   0.00  -0.00    -0.01   0.01  -0.05     0.03  -0.01   0.02
  29   1    -0.00  -0.00   0.00    -0.00  -0.01   0.02     0.01   0.02  -0.00
  30   6     0.00   0.05   0.04    -0.02  -0.14  -0.10     0.01   0.14   0.08
  31   8    -0.00   0.05   0.06    -0.04  -0.13  -0.14     0.04   0.11   0.13
  32   7    -0.04  -0.01  -0.12     0.08  -0.02   0.22    -0.08   0.04  -0.19
  33   1     0.20   0.00  -0.07     0.04   0.14   0.08    -0.02  -0.11  -0.07
  34   1    -0.25   0.02   0.08     0.00  -0.08   0.18    -0.01   0.07  -0.15
  35   7     0.09  -0.09   0.00    -0.02   0.20  -0.06     0.02  -0.19   0.04
  36   1     0.06  -0.05   0.03    -0.00   0.16  -0.15     0.02  -0.14   0.12
  37   1    -0.14  -0.04   0.00    -0.08   0.12   0.17     0.05  -0.11  -0.15
  38   6    -0.09   0.09   0.02     0.03   0.02  -0.03    -0.07  -0.04   0.05
  39   8    -0.07   0.05   0.05     0.05   0.03   0.02    -0.10  -0.05  -0.01
  40   7     0.03  -0.15  -0.05    -0.02  -0.02   0.05     0.04   0.02  -0.11
  41   1    -0.00   0.15  -0.02    -0.06   0.01   0.01     0.11  -0.03  -0.01
  42   1    -0.01  -0.01  -0.06     0.01   0.00   0.05    -0.02   0.02  -0.11
  43   7     0.16  -0.22   0.01    -0.01  -0.05  -0.05     0.06   0.07   0.08
  44   1    -0.25   0.76   0.02    -0.05   0.10  -0.03     0.08  -0.11   0.07
  45   1     0.00   0.01   0.03    -0.02  -0.01   0.01     0.06   0.02  -0.02
  46   6    -0.01   0.01  -0.02     0.01  -0.01   0.01    -0.02  -0.00  -0.01
  47   8    -0.01   0.03  -0.01    -0.01  -0.03   0.01     0.02   0.03  -0.01
  48   7     0.03  -0.00   0.01    -0.03   0.01   0.03     0.03  -0.02  -0.03
  49   1    -0.00  -0.01   0.07     0.04  -0.03  -0.20    -0.04   0.02   0.21
  50   1     0.04   0.01  -0.03    -0.07   0.02   0.13     0.07  -0.02  -0.13
  51   7    -0.03  -0.03   0.01     0.00   0.04  -0.01    -0.01  -0.03   0.01
  52   1    -0.01  -0.00   0.01     0.07  -0.09  -0.19    -0.06   0.09   0.19
  53   1     0.01  -0.01  -0.03     0.00  -0.01   0.11    -0.02   0.02  -0.10
                     43                     44                     45
                        a                      a                      a 
 Frequencies --   465.8388               467.6229               473.9825
 Red. masses --     6.6172                 3.5725                 8.4096
 Frc consts  --     0.0000                 0.0000                 0.0000
 IR Inten    --    16.7120                40.5722                20.3684
 Raman Activ --     0.0000                 0.0000                 0.0000
 Depolar     --     0.0000                 0.0000                 0.0000
 Atom AN      X      Y      Z        X      Y      Z        X      Y      Z
   1   8     0.00   0.03   0.05    -0.00   0.01   0.01    -0.01   0.02   0.03
   2   6     0.01   0.01  -0.03     0.00   0.00  -0.00    -0.01   0.01  -0.03
   3   1     0.00  -0.01   0.02    -0.00  -0.00   0.00    -0.00  -0.00   0.01
   4   1     0.00  -0.02  -0.03     0.00  -0.00  -0.00    -0.00  -0.01  -0.02
   5   6    -0.12   0.07  -0.02    -0.02   0.01  -0.00    -0.03   0.06  -0.03
   6   1    -0.15  -0.08   0.02    -0.03  -0.01   0.01    -0.03  -0.00  -0.00
   7   1    -0.09   0.16   0.02    -0.02   0.03   0.00    -0.01   0.04  -0.00
   8   7     0.20  -0.04  -0.12     0.04  -0.01  -0.03     0.02   0.03  -0.05
   9   6     0.19   0.16   0.04     0.03   0.04   0.02     0.06  -0.01   0.02
  10   1     0.10   0.07   0.03     0.02   0.02   0.01     0.01  -0.01   0.01
  11   1     0.04   0.05   0.02     0.01   0.01   0.00     0.04   0.00   0.01
  12   1    -0.01   0.06   0.04    -0.01   0.02   0.01     0.01  -0.01   0.01
  13   6    -0.20   0.00   0.03    -0.05   0.00   0.00    -0.02  -0.04   0.01
  14   1    -0.13  -0.05  -0.03    -0.03  -0.01  -0.01    -0.01  -0.01   0.01
  15   1    -0.06   0.07   0.11    -0.02   0.02   0.02    -0.00  -0.01   0.03
  16   1    -0.09  -0.01  -0.00    -0.01  -0.00  -0.00    -0.03  -0.03  -0.01
  17   6     0.04  -0.23  -0.01     0.02  -0.05  -0.01    -0.02  -0.03   0.04
  18   1     0.04  -0.13   0.01     0.01  -0.02   0.00     0.01  -0.03   0.02
  19   1    -0.02  -0.06   0.01     0.00  -0.01  -0.00    -0.01  -0.02   0.02
  20   1    -0.05  -0.05   0.02    -0.01  -0.01   0.00    -0.03   0.01   0.03
  21   1     0.01   0.02  -0.00     0.00   0.01  -0.00     0.00   0.02  -0.02
  22   6    -0.03  -0.18   0.00    -0.02  -0.06   0.01     0.01   0.06  -0.01
  23   8    -0.20  -0.10   0.03    -0.06  -0.05   0.02     0.07   0.04  -0.02
  24   7    -0.03   0.18   0.08    -0.03   0.07  -0.01     0.01  -0.05  -0.03
  25   1     0.10   0.22  -0.31     0.04   0.06  -0.04    -0.02  -0.08   0.16
  26   1    -0.16   0.15   0.20    -0.06   0.05   0.06     0.05  -0.05  -0.09
  27   7     0.23  -0.03  -0.06     0.09   0.01  -0.04    -0.08   0.00   0.03
  28   1     0.13  -0.03  -0.15     0.06  -0.04   0.09    -0.05   0.01   0.03
  29   1     0.08   0.08   0.05     0.02   0.03  -0.03    -0.03  -0.03  -0.01
  30   6    -0.00   0.01   0.01    -0.01  -0.13  -0.07     0.04   0.07   0.06
  31   8     0.00  -0.00   0.01    -0.03  -0.08  -0.15     0.04   0.10   0.06
  32   7     0.01  -0.00  -0.02    -0.00  -0.02   0.21    -0.05  -0.01  -0.14
  33   1    -0.02  -0.00  -0.00     0.12   0.08   0.05     0.03  -0.08  -0.06
  34   1    -0.01   0.00  -0.01     0.08  -0.08   0.11    -0.08   0.05  -0.07
  35   7     0.01  -0.01   0.00    -0.02   0.16  -0.04     0.03  -0.11   0.06
  36   1    -0.02  -0.01   0.01     0.06   0.16  -0.15     0.02  -0.08   0.08
  37   1     0.01  -0.01  -0.01    -0.11   0.11   0.17     0.03  -0.06  -0.07
  38   6     0.02   0.00  -0.02     0.05   0.01  -0.02     0.21   0.04  -0.15
  39   8     0.03   0.01   0.01     0.07   0.01   0.00     0.30   0.07   0.03
  40   7    -0.02  -0.01   0.03    -0.01   0.00   0.08    -0.12  -0.01   0.28
  41   1    -0.03  -0.00   0.00    -0.05  -0.02   0.01    -0.27  -0.05   0.04
  42   1     0.00   0.01   0.03     0.01   0.02   0.06     0.04   0.03   0.29
  43   7    -0.01  -0.02  -0.03    -0.05  -0.04  -0.04    -0.26  -0.11  -0.24
  44   1    -0.03   0.04  -0.02    -0.03   0.00  -0.04    -0.14   0.01  -0.21
  45   1    -0.01  -0.01   0.00    -0.04   0.01   0.01    -0.17  -0.03   0.05
  46   6     0.03  -0.05   0.03    -0.02  -0.02  -0.06     0.08  -0.06   0.03
  47   8     0.02  -0.06   0.03     0.02   0.03  -0.04     0.00  -0.14   0.03
  48   7    -0.08  -0.01   0.01     0.02  -0.03  -0.06    -0.14   0.02  -0.04
  49   1     0.01   0.01  -0.18    -0.13   0.10   0.54    -0.06   0.12   0.01
  50   1    -0.09  -0.01   0.09     0.14  -0.06  -0.32    -0.10  -0.07  -0.07
  51   7     0.00   0.11  -0.02    -0.00  -0.05   0.02     0.08   0.12  -0.01
  52   1     0.08  -0.01  -0.13    -0.11   0.14   0.31     0.05   0.08   0.04
  53   1    -0.02   0.03   0.03    -0.03   0.02  -0.14    -0.01   0.05  -0.04
                     46                     47                     48
                        a                      a                      a 
 Frequencies --   476.5593               479.9694               483.4683
 Red. masses --     4.3492                 8.5006                 7.3079
 Frc consts  --     0.0000                 0.0000                 0.0000
 IR Inten    --    20.9333                21.2801                15.0644
 Raman Activ --     0.0000                 0.0000                 0.0000
 Depolar     --     0.0000                 0.0000                 0.0000
 Atom AN      X      Y      Z        X      Y      Z        X      Y      Z
   1   8     0.00   0.02   0.04     0.00  -0.01  -0.02     0.01  -0.01  -0.02
   2   6     0.01   0.01  -0.03     0.00  -0.01  -0.00    -0.00  -0.00   0.01
   3   1     0.01  -0.01   0.02     0.00   0.01  -0.02    -0.00   0.01  -0.03
   4   1     0.00  -0.02  -0.04    -0.00   0.01   0.01    -0.01   0.02   0.02
   5   6    -0.12   0.09  -0.03     0.02  -0.04   0.01     0.09  -0.08   0.01
   6   1    -0.14  -0.07   0.01     0.01  -0.00  -0.01     0.10   0.05  -0.01
   7   1    -0.08   0.15   0.02     0.01  -0.02  -0.00     0.06  -0.11  -0.02
   8   7     0.17  -0.01  -0.12    -0.01   0.00   0.04    -0.12   0.01   0.09
   9   6     0.17   0.13   0.04    -0.02  -0.01  -0.02    -0.13  -0.09  -0.03
  10   1     0.09   0.06   0.03    -0.01  -0.01  -0.01    -0.06  -0.04  -0.02
  11   1     0.05   0.05   0.02    -0.01  -0.01  -0.01    -0.04  -0.03  -0.02
  12   1    -0.01   0.04   0.04     0.01   0.01  -0.01     0.01  -0.03  -0.03
  13   6    -0.18  -0.03   0.04     0.02   0.03   0.02     0.15   0.02  -0.02
  14   1    -0.11  -0.04  -0.02     0.01   0.01   0.00     0.09   0.03   0.01
  15   1    -0.05   0.05   0.10     0.00   0.01  -0.01     0.04  -0.04  -0.07
  16   1    -0.10  -0.03  -0.00     0.01   0.01   0.01     0.07   0.02   0.00
  17   6     0.02  -0.20   0.01    -0.01   0.02  -0.02    -0.01   0.15  -0.00
  18   1     0.03  -0.11   0.02    -0.01   0.01  -0.01    -0.02   0.09  -0.01
  19   1    -0.01  -0.05   0.01    -0.01   0.02  -0.01     0.01   0.04  -0.01
  20   1    -0.06  -0.04   0.03     0.01  -0.00  -0.01     0.04   0.03  -0.02
  21   1     0.00   0.01  -0.00     0.00  -0.01   0.03     0.00  -0.01   0.02
  22   6    -0.01   0.04  -0.06     0.02   0.05   0.01    -0.10  -0.20  -0.05
  23   8     0.07  -0.00  -0.08     0.04   0.05   0.01    -0.20  -0.18  -0.03
  24   7    -0.03   0.03  -0.09     0.03  -0.07   0.00    -0.15   0.29  -0.00
  25   1     0.04  -0.16   0.63    -0.05  -0.02  -0.09     0.19   0.09   0.39
  26   1     0.04  -0.06  -0.32     0.05  -0.03   0.04    -0.20   0.14  -0.16
  27   7    -0.02   0.01   0.11    -0.09  -0.00  -0.01     0.35   0.01   0.04
  28   1    -0.01  -0.01   0.08    -0.06   0.02   0.01     0.23  -0.08  -0.01
  29   1    -0.02   0.01  -0.07    -0.02  -0.04   0.02     0.09   0.16  -0.04
  30   6    -0.01  -0.03  -0.02    -0.02  -0.03  -0.03    -0.01   0.00  -0.00
  31   8    -0.01  -0.04  -0.03    -0.01  -0.04  -0.02    -0.01  -0.01   0.02
  32   7     0.01  -0.00   0.05     0.02   0.01   0.05     0.06   0.00  -0.02
  33   1    -0.00   0.03   0.02    -0.01   0.03   0.02    -0.04   0.01   0.01
  34   1     0.04  -0.02   0.02     0.03  -0.02   0.03    -0.05   0.01   0.03
  35   7    -0.00   0.04  -0.03    -0.02   0.04  -0.03    -0.02   0.01  -0.00
  36   1     0.00   0.03  -0.04    -0.02   0.02  -0.02    -0.08  -0.03   0.04
[...]
  44   1     0.02   0.01  -0.01    -0.00  -0.00   0.00    -0.01  -0.00   0.00
  45   1    -0.16  -0.02  -0.13     0.01   0.00   0.01     0.03   0.00   0.03
  46   6    -0.00   0.00   0.00     0.01  -0.01   0.01     0.01   0.00   0.00
  47   8     0.00  -0.00  -0.00    -0.00   0.01  -0.00    -0.00   0.00  -0.00
  48   7    -0.00  -0.00   0.00    -0.00   0.00  -0.00    -0.00   0.00  -0.00
  49   1    -0.00  -0.00  -0.00     0.02   0.00   0.00    -0.01  -0.00  -0.00
  50   1    -0.00  -0.00   0.00    -0.00   0.01  -0.00     0.01  -0.01   0.00
  51   7     0.02   0.05   0.01    -0.01  -0.01  -0.00    -0.00   0.02   0.00
  52   1    -0.01   0.02  -0.01     0.00  -0.01   0.00     0.01  -0.02   0.02
  53   1    -0.07  -0.19  -0.03     0.02   0.06   0.01    -0.02  -0.06  -0.02
                    142                    143                    144
                        a                      a                      a 
 Frequencies --  3490.5567              3493.8664              3496.2502
 Red. masses --     1.8611                 1.4540                 1.4515
 Frc consts  --     0.0000                 0.0000                 0.0000
 IR Inten    --     2.5725                20.4239                18.8373
 Raman Activ --     0.0000                 0.0000                 0.0000
 Depolar     --     0.0000                 0.0000                 0.0000
 Atom AN      X      Y      Z        X      Y      Z        X      Y      Z
   1   8    -0.00   0.00   0.00     0.00  -0.00  -0.00    -0.00   0.00   0.00
   2   6     0.00   0.00   0.00     0.00   0.00   0.00     0.00   0.00   0.00
   3   1    -0.00  -0.00  -0.00     0.00  -0.00  -0.00     0.00  -0.00  -0.00
   4   1    -0.00  -0.00   0.00     0.00  -0.00   0.00     0.00   0.00  -0.00
   5   6     0.00  -0.00  -0.00     0.00  -0.00  -0.00    -0.00  -0.00   0.00
   6   1    -0.00   0.00   0.00    -0.00   0.00   0.00    -0.00  -0.00   0.00
   7   1    -0.00  -0.00   0.00    -0.00  -0.00   0.00     0.00   0.00  -0.00
   8   7     0.00  -0.00  -0.00     0.00  -0.00   0.00     0.00   0.00  -0.00
   9   6    -0.00   0.00  -0.00     0.00  -0.00  -0.00    -0.00   0.00  -0.00
  10   1     0.00   0.00   0.00    -0.00   0.00   0.00     0.00  -0.00  -0.00
  11   1     0.00  -0.00   0.00     0.00  -0.00   0.00    -0.00  -0.00   0.00
  12   1     0.00  -0.00   0.00     0.00  -0.00  -0.00    -0.00   0.00   0.00
  13   6     0.00   0.00  -0.00     0.00  -0.00  -0.00    -0.00  -0.00   0.00
  14   1    -0.00   0.00  -0.00    -0.00   0.00   0.00    -0.00  -0.00   0.00
  15   1    -0.00  -0.00   0.00    -0.00  -0.00   0.00     0.00   0.00  -0.00
  16   1     0.00  -0.00   0.00     0.00   0.00  -0.00    -0.00  -0.00   0.00
  17   6     0.00   0.00   0.00     0.00   0.00  -0.00    -0.00  -0.00   0.00
  18   1    -0.00  -0.00   0.00    -0.00  -0.00   0.00     0.00   0.00  -0.00
  19   1    -0.00  -0.00  -0.00     0.00  -0.00  -0.00    -0.00  -0.00  -0.00
  20   1     0.00  -0.00   0.00     0.00  -0.00  -0.00    -0.00  -0.00   0.00
  21   1     0.00  -0.00  -0.00    -0.00   0.00   0.00     0.00  -0.00  -0.00
  22   6    -0.00  -0.00   0.00    -0.00   0.00   0.00     0.00   0.00  -0.00
  23   8     0.00   0.00  -0.00     0.00   0.00  -0.00    -0.00  -0.00   0.00
  24   7    -0.00  -0.00   0.00    -0.00  -0.00   0.00     0.17   0.02  -0.06
  25   1     0.00  -0.00  -0.00     0.00  -0.00  -0.00    -0.32   0.56   0.16
  26   1     0.00   0.00  -0.00     0.00   0.00  -0.00    -0.33  -0.64   0.07
  27   7     0.00  -0.00  -0.00     0.00  -0.00  -0.00    -0.01  -0.00  -0.00
  28   1     0.00   0.00   0.00     0.00   0.00   0.00     0.02   0.03   0.01
  29   1    -0.01  -0.00   0.00    -0.00  -0.00   0.00     0.01  -0.00  -0.00
  30   6     0.00   0.00  -0.00    -0.00   0.00   0.00     0.00  -0.00  -0.00
  31   8    -0.00   0.00   0.00    -0.00  -0.00  -0.00    -0.00   0.00   0.00
  32   7     0.00   0.01  -0.00    -0.01  -0.00  -0.01    -0.00  -0.00  -0.00
  33   1     0.01  -0.00   0.02     0.01  -0.00   0.02    -0.00   0.00  -0.00
  34   1    -0.01  -0.02  -0.02     0.01   0.03   0.02     0.00   0.00   0.00
  35   7    -0.00   0.00  -0.01     0.03  -0.02   0.18     0.00  -0.00   0.00
  36   1     0.00   0.02   0.01    -0.03  -0.56  -0.43    -0.00  -0.00  -0.00
  37   1     0.00  -0.02   0.01    -0.06   0.63  -0.25    -0.00   0.00  -0.00
  38   6    -0.00  -0.00   0.00     0.00   0.00   0.00     0.00   0.00  -0.00
  39   8     0.00   0.00  -0.00    -0.00  -0.00  -0.00    -0.00  -0.00   0.00
  40   7    -0.00  -0.00  -0.00    -0.00  -0.00  -0.00    -0.00  -0.00  -0.00
  41   1    -0.00   0.00   0.02    -0.00   0.00   0.00    -0.00   0.00   0.00
  42   1     0.02   0.00  -0.01     0.00   0.00  -0.00     0.00   0.00  -0.00
  43   7    -0.00   0.00  -0.00     0.00   0.00  -0.00    -0.00   0.00  -0.00
  44   1    -0.00  -0.00   0.00    -0.01  -0.00   0.00    -0.00  -0.00   0.00
  45   1     0.00   0.00   0.00     0.01   0.00   0.01     0.00   0.00   0.00
  46   6     0.00  -0.01   0.01     0.00  -0.00   0.00     0.00  -0.00   0.00
  47   8    -0.00   0.00  -0.00    -0.00   0.00  -0.00    -0.00   0.00   0.00
  48   7    -0.00   0.02  -0.01    -0.00   0.00  -0.00     0.00   0.00  -0.00
  49   1    -0.05  -0.01  -0.01     0.00   0.00   0.00    -0.01  -0.00  -0.00
  50   1     0.06  -0.08   0.04     0.00  -0.00   0.00     0.00  -0.00   0.00
  51   7     0.11  -0.19   0.12     0.00  -0.01   0.00     0.00  -0.00   0.00
  52   1    -0.45   0.68  -0.50    -0.01   0.02  -0.02    -0.00   0.00  -0.00
  53   1     0.03   0.05   0.03     0.00   0.00   0.00     0.00   0.00   0.00
                    145                    146                    147
                        a                      a                      a 
 Frequencies --  3499.1103              3502.4651              3523.7668
 Red. masses --     1.4490                 1.4576                 1.9807
 Frc consts  --     0.0000                 0.0000                 0.0000
 IR Inten    --    28.2418                20.1578                14.0456
 Raman Activ --     0.0000                 0.0000                 0.0000
 Depolar     --     0.0000                 0.0000                 0.0000
 Atom AN      X      Y      Z        X      Y      Z        X      Y      Z
   1   8    -0.00   0.00   0.00     0.00  -0.00  -0.00    -0.00   0.00   0.00
   2   6    -0.00   0.00  -0.00     0.00   0.00   0.00    -0.00  -0.00   0.00
   3   1    -0.00   0.00   0.00     0.00  -0.00  -0.00     0.00   0.00   0.00
   4   1    -0.00  -0.00   0.00     0.00   0.00   0.00     0.00   0.00  -0.00
   5   6    -0.00   0.00   0.00     0.00  -0.00  -0.00    -0.00   0.00   0.00
   6   1     0.00  -0.00   0.00    -0.00   0.00   0.00    -0.00  -0.00   0.00
   7   1     0.00   0.00   0.00    -0.00  -0.00  -0.00     0.00  -0.00  -0.00
   8   7     0.00  -0.00   0.00     0.00   0.00  -0.00    -0.00   0.00  -0.00
   9   6    -0.00   0.00   0.00     0.00  -0.00  -0.00    -0.00  -0.00  -0.00
  10   1     0.00  -0.00   0.00    -0.00   0.00   0.00    -0.00   0.00   0.00
  11   1    -0.00   0.00  -0.00    -0.00  -0.00   0.00     0.00   0.00  -0.00
  12   1     0.00  -0.00  -0.00    -0.00   0.00  -0.00     0.00   0.00   0.00
  13   6    -0.00  -0.00   0.00     0.00  -0.00  -0.00     0.00  -0.00   0.00
  14   1     0.00  -0.00   0.00    -0.00   0.00   0.00    -0.00  -0.00  -0.00
  15   1     0.00   0.00  -0.00    -0.00  -0.00   0.00     0.00  -0.00  -0.00
  16   1     0.00   0.00   0.00     0.00  -0.00   0.00    -0.00   0.00  -0.00
  17   6    -0.00  -0.00  -0.00     0.00   0.00  -0.00     0.00   0.00   0.00
  18   1     0.00   0.00  -0.00    -0.00  -0.00   0.00     0.00  -0.00  -0.00
  19   1     0.00  -0.00  -0.00     0.00   0.00   0.00    -0.00  -0.00  -0.00
  20   1     0.00  -0.00   0.00     0.00  -0.00   0.00    -0.00   0.00  -0.00
  21   1     0.01  -0.01  -0.01    -0.00   0.00   0.00     0.00  -0.00  -0.00
  22   6     0.00   0.00  -0.00    -0.00  -0.00  -0.00     0.00   0.00   0.00
  23   8    -0.00  -0.00   0.00     0.00   0.00   0.00    -0.00  -0.00  -0.00
  24   7     0.00  -0.00  -0.00    -0.00   0.00   0.00     0.00  -0.00  -0.00
  25   1    -0.00   0.00   0.00     0.00  -0.01  -0.00    -0.00   0.00   0.00
  26   1    -0.00  -0.00   0.00     0.00   0.01  -0.00     0.00   0.00  -0.00
  27   7    -0.00   0.00   0.00     0.00  -0.00  -0.00     0.00   0.00   0.00
  28   1    -0.00  -0.00  -0.00     0.01   0.01   0.00    -0.01  -0.02  -0.00
  29   1     0.00   0.00  -0.00    -0.01  -0.00   0.00     0.00   0.00  -0.00
  30   6     0.00  -0.00   0.00    -0.00   0.00  -0.00    -0.01  -0.00  -0.01
  31   8    -0.00  -0.00  -0.00     0.00  -0.00   0.00     0.00   0.00   0.00
  32   7    -0.00   0.00  -0.00    -0.00  -0.01  -0.00    -0.08  -0.18  -0.18
  33   1     0.00  -0.00   0.00    -0.00   0.00  -0.01     0.03  -0.05   0.20
  34   1    -0.00  -0.00  -0.00     0.01   0.02   0.01     0.30   0.74   0.50
  35   7    -0.00   0.00  -0.00     0.00   0.00   0.00    -0.00   0.03  -0.00
  36   1     0.00  -0.00  -0.00    -0.00  -0.00  -0.00    -0.00  -0.02  -0.02
  37   1     0.00  -0.00   0.00    -0.00   0.00  -0.00     0.01  -0.08   0.03
  38   6     0.00   0.00   0.00     0.00   0.00  -0.00    -0.00  -0.00   0.00
  39   8    -0.00  -0.00   0.00    -0.00  -0.00  -0.00     0.00   0.00  -0.00
  40   7     0.13   0.05   0.12    -0.00  -0.00  -0.00     0.00   0.00   0.00
  41   1     0.13  -0.03  -0.69    -0.00   0.00   0.01     0.00  -0.00  -0.00
  42   1    -0.62  -0.15   0.25     0.01   0.00  -0.00    -0.00  -0.00   0.00
  43   7    -0.01  -0.01  -0.00     0.00   0.00   0.00     0.00   0.00  -0.00
  44   1     0.04   0.02  -0.02    -0.00  -0.00   0.00    -0.01  -0.00   0.00
  45   1     0.01   0.00   0.01    -0.00   0.00  -0.00     0.00   0.00   0.00
  46   6     0.00  -0.00   0.00    -0.00   0.00  -0.00     0.00  -0.00   0.00
  47   8    -0.00   0.00  -0.00     0.00  -0.00   0.00    -0.00   0.00  -0.00
  48   7     0.00   0.00  -0.00     0.05   0.17  -0.04    -0.00  -0.00   0.00
  49   1    -0.01  -0.00  -0.00    -0.61  -0.10  -0.13     0.01   0.00   0.00
  50   1     0.01  -0.01   0.01     0.43  -0.54   0.28    -0.01   0.01  -0.01
  51   7     0.00  -0.01   0.00    -0.02   0.02  -0.01     0.00  -0.00   0.00
  52   1    -0.01   0.02  -0.01     0.05  -0.08   0.06    -0.01   0.02  -0.01
  53   1     0.01   0.01   0.00    -0.00   0.00  -0.00    -0.00  -0.01  -0.00
                    148                    149                    150
                        a                      a                      a 
 Frequencies --  3527.3706              3531.4202              3557.2114
 Red. masses --     1.8994                 1.9360                 2.1778
 Frc consts  --     0.0000                 0.0000                 0.0000
 IR Inten    --    14.4785                11.4794                12.9960
 Raman Activ --     0.0000                 0.0000                 0.0000
 Depolar     --     0.0000                 0.0000                 0.0000
 Atom AN      X      Y      Z        X      Y      Z        X      Y      Z
   1   8     0.00  -0.00  -0.00    -0.00   0.00   0.00    -0.00   0.00   0.00
   2   6    -0.00   0.00  -0.00     0.00  -0.00  -0.00     0.00   0.00  -0.00
   3   1     0.00  -0.00  -0.00    -0.00   0.00   0.00    -0.00   0.00   0.00
   4   1    -0.00  -0.00   0.00    -0.00  -0.00   0.00    -0.00  -0.00   0.00
   5   6     0.00   0.00   0.00    -0.00   0.00   0.00     0.00  -0.00  -0.00
   6   1    -0.00  -0.00  -0.00     0.00  -0.00  -0.00    -0.00   0.00  -0.00
   7   1    -0.00  -0.00  -0.00     0.00   0.00   0.00     0.00   0.00   0.00
   8   7    -0.00   0.00   0.00    -0.00   0.00   0.00    -0.00   0.00  -0.00
   9   6    -0.00   0.00   0.00    -0.00   0.00   0.00    -0.00   0.00   0.00
  10   1     0.00  -0.00  -0.00     0.00  -0.00  -0.00     0.00  -0.00  -0.00
  11   1     0.00  -0.00   0.00    -0.00  -0.00   0.00    -0.00  -0.00   0.00
  12   1     0.00   0.00   0.00    -0.00  -0.00  -0.00    -0.00   0.00   0.00
  13   6    -0.00   0.00  -0.00    -0.00   0.00   0.00    -0.00   0.00  -0.00
  14   1     0.00  -0.00  -0.00     0.00  -0.00  -0.00     0.00  -0.00  -0.00
  15   1     0.00   0.00  -0.00     0.00   0.00  -0.00    -0.00   0.00   0.00
  16   1     0.00  -0.00   0.00    -0.00  -0.00   0.00     0.00  -0.00   0.00
  17   6    -0.00  -0.00  -0.00     0.00   0.00  -0.00    -0.00  -0.00  -0.00
  18   1     0.00   0.00  -0.00    -0.00   0.00   0.00     0.00   0.00   0.00
  19   1     0.00   0.00   0.00    -0.00   0.00   0.00    -0.00   0.00   0.00
  20   1     0.00  -0.00   0.00    -0.00   0.00  -0.00     0.00  -0.00   0.00
  21   1    -0.00   0.00   0.00     0.00  -0.00  -0.00     0.00  -0.00  -0.00
  22   6     0.00   0.00  -0.00    -0.01  -0.00  -0.00     0.00  -0.00  -0.00
  23   8    -0.00  -0.00   0.00     0.00   0.00   0.00    -0.00   0.00   0.00
  24   7     0.00  -0.00  -0.00    -0.01   0.03   0.00     0.00  -0.00  -0.00
  25   1    -0.00   0.00   0.00     0.04  -0.07  -0.02    -0.00   0.00   0.00
  26   1     0.00   0.00  -0.00    -0.02  -0.03   0.00     0.00   0.00  -0.00
  27   7     0.00   0.00   0.00    -0.16  -0.21  -0.03     0.00   0.00   0.00
  28   1    -0.00  -0.00  -0.00     0.49   0.80   0.15    -0.00  -0.00  -0.00
  29   1    -0.00   0.00  -0.00     0.13  -0.02  -0.03    -0.00   0.00   0.00
  30   6     0.00   0.00   0.00    -0.00  -0.00  -0.00    -0.00   0.01   0.00
  31   8    -0.00  -0.00  -0.00     0.00   0.00   0.00     0.00  -0.00  -0.00
  32   7     0.00   0.00   0.00    -0.00  -0.00  -0.00     0.01   0.01   0.02
  33   1    -0.00   0.00  -0.01     0.00  -0.00   0.01    -0.00   0.00  -0.02
  34   1    -0.00  -0.01  -0.00     0.01   0.01   0.01    -0.02  -0.06  -0.04
  35   7    -0.00  -0.00  -0.00    -0.00   0.00  -0.00    -0.01   0.30   0.04
  36   1     0.00   0.01   0.01     0.00   0.00   0.00    -0.03  -0.50  -0.42
  37   1     0.00   0.00  -0.00     0.00  -0.00   0.00     0.06  -0.62   0.28
  38   6     0.01   0.00   0.00    -0.00  -0.00  -0.00     0.00   0.00  -0.00
  39   8    -0.00  -0.00   0.00     0.00   0.00   0.00    -0.00  -0.00   0.00
  40   7    -0.01   0.00   0.02     0.00   0.00   0.00    -0.00  -0.00   0.00
  41   1     0.01  -0.00  -0.08     0.00  -0.00  -0.00     0.00  -0.00  -0.00
  42   1     0.01   0.00  -0.00    -0.00  -0.00   0.00     0.00   0.00  -0.00
  43   7     0.23   0.08  -0.08     0.00   0.00  -0.00     0.00   0.00   0.00
  44   1    -0.83  -0.31   0.35    -0.00  -0.00   0.00    -0.01  -0.00   0.00
  45   1    -0.05   0.00  -0.06    -0.00  -0.00  -0.00    -0.01  -0.00  -0.00
  46   6    -0.00   0.00  -0.00    -0.00   0.00  -0.00    -0.00   0.00  -0.00
  47   8     0.00  -0.00   0.00     0.00  -0.00   0.00     0.00  -0.00   0.00
  48   7     0.00  -0.00   0.00     0.00  -0.00   0.00     0.00   0.00   0.00
  49   1    -0.00  -0.00  -0.00    -0.00   0.00  -0.00    -0.00  -0.00  -0.00
  50   1    -0.00   0.00  -0.00    -0.01   0.01  -0.01     0.00  -0.00   0.00
  51   7     0.00   0.00  -0.00     0.00   0.00   0.00    -0.00   0.00  -0.00
  52   1     0.00  -0.00   0.00     0.00  -0.00   0.00     0.00  -0.00   0.00
  53   1    -0.00  -0.00   0.00    -0.00  -0.00  -0.00     0.00   0.00   0.00
                    151                    152                    153
                        a                      a                      a 
 Frequencies --  3560.9956              3565.3947              3569.3598
 Red. masses --     2.1771                 2.1874                 2.1786
 Frc consts  --     0.0000                 0.0000                 0.0000
 IR Inten    --    10.8347                17.0373                11.3185
 Raman Activ --     0.0000                 0.0000                 0.0000
 Depolar     --     0.0000                 0.0000                 0.0000
 Atom AN      X      Y      Z        X      Y      Z        X      Y      Z
   1   8    -0.00   0.00  -0.00    -0.00   0.00   0.00     0.00  -0.00  -0.00
   2   6     0.00  -0.00   0.00    -0.00  -0.00  -0.00    -0.00  -0.00  -0.00
   3   1    -0.00   0.00   0.00    -0.00   0.00   0.00     0.00   0.00   0.00
   4   1    -0.00  -0.00   0.00    -0.00  -0.00  -0.00    -0.00   0.00  -0.00
   5   6    -0.00  -0.00   0.00    -0.00  -0.00  -0.00    -0.00  -0.00   0.00
   6   1    -0.00  -0.00  -0.00     0.00   0.00   0.00    -0.00  -0.00  -0.00
   7   1     0.00   0.00   0.00    -0.00   0.00  -0.00     0.00  -0.00  -0.00
   8   7     0.00   0.00  -0.00     0.00  -0.00   0.00    -0.00  -0.00   0.00
   9   6    -0.00   0.00  -0.00     0.00  -0.00  -0.00    -0.00  -0.00  -0.00
  10   1     0.00  -0.00  -0.00    -0.00   0.00   0.00    -0.00   0.00  -0.00
  11   1    -0.00  -0.00   0.00    -0.00   0.00  -0.00     0.00   0.00  -0.00
  12   1     0.00   0.00   0.00     0.00  -0.00  -0.00     0.00   0.00   0.00
  13   6    -0.00  -0.00   0.00     0.00  -0.00   0.00    -0.00  -0.00   0.00
  14   1    -0.00  -0.00  -0.00    -0.00   0.00   0.00    -0.00  -0.00   0.00
  15   1     0.00   0.00  -0.00     0.00   0.00  -0.00     0.00   0.00  -0.00
  16   1    -0.00   0.00  -0.00    -0.00   0.00  -0.00    -0.00   0.00  -0.00
  17   6    -0.00  -0.00   0.00     0.00  -0.00   0.00    -0.00  -0.00   0.00
  18   1     0.00   0.00  -0.00     0.00   0.00  -0.00     0.00   0.00  -0.00
  19   1    -0.00  -0.00   0.00    -0.00  -0.00  -0.00    -0.00   0.00   0.00
  20   1    -0.00   0.00   0.00    -0.00   0.00  -0.00    -0.00   0.00  -0.00
  21   1     0.00  -0.00  -0.00     0.00  -0.00  -0.00    -0.00   0.00   0.00
  22   6     0.00  -0.01  -0.00     0.00  -0.00  -0.00    -0.00   0.00   0.00
  23   8    -0.00   0.00  -0.00    -0.00  -0.00   0.00    -0.00  -0.00  -0.00
  24   7     0.01  -0.30  -0.03    -0.00  -0.00   0.00     0.00  -0.00  -0.00
  25   1    -0.35   0.57   0.18    -0.00   0.00   0.00    -0.00   0.01   0.00
  26   1     0.32   0.56  -0.07     0.00   0.00  -0.00     0.00   0.01  -0.00
  27   7    -0.02  -0.02  -0.00    -0.00  -0.00   0.00    -0.00  -0.00   0.00
  28   1     0.04   0.07   0.01     0.00   0.00   0.00     0.00   0.01   0.00
  29   1     0.01  -0.00  -0.00     0.00  -0.00  -0.00     0.01  -0.00  -0.00
  30   6    -0.00  -0.00  -0.00    -0.00  -0.00  -0.00    -0.00   0.00   0.00
  31   8    -0.00   0.00   0.00     0.00   0.00   0.00     0.00  -0.00  -0.00
  32   7    -0.00  -0.00  -0.00    -0.00  -0.00  -0.00     0.00   0.00   0.00
  33   1     0.00  -0.00   0.00     0.00  -0.00   0.00    -0.00   0.00  -0.00
  34   1     0.00   0.00   0.00     0.00   0.00   0.00    -0.00  -0.00  -0.00
  35   7     0.00  -0.00  -0.00     0.00  -0.00  -0.00    -0.00   0.00  -0.00
  36   1     0.00   0.00   0.00     0.00   0.00   0.00    -0.00   0.00   0.00
  37   1    -0.00   0.00  -0.00    -0.00   0.00  -0.00     0.00  -0.00   0.00
  38   6     0.00  -0.00  -0.00    -0.01  -0.00   0.01     0.00   0.00  -0.00
  39   8    -0.00   0.00   0.00     0.00   0.00  -0.00    -0.00  -0.00   0.00
  40   7    -0.00  -0.00  -0.00    -0.19  -0.03   0.23     0.00   0.00  -0.00
  41   1    -0.00   0.00   0.00     0.10  -0.03  -0.65    -0.00   0.00   0.01
  42   1     0.00   0.00  -0.00     0.63   0.15  -0.22    -0.01  -0.00   0.00
  43   7    -0.00  -0.00   0.00    -0.02  -0.01   0.00     0.00   0.00   0.00
  44   1     0.00   0.00  -0.00     0.06   0.02  -0.03    -0.00  -0.00   0.00
  45   1     0.00  -0.00   0.00     0.00   0.00   0.01    -0.00  -0.00  -0.00
  46   6    -0.00   0.00  -0.00     0.00   0.00   0.00    -0.01   0.00  -0.00
  47   8     0.00  -0.00   0.00    -0.00   0.00  -0.00     0.00  -0.00   0.00
  48   7     0.00  -0.00   0.00    -0.00   0.00  -0.00    -0.27   0.08  -0.10
  49   1    -0.01  -0.00  -0.00     0.01   0.00   0.00     0.71   0.14   0.14
  50   1    -0.00   0.00  -0.00     0.00  -0.00   0.00     0.33  -0.46   0.23
  51   7     0.00   0.00   0.00    -0.00  -0.00  -0.00    -0.00   0.01  -0.00
  52   1    -0.00   0.00  -0.00    -0.00   0.00  -0.00     0.02  -0.02   0.02
  53   1    -0.00  -0.00  -0.00     0.00   0.01   0.00    -0.00  -0.00  -0.00
