 Entering Gaussian System
 *********************************************
 Gaussian 98:
 frequency output generated by the xtb code
 *********************************************
                         Standard orientation:
 --------------------------------------------------------------------
  Center     Atomic     Atomic              Coordinates (Angstroms)
  Number     Number      Type              X           Y           Z
 --------------------------------------------------------------------
    1          8             0       -3.064004    0.034072    1.347082
    2          6             0       -2.665639    1.258992    1.881052
    3          1             0       -3.475136    1.966252    1.680194
    4          1             0       -2.547517    1.192350    2.972276
    5          6             0       -1.323833    1.783433    1.340917
    6          1             0       -0.526712    1.096082    1.631631
    7          1             0       -1.139677    2.753805    1.806158
    8          7             0       -1.232303    1.948132   -0.134643
    9          6             0       -1.113435    0.635919   -0.794643
   10          1             0       -0.237870    0.121361   -0.403206
   11          1             0       -1.002814    0.796314   -1.865128
   12          1             0       -2.002192    0.042731   -0.594940
   13          6             0       -0.012416    2.714110   -0.444146
   14          1             0        0.070582    2.807729   -1.525780
   15          1             0        0.851515    2.178396   -0.052027
   16          1             0       -0.063659    3.705300    0.001376
   17          6             0       -2.397027    2.656026   -0.685625
   18          1             0       -3.291882    2.050400   -0.566273
   19          1             0       -2.220606    2.827629   -1.747295
   20          1             0       -2.532055    3.610311   -0.180123
   21          1             0       -2.372932   -0.630950    1.583396
   22          6             0        2.122612    0.122195    1.971162
   23          8             0        1.695386    0.488846    0.871858
   24          7             0        1.322368   -0.438262    2.897119
   25          1             0        0.450774   -0.848930    2.557742
   26          1             0        1.745682   -0.899129    3.683809
   27          7             0        3.400868    0.373428    2.341818
   28          1             0        3.795421   -0.037885    3.167711
   29          1             0        4.029658    0.765576    1.663972
   30          6             0       -0.966799    2.772852   -4.644944
   31          8             0       -0.960215    2.508450   -3.450922
   32          7             0       -2.050243    2.550429   -5.427744
   33          1             0       -2.833115    2.058041   -5.036361
   34          1             0       -2.020439    2.671307   -6.423472
   35          7             0        0.108421    3.307512   -5.273000
   36          1             0        0.063005    3.629088   -6.222521
   37          1             0        0.895833    3.589930   -4.717374
   38          6             0       -1.133212   -2.852658    1.988244
   39          8             0       -1.042621   -1.620329    1.934733
   40          7             0       -2.345724   -3.453647    2.002884
   41          1             0       -3.169866   -2.880428    2.054998
   42          1             0       -2.446450   -4.443755    2.131075
   43          7             0       -0.052946   -3.641945    2.040502
   44          1             0       -0.144137   -4.641479    2.017122
   45          1             0        0.871013   -3.243852    1.868821
   46          6             0        2.892463   -2.680758    0.129929
   47          8             0        2.476428   -2.724131    1.281851
   48          7             0        2.556023   -1.688460   -0.727207
   49          1             0        2.147885   -0.851768   -0.318185
   50          1             0        3.049660   -1.583537   -1.595819
   51          7             0        3.702776   -3.650203   -0.367311
   52          1             0        3.980393   -3.676210   -1.331040
   53          1             0        3.896726   -4.450589    0.207254
 --------------------------------------------------------------------
     1 basis functions        1 primitive gaussians
     1 alpha electrons        1 beta electrons

 Harmonic frequencies (cm**-1), IR intensities (km*mol⁻¹),
 Raman scattering activities (A**4/amu), Raman depolarization ratios,
 reduced masses (AMU), force constants (mDyne/A) and normal coordinates:
                      1                      2                      3
                        a                      a                      a 
 Frequencies --     6.5228                11.5187                13.8681
 Red. masses --    11.1888                12.5285                12.0487
 Frc consts  --     0.0000                 0.0000                 0.0000
 IR Inten    --     0.0333                 0.3823                 0.3022
 Raman Activ --     0.0000                 0.0000                 0.0000
 Depolar     --     0.0000                 0.0000                 0.0000
 Atom AN      X      Y      Z        X      Y      Z        X      Y      Z
   1   8    -0.01  -0.03   0.00    -0.02   0.09   0.10    -0.00   0.16   0.05
   2   6    -0.02  -0.02   0.00     0.01   0.07   0.08     0.07   0.11   0.05
   3   1    -0.01  -0.01   0.00     0.00   0.02   0.02     0.03   0.04   0.02
   4   1    -0.01  -0.01   0.00     0.00   0.02   0.02     0.03   0.03   0.01
   5   6    -0.02  -0.01   0.00     0.01   0.05   0.08     0.08   0.05   0.02
   6   1    -0.01  -0.00   0.00     0.00   0.02   0.03     0.02   0.01   0.00
   7   1    -0.01  -0.00   0.00     0.00   0.02   0.02     0.04   0.01   0.01
   8   7    -0.03  -0.01   0.01     0.02   0.02   0.08     0.06   0.05   0.02
   9   6    -0.01  -0.01   0.00     0.04  -0.00   0.11    -0.00   0.04   0.02
  10   1    -0.00   0.00   0.00     0.01   0.00   0.04    -0.01   0.00   0.00
  11   1    -0.00  -0.00   0.00     0.02  -0.01   0.03    -0.01   0.01   0.00
  12   1    -0.00  -0.00   0.00     0.01  -0.00   0.03    -0.01   0.02   0.01
  13   6    -0.03   0.00   0.01     0.02   0.02   0.06     0.08  -0.00  -0.01
  14   1    -0.01   0.00   0.00     0.01  -0.00   0.02     0.02  -0.00  -0.00
  15   1    -0.01   0.00   0.00     0.01   0.01   0.03     0.02  -0.01  -0.01
  16   1    -0.01   0.00   0.00    -0.00   0.01   0.01     0.04   0.00  -0.00
  17   6    -0.03  -0.02   0.01     0.02  -0.01   0.04     0.08   0.10   0.04
  18   1    -0.01  -0.01   0.00     0.01  -0.01   0.02     0.02   0.04   0.02
  19   1    -0.01  -0.00   0.00     0.01  -0.01   0.01     0.02   0.02   0.01
  20   1    -0.01  -0.01   0.00     0.00   0.00   0.00     0.04   0.03   0.01
  21   1    -0.00  -0.01  -0.00    -0.01   0.02   0.02    -0.01   0.03   0.01
  22   6    -0.01   0.02  -0.00     0.01   0.00   0.13    -0.03  -0.08   0.01
  23   8    -0.00   0.01  -0.01     0.03   0.11   0.18     0.00  -0.09  -0.00
  24   7    -0.01   0.02  -0.01    -0.01  -0.08   0.08    -0.06  -0.03   0.01
  25   1    -0.00   0.00  -0.00    -0.00  -0.01   0.01    -0.02  -0.00   0.00
  26   1    -0.00   0.01  -0.00    -0.01  -0.04   0.01    -0.02  -0.01   0.01
  27   7    -0.01   0.04   0.01     0.01  -0.04   0.18    -0.03  -0.12   0.03
  28   1    -0.00   0.01   0.00    -0.00  -0.03   0.04    -0.01  -0.03   0.01
  29   1    -0.00   0.01   0.00     0.00   0.01   0.06    -0.00  -0.04   0.01
  30   6    -0.00  -0.01   0.01     0.06  -0.23   0.03    -0.15  -0.04  -0.00
  31   8    -0.03  -0.01   0.01     0.07  -0.16   0.06    -0.05   0.01   0.01
  32   7    -0.19   0.56   0.11     0.07  -0.32   0.05    -0.24  -0.11   0.11
  33   1    -0.11   0.26   0.05     0.02  -0.08   0.02    -0.05  -0.03   0.06
  34   1    -0.06   0.14   0.03     0.02  -0.11   0.01    -0.09  -0.04   0.03
  35   7     0.22  -0.58  -0.10     0.07  -0.31  -0.00    -0.24  -0.04  -0.13
  36   1     0.08  -0.15  -0.02     0.02  -0.10  -0.01    -0.09  -0.02  -0.04
  37   1     0.11  -0.26  -0.04     0.02  -0.07  -0.01    -0.05   0.00  -0.06
  38   6     0.02  -0.01  -0.02    -0.04   0.03  -0.11    -0.07   0.03  -0.19
  39   8     0.01  -0.01  -0.02    -0.02   0.04  -0.02    -0.06   0.04  -0.07
  40   7     0.02  -0.02  -0.04    -0.05   0.05  -0.15    -0.09   0.05  -0.34
  41   1     0.00  -0.01  -0.01    -0.01   0.01  -0.02    -0.02   0.01  -0.08
  42   1     0.01  -0.01  -0.01    -0.02   0.01  -0.06    -0.03   0.01  -0.12
  43   7     0.02  -0.00  -0.02    -0.05   0.01  -0.21    -0.09   0.01  -0.24
  44   1     0.01  -0.00  -0.01    -0.02   0.00  -0.08    -0.03   0.00  -0.09
  45   1     0.01   0.00  -0.00    -0.01   0.00  -0.05    -0.02   0.00  -0.03
  46   6     0.03   0.02   0.01    -0.06   0.15  -0.17     0.17  -0.03   0.14
  47   8     0.03   0.02   0.01    -0.07   0.06  -0.21     0.03  -0.04   0.11
  48   7     0.03   0.01   0.01    -0.02   0.28  -0.07     0.22  -0.08   0.09
  49   1     0.00   0.00   0.00     0.01   0.07   0.01     0.03  -0.03   0.00
  50   1     0.01   0.00   0.00    -0.00   0.10  -0.02     0.09  -0.02   0.04
  51   7     0.05   0.03   0.02    -0.11   0.18  -0.30     0.32   0.02   0.28
  52   1     0.01   0.01   0.01    -0.03   0.08  -0.08     0.12   0.00   0.08
  53   1     0.01   0.01   0.01    -0.04   0.03  -0.11     0.08   0.01   0.09
                      4                      5                      6
                        a                      a                      a 
 Frequencies --    20.3003                27.6847                31.6434
 Red. masses --    12.1690                12.4723                11.8501
 Frc consts  --     0.0000                 0.0000                 0.0000
 IR Inten    --     1.9922                 0.5801                 2.6146
 Raman Activ --     0.0000                 0.0000                 0.0000
 Depolar     --     0.0000                 0.0000                 0.0000
 Atom AN      X      Y      Z        X      Y      Z        X      Y      Z
   1   8     0.11  -0.05  -0.17     0.06  -0.08  -0.01    -0.02  -0.07  -0.27
   2   6     0.08  -0.05  -0.12     0.02  -0.08   0.05    -0.08  -0.08  -0.12
   3   1     0.03  -0.01  -0.03    -0.00  -0.03   0.03    -0.03  -0.03  -0.03
   4   1     0.02  -0.02  -0.03     0.01  -0.04   0.01    -0.04  -0.05  -0.03
   5   6     0.09  -0.04  -0.08    -0.01  -0.01   0.07    -0.06  -0.00   0.01
   6   1     0.03  -0.01  -0.02     0.00   0.00   0.01    -0.02  -0.01  -0.00
   7   1     0.02  -0.01  -0.02    -0.01  -0.01   0.03    -0.03  -0.01   0.04
   8   7     0.14  -0.03  -0.08    -0.03   0.08   0.08     0.02   0.16   0.04
   9   6     0.17  -0.02  -0.08     0.01   0.11   0.00     0.02   0.22  -0.09
  10   1     0.05  -0.00  -0.02     0.01   0.03  -0.01     0.00   0.05  -0.03
  11   1     0.06  -0.00  -0.02    -0.00   0.05   0.00     0.02   0.09  -0.02
  12   1     0.05  -0.01  -0.03     0.01   0.02  -0.01     0.00   0.06  -0.05
  13   6     0.12   0.00  -0.04    -0.05   0.13   0.10     0.05   0.16   0.18
  14   1     0.04  -0.00  -0.01    -0.02   0.06   0.03     0.03   0.08   0.06
  15   1     0.03   0.01  -0.00    -0.01   0.03   0.01     0.00   0.03   0.05
  16   1     0.02   0.00  -0.01    -0.02   0.03   0.05     0.01   0.03   0.08
  17   6     0.12  -0.04  -0.10    -0.05   0.07   0.13     0.06   0.24   0.05
  18   1     0.04  -0.02  -0.03    -0.01   0.01   0.03     0.01   0.07  -0.02
  19   1     0.04  -0.01  -0.03    -0.02   0.04   0.04     0.03   0.10   0.02
  20   1     0.03  -0.01  -0.03    -0.02   0.01   0.05     0.02   0.05   0.04
  21   1     0.03  -0.01  -0.04     0.03  -0.01  -0.03    -0.01  -0.02  -0.05
  22   6     0.02   0.05   0.19     0.05   0.17  -0.08    -0.07  -0.09  -0.05
  23   8     0.10   0.11   0.21     0.11   0.11  -0.13    -0.10  -0.07  -0.03
  24   7    -0.02  -0.06   0.10     0.05   0.08  -0.15    -0.08  -0.04  -0.01
  25   1     0.01  -0.02   0.00     0.03  -0.01  -0.06    -0.03  -0.00   0.00
  26   1    -0.02  -0.02   0.03     0.01   0.03  -0.03    -0.02  -0.02  -0.01
  27   7    -0.02   0.10   0.33    -0.01   0.36   0.02    -0.04  -0.17  -0.10
  28   1    -0.02   0.03   0.09    -0.01   0.12   0.02    -0.01  -0.06  -0.04
  29   1     0.00   0.05   0.11    -0.00   0.12   0.02    -0.01  -0.06  -0.04
  30   6    -0.12   0.06  -0.07     0.00  -0.05   0.07     0.04  -0.01   0.03
  31   8     0.10   0.02  -0.09    -0.08   0.13   0.12     0.16   0.32   0.10
  32   7    -0.27   0.10   0.12     0.06  -0.20   0.03    -0.03  -0.24   0.18
  33   1    -0.05   0.02   0.06     0.01  -0.03   0.02     0.00  -0.03   0.10
  34   1    -0.12   0.03   0.03     0.03  -0.09   0.01    -0.03  -0.13   0.04
  35   7    -0.25   0.10  -0.25     0.04  -0.15   0.06    -0.02  -0.18  -0.21
  36   1    -0.11   0.04  -0.06     0.03  -0.08   0.00    -0.03  -0.11  -0.08
  37   1    -0.04   0.02  -0.10    -0.00  -0.01   0.02     0.00  -0.00  -0.09
  38   6     0.02  -0.06   0.00     0.06  -0.02  -0.17     0.02  -0.06   0.10
  39   8     0.06  -0.08  -0.10     0.15  -0.04  -0.29    -0.08  -0.06   0.03
  40   7     0.00  -0.03   0.01     0.03   0.05  -0.28     0.06  -0.15   0.19
  41   1     0.00  -0.00  -0.02     0.01   0.03  -0.11     0.01  -0.06   0.05
  42   1    -0.01  -0.01   0.02    -0.01   0.02  -0.06     0.04  -0.04   0.06
  43   7     0.00  -0.09   0.11     0.01  -0.08   0.02     0.08   0.02   0.13
  44   1    -0.01  -0.02   0.05    -0.01  -0.02   0.02     0.04   0.00   0.05
  45   1     0.00  -0.03   0.03     0.01  -0.03   0.02     0.01   0.02   0.02
  46   6    -0.10   0.00   0.03    -0.09  -0.13   0.08     0.02   0.03  -0.04
  47   8    -0.06  -0.04   0.05     0.01  -0.07   0.13     0.04   0.05  -0.04
  48   7    -0.05   0.10   0.12    -0.11  -0.16   0.07    -0.04  -0.01  -0.06
  49   1     0.01   0.03   0.05    -0.01  -0.03   0.01    -0.02  -0.01  -0.02
  50   1    -0.02   0.03   0.03    -0.05  -0.06   0.00    -0.02  -0.00  -0.02
  51   7    -0.25  -0.06  -0.09    -0.21  -0.22   0.05     0.08   0.07  -0.02
  52   1    -0.07   0.00  -0.03    -0.06  -0.07   0.01     0.01   0.01  -0.01
  53   1    -0.07  -0.03  -0.04    -0.04  -0.05   0.02     0.03   0.02  -0.00
                      7                      8                      9
                        a                      a                      a 
 Frequencies --    38.7987                41.7581                46.2987
 Red. masses --    12.2292                11.9242                12.4086
 Frc consts  --     0.0000                 0.0000                 0.0000
 IR Inten    --     7.8167                 2.0774                 6.7534
 Raman Activ --     0.0000                 0.0000                 0.0000
 Depolar     --     0.0000                 0.0000                 0.0000
 Atom AN      X      Y      Z        X      Y      Z        X      Y      Z
   1   8    -0.04   0.03  -0.04     0.16   0.10   0.13     0.01   0.12   0.05
   2   6     0.00  -0.02   0.02     0.25   0.05   0.10     0.09   0.07   0.07
   3   1     0.00   0.00   0.02     0.07   0.03   0.06     0.03   0.03   0.04
   4   1     0.00  -0.02   0.01     0.11   0.00   0.03     0.04   0.01   0.02
   5   6     0.00  -0.01   0.03     0.20   0.03  -0.04     0.08   0.05   0.01
   6   1     0.00  -0.00   0.01     0.06   0.00  -0.04     0.03   0.01  -0.00
   7   1    -0.00  -0.00   0.01     0.08   0.00  -0.01     0.03   0.02  -0.00
   8   7     0.01  -0.01   0.04     0.04   0.08  -0.05     0.03   0.03   0.01
   9   6     0.11  -0.00   0.03    -0.12   0.09  -0.09     0.02   0.02   0.02
  10   1     0.04   0.02   0.01    -0.03   0.01  -0.06     0.01   0.01  -0.00
  11   1     0.03   0.00   0.01    -0.07   0.03  -0.03    -0.01   0.00   0.00
  12   1     0.05  -0.02   0.01    -0.04   0.04  -0.00     0.01   0.00   0.02
  13   6    -0.04   0.07   0.04     0.05   0.01  -0.16     0.01   0.03  -0.05
  14   1    -0.02   0.03   0.01    -0.01   0.00  -0.05    -0.01   0.00  -0.02
  15   1    -0.00   0.04   0.01     0.02  -0.01  -0.07     0.01   0.01  -0.02
  16   1    -0.03   0.02   0.01     0.04   0.00  -0.04     0.00   0.01  -0.02
  17   6    -0.04  -0.10   0.02     0.02   0.17   0.11    -0.00   0.00   0.04
  18   1     0.00  -0.05   0.01    -0.00   0.06   0.06     0.00  -0.00   0.03
  19   1    -0.01  -0.03   0.01    -0.03   0.05   0.03    -0.01  -0.00   0.01
  20   1    -0.03  -0.03   0.01     0.04   0.05   0.05     0.00   0.00   0.01
  21   1    -0.01  -0.00  -0.02     0.03   0.01   0.02    -0.01   0.01   0.01
  22   6     0.01   0.06  -0.08    -0.10   0.01   0.06    -0.09  -0.05  -0.03
  23   8     0.16   0.10  -0.14    -0.10   0.01   0.06    -0.01  -0.03  -0.06
  24   7    -0.09   0.01  -0.21    -0.09  -0.12  -0.01    -0.22   0.14  -0.01
  25   1    -0.01  -0.01  -0.09    -0.01  -0.05  -0.02    -0.06   0.04  -0.01
  26   1    -0.04  -0.00  -0.05    -0.02  -0.03  -0.00    -0.08   0.04   0.01
  27   7    -0.04   0.09   0.09    -0.15   0.13   0.14    -0.07  -0.24   0.00
  28   1    -0.04   0.03   0.04    -0.04   0.04   0.04    -0.04  -0.10  -0.01
  29   1     0.01   0.04   0.05    -0.04   0.06   0.05     0.01  -0.12  -0.01
  30   6    -0.01  -0.00   0.04    -0.05   0.03  -0.10    -0.03  -0.01  -0.02
  31   8    -0.03   0.03   0.05    -0.28   0.14  -0.09    -0.11  -0.02  -0.02
  32   7     0.00  -0.02   0.03     0.08  -0.02  -0.27     0.02   0.01  -0.08
  33   1    -0.00  -0.00   0.01    -0.00   0.02  -0.09    -0.00   0.00  -0.04
  34   1     0.00  -0.01   0.01     0.06  -0.02  -0.07     0.02   0.01  -0.02
  35   7    -0.00  -0.02   0.04     0.08  -0.07   0.03     0.01  -0.01   0.05
  36   1     0.00  -0.01   0.01     0.06  -0.04  -0.00     0.02   0.00   0.02
  37   1    -0.00  -0.00   0.01    -0.00  -0.01   0.04    -0.01  -0.00   0.03
  38   6    -0.11  -0.04   0.04    -0.01  -0.17   0.04     0.07  -0.08  -0.02
  39   8    -0.07  -0.05  -0.19    -0.02  -0.20  -0.04    -0.10  -0.09  -0.00
  40   7    -0.15   0.03   0.38    -0.01  -0.19   0.16     0.17  -0.28  -0.15
  41   1    -0.03   0.02   0.10    -0.00  -0.05   0.04     0.02  -0.11  -0.04
  42   1    -0.05   0.01   0.13    -0.00  -0.05   0.06     0.08  -0.08  -0.03
  43   7    -0.15  -0.08  -0.02    -0.01  -0.18   0.01     0.19   0.06   0.08
  44   1    -0.05  -0.02   0.05    -0.00  -0.05   0.02     0.09   0.01   0.01
  45   1    -0.04  -0.03  -0.05    -0.01  -0.05  -0.01     0.04   0.05   0.03
  46   6     0.10  -0.02  -0.06     0.00   0.01  -0.00    -0.01   0.08   0.02
  47   8    -0.20  -0.05  -0.18    -0.03  -0.11  -0.02     0.08   0.36   0.07
  48   7     0.52   0.13  -0.05    -0.11   0.01   0.03     0.24   0.11  -0.03
  49   1     0.13   0.04  -0.03    -0.05  -0.01   0.02     0.09   0.05  -0.03
  50   1     0.20   0.03   0.02    -0.02   0.03   0.02     0.04  -0.03  -0.03
  51   7     0.04  -0.13   0.05     0.16   0.16  -0.03    -0.39  -0.24   0.05
  52   1     0.08  -0.02   0.03     0.03   0.06  -0.01    -0.08  -0.09   0.02
  53   1    -0.06  -0.06   0.01     0.05   0.03  -0.02    -0.12  -0.05   0.04
                     10                     11                     12
                        a                      a                      a 
 Frequencies --    54.8408                57.3799                63.5334
 Red. masses --    13.4288                12.9238                11.5884
 Frc consts  --     0.0000                 0.0000                 0.0000
 IR Inten    --     5.5482                 1.8971                 1.5161
 Raman Activ --     0.0000                 0.0000                 0.0000
 Depolar     --     0.0000                 0.0000                 0.0000
 Atom AN      X      Y      Z        X      Y      Z        X      Y      Z
   1   8     0.16  -0.13   0.02     0.00   0.12   0.08    -0.16   0.00   0.07
   2   6     0.02  -0.05  -0.03     0.04   0.11   0.04    -0.13   0.04  -0.03
   3   1    -0.01  -0.04  -0.02     0.02   0.04   0.01    -0.03   0.01  -0.03
   4   1    -0.00   0.00  -0.01     0.01   0.04   0.01    -0.05   0.04  -0.01
   5   6    -0.00   0.03  -0.01     0.06   0.06   0.02    -0.09  -0.06  -0.02
   6   1     0.01   0.02  -0.00     0.01   0.02   0.02    -0.04  -0.04  -0.01
   7   1    -0.02   0.01  -0.00     0.02   0.02  -0.01    -0.00  -0.02   0.00
   8   7    -0.00   0.04  -0.01     0.08  -0.01   0.02    -0.06  -0.03  -0.01
   9   6     0.05   0.04  -0.01     0.07  -0.05   0.08    -0.30  -0.03  -0.05
  10   1     0.03   0.03  -0.01     0.02  -0.01   0.03    -0.11  -0.06  -0.02
  11   1     0.00   0.01  -0.00     0.03  -0.03   0.02    -0.08  -0.00  -0.01
  12   1     0.03  -0.00   0.01     0.02  -0.01   0.03    -0.12   0.04  -0.02
  13   6    -0.03   0.08  -0.00     0.08  -0.03  -0.01     0.08  -0.24   0.01
  14   1    -0.01   0.03   0.00     0.02  -0.02  -0.00     0.03  -0.06   0.00
  15   1    -0.00   0.03   0.00     0.02  -0.01   0.00    -0.00  -0.11   0.00
  16   1    -0.02   0.02   0.00     0.02  -0.00  -0.01     0.07  -0.07   0.01
  17   6    -0.02  -0.01  -0.02     0.08  -0.04  -0.03     0.08   0.22   0.01
  18   1     0.00  -0.01  -0.01     0.02  -0.01  -0.00    -0.01   0.11  -0.01
  19   1    -0.00   0.01  -0.00     0.03  -0.03  -0.01     0.03   0.07   0.01
  20   1    -0.02  -0.01  -0.00     0.02  -0.00  -0.03     0.07   0.06   0.02
  21   1     0.03  -0.02   0.06    -0.02   0.02   0.03    -0.03   0.01   0.02
  22   6    -0.01   0.07  -0.00    -0.13   0.09  -0.10    -0.05   0.02   0.10
  23   8    -0.15  -0.01   0.02    -0.06  -0.09  -0.21    -0.01  -0.17   0.04
  24   7     0.14   0.05   0.11    -0.17   0.11  -0.13    -0.05   0.03   0.11
  25   1     0.03  -0.00   0.07    -0.03  -0.00  -0.04    -0.01  -0.00   0.03
  26   1     0.07   0.04   0.03    -0.06   0.08  -0.00    -0.02   0.05   0.06
  27   7     0.01   0.20  -0.15    -0.22   0.34   0.02    -0.11   0.23   0.19
  28   1     0.03   0.08  -0.04    -0.07   0.12   0.02    -0.03   0.09   0.07
  29   1    -0.03   0.06  -0.06    -0.05   0.07   0.00    -0.02   0.04   0.04
  30   6     0.01   0.05  -0.06     0.10  -0.05   0.09     0.01   0.02  -0.01
  31   8     0.01   0.17  -0.04     0.34  -0.25   0.06     0.01   0.08  -0.00
  32   7     0.02  -0.03  -0.05    -0.02   0.04   0.26     0.01  -0.02  -0.00
  33   1     0.00   0.01  -0.00     0.02  -0.03   0.08     0.00   0.00   0.01
  34   1     0.00  -0.03  -0.01    -0.05   0.04   0.07    -0.00  -0.01  -0.00
  35   7     0.02  -0.02  -0.11    -0.02   0.09  -0.00     0.00  -0.00  -0.04
  36   1     0.00  -0.02  -0.04    -0.05   0.05   0.01    -0.00  -0.01  -0.01
  37   1     0.00   0.01  -0.04     0.02  -0.00  -0.03     0.00   0.01  -0.02
  38   6    -0.05  -0.09   0.10    -0.03  -0.10   0.01     0.06   0.10  -0.00
  39   8    -0.00  -0.08   0.63    -0.14  -0.10   0.10    -0.01   0.13   0.01
  40   7    -0.08  -0.05  -0.13     0.02  -0.21   0.06     0.11   0.04   0.08
  41   1    -0.01  -0.01   0.04    -0.01  -0.07   0.04     0.02  -0.00   0.03
  42   1    -0.03  -0.02  -0.12     0.03  -0.06  -0.00     0.05   0.01   0.01
  43   7    -0.09  -0.17  -0.25     0.04  -0.03  -0.13     0.11   0.17  -0.09
  44   1    -0.04  -0.04  -0.17     0.03  -0.01  -0.04     0.04   0.04  -0.02
  45   1    -0.02  -0.04  -0.03     0.00   0.01  -0.03     0.03   0.05  -0.03
  46   6    -0.00  -0.02   0.01    -0.03  -0.00  -0.05     0.13  -0.13  -0.08
  47   8    -0.10  -0.03  -0.02     0.02   0.07  -0.04     0.22  -0.17  -0.07
  48   7     0.22   0.08   0.05    -0.19  -0.13  -0.15     0.24  -0.03   0.01
  49   1     0.05   0.02   0.01    -0.05  -0.03  -0.05     0.07  -0.01   0.02
  50   1     0.07   0.01   0.02    -0.06  -0.04  -0.05     0.04  -0.01  -0.01
  51   7    -0.14  -0.13   0.00     0.07   0.04   0.01    -0.06  -0.24  -0.22
  52   1    -0.00  -0.02   0.01     0.00  -0.01  -0.00    -0.00  -0.04  -0.05
  53   1    -0.06  -0.04  -0.00     0.05   0.03   0.02    -0.01  -0.07  -0.07
                     13                     14                     15
                        a                      a                      a 
 Frequencies --    72.9448                74.7684                76.4829
 Red. masses --    11.4561                12.9689                12.9523
 Frc consts  --     0.0000                 0.0000                 0.0000
 IR Inten    --     1.9805                 7.9510                 4.2297
 Raman Activ --     0.0000                 0.0000                 0.0000
 Depolar     --     0.0000                 0.0000                 0.0000
 Atom AN      X      Y      Z        X      Y      Z        X      Y      Z
   1   8    -0.00  -0.16  -0.00     0.04   0.01  -0.05     0.07  -0.06  -0.28
   2   6     0.07  -0.15  -0.01     0.00   0.03  -0.05    -0.01  -0.07  -0.15
   3   1     0.03  -0.03   0.00    -0.00   0.00  -0.02    -0.01  -0.02  -0.04
   4   1     0.03  -0.05  -0.00    -0.00   0.01  -0.01    -0.02  -0.04  -0.04
   5   6     0.09  -0.23  -0.03    -0.01   0.06  -0.04    -0.01   0.02  -0.06
   6   1     0.01  -0.09  -0.04     0.00   0.02  -0.02     0.00   0.00  -0.03
   7   1     0.06  -0.08   0.01    -0.01   0.02  -0.01    -0.01  -0.00   0.01
   8   7     0.04  -0.12  -0.03    -0.01   0.09  -0.04     0.03   0.15  -0.05
   9   6    -0.23  -0.08  -0.15    -0.06   0.09  -0.06    -0.00   0.18  -0.14
  10   1    -0.09  -0.08  -0.07    -0.02   0.02  -0.02    -0.00   0.04  -0.05
  11   1    -0.08  -0.00  -0.04    -0.02   0.03  -0.02    -0.00   0.07  -0.04
  12   1    -0.10   0.02  -0.04    -0.02   0.04  -0.02    -0.00   0.05  -0.05
  13   6     0.16  -0.29  -0.02     0.02   0.04  -0.02     0.06   0.11   0.03
  14   1     0.04  -0.07  -0.00     0.01   0.01  -0.01     0.03   0.04   0.01
  15   1     0.02  -0.13  -0.02    -0.00   0.00  -0.00     0.01   0.02   0.01
  16   1     0.09  -0.09   0.01     0.02   0.01  -0.01     0.02   0.03   0.02
  17   6     0.14   0.15   0.10     0.02   0.15  -0.01     0.06   0.22  -0.01
  18   1     0.01   0.09   0.02    -0.00   0.06  -0.00     0.01   0.08  -0.01
  19   1     0.04   0.07   0.03     0.00   0.04  -0.00     0.02   0.07  -0.00
  20   1     0.10   0.04   0.06     0.02   0.04  -0.00     0.03   0.06   0.01
  21   1     0.01  -0.04  -0.01     0.01   0.01  -0.01     0.01  -0.01  -0.05
  22   6     0.06   0.02  -0.04    -0.04   0.01  -0.03     0.02   0.01   0.02
  23   8     0.09  -0.06  -0.08    -0.13   0.01  -0.00     0.00   0.05   0.04
  24   7     0.05   0.13   0.00     0.04  -0.07  -0.01     0.02   0.00   0.02
  25   1     0.02   0.01   0.00     0.01  -0.02   0.01     0.00   0.01   0.01
  26   1     0.01   0.05   0.01     0.03  -0.02  -0.01     0.01  -0.01  -0.00
  27   7     0.07   0.05  -0.05    -0.04   0.08  -0.10     0.03  -0.03  -0.00
  28   1     0.02   0.03  -0.00     0.01   0.03  -0.03     0.01  -0.03  -0.01
  29   1     0.02  -0.00  -0.02    -0.03   0.04  -0.03     0.01  -0.01  -0.00
  30   6     0.02  -0.00   0.06     0.00  -0.09   0.07    -0.08  -0.15   0.11
  31   8     0.04   0.02   0.07     0.04  -0.32   0.04    -0.17  -0.47   0.06
  32   7     0.01  -0.03   0.09    -0.03   0.05   0.08    -0.05   0.06   0.00
  33   1     0.00  -0.00   0.03     0.00  -0.02   0.00    -0.02  -0.01  -0.04
  34   1    -0.00  -0.01   0.02    -0.01   0.05   0.03     0.01   0.07   0.01
  35   7     0.01  -0.01   0.04    -0.03   0.03   0.15    -0.05   0.00   0.33
  36   1    -0.00  -0.01   0.01    -0.01   0.04   0.05     0.01   0.05   0.10
  37   1     0.00   0.00   0.01     0.00  -0.03   0.04    -0.01  -0.06   0.12
  38   6    -0.03  -0.01  -0.01    -0.01  -0.03   0.09     0.00  -0.00  -0.02
  39   8     0.06  -0.02  -0.01    -0.00  -0.04   0.07     0.01   0.00   0.05
  40   7    -0.08   0.08  -0.03    -0.02  -0.04  -0.34    -0.00   0.02   0.21
  41   1    -0.01   0.04  -0.01    -0.01  -0.01  -0.14     0.00   0.01   0.08
  42   1    -0.04   0.02  -0.00    -0.01  -0.00  -0.05     0.00  -0.00   0.01
  43   7    -0.09  -0.08   0.02    -0.02  -0.02   0.59    -0.00  -0.02  -0.35
  44   1    -0.04  -0.02  -0.00    -0.01  -0.01   0.11    -0.00  -0.01  -0.07
  45   1    -0.02  -0.03   0.00    -0.01  -0.02   0.13     0.00  -0.00  -0.07
  46   6    -0.11   0.19   0.01     0.03  -0.03  -0.07     0.01  -0.01   0.05
  47   8    -0.27   0.34  -0.03    -0.14  -0.18  -0.16     0.10   0.02   0.10
  48   7    -0.00   0.13  -0.11     0.21   0.09  -0.00    -0.01  -0.01   0.07
  49   1     0.00   0.05  -0.05     0.03   0.01   0.00    -0.00  -0.00   0.02
  50   1     0.03   0.02  -0.01     0.09   0.05   0.02    -0.03  -0.01   0.01
  51   7    -0.07   0.15   0.21     0.10   0.02  -0.09    -0.07  -0.05   0.01
  52   1    -0.00   0.01   0.06     0.04   0.03  -0.02    -0.02  -0.01   0.00
  53   1    -0.05   0.05   0.08    -0.02  -0.03  -0.05    -0.00  -0.01   0.01
                     16                     17                     18
                        a                      a                      a 
 Frequencies --    81.1053                93.9444               100.6314
 Red. masses --    13.0508                12.2498                12.2414
 Frc consts  --     0.0000                 0.0000                 0.0000
 IR Inten    --     2.8681                 1.5840                 6.9723
 Raman Activ --     0.0000                 0.0000                 0.0000
 Depolar     --     0.0000                 0.0000                 0.0000
 Atom AN      X      Y      Z        X      Y      Z        X      Y      Z
   1   8    -0.08   0.04  -0.26    -0.10  -0.01   0.10     0.18  -0.19   0.11
   2   6     0.01  -0.05  -0.07    -0.22   0.08  -0.03    -0.05  -0.06   0.01
   3   1     0.03   0.01  -0.01    -0.07  -0.00  -0.06    -0.04  -0.06  -0.03
   4   1    -0.01  -0.05  -0.02    -0.10   0.07  -0.00    -0.03   0.01   0.01
   5   6     0.08  -0.13   0.02    -0.19   0.12   0.07    -0.09   0.10   0.07
   6   1     0.00  -0.06   0.01    -0.06   0.05   0.05    -0.01   0.06   0.05
   7   1     0.04  -0.05   0.02    -0.08   0.04   0.02    -0.07   0.04   0.02
   8   7     0.15  -0.08   0.03    -0.05   0.08   0.08    -0.00   0.07   0.08
   9   6     0.23  -0.04  -0.02    -0.12   0.05   0.12     0.02   0.05   0.11
  10   1     0.08   0.00  -0.01    -0.04   0.00   0.04    -0.00   0.01   0.05
  11   1     0.06   0.00  -0.00    -0.02   0.00   0.03     0.03   0.01   0.03
  12   1     0.08  -0.03  -0.01    -0.05   0.03   0.04     0.00   0.02   0.02
  13   6     0.10   0.00   0.09     0.05  -0.04   0.15     0.03   0.04   0.12
  14   1     0.03   0.02   0.03     0.03  -0.02   0.04     0.02   0.01   0.04
  15   1     0.04   0.01   0.02    -0.01  -0.03   0.06     0.00   0.00   0.04
  16   1     0.01  -0.01   0.04     0.03  -0.01   0.04     0.01   0.01   0.04
  17   6     0.11  -0.13   0.03     0.07   0.18  -0.04     0.04   0.07  -0.01
  18   1     0.04  -0.06  -0.00    -0.00   0.08  -0.03     0.01   0.03  -0.01
  19   1     0.03  -0.02   0.01     0.05   0.04  -0.01     0.03   0.01  -0.00
  20   1     0.01  -0.04   0.02     0.04   0.06  -0.02     0.01   0.03  -0.02
  21   1    -0.05  -0.01  -0.04    -0.02   0.01   0.06     0.08  -0.01   0.03
  22   6     0.04   0.01   0.03     0.21   0.01  -0.04    -0.07   0.05   0.05
  23   8     0.20  -0.13  -0.08     0.39   0.16  -0.05     0.06  -0.12  -0.05
  24   7    -0.07   0.13  -0.00     0.12  -0.14  -0.22    -0.27   0.51   0.18
  25   1    -0.02   0.03   0.00     0.04  -0.02  -0.08    -0.05   0.09   0.04
  26   1    -0.05   0.08   0.04     0.01  -0.06  -0.06    -0.10   0.19   0.10
  27   7    -0.02   0.09   0.19     0.17  -0.01   0.18    -0.03  -0.17   0.06
  28   1    -0.03   0.04   0.07     0.02  -0.03   0.05    -0.04  -0.02   0.04
  29   1     0.02  -0.01   0.06     0.07   0.03   0.09     0.03  -0.13  -0.00
  30   6    -0.13   0.02   0.03    -0.02  -0.01  -0.13    -0.01  -0.02  -0.09
  31   8    -0.35   0.13   0.06    -0.02  -0.08  -0.17    -0.02  -0.09  -0.12
  32   7    -0.00  -0.03  -0.12    -0.02   0.05  -0.16    -0.01   0.05  -0.12
  33   1    -0.03   0.02  -0.05    -0.00  -0.00  -0.06     0.00  -0.00  -0.05
  34   1     0.04  -0.02  -0.03     0.00   0.02  -0.04     0.00   0.02  -0.03
  35   7    -0.01  -0.08   0.16    -0.02   0.04  -0.11    -0.02   0.03  -0.07
  36   1     0.04  -0.04   0.04    -0.01   0.03  -0.02    -0.00   0.02  -0.01
  37   1    -0.03  -0.01   0.07    -0.00   0.00  -0.03    -0.00  -0.00  -0.01
  38   6    -0.07   0.09   0.08    -0.04  -0.12   0.04     0.08  -0.04  -0.02
  39   8    -0.19   0.12   0.27    -0.12  -0.13   0.16     0.25  -0.06  -0.06
  40   7    -0.03  -0.01  -0.15     0.00  -0.22  -0.06     0.00   0.12   0.02
  41   1    -0.02  -0.03  -0.02    -0.01  -0.08  -0.00     0.02   0.06  -0.02
  42   1     0.01  -0.01  -0.06     0.02  -0.06  -0.02    -0.04   0.04  -0.01
  43   7    -0.02   0.18   0.12     0.01  -0.07   0.03    -0.02  -0.17   0.01
  44   1     0.01   0.05  -0.02     0.02  -0.02  -0.02    -0.03  -0.04   0.01
  45   1    -0.01   0.06   0.03    -0.00  -0.00   0.01     0.00  -0.07  -0.00
  46   6     0.00  -0.03  -0.09    -0.02   0.02   0.01    -0.02  -0.05  -0.08
  47   8    -0.00  -0.01  -0.11    -0.04   0.06   0.01    -0.12  -0.11  -0.12
  48   7    -0.11  -0.11  -0.16    -0.06  -0.05  -0.05    -0.03  -0.07  -0.09
  49   1    -0.01  -0.02  -0.04     0.00   0.00  -0.02    -0.01  -0.02  -0.02
  50   1    -0.01  -0.02  -0.03    -0.00  -0.02  -0.01     0.02  -0.00  -0.01
  51   7     0.12   0.03  -0.04     0.02   0.02   0.08     0.11   0.02  -0.03
  52   1     0.01  -0.01  -0.02     0.00  -0.01   0.02     0.02   0.00  -0.01
  53   1     0.04   0.01  -0.01     0.01   0.01   0.03     0.01  -0.01  -0.02
                     19                     20                     21
                        a                      a                      a 
 Frequencies --   105.3608               114.7205               132.7489
 Red. masses --    12.3359                10.9778                12.4950
 Frc consts  --     0.0000                 0.0000                 0.0000
 IR Inten    --    12.1384                 3.9113                 2.7390
 Raman Activ --     0.0000                 0.0000                 0.0000
 Depolar     --     0.0000                 0.0000                 0.0000
 Atom AN      X      Y      Z        X      Y      Z        X      Y      Z
   1   8    -0.05  -0.02  -0.03    -0.09  -0.01  -0.07     0.12  -0.02  -0.00
   2   6    -0.05  -0.05   0.06     0.16  -0.19   0.19     0.05  -0.01   0.01
   3   1    -0.01  -0.01   0.01     0.06  -0.01   0.15    -0.00  -0.02   0.02
   4   1    -0.04  -0.03   0.02     0.10  -0.14   0.04     0.04  -0.01   0.00
   5   6    -0.00  -0.06   0.18     0.13  -0.23   0.08    -0.03   0.10  -0.06
   6   1    -0.01  -0.03   0.06     0.03  -0.10  -0.04     0.01   0.04  -0.03
   7   1    -0.00  -0.03   0.07     0.08  -0.09   0.06    -0.02   0.03  -0.02
   8   7     0.12  -0.00   0.20    -0.08  -0.00   0.09    -0.14   0.10  -0.07
   9   6     0.17   0.02   0.15    -0.09   0.10  -0.13    -0.05   0.10  -0.07
  10   1     0.04   0.00   0.06    -0.01   0.03  -0.09    -0.01   0.04  -0.02
  11   1     0.07   0.01   0.05    -0.06   0.08  -0.03    -0.02   0.03  -0.02
  12   1     0.04   0.00   0.01    -0.01   0.01  -0.03    -0.00   0.01  -0.02
  13   6     0.12   0.02   0.28    -0.15   0.10   0.05    -0.18   0.17  -0.11
  14   1     0.05   0.02   0.08    -0.06   0.05   0.01    -0.06   0.05  -0.03
  15   1     0.03  -0.00   0.08    -0.02   0.04  -0.01    -0.04   0.06  -0.04
  16   1     0.03  -0.00   0.09    -0.05   0.02   0.03    -0.06   0.05  -0.03
  17   6     0.15   0.00   0.11    -0.17   0.02   0.32    -0.21   0.00  -0.02
  18   1     0.04   0.01   0.02    -0.04  -0.01   0.11    -0.04  -0.02   0.01
  19   1     0.06  -0.01   0.03    -0.09   0.04   0.09    -0.08   0.00  -0.01
  20   1     0.04   0.00   0.03    -0.04  -0.01   0.13    -0.08  -0.00  -0.01
  21   1    -0.01  -0.00  -0.02    -0.05  -0.04  -0.04     0.04   0.00  -0.01
  22   6    -0.09  -0.09  -0.01     0.03   0.05   0.00     0.06  -0.16   0.13
  23   8    -0.30  -0.19   0.03     0.11   0.10  -0.01     0.09  -0.31   0.11
  24   7     0.10  -0.25   0.05    -0.04   0.11  -0.03     0.09  -0.21   0.14
  25   1     0.02  -0.07   0.03    -0.01   0.04  -0.01     0.03  -0.06   0.03
  26   1     0.06  -0.07  -0.01    -0.03   0.03   0.00     0.02  -0.04   0.05
  27   7    -0.12   0.21  -0.14     0.04  -0.06   0.05    -0.01   0.09   0.27
  28   1     0.02   0.07  -0.05    -0.01  -0.02   0.02    -0.01   0.03   0.08
  29   1    -0.07   0.07  -0.06     0.03  -0.02   0.03     0.01   0.01   0.07
  30   6    -0.03  -0.02  -0.17     0.09  -0.04  -0.15     0.02  -0.01   0.01
  31   8    -0.06  -0.15  -0.23     0.25  -0.24  -0.21     0.06  -0.04   0.01
  32   7    -0.02   0.08  -0.25     0.00   0.07  -0.07     0.00   0.00   0.04
  33   1    -0.00  -0.00  -0.09     0.03  -0.03  -0.02     0.01  -0.01   0.01
  34   1     0.02   0.03  -0.07    -0.02   0.03  -0.02    -0.01   0.00   0.01
  35   7    -0.02   0.03  -0.12     0.00   0.08  -0.22     0.00   0.01  -0.00
  36   1    -0.01   0.05  -0.02    -0.04   0.06  -0.04    -0.00   0.00  -0.00
  37   1    -0.01   0.00  -0.02     0.02   0.00  -0.07     0.01  -0.01  -0.01
  38   6     0.02   0.05  -0.04    -0.06   0.06   0.03     0.06   0.05   0.00
  39   8     0.05   0.05  -0.16    -0.14   0.08   0.12     0.10   0.05   0.02
  40   7     0.01   0.08   0.06    -0.03  -0.00  -0.04     0.05   0.08   0.00
  41   1     0.00   0.03  -0.01    -0.02  -0.02   0.01     0.02   0.03   0.01
  42   1    -0.00   0.02   0.02     0.01  -0.00  -0.02     0.00   0.02   0.00
  43   7     0.01   0.04   0.02    -0.02   0.13  -0.01     0.05   0.03   0.00
  44   1     0.00   0.01   0.03     0.01   0.03  -0.02     0.01   0.01  -0.01
  45   1     0.00   0.01  -0.01    -0.01   0.04   0.00     0.01   0.01  -0.01
  46   6    -0.01   0.06  -0.01     0.03  -0.04   0.00    -0.03  -0.01  -0.11
  47   8    -0.03   0.17  -0.01     0.06  -0.09   0.01    -0.14   0.25  -0.16
  48   7     0.05   0.03  -0.06    -0.01  -0.02   0.04     0.00  -0.18  -0.34
  49   1    -0.00   0.01  -0.03     0.01  -0.00   0.02     0.01  -0.04  -0.11
  50   1     0.01  -0.01  -0.02    -0.01   0.00   0.01     0.04  -0.07  -0.07
  51   7    -0.06  -0.01   0.07     0.02  -0.01  -0.06     0.05  -0.10   0.19
  52   1    -0.00  -0.02   0.02     0.00   0.01  -0.02     0.03  -0.09   0.06
  53   1    -0.02   0.01   0.04     0.02  -0.01  -0.02    -0.01   0.01   0.10
                     22                     23                     24
                        a                      a                      a 
 Frequencies --   169.2669               178.6116               186.8801
 Red. masses --    12.7661                13.0594                11.7458
 Frc consts  --     0.0000                 0.0000                 0.0000
 IR Inten    --    20.6102                52.9920                22.0087
 Raman Activ --     0.0000                 0.0000                 0.0000
 Depolar     --     0.0000                 0.0000                 0.0000
 Atom AN      X      Y      Z        X      Y      Z        X      Y      Z
   1   8     0.21  -0.23   0.12     0.00  -0.01   0.00     0.18   0.11  -0.45
   2   6     0.04  -0.11   0.00     0.00  -0.01  -0.01     0.07  -0.07   0.06
   3   1    -0.01  -0.06  -0.02     0.00  -0.00  -0.01    -0.00  -0.02   0.10
   4   1     0.01  -0.00   0.00    -0.00   0.00  -0.00     0.04  -0.13   0.01
   5   6    -0.01   0.02  -0.01     0.01  -0.02   0.00    -0.03   0.25   0.10
   6   1     0.02   0.03   0.01    -0.00  -0.01   0.00     0.04   0.15   0.06
   7   1    -0.03   0.01  -0.01     0.01  -0.01   0.00    -0.09   0.11  -0.01
   8   7     0.00   0.01  -0.01     0.02  -0.02   0.01    -0.08   0.02   0.09
   9   6    -0.00  -0.00   0.00     0.01  -0.02   0.00    -0.14  -0.07   0.24
  10   1     0.01   0.01  -0.01     0.00  -0.01  -0.00    -0.09  -0.06   0.14
  11   1    -0.01  -0.00  -0.00    -0.00  -0.00   0.00     0.05  -0.05   0.07
  12   1     0.00  -0.00   0.01     0.00  -0.00   0.00    -0.08   0.03   0.01
  13   6     0.01  -0.01  -0.01     0.03  -0.02   0.01    -0.04  -0.11  -0.10
  14   1     0.00   0.00  -0.00     0.01  -0.01   0.00    -0.05  -0.04  -0.03
  15   1     0.00  -0.01  -0.01     0.01  -0.01   0.01    -0.01  -0.06  -0.06
  16   1     0.01  -0.00   0.00     0.01  -0.01   0.00     0.04  -0.03  -0.03
  17   6     0.02   0.02  -0.02     0.03   0.00   0.01    -0.08  -0.02   0.06
  18   1     0.00   0.01  -0.01     0.01   0.00  -0.00    -0.03   0.02   0.08
  19   1     0.01   0.00  -0.00     0.01   0.00   0.00    -0.05  -0.07   0.00
  20   1     0.01   0.00  -0.01     0.01  -0.00   0.01     0.01   0.03  -0.04
  21   1     0.08  -0.03   0.05    -0.00  -0.00   0.01     0.02   0.00  -0.11
  22   6    -0.12  -0.13  -0.14    -0.08   0.03  -0.02     0.08  -0.11  -0.04
  23   8     0.06  -0.04  -0.22    -0.06   0.17   0.01     0.13  -0.36  -0.15
  24   7    -0.24  -0.28  -0.36    -0.08  -0.09  -0.10     0.05   0.01  -0.01
  25   1    -0.07  -0.06  -0.12    -0.03  -0.01  -0.04     0.02  -0.01  -0.00
  26   1    -0.09  -0.07  -0.08    -0.02  -0.05  -0.04    -0.00   0.05   0.03
  27   7    -0.23  -0.07   0.17    -0.06  -0.11  -0.02     0.04   0.07  -0.02
  28   1    -0.10  -0.09   0.03    -0.04   0.02   0.03     0.01   0.07   0.02
  29   1    -0.02  -0.03   0.08    -0.02   0.06   0.04     0.02  -0.02  -0.03
  30   6     0.00   0.00   0.00    -0.00   0.00   0.00     0.01   0.01  -0.01
  31   8     0.01   0.00   0.00    -0.01   0.00   0.00     0.01   0.02  -0.01
  32   7     0.00  -0.01   0.01    -0.00   0.00  -0.00    -0.00   0.01  -0.00
  33   1    -0.00   0.00   0.00     0.00  -0.00  -0.00     0.01  -0.01  -0.00
  34   1    -0.00   0.00   0.00     0.00  -0.01  -0.00     0.01  -0.02  -0.00
  35   7    -0.00   0.00  -0.00     0.00  -0.01   0.00     0.01  -0.00  -0.02
  36   1     0.00  -0.01  -0.00    -0.00   0.01   0.00    -0.01   0.01  -0.00
  37   1     0.00  -0.00  -0.00    -0.00   0.01   0.00    -0.00   0.01  -0.01
  38   6     0.04   0.10   0.08     0.22   0.10  -0.02    -0.00   0.01  -0.01
  39   8     0.15   0.12   0.24     0.08   0.14   0.09    -0.05   0.01  -0.02
  40   7    -0.04   0.29  -0.03     0.31  -0.04  -0.00     0.03  -0.06   0.01
  41   1     0.01   0.11  -0.04     0.06  -0.04   0.04    -0.00  -0.03   0.01
  42   1    -0.06   0.07  -0.09     0.12  -0.02  -0.01     0.02  -0.02   0.01
  43   7    -0.02   0.03   0.05     0.28   0.20  -0.15     0.02   0.05  -0.03
  44   1    -0.02   0.01  -0.00     0.08   0.05  -0.07     0.01   0.01   0.00
  45   1     0.00  -0.00   0.04     0.07   0.06  -0.07     0.01   0.02  -0.01
  46   6     0.05   0.08   0.04    -0.19  -0.08   0.01    -0.06   0.05   0.07
  47   8     0.18   0.06   0.10    -0.55  -0.27  -0.11    -0.08  -0.11   0.08
  48   7    -0.01   0.09   0.08    -0.03   0.00   0.06     0.01   0.17   0.20
  49   1     0.01   0.03   0.02    -0.04  -0.01   0.01    -0.01   0.04   0.06
  50   1    -0.03   0.01   0.00     0.05   0.03   0.05    -0.00   0.05   0.05
  51   7    -0.08   0.04  -0.08    -0.04  -0.01   0.17    -0.06   0.12  -0.04
  52   1     0.02   0.06  -0.01     0.17   0.08   0.10    -0.02   0.07  -0.01
  53   1     0.04   0.03  -0.02     0.00   0.01   0.06    -0.03   0.00  -0.05
                     25                     26                     27
                        a                      a                      a 
 Frequencies --   187.5568               208.0898               209.5309
 Red. masses --    12.0945                 3.5302                 3.3221
 Frc consts  --     0.0000                 0.0000                 0.0000
 IR Inten    --    34.0352               107.2375               124.9039
 Raman Activ --     0.0000                 0.0000                 0.0000
 Depolar     --     0.0000                 0.0000                 0.0000
 Atom AN      X      Y      Z        X      Y      Z        X      Y      Z
   1   8     0.19  -0.03  -0.28     0.03  -0.02  -0.03    -0.01   0.02  -0.01
   2   6     0.08  -0.12   0.04     0.01  -0.03   0.02    -0.00   0.00   0.01
   3   1     0.00  -0.04   0.07     0.00  -0.01   0.02     0.00   0.00   0.01
   4   1     0.04  -0.11   0.00     0.01  -0.02   0.00     0.00  -0.01   0.00
   5   6     0.00   0.14   0.08    -0.00   0.02   0.02    -0.00   0.00   0.01
   6   1     0.05   0.11   0.05     0.01   0.02   0.01    -0.00   0.00   0.00
   7   1    -0.07   0.07  -0.01    -0.01   0.01   0.00    -0.00   0.00   0.00
   8   7    -0.01  -0.03   0.07    -0.00  -0.01   0.02    -0.00   0.00   0.01
   9   6    -0.12  -0.11   0.20    -0.02  -0.01   0.03     0.00   0.01   0.01
  10   1    -0.08  -0.07   0.12    -0.01  -0.01   0.02    -0.00  -0.00   0.01
  11   1     0.03  -0.06   0.06     0.00  -0.01   0.01     0.00   0.00   0.00
  12   1    -0.08   0.02   0.02    -0.01   0.00   0.00    -0.00   0.00  -0.00
  13   6     0.05  -0.17  -0.07     0.00  -0.02  -0.00    -0.01   0.01   0.01
  14   1    -0.01  -0.07  -0.02    -0.01  -0.00  -0.00    -0.01   0.01   0.00
  15   1     0.01  -0.06  -0.02     0.00  -0.01  -0.01    -0.00   0.00  -0.00
  16   1     0.05  -0.04  -0.04     0.01  -0.01   0.00     0.00   0.00   0.01
  17   6     0.04   0.01   0.04     0.01   0.00   0.01    -0.00  -0.00  -0.00
  18   1    -0.01   0.04   0.06    -0.00   0.01   0.01    -0.00   0.00   0.00
  19   1    -0.01  -0.05   0.00     0.01  -0.01   0.00     0.00  -0.01  -0.00
  20   1     0.06   0.03  -0.03     0.01   0.01  -0.01     0.00   0.00  -0.01
  21   1     0.04  -0.02  -0.06     0.01  -0.00  -0.01    -0.00   0.00  -0.01
  22   6    -0.09   0.15   0.05    -0.03   0.02  -0.01     0.02  -0.00   0.01
  23   8    -0.17   0.49   0.19    -0.03   0.07   0.01     0.02  -0.04   0.01
  24   7    -0.04  -0.03  -0.01    -0.02  -0.04  -0.04     0.02   0.04   0.05
  25   1    -0.02   0.02  -0.00    -0.01   0.00  -0.01     0.01   0.00   0.01
  26   1     0.01  -0.08  -0.05    -0.01  -0.01  -0.01     0.01   0.01   0.01
  27   7    -0.04  -0.07   0.00    -0.03   0.01   0.01     0.03  -0.01  -0.02
  28   1    -0.00  -0.08  -0.04    -0.00  -0.04  -0.02     0.00   0.05   0.02
  29   1    -0.02   0.04   0.03    -0.00  -0.01  -0.00     0.00   0.02   0.00
  30   6     0.00   0.01   0.01     0.00   0.01  -0.02     0.00   0.00  -0.02
  31   8    -0.00   0.04   0.01     0.01   0.00  -0.02     0.01  -0.01  -0.02
  32   7    -0.00   0.01   0.01     0.10  -0.21  -0.03     0.09  -0.18  -0.03
  33   1     0.01  -0.02   0.00    -0.13   0.25   0.05    -0.12   0.22   0.04
  34   1     0.01  -0.03  -0.00    -0.16   0.34   0.04    -0.15   0.31   0.03
  35   7     0.02  -0.03  -0.01    -0.10   0.19   0.05    -0.09   0.18   0.05
  36   1    -0.02   0.03   0.01     0.15  -0.31  -0.11     0.14  -0.29  -0.10
  37   1    -0.02   0.03   0.00     0.13  -0.23  -0.06     0.12  -0.22  -0.06
  38   6    -0.05   0.02   0.02     0.02   0.02   0.00    -0.03  -0.02  -0.01
  39   8    -0.03   0.02   0.04     0.01   0.03   0.02    -0.02  -0.02  -0.03
  40   7    -0.06   0.05  -0.01     0.04   0.01  -0.00    -0.04  -0.01   0.01
  41   1    -0.01   0.02  -0.01     0.01  -0.00  -0.00    -0.01  -0.00  -0.00
  42   1    -0.02   0.01  -0.01     0.01  -0.00  -0.01    -0.01  -0.00   0.00
  43   7    -0.04   0.03   0.03     0.03   0.04  -0.05    -0.03  -0.03   0.05
  44   1    -0.01   0.01   0.00     0.01   0.01   0.01    -0.01  -0.01  -0.02
  45   1    -0.01   0.01   0.01     0.01   0.02   0.01    -0.01  -0.01  -0.01
  46   6     0.08  -0.07  -0.09    -0.06  -0.04  -0.00     0.06   0.04  -0.00
  47   8     0.12   0.12  -0.09    -0.04  -0.01   0.00     0.03   0.01  -0.01
  48   7     0.01  -0.20  -0.23     0.01  -0.02  -0.01    -0.00   0.01  -0.00
  49   1     0.00  -0.05  -0.08     0.03   0.01   0.01    -0.04  -0.01  -0.02
  50   1    -0.01  -0.07  -0.07     0.07   0.02   0.04    -0.08  -0.03  -0.05
  51   7     0.05  -0.16   0.04     0.21   0.09   0.08    -0.22  -0.10  -0.08
  52   1     0.08  -0.05   0.03    -0.43  -0.24  -0.12     0.48   0.26   0.13
  53   1     0.07   0.01   0.06    -0.27  -0.13  -0.08     0.30   0.15   0.10
                     28                     29                     30
                        a                      a                      a 
 Frequencies --   242.9290               273.8760               282.6266
 Red. masses --    12.3795                 3.9626                 4.3794
 Frc consts  --     0.0000                 0.0000                 0.0000
 IR Inten    --    17.7080                65.8985                95.2089
 Raman Activ --     0.0000                 0.0000                 0.0000
 Depolar     --     0.0000                 0.0000                 0.0000
 Atom AN      X      Y      Z        X      Y      Z        X      Y      Z
   1   8     0.16  -0.40   0.32     0.17  -0.01  -0.07     0.21  -0.13  -0.02
   2   6     0.12  -0.27   0.07    -0.07   0.11  -0.15    -0.07   0.04  -0.19
   3   1    -0.00  -0.11   0.05    -0.01   0.01  -0.14    -0.02  -0.02  -0.16
   4   1     0.09  -0.05   0.02    -0.11   0.09  -0.03    -0.11   0.09  -0.04
   5   6    -0.03   0.06  -0.07     0.04  -0.01   0.05     0.03   0.03   0.05
   6   1     0.05   0.09  -0.01    -0.02  -0.03   0.02    -0.01  -0.00   0.03
   7   1    -0.10   0.04  -0.03     0.04  -0.01   0.02     0.01   0.01   0.02
   8   7     0.03   0.08  -0.07     0.02  -0.02   0.06     0.04   0.01   0.06
   9   6     0.06   0.03   0.04    -0.03  -0.03   0.07    -0.02  -0.03   0.13
  10   1     0.03   0.03   0.01     0.06   0.04  -0.07     0.10   0.07  -0.09
  11   1     0.00  -0.02   0.00    -0.14  -0.02   0.01    -0.20  -0.04   0.01
  12   1     0.03   0.00   0.05     0.04  -0.05   0.13     0.07  -0.07   0.21
  13   6     0.05   0.07  -0.03    -0.01  -0.04  -0.09     0.01  -0.03  -0.14
  14   1     0.02   0.02  -0.01     0.01  -0.09  -0.03     0.02  -0.13  -0.05
  15   1     0.01   0.02  -0.01     0.00   0.03   0.02     0.01   0.05   0.04
  16   1     0.01   0.02  -0.01    -0.02   0.02  -0.10    -0.03   0.04  -0.16
  17   6     0.08   0.08  -0.17    -0.04  -0.01   0.19    -0.02   0.03   0.21
  18   1     0.01   0.06   0.00     0.02  -0.08  -0.08     0.04  -0.10  -0.13
  19   1     0.02  -0.04  -0.06     0.03   0.16   0.09     0.06   0.23   0.11
  20   1     0.06   0.06  -0.10    -0.11  -0.09   0.19    -0.13  -0.10   0.24
  21   1     0.06  -0.09   0.07     0.04   0.02   0.06     0.06  -0.01   0.04
  22   6     0.04   0.01   0.02     0.01   0.00   0.01    -0.00  -0.00   0.00
  23   8     0.01  -0.05   0.02     0.00  -0.00   0.01    -0.00  -0.02  -0.00
  24   7     0.06   0.03   0.05     0.02   0.01   0.02    -0.01   0.01   0.02
  25   1     0.00   0.03   0.02     0.00   0.00   0.01     0.00   0.00  -0.01
  26   1     0.01  -0.00   0.01     0.00   0.01   0.01     0.01  -0.03  -0.01
  27   7     0.06   0.03  -0.05     0.02  -0.00  -0.02    -0.00  -0.04  -0.03
  28   1     0.02   0.06   0.01     0.01   0.02   0.01    -0.02   0.08   0.05
  29   1     0.00   0.02  -0.02    -0.00   0.01  -0.00    -0.01   0.05   0.02
  30   6    -0.01   0.00   0.01     0.01  -0.00  -0.00     0.01  -0.01  -0.00
  31   8    -0.01   0.01   0.01     0.01  -0.01  -0.01     0.01  -0.01  -0.01
  32   7    -0.00  -0.00   0.01     0.01  -0.00  -0.00     0.00   0.01  -0.00
  33   1     0.00  -0.00   0.00    -0.00   0.00   0.00     0.00   0.00  -0.00
  34   1     0.00  -0.01   0.00    -0.00   0.01   0.00     0.00   0.00  -0.00
  35   7     0.00  -0.01   0.02     0.00   0.00  -0.01    -0.00   0.02  -0.01
  36   1    -0.00   0.01   0.01    -0.00   0.00  -0.00     0.01  -0.02  -0.01
  37   1    -0.01   0.01   0.01     0.00   0.00  -0.01     0.01  -0.01  -0.01
  38   6    -0.19   0.07  -0.07    -0.03  -0.01  -0.06    -0.05   0.03   0.01
  39   8    -0.35   0.09  -0.17    -0.06  -0.00  -0.04    -0.06   0.03  -0.07
  40   7    -0.08  -0.16   0.05     0.02  -0.01   0.29    -0.06  -0.05  -0.20
  41   1    -0.06  -0.10  -0.07    -0.05  -0.04  -0.39     0.01   0.00   0.27
  42   1     0.04  -0.06  -0.05    -0.03  -0.08  -0.59     0.03   0.05   0.47
  43   7    -0.04   0.34  -0.02     0.00   0.05  -0.01    -0.02   0.09   0.02
  44   1     0.06   0.08   0.06     0.03   0.01   0.16     0.00   0.03  -0.10
  45   1    -0.03   0.13  -0.01     0.00   0.02   0.06    -0.02   0.04  -0.05
  46   6    -0.01  -0.01   0.00    -0.01  -0.00  -0.00     0.01   0.00   0.00
  47   8    -0.03  -0.04  -0.00    -0.02  -0.01  -0.01     0.02   0.01   0.01
  48   7     0.00   0.01   0.03    -0.00  -0.00  -0.01    -0.00   0.00   0.01
  49   1    -0.00  -0.00   0.01     0.00  -0.00   0.00     0.00   0.00   0.00
  50   1    -0.00   0.01   0.01     0.02   0.01   0.01    -0.01  -0.00  -0.00
  51   7    -0.00   0.01  -0.01    -0.00  -0.00   0.00     0.00   0.00  -0.01
  52   1     0.00   0.01  -0.00     0.01   0.00   0.00    -0.01  -0.01  -0.01
  53   1    -0.00  -0.00  -0.01     0.00   0.00   0.00    -0.00  -0.00  -0.00
                     31                     32                     33
                        a                      a                      a 
 Frequencies --   288.0223               314.4368               329.4831
 Red. masses --     3.5449                 9.6583                 4.1368
 Frc consts  --     0.0000                 0.0000                 0.0000
 IR Inten    --   165.5849                 1.6455                15.8763
 Raman Activ --     0.0000                 0.0000                 0.0000
 Depolar     --     0.0000                 0.0000                 0.0000
 Atom AN      X      Y      Z        X      Y      Z        X      Y      Z
   1   8     0.01  -0.03   0.00     0.47   0.11   0.01    -0.11   0.11  -0.10
   2   6     0.00  -0.01  -0.02     0.05   0.16   0.06     0.13  -0.11   0.22
   3   1     0.00  -0.01  -0.01    -0.00   0.01  -0.04     0.03  -0.00   0.20
   4   1    -0.01   0.00  -0.00    -0.03   0.08   0.02     0.14  -0.15   0.04
   5   6     0.01  -0.00   0.00    -0.01   0.06   0.03    -0.03   0.05  -0.02
   6   1     0.01   0.00   0.00    -0.01   0.01   0.01     0.02   0.04  -0.03
   7   1    -0.00   0.00   0.00     0.03   0.03  -0.03    -0.03   0.02  -0.02
   8   7     0.01  -0.00   0.00    -0.11  -0.12   0.00    -0.08   0.02  -0.04
   9   6    -0.01  -0.01   0.02    -0.13   0.03  -0.31    -0.09   0.00  -0.00
  10   1     0.01   0.01  -0.01    -0.10  -0.07  -0.06     0.10   0.10  -0.16
  11   1    -0.03  -0.01   0.00     0.06   0.11  -0.07    -0.25  -0.02  -0.03
  12   1     0.01  -0.01   0.04    -0.08   0.04  -0.22     0.07  -0.08   0.19
  13   6     0.01  -0.00  -0.02     0.01  -0.15   0.40     0.02  -0.06   0.19
  14   1     0.02  -0.04  -0.01     0.08   0.04   0.13     0.24  -0.29   0.05
  15   1     0.00   0.03   0.03    -0.04  -0.10   0.13    -0.05   0.13   0.37
  16   1    -0.02   0.02  -0.04     0.01  -0.08   0.19    -0.15   0.10  -0.23
  17   6     0.01   0.00   0.02    -0.11  -0.19  -0.10     0.04   0.04  -0.27
  18   1     0.01  -0.01  -0.02     0.00  -0.13  -0.14     0.02  -0.02  -0.19
  19   1     0.01   0.03   0.01     0.04   0.03  -0.00     0.11   0.07  -0.05
  20   1    -0.02  -0.02   0.03    -0.14  -0.11   0.03    -0.07  -0.02  -0.04
  21   1     0.00  -0.01   0.00     0.14   0.06   0.01    -0.06  -0.02  -0.05
  22   6     0.02  -0.03  -0.01     0.00   0.01  -0.00     0.00  -0.01  -0.00
  23   8    -0.03   0.02   0.03    -0.00   0.02   0.01     0.01  -0.02  -0.01
  24   7     0.04  -0.02  -0.06    -0.00   0.00  -0.01    -0.01   0.00  -0.00
  25   1    -0.02   0.03   0.03    -0.00   0.01  -0.00    -0.00  -0.00  -0.01
  26   1    -0.04   0.13   0.09    -0.00  -0.00  -0.00    -0.00  -0.01  -0.01
  27   7    -0.01   0.36   0.18     0.01   0.01  -0.01    -0.00  -0.01  -0.02
  28   1     0.15  -0.62  -0.37     0.01  -0.01  -0.01    -0.01   0.05   0.02
  29   1     0.05  -0.39  -0.20    -0.00  -0.00  -0.01    -0.00   0.02   0.00
  30   6    -0.00   0.01   0.00    -0.01  -0.00  -0.00    -0.01   0.02   0.01
  31   8    -0.00   0.00   0.00    -0.01  -0.01  -0.00    -0.01   0.02   0.01
  32   7     0.01  -0.02  -0.00     0.00  -0.01  -0.02     0.02  -0.05  -0.00
  33   1    -0.01   0.02   0.00    -0.01   0.01  -0.01    -0.02   0.04   0.01
  34   1    -0.01   0.03   0.00    -0.00   0.02  -0.00    -0.03   0.08   0.01
  35   7     0.01  -0.01  -0.01    -0.00  -0.01   0.00     0.02  -0.04  -0.01
  36   1    -0.01   0.02   0.01    -0.00   0.01   0.01    -0.03   0.07   0.03
  37   1    -0.01   0.01   0.00    -0.01   0.00   0.00    -0.03   0.04   0.02
  38   6    -0.01   0.01  -0.01    -0.07   0.01  -0.01     0.04  -0.01   0.01
  39   8    -0.02   0.01  -0.03    -0.08   0.01  -0.04     0.04  -0.01   0.02
  40   7     0.01  -0.03  -0.01    -0.04  -0.07  -0.01     0.02   0.04   0.01
  41   1    -0.00  -0.01   0.02    -0.02  -0.03   0.02     0.01   0.02  -0.01
  42   1     0.02  -0.00   0.04     0.01  -0.01   0.06    -0.01   0.01  -0.05
  43   7     0.01   0.03  -0.01    -0.01   0.11  -0.01     0.01  -0.06   0.00
  44   1     0.01   0.01  -0.00     0.03   0.03   0.00    -0.02  -0.02   0.00
  45   1    -0.00   0.01  -0.01    -0.01   0.05  -0.01     0.01  -0.03   0.00
  46   6    -0.04  -0.03  -0.01    -0.00  -0.00  -0.00     0.00   0.00   0.00
  47   8    -0.08  -0.05  -0.02    -0.00  -0.01  -0.00     0.00   0.00   0.00
  48   7     0.03   0.02   0.04     0.00   0.00   0.01    -0.00  -0.00  -0.00
  49   1    -0.04  -0.01  -0.01    -0.00  -0.00  -0.00     0.00   0.00   0.00
  50   1    -0.06  -0.03  -0.03    -0.00  -0.00  -0.00     0.00   0.00   0.00
  51   7     0.00  -0.00   0.02     0.00  -0.00  -0.00    -0.00   0.00  -0.00
  52   1     0.07   0.04   0.02     0.00  -0.00  -0.00    -0.00  -0.00  -0.00
  53   1     0.02   0.01   0.01    -0.00  -0.00  -0.00     0.00   0.00   0.00
                     34                     35                     36
                        a                      a                      a 
 Frequencies --   338.5196               358.1054               369.6308
 Red. masses --     3.6240                 5.8575                 3.2449
 Frc consts  --     0.0000                 0.0000                 0.0000
 IR Inten    --   538.8876                 2.2821                 2.8848
 Raman Activ --     0.0000                 0.0000                 0.0000
 Depolar     --     0.0000                 0.0000                 0.0000
 Atom AN      X      Y      Z        X      Y      Z        X      Y      Z
   1   8     0.02  -0.02   0.02    -0.24  -0.01   0.09    -0.09  -0.03   0.05
   2   6    -0.04   0.02  -0.04    -0.02  -0.11   0.15     0.12  -0.05  -0.05
   3   1    -0.01  -0.00  -0.04    -0.04  -0.04   0.17     0.06   0.01  -0.03
   4   1    -0.03   0.03  -0.01     0.11  -0.10   0.03     0.03  -0.00  -0.01
   5   6    -0.01  -0.00   0.01    -0.18   0.25  -0.06     0.14  -0.12  -0.04
   6   1    -0.01  -0.01   0.01     0.03   0.20   0.06     0.03  -0.06  -0.05
   7   1     0.00  -0.00   0.00    -0.19   0.13  -0.09     0.07  -0.06   0.03
   8   7     0.01   0.00   0.01     0.03   0.02  -0.08     0.02   0.03  -0.02
   9   6     0.03   0.01  -0.01     0.23   0.08  -0.16    -0.12  -0.08   0.19
  10   1    -0.01  -0.01   0.02     0.04   0.02   0.02    -0.26  -0.20   0.34
  11   1     0.04   0.01  -0.00     0.16   0.06  -0.03     0.33  -0.08   0.09
  12   1    -0.00   0.01  -0.03     0.06  -0.00  -0.15    -0.22   0.16  -0.21
  13   6    -0.00   0.01  -0.04     0.18  -0.20  -0.13    -0.09   0.20  -0.02
  14   1    -0.03   0.02  -0.01    -0.00   0.00  -0.04     0.04  -0.03  -0.01
  15   1     0.01  -0.01  -0.04     0.03  -0.15  -0.12    -0.01   0.16   0.09
  16   1     0.02  -0.01   0.01     0.17  -0.08   0.03    -0.14   0.10  -0.11
  17   6    -0.01   0.00   0.07    -0.07   0.01   0.14     0.07   0.07  -0.11
  18   1    -0.01   0.02   0.06     0.05  -0.15  -0.17     0.05  -0.08  -0.29
  19   1    -0.03  -0.04   0.01     0.03   0.29   0.10     0.16   0.24   0.03
  20   1     0.03   0.02  -0.00    -0.19  -0.15   0.28    -0.15  -0.10   0.15
  21   1     0.01   0.00   0.01    -0.05  -0.02  -0.04    -0.03  -0.02  -0.02
  22   6     0.00  -0.00  -0.00     0.00  -0.00   0.01     0.01  -0.00  -0.02
  23   8     0.01  -0.01  -0.00    -0.01   0.01   0.01     0.01  -0.01  -0.02
  24   7    -0.00   0.01   0.01    -0.00  -0.01  -0.00     0.00   0.01  -0.01
  25   1     0.00  -0.00  -0.00    -0.01   0.01  -0.00     0.00  -0.01   0.00
  26   1     0.00  -0.01  -0.01    -0.00  -0.01  -0.00     0.00   0.01   0.00
  27   7     0.00  -0.01  -0.00     0.01   0.01  -0.01    -0.00  -0.01   0.01
  28   1    -0.01   0.03   0.02     0.01   0.00  -0.01    -0.01   0.02   0.02
  29   1     0.00   0.01   0.01    -0.00   0.00  -0.01     0.01   0.00   0.01
  30   6    -0.04   0.10   0.02    -0.00  -0.01  -0.00    -0.02  -0.00  -0.00
  31   8    -0.03   0.00   0.00    -0.00  -0.02  -0.00    -0.01  -0.00  -0.00
  32   7     0.13  -0.26  -0.01     0.00  -0.00  -0.01    -0.00  -0.01  -0.01
  33   1    -0.13   0.23   0.04    -0.00   0.00  -0.00    -0.01   0.01  -0.00
  34   1    -0.21   0.50   0.06    -0.00   0.01  -0.00    -0.01   0.02  -0.00
  35   7     0.13  -0.25  -0.11     0.00  -0.00   0.00     0.00  -0.01   0.01
  36   1    -0.22   0.50   0.17    -0.00   0.01   0.00    -0.00   0.02   0.01
  37   1    -0.13   0.23   0.07    -0.00  -0.00   0.00    -0.01   0.00   0.01
  38   6    -0.01  -0.00  -0.00     0.02  -0.00   0.01    -0.00  -0.00   0.01
  39   8    -0.01  -0.00  -0.00     0.02  -0.00   0.02    -0.00   0.00   0.02
  40   7    -0.01  -0.00  -0.01     0.02   0.01   0.01    -0.00  -0.00  -0.00
  41   1    -0.00  -0.00   0.01     0.01   0.00  -0.00    -0.00  -0.00   0.00
  42   1     0.00   0.00   0.02    -0.00  -0.00  -0.04     0.00  -0.00  -0.01
  43   7    -0.00   0.01   0.01     0.00  -0.04  -0.00    -0.00   0.00  -0.01
  44   1     0.00   0.00  -0.01    -0.01  -0.01   0.00     0.00   0.00   0.01
  45   1    -0.00   0.00  -0.01     0.00  -0.02   0.00     0.00   0.00   0.00
  46   6    -0.00   0.00   0.00    -0.00  -0.00  -0.00     0.00   0.00   0.00
  47   8    -0.00  -0.00   0.00    -0.00   0.00  -0.00     0.00  -0.01   0.01
  48   7     0.01   0.00   0.01    -0.00   0.00  -0.00     0.01   0.00   0.00
  49   1    -0.00   0.00  -0.00    -0.00  -0.00   0.00    -0.00   0.00  -0.01
  50   1    -0.02  -0.01  -0.01     0.00   0.00   0.00    -0.01  -0.01  -0.01
  51   7     0.00   0.00  -0.00    -0.00  -0.00   0.00     0.00   0.00  -0.00
  52   1    -0.00   0.00  -0.00     0.00   0.00   0.00    -0.01  -0.00  -0.00
  53   1    -0.00  -0.00  -0.00     0.00   0.00   0.00    -0.00  -0.00  -0.00
                     37                     38                     39
                        a                      a                      a 
 Frequencies --   383.9388               428.6737               429.0591
 Red. masses --     3.5734                 7.6121                 3.6983
 Frc consts  --     0.0000                 0.0000                 0.0000
 IR Inten    --     2.4880                 8.6618                33.1344
 Raman Activ --     0.0000                 0.0000                 0.0000
 Depolar     --     0.0000                 0.0000                 0.0000
 Atom AN      X      Y      Z        X      Y      Z        X      Y      Z
   1   8    -0.08   0.02  -0.06     0.17   0.12  -0.05     0.09   0.04  -0.02
   2   6     0.12  -0.05  -0.02    -0.01   0.05   0.15    -0.00   0.01   0.07
   3   1     0.05   0.01   0.01    -0.01   0.01   0.06    -0.00   0.00   0.02
   4   1     0.04  -0.04  -0.01     0.01  -0.01   0.04     0.00  -0.01   0.02
   5   6     0.10  -0.03  -0.01    -0.09  -0.09  -0.02    -0.03  -0.04  -0.00
   6   1     0.04  -0.02  -0.05    -0.04  -0.05  -0.02    -0.02  -0.02  -0.01
   7   1     0.03  -0.03   0.04     0.04  -0.02  -0.03     0.01  -0.01  -0.01
   8   7    -0.00   0.10   0.01    -0.22  -0.21  -0.06    -0.09  -0.09  -0.02
   9   6    -0.20  -0.02   0.22     0.26  -0.22   0.01     0.11  -0.10   0.00
  10   1     0.03   0.05  -0.07     0.13   0.06   0.04     0.05   0.02   0.02
  11   1    -0.26  -0.07   0.03     0.08  -0.07   0.00     0.04  -0.03   0.00
  12   1     0.00  -0.02   0.28     0.14  -0.16  -0.00     0.05  -0.07  -0.01
  13   6     0.03   0.09   0.08    -0.31  -0.06   0.00    -0.14  -0.02  -0.00
  14   1    -0.17   0.35   0.04    -0.14   0.08   0.01    -0.06   0.03   0.00
  15   1     0.03  -0.17  -0.29    -0.05  -0.02  -0.08    -0.02  -0.00  -0.04
  16   1     0.17  -0.12   0.36    -0.09  -0.06   0.09    -0.05  -0.02   0.04
  17   6     0.02  -0.05  -0.26     0.11   0.35  -0.05     0.06   0.15  -0.03
  18   1     0.05  -0.12  -0.26    -0.05   0.21  -0.13    -0.02   0.09  -0.06
  19   1     0.13   0.10  -0.04     0.11   0.20   0.01     0.06   0.09   0.01
  20   1    -0.16  -0.08   0.00     0.13   0.06   0.09     0.06   0.03   0.04
  21   1    -0.05  -0.02   0.00     0.05   0.03  -0.01     0.02   0.01   0.00
  22   6    -0.00   0.01   0.01     0.00   0.00   0.00    -0.01  -0.00   0.01
  23   8    -0.01   0.01   0.01    -0.00   0.00   0.00     0.01  -0.01  -0.00
  24   7     0.00  -0.00   0.01     0.01   0.00   0.01    -0.01  -0.01  -0.02
  25   1    -0.00   0.00   0.00     0.00  -0.00   0.00    -0.00  -0.01   0.01
  26   1     0.00  -0.00  -0.00     0.01  -0.01  -0.00    -0.02   0.07   0.05
  27   7    -0.00  -0.00   0.01    -0.00  -0.01   0.01     0.01   0.01  -0.01
  28   1     0.00  -0.02  -0.01    -0.01   0.02   0.02     0.04  -0.09  -0.07
  29   1    -0.00   0.00   0.00     0.01  -0.01   0.00    -0.03   0.07   0.01
  30   6    -0.00  -0.00  -0.00    -0.00  -0.00  -0.02    -0.00  -0.00  -0.01
  31   8     0.00  -0.01  -0.00     0.00   0.00  -0.02     0.00   0.00  -0.01
  32   7     0.00  -0.02   0.00    -0.02  -0.01   0.01    -0.00  -0.01   0.00
  33   1    -0.01   0.01   0.00    -0.00   0.01   0.02    -0.00   0.01   0.01
  34   1    -0.02   0.03   0.00    -0.01  -0.01   0.00    -0.01   0.01   0.00
  35   7     0.01  -0.01  -0.00     0.01   0.00   0.02     0.01  -0.00   0.00
  36   1    -0.02   0.06   0.02     0.01   0.03   0.01    -0.00   0.03   0.01
  37   1    -0.00  -0.00   0.01     0.00  -0.02   0.02     0.00  -0.01   0.01
  38   6     0.02   0.00  -0.00    -0.01  -0.01   0.04    -0.01   0.02  -0.09
  39   8     0.01   0.00  -0.00     0.01  -0.02   0.02    -0.02   0.02  -0.05
  40   7     0.01   0.02   0.00    -0.02  -0.01  -0.05     0.02  -0.01   0.11
  41   1     0.00   0.01   0.00     0.00   0.01   0.02    -0.01  -0.02  -0.06
  42   1    -0.00   0.00  -0.01    -0.01   0.00   0.02     0.02  -0.01  -0.02
  43   7     0.00  -0.03   0.01     0.00   0.03  -0.08    -0.00  -0.01   0.16
  44   1    -0.01  -0.01  -0.00     0.02   0.00   0.25    -0.03   0.01  -0.52
  45   1     0.00  -0.02   0.00     0.01   0.01   0.00    -0.02   0.02  -0.01
  46   6     0.00  -0.00  -0.00    -0.02  -0.01  -0.02     0.04   0.02   0.05
  47   8    -0.00   0.01  -0.00    -0.02   0.00  -0.02     0.05  -0.00   0.05
  48   7     0.00   0.00   0.00     0.05   0.03   0.05    -0.13  -0.08  -0.13
  49   1    -0.00  -0.00   0.00     0.02   0.02  -0.01    -0.03  -0.05   0.04
  50   1    -0.00   0.00  -0.00    -0.20  -0.12  -0.12     0.49   0.29   0.29
  51   7     0.00  -0.00   0.00     0.04   0.01   0.01    -0.10  -0.02  -0.03
  52   1    -0.00  -0.00   0.00     0.02   0.01   0.01    -0.05  -0.00  -0.01
  53   1     0.00   0.00   0.00    -0.04  -0.02  -0.02     0.10   0.05   0.03
                     40                     41                     42
                        a                      a                      a 
 Frequencies --   440.0509               444.5140               454.9125
 Red. masses --     2.9324                 1.7055                 8.3235
 Frc consts  --     0.0000                 0.0000                 0.0000
 IR Inten    --   311.7751                 6.9372                 2.0192
 Raman Activ --     0.0000                 0.0000                 0.0000
 Depolar     --     0.0000                 0.0000                 0.0000
 Atom AN      X      Y      Z        X      Y      Z        X      Y      Z
   1   8    -0.01   0.00   0.00    -0.01  -0.01   0.00     0.03  -0.00  -0.01
   2   6    -0.00   0.00  -0.01    -0.01  -0.00   0.01    -0.07  -0.01   0.09
   3   1    -0.00   0.00  -0.00    -0.00  -0.00  -0.00    -0.01  -0.00   0.01
   4   1    -0.00   0.00  -0.00    -0.01  -0.00   0.00    -0.05  -0.01   0.03
   5   6     0.00   0.01   0.00    -0.00   0.01   0.03    -0.01  -0.06   0.15
   6   1    -0.00   0.00   0.00    -0.00   0.00   0.01    -0.03  -0.06   0.02
   7   1    -0.00   0.00   0.00    -0.01   0.00   0.01     0.04  -0.04   0.07
   8   7     0.01   0.01   0.01     0.02   0.00   0.02    -0.00   0.05   0.12
   9   6    -0.01   0.01   0.01    -0.02   0.02  -0.02     0.01   0.13  -0.03
  10   1    -0.00  -0.00  -0.01    -0.01  -0.01  -0.01    -0.00   0.02  -0.03
  11   1    -0.01   0.00   0.00    -0.00   0.02  -0.00     0.01   0.08  -0.00
  12   1    -0.00   0.00   0.00    -0.01   0.01  -0.01    -0.00   0.03  -0.05
  13   6     0.01   0.01  -0.00     0.01   0.01  -0.02    -0.00  -0.05  -0.13
  14   1     0.00  -0.00  -0.00    -0.00  -0.01  -0.01    -0.05  -0.06  -0.05
  15   1     0.00   0.00   0.00     0.01   0.01   0.00     0.01  -0.02  -0.06
  16   1     0.00   0.00  -0.00    -0.00   0.01  -0.02     0.04   0.01  -0.07
  17   6    -0.00  -0.01   0.00     0.02  -0.03   0.00     0.04  -0.04  -0.10
  18   1     0.00  -0.01   0.00     0.01  -0.01   0.00     0.02  -0.03  -0.07
  19   1    -0.00  -0.01  -0.00     0.01  -0.02  -0.00     0.07  -0.03  -0.02
  20   1    -0.01  -0.00  -0.00    -0.00  -0.00  -0.01    -0.04  -0.01  -0.06
  21   1     0.01   0.00  -0.02     0.00  -0.00  -0.00     0.02   0.01  -0.01
  22   6    -0.00  -0.01   0.02    -0.00   0.00  -0.00    -0.00   0.01  -0.01
  23   8     0.02  -0.02   0.03    -0.00  -0.00  -0.00    -0.01   0.00  -0.01
  24   7    -0.04  -0.01  -0.02     0.00   0.00   0.00     0.01   0.00   0.01
  25   1     0.00  -0.03  -0.02     0.00  -0.00   0.00     0.01  -0.01   0.01
  26   1    -0.04   0.09   0.07     0.00  -0.00  -0.00     0.01   0.01   0.00
  27   7     0.02   0.00  -0.03    -0.00  -0.00   0.00    -0.01  -0.01   0.01
  28   1     0.06  -0.07  -0.07    -0.00  -0.00   0.00    -0.01  -0.01   0.00
  29   1    -0.05   0.11   0.01     0.00  -0.00   0.00     0.00   0.00   0.01
  30   6    -0.00  -0.00   0.00    -0.00   0.02  -0.08    -0.00   0.06  -0.28
  31   8     0.00   0.00   0.00     0.01   0.02  -0.08    -0.00   0.07  -0.30
  32   7     0.00  -0.01  -0.00    -0.02  -0.13   0.00    -0.31  -0.12   0.19
  33   1     0.00  -0.01  -0.01    -0.18   0.41   0.21     0.09  -0.18   0.21
  34   1    -0.01   0.03   0.00     0.05  -0.45  -0.05    -0.31  -0.00   0.05
  35   7     0.00  -0.01  -0.00     0.01   0.12   0.06     0.31   0.03   0.22
  36   1    -0.01   0.01   0.00    -0.04   0.43   0.16     0.31  -0.01   0.04
  37   1    -0.00   0.00   0.00     0.19  -0.49   0.02    -0.08   0.06   0.27
  38   6     0.00  -0.02   0.10    -0.00   0.00   0.00    -0.01  -0.00  -0.00
  39   8     0.03  -0.02   0.05     0.00   0.00   0.00     0.00  -0.00   0.00
  40   7    -0.03  -0.01  -0.15     0.00  -0.00  -0.00    -0.01  -0.00   0.00
  41   1     0.01   0.01   0.09    -0.00  -0.00   0.00    -0.00  -0.00  -0.01
  42   1    -0.01   0.01   0.07     0.00  -0.00   0.00    -0.00  -0.00   0.01
  43   7    -0.00   0.04  -0.23    -0.00  -0.00  -0.00     0.00   0.01  -0.00
  44   1     0.04  -0.01   0.69    -0.00  -0.00   0.01     0.00   0.00  -0.00
  45   1     0.02  -0.02   0.02     0.00  -0.00   0.00    -0.00   0.01  -0.00
  46   6     0.01   0.01   0.05    -0.00  -0.00  -0.00    -0.00  -0.00   0.00
  47   8     0.03   0.00   0.06    -0.00   0.00  -0.00    -0.00   0.00   0.00
  48   7    -0.08  -0.09  -0.14    -0.00   0.00  -0.00     0.00  -0.00   0.00
  49   1    -0.04  -0.05   0.00    -0.00  -0.00   0.00    -0.00  -0.00  -0.00
  50   1     0.43   0.23   0.24     0.00   0.00   0.00    -0.00  -0.00  -0.00
  51   7    -0.10   0.01  -0.04    -0.00  -0.00  -0.00     0.00   0.00  -0.00
  52   1     0.01   0.06  -0.00     0.00   0.00   0.00    -0.00   0.00  -0.00
  53   1     0.09   0.04  -0.00     0.00   0.00   0.00    -0.00  -0.00  -0.00
                     43                     44                     45
                        a                      a                      a 
 Frequencies --   458.8793               465.0727               467.8082
 Red. masses --     4.9129                 7.9984                 6.3744
 Frc consts  --     0.0000                 0.0000                 0.0000
 IR Inten    --    38.8726                13.3850                 2.0959
 Raman Activ --     0.0000                 0.0000                 0.0000
 Depolar     --     0.0000                 0.0000                 0.0000
 Atom AN      X      Y      Z        X      Y      Z        X      Y      Z
   1   8     0.01  -0.00  -0.00     0.08  -0.00  -0.02     0.06   0.01  -0.02
   2   6     0.01   0.00  -0.00    -0.05  -0.01   0.09    -0.07  -0.01   0.12
   3   1     0.01   0.00  -0.01    -0.00   0.00   0.00    -0.01  -0.00   0.01
   4   1    -0.01   0.00   0.00    -0.04  -0.01   0.03    -0.05  -0.02   0.04
   5   6     0.02  -0.07   0.00     0.01  -0.16   0.12    -0.01  -0.10   0.16
   6   1    -0.02  -0.07  -0.05    -0.06  -0.17  -0.07    -0.04  -0.10  -0.01
   7   1     0.07  -0.05   0.04     0.14  -0.12   0.12     0.08  -0.06   0.09
   8   7    -0.08   0.11   0.01    -0.14   0.19   0.10    -0.05   0.08   0.13
   9   6     0.06   0.10   0.07     0.14   0.24   0.09     0.05   0.16  -0.01
  10   1     0.01   0.05   0.06     0.04   0.10   0.07     0.01   0.04  -0.00
  11   1     0.06   0.01   0.02     0.10   0.08   0.03     0.04   0.08   0.01
  12   1     0.02   0.01  -0.01     0.06   0.02  -0.04     0.02   0.02  -0.05
  13   6     0.04  -0.10  -0.03     0.06  -0.22  -0.14    -0.01  -0.09  -0.16
  14   1     0.02  -0.06  -0.01    -0.01  -0.14  -0.05    -0.06  -0.07  -0.05
  15   1    -0.02  -0.07   0.01    -0.02  -0.13  -0.04     0.00  -0.04  -0.08
  16   1     0.07  -0.01  -0.03     0.14  -0.03  -0.10     0.07  -0.01  -0.09
  17   6    -0.11   0.03  -0.06    -0.14   0.03  -0.18     0.02  -0.01  -0.15
  18   1    -0.02  -0.01  -0.01    -0.02  -0.03  -0.09     0.01  -0.02  -0.09
  19   1    -0.02  -0.01  -0.02     0.02  -0.03  -0.05     0.07  -0.02  -0.03
  20   1    -0.05   0.01  -0.04    -0.11   0.02  -0.10    -0.05   0.00  -0.07
  21   1     0.00   0.00   0.00     0.03   0.01  -0.00     0.02   0.01  -0.01
  22   6     0.03  -0.07   0.13    -0.02   0.03  -0.06     0.01   0.04  -0.00
  23   8     0.13  -0.03   0.11    -0.05   0.03  -0.06    -0.03   0.01  -0.00
  24   7    -0.20  -0.04  -0.09     0.09   0.02   0.03     0.02  -0.01  -0.02
  25   1     0.01  -0.11  -0.07     0.02  -0.02   0.05    -0.02   0.05  -0.01
  26   1    -0.17   0.27   0.20     0.07   0.02  -0.00     0.02  -0.11  -0.07
  27   7     0.09  -0.02  -0.15    -0.05  -0.04   0.07     0.01   0.05   0.01
  28   1     0.24  -0.12  -0.20    -0.05  -0.07   0.01    -0.09   0.14   0.11
  29   1    -0.21   0.48   0.03     0.02   0.03   0.08     0.11  -0.33  -0.10
  30   6    -0.00  -0.00   0.01    -0.00  -0.02   0.08    -0.00  -0.01   0.07
  31   8    -0.00  -0.00   0.02    -0.00  -0.02   0.09    -0.00  -0.01   0.08
  32   7     0.02   0.00  -0.01     0.09   0.04  -0.05     0.08   0.03  -0.04
  33   1    -0.01   0.02  -0.01    -0.03   0.05  -0.06    -0.02   0.04  -0.06
  34   1     0.02  -0.01  -0.00     0.09  -0.01  -0.01     0.08   0.01  -0.01
  35   7    -0.02  -0.00  -0.01    -0.09  -0.01  -0.05    -0.08  -0.02  -0.05
  36   1    -0.02   0.01   0.00    -0.09  -0.01  -0.01    -0.08  -0.01  -0.01
  37   1     0.01  -0.01  -0.01     0.02  -0.00  -0.07     0.01   0.01  -0.06
  38   6     0.00  -0.07  -0.00    -0.02   0.04  -0.01    -0.01  -0.04   0.01
  39   8    -0.04  -0.07   0.01     0.03   0.04  -0.01    -0.02  -0.05   0.01
  40   7    -0.07   0.07   0.00     0.03  -0.05   0.01    -0.05   0.03  -0.02
  41   1     0.02   0.07  -0.03    -0.02  -0.05  -0.03     0.01   0.04   0.00
  42   1    -0.08   0.03   0.02     0.05  -0.02   0.03    -0.05   0.01   0.01
  43   7     0.09   0.04   0.02    -0.05   0.00  -0.01     0.04   0.03  -0.01
  44   1     0.06   0.01  -0.06    -0.03   0.00  -0.03     0.04   0.00   0.07
  45   1     0.01   0.05  -0.01    -0.01  -0.01   0.02     0.00   0.02  -0.03
  46   6     0.03   0.02  -0.10    -0.04  -0.03   0.15     0.04   0.04  -0.18
  47   8     0.05  -0.03  -0.10    -0.10   0.07   0.15     0.12  -0.09  -0.17
  48   7    -0.06   0.12   0.07     0.12  -0.18  -0.07    -0.15   0.22   0.08
  49   1     0.03   0.03   0.07     0.04  -0.00  -0.11    -0.09  -0.02   0.13
  50   1    -0.16   0.00  -0.07     0.05  -0.15  -0.02     0.01   0.23   0.07
  51   7     0.04  -0.08   0.10    -0.02   0.14  -0.15     0.00  -0.16   0.17
  52   1     0.03  -0.12   0.04    -0.02   0.21  -0.05    -0.00  -0.26   0.05
  53   1    -0.07   0.01   0.09     0.00  -0.07  -0.20     0.05   0.12   0.26
                     46                     47                     48
                        a                      a                      a 
 Frequencies --   472.9292               478.5056               483.6774
 Red. masses --     7.5665                 6.7790                 6.8473
 Frc consts  --     0.0000                 0.0000                 0.0000
 IR Inten    --    24.1664                29.7812                39.7244
 Raman Activ --     0.0000                 0.0000                 0.0000
 Depolar     --     0.0000                 0.0000                 0.0000
 Atom AN      X      Y      Z        X      Y      Z        X      Y      Z
   1   8     0.01   0.01  -0.02     0.02  -0.02   0.01     0.04  -0.01   0.00
   2   6    -0.14  -0.03   0.18     0.02  -0.00  -0.03    -0.03  -0.01   0.04
   3   1    -0.05  -0.02   0.04     0.00  -0.00  -0.01    -0.01  -0.01  -0.01
   4   1    -0.06  -0.04   0.05     0.01   0.01  -0.01    -0.03   0.00   0.01
   5   6    -0.08   0.06   0.26     0.01  -0.00  -0.04     0.00  -0.02   0.09
   6   1    -0.01   0.06   0.14    -0.00  -0.01  -0.02    -0.00  -0.01   0.03
   7   1    -0.08   0.05   0.02     0.01  -0.00  -0.01     0.00  -0.00   0.02
   8   7     0.17  -0.15   0.18    -0.03   0.02  -0.03     0.01  -0.02   0.07
   9   6    -0.14   0.02  -0.24     0.03  -0.01   0.04    -0.02   0.03  -0.05
  10   1    -0.05  -0.08  -0.17     0.01   0.02   0.03    -0.01  -0.01  -0.03
  11   1    -0.10   0.12  -0.06     0.01  -0.02   0.01    -0.00   0.04  -0.01
  12   1    -0.06   0.04  -0.08     0.01  -0.01   0.02    -0.01   0.01  -0.04
  13   6    -0.11   0.17  -0.21     0.02  -0.03   0.04    -0.05   0.01  -0.07
  14   1    -0.15   0.04  -0.07     0.03  -0.01   0.01    -0.05  -0.00  -0.02
  15   1     0.06   0.14  -0.14    -0.01  -0.02   0.03     0.01   0.02  -0.04
  16   1    -0.09   0.05  -0.08     0.01  -0.01   0.01    -0.01   0.01  -0.03
  17   6     0.34  -0.12  -0.08    -0.06   0.02   0.02     0.06  -0.01  -0.04
  18   1     0.08  -0.03  -0.11    -0.01   0.00   0.02     0.01   0.00  -0.04
  19   1     0.18  -0.02  -0.01    -0.03   0.00   0.00     0.05  -0.01  -0.01
  20   1     0.05  -0.04  -0.03    -0.01   0.01   0.01     0.01  -0.00  -0.02
  21   1     0.02   0.01  -0.02     0.01  -0.00  -0.00     0.01   0.00  -0.00
  22   6    -0.01  -0.01  -0.05    -0.01   0.03  -0.12     0.01  -0.09   0.20
  23   8    -0.02  -0.02  -0.06    -0.11  -0.02  -0.12     0.21   0.00   0.18
  24   7     0.07   0.03   0.04     0.16   0.05   0.01    -0.32  -0.06  -0.02
  25   1     0.03  -0.05   0.04     0.05  -0.05   0.07    -0.07   0.05  -0.13
  26   1     0.04   0.10   0.05     0.09   0.14   0.05    -0.16  -0.20  -0.07
  27   7    -0.03  -0.07   0.05    -0.07  -0.11   0.13     0.08   0.14  -0.21
  28   1     0.02  -0.15  -0.06    -0.07  -0.17  -0.01     0.18   0.17  -0.07
  29   1    -0.05   0.24   0.13     0.01   0.20   0.20    -0.11  -0.08  -0.25
  30   6    -0.00  -0.02   0.07    -0.00   0.00  -0.01     0.00  -0.00   0.01
  31   8    -0.00  -0.02   0.09     0.00   0.00  -0.01    -0.00  -0.00   0.02
  32   7     0.08   0.04  -0.04    -0.01  -0.01   0.00     0.02   0.01  -0.01
  33   1    -0.01   0.01  -0.07     0.00  -0.01   0.01    -0.00   0.01  -0.01
  34   1     0.08   0.02  -0.01    -0.01   0.00   0.00     0.02  -0.00  -0.00
  35   7    -0.08  -0.02  -0.05     0.01   0.00   0.01    -0.02  -0.00  -0.01
  36   1    -0.08  -0.02  -0.02     0.01   0.01   0.00    -0.02  -0.01  -0.00
[...]
  44   1    -0.02  -0.09   0.00     0.00   0.02   0.00    -0.00  -0.03  -0.00
  45   1     0.66   0.28  -0.11    -0.10  -0.04   0.02    -0.02  -0.01   0.00
  46   6    -0.00   0.00   0.02     0.00  -0.01   0.01    -0.00  -0.00   0.00
  47   8     0.00  -0.00  -0.01     0.00  -0.00  -0.01     0.00   0.00  -0.00
  48   7    -0.00  -0.00  -0.00     0.09  -0.20  -0.07     0.00   0.00  -0.00
  49   1    -0.00   0.01   0.01    -0.40   0.77   0.37    -0.00  -0.00  -0.00
  50   1     0.00   0.00  -0.00     0.07   0.00  -0.14    -0.00  -0.00   0.00
  51   7     0.00  -0.00  -0.00    -0.00   0.00   0.00     0.00  -0.00  -0.00
  52   1     0.00  -0.00  -0.00    -0.00   0.00   0.01    -0.00  -0.00   0.00
  53   1     0.00  -0.01   0.01    -0.00   0.01  -0.00    -0.00   0.00  -0.00
                    142                    143                    144
                        a                      a                      a 
 Frequencies --  3498.9234              3499.6671              3499.8687
 Red. masses --     1.4389                 1.4459                 1.4503
 Frc consts  --     0.0000                 0.0000                 0.0000
 IR Inten    --    37.2517                14.4128                21.9313
 Raman Activ --     0.0000                 0.0000                 0.0000
 Depolar     --     0.0000                 0.0000                 0.0000
 Atom AN      X      Y      Z        X      Y      Z        X      Y      Z
   1   8     0.00  -0.00   0.00    -0.00   0.00  -0.00    -0.00  -0.00   0.00
   2   6    -0.00  -0.00  -0.00    -0.00  -0.00  -0.00     0.00   0.00  -0.00
   3   1     0.00  -0.00  -0.00     0.00   0.00   0.00    -0.00   0.00  -0.00
   4   1     0.00   0.00   0.00    -0.00   0.00   0.00     0.00   0.00   0.00
   5   6     0.00  -0.00  -0.00     0.00  -0.00  -0.00    -0.00   0.00  -0.00
   6   1    -0.00  -0.00  -0.00    -0.00   0.00  -0.00     0.00  -0.00   0.00
   7   1    -0.00   0.00   0.00     0.00   0.00   0.00     0.00   0.00   0.00
   8   7     0.00   0.00  -0.00    -0.00  -0.00  -0.00     0.00   0.00   0.00
   9   6     0.00  -0.00  -0.00     0.00   0.00   0.00    -0.00   0.00  -0.00
  10   1    -0.00  -0.00   0.00    -0.00  -0.00  -0.00     0.00  -0.00   0.00
  11   1    -0.00  -0.00   0.00     0.00  -0.00  -0.00    -0.00  -0.00  -0.00
  12   1     0.00   0.00  -0.00     0.00  -0.00  -0.00    -0.00   0.00  -0.00
  13   6    -0.00  -0.00   0.00     0.00  -0.00   0.00    -0.00   0.00  -0.00
  14   1    -0.00  -0.00  -0.00     0.00  -0.00   0.00    -0.00   0.00  -0.00
  15   1     0.00  -0.00   0.00    -0.00   0.00  -0.00     0.00  -0.00   0.00
  16   1    -0.00   0.00   0.00     0.00   0.00   0.00    -0.00   0.00   0.00
  17   6    -0.00  -0.00  -0.00     0.00  -0.00  -0.00     0.00  -0.00  -0.00
  18   1     0.00   0.00  -0.00     0.00   0.00   0.00     0.00   0.00  -0.00
  19   1    -0.00  -0.00   0.00     0.00   0.00   0.00    -0.00  -0.00   0.00
  20   1    -0.00   0.00   0.00    -0.00   0.00   0.00    -0.00  -0.00   0.00
  21   1    -0.00   0.00  -0.00     0.00  -0.00   0.00    -0.00   0.00  -0.00
  22   6    -0.00   0.00   0.00    -0.00   0.00  -0.00     0.00  -0.00   0.00
  23   8     0.00  -0.00   0.00     0.00  -0.00   0.00    -0.00   0.00  -0.00
  24   7     0.00  -0.00   0.00     0.00  -0.00   0.00    -0.01   0.01  -0.01
  25   1    -0.00  -0.00  -0.00    -0.00  -0.00  -0.00     0.01   0.01   0.00
  26   1    -0.00   0.00  -0.00    -0.01   0.01  -0.01     0.03  -0.03   0.06
  27   7    -0.00   0.00  -0.00    -0.05   0.00  -0.01     0.17  -0.00   0.03
  28   1     0.01  -0.01   0.01     0.07  -0.07   0.15    -0.25   0.28  -0.57
  29   1     0.01   0.01  -0.01     0.10   0.07  -0.12    -0.40  -0.27   0.45
  30   6     0.00   0.00   0.00    -0.00  -0.00   0.00     0.00   0.00   0.00
  31   8     0.00  -0.00   0.00    -0.00   0.00  -0.00     0.00   0.00  -0.00
  32   7     0.09   0.04   0.08    -0.00  -0.00  -0.00     0.00   0.00   0.00
  33   1    -0.35  -0.22   0.19     0.01   0.00  -0.00    -0.01  -0.01   0.00
  34   1     0.02   0.07  -0.50    -0.00  -0.00   0.01     0.00   0.00  -0.01
  35   7     0.09   0.08  -0.06    -0.00  -0.00   0.00     0.00   0.00  -0.00
  36   1     0.03  -0.16   0.51    -0.00   0.00  -0.00     0.00  -0.00   0.01
  37   1    -0.37  -0.13  -0.27     0.00   0.00   0.00    -0.01  -0.00  -0.01
  38   6    -0.00  -0.00  -0.00     0.00   0.00  -0.00     0.00   0.00  -0.00
  39   8     0.00  -0.00   0.00    -0.00  -0.00   0.00    -0.00  -0.00  -0.00
  40   7     0.00   0.00  -0.00    -0.00  -0.00   0.00     0.00   0.00  -0.00
  41   1    -0.00   0.00   0.00     0.00  -0.00  -0.00    -0.00   0.00   0.00
  42   1    -0.00  -0.00   0.00     0.00   0.00  -0.00    -0.00  -0.00   0.00
  43   7     0.00  -0.00  -0.00    -0.00   0.00   0.00    -0.00   0.00   0.00
  44   1     0.00   0.00   0.00    -0.00  -0.01  -0.00    -0.00  -0.00  -0.00
  45   1    -0.00  -0.00   0.00     0.01   0.00  -0.00     0.00   0.00  -0.00
  46   6    -0.00  -0.00  -0.00     0.00  -0.00  -0.00    -0.00  -0.00  -0.00
  47   8     0.00   0.00   0.00    -0.00  -0.00   0.00    -0.00  -0.00   0.00
  48   7    -0.00   0.00   0.00    -0.01   0.00   0.01    -0.00  -0.00   0.00
  49   1     0.00  -0.00  -0.00     0.01  -0.02  -0.01    -0.00   0.00   0.00
  50   1    -0.00  -0.00  -0.00     0.02   0.01  -0.04     0.01   0.00  -0.02
  51   7     0.00  -0.00  -0.00     0.08  -0.14  -0.08     0.02  -0.04  -0.02
  52   1    -0.00  -0.00   0.00    -0.19   0.00   0.67    -0.05   0.00   0.18
  53   1    -0.00   0.00  -0.00    -0.12   0.51  -0.38    -0.03   0.13  -0.10
                    145                    146                    147
                        a                      a                      a 
 Frequencies --  3502.8266              3517.7052              3521.4911
 Red. masses --     1.4628                 1.8878                 1.9276
 Frc consts  --     0.0000                 0.0000                 0.0000
 IR Inten    --     7.9496                10.2218                14.3801
 Raman Activ --     0.0000                 0.0000                 0.0000
 Depolar     --     0.0000                 0.0000                 0.0000
 Atom AN      X      Y      Z        X      Y      Z        X      Y      Z
   1   8    -0.00   0.00  -0.00    -0.00   0.00  -0.00    -0.00   0.00  -0.00
   2   6    -0.00  -0.00  -0.00    -0.00  -0.00  -0.00    -0.00  -0.00   0.00
   3   1     0.00  -0.00   0.00     0.00   0.00  -0.00     0.00   0.00  -0.00
   4   1     0.00  -0.00   0.00     0.00  -0.00   0.00     0.00   0.00   0.00
   5   6    -0.00   0.00   0.00     0.00  -0.00   0.00     0.00  -0.00   0.00
   6   1     0.00  -0.00   0.00    -0.00   0.00  -0.00    -0.00   0.00  -0.00
   7   1     0.00  -0.00  -0.00     0.00   0.00   0.00    -0.00   0.00   0.00
   8   7    -0.00  -0.00   0.00     0.00   0.00   0.00    -0.00   0.00   0.00
   9   6     0.00   0.00  -0.00     0.00   0.00  -0.00     0.00  -0.00   0.00
  10   1     0.00   0.00  -0.00    -0.00  -0.00  -0.00    -0.00  -0.00   0.00
  11   1    -0.00  -0.00   0.00     0.00  -0.00   0.00    -0.00   0.00  -0.00
  12   1    -0.00   0.00  -0.00    -0.00  -0.00   0.00     0.00  -0.00   0.00
  13   6    -0.00   0.00  -0.00    -0.00   0.00  -0.00     0.00  -0.00   0.00
  14   1     0.00   0.00   0.00     0.00   0.00  -0.00     0.00   0.00  -0.00
  15   1     0.00   0.00  -0.00     0.00  -0.00   0.00    -0.00   0.00  -0.00
  16   1     0.00  -0.00  -0.00     0.00   0.00   0.00     0.00  -0.00  -0.00
  17   6     0.00   0.00  -0.00    -0.00   0.00   0.00    -0.00   0.00   0.00
  18   1     0.00   0.00  -0.00     0.00   0.00  -0.00     0.00  -0.00   0.00
  19   1    -0.00  -0.00   0.00     0.00  -0.00   0.00     0.00   0.00  -0.00
  20   1     0.00  -0.00  -0.00     0.00  -0.00  -0.00     0.00   0.00   0.00
  21   1     0.00  -0.00   0.00     0.00  -0.00   0.00     0.00  -0.00   0.00
  22   6     0.00   0.00   0.00     0.01  -0.00   0.00     0.00  -0.00   0.00
  23   8    -0.00   0.00  -0.00    -0.00   0.00  -0.00    -0.00   0.00  -0.00
  24   7    -0.00   0.00  -0.00     0.12  -0.10   0.21     0.00  -0.00   0.00
  25   1     0.00   0.00   0.00    -0.07  -0.05  -0.01    -0.00  -0.00  -0.00
  26   1     0.00  -0.00   0.00    -0.40   0.43  -0.75    -0.01   0.01  -0.02
  27   7    -0.00  -0.00  -0.00     0.02   0.01  -0.01    -0.00   0.00  -0.00
  28   1     0.00  -0.00   0.00    -0.01   0.01  -0.02     0.00  -0.00   0.01
  29   1     0.00   0.00  -0.00    -0.06  -0.04   0.06     0.00   0.00  -0.00
  30   6     0.00  -0.00   0.00    -0.00  -0.00  -0.00     0.00   0.00  -0.00
  31   8     0.00   0.00  -0.01     0.00   0.00   0.00    -0.00  -0.00   0.00
  32   7     0.10   0.04   0.08     0.00   0.00   0.00    -0.00  -0.00   0.00
  33   1    -0.38  -0.24   0.20    -0.00  -0.00   0.00     0.00   0.00  -0.00
  34   1     0.03   0.07  -0.51     0.00   0.00  -0.00     0.00  -0.00   0.00
  35   7    -0.09  -0.07   0.06    -0.00  -0.00   0.00     0.00   0.00   0.00
  36   1    -0.03   0.15  -0.47    -0.00   0.00  -0.00     0.00   0.00  -0.00
  37   1     0.36   0.12   0.26     0.00   0.00   0.00    -0.00  -0.00  -0.00
  38   6    -0.00  -0.00   0.00    -0.00   0.00  -0.00     0.00  -0.00  -0.00
  39   8     0.00   0.00  -0.00    -0.00  -0.00  -0.00     0.00   0.00   0.00
  40   7    -0.00  -0.00   0.00    -0.00  -0.00   0.00    -0.00   0.00   0.00
  41   1     0.00  -0.00  -0.00     0.00  -0.00  -0.00     0.00  -0.00  -0.00
  42   1     0.00   0.00  -0.00     0.00   0.01  -0.00     0.00   0.00  -0.00
  43   7     0.00   0.00  -0.00     0.00  -0.00  -0.00    -0.00  -0.00   0.00
  44   1    -0.00  -0.00  -0.00     0.00   0.01   0.00     0.00   0.00   0.00
  45   1    -0.00  -0.00   0.00    -0.00  -0.00   0.00     0.00   0.00  -0.00
  46   6     0.00  -0.00   0.00     0.00  -0.00   0.00    -0.01   0.00   0.01
  47   8     0.00   0.00  -0.00     0.00  -0.00  -0.00     0.00  -0.00  -0.00
  48   7    -0.00   0.00   0.00     0.00   0.00  -0.01    -0.13   0.00   0.23
  49   1     0.00  -0.00  -0.00    -0.00   0.00   0.00     0.04  -0.12  -0.04
  50   1     0.00   0.00  -0.00    -0.01  -0.00   0.02     0.46   0.10  -0.83
  51   7     0.00  -0.00  -0.00     0.00  -0.00  -0.00    -0.00   0.02  -0.01
  52   1    -0.00   0.00   0.00    -0.00  -0.00   0.00     0.00   0.00  -0.00
  53   1    -0.00   0.00  -0.00    -0.00   0.00  -0.00     0.02  -0.06   0.05
                    148                    149                    150
                        a                      a                      a 
 Frequencies --  3530.0952              3559.8521              3562.8563
 Red. masses --     1.9042                 2.1791                 2.1899
 Frc consts  --     0.0000                 0.0000                 0.0000
 IR Inten    --    11.7393                16.8633                12.9502
 Raman Activ --     0.0000                 0.0000                 0.0000
 Depolar     --     0.0000                 0.0000                 0.0000
 Atom AN      X      Y      Z        X      Y      Z        X      Y      Z
   1   8     0.00  -0.00   0.00    -0.00   0.00  -0.00     0.00  -0.00   0.00
   2   6     0.00   0.00  -0.00     0.00   0.00   0.00    -0.00  -0.00  -0.00
   3   1     0.00  -0.00   0.00    -0.00   0.00  -0.00     0.00  -0.00  -0.00
   4   1    -0.00  -0.00   0.00     0.00  -0.00  -0.00     0.00   0.00   0.00
   5   6    -0.00   0.00  -0.00     0.00  -0.00   0.00     0.00  -0.00  -0.00
   6   1     0.00  -0.00   0.00    -0.00  -0.00  -0.00    -0.00  -0.00  -0.00
   7   1     0.00  -0.00   0.00    -0.00   0.00   0.00    -0.00   0.00   0.00
   8   7     0.00  -0.00   0.00    -0.00  -0.00   0.00     0.00   0.00  -0.00
   9   6    -0.00   0.00  -0.00    -0.00  -0.00   0.00     0.00   0.00  -0.00
  10   1     0.00  -0.00  -0.00    -0.00   0.00   0.00    -0.00   0.00  -0.00
  11   1     0.00  -0.00   0.00     0.00   0.00  -0.00     0.00  -0.00   0.00
  12   1    -0.00  -0.00  -0.00     0.00   0.00   0.00    -0.00  -0.00  -0.00
  13   6    -0.00   0.00  -0.00    -0.00  -0.00   0.00     0.00  -0.00   0.00
  14   1     0.00  -0.00   0.00     0.00  -0.00  -0.00    -0.00  -0.00  -0.00
  15   1     0.00  -0.00   0.00    -0.00  -0.00   0.00    -0.00  -0.00   0.00
  16   1     0.00   0.00  -0.00     0.00   0.00   0.00    -0.00   0.00   0.00
  17   6     0.00   0.00   0.00    -0.00  -0.00   0.00     0.00   0.00  -0.00
  18   1    -0.00  -0.00  -0.00     0.00   0.00  -0.00    -0.00  -0.00  -0.00
  19   1     0.00  -0.00   0.00    -0.00   0.00  -0.00    -0.00  -0.00   0.00
  20   1     0.00   0.00  -0.00    -0.00   0.00   0.00     0.00   0.00  -0.00
  21   1    -0.00   0.00  -0.00     0.01  -0.01   0.00    -0.00   0.00  -0.00
  22   6     0.00   0.00  -0.00    -0.00  -0.00   0.00    -0.00  -0.00   0.00
  23   8    -0.00   0.00   0.00     0.00   0.00  -0.00     0.00   0.00  -0.00
  24   7    -0.00   0.00  -0.00     0.00   0.00   0.00     0.00  -0.00   0.00
  25   1     0.00   0.00   0.00    -0.01  -0.00  -0.00    -0.00  -0.00  -0.00
  26   1     0.01  -0.01   0.01    -0.00   0.00  -0.00    -0.00   0.00  -0.00
  27   7    -0.00  -0.00   0.00     0.00   0.00  -0.00    -0.00  -0.00   0.00
  28   1    -0.00   0.00  -0.00     0.00  -0.00   0.00    -0.00   0.00  -0.01
  29   1     0.00   0.00  -0.00    -0.00  -0.00   0.00     0.00   0.00  -0.00
  30   6     0.00  -0.00   0.00     0.00   0.00  -0.00     0.01   0.00   0.00
  31   8    -0.00   0.00  -0.00    -0.00   0.00   0.00    -0.00  -0.00  -0.00
  32   7     0.00   0.00  -0.00     0.00   0.00  -0.00     0.10   0.08  -0.17
  33   1    -0.00  -0.00   0.00    -0.00  -0.00   0.00    -0.39  -0.24   0.19
  34   1     0.00  -0.00   0.00    -0.00  -0.00   0.00    -0.01  -0.05   0.44
  35   7    -0.00  -0.00   0.00     0.00  -0.00   0.00     0.11  -0.00   0.19
  36   1    -0.00   0.00  -0.00    -0.00   0.00  -0.00    -0.01   0.15  -0.43
  37   1     0.00   0.00   0.00    -0.00  -0.00  -0.00    -0.41  -0.15  -0.28
  38   6    -0.01  -0.01  -0.00    -0.01   0.01  -0.00    -0.00  -0.00  -0.00
  39   8     0.00   0.00   0.00     0.00  -0.00   0.00     0.00   0.00   0.00
  40   7    -0.02   0.02  -0.00    -0.11   0.28  -0.02     0.00  -0.00   0.00
  41   1     0.07  -0.05  -0.00     0.51  -0.34  -0.03    -0.00   0.00   0.00
  42   1    -0.00  -0.04   0.01    -0.08  -0.72   0.09     0.00   0.00  -0.00
  43   7    -0.04  -0.26   0.00     0.00   0.02  -0.00     0.00  -0.00  -0.00
  44   1     0.09   0.95   0.02    -0.01  -0.09  -0.00     0.00   0.00  -0.00
  45   1     0.09   0.02  -0.02    -0.01  -0.00   0.00    -0.00  -0.00   0.00
  46   6    -0.00  -0.00   0.00     0.00  -0.00  -0.00    -0.00  -0.00   0.00
  47   8     0.00   0.00  -0.00    -0.00  -0.00   0.00     0.00   0.00  -0.00
  48   7    -0.00   0.00  -0.00     0.00  -0.00   0.00     0.00   0.00  -0.00
  49   1     0.00  -0.00  -0.00    -0.00   0.00   0.00     0.00  -0.00  -0.00
  50   1    -0.00  -0.00   0.00     0.00  -0.00  -0.00    -0.00  -0.00   0.00
  51   7     0.00  -0.00  -0.00    -0.00  -0.00   0.00    -0.00  -0.00   0.00
  52   1    -0.00   0.00   0.01     0.00  -0.00  -0.01     0.00  -0.00  -0.00
  53   1    -0.00   0.00  -0.00    -0.00   0.01  -0.00    -0.00   0.00  -0.00
                    151                    152                    153
                        a                      a                      a 
 Frequencies --  3565.3637              3567.4277              3568.2996
 Red. masses --     2.1818                 2.1856                 2.1761
 Frc consts  --     0.0000                 0.0000                 0.0000
 IR Inten    --     9.0798                13.4226                10.9464
 Raman Activ --     0.0000                 0.0000                 0.0000
 Depolar     --     0.0000                 0.0000                 0.0000
 Atom AN      X      Y      Z        X      Y      Z        X      Y      Z
   1   8    -0.00   0.00  -0.00    -0.00   0.00  -0.00     0.00   0.00  -0.00
   2   6     0.00  -0.00   0.00     0.00  -0.00   0.00    -0.00  -0.00  -0.00
   3   1     0.00   0.00  -0.00    -0.00   0.00  -0.00    -0.00   0.00   0.00
   4   1     0.00  -0.00  -0.00     0.00   0.00  -0.00     0.00   0.00  -0.00
   5   6     0.00  -0.00  -0.00    -0.00   0.00  -0.00    -0.00   0.00   0.00
   6   1    -0.00  -0.00   0.00    -0.00  -0.00   0.00     0.00  -0.00  -0.00
   7   1    -0.00   0.00   0.00    -0.00   0.00   0.00     0.00   0.00  -0.00
   8   7    -0.00   0.00  -0.00    -0.00  -0.00   0.00    -0.00  -0.00   0.00
   9   6     0.00  -0.00   0.00     0.00  -0.00   0.00     0.00   0.00  -0.00
  10   1    -0.00   0.00  -0.00    -0.00   0.00   0.00     0.00  -0.00  -0.00
  11   1     0.00   0.00  -0.00    -0.00   0.00  -0.00    -0.00  -0.00   0.00
  12   1     0.00  -0.00   0.00     0.00  -0.00   0.00    -0.00  -0.00  -0.00
  13   6     0.00  -0.00   0.00     0.00  -0.00   0.00    -0.00   0.00  -0.00
  14   1     0.00  -0.00  -0.00    -0.00   0.00  -0.00     0.00   0.00   0.00
  15   1    -0.00   0.00  -0.00    -0.00   0.00   0.00     0.00   0.00  -0.00
  16   1     0.00   0.00   0.00     0.00  -0.00  -0.00     0.00   0.00  -0.00
  17   6    -0.00   0.00   0.00    -0.00  -0.00   0.00     0.00   0.00  -0.00
  18   1     0.00   0.00   0.00     0.00   0.00   0.00    -0.00  -0.00  -0.00
  19   1     0.00   0.00  -0.00     0.00   0.00  -0.00    -0.00  -0.00   0.00
  20   1     0.00  -0.00   0.00     0.00  -0.00  -0.00     0.00   0.00  -0.00
  21   1     0.00  -0.00   0.00     0.00  -0.00   0.00    -0.00  -0.00   0.00
  22   6    -0.00  -0.01   0.01     0.00  -0.00   0.00     0.00  -0.00   0.00
  23   8     0.00   0.00  -0.00    -0.00   0.00  -0.00    -0.00   0.00  -0.00
  24   7     0.01  -0.01   0.01     0.00  -0.00   0.00     0.00  -0.00   0.00
  25   1    -0.00  -0.00  -0.00     0.00  -0.00   0.00    -0.00  -0.00   0.00
  26   1    -0.02   0.03  -0.04    -0.00   0.00  -0.00    -0.00   0.00  -0.00
  27   7    -0.04  -0.14   0.26    -0.00  -0.01   0.01    -0.00  -0.00   0.00
  28   1    -0.27   0.27  -0.54    -0.01   0.01  -0.02    -0.00   0.00  -0.01
  29   1     0.44   0.27  -0.45     0.02   0.01  -0.02     0.00   0.00  -0.00
  30   6    -0.00  -0.00   0.00    -0.00  -0.00   0.00     0.00   0.00  -0.01
  31   8     0.00  -0.00   0.00     0.00   0.00  -0.00    -0.00  -0.00   0.00
  32   7    -0.00  -0.00   0.00    -0.00  -0.00   0.00     0.11   0.08  -0.17
  33   1     0.01   0.00  -0.00     0.01   0.00  -0.00    -0.39  -0.24   0.19
  34   1     0.00   0.00  -0.01     0.00   0.00  -0.01    -0.01  -0.05   0.47
  35   7    -0.00  -0.00  -0.00     0.00  -0.00   0.00    -0.10   0.00  -0.18
  36   1     0.00   0.00  -0.00    -0.00   0.00  -0.00     0.01  -0.15   0.43
  37   1     0.00   0.00   0.00    -0.00  -0.00  -0.00     0.38   0.14   0.26
  38   6     0.00   0.00   0.00     0.00  -0.00  -0.00    -0.00  -0.00   0.00
  39   8    -0.00  -0.00  -0.00    -0.00   0.00  -0.00     0.00   0.00  -0.00
  40   7    -0.00   0.00  -0.00     0.00  -0.00   0.00     0.00  -0.00   0.00
  41   1     0.00  -0.00  -0.00    -0.00   0.00   0.00    -0.00   0.00   0.00
  42   1    -0.00  -0.00   0.00     0.00   0.01  -0.00     0.00   0.00  -0.00
  43   7     0.00   0.00  -0.00    -0.00  -0.00   0.00    -0.00  -0.00   0.00
  44   1    -0.00  -0.00  -0.00     0.00   0.01   0.00     0.00   0.00   0.00
  45   1    -0.00  -0.00   0.00     0.01   0.00  -0.00     0.00   0.00  -0.00
  46   6    -0.00   0.00  -0.00     0.00  -0.01   0.01     0.00  -0.00   0.00
  47   8     0.00  -0.00   0.00    -0.00   0.00  -0.00    -0.00   0.00  -0.00
  48   7    -0.00   0.00   0.00    -0.01   0.00   0.01    -0.00   0.00   0.00
  49   1     0.00  -0.00  -0.00     0.00  -0.01  -0.00     0.00  -0.00  -0.00
  50   1     0.00   0.00  -0.00     0.03   0.01  -0.05     0.00   0.00  -0.00
  51   7     0.00   0.01  -0.01    -0.01  -0.14   0.27    -0.00  -0.00   0.00
  52   1    -0.01   0.00   0.03     0.18  -0.03  -0.62     0.00  -0.00  -0.01
  53   1     0.01  -0.02   0.02    -0.14   0.56  -0.39    -0.00   0.01  -0.00
