 Entering Gaussian System
 *********************************************
 Gaussian 98:
 frequency output generated by the xtb code
 *********************************************
                         Standard orientation:
 --------------------------------------------------------------------
  Center     Atomic     Atomic              Coordinates (Angstroms)
  Number     Number      Type              X           Y           Z
 --------------------------------------------------------------------
    1          8             0       -0.600528   -1.847793   -1.358880
    2          6             0        0.328989   -1.316594   -2.260587
    3          1             0        1.334525   -1.709258   -2.047784
    4          1             0        0.042041   -1.676210   -3.252148
    5          6             0        0.453438    0.207583   -2.212524
    6          1             0        1.268597    0.519176   -2.869893
    7          1             0        0.696936    0.508782   -1.190846
    8          7             0       -0.744210    0.990942   -2.628042
    9          6             0       -1.043816    0.751950   -4.047706
   10          1             0       -0.155509    0.977709   -4.636446
   11          1             0       -1.859429    1.397824   -4.367544
   12          1             0       -1.335524   -0.283082   -4.207310
   13          6             0       -0.417459    2.418285   -2.459250
   14          1             0        0.401669    2.667765   -3.133273
   15          1             0       -0.089468    2.606453   -1.439233
   16          1             0       -1.285340    3.031354   -2.690610
   17          6             0       -1.908567    0.659272   -1.793939
   18          1             0       -1.653699    0.801354   -0.744604
   19          1             0       -2.190468   -0.381698   -1.939299
   20          1             0       -2.747671    1.302118   -2.053713
   21          1             0       -0.451925   -1.413634   -0.484677
   22          6             0        2.143148    2.111156    0.906164
   23          8             0        1.730644    2.239603   -0.242721
   24          7             0        3.240419    2.787757    1.345729
   25          1             0        3.585908    3.537304    0.772171
   26          1             0        3.471757    2.817296    2.322726
   27          7             0        1.545698    1.299298    1.799993
   28          1             0        1.998593    1.091474    2.672156
   29          1             0        0.827730    0.650207    1.470122
   30          6             0        3.135778    2.387511   -3.833395
   31          8             0        2.053738    1.920860   -4.173099
   32          7             0        3.396672    2.771947   -2.564606
   33          1             0        2.733923    2.571779   -1.820372
   34          1             0        4.327533    3.040706   -2.301963
   35          7             0        4.149986    2.542901   -4.722686
   36          1             0        4.983431    3.053501   -4.494785
   37          1             0        3.949066    2.380964   -5.693596
   38          6             0       -3.288273   -3.681445    4.985157
   39          8             0       -2.746126   -2.910072    4.203745
   40          7             0       -3.882727   -3.252921    6.123683
   41          1             0       -3.978643   -2.263674    6.268926
   42          1             0       -4.423900   -3.867984    6.703420
   43          7             0       -3.330735   -5.017467    4.766766
   44          1             0       -3.679086   -5.656394    5.457881
   45          1             0       -2.805499   -5.396231    3.998963
   46          6             0       -1.036163   -1.180831    1.880152
   47          8             0       -0.437031   -0.534327    1.002463
   48          7             0       -1.139255   -0.741853    3.147585
   49          1             0       -0.825931    0.180682    3.387787
   50          1             0       -1.688409   -1.279768    3.801977
   51          7             0       -1.605985   -2.368044    1.634924
   52          1             0       -2.097772   -2.833137    2.386355
   53          1             0       -1.555224   -2.774647    0.717308
 --------------------------------------------------------------------
     1 basis functions        1 primitive gaussians
     1 alpha electrons        1 beta electrons

 Harmonic frequencies (cm**-1), IR intensities (km*mol⁻¹),
 Raman scattering activities (A**4/amu), Raman depolarization ratios,
 reduced masses (AMU), force constants (mDyne/A) and normal coordinates:
                      1                      2                      3
                        a                      a                      a 
 Frequencies --     8.0669                 9.1699                14.8055
 Red. masses --    11.0627                12.3015                12.1488
 Frc consts  --     0.0000                 0.0000                 0.0000
 IR Inten    --     0.0265                 0.8558                 1.8875
 Raman Activ --     0.0000                 0.0000                 0.0000
 Depolar     --     0.0000                 0.0000                 0.0000
 Atom AN      X      Y      Z        X      Y      Z        X      Y      Z
   1   8     0.01  -0.01  -0.01     0.24  -0.15  -0.00     0.06   0.03   0.20
   2   6     0.02  -0.01   0.01     0.15  -0.05  -0.02     0.01  -0.01   0.12
   3   1     0.01   0.00   0.01     0.05   0.00  -0.02     0.01   0.00   0.03
   4   1     0.01  -0.01   0.00     0.04  -0.01  -0.01    -0.01  -0.01   0.04
   5   6     0.01  -0.01  -0.00     0.06  -0.05   0.02     0.01  -0.01   0.06
   6   1     0.01  -0.00   0.00     0.01   0.01   0.00    -0.00  -0.01   0.00
   7   1    -0.00   0.00  -0.00     0.02  -0.02   0.01     0.02   0.01   0.01
   8   7     0.01  -0.02  -0.04     0.01  -0.11   0.08    -0.01  -0.03   0.08
   9   6     0.04  -0.04  -0.04    -0.01  -0.07   0.07    -0.07  -0.08   0.10
  10   1     0.01  -0.01  -0.01    -0.01   0.00   0.02    -0.03  -0.03   0.02
  11   1     0.01  -0.01  -0.02    -0.02  -0.03   0.03    -0.02  -0.03   0.03
  12   1     0.01  -0.01  -0.01     0.02  -0.02   0.01    -0.02  -0.02   0.04
  13   6     0.00  -0.02  -0.04    -0.08  -0.09   0.11    -0.00  -0.02   0.01
  14   1     0.00  -0.01  -0.01    -0.03  -0.00   0.03    -0.01  -0.01  -0.01
  15   1    -0.01  -0.00  -0.01    -0.02  -0.03   0.03     0.01   0.01  -0.00
  16   1     0.00  -0.01  -0.02    -0.03  -0.04   0.05    -0.00  -0.01   0.01
  17   6    -0.00  -0.02  -0.05     0.04  -0.20   0.08     0.03   0.01   0.14
  18   1    -0.01  -0.00  -0.01     0.02  -0.07   0.02     0.02   0.01   0.04
  19   1     0.00  -0.01  -0.01     0.03  -0.06   0.01     0.01   0.00   0.06
  20   1    -0.00  -0.01  -0.02    -0.00  -0.07   0.04     0.01  -0.00   0.04
  21   1    -0.00   0.00  -0.00     0.06  -0.04   0.00     0.02   0.02   0.04
  22   6    -0.06   0.03   0.01     0.10  -0.07  -0.00     0.06   0.12  -0.03
  23   8    -0.05   0.03   0.00     0.04  -0.03   0.03     0.06   0.05  -0.04
  24   7    -0.08   0.05   0.02     0.11  -0.06  -0.03     0.05   0.17  -0.08
  25   1    -0.02   0.01   0.01     0.01  -0.01  -0.00     0.01   0.04  -0.04
  26   1    -0.02   0.02   0.01     0.04  -0.03  -0.01     0.02   0.06  -0.02
  27   7    -0.06   0.03   0.00     0.18  -0.13  -0.01     0.08   0.17   0.02
  28   1    -0.02   0.01   0.00     0.06  -0.04  -0.01     0.02   0.07   0.01
  29   1    -0.01   0.01  -0.00     0.05  -0.04  -0.00     0.02   0.04   0.02
  30   6     0.03  -0.01   0.03    -0.13   0.18  -0.03    -0.04  -0.09  -0.10
  31   8     0.05  -0.02   0.01    -0.13   0.13   0.01    -0.07  -0.09  -0.06
  32   7    -0.00   0.01   0.03    -0.11   0.17  -0.03    -0.00  -0.06  -0.12
  33   1    -0.00   0.00   0.01    -0.02   0.03  -0.00     0.00  -0.01  -0.03
  34   1    -0.00   0.01   0.01    -0.03   0.06  -0.02     0.00  -0.02  -0.04
  35   7     0.05  -0.01   0.05    -0.20   0.30  -0.07    -0.07  -0.14  -0.14
  36   1     0.01  -0.00   0.02    -0.06   0.09  -0.03    -0.01  -0.04  -0.05
  37   1     0.02  -0.01   0.01    -0.06   0.08  -0.02    -0.03  -0.04  -0.03
  38   6     0.04  -0.01   0.02    -0.15   0.13  -0.03    -0.10  -0.09  -0.15
  39   8     0.03  -0.02  -0.00    -0.07   0.06  -0.04    -0.02   0.05   0.03
  40   7     0.57  -0.05   0.32    -0.12   0.23  -0.04    -0.18  -0.31  -0.13
  41   1     0.26  -0.01   0.15     0.00   0.06  -0.01    -0.04  -0.09   0.02
  42   1     0.15   0.00   0.10    -0.05   0.08  -0.01    -0.06  -0.11  -0.08
  43   7    -0.48   0.05  -0.24    -0.32   0.14  -0.01    -0.13  -0.05  -0.45
  44   1    -0.12   0.01  -0.07    -0.11   0.05  -0.00    -0.05  -0.05  -0.16
  45   1    -0.24   0.01  -0.14    -0.10   0.02  -0.00    -0.02   0.02  -0.13
  46   6    -0.03   0.01  -0.02     0.10  -0.07  -0.01     0.08   0.09   0.13
  47   8    -0.03   0.01  -0.02     0.19  -0.14  -0.00     0.10   0.10   0.15
  48   7    -0.02  -0.00  -0.01     0.08  -0.05  -0.03     0.07   0.10   0.14
  49   1    -0.00  -0.00  -0.00     0.04  -0.02  -0.01     0.02   0.03   0.04
  50   1    -0.00  -0.00  -0.00     0.01  -0.00  -0.01     0.02   0.03   0.03
  51   7    -0.05   0.02  -0.03     0.04  -0.05  -0.02     0.09   0.10   0.14
  52   1    -0.01   0.00  -0.01    -0.00  -0.00  -0.01     0.02   0.03   0.04
  53   1    -0.01   0.00  -0.01     0.02  -0.02  -0.00     0.02   0.03   0.04
                      4                      5                      6
                        a                      a                      a 
 Frequencies --    21.1192                30.7390                32.0432
 Red. masses --    12.1987                12.0592                12.6826
 Frc consts  --     0.0000                 0.0000                 0.0000
 IR Inten    --     3.1348                 1.4109                 1.6491
 Raman Activ --     0.0000                 0.0000                 0.0000
 Depolar     --     0.0000                 0.0000                 0.0000
 Atom AN      X      Y      Z        X      Y      Z        X      Y      Z
   1   8    -0.08   0.08  -0.05    -0.16   0.04   0.01     0.04  -0.07  -0.10
   2   6    -0.07   0.06  -0.05    -0.08  -0.00   0.05    -0.01  -0.01  -0.11
   3   1    -0.02   0.01  -0.02    -0.03   0.00   0.04     0.00  -0.00  -0.05
   4   1    -0.02   0.02  -0.01    -0.00  -0.01   0.01    -0.02   0.01  -0.03
   5   6    -0.04   0.05  -0.04    -0.07  -0.00   0.00    -0.02  -0.01  -0.04
   6   1    -0.01   0.01  -0.02    -0.01  -0.01   0.02    -0.02   0.01  -0.02
   7   1    -0.00   0.01  -0.01    -0.05   0.01   0.00     0.00  -0.02  -0.01
   8   7    -0.04   0.08  -0.01    -0.05  -0.02  -0.13    -0.05  -0.01   0.05
   9   6    -0.10   0.06   0.01     0.05  -0.09  -0.12    -0.14   0.02   0.06
  10   1    -0.03   0.00  -0.01     0.03  -0.04  -0.02    -0.05   0.01   0.00
  11   1    -0.03   0.02   0.01     0.02  -0.03  -0.06    -0.04   0.01   0.03
  12   1    -0.04   0.02   0.01     0.01  -0.03  -0.03    -0.05   0.01   0.02
  13   6     0.01   0.07  -0.05    -0.05  -0.01  -0.17    -0.04  -0.01   0.05
  14   1    -0.00   0.01  -0.03    -0.00  -0.01  -0.04    -0.02   0.00   0.00
  15   1     0.02   0.02  -0.02    -0.04   0.01  -0.05     0.00  -0.01   0.01
  16   1     0.00   0.03  -0.01    -0.01  -0.01  -0.08    -0.02  -0.00   0.03
  17   6    -0.01   0.12   0.05    -0.10   0.03  -0.17     0.00  -0.03   0.11
  18   1     0.01   0.04   0.01    -0.05   0.03  -0.05     0.02  -0.01   0.03
  19   1    -0.01   0.04   0.03    -0.02   0.00  -0.03     0.00  -0.01   0.03
  20   1    -0.00   0.04   0.02    -0.03  -0.00  -0.08    -0.01  -0.01   0.05
  21   1    -0.01   0.01  -0.01    -0.04   0.00   0.01     0.03  -0.04  -0.02
  22   6    -0.09   0.11   0.00     0.01  -0.04  -0.10    -0.05   0.05   0.04
  23   8    -0.08   0.06  -0.01    -0.23   0.13  -0.01    -0.12   0.01   0.06
  24   7    -0.17   0.23   0.01     0.09  -0.09  -0.23    -0.16   0.25   0.02
  25   1    -0.06   0.07  -0.00    -0.02   0.01  -0.05    -0.09   0.09   0.01
  26   1    -0.05   0.08   0.00     0.07  -0.06  -0.07    -0.04   0.07   0.00
  27   7    -0.04   0.08   0.01     0.21  -0.20  -0.12     0.13  -0.08   0.03
  28   1    -0.01   0.04   0.01     0.10  -0.08  -0.06     0.05  -0.01   0.00
  29   1     0.01   0.00   0.00     0.04  -0.04  -0.02     0.06  -0.05   0.01
  30   6     0.03  -0.07   0.00     0.03   0.06   0.13    -0.00  -0.07   0.08
  31   8     0.01  -0.00  -0.04     0.12  -0.09   0.09    -0.04   0.05   0.04
  32   7     0.01  -0.08   0.01    -0.14   0.24   0.13    -0.02  -0.11   0.10
  33   1    -0.01  -0.01  -0.00    -0.05   0.06   0.02    -0.02  -0.01   0.02
  34   1     0.01  -0.04   0.01    -0.05   0.09   0.05     0.00  -0.06   0.04
  35   7     0.08  -0.17   0.04     0.12   0.05   0.24     0.06  -0.20   0.14
  36   1     0.03  -0.06   0.02     0.01   0.05   0.07     0.03  -0.07   0.05
  37   1     0.03  -0.04   0.01     0.06  -0.02   0.06     0.02  -0.04   0.04
  38   6    -0.05  -0.01   0.01    -0.00   0.01   0.03     0.00   0.11  -0.06
  39   8     0.22  -0.21   0.00     0.12   0.08   0.19    -0.29   0.27  -0.14
  40   7    -0.13   0.23  -0.12    -0.13  -0.09   0.00     0.11  -0.03   0.05
  41   1     0.02   0.07  -0.06    -0.03  -0.03   0.03    -0.02  -0.01   0.02
  42   1    -0.08   0.10  -0.03    -0.06  -0.04  -0.03     0.08  -0.04   0.03
  43   7    -0.30  -0.02   0.13    -0.02   0.03  -0.11     0.24   0.12  -0.10
  44   1    -0.14   0.03   0.04    -0.03  -0.01  -0.06     0.12   0.01  -0.02
  45   1    -0.07  -0.05   0.07     0.02   0.03  -0.02     0.05   0.07  -0.05
  46   6     0.19  -0.16   0.02     0.06  -0.00   0.07     0.09  -0.06  -0.07
  47   8     0.14  -0.11   0.02     0.02  -0.04   0.02     0.30  -0.21  -0.05
  48   7     0.25  -0.23   0.05     0.27  -0.02   0.10     0.17  -0.06  -0.07
  49   1     0.05  -0.06   0.02     0.10  -0.01   0.02     0.11  -0.04  -0.01
  50   1     0.08  -0.07   0.01     0.08   0.01   0.04     0.01   0.02  -0.02
  51   7     0.27  -0.20  -0.00    -0.07   0.05   0.12    -0.20   0.09  -0.11
  52   1     0.08  -0.06  -0.00    -0.01   0.02   0.05    -0.09   0.05  -0.03
  53   1     0.06  -0.04  -0.01    -0.05   0.02   0.03    -0.07   0.02  -0.03
                      7                      8                      9
                        a                      a                      a 
 Frequencies --    38.2320                43.2730                45.5699
 Red. masses --    12.3327                12.4798                12.3485
 Frc consts  --     0.0000                 0.0000                 0.0000
 IR Inten    --     2.1774                 3.9751                 0.2913
 Raman Activ --     0.0000                 0.0000                 0.0000
 Depolar     --     0.0000                 0.0000                 0.0000
 Atom AN      X      Y      Z        X      Y      Z        X      Y      Z
   1   8    -0.05  -0.12  -0.13     0.24   0.02   0.08    -0.04   0.06   0.00
   2   6    -0.06  -0.04  -0.10     0.14   0.10   0.05    -0.03   0.03   0.01
   3   1    -0.02  -0.02  -0.04     0.05   0.06   0.01    -0.01   0.01   0.01
   4   1    -0.02   0.00  -0.03     0.05   0.02   0.02    -0.01   0.01   0.00
   5   6    -0.07  -0.05  -0.00    -0.01   0.11   0.04    -0.02   0.04  -0.01
   6   1    -0.01   0.00   0.01    -0.01   0.05   0.01    -0.01   0.01  -0.01
   7   1    -0.03  -0.03   0.01    -0.01   0.04   0.01     0.00   0.01  -0.01
   8   7    -0.06  -0.03   0.00    -0.08  -0.01   0.03    -0.03   0.04   0.01
   9   6     0.03   0.10  -0.04    -0.03  -0.02   0.03    -0.13  -0.05   0.05
  10   1     0.02   0.06   0.01    -0.01   0.02   0.01    -0.04  -0.04  -0.01
  11   1     0.01   0.03  -0.01    -0.03  -0.03   0.01    -0.03  -0.01   0.02
  12   1     0.02   0.03  -0.05     0.02  -0.02   0.00    -0.05  -0.01   0.04
  13   6    -0.09  -0.04   0.16    -0.21   0.02   0.05     0.02   0.04  -0.10
  14   1    -0.02   0.01   0.06    -0.06   0.03   0.02    -0.00  -0.01  -0.05
  15   1    -0.04  -0.04   0.06    -0.07   0.01   0.02     0.02   0.03  -0.04
  16   1    -0.03  -0.01   0.05    -0.07  -0.02   0.01     0.01   0.01  -0.03
  17   6    -0.10  -0.13  -0.10    -0.06  -0.12   0.01     0.02   0.12   0.11
  18   1    -0.05  -0.07  -0.02    -0.02  -0.03   0.00     0.03   0.05   0.02
  19   1    -0.02  -0.04  -0.06     0.01  -0.04  -0.00    -0.00   0.03   0.06
  20   1    -0.03  -0.04  -0.02    -0.03  -0.06   0.00     0.01   0.03   0.03
  21   1    -0.02  -0.03  -0.03     0.04   0.02   0.01    -0.00   0.01   0.00
  22   6    -0.04  -0.05   0.06     0.05   0.04  -0.06     0.02  -0.02  -0.05
  23   8     0.02  -0.05   0.05    -0.14   0.19   0.02    -0.08   0.05  -0.01
  24   7    -0.04  -0.10   0.12     0.18  -0.08  -0.19     0.08  -0.08  -0.12
  25   1     0.01  -0.03   0.04     0.02  -0.00  -0.04     0.01  -0.01  -0.03
  26   1    -0.03  -0.03   0.04     0.09  -0.05  -0.06     0.04  -0.04  -0.04
  27   7    -0.14  -0.02   0.04     0.17  -0.03  -0.06     0.08  -0.07  -0.05
  28   1    -0.05  -0.02   0.01     0.07  -0.03  -0.04     0.04  -0.03  -0.02
  29   1    -0.03  -0.00  -0.01     0.02   0.02   0.00     0.01  -0.01  -0.00
  30   6    -0.03  -0.03   0.10    -0.04  -0.07   0.10     0.02   0.01   0.02
  31   8    -0.10   0.10   0.12    -0.15   0.18   0.07     0.08  -0.07  -0.01
  32   7     0.04  -0.12   0.11    -0.02  -0.08   0.10    -0.08   0.13   0.01
  33   1     0.01  -0.02   0.03    -0.03   0.03   0.02    -0.02   0.03  -0.00
  34   1     0.02  -0.06   0.03     0.01  -0.08   0.04    -0.03   0.05   0.01
  35   7    -0.04  -0.11   0.08     0.06  -0.39   0.16     0.08  -0.01   0.08
  36   1     0.00  -0.05   0.02     0.04  -0.14   0.05     0.01   0.02   0.02
  37   1    -0.03  -0.01   0.02     0.01  -0.09   0.04     0.04  -0.02   0.02
  38   6     0.09   0.12  -0.05     0.04  -0.05  -0.05    -0.08   0.03  -0.03
  39   8     0.27   0.22   0.13     0.12  -0.19  -0.13    -0.37   0.09  -0.17
  40   7    -0.04   0.01  -0.09     0.06   0.10  -0.11     0.09  -0.02   0.09
  41   1     0.01   0.00   0.02     0.03   0.03  -0.06    -0.01  -0.01   0.02
  42   1    -0.03  -0.01  -0.06     0.00   0.05  -0.02     0.07  -0.02   0.05
  43   7     0.04   0.17  -0.25    -0.04  -0.08   0.07     0.06   0.02   0.02
  44   1    -0.02   0.03  -0.10    -0.03   0.00   0.04     0.06  -0.00   0.02
  45   1     0.04   0.06  -0.06    -0.02  -0.05   0.03    -0.02   0.02  -0.03
  46   6     0.08   0.04  -0.05    -0.06   0.09  -0.05     0.05  -0.08   0.03
  47   8    -0.06   0.02  -0.19    -0.04   0.17   0.01     0.05  -0.06   0.04
  48   7     0.04   0.24  -0.13    -0.19   0.06  -0.05    -0.30   0.10  -0.06
  49   1    -0.04   0.10  -0.08    -0.05   0.01   0.01    -0.16   0.06  -0.04
  50   1     0.03   0.07  -0.01    -0.04  -0.01  -0.02    -0.10   0.03  -0.03
  51   7     0.34  -0.12   0.16    -0.02   0.09  -0.13     0.49  -0.31   0.14
  52   1     0.10  -0.01   0.06     0.01  -0.00  -0.04     0.08  -0.06   0.02
  53   1     0.09  -0.06   0.05     0.03   0.02  -0.03     0.15  -0.09   0.04
                     10                     11                     12
                        a                      a                      a 
 Frequencies --    52.3420                57.7478                61.5945
 Red. masses --    11.7328                11.7629                12.8096
 Frc consts  --     0.0000                 0.0000                 0.0000
 IR Inten    --     2.5157                 0.3936                 1.0402
 Raman Activ --     0.0000                 0.0000                 0.0000
 Depolar     --     0.0000                 0.0000                 0.0000
 Atom AN      X      Y      Z        X      Y      Z        X      Y      Z
   1   8    -0.03  -0.09  -0.08     0.11   0.03   0.04    -0.15  -0.03   0.19
   2   6    -0.01  -0.07  -0.05     0.01  -0.01  -0.07    -0.19  -0.13   0.04
   3   1    -0.00  -0.03  -0.02     0.01   0.00  -0.04    -0.06  -0.06  -0.02
   4   1    -0.00  -0.01  -0.02    -0.02  -0.02  -0.01    -0.10  -0.04   0.02
   5   6     0.02  -0.07  -0.00     0.02  -0.01  -0.18    -0.09  -0.14  -0.01
   6   1    -0.01  -0.02  -0.02    -0.02  -0.01  -0.09    -0.03  -0.05  -0.01
   7   1     0.03  -0.03  -0.00     0.04   0.02  -0.07    -0.02  -0.04  -0.01
   8   7    -0.01  -0.04   0.14    -0.04  -0.03  -0.06    -0.07  -0.09   0.00
   9   6    -0.25  -0.13   0.20    -0.25  -0.11   0.00    -0.05  -0.02  -0.01
  10   1    -0.09  -0.08   0.01    -0.10  -0.04  -0.04    -0.01  -0.00   0.00
  11   1    -0.07  -0.02   0.08    -0.09  -0.04   0.03    -0.01   0.00  -0.00
  12   1    -0.11  -0.03   0.10    -0.07  -0.04   0.03    -0.02  -0.00  -0.02
  13   6     0.10  -0.04  -0.03    -0.01  -0.02  -0.18    -0.01  -0.10   0.06
  14   1     0.01  -0.04  -0.05    -0.01  -0.02  -0.07     0.01  -0.03   0.03
  15   1     0.07   0.00  -0.02     0.02   0.01  -0.06    -0.01  -0.04   0.02
  16   1     0.03  -0.00   0.01    -0.00  -0.01  -0.05     0.01  -0.02   0.01
  17   6     0.11   0.09   0.34     0.08   0.03   0.13    -0.09  -0.06  -0.03
  18   1     0.09   0.03   0.08     0.07   0.02   0.03    -0.03  -0.03  -0.01
  19   1    -0.00   0.03   0.12     0.01   0.01   0.06    -0.04  -0.01  -0.02
  20   1     0.03   0.04   0.13     0.02   0.02   0.07    -0.02  -0.01  -0.01
  21   1    -0.01  -0.02  -0.02     0.04   0.02   0.00    -0.01   0.02   0.03
  22   6    -0.02  -0.01   0.03    -0.06  -0.09  -0.04     0.03   0.01  -0.00
  23   8    -0.01   0.07   0.05    -0.14  -0.25  -0.04     0.06  -0.17  -0.03
  24   7    -0.03  -0.04   0.10    -0.03  -0.06  -0.20     0.14  -0.08  -0.13
  25   1    -0.00  -0.00   0.04    -0.02  -0.03  -0.08     0.07  -0.06  -0.07
  26   1    -0.01  -0.03   0.03     0.01   0.02  -0.06     0.03   0.02  -0.04
  27   7    -0.04  -0.07  -0.02    -0.04   0.02   0.08    -0.12   0.29   0.15
  28   1    -0.01  -0.04  -0.01     0.00   0.03   0.02    -0.04   0.09   0.05
  29   1    -0.01  -0.01  -0.02    -0.01  -0.00   0.04    -0.03   0.07   0.05
  30   6     0.03  -0.02   0.02     0.08   0.06   0.06     0.00   0.00   0.12
  31   8     0.14  -0.27   0.02     0.06   0.24  -0.09     0.06  -0.14   0.17
  32   7    -0.13   0.28  -0.03     0.13  -0.40   0.19    -0.03   0.09   0.11
  33   1    -0.03   0.05  -0.01     0.01  -0.11   0.03     0.00  -0.01   0.03
  34   1    -0.05   0.11  -0.00     0.03  -0.12   0.07    -0.01   0.04   0.02
  35   7     0.08  -0.02   0.07     0.08   0.33   0.10    -0.02   0.09   0.11
  36   1    -0.01   0.05   0.01     0.03   0.05   0.07    -0.02   0.05   0.02
  37   1     0.05  -0.06   0.02     0.02   0.17   0.01    -0.00   0.01   0.03
  38   6     0.11   0.02  -0.05     0.02  -0.00   0.03     0.03   0.04  -0.17
  39   8     0.33  -0.04   0.03     0.12  -0.00   0.10    -0.09  -0.03  -0.36
  40   7     0.01   0.08  -0.14    -0.04  -0.02   0.00     0.16   0.17  -0.16
  41   1     0.03   0.02  -0.03     0.00  -0.00   0.01     0.03   0.05  -0.08
  42   1    -0.03   0.04  -0.05    -0.02  -0.00  -0.01     0.06   0.06  -0.01
  43   7    -0.01   0.03  -0.07    -0.02   0.00  -0.02     0.07   0.02  -0.01
  44   1    -0.04   0.02  -0.03    -0.02  -0.00  -0.01     0.04   0.02   0.02
  45   1     0.02  -0.01   0.00     0.01   0.00   0.00    -0.01  -0.01  -0.01
  46   6    -0.07   0.07  -0.12    -0.01   0.06   0.04     0.08   0.06  -0.01
  47   8    -0.06   0.04  -0.15     0.04   0.05   0.06     0.02   0.21   0.04
  48   7    -0.10   0.13  -0.15    -0.08   0.09   0.03     0.19  -0.11   0.07
  49   1     0.00   0.02  -0.04    -0.01   0.02   0.01     0.02  -0.02   0.04
  50   1     0.00   0.03  -0.03    -0.01   0.02   0.01     0.03  -0.04  -0.01
  51   7    -0.12   0.09  -0.10    -0.02   0.07   0.03     0.10   0.09  -0.13
  52   1    -0.00   0.01  -0.01     0.00   0.01   0.01     0.02   0.01  -0.05
  53   1    -0.01   0.00  -0.02     0.01   0.01   0.01     0.01   0.06  -0.05
                     13                     14                     15
                        a                      a                      a 
 Frequencies --    67.0494                69.1312                78.2864
 Red. masses --    12.1805                12.8315                13.0553
 Frc consts  --     0.0000                 0.0000                 0.0000
 IR Inten    --     3.7474                 0.8978                 0.2846
 Raman Activ --     0.0000                 0.0000                 0.0000
 Depolar     --     0.0000                 0.0000                 0.0000
 Atom AN      X      Y      Z        X      Y      Z        X      Y      Z
   1   8    -0.18  -0.03   0.09    -0.08   0.06   0.03     0.10   0.10   0.09
   2   6    -0.21  -0.11  -0.02     0.04   0.05   0.14     0.01   0.02  -0.04
   3   1    -0.06  -0.06  -0.04     0.01   0.02   0.08     0.01  -0.00  -0.04
   4   1    -0.10  -0.02   0.00     0.06   0.01   0.03    -0.03  -0.00   0.00
   5   6    -0.07  -0.12  -0.02     0.00   0.05   0.14     0.07   0.01  -0.13
   6   1    -0.01  -0.05  -0.00     0.02   0.02   0.06     0.01  -0.02  -0.06
   7   1    -0.01  -0.04  -0.00    -0.03   0.02   0.05     0.04   0.02  -0.05
   8   7    -0.01  -0.02  -0.01     0.03   0.02   0.00     0.09   0.05  -0.11
   9   6     0.05   0.11  -0.05     0.11  -0.11   0.01     0.08   0.11  -0.11
  10   1     0.03   0.04   0.00     0.05  -0.06   0.01     0.02   0.04  -0.03
  11   1     0.03   0.05  -0.01     0.05  -0.03  -0.03     0.02   0.03  -0.02
  12   1     0.01   0.04  -0.05     0.02  -0.03   0.03     0.03   0.03  -0.05
  13   6     0.05  -0.05   0.12     0.01   0.03  -0.10     0.09   0.04  -0.05
  14   1     0.03  -0.01   0.05    -0.00  -0.00  -0.04     0.02   0.02  -0.02
  15   1     0.00  -0.04   0.04     0.01   0.03  -0.03     0.03  -0.00  -0.01
  16   1     0.03   0.00   0.03     0.00   0.00  -0.04     0.02   0.01   0.00
  17   6    -0.07  -0.03  -0.10    -0.02   0.09  -0.04     0.09   0.03  -0.11
  18   1    -0.03  -0.03  -0.02    -0.03   0.06  -0.01     0.03   0.00  -0.03
  19   1    -0.03  -0.00  -0.05     0.00   0.02   0.02     0.02   0.01  -0.04
  20   1    -0.01   0.00  -0.03    -0.01   0.01  -0.05     0.02   0.01  -0.03
  21   1    -0.01  -0.00   0.01    -0.04   0.02   0.01     0.05   0.04   0.01
  22   6     0.12   0.03  -0.03    -0.01   0.03   0.12    -0.03  -0.14   0.17
  23   8     0.10  -0.14  -0.05    -0.16   0.23   0.21    -0.08  -0.32   0.20
  24   7    -0.09   0.40  -0.05    -0.01   0.02   0.14    -0.05  -0.05   0.08
  25   1    -0.08   0.12  -0.02    -0.04   0.04   0.07    -0.03  -0.03  -0.00
  26   1    -0.02   0.13  -0.01     0.02  -0.04   0.03    -0.01   0.02   0.02
  27   7     0.38  -0.14  -0.04     0.16  -0.20   0.03     0.03  -0.08   0.29
  28   1     0.10   0.01   0.00     0.06  -0.09  -0.01     0.02   0.00   0.08
  29   1     0.11  -0.05   0.01     0.03  -0.03   0.00     0.01  -0.03   0.09
  30   6     0.02   0.01   0.05    -0.09  -0.14  -0.02    -0.16  -0.03  -0.09
  31   8     0.04  -0.05   0.10    -0.03  -0.30  -0.05    -0.12  -0.04  -0.32
  32   7     0.06   0.00   0.05    -0.05  -0.45   0.05    -0.44   0.11  -0.08
  33   1     0.03  -0.02   0.02    -0.02  -0.10   0.01    -0.12  -0.01  -0.03
  34   1     0.02   0.00   0.01    -0.04  -0.03   0.01    -0.12  -0.01   0.02
  35   7    -0.03   0.10   0.01    -0.21   0.28  -0.07     0.03  -0.15   0.12
  36   1    -0.01   0.04  -0.01    -0.05   0.06   0.00    -0.01  -0.03   0.07
  37   1    -0.02   0.03   0.00    -0.05   0.08  -0.02     0.06  -0.05   0.02
  38   6     0.02  -0.07   0.01     0.05   0.05  -0.11     0.03   0.01  -0.02
  39   8     0.12  -0.15   0.01     0.04   0.01  -0.18     0.07  -0.00  -0.02
  40   7     0.00   0.01  -0.03     0.09   0.11  -0.12     0.02   0.03  -0.04
  41   1     0.02   0.01  -0.02     0.03   0.03  -0.05     0.01   0.01  -0.01
  42   1    -0.02   0.02  -0.01     0.03   0.04  -0.02    -0.00   0.01  -0.01
  43   7    -0.06  -0.08   0.06     0.05   0.04  -0.05     0.01   0.01  -0.02
  44   1    -0.03  -0.01   0.02     0.01   0.02  -0.01    -0.00   0.01  -0.01
  45   1    -0.01  -0.04   0.03     0.00   0.00  -0.02     0.00  -0.00  -0.00
  46   6    -0.03   0.06  -0.01     0.01   0.03  -0.04     0.03   0.06   0.05
  47   8     0.17  -0.03   0.05    -0.04   0.08  -0.04     0.12   0.06   0.11
  48   7    -0.36   0.21  -0.10     0.03  -0.00  -0.03    -0.06   0.07   0.05
  49   1    -0.05   0.04  -0.01    -0.01   0.01  -0.01    -0.01   0.01   0.02
  50   1    -0.08   0.04  -0.02     0.01  -0.01  -0.01    -0.02   0.01   0.01
  51   7    -0.01   0.05  -0.02     0.07   0.01  -0.06     0.04   0.08   0.00
  52   1    -0.01   0.01  -0.01     0.02  -0.00  -0.02     0.00   0.01  -0.01
  53   1     0.05  -0.01   0.01     0.01   0.01  -0.02     0.03   0.02   0.00
                     16                     17                     18
                        a                      a                      a 
 Frequencies --    86.6363                98.9480               107.4179
 Red. masses --    13.7440                11.5787                12.4377
 Frc consts  --     0.0000                 0.0000                 0.0000
 IR Inten    --     4.3250                 5.3915                 8.2485
 Raman Activ --     0.0000                 0.0000                 0.0000
 Depolar     --     0.0000                 0.0000                 0.0000
 Atom AN      X      Y      Z        X      Y      Z        X      Y      Z
   1   8     0.01   0.02   0.10    -0.13   0.10   0.04    -0.03  -0.06  -0.03
   2   6     0.01  -0.04   0.05     0.01   0.07   0.16    -0.13  -0.13  -0.18
   3   1     0.00  -0.01   0.02     0.00   0.05   0.11    -0.03  -0.05  -0.10
   4   1     0.00  -0.03   0.02     0.06  -0.01   0.04    -0.09  -0.04  -0.04
   5   6     0.02  -0.04  -0.05    -0.11   0.09   0.07    -0.03  -0.13  -0.24
   6   1    -0.01  -0.02  -0.04    -0.02   0.03   0.03    -0.02  -0.05  -0.09
   7   1     0.03   0.01  -0.03    -0.06   0.05   0.02     0.02  -0.03  -0.08
   8   7    -0.01  -0.06  -0.00    -0.14  -0.04  -0.10    -0.05  -0.10  -0.14
   9   6    -0.08  -0.07   0.02    -0.10  -0.31  -0.06    -0.17  -0.03  -0.11
  10   1    -0.04  -0.00  -0.01    -0.03  -0.12  -0.02    -0.07  -0.00  -0.05
  11   1    -0.04  -0.04   0.02    -0.03  -0.11  -0.06    -0.06  -0.00  -0.00
  12   1    -0.00  -0.03   0.01    -0.02  -0.10   0.04    -0.05  -0.01  -0.04
  13   6     0.00  -0.05  -0.03    -0.17  -0.00  -0.31     0.02  -0.11  -0.10
  14   1     0.00  -0.02  -0.01    -0.05  -0.02  -0.10    -0.00  -0.03  -0.04
  15   1    -0.00  -0.01  -0.01    -0.06   0.04  -0.10     0.02  -0.04  -0.03
  16   1     0.00  -0.01  -0.01    -0.05  -0.02  -0.12     0.01  -0.02  -0.01
  17   6     0.03  -0.04   0.06    -0.14   0.06  -0.07     0.01  -0.08  -0.05
  18   1     0.03  -0.04   0.01    -0.06   0.09  -0.03     0.03  -0.05  -0.02
  19   1    -0.02  -0.00   0.00    -0.02   0.00   0.04    -0.02  -0.02  -0.03
  20   1     0.02   0.01   0.05    -0.05  -0.02  -0.07     0.01  -0.01   0.02
  21   1    -0.02   0.04   0.01    -0.03   0.01   0.02     0.02  -0.00  -0.02
  22   6     0.02  -0.10  -0.01     0.10  -0.06   0.12     0.10   0.15   0.16
  23   8     0.10  -0.15  -0.04     0.28  -0.16   0.07     0.08   0.43   0.23
  24   7    -0.22   0.17   0.15     0.04  -0.01   0.25     0.20  -0.03   0.27
  25   1    -0.09   0.07   0.06     0.03  -0.01   0.07     0.06   0.02   0.11
  26   1    -0.08   0.04   0.05    -0.03   0.02   0.08     0.05  -0.06   0.07
  27   7     0.19  -0.36  -0.14     0.00   0.00   0.13     0.07   0.06   0.07
  28   1     0.01  -0.06  -0.01    -0.02   0.01   0.05     0.03  -0.04  -0.00
  29   1     0.03  -0.07  -0.04     0.03  -0.02   0.02     0.01   0.04  -0.01
  30   6     0.03   0.08  -0.03     0.02   0.08  -0.01     0.00   0.03  -0.03
  31   8    -0.02   0.22  -0.04    -0.05   0.21   0.07    -0.01   0.10  -0.09
  32   7     0.05   0.09  -0.03     0.13   0.14  -0.04     0.00  -0.05  -0.01
  33   1     0.01   0.02  -0.01     0.05   0.03   0.00    -0.01   0.02  -0.01
  34   1     0.03  -0.03  -0.00     0.05  -0.01  -0.02    -0.01   0.00   0.00
  35   7     0.08  -0.08  -0.01     0.01  -0.10  -0.07     0.04   0.00   0.00
  36   1     0.03  -0.03  -0.00     0.01  -0.04  -0.04     0.02  -0.02   0.01
  37   1     0.01  -0.00  -0.00    -0.02  -0.02  -0.01     0.02   0.01  -0.00
  38   6    -0.01   0.02  -0.05     0.05   0.03  -0.04    -0.08  -0.09   0.06
  39   8    -0.09   0.02  -0.12     0.10   0.02  -0.04    -0.15  -0.12   0.02
  40   7     0.05   0.04  -0.04     0.03   0.05  -0.07    -0.04  -0.08   0.09
  41   1     0.00   0.01  -0.02     0.02   0.02  -0.02    -0.02  -0.02   0.01
  42   1     0.03   0.01   0.00     0.01   0.02  -0.02    -0.01  -0.02   0.03
  43   7     0.03   0.02  -0.01     0.03   0.04  -0.05    -0.08  -0.11   0.13
  44   1     0.02   0.01   0.00    -0.00   0.01  -0.02    -0.00  -0.02   0.05
  45   1    -0.01   0.00  -0.01     0.01   0.01  -0.01    -0.03  -0.04   0.03
  46   6    -0.08   0.08   0.04     0.03  -0.06  -0.00     0.06   0.10  -0.01
  47   8    -0.45   0.32  -0.04     0.20  -0.15   0.05     0.03   0.09  -0.05
  48   7     0.23  -0.11   0.14    -0.11   0.02  -0.05     0.11   0.12  -0.01
  49   1    -0.04   0.01   0.02     0.02  -0.01  -0.00     0.02   0.04  -0.01
  50   1     0.06  -0.04   0.03    -0.03   0.01  -0.01     0.03   0.04  -0.00
  51   7     0.13  -0.01   0.06    -0.07  -0.01  -0.03     0.06   0.10   0.05
  52   1     0.05  -0.02   0.02    -0.02   0.00  -0.01     0.01   0.03   0.02
  53   1    -0.02   0.04  -0.01     0.01  -0.02   0.00     0.00   0.02   0.01
                     19                     20                     21
                        a                      a                      a 
 Frequencies --   109.2281               126.4061               129.1476
 Red. masses --    13.0292                12.4026                12.6756
 Frc consts  --     0.0000                 0.0000                 0.0000
 IR Inten    --    24.9620                11.6586                 2.7832
 Raman Activ --     0.0000                 0.0000                 0.0000
 Depolar     --     0.0000                 0.0000                 0.0000
 Atom AN      X      Y      Z        X      Y      Z        X      Y      Z
   1   8    -0.33  -0.03   0.10     0.14   0.05   0.28     0.08  -0.02   0.10
   2   6    -0.12  -0.18   0.16    -0.10  -0.02  -0.02    -0.04   0.01  -0.01
   3   1    -0.06  -0.09   0.08    -0.02  -0.01  -0.08    -0.00   0.00  -0.04
   4   1    -0.02  -0.05   0.04    -0.11  -0.02   0.02    -0.04   0.00   0.01
   5   6     0.07  -0.18   0.10    -0.04  -0.03  -0.15    -0.04   0.01  -0.03
   6   1     0.03  -0.09   0.03    -0.03  -0.03  -0.08    -0.01   0.00  -0.01
   7   1     0.03  -0.05   0.03     0.03   0.01  -0.06    -0.00   0.01  -0.01
   8   7     0.16  -0.08   0.07    -0.07  -0.01  -0.06    -0.05   0.02   0.00
   9   6     0.17  -0.08   0.07    -0.11   0.12  -0.07    -0.03   0.10  -0.01
  10   1     0.05  -0.03   0.02    -0.04   0.07  -0.03    -0.01   0.04   0.00
  11   1     0.05  -0.02   0.02    -0.05   0.03   0.01    -0.01   0.03   0.01
  12   1     0.04  -0.02   0.02    -0.01   0.03  -0.05    -0.00   0.03  -0.02
  13   6     0.24  -0.09   0.04    -0.06  -0.02   0.05    -0.06   0.01   0.08
  14   1     0.08  -0.05   0.01    -0.01   0.01   0.02    -0.02   0.02   0.03
  15   1     0.07  -0.02   0.01    -0.02  -0.02   0.02    -0.02  -0.01   0.03
  16   1     0.08  -0.01   0.00    -0.01   0.00   0.02    -0.02   0.00   0.03
  17   6     0.10   0.07   0.06    -0.03  -0.10  -0.05    -0.04  -0.06  -0.02
  18   1     0.03   0.01   0.02     0.00  -0.05  -0.01    -0.02  -0.02  -0.00
  19   1    -0.01   0.03   0.02    -0.01  -0.03  -0.04     0.01  -0.02  -0.01
  20   1     0.06   0.05   0.01    -0.01  -0.03   0.01    -0.02  -0.03  -0.01
  21   1    -0.07  -0.01   0.03     0.06   0.04   0.05     0.04  -0.02   0.03
  22   6    -0.06   0.06  -0.03    -0.01   0.05   0.04    -0.17  -0.09  -0.01
  23   8    -0.17   0.20   0.02    -0.05   0.20   0.08    -0.22   0.08   0.02
  24   7     0.03  -0.07  -0.08     0.03  -0.03   0.08    -0.16  -0.17   0.06
  25   1     0.00  -0.01  -0.01     0.00   0.01   0.04    -0.05  -0.02   0.04
  26   1     0.03  -0.04  -0.03     0.01  -0.04   0.02    -0.04  -0.08   0.02
  27   7    -0.05   0.03  -0.04     0.03  -0.04  -0.01    -0.15  -0.19  -0.07
  28   1     0.01  -0.02  -0.03     0.01  -0.02  -0.01    -0.02  -0.08  -0.04
  29   1    -0.02   0.01  -0.01    -0.01   0.01   0.01    -0.04  -0.05  -0.03
  30   6    -0.05   0.14  -0.07     0.08  -0.01  -0.05     0.13   0.02  -0.09
  31   8    -0.16   0.48  -0.18     0.11  -0.07  -0.03     0.14  -0.02   0.00
  32   7    -0.03  -0.03  -0.02     0.09   0.02  -0.06     0.20   0.08  -0.12
  33   1    -0.03   0.03  -0.02     0.02   0.02  -0.02     0.05   0.03  -0.03
  34   1     0.01  -0.07   0.01     0.02   0.03  -0.02     0.05   0.03  -0.04
  35   7     0.06  -0.07   0.01     0.07   0.04  -0.07     0.08   0.01  -0.17
  36   1     0.04  -0.07   0.03     0.02   0.02  -0.02     0.02   0.01  -0.07
  37   1     0.02   0.03  -0.00     0.02  -0.00  -0.02     0.01  -0.01  -0.04
  38   6     0.05   0.04  -0.06     0.08   0.13  -0.00     0.04  -0.03  -0.13
  39   8     0.08   0.03  -0.06     0.18   0.21   0.12     0.01  -0.12  -0.26
  40   7     0.04   0.07  -0.08    -0.02   0.04  -0.03     0.12   0.12  -0.16
  41   1     0.02   0.02  -0.02     0.01   0.01   0.03     0.04   0.04  -0.07
  42   1     0.01   0.02  -0.02    -0.01  -0.00  -0.03     0.04   0.06  -0.01
  43   7     0.04   0.04  -0.06     0.09   0.17  -0.17     0.02  -0.05   0.02
  44   1    -0.00   0.01  -0.02     0.01   0.02  -0.08    -0.01   0.01   0.02
  45   1     0.01   0.01  -0.02     0.05   0.07  -0.04    -0.02  -0.04  -0.00
  46   6    -0.03  -0.07   0.01    -0.10  -0.16   0.05     0.05   0.05   0.19
  47   8     0.04  -0.12   0.02    -0.06  -0.01   0.22     0.18  -0.15   0.15
  48   7    -0.09  -0.03  -0.02    -0.26  -0.35   0.09     0.03   0.25   0.14
  49   1     0.00  -0.02  -0.00    -0.06  -0.11   0.07     0.05   0.06   0.02
  50   1    -0.02  -0.01  -0.00    -0.06  -0.13   0.00     0.00   0.09   0.05
  51   7    -0.06  -0.06  -0.00    -0.02  -0.17  -0.18    -0.10   0.12   0.30
  52   1    -0.02  -0.01   0.00    -0.02  -0.07  -0.08    -0.03   0.05   0.09
  53   1    -0.02  -0.02   0.00     0.02  -0.00  -0.07    -0.01   0.01   0.09
                     22                     23                     24
                        a                      a                      a 
 Frequencies --   147.9208               152.9477               173.3633
 Red. masses --    12.6425                12.7434                12.8163
 Frc consts  --     0.0000                 0.0000                 0.0000
 IR Inten    --     0.6502                55.6015                 8.3081
 Raman Activ --     0.0000                 0.0000                 0.0000
 Depolar     --     0.0000                 0.0000                 0.0000
 Atom AN      X      Y      Z        X      Y      Z        X      Y      Z
   1   8    -0.10  -0.05  -0.05    -0.03  -0.02  -0.03     0.09   0.04   0.39
   2   6    -0.00   0.03   0.09     0.01   0.04   0.05    -0.09  -0.01   0.15
   3   1    -0.00   0.02   0.06     0.00   0.02   0.03    -0.02  -0.00  -0.00
   4   1     0.04   0.01   0.01     0.03   0.01   0.01    -0.07  -0.01   0.06
   5   6    -0.09   0.03   0.17    -0.06   0.04   0.06    -0.05  -0.01   0.06
   6   1    -0.02   0.03   0.07    -0.02   0.02   0.02    -0.01  -0.02   0.01
   7   1    -0.06  -0.00   0.06    -0.02   0.01   0.02    -0.00   0.01   0.01
   8   7    -0.13  -0.04   0.12    -0.09  -0.01   0.07    -0.02   0.02   0.04
   9   6    -0.00  -0.02   0.09    -0.03   0.03   0.04     0.02   0.02   0.03
  10   1     0.01   0.01   0.04    -0.01   0.03   0.02     0.01  -0.00   0.02
  11   1    -0.00  -0.01   0.01    -0.02  -0.00   0.01     0.02   0.01  -0.00
  12   1     0.01  -0.01   0.01     0.01   0.01  -0.00    -0.00   0.01   0.01
  13   6    -0.17  -0.03   0.16    -0.13  -0.00   0.11     0.01   0.01   0.03
  14   1    -0.04   0.01   0.06    -0.04   0.01   0.04     0.00  -0.00   0.01
  15   1    -0.06  -0.01   0.05    -0.04  -0.00   0.03     0.00   0.01   0.01
  16   1    -0.05  -0.01   0.04    -0.04  -0.00   0.03     0.01   0.01   0.00
  17   6    -0.17  -0.11   0.01    -0.11  -0.09   0.00    -0.05   0.04  -0.00
  18   1    -0.08  -0.04   0.01    -0.05  -0.04   0.01    -0.04   0.07  -0.00
  19   1    -0.03  -0.03  -0.02    -0.01  -0.03  -0.02     0.02  -0.00   0.04
  20   1    -0.05  -0.04  -0.01    -0.04  -0.03  -0.00    -0.03  -0.02  -0.05
  21   1    -0.05  -0.01  -0.01    -0.02  -0.03   0.01     0.05   0.05   0.07
  22   6    -0.03  -0.01   0.11     0.14   0.06  -0.09    -0.08  -0.09  -0.09
  23   8    -0.22  -0.09   0.19     0.37   0.07  -0.18     0.06   0.03  -0.15
  24   7     0.04   0.03  -0.10     0.06   0.05   0.12    -0.16  -0.14   0.14
  25   1    -0.03   0.01  -0.05     0.07  -0.00   0.05    -0.01  -0.03   0.07
  26   1     0.04   0.04  -0.04    -0.02  -0.00   0.04    -0.08  -0.07   0.05
  27   7     0.10   0.04   0.27    -0.04   0.07  -0.22    -0.19  -0.17  -0.25
  28   1     0.07  -0.00   0.05    -0.06   0.03  -0.03    -0.07  -0.05  -0.06
  29   1     0.03   0.00   0.08    -0.00   0.02  -0.07    -0.05  -0.04  -0.09
  30   6     0.18   0.04  -0.21    -0.01  -0.03  -0.04    -0.00   0.01  -0.00
  31   8     0.24   0.05  -0.30     0.10  -0.03  -0.38     0.01   0.02  -0.06
  32   7     0.09   0.04  -0.18    -0.28  -0.17   0.05    -0.05  -0.03   0.01
  33   1     0.01  -0.01  -0.07    -0.10  -0.06  -0.01    -0.02  -0.00   0.00
  34   1     0.02  -0.01  -0.02    -0.09  -0.03   0.06    -0.02  -0.00   0.01
  35   7     0.30   0.07  -0.12     0.24   0.13   0.25     0.04   0.02   0.05
  36   1     0.06   0.04  -0.01     0.03   0.05   0.15     0.01   0.01   0.03
  37   1     0.10   0.04  -0.04     0.14   0.08   0.04     0.02   0.02   0.01
  38   6    -0.03  -0.02   0.05     0.03   0.01  -0.05    -0.05  -0.03   0.08
  39   8    -0.04  -0.00   0.07     0.03  -0.01  -0.09    -0.06  -0.00   0.12
  40   7    -0.04  -0.06   0.07     0.04   0.06  -0.07    -0.06  -0.10   0.12
  41   1    -0.02  -0.02   0.02     0.02   0.02  -0.03    -0.04  -0.03   0.04
  42   1    -0.02  -0.02   0.01     0.02   0.02  -0.00    -0.04  -0.04   0.00
  43   7    -0.03  -0.02   0.03     0.03   0.01  -0.02    -0.05  -0.03   0.05
  44   1     0.00  -0.01   0.01    -0.01   0.01  -0.01     0.01  -0.01   0.02
  45   1    -0.00  -0.00   0.01    -0.01  -0.01  -0.01     0.00  -0.00   0.02
  46   6     0.02   0.03  -0.12    -0.05  -0.06   0.08     0.17   0.09  -0.15
  47   8    -0.03   0.08  -0.14    -0.04  -0.14   0.05     0.30   0.14  -0.09
  48   7     0.06  -0.00  -0.12    -0.02   0.02   0.07     0.05   0.05  -0.18
  49   1     0.00   0.01  -0.03     0.00   0.01   0.00     0.07  -0.01  -0.01
  50   1     0.02  -0.00  -0.03    -0.01   0.02   0.03     0.02  -0.00  -0.05
  51   7     0.07   0.00  -0.11    -0.11  -0.04   0.16     0.17   0.14  -0.30
  52   1     0.02   0.00  -0.03    -0.02  -0.00   0.05     0.03   0.03  -0.10
  53   1     0.01  -0.00  -0.03    -0.03  -0.03   0.05     0.06   0.05  -0.09
                     25                     26                     27
                        a                      a                      a 
 Frequencies --   194.3700               230.0330               231.6656
 Red. masses --     8.3791                 4.6257                10.7919
 Frc consts  --     0.0000                 0.0000                 0.0000
 IR Inten    --     3.4074                 9.6904                19.7984
 Raman Activ --     0.0000                 0.0000                 0.0000
 Depolar     --     0.0000                 0.0000                 0.0000
 Atom AN      X      Y      Z        X      Y      Z        X      Y      Z
   1   8     0.34  -0.41   0.10    -0.05   0.01  -0.16     0.15  -0.06   0.40
   2   6    -0.11  -0.04  -0.16     0.01   0.01  -0.09    -0.02  -0.02   0.24
   3   1    -0.00  -0.01  -0.19    -0.00  -0.01  -0.02     0.01   0.03   0.05
   4   1    -0.14   0.05  -0.04     0.01   0.02  -0.03    -0.02  -0.05   0.09
   5   6    -0.18  -0.05   0.18     0.01  -0.01   0.03    -0.03   0.01  -0.06
   6   1    -0.00   0.03   0.13     0.01   0.02   0.02    -0.02  -0.05  -0.06
   7   1    -0.12  -0.08   0.09    -0.01  -0.02   0.02     0.03   0.06  -0.04
   8   7    -0.05   0.07   0.02     0.00  -0.03   0.02    -0.01   0.08  -0.06
   9   6     0.04  -0.00   0.00     0.03  -0.05   0.02    -0.07   0.14  -0.05
  10   1     0.08  -0.19   0.03     0.02  -0.06   0.01    -0.06   0.16  -0.03
  11   1     0.15   0.14  -0.07     0.04   0.02  -0.01    -0.11  -0.04   0.03
  12   1    -0.17   0.05   0.04    -0.04  -0.00   0.02     0.10   0.01  -0.04
  13   6     0.12   0.05  -0.09    -0.01  -0.02   0.02     0.04   0.07  -0.06
  14   1    -0.01  -0.01  -0.10    -0.02   0.00  -0.01     0.06  -0.01   0.03
  15   1     0.13   0.01  -0.06     0.02  -0.01  -0.00    -0.06   0.03   0.00
  16   1     0.03   0.03   0.05    -0.01  -0.01   0.03     0.04   0.03  -0.09
  17   6    -0.13   0.22  -0.05    -0.01  -0.02   0.00     0.04   0.07  -0.01
  18   1    -0.12   0.28  -0.02    -0.01   0.01   0.00     0.04  -0.02  -0.00
  19   1     0.08   0.01   0.16     0.00  -0.01   0.01    -0.01   0.03  -0.03
  20   1    -0.08  -0.07  -0.19    -0.01  -0.02  -0.02     0.01   0.04   0.04
  21   1     0.08  -0.07   0.01    -0.00  -0.01  -0.03     0.02   0.02   0.09
  22   6     0.02   0.01   0.01    -0.01  -0.01  -0.01     0.04   0.03   0.02
  23   8     0.01  -0.01   0.02     0.00   0.01  -0.02     0.00  -0.02   0.04
  24   7     0.03   0.04  -0.02    -0.02  -0.02   0.02     0.06   0.06  -0.05
  25   1     0.00   0.00  -0.01    -0.00  -0.00   0.01     0.01   0.01  -0.03
  26   1     0.02   0.01  -0.01    -0.01  -0.01   0.01     0.03   0.03  -0.02
  27   7     0.04   0.03   0.04    -0.01  -0.03  -0.03     0.03   0.08   0.08
  28   1     0.01   0.01   0.01    -0.01   0.00  -0.00     0.03  -0.01   0.01
  29   1     0.01   0.01   0.02    -0.01  -0.00  -0.00     0.03   0.01   0.00
  30   6    -0.00   0.03  -0.02     0.00   0.01  -0.01    -0.00  -0.01   0.01
  31   8    -0.02   0.10  -0.05    -0.00   0.01  -0.01    -0.00  -0.03   0.03
  32   7    -0.00   0.00  -0.01    -0.00  -0.01  -0.00    -0.00   0.01   0.01
  33   1    -0.00   0.00  -0.00    -0.00   0.00  -0.00     0.00  -0.01   0.00
  34   1     0.00  -0.02   0.00    -0.00   0.00  -0.00     0.00  -0.00   0.00
  35   7     0.03  -0.00   0.01     0.01  -0.00   0.00    -0.03   0.01  -0.00
  36   1     0.01  -0.01   0.01     0.00   0.00   0.00     0.00  -0.01  -0.00
  37   1     0.01   0.01  -0.00     0.00   0.00  -0.00    -0.01  -0.01   0.00
  38   6     0.01   0.00  -0.01     0.02   0.02  -0.02     0.00  -0.01  -0.02
  39   8     0.01   0.00  -0.02     0.01   0.01  -0.01    -0.01  -0.02  -0.03
  40   7     0.01   0.02  -0.02     0.24  -0.01   0.17     0.10   0.01   0.04
  41   1     0.01   0.00  -0.00    -0.27   0.01  -0.20    -0.09   0.01  -0.09
  42   1     0.01   0.01   0.00    -0.37   0.05  -0.29    -0.13   0.03  -0.11
  43   7     0.01   0.01  -0.01    -0.25   0.00  -0.17    -0.10  -0.02  -0.04
  44   1    -0.00   0.00  -0.01     0.43   0.02   0.23     0.16   0.01   0.10
  45   1    -0.00   0.00  -0.01     0.30   0.01   0.19     0.10  -0.01   0.08
  46   6    -0.05  -0.01   0.01     0.01   0.04   0.07    -0.08  -0.13  -0.14
  47   8    -0.12   0.01  -0.01     0.04   0.07   0.12    -0.17  -0.24  -0.28
  48   7     0.02  -0.03   0.04    -0.08  -0.03   0.09     0.17   0.11  -0.21
  49   1    -0.04   0.01  -0.01     0.03  -0.04   0.06     0.01   0.06  -0.15
  50   1    -0.00  -0.00   0.01    -0.00  -0.03   0.02     0.04   0.09  -0.01
  51   7    -0.04  -0.03   0.05     0.06   0.03  -0.02    -0.14  -0.16   0.14
  52   1     0.01  -0.01   0.02    -0.02   0.00  -0.04    -0.01  -0.01   0.08
  53   1     0.00  -0.02   0.02    -0.01   0.05  -0.03    -0.06  -0.09   0.06
                     28                     29                     30
                        a                      a                      a 
 Frequencies --   259.4475               279.2343               289.2901
 Red. masses --     5.5729                 2.5254                 6.2999
 Frc consts  --     0.0000                 0.0000                 0.0000
 IR Inten    --     2.4722               120.6737                 1.4548
 Raman Activ --     0.0000                 0.0000                 0.0000
 Depolar     --     0.0000                 0.0000                 0.0000
 Atom AN      X      Y      Z        X      Y      Z        X      Y      Z
   1   8     0.15  -0.34  -0.11    -0.02   0.05   0.01     0.01   0.04   0.12
   2   6     0.05  -0.04  -0.02    -0.00   0.01  -0.00    -0.29   0.09  -0.18
   3   1     0.03   0.04  -0.01    -0.00  -0.00   0.00    -0.08  -0.06  -0.21
   4   1     0.04  -0.00  -0.02    -0.00   0.00   0.00    -0.23   0.11  -0.04
   5   6    -0.15  -0.02   0.12     0.02   0.00  -0.01     0.03   0.06   0.09
   6   1    -0.02   0.01   0.07     0.00   0.01  -0.01     0.03   0.02   0.05
   7   1    -0.08  -0.02   0.05     0.01   0.00  -0.00    -0.01  -0.02   0.04
   8   7    -0.08   0.04   0.01    -0.00  -0.02   0.01     0.06   0.04   0.04
   9   6    -0.00   0.00  -0.00    -0.01   0.00   0.01     0.26  -0.13   0.02
  10   1    -0.04   0.17  -0.00     0.00  -0.01   0.00     0.13  -0.12   0.05
  11   1    -0.12  -0.14   0.03     0.01   0.01   0.00     0.14   0.01  -0.07
  12   1     0.18  -0.05  -0.03    -0.02   0.01   0.00     0.00  -0.02   0.03
  13   6     0.12   0.00  -0.09    -0.00  -0.02   0.02    -0.25   0.12  -0.15
  14   1     0.20  -0.11   0.14    -0.01  -0.00  -0.01    -0.04   0.04   0.00
  15   1    -0.19   0.06   0.03     0.02  -0.01   0.00    -0.16   0.11  -0.03
  16   1     0.13   0.04  -0.28    -0.01  -0.01   0.03    -0.09  -0.03  -0.14
  17   6    -0.15   0.21  -0.02     0.00  -0.04   0.00     0.19  -0.12   0.16
  18   1     0.04  -0.21   0.01    -0.02   0.04  -0.00     0.14  -0.20   0.05
  19   1    -0.25   0.15  -0.21     0.04  -0.03   0.04    -0.02   0.00  -0.07
  20   1     0.07   0.28   0.18    -0.02  -0.05  -0.04     0.07   0.05   0.20
  21   1     0.01  -0.09  -0.03    -0.00   0.01   0.00     0.07  -0.01   0.03
  22   6    -0.01  -0.01  -0.01     0.01  -0.02  -0.01     0.01   0.00   0.00
  23   8    -0.00   0.01  -0.01     0.01  -0.04  -0.01     0.02  -0.02   0.00
  24   7    -0.01  -0.02   0.03    -0.01   0.01  -0.01     0.01   0.00   0.01
  25   1    -0.01   0.00   0.02     0.00  -0.01  -0.01     0.00   0.00   0.00
  26   1    -0.02  -0.00   0.01    -0.00   0.01  -0.00    -0.01   0.02   0.01
  27   7    -0.01  -0.02  -0.01    -0.00   0.01   0.01     0.00   0.02   0.03
  28   1     0.00  -0.00  -0.00     0.00   0.00   0.00     0.03  -0.02  -0.01
  29   1    -0.01  -0.00   0.00     0.00  -0.00   0.00     0.01   0.00  -0.00
  30   6     0.00   0.00  -0.01     0.03  -0.01   0.00     0.01  -0.00  -0.01
  31   8    -0.00   0.02  -0.03     0.02   0.02  -0.02     0.01  -0.00  -0.01
  32   7    -0.02  -0.01  -0.01     0.01  -0.05   0.01    -0.00  -0.01  -0.01
  33   1    -0.01   0.01  -0.00    -0.03   0.10  -0.01    -0.00   0.00  -0.00
  34   1    -0.02   0.04  -0.00    -0.08   0.31  -0.03    -0.00   0.01  -0.00
  35   7    -0.02   0.04  -0.01    -0.16   0.27  -0.03     0.01   0.01  -0.00
  36   1     0.05  -0.09   0.02     0.37  -0.67   0.13     0.01  -0.02   0.01
  37   1     0.02  -0.04   0.00     0.18  -0.35   0.02     0.01  -0.01  -0.00
  38   6    -0.00   0.00   0.00     0.00  -0.00  -0.00    -0.01  -0.01  -0.01
  39   8     0.00   0.01   0.01     0.00  -0.00  -0.00    -0.01  -0.01  -0.01
  40   7    -0.00  -0.00   0.00    -0.00   0.00  -0.00     0.00   0.01  -0.01
  41   1    -0.00  -0.00   0.00     0.00   0.00   0.00     0.00   0.00  -0.00
  42   1     0.00  -0.00   0.00     0.00   0.00   0.00     0.01   0.00   0.01
  43   7     0.01   0.01  -0.00     0.00  -0.00   0.00     0.01  -0.01   0.01
  44   1    -0.00  -0.00  -0.01    -0.00   0.00  -0.00    -0.02  -0.00  -0.01
  45   1    -0.00   0.00  -0.00    -0.00  -0.00  -0.00    -0.01  -0.00  -0.01
  46   6     0.04   0.05   0.06    -0.00  -0.00  -0.01    -0.03  -0.02  -0.02
  47   8     0.08   0.07   0.10    -0.01  -0.01  -0.01    -0.07  -0.02  -0.05
  48   7    -0.07  -0.04   0.08     0.01   0.00  -0.00    -0.07   0.07  -0.08
  49   1     0.02  -0.03   0.06    -0.01   0.01  -0.01     0.27  -0.10   0.05
  50   1    -0.01  -0.04   0.01    -0.00   0.00  -0.00     0.10  -0.02   0.04
  51   7     0.05   0.06  -0.05    -0.01  -0.00   0.00     0.08  -0.10   0.07
  52   1     0.00   0.01  -0.03     0.00  -0.00   0.00    -0.07   0.03  -0.00
  53   1     0.02   0.03  -0.02     0.00  -0.00   0.00    -0.21   0.09  -0.05
                     31                     32                     33
                        a                      a                      a 
 Frequencies --   293.8357               299.0960               319.3670
 Red. masses --     3.9842                 2.9798                 6.4835
 Frc consts  --     0.0000                 0.0000                 0.0000
 IR Inten    --     7.2846                 0.6585                 0.8332
 Raman Activ --     0.0000                 0.0000                 0.0000
 Depolar     --     0.0000                 0.0000                 0.0000
 Atom AN      X      Y      Z        X      Y      Z        X      Y      Z
   1   8    -0.02   0.03   0.03    -0.10  -0.15  -0.08     0.12   0.39   0.02
   2   6    -0.15   0.04  -0.10    -0.12  -0.06  -0.09     0.02   0.05  -0.20
   3   1    -0.04  -0.03  -0.10    -0.04  -0.03  -0.05    -0.00  -0.04  -0.13
   4   1    -0.11   0.05  -0.02    -0.05  -0.00  -0.02    -0.08   0.03  -0.04
   5   6     0.01   0.03   0.04     0.01  -0.04  -0.02     0.09  -0.01  -0.09
   6   1     0.01   0.01   0.02     0.00  -0.03  -0.01    -0.00   0.03  -0.05
   7   1     0.00  -0.01   0.02     0.02  -0.02  -0.01     0.06  -0.02  -0.03
   8   7     0.03   0.02   0.03     0.06   0.06   0.02    -0.02  -0.10   0.10
   9   6     0.14  -0.07   0.02     0.10   0.01   0.03    -0.00  -0.19   0.11
  10   1     0.06  -0.04   0.03    -0.07   0.35  -0.01     0.01  -0.12   0.03
  11   1     0.06  -0.02  -0.03    -0.22  -0.28   0.08     0.03  -0.03  -0.00
  12   1     0.03  -0.02   0.01     0.40  -0.09  -0.05    -0.06  -0.04   0.07
  13   6    -0.13   0.06  -0.06    -0.14   0.11  -0.04     0.11  -0.16   0.20
  14   1    -0.01   0.02   0.01     0.01   0.04   0.06     0.27  -0.14   0.31
  15   1    -0.09   0.05  -0.01    -0.14   0.08   0.01    -0.30  -0.01   0.16
  16   1    -0.04  -0.01  -0.08    -0.04  -0.01  -0.12     0.15   0.00  -0.28
  17   6     0.08  -0.06   0.08     0.14   0.02   0.11    -0.18   0.10  -0.05
  18   1     0.07  -0.10   0.02    -0.03   0.33   0.01    -0.14   0.16  -0.01
  19   1    -0.02   0.01  -0.04     0.25  -0.09   0.28    -0.02   0.00   0.09
  20   1     0.04   0.03   0.10    -0.08  -0.23  -0.17    -0.04  -0.02  -0.16
  21   1     0.00   0.02  -0.00    -0.01  -0.04  -0.02     0.07   0.11  -0.01
  22   6    -0.00  -0.01  -0.01     0.00   0.00   0.00    -0.00   0.01  -0.00
  23   8    -0.00   0.01  -0.01     0.00   0.00   0.00    -0.01   0.01   0.01
  24   7    -0.01  -0.01   0.02     0.01  -0.01   0.02     0.01  -0.00  -0.01
  25   1     0.00   0.00   0.01    -0.00   0.00   0.01    -0.01   0.01   0.00
  26   1     0.01  -0.03   0.00    -0.01   0.01   0.01    -0.01   0.02   0.00
  27   7     0.01  -0.02  -0.02     0.01  -0.00   0.00    -0.00   0.01   0.01
  28   1    -0.03   0.03   0.02     0.00   0.00   0.00     0.02  -0.02  -0.01
  29   1     0.01  -0.01   0.01    -0.00   0.00   0.00     0.01  -0.00  -0.00
  30   6     0.00   0.00  -0.01     0.01  -0.01  -0.01    -0.01   0.00  -0.00
  31   8     0.00   0.00  -0.01     0.01  -0.02  -0.00    -0.01   0.00  -0.01
  32   7     0.00  -0.00  -0.01    -0.00   0.00  -0.01    -0.02  -0.01   0.00
  33   1    -0.00   0.00  -0.00     0.00  -0.00  -0.00    -0.00  -0.00   0.00
  34   1    -0.00   0.00  -0.00     0.00  -0.01   0.00    -0.01   0.00   0.00
  35   7     0.01   0.00  -0.00     0.01   0.00  -0.00    -0.01  -0.02  -0.00
  36   1     0.00   0.00   0.00    -0.01   0.02  -0.00    -0.02   0.02  -0.01
  37   1     0.00   0.00  -0.00     0.00   0.01  -0.00    -0.02   0.01  -0.00
  38   6     0.01   0.01   0.01     0.00   0.00   0.00     0.00  -0.00  -0.00
  39   8     0.02   0.01   0.01     0.00   0.00   0.00    -0.00  -0.00  -0.00
  40   7    -0.01  -0.01   0.00    -0.00   0.00   0.00    -0.00   0.00  -0.01
  41   1    -0.00  -0.00   0.01     0.00   0.00   0.00     0.01   0.00   0.00
  42   1    -0.01  -0.01  -0.01     0.00   0.00   0.00     0.01   0.00   0.01
  43   7    -0.03   0.00  -0.01     0.00   0.00  -0.00    -0.00  -0.00  -0.00
  44   1     0.05   0.00   0.03    -0.00  -0.00  -0.00     0.00   0.00   0.00
  45   1     0.03  -0.00   0.02     0.00   0.00  -0.00     0.00  -0.00   0.00
  46   6     0.01  -0.01  -0.00     0.00   0.04   0.02    -0.03  -0.04  -0.02
  47   8     0.06  -0.03   0.02    -0.00   0.05   0.03    -0.05  -0.05  -0.03
  48   7     0.21  -0.10   0.09    -0.03  -0.03   0.04     0.03   0.03  -0.04
  49   1    -0.55   0.24  -0.17     0.00  -0.02   0.04     0.01   0.01  -0.03
  50   1    -0.18   0.08  -0.08    -0.00  -0.02   0.00     0.01   0.02   0.01
  51   7    -0.20   0.12  -0.10     0.03   0.03  -0.01    -0.03  -0.05   0.04
  52   1     0.12  -0.07   0.02     0.00   0.00  -0.01    -0.01  -0.01   0.02
  53   1     0.38  -0.20   0.10    -0.01   0.02  -0.01    -0.02  -0.01   0.01
                     34                     35                     36
                        a                      a                      a 
 Frequencies --   334.6699               346.5918               365.5224
 Red. masses --     4.6720                 3.7207                 2.9996
 Frc consts  --     0.0000                 0.0000                 0.0000
 IR Inten    --     1.9549               400.4180                59.0420
 Raman Activ --     0.0000                 0.0000                 0.0000
 Depolar     --     0.0000                 0.0000                 0.0000
 Atom AN      X      Y      Z        X      Y      Z        X      Y      Z
   1   8    -0.13  -0.22  -0.06     0.00   0.01   0.00    -0.01  -0.01  -0.00
   2   6     0.06  -0.04   0.19    -0.01   0.00  -0.01    -0.01   0.01   0.00
   3   1     0.01   0.03   0.14    -0.00  -0.00  -0.01    -0.00   0.00  -0.00
   4   1     0.11  -0.03   0.03    -0.01   0.00  -0.00    -0.00   0.01  -0.00
   5   6     0.00   0.00  -0.00     0.00   0.00  -0.00    -0.00   0.01   0.02
   6   1     0.00  -0.05  -0.02    -0.00   0.00  -0.00     0.00   0.00   0.01
   7   1     0.01   0.06  -0.02     0.00  -0.00  -0.00    -0.00   0.01   0.01
   8   7     0.02   0.03  -0.07    -0.00  -0.00   0.00     0.00   0.00  -0.00
   9   6    -0.12   0.26  -0.08     0.01  -0.01   0.00    -0.02   0.01  -0.00
  10   1     0.03  -0.14  -0.01     0.00  -0.00   0.00    -0.01   0.00  -0.00
  11   1     0.14   0.30  -0.03     0.00  -0.01  -0.00    -0.00   0.01   0.01
  12   1    -0.31   0.15  -0.03     0.01  -0.00   0.00    -0.01   0.01  -0.00
  13   6    -0.06   0.05  -0.11    -0.00  -0.00   0.00     0.01  -0.00  -0.02
  14   1     0.18  -0.06   0.18    -0.00   0.00   0.00     0.03  -0.02   0.02
  15   1    -0.32   0.10   0.05     0.00  -0.00   0.00    -0.03   0.01   0.00
  16   1     0.06   0.00  -0.35    -0.00  -0.00   0.00     0.02   0.00  -0.05
  17   6     0.19  -0.16   0.08    -0.00   0.00   0.00     0.01  -0.03  -0.00
  18   1     0.07   0.05   0.01    -0.00   0.00   0.00     0.00  -0.00  -0.00
  19   1     0.16  -0.09   0.10    -0.00   0.00   0.00     0.02  -0.01   0.00
  20   1    -0.02  -0.15   0.00     0.00   0.00  -0.00    -0.00  -0.02  -0.00
  21   1    -0.07  -0.07  -0.00    -0.01   0.01  -0.00     0.00  -0.01   0.00
  22   6    -0.00  -0.00  -0.01     0.00   0.00   0.00     0.02  -0.02   0.02
  23   8    -0.00  -0.00  -0.00    -0.00  -0.00   0.00     0.02  -0.03   0.01
  24   7     0.02  -0.02   0.02    -0.00   0.00  -0.00    -0.26   0.20   0.03
  25   1    -0.02   0.01   0.02     0.00  -0.00  -0.00     0.24  -0.16  -0.06
  26   1    -0.05   0.03   0.02     0.01  -0.01  -0.00     0.52  -0.51  -0.13
  27   7     0.00   0.01   0.01     0.00  -0.00  -0.00     0.04  -0.04   0.00
  28   1     0.02  -0.01  -0.01    -0.01   0.01   0.00    -0.15   0.18   0.13
  29   1     0.00  -0.00   0.00    -0.00   0.00   0.00    -0.02   0.01   0.03
  30   6    -0.00   0.00  -0.01     0.00   0.00   0.00    -0.01   0.06  -0.00
  31   8    -0.00   0.01  -0.01     0.00   0.00  -0.00     0.00   0.04   0.00
  32   7    -0.01  -0.00  -0.00     0.00  -0.00  -0.00     0.02  -0.12   0.01
  33   1    -0.00  -0.00   0.00     0.00   0.00   0.00    -0.01   0.06   0.01
  34   1    -0.00  -0.01   0.00    -0.00   0.00  -0.00    -0.08   0.33  -0.06
  35   7    -0.00  -0.00  -0.01     0.00  -0.00  -0.00     0.05  -0.09  -0.01
  36   1    -0.00   0.00  -0.00    -0.00   0.00  -0.00    -0.05   0.09  -0.04
  37   1    -0.00   0.01  -0.00    -0.00   0.00  -0.00    -0.03   0.02  -0.00
  38   6    -0.00   0.00   0.00    -0.10   0.01  -0.06     0.00  -0.00   0.00
  39   8    -0.00   0.00   0.00    -0.03  -0.01  -0.04     0.00  -0.00   0.00
  40   7     0.00  -0.00   0.01     0.23  -0.04   0.21    -0.00   0.00  -0.00
  41   1    -0.01  -0.00  -0.00    -0.21   0.00  -0.17     0.00   0.00   0.00
  42   1    -0.01   0.00  -0.01    -0.47   0.07  -0.34     0.01   0.00   0.01
  43   7     0.01   0.00   0.00     0.27   0.03   0.13    -0.00  -0.00  -0.00
  44   1    -0.01  -0.00  -0.01    -0.47   0.00  -0.25     0.00  -0.00   0.00
  45   1    -0.00   0.00  -0.00    -0.23  -0.01  -0.15     0.00   0.00   0.00
  46   6     0.02   0.03   0.01     0.02  -0.01   0.01     0.00   0.00  -0.01
  47   8     0.02   0.04   0.02    -0.01  -0.00  -0.01     0.01  -0.00  -0.00
  48   7    -0.03  -0.03   0.03    -0.02   0.00  -0.01    -0.00   0.01  -0.01
  49   1    -0.01  -0.01   0.03     0.02  -0.01   0.01     0.02  -0.01   0.00
  50   1    -0.01  -0.02  -0.00     0.04  -0.02   0.02     0.01  -0.00   0.00
  51   7     0.02   0.04  -0.03    -0.05   0.02  -0.01     0.01  -0.01   0.00
  52   1     0.01   0.00  -0.01     0.06  -0.03   0.02    -0.01   0.01  -0.00
  53   1     0.02   0.00  -0.00     0.09  -0.05   0.03    -0.03   0.02  -0.01
                     37                     38                     39
                        a                      a                      a 
 Frequencies --   377.6566               389.6789               432.8701
 Red. masses --     7.7155                 3.0968                 8.3153
 Frc consts  --     0.0000                 0.0000                 0.0000
 IR Inten    --     0.4195               262.4918                34.1712
 Raman Activ --     0.0000                 0.0000                 0.0000
 Depolar     --     0.0000                 0.0000                 0.0000
 Atom AN      X      Y      Z        X      Y      Z        X      Y      Z
   1   8     0.02  -0.13  -0.00    -0.00  -0.00  -0.01    -0.05  -0.26   0.02
   2   6     0.10  -0.19   0.04    -0.01   0.01  -0.00    -0.11   0.01   0.05
   3   1     0.04   0.02   0.10    -0.00  -0.00  -0.00    -0.03   0.01   0.01
   4   1     0.10  -0.15   0.03    -0.01   0.01  -0.00    -0.03   0.00   0.01
   5   6    -0.01  -0.11  -0.32     0.00   0.01   0.01     0.13   0.06  -0.11
   6   1    -0.06  -0.07  -0.19    -0.00  -0.00  -0.01     0.00  -0.07  -0.11
   7   1     0.12   0.02  -0.13     0.00   0.01   0.00     0.14   0.06  -0.07
   8   7    -0.08   0.00  -0.05     0.01   0.00   0.00     0.20   0.26   0.02
   9   6     0.24  -0.07  -0.10    -0.01  -0.02   0.01    -0.16  -0.26   0.20
  10   1     0.15  -0.12   0.05    -0.00  -0.01  -0.00    -0.10  -0.18  -0.06
  11   1     0.16   0.03  -0.15     0.00  -0.00   0.00    -0.06  -0.10   0.04
  12   1     0.01  -0.01  -0.00    -0.01  -0.00   0.01    -0.09  -0.09   0.24
  13   6    -0.34   0.04   0.20     0.01   0.01   0.00    -0.01   0.30   0.18
  14   1    -0.11   0.12   0.08     0.02   0.00   0.02     0.01   0.13   0.09
  15   1    -0.12  -0.03   0.07    -0.02   0.01   0.01    -0.05   0.06   0.07
  16   1    -0.14  -0.04   0.09     0.01   0.00  -0.02    -0.02   0.06   0.04
  17   6    -0.05   0.39   0.16     0.00  -0.02  -0.01     0.05  -0.01  -0.33
  18   1     0.06   0.15   0.02    -0.00  -0.00  -0.00    -0.09  -0.08  -0.06
  19   1    -0.12   0.13   0.12     0.01  -0.01  -0.01     0.05   0.00  -0.20
  20   1     0.03   0.18   0.06    -0.00  -0.01  -0.01     0.02  -0.01  -0.12
  21   1    -0.02  -0.00  -0.01     0.00  -0.00  -0.00    -0.03  -0.07   0.01
  22   6     0.01   0.00   0.00    -0.01   0.03   0.03    -0.01   0.01   0.04
  23   8     0.00   0.00   0.00    -0.01   0.03   0.03    -0.02   0.01   0.04
  24   7    -0.01   0.02   0.02    -0.05   0.06   0.01     0.07  -0.03  -0.03
  25   1     0.02  -0.01   0.00     0.05  -0.02   0.00    -0.03   0.01  -0.02
  26   1     0.04  -0.04  -0.01     0.23  -0.23  -0.05    -0.04   0.09   0.01
  27   7     0.01   0.01   0.00     0.02  -0.06  -0.07     0.02  -0.07  -0.06
  28   1    -0.01   0.01   0.01    -0.17   0.17   0.12    -0.15   0.16   0.11
  29   1     0.00   0.00  -0.00    -0.02   0.01   0.01    -0.01  -0.01  -0.00
  30   6     0.01  -0.01  -0.01     0.02  -0.11   0.01    -0.00   0.00  -0.00
  31   8     0.01  -0.01   0.01     0.02  -0.08  -0.02    -0.00   0.00   0.01
  32   7     0.01  -0.00  -0.01    -0.03   0.28  -0.02     0.01  -0.02  -0.00
  33   1     0.00   0.00  -0.00     0.02  -0.08  -0.02     0.01  -0.01   0.00
  34   1     0.00   0.01  -0.00     0.20  -0.73   0.11    -0.02   0.08  -0.01
  35   7     0.02   0.01  -0.00    -0.11   0.18  -0.01     0.01  -0.01  -0.00
  36   1     0.01  -0.01   0.01     0.10  -0.20   0.07    -0.00   0.00   0.00
  37   1     0.02  -0.00  -0.00     0.05  -0.05   0.00    -0.00   0.02  -0.00
  38   6     0.00   0.00   0.00     0.00  -0.00   0.00    -0.00  -0.00   0.00
  39   8    -0.00  -0.00   0.00     0.00  -0.00   0.00    -0.00  -0.00   0.00
  40   7    -0.00   0.00  -0.00    -0.00  -0.00  -0.00    -0.00   0.01  -0.00
  41   1     0.00   0.00   0.00    -0.00  -0.00  -0.00     0.00   0.00  -0.00
  42   1     0.00   0.00   0.00     0.00  -0.00   0.00     0.00   0.00   0.00
  43   7    -0.00   0.00  -0.00    -0.00  -0.00   0.00     0.00  -0.00  -0.01
  44   1     0.01  -0.00   0.00    -0.00   0.00  -0.00     0.01  -0.00  -0.00
  45   1     0.00   0.00   0.00     0.00  -0.00   0.00     0.00   0.00  -0.00
  46   6     0.01   0.00   0.01     0.00   0.00  -0.00     0.02   0.01  -0.00
  47   8     0.00   0.00   0.00     0.01  -0.00  -0.00     0.01   0.01  -0.02
  48   7    -0.01  -0.00   0.01    -0.00   0.00  -0.00    -0.02  -0.02   0.00
  49   1     0.01  -0.01   0.01     0.00  -0.00   0.01     0.01  -0.02   0.03
  50   1     0.00  -0.01   0.00     0.00  -0.00  -0.00     0.00  -0.02  -0.00
  51   7     0.00   0.01   0.00     0.01   0.00   0.00     0.00   0.02   0.01
  52   1     0.00   0.00   0.00    -0.01   0.01  -0.00     0.01   0.01   0.01
  53   1     0.01  -0.00   0.00    -0.02   0.01  -0.01     0.01  -0.01   0.01
                     40                     41                     42
                        a                      a                      a 
 Frequencies --   433.8848               444.2993               457.9225
 Red. masses --     3.8908                 1.5491                 8.5185
 Frc consts  --     0.0000                 0.0000                 0.0000
 IR Inten    --   257.2039                 5.7851                11.0078
 Raman Activ --     0.0000                 0.0000                 0.0000
 Depolar     --     0.0000                 0.0000                 0.0000
 Atom AN      X      Y      Z        X      Y      Z        X      Y      Z
   1   8     0.01   0.08   0.00     0.00   0.01   0.00    -0.00  -0.01  -0.01
   2   6     0.03   0.00  -0.01     0.00   0.00  -0.00    -0.00  -0.00  -0.00
   3   1     0.01   0.00   0.00     0.00   0.00  -0.00    -0.00   0.00  -0.00
   4   1     0.01  -0.00  -0.00    -0.00   0.00  -0.00     0.00  -0.00  -0.00
   5   6    -0.04  -0.01   0.03    -0.00   0.00   0.00     0.00  -0.00  -0.00
   6   1    -0.01   0.02   0.02    -0.00   0.00   0.00    -0.00  -0.00  -0.00
   7   1    -0.03  -0.01   0.01    -0.00   0.00   0.00     0.00  -0.00  -0.00
   8   7    -0.07  -0.08   0.00    -0.00  -0.00   0.00     0.00   0.00   0.00
   9   6     0.06   0.09  -0.06     0.00   0.00  -0.00    -0.00  -0.00   0.00
  10   1     0.04   0.06   0.03     0.00   0.00   0.00    -0.00  -0.00  -0.00
  11   1     0.03   0.04  -0.02     0.00   0.00  -0.00    -0.00  -0.00   0.00
  12   1     0.03   0.03  -0.08     0.00   0.00  -0.00    -0.00  -0.00   0.00
  13   6    -0.00  -0.10  -0.06     0.00  -0.01  -0.00    -0.00   0.01  -0.00
  14   1    -0.00  -0.05  -0.03     0.00  -0.00  -0.00     0.00   0.00   0.00
  15   1     0.01  -0.02  -0.02     0.00  -0.00  -0.00    -0.00   0.00   0.00
  16   1     0.01  -0.02  -0.02     0.00  -0.00  -0.00    -0.00   0.00  -0.00
  17   6    -0.03   0.01   0.11    -0.00  -0.00   0.01     0.00  -0.00  -0.00
  18   1     0.03   0.03   0.02     0.00   0.00   0.00    -0.00  -0.00  -0.00
  19   1    -0.02   0.00   0.07    -0.00  -0.00   0.00     0.00  -0.00  -0.00
  20   1    -0.01   0.00   0.04    -0.00  -0.00   0.00    -0.00  -0.00  -0.00
  21   1     0.02   0.01   0.00    -0.00   0.01  -0.00    -0.01   0.01  -0.00
  22   6    -0.05   0.06   0.08    -0.00   0.00   0.00    -0.00  -0.00   0.02
  23   8    -0.08   0.02   0.09    -0.00  -0.00   0.00     0.01   0.01   0.02
  24   7     0.19  -0.11  -0.05     0.01  -0.00  -0.00    -0.00   0.01  -0.01
  25   1    -0.11   0.07   0.01    -0.00  -0.00  -0.00     0.02  -0.03  -0.04
  26   1    -0.13   0.20   0.03    -0.00   0.01   0.00     0.01   0.03  -0.01
  27   7     0.11  -0.18  -0.18     0.00  -0.01  -0.01    -0.01  -0.02  -0.00
  28   1    -0.46   0.55   0.34    -0.02   0.02   0.01    -0.01  -0.01   0.00
  29   1    -0.01  -0.03   0.03    -0.00   0.00  -0.00    -0.01   0.00  -0.00
  30   6     0.02   0.02   0.00     0.00   0.00   0.00    -0.00   0.00   0.00
  31   8     0.02   0.02  -0.00     0.00   0.00  -0.00     0.00   0.00  -0.00
  32   7    -0.01  -0.04   0.01    -0.00  -0.00   0.00     0.00   0.00   0.00
  33   1     0.00  -0.02   0.01    -0.00  -0.00  -0.00    -0.00   0.00   0.00
  34   1    -0.04   0.13  -0.01    -0.00   0.00   0.00     0.00  -0.00   0.00
  35   7     0.01  -0.04  -0.02    -0.00  -0.00  -0.00    -0.00   0.00  -0.00
  36   1    -0.01   0.02  -0.03     0.00  -0.00  -0.00    -0.00   0.00  -0.00
  37   1    -0.03   0.01  -0.00    -0.00  -0.00  -0.00     0.00  -0.00   0.00
  38   6     0.00  -0.00  -0.00    -0.02  -0.03   0.03     0.14   0.20  -0.20
  39   8    -0.00   0.00  -0.00    -0.02  -0.03   0.04     0.16   0.22  -0.23
  40   7     0.01  -0.00  -0.00    -0.12   0.05  -0.05    -0.04  -0.40  -0.08
  41   1    -0.02  -0.00  -0.01     0.47   0.03   0.20    -0.06  -0.15   0.24
  42   1     0.02  -0.01   0.01    -0.36   0.14  -0.19     0.01  -0.28  -0.18
  43   7    -0.01  -0.00   0.00     0.11  -0.03   0.03    -0.16   0.13   0.35
  44   1    -0.01   0.00  -0.00     0.45  -0.08   0.15    -0.02   0.21   0.27
  45   1     0.01  -0.01   0.01    -0.40   0.10  -0.34    -0.21  -0.19   0.09
  46   6     0.02  -0.02  -0.02     0.01   0.00  -0.01    -0.02  -0.04   0.05
  47   8     0.01  -0.00  -0.02     0.00   0.01  -0.01    -0.04  -0.02   0.05
  48   7     0.00   0.02  -0.04    -0.02  -0.01  -0.01     0.00   0.05   0.01
  49   1     0.03  -0.01   0.00     0.03  -0.02   0.02     0.08  -0.01  -0.01
  50   1     0.03  -0.01   0.00     0.00  -0.01  -0.01     0.01   0.03   0.03
  51   7    -0.02  -0.01   0.03    -0.01   0.01   0.02    -0.02  -0.02  -0.05
  52   1    -0.00   0.01   0.02     0.02   0.00   0.02     0.03  -0.05  -0.02
  53   1    -0.02  -0.01   0.01     0.02  -0.02   0.02     0.06  -0.01  -0.01
                     43                     44                     45
                        a                      a                      a 
 Frequencies --   460.2614               461.5712               465.1823
 Red. masses --     7.0034                 4.1331                 2.3562
 Frc consts  --     0.0000                 0.0000                 0.0000
 IR Inten    --    93.9926               190.9839               159.1559
 Raman Activ --     0.0000                 0.0000                 0.0000
 Depolar     --     0.0000                 0.0000                 0.0000
 Atom AN      X      Y      Z        X      Y      Z        X      Y      Z
   1   8    -0.01  -0.07  -0.00    -0.01  -0.04  -0.00     0.01  -0.00   0.00
   2   6    -0.11   0.21   0.04    -0.05   0.11   0.03    -0.01   0.00  -0.01
   3   1    -0.01   0.11   0.02    -0.01   0.06   0.02    -0.00   0.00  -0.01
   4   1     0.00   0.04   0.01     0.01   0.02   0.01    -0.00  -0.00  -0.00
   5   6    -0.23   0.18  -0.06    -0.13   0.10  -0.00     0.01  -0.00  -0.02
   6   1    -0.04   0.03   0.01    -0.01   0.03   0.03    -0.01  -0.00  -0.02
   7   1    -0.09   0.07  -0.01    -0.08   0.03   0.01     0.02  -0.00  -0.01
   8   7    -0.16   0.09  -0.21    -0.07   0.06  -0.16    -0.00   0.01   0.03
   9   6     0.05  -0.21  -0.22    -0.01  -0.14  -0.15     0.02   0.01   0.03
  10   1     0.04  -0.08  -0.03     0.01  -0.06  -0.04     0.01   0.00   0.01
  11   1     0.01  -0.11  -0.15    -0.01  -0.07  -0.09     0.01   0.00   0.00
  12   1     0.06  -0.08   0.00     0.02  -0.05   0.01     0.01   0.00   0.01
  13   6     0.21  -0.06   0.23     0.10  -0.02   0.18     0.02   0.01  -0.03
  14   1     0.11  -0.03   0.12     0.06   0.01   0.09    -0.00  -0.01  -0.02
  15   1     0.05  -0.15   0.09     0.02  -0.10   0.07     0.02   0.01  -0.02
  16   1     0.13   0.09   0.10     0.06   0.05   0.08     0.00   0.00  -0.00
  17   6     0.15  -0.09   0.14     0.12  -0.02   0.05    -0.02  -0.02   0.00
  18   1     0.15  -0.00   0.01     0.10   0.01  -0.00    -0.02  -0.01   0.01
  19   1     0.10  -0.05   0.09     0.06  -0.02   0.04    -0.00  -0.01  -0.01
  20   1    -0.03  -0.08   0.13    -0.01  -0.04   0.07    -0.01  -0.01  -0.00
  21   1    -0.05  -0.01   0.00     0.05  -0.07   0.02    -0.07   0.07  -0.02
  22   6    -0.01  -0.00   0.06     0.02  -0.01  -0.07     0.04   0.00  -0.05
  23   8     0.04   0.05   0.06    -0.04  -0.07  -0.06    -0.03  -0.11  -0.03
  24   7    -0.03   0.05  -0.04     0.07  -0.06   0.00     0.09  -0.03  -0.01
  25   1     0.12  -0.17  -0.18    -0.28   0.33   0.28    -0.33   0.39   0.31
  26   1     0.00   0.15  -0.02     0.03  -0.24   0.01     0.09  -0.29  -0.00
  27   7    -0.04  -0.08  -0.03    -0.00   0.11   0.02    -0.02   0.12   0.02
  28   1    -0.02  -0.05  -0.01     0.01   0.05   0.01     0.01   0.01  -0.01
  29   1    -0.04   0.02  -0.03     0.05  -0.03   0.01     0.01   0.01  -0.01
  30   6    -0.00   0.00   0.00    -0.01  -0.01  -0.01     0.01   0.00   0.01
  31   8     0.00   0.00  -0.01    -0.03  -0.01   0.01     0.01   0.00   0.01
  32   7    -0.00   0.01   0.01     0.01   0.00  -0.03    -0.02  -0.00   0.01
  33   1    -0.00   0.00   0.00     0.02  -0.02   0.01     0.00  -0.02   0.00
  34   1     0.01  -0.02  -0.00    -0.01   0.06  -0.02    -0.02   0.04   0.01
  35   7    -0.01   0.00   0.00     0.02  -0.01   0.02    -0.00  -0.02  -0.02
  36   1    -0.00   0.00  -0.01     0.01  -0.03   0.04     0.01  -0.03  -0.00
  37   1    -0.00  -0.02   0.00    -0.00   0.10  -0.01    -0.03   0.06  -0.01
  38   6    -0.02   0.00   0.01     0.03   0.00  -0.02    -0.02   0.02   0.00
  39   8    -0.01  -0.02   0.00     0.02   0.03  -0.01    -0.01  -0.02  -0.01
  40   7    -0.01   0.03   0.01     0.01  -0.04  -0.01    -0.01   0.01   0.01
  41   1    -0.05   0.01  -0.03     0.08  -0.01   0.05    -0.11  -0.00  -0.04
  42   1     0.06  -0.00   0.05    -0.09   0.00  -0.07     0.11  -0.03   0.07
  43   7    -0.00   0.00  -0.03    -0.00  -0.00   0.05    -0.01   0.02  -0.02
  44   1     0.05  -0.02   0.00    -0.07   0.03   0.00     0.10  -0.01   0.03
  45   1    -0.00   0.02  -0.02     0.00  -0.04   0.03    -0.04   0.03  -0.04
  46   6     0.06  -0.01   0.01    -0.07   0.04  -0.02     0.08  -0.04   0.01
  47   8    -0.03   0.03  -0.03     0.05  -0.04   0.02    -0.08   0.06  -0.03
  48   7    -0.05  -0.01  -0.02     0.07  -0.02   0.04    -0.08   0.01  -0.05
  49   1     0.16  -0.08   0.07    -0.24   0.11  -0.08     0.31  -0.14   0.10
  50   1     0.05  -0.04   0.02    -0.08   0.04  -0.03     0.10  -0.06   0.04
  51   7    -0.06   0.05   0.00     0.10  -0.05   0.00    -0.13   0.06   0.01
  52   1     0.09  -0.04   0.04    -0.13   0.06  -0.05     0.16  -0.08   0.07
  53   1     0.21  -0.12   0.07    -0.32   0.18  -0.11     0.37  -0.23   0.13
                     46                     47                     48
                        a                      a                      a 
 Frequencies --   470.3837               476.6227               481.9565
 Red. masses --     5.5870                 5.8229                 7.5566
 Frc consts  --     0.0000                 0.0000                 0.0000
 IR Inten    --    14.5986                15.3386                11.8113
 Raman Activ --     0.0000                 0.0000                 0.0000
 Depolar     --     0.0000                 0.0000                 0.0000
 Atom AN      X      Y      Z        X      Y      Z        X      Y      Z
   1   8    -0.01  -0.05  -0.01     0.01   0.04   0.02     0.00   0.01   0.00
   2   6    -0.02   0.02   0.01     0.01  -0.01  -0.01     0.00  -0.01  -0.00
   3   1     0.00   0.04   0.03    -0.01  -0.04  -0.03    -0.00  -0.01  -0.01
   4   1     0.02  -0.02   0.01    -0.03   0.04  -0.01    -0.01   0.01  -0.00
   5   6    -0.05   0.04  -0.12     0.05  -0.04   0.19     0.03  -0.01   0.02
   6   1    -0.06  -0.02  -0.11     0.09   0.04   0.17     0.01  -0.00   0.01
   7   1     0.07   0.04  -0.06    -0.13  -0.05   0.10     0.01   0.00   0.00
   8   7    -0.09   0.06   0.10     0.14  -0.07  -0.18     0.01  -0.03   0.00
   9   6     0.11  -0.01   0.08    -0.18  -0.03  -0.14    -0.01   0.02  -0.01
  10   1     0.06  -0.02   0.06    -0.09   0.00  -0.10    -0.00   0.01  -0.00
  11   1     0.05  -0.01  -0.04    -0.08   0.00   0.04    -0.00   0.01   0.01
  12   1     0.04  -0.01   0.03    -0.07  -0.00  -0.03    -0.01   0.01  -0.02
  13   6     0.09   0.05  -0.05    -0.13  -0.06   0.15    -0.03  -0.02  -0.02
  14   1     0.02  -0.04  -0.04    -0.03   0.09   0.09    -0.00  -0.00  -0.00
  15   1     0.06   0.03  -0.03    -0.09  -0.08   0.07    -0.02   0.01  -0.01
  16   1     0.05   0.04  -0.01    -0.07  -0.05   0.06    -0.01  -0.02  -0.02
  17   6    -0.10  -0.10   0.05     0.18   0.15  -0.08    -0.00   0.02  -0.00
  18   1    -0.04  -0.04   0.02     0.08   0.06  -0.03    -0.00   0.01  -0.00
  19   1     0.02  -0.04  -0.01    -0.01   0.06   0.02    -0.01   0.01   0.00
  20   1    -0.05  -0.05   0.01     0.08   0.08  -0.01     0.01   0.01  -0.01
  21   1    -0.00  -0.02   0.00    -0.00   0.02   0.00     0.01  -0.00   0.00
  22   6     0.03   0.00  -0.01    -0.03   0.04  -0.12     0.05  -0.10   0.21
  23   8    -0.01  -0.03  -0.00    -0.10  -0.04  -0.11     0.20   0.05   0.20
  24   7     0.03   0.00   0.01    -0.04  -0.09   0.13     0.11   0.15  -0.26
  25   1    -0.04   0.06   0.05     0.09  -0.03   0.10    -0.30   0.16  -0.11
  26   1     0.00  -0.03   0.01    -0.11  -0.06   0.06     0.22   0.08  -0.11
  27   7    -0.01   0.03  -0.02     0.16   0.08   0.03    -0.31  -0.15  -0.05
  28   1     0.00  -0.02  -0.02     0.05   0.13   0.03    -0.14  -0.17  -0.01
  29   1     0.00   0.01  -0.02     0.04  -0.01   0.08    -0.06  -0.01  -0.14
  30   6     0.14   0.12   0.11    -0.05   0.03  -0.03    -0.12  -0.01  -0.05
  31   8     0.22   0.12  -0.11    -0.06   0.02  -0.02    -0.15  -0.02  -0.03
  32   7    -0.16  -0.09   0.23     0.08  -0.07  -0.03     0.17  -0.04  -0.11
  33   1    -0.14   0.00  -0.02    -0.01   0.08  -0.01     0.09   0.07   0.03
  34   1    -0.06  -0.09   0.17     0.04  -0.07  -0.02     0.07   0.01  -0.12
  35   7    -0.12  -0.01  -0.18     0.01   0.10   0.07     0.03   0.09   0.17
  36   1    -0.07   0.20  -0.35    -0.10   0.23  -0.06    -0.10   0.19   0.06
[...]
  44   1     0.00   0.00  -0.00    -0.00  -0.00   0.00    -0.00  -0.01   0.01
  45   1    -0.00   0.00   0.00     0.01  -0.00  -0.01     0.01  -0.01  -0.02
  46   6    -0.00  -0.00  -0.00     0.00   0.01   0.00     0.00   0.00  -0.01
  47   8     0.00   0.00   0.00    -0.00  -0.00   0.00    -0.00  -0.00   0.01
  48   7    -0.00  -0.00   0.00    -0.04  -0.03   0.06     0.10   0.06  -0.17
  49   1    -0.00   0.00   0.00    -0.03  -0.08  -0.02     0.10   0.26   0.06
  50   1     0.00   0.00  -0.00     0.17   0.17  -0.21    -0.47  -0.47   0.57
  51   7    -0.00  -0.00   0.00     0.11   0.13  -0.12     0.04   0.05  -0.04
  52   1     0.00   0.00  -0.00    -0.43  -0.41   0.65    -0.15  -0.14   0.23
  53   1    -0.00   0.00   0.00     0.02  -0.09  -0.22     0.01  -0.04  -0.09
                    142                    143                    144
                        a                      a                      a 
 Frequencies --  3491.7240              3496.9693              3497.3945
 Red. masses --     1.4568                 1.4505                 1.4394
 Frc consts  --     0.0000                 0.0000                 0.0000
 IR Inten    --    13.8429                19.0940                41.1418
 Raman Activ --     0.0000                 0.0000                 0.0000
 Depolar     --     0.0000                 0.0000                 0.0000
 Atom AN      X      Y      Z        X      Y      Z        X      Y      Z
   1   8    -0.00  -0.00  -0.00    -0.00  -0.00   0.00    -0.00  -0.00  -0.00
   2   6     0.00   0.00   0.00     0.00   0.00   0.00    -0.00   0.00  -0.00
   3   1     0.00   0.00   0.00     0.00  -0.00  -0.00     0.00  -0.00   0.00
   4   1    -0.00  -0.00  -0.00    -0.00  -0.00  -0.00    -0.00  -0.00  -0.00
   5   6    -0.00  -0.00  -0.00    -0.00  -0.00   0.00    -0.00  -0.00  -0.00
   6   1    -0.00  -0.00   0.00     0.00   0.00  -0.00     0.00   0.00  -0.00
   7   1     0.00   0.00   0.00    -0.00  -0.00  -0.00     0.00   0.00   0.00
   8   7     0.00   0.00  -0.00     0.00  -0.00  -0.00     0.00  -0.00  -0.00
   9   6     0.00   0.00  -0.00    -0.00  -0.00   0.00    -0.00   0.00  -0.00
  10   1    -0.00  -0.00   0.00     0.00   0.00  -0.00    -0.00   0.00  -0.00
  11   1    -0.00  -0.00  -0.00    -0.00   0.00  -0.00     0.00  -0.00   0.00
  12   1     0.00   0.00  -0.00    -0.00  -0.00   0.00    -0.00  -0.00  -0.00
  13   6    -0.00  -0.00  -0.00    -0.00  -0.00   0.00    -0.00   0.00  -0.00
  14   1    -0.00  -0.00   0.00     0.00   0.00  -0.00    -0.00   0.00   0.00
  15   1     0.00   0.00   0.00    -0.00  -0.00  -0.00    -0.00   0.00   0.00
  16   1    -0.00   0.00  -0.00    -0.00   0.00   0.00     0.00  -0.00   0.00
  17   6     0.00  -0.00  -0.00     0.00  -0.00   0.00    -0.00  -0.00  -0.00
  18   1     0.00   0.00   0.00    -0.00  -0.00  -0.00    -0.00   0.00   0.00
  19   1    -0.00  -0.00  -0.00     0.00   0.00   0.00    -0.00   0.00  -0.00
  20   1    -0.00   0.00  -0.00    -0.00   0.00   0.00     0.00  -0.00   0.00
  21   1     0.00   0.00   0.00    -0.00  -0.00  -0.00     0.00   0.00   0.00
  22   6     0.00   0.00   0.00     0.00   0.00  -0.00    -0.00   0.00   0.00
  23   8    -0.00   0.00  -0.00    -0.00  -0.00   0.00    -0.00  -0.00  -0.00
  24   7     0.11   0.13   0.08    -0.00  -0.00  -0.00    -0.00  -0.00  -0.00
  25   1    -0.23  -0.48   0.39     0.00   0.00  -0.00     0.00   0.00  -0.00
  26   1    -0.16   0.00  -0.71     0.00  -0.00   0.00     0.00   0.00   0.00
  27   7    -0.01  -0.00  -0.01     0.00  -0.00   0.00     0.00  -0.00   0.00
  28   1     0.02  -0.01   0.03    -0.00   0.00  -0.00    -0.00   0.00  -0.00
  29   1     0.01   0.01   0.00     0.00   0.00   0.00     0.00   0.00   0.00
  30   6    -0.00  -0.00  -0.00     0.00   0.00  -0.00    -0.00  -0.00   0.00
  31   8     0.00   0.00   0.00    -0.00  -0.00  -0.00     0.00  -0.00   0.00
  32   7     0.00   0.00  -0.00    -0.01  -0.00   0.00    -0.00  -0.00  -0.00
  33   1    -0.01  -0.00   0.01     0.01   0.00  -0.01    -0.00   0.00   0.00
  34   1     0.01   0.00   0.00     0.03   0.01   0.01     0.00   0.00   0.00
  35   7     0.00   0.00  -0.00     0.12   0.06  -0.12    -0.00  -0.00   0.00
  36   1    -0.00  -0.00  -0.00    -0.60  -0.36  -0.18     0.00   0.00   0.00
  37   1     0.00   0.00   0.00     0.14   0.12   0.64    -0.00  -0.00  -0.00
  38   6     0.00   0.00  -0.00     0.00  -0.00  -0.00     0.00  -0.00  -0.00
  39   8    -0.00  -0.00   0.00    -0.00  -0.00   0.00    -0.00  -0.00  -0.00
  40   7    -0.00   0.00   0.00     0.00  -0.00  -0.00     0.08  -0.03  -0.10
  41   1     0.00  -0.00  -0.00    -0.00   0.00   0.00    -0.03   0.46   0.06
  42   1     0.00   0.00  -0.00    -0.00  -0.00   0.00    -0.28  -0.33   0.30
  43   7     0.00  -0.00  -0.00     0.00  -0.00  -0.00     0.01  -0.13  -0.00
  44   1     0.00   0.00  -0.00     0.00   0.00  -0.00     0.18   0.31  -0.35
  45   1    -0.00   0.00   0.00    -0.00   0.00   0.00    -0.24   0.16   0.36
  46   6     0.00   0.00  -0.00     0.00   0.00  -0.00     0.00   0.00   0.00
  47   8    -0.00  -0.00   0.00    -0.00  -0.00   0.00    -0.00  -0.00  -0.00
  48   7     0.00   0.00   0.00    -0.00   0.00   0.00    -0.00  -0.00   0.00
  49   1    -0.00  -0.00  -0.00    -0.00  -0.00  -0.00    -0.00  -0.00  -0.00
  50   1     0.00   0.00  -0.00     0.00   0.00  -0.00     0.00   0.00  -0.00
  51   7    -0.00  -0.00   0.00    -0.00  -0.00  -0.00     0.00   0.00   0.00
  52   1     0.00   0.00  -0.00     0.00   0.00  -0.00    -0.00  -0.00   0.00
  53   1    -0.00   0.00   0.00    -0.00   0.00   0.00     0.00  -0.00  -0.00
                    145                    146                    147
                        a                      a                      a 
 Frequencies --  3501.4770              3521.6973              3531.2644
 Red. masses --     1.4644                 1.8985                 1.9301
 Frc consts  --     0.0000                 0.0000                 0.0000
 IR Inten    --     4.6221                 9.2214                 5.9305
 Raman Activ --     0.0000                 0.0000                 0.0000
 Depolar     --     0.0000                 0.0000                 0.0000
 Atom AN      X      Y      Z        X      Y      Z        X      Y      Z
   1   8    -0.00  -0.00  -0.00     0.00   0.00   0.00     0.00   0.00   0.00
   2   6     0.00   0.00  -0.00     0.00   0.00  -0.00    -0.00   0.00   0.00
   3   1    -0.00   0.00  -0.00    -0.00   0.00  -0.00     0.00  -0.00   0.00
   4   1    -0.00  -0.00  -0.00    -0.00  -0.00   0.00    -0.00  -0.00  -0.00
   5   6    -0.00  -0.00   0.00    -0.00  -0.00  -0.00    -0.00  -0.00  -0.00
   6   1     0.00   0.00  -0.00    -0.00  -0.00   0.00    -0.00  -0.00   0.00
   7   1    -0.00  -0.00  -0.00     0.00   0.00   0.00     0.00   0.00   0.00
   8   7     0.00   0.00  -0.00     0.00   0.00  -0.00    -0.00  -0.00  -0.00
   9   6     0.00  -0.00   0.00     0.00   0.00   0.00    -0.00  -0.00   0.00
  10   1     0.00   0.00   0.00    -0.00   0.00   0.00     0.00  -0.00  -0.00
  11   1    -0.00   0.00   0.00    -0.00   0.00  -0.00    -0.00   0.00  -0.00
  12   1     0.00   0.00   0.00    -0.00  -0.00  -0.00     0.00  -0.00  -0.00
  13   6    -0.00  -0.00   0.00     0.00   0.00  -0.00    -0.00  -0.00  -0.00
  14   1     0.00  -0.00  -0.00    -0.00  -0.00   0.00    -0.00   0.00  -0.00
  15   1    -0.00  -0.00  -0.00     0.00  -0.00   0.00     0.00   0.00   0.00
  16   1    -0.00  -0.00   0.00    -0.00  -0.00  -0.00     0.00   0.00  -0.00
  17   6    -0.00  -0.00   0.00     0.00   0.00   0.00    -0.00   0.00   0.00
  18   1    -0.00  -0.00  -0.00     0.00   0.00  -0.00     0.00   0.00   0.00
  19   1     0.00   0.00   0.00    -0.00  -0.00  -0.00     0.00  -0.00  -0.00
  20   1     0.00  -0.00   0.00     0.00  -0.00  -0.00     0.00   0.00  -0.00
  21   1     0.00   0.00   0.00    -0.00  -0.00  -0.00    -0.00  -0.00  -0.00
  22   6    -0.00   0.00  -0.00    -0.01  -0.00  -0.01    -0.00   0.00  -0.00
  23   8     0.00  -0.00   0.00     0.00   0.00   0.00     0.00  -0.00   0.00
  24   7     0.00   0.00   0.00    -0.01  -0.02   0.02     0.00  -0.00   0.01
  25   1    -0.00  -0.00   0.00     0.03   0.06  -0.05     0.00   0.01  -0.01
  26   1    -0.00  -0.00  -0.00    -0.00  -0.00  -0.02    -0.00  -0.00  -0.02
  27   7    -0.00   0.00  -0.00    -0.12   0.04  -0.23    -0.00  -0.00  -0.00
  28   1     0.00  -0.00   0.00     0.43  -0.19   0.83     0.00  -0.00   0.01
  29   1    -0.00  -0.00  -0.00     0.05   0.06   0.01     0.00   0.00   0.00
  30   6     0.00   0.00  -0.00    -0.00   0.00   0.00     0.01   0.00  -0.00
  31   8    -0.00  -0.00  -0.00     0.00  -0.00  -0.00    -0.00  -0.00   0.00
  32   7    -0.00  -0.00   0.00    -0.00  -0.00  -0.00     0.25   0.07   0.04
  33   1     0.00   0.00  -0.00    -0.00  -0.00   0.00    -0.07  -0.02   0.10
  34   1     0.00   0.00   0.00     0.01   0.00   0.00    -0.87  -0.26  -0.25
  35   7     0.00   0.00  -0.00     0.00   0.00  -0.00    -0.01  -0.01  -0.02
  36   1    -0.00  -0.00  -0.00    -0.00  -0.00  -0.00     0.02   0.01   0.01
  37   1     0.00   0.00   0.00     0.00   0.00   0.00     0.02   0.01   0.08
  38   6     0.00   0.00  -0.00    -0.00  -0.00   0.00    -0.00  -0.00   0.00
  39   8    -0.00  -0.00   0.00     0.00   0.00  -0.00     0.00   0.00  -0.00
  40   7     0.08  -0.04  -0.10     0.00   0.00  -0.00     0.00   0.00  -0.00
  41   1    -0.03   0.46   0.06     0.00  -0.00   0.00     0.00   0.00   0.00
  42   1    -0.26  -0.32   0.28    -0.00  -0.00   0.00    -0.00  -0.00   0.00
  43   7    -0.02   0.13   0.01    -0.00  -0.00   0.00     0.00   0.00  -0.00
  44   1    -0.19  -0.32   0.36     0.00   0.00  -0.00    -0.00  -0.00   0.00
  45   1     0.25  -0.17  -0.38    -0.00   0.00   0.00     0.00  -0.00  -0.00
  46   6     0.00   0.00  -0.00    -0.00  -0.00   0.00    -0.00   0.00   0.00
  47   8     0.00   0.00  -0.00     0.00   0.00  -0.00    -0.00  -0.00   0.00
  48   7    -0.00   0.00   0.00     0.00  -0.00  -0.00     0.00   0.00   0.00
  49   1    -0.01  -0.01  -0.00     0.00   0.00   0.00    -0.01  -0.02  -0.00
  50   1     0.01   0.01  -0.01    -0.00  -0.00   0.00    -0.00  -0.00   0.00
  51   7    -0.00  -0.00  -0.00     0.00  -0.00  -0.01    -0.01   0.01   0.04
  52   1     0.01   0.01  -0.01    -0.00  -0.00   0.01     0.02   0.02  -0.02
  53   1    -0.00   0.01   0.02    -0.00   0.01   0.02     0.01  -0.05  -0.12
                    148                    149                    150
                        a                      a                      a 
 Frequencies --  3531.4705              3553.6792              3554.3743
 Red. masses --     2.0170                 2.0409                 2.1694
 Frc consts  --     0.0000                 0.0000                 0.0000
 IR Inten    --    88.2960                47.7193                 8.3589
 Raman Activ --     0.0000                 0.0000                 0.0000
 Depolar     --     0.0000                 0.0000                 0.0000
 Atom AN      X      Y      Z        X      Y      Z        X      Y      Z
   1   8    -0.00  -0.00  -0.00     0.00   0.00   0.00     0.00   0.00   0.00
   2   6     0.00   0.00  -0.00    -0.00  -0.00   0.00     0.00   0.00  -0.00
   3   1    -0.00   0.00   0.00     0.00  -0.00  -0.00    -0.00   0.00  -0.00
   4   1    -0.00  -0.00  -0.00    -0.00  -0.00   0.00    -0.00  -0.00  -0.00
   5   6    -0.00  -0.00   0.00     0.00  -0.00  -0.00     0.00  -0.00  -0.00
   6   1     0.00  -0.00  -0.00    -0.00   0.00   0.00    -0.00  -0.00   0.00
   7   1     0.00   0.00   0.00     0.00   0.00  -0.00     0.00   0.00   0.00
   8   7     0.00  -0.00  -0.00     0.00   0.00  -0.00     0.00   0.00  -0.00
   9   6    -0.00   0.00   0.00     0.00  -0.00   0.00     0.00   0.00   0.00
  10   1     0.00   0.00  -0.00     0.00   0.00   0.00    -0.00  -0.00   0.00
  11   1     0.00  -0.00  -0.00    -0.00   0.00   0.00    -0.00   0.00  -0.00
  12   1    -0.00   0.00  -0.00    -0.00  -0.00   0.00    -0.00  -0.00  -0.00
  13   6    -0.00   0.00  -0.00    -0.00   0.00  -0.00     0.00   0.00  -0.00
  14   1    -0.00   0.00  -0.00    -0.00  -0.00   0.00    -0.00  -0.00   0.00
  15   1     0.00   0.00   0.00     0.00   0.00   0.00     0.00   0.00   0.00
  16   1     0.00  -0.00   0.00    -0.00   0.00   0.00    -0.00  -0.00  -0.00
  17   6    -0.00  -0.00  -0.00     0.00   0.00   0.00     0.00   0.00   0.00
  18   1     0.00  -0.00   0.00    -0.00   0.00  -0.00    -0.00   0.00  -0.00
  19   1     0.00   0.00   0.00    -0.00  -0.00   0.00    -0.00  -0.00  -0.00
  20   1     0.00  -0.00  -0.00     0.00   0.00   0.00    -0.00   0.00   0.00
  21   1     0.00   0.01   0.02    -0.00  -0.00  -0.01    -0.00  -0.00  -0.00
  22   6    -0.00  -0.00   0.00    -0.00  -0.00   0.00     0.00   0.01  -0.01
  23   8    -0.00  -0.00  -0.00    -0.00   0.00  -0.00    -0.00  -0.00   0.00
  24   7     0.00   0.00   0.00    -0.00  -0.00   0.00     0.02   0.13  -0.27
  25   1    -0.00  -0.00   0.00     0.00   0.01  -0.01    -0.25  -0.53   0.39
  26   1    -0.00  -0.00  -0.00    -0.00  -0.00  -0.01     0.15   0.03   0.62
  27   7     0.00   0.00   0.00    -0.00  -0.00  -0.00    -0.01   0.00  -0.02
  28   1    -0.01   0.00  -0.02    -0.00   0.00  -0.00     0.03  -0.02   0.07
  29   1    -0.01  -0.00  -0.00     0.01   0.01   0.00     0.01   0.01   0.00
  30   6     0.00   0.00  -0.00     0.00   0.00   0.00     0.00  -0.00  -0.00
  31   8    -0.00  -0.00   0.00    -0.00  -0.00  -0.00     0.00   0.00   0.00
  32   7     0.04   0.01   0.01     0.00   0.00  -0.00     0.01   0.00  -0.00
  33   1    -0.01  -0.00   0.02    -0.00  -0.00   0.00    -0.01  -0.00   0.01
  34   1    -0.13  -0.04  -0.04    -0.00  -0.00  -0.00    -0.01  -0.00  -0.00
  35   7    -0.00  -0.00  -0.00    -0.00  -0.00  -0.00    -0.00  -0.00  -0.00
  36   1     0.00   0.00   0.00    -0.00  -0.00  -0.00     0.01   0.00   0.00
  37   1     0.00   0.00   0.01     0.00   0.00   0.00     0.00   0.00   0.01
  38   6     0.00   0.00  -0.00    -0.00  -0.00   0.00    -0.00  -0.00   0.00
  39   8    -0.00  -0.00   0.00     0.00   0.00  -0.00     0.00   0.00  -0.00
  40   7    -0.00  -0.00   0.00     0.00   0.01  -0.00     0.00   0.00  -0.00
  41   1     0.00  -0.00  -0.00     0.00  -0.01  -0.00     0.00  -0.00  -0.00
  42   1     0.01   0.01  -0.01    -0.01  -0.01   0.01    -0.00  -0.00   0.00
  43   7    -0.00  -0.00   0.00     0.00   0.00  -0.00     0.00   0.00  -0.00
  44   1     0.01   0.01  -0.01    -0.01  -0.01   0.01    -0.00  -0.00   0.00
  45   1    -0.00   0.00   0.00    -0.00   0.00   0.01    -0.00   0.00   0.00
  46   6     0.00  -0.00  -0.01    -0.00  -0.01   0.00    -0.00  -0.00   0.00
  47   8     0.00   0.00  -0.00     0.00   0.00  -0.00     0.00   0.00   0.00
  48   7    -0.01  -0.03  -0.00    -0.11  -0.26  -0.01    -0.00  -0.00  -0.00
  49   1     0.03   0.10   0.03     0.29   0.84   0.23     0.00   0.01   0.00
  50   1     0.01   0.01  -0.01     0.14   0.13  -0.18     0.00   0.00  -0.00
  51   7     0.04  -0.07  -0.26    -0.01   0.01   0.03    -0.00   0.00   0.00
  52   1    -0.11  -0.11   0.15     0.02   0.02  -0.03     0.00   0.00  -0.00
  53   1    -0.04   0.38   0.83     0.00  -0.04  -0.09     0.00  -0.00  -0.00
                    151                    152                    153
                        a                      a                      a 
 Frequencies --  3560.7104              3562.7382              3566.1561
 Red. masses --     2.1895                 2.1781                 2.1760
 Frc consts  --     0.0000                 0.0000                 0.0000
 IR Inten    --    14.3834                10.9199                17.9506
 Raman Activ --     0.0000                 0.0000                 0.0000
 Depolar     --     0.0000                 0.0000                 0.0000
 Atom AN      X      Y      Z        X      Y      Z        X      Y      Z
   1   8     0.00   0.00   0.00    -0.00  -0.00   0.00    -0.00  -0.00  -0.00
   2   6     0.00  -0.00   0.00     0.00   0.00  -0.00    -0.00   0.00   0.00
   3   1    -0.00   0.00  -0.00    -0.00   0.00  -0.00     0.00  -0.00   0.00
   4   1     0.00   0.00   0.00     0.00   0.00   0.00    -0.00  -0.00  -0.00
   5   6     0.00   0.00   0.00    -0.00  -0.00   0.00    -0.00   0.00   0.00
   6   1    -0.00  -0.00   0.00     0.00   0.00  -0.00     0.00   0.00  -0.00
   7   1    -0.00  -0.00  -0.00    -0.00  -0.00  -0.00    -0.00  -0.00   0.00
   8   7    -0.00   0.00  -0.00     0.00   0.00  -0.00     0.00  -0.00   0.00
   9   6     0.00  -0.00  -0.00    -0.00  -0.00   0.00    -0.00  -0.00   0.00
  10   1    -0.00  -0.00   0.00     0.00   0.00  -0.00     0.00   0.00  -0.00
  11   1    -0.00   0.00  -0.00    -0.00   0.00   0.00    -0.00   0.00  -0.00
  12   1     0.00   0.00   0.00    -0.00  -0.00   0.00    -0.00   0.00   0.00
  13   6     0.00  -0.00   0.00    -0.00  -0.00   0.00    -0.00  -0.00   0.00
  14   1     0.00  -0.00  -0.00     0.00  -0.00  -0.00     0.00   0.00  -0.00
  15   1    -0.00  -0.00  -0.00    -0.00  -0.00  -0.00    -0.00  -0.00  -0.00
  16   1    -0.00   0.00  -0.00    -0.00  -0.00   0.00     0.00  -0.00  -0.00
  17   6     0.00   0.00  -0.00     0.00  -0.00  -0.00    -0.00  -0.00  -0.00
  18   1     0.00  -0.00   0.00    -0.00  -0.00  -0.00     0.00  -0.00   0.00
  19   1     0.00  -0.00   0.00    -0.00   0.00   0.00     0.00   0.00   0.00
  20   1    -0.00   0.00  -0.00    -0.00   0.00   0.00     0.00  -0.00  -0.00
  21   1    -0.00  -0.00  -0.00    -0.00  -0.00  -0.00     0.00   0.00   0.00
  22   6     0.00  -0.00  -0.00     0.00  -0.00   0.00     0.00  -0.00   0.00
  23   8     0.00   0.00   0.00     0.00   0.00  -0.00    -0.00   0.00  -0.00
  24   7    -0.00  -0.00   0.00    -0.00  -0.00   0.00    -0.00  -0.00   0.00
  25   1     0.00   0.00  -0.00     0.00   0.01  -0.00     0.00   0.00  -0.00
  26   1    -0.00  -0.00  -0.00    -0.00  -0.00  -0.01    -0.00  -0.00  -0.00
  27   7     0.00   0.00   0.00     0.00   0.00   0.00     0.00   0.00   0.00
  28   1    -0.00   0.00  -0.00    -0.00   0.00  -0.00    -0.00   0.00  -0.00
  29   1    -0.00  -0.00  -0.00    -0.00  -0.00  -0.00    -0.00  -0.00  -0.00
  30   6    -0.00  -0.00  -0.00    -0.01  -0.00  -0.01     0.00   0.00   0.00
  31   8     0.00   0.00   0.00     0.00   0.00   0.00    -0.00  -0.00  -0.00
  32   7    -0.00  -0.00  -0.00    -0.02  -0.01  -0.00    -0.00  -0.00   0.00
  33   1     0.00   0.00  -0.00     0.01   0.00  -0.01     0.00   0.00  -0.00
  34   1     0.00   0.00   0.00     0.08   0.02   0.02     0.00   0.00   0.00
  35   7    -0.00  -0.00  -0.00    -0.18  -0.11  -0.21     0.00   0.00   0.00
  36   1     0.00   0.00   0.00     0.54   0.33   0.14    -0.00  -0.00  -0.00
  37   1     0.00   0.00   0.00     0.13   0.11   0.68    -0.00  -0.00  -0.00
  38   6    -0.00   0.01   0.01     0.00  -0.00  -0.00     0.01   0.01  -0.01
  39   8     0.00  -0.00  -0.00    -0.00  -0.00   0.00    -0.00  -0.00   0.00
  40   7     0.05   0.20  -0.05    -0.00  -0.00   0.00     0.05   0.20  -0.05
  41   1     0.05  -0.49  -0.08    -0.00   0.00   0.00     0.05  -0.49  -0.08
  42   1    -0.24  -0.26   0.26     0.00   0.00  -0.00    -0.25  -0.28   0.27
  43   7    -0.11  -0.03   0.18     0.00   0.00  -0.00     0.11   0.03  -0.18
  44   1     0.16   0.29  -0.31    -0.00  -0.00   0.00    -0.16  -0.30   0.31
  45   1     0.26  -0.20  -0.39    -0.00   0.00   0.00    -0.25   0.19   0.37
  46   6    -0.00  -0.00  -0.00     0.00   0.00  -0.00     0.00   0.00  -0.00
  47   8     0.00   0.00   0.00     0.00   0.00   0.00     0.00   0.00  -0.00
  48   7     0.00   0.00   0.00     0.00   0.00   0.00     0.00   0.01  -0.00
  49   1    -0.00  -0.00  -0.00    -0.00  -0.00  -0.00    -0.01  -0.02  -0.01
  50   1    -0.00  -0.00   0.00    -0.00  -0.00   0.00    -0.01  -0.01   0.01
  51   7    -0.00   0.00   0.00    -0.00   0.00   0.00     0.00   0.00  -0.01
  52   1     0.00   0.00  -0.00     0.00   0.00  -0.00    -0.01  -0.01   0.01
  53   1     0.00  -0.00  -0.00     0.00  -0.00  -0.00    -0.00   0.01   0.01
