 Entering Gaussian System
 *********************************************
 Gaussian 98:
 frequency output generated by the xtb code
 *********************************************
                         Standard orientation:
 --------------------------------------------------------------------
  Center     Atomic     Atomic              Coordinates (Angstroms)
  Number     Number      Type              X           Y           Z
 --------------------------------------------------------------------
    1          8             0        3.095379   -3.830531   -1.936221
    2          6             0        2.114690   -2.883662   -2.308644
    3          1             0        2.545911   -2.119437   -2.966919
    4          1             0        1.300005   -3.374841   -2.856605
    5          6             0        1.568699   -2.139166   -1.089248
    6          1             0        0.744281   -1.513439   -1.440062
    7          1             0        2.349848   -1.515019   -0.654795
    8          7             0        1.036859   -2.987136    0.012408
    9          6             0        0.222955   -2.122172    0.884433
   10          1             0       -0.144973   -2.691188    1.735093
   11          1             0       -0.614762   -1.737681    0.302485
   12          1             0        0.832532   -1.292371    1.235833
   13          6             0        2.146493   -3.545753    0.801502
   14          1             0        2.805578   -4.120369    0.155811
   15          1             0        1.757005   -4.184628    1.591472
   16          1             0        2.707955   -2.724369    1.244503
   17          6             0        0.179822   -4.057141   -0.517060
   18          1             0        0.773998   -4.767317   -1.086467
   19          1             0       -0.586184   -3.609838   -1.149718
   20          1             0       -0.300549   -4.584601    0.304793
   21          1             0        3.578036   -4.120902   -2.716078
   22          6             0        2.716756    0.357121    2.416701
   23          8             0        2.716337   -0.270341    1.352357
   24          7             0        3.739390    0.236125    3.297018
   25          1             0        4.558253   -0.270461    3.010810
   26          1             0        3.805198    0.814511    4.114561
   27          7             0        1.686940    1.136364    2.779868
   28          1             0        1.712557    1.671711    3.627981
   29          1             0        0.908277    1.281839    2.130044
   30          6             0        0.142614    1.728738   -0.292644
   31          8             0       -0.298561    1.585326    0.858191
   32          7             0       -0.505826    2.460963   -1.214428
   33          1             0       -1.474638    2.731914   -1.040558
   34          1             0       -0.196204    2.458630   -2.169571
   35          7             0        1.304985    1.155538   -0.665104
   36          1             0        1.727751    1.385122   -1.545641
   37          1             0        1.871461    0.685001    0.038594
   38          6             0       -2.091429   -0.321269   -1.604181
   39          8             0       -1.354291   -1.304661   -1.571047
   40          7             0       -2.352400    0.341006   -2.762714
   41          1             0       -2.156133   -0.130083   -3.628804
   42          1             0       -3.064932    1.050847   -2.769097
   43          7             0       -2.692611    0.189391   -0.508112
   44          1             0       -3.069463    1.131616   -0.559406
   45          1             0       -2.348950   -0.095538    0.393673
   46          6             0       -3.349623    3.495599    0.492175
   47          8             0       -3.217575    2.973870   -0.620070
   48          7             0       -4.332228    4.391961    0.728146
   49          1             0       -4.976233    4.602927   -0.012940
   50          1             0       -4.486862    4.798655    1.631985
   51          7             0       -2.539168    3.184794    1.518400
   52          1             0       -2.602831    3.667905    2.395446
   53          1             0       -1.729065    2.585757    1.344752
 --------------------------------------------------------------------
     1 basis functions        1 primitive gaussians
     1 alpha electrons        1 beta electrons

 Harmonic frequencies (cm**-1), IR intensities (km*mol⁻¹),
 Raman scattering activities (A**4/amu), Raman depolarization ratios,
 reduced masses (AMU), force constants (mDyne/A) and normal coordinates:
                      1                      2                      3
                        a                      a                      a 
 Frequencies --    16.8964                31.4495                32.6294
 Red. masses --    12.0868                12.1242                11.7677
 Frc consts  --     0.0000                 0.0000                 0.0000
 IR Inten    --     0.4978                 2.7842                 0.4766
 Raman Activ --     0.0000                 0.0000                 0.0000
 Depolar     --     0.0000                 0.0000                 0.0000
 Atom AN      X      Y      Z        X      Y      Z        X      Y      Z
   1   8    -0.07  -0.21   0.23    -0.28   0.01  -0.18    -0.28  -0.17  -0.28
   2   6     0.03  -0.13   0.10    -0.22   0.05  -0.10    -0.11   0.06  -0.08
   3   1     0.04  -0.06   0.03    -0.07   0.00  -0.04    -0.01   0.02  -0.00
   4   1     0.01  -0.03   0.02    -0.09   0.03  -0.00    -0.06   0.07  -0.03
   5   6     0.02  -0.03   0.04    -0.08   0.11  -0.07     0.05  -0.01   0.04
   6   1     0.02   0.00  -0.01    -0.03   0.03  -0.00     0.03   0.04   0.04
   7   1     0.01  -0.02   0.01    -0.01   0.03  -0.05     0.04  -0.04   0.02
   8   7    -0.09   0.06   0.06     0.02   0.17   0.02     0.01  -0.07  -0.03
   9   6    -0.07   0.16  -0.03     0.05   0.17   0.03     0.15  -0.07   0.10
  10   1    -0.04   0.06  -0.00     0.04   0.06   0.02     0.04  -0.03   0.02
  11   1    -0.00   0.05  -0.02     0.00   0.04   0.02     0.04   0.02   0.06
  12   1    -0.01   0.04  -0.01     0.01   0.06  -0.01     0.07  -0.05   0.04
  13   6    -0.16   0.02   0.13     0.10   0.24  -0.03    -0.02  -0.28  -0.14
  14   1    -0.05  -0.02   0.06     0.02   0.07  -0.02    -0.03  -0.08  -0.07
  15   1    -0.07   0.03   0.04     0.05   0.08   0.01    -0.02  -0.10  -0.06
  16   1    -0.04   0.00   0.03     0.03   0.08  -0.03     0.02  -0.11  -0.01
  17   6    -0.14   0.09   0.07     0.02   0.10   0.14    -0.14   0.09  -0.11
  18   1    -0.05   0.01   0.04     0.00   0.03   0.04    -0.07   0.02  -0.06
  19   1    -0.02   0.03   0.00    -0.01   0.01   0.05    -0.03   0.07  -0.01
  20   1    -0.06   0.05   0.02     0.03   0.04   0.06    -0.05   0.02  -0.04
  21   1    -0.01  -0.07   0.07    -0.10  -0.02  -0.06    -0.10  -0.04  -0.09
  22   6     0.09   0.05  -0.09     0.00   0.03   0.11     0.05   0.12   0.05
  23   8     0.06   0.03  -0.08     0.15   0.11   0.09     0.02   0.02   0.13
  24   7     0.15   0.12  -0.16    -0.03   0.11   0.17     0.12   0.29  -0.01
  25   1     0.04   0.03  -0.05     0.01   0.06   0.05     0.03   0.07   0.00
  26   1     0.05   0.04  -0.04    -0.04   0.01   0.06     0.03   0.09  -0.01
  27   7     0.09   0.03  -0.06    -0.12  -0.12   0.11     0.03   0.10   0.05
  28   1     0.03   0.02  -0.02    -0.06  -0.04   0.04     0.02   0.05  -0.00
  29   1     0.01  -0.00  -0.01    -0.02  -0.04   0.02    -0.00   0.01   0.02
  30   6    -0.00   0.00  -0.00     0.07  -0.09  -0.00    -0.01  -0.01   0.08
  31   8     0.01  -0.08  -0.01     0.01  -0.25  -0.05    -0.04   0.04   0.09
  32   7    -0.00   0.07   0.05     0.07  -0.11   0.00     0.04   0.02   0.07
  33   1    -0.00   0.02   0.02     0.02  -0.03  -0.01     0.01   0.01   0.01
  34   1    -0.00   0.03   0.01     0.04   0.01   0.01     0.01  -0.01   0.02
  35   7    -0.01   0.02  -0.05     0.16   0.04   0.04    -0.04  -0.08   0.10
  36   1    -0.00   0.02  -0.01     0.06   0.05   0.03    -0.00  -0.02   0.03
  37   1     0.00  -0.00  -0.02     0.04   0.02   0.01    -0.02  -0.02   0.03
  38   6     0.08   0.08  -0.19    -0.07  -0.08  -0.06     0.12   0.02   0.08
  39   8     0.08   0.09  -0.18    -0.12  -0.11   0.02     0.11   0.00   0.14
  40   7     0.22   0.14  -0.20     0.00  -0.13  -0.10     0.30   0.10   0.09
  41   1     0.08   0.05  -0.05     0.01  -0.04  -0.02     0.10   0.03   0.02
  42   1     0.05   0.03  -0.07     0.00  -0.03  -0.05     0.08   0.03   0.01
  43   7    -0.04   0.02  -0.24    -0.12  -0.03  -0.11    -0.01  -0.03   0.04
  44   1    -0.01   0.01  -0.06    -0.02  -0.00  -0.04     0.00  -0.01   0.01
  45   1    -0.04  -0.01  -0.06    -0.05  -0.01  -0.02    -0.04  -0.03   0.02
  46   6    -0.05  -0.12   0.13     0.09  -0.06  -0.01    -0.07  -0.03  -0.09
  47   8    -0.00   0.03   0.08     0.11   0.01  -0.05    -0.01  -0.05  -0.09
  48   7    -0.09  -0.20   0.24     0.20   0.03   0.01    -0.11  -0.05  -0.16
  49   1    -0.02  -0.03   0.07     0.06   0.04   0.00    -0.02  -0.02  -0.05
  50   1    -0.03  -0.09   0.08     0.04  -0.02   0.02    -0.04  -0.01  -0.05
  51   7    -0.07  -0.25   0.12     0.01  -0.26   0.01    -0.12   0.01  -0.06
  52   1    -0.03  -0.10   0.05     0.01  -0.08   0.01    -0.05   0.00  -0.02
  53   1    -0.01  -0.05   0.02    -0.00  -0.08  -0.01    -0.02   0.01  -0.00
                      4                      5                      6
                        a                      a                      a 
 Frequencies --    35.9455                41.8583                44.4057
 Red. masses --    11.0727                12.3751                12.5501
 Frc consts  --     0.0000                 0.0000                 0.0000
 IR Inten    --     1.1918                 0.9256                 0.3411
 Raman Activ --     0.0000                 0.0000                 0.0000
 Depolar     --     0.0000                 0.0000                 0.0000
 Atom AN      X      Y      Z        X      Y      Z        X      Y      Z
   1   8     0.13   0.06   0.09     0.22   0.19   0.05    -0.12  -0.45  -0.01
   2   6     0.18   0.12   0.07     0.03  -0.01   0.03     0.07  -0.24  -0.08
   3   1     0.08   0.04   0.05    -0.03   0.01  -0.00     0.06  -0.10  -0.03
   4   1     0.06   0.06  -0.01     0.03  -0.04   0.02     0.00  -0.04  -0.02
   5   6     0.13   0.06   0.09    -0.06  -0.05   0.01     0.15  -0.10  -0.12
   6   1     0.06   0.05   0.02    -0.03  -0.04   0.00     0.05  -0.02  -0.04
   7   1     0.04  -0.01   0.06    -0.03   0.01   0.00     0.05  -0.03  -0.05
   8   7    -0.06   0.02  -0.04     0.02  -0.09   0.03     0.14   0.00  -0.05
   9   6     0.01   0.04   0.00    -0.03  -0.13   0.03     0.11   0.07  -0.13
  10   1    -0.03   0.00  -0.02     0.00  -0.04   0.01     0.02   0.04  -0.03
  11   1     0.02   0.06  -0.00    -0.01  -0.05   0.01     0.04   0.02  -0.06
  12   1     0.03  -0.02   0.03    -0.02  -0.03   0.01     0.03   0.02  -0.05
  13   6    -0.19  -0.23  -0.03     0.06  -0.01   0.01     0.12   0.08   0.02
  14   1    -0.07  -0.08  -0.01     0.02   0.01   0.00     0.04   0.01   0.02
  15   1    -0.10  -0.07  -0.03     0.03  -0.01   0.01     0.03   0.04   0.02
  16   1    -0.03  -0.11   0.03     0.01   0.01  -0.00     0.03   0.04  -0.01
  17   6    -0.18   0.20  -0.21     0.08  -0.14   0.04     0.15  -0.05   0.04
  18   1    -0.07   0.05  -0.07     0.03  -0.03   0.01     0.05  -0.03   0.03
  19   1    -0.02   0.11  -0.06     0.01  -0.06   0.01     0.04  -0.03  -0.00
  20   1    -0.09   0.05  -0.09     0.04  -0.05   0.02     0.04   0.00   0.02
  21   1     0.05   0.03   0.03     0.07   0.07   0.01    -0.04  -0.15   0.00
  22   6     0.02   0.07   0.02    -0.05   0.00  -0.09    -0.09   0.02   0.03
  23   8     0.05   0.02   0.06    -0.05  -0.03  -0.09     0.03   0.11  -0.02
  24   7     0.08   0.27  -0.03     0.06   0.22  -0.21    -0.08   0.14   0.03
  25   1     0.03   0.08  -0.00     0.03   0.08  -0.06    -0.00   0.07   0.01
  26   1     0.00   0.07  -0.01     0.00   0.05  -0.05    -0.05   0.02   0.03
  27   7    -0.07  -0.04   0.03    -0.17  -0.19  -0.01    -0.24  -0.20   0.09
  28   1    -0.02   0.01  -0.01    -0.04  -0.02  -0.02    -0.08  -0.05   0.03
  29   1    -0.02  -0.03   0.01    -0.05  -0.06  -0.00    -0.05  -0.05   0.01
  30   6    -0.02  -0.13  -0.02    -0.10  -0.07  -0.01    -0.08  -0.02   0.01
  31   8    -0.06  -0.23  -0.04    -0.13  -0.15  -0.03    -0.09  -0.03   0.01
  32   7    -0.04  -0.17  -0.02    -0.06   0.02   0.03    -0.09  -0.01   0.02
  33   1    -0.01  -0.05  -0.01    -0.02   0.00   0.01    -0.03  -0.01   0.01
  34   1     0.00  -0.02  -0.00    -0.02   0.01   0.01    -0.03  -0.00   0.00
  35   7     0.04  -0.05   0.01    -0.11  -0.08  -0.04    -0.09  -0.03  -0.01
  36   1     0.01   0.00   0.01    -0.03  -0.00  -0.00    -0.03  -0.01  -0.00
  37   1     0.01  -0.01   0.01    -0.03  -0.03  -0.01    -0.02  -0.00  -0.00
  38   6    -0.07  -0.02  -0.02     0.01   0.03   0.05     0.05   0.10   0.00
  39   8     0.10   0.11  -0.05    -0.09  -0.04   0.13     0.19   0.21  -0.13
  40   7    -0.36  -0.16  -0.03     0.34   0.18   0.05    -0.14   0.14   0.06
  41   1    -0.10  -0.04  -0.01     0.12   0.06   0.02    -0.04   0.06   0.00
  42   1    -0.12  -0.06   0.00     0.10   0.06  -0.01    -0.05   0.02   0.05
  43   7    -0.02  -0.04   0.03    -0.19  -0.02  -0.04     0.07  -0.04   0.08
  44   1    -0.03  -0.02   0.01    -0.03   0.00  -0.01    -0.01  -0.02   0.04
  45   1     0.06   0.03  -0.00    -0.12  -0.05   0.00     0.06  -0.00   0.01
  46   6     0.08   0.01   0.02     0.04   0.07   0.02    -0.02   0.07   0.04
  47   8    -0.00  -0.03   0.03    -0.04   0.06   0.02    -0.11  -0.05   0.09
  48   7     0.21   0.15   0.02     0.27   0.34  -0.03     0.03   0.13   0.00
  49   1     0.05   0.05   0.01     0.07   0.10  -0.00    -0.00   0.02   0.01
  50   1     0.06   0.04   0.01     0.06   0.06   0.00     0.02   0.06  -0.01
  51   7     0.06  -0.07   0.01    -0.09  -0.14   0.06     0.04   0.15   0.02
  52   1     0.04  -0.01  -0.00     0.01  -0.01   0.01     0.03   0.06  -0.01
  53   1     0.00  -0.04  -0.00    -0.04  -0.05   0.01    -0.00   0.02   0.01
                      7                      8                      9
                        a                      a                      a 
 Frequencies --    47.1795                51.0780                53.6081
 Red. masses --    12.4728                12.0100                12.7806
 Frc consts  --     0.0000                 0.0000                 0.0000
 IR Inten    --     1.7698                 3.1501                 0.7599
 Raman Activ --     0.0000                 0.0000                 0.0000
 Depolar     --     0.0000                 0.0000                 0.0000
 Atom AN      X      Y      Z        X      Y      Z        X      Y      Z
   1   8     0.05  -0.03  -0.04    -0.03  -0.06  -0.09     0.07   0.12   0.02
   2   6    -0.00  -0.09  -0.09    -0.03  -0.03  -0.01    -0.05  -0.02  -0.02
   3   1    -0.01  -0.03  -0.04    -0.01   0.00   0.00    -0.04  -0.00  -0.02
   4   1     0.01  -0.04  -0.02    -0.01   0.00  -0.01    -0.00  -0.04   0.00
   5   6    -0.04  -0.05  -0.12    -0.00  -0.08   0.03    -0.10  -0.00  -0.05
   6   1    -0.02  -0.03  -0.04    -0.01  -0.02   0.02    -0.04  -0.02  -0.02
   7   1    -0.02   0.00  -0.04    -0.00  -0.02   0.01    -0.04   0.02  -0.02
   8   7     0.01  -0.03  -0.09     0.05  -0.15   0.02    -0.05   0.01  -0.02
   9   6    -0.06  -0.03  -0.14     0.03  -0.19   0.06    -0.09  -0.00  -0.05
  10   1    -0.02  -0.01  -0.04     0.02  -0.07   0.01    -0.02   0.00  -0.01
  11   1    -0.02  -0.02  -0.05     0.00  -0.06   0.03    -0.03  -0.01  -0.02
  12   1    -0.03  -0.00  -0.04     0.00  -0.05   0.02    -0.04   0.01  -0.01
  13   6     0.04   0.10  -0.03     0.08  -0.13  -0.02    -0.01   0.10  -0.00
  14   1     0.03   0.04   0.00     0.03  -0.02  -0.02     0.00   0.03   0.01
  15   1     0.02   0.03  -0.00     0.03  -0.05  -0.01     0.01   0.03   0.01
  16   1    -0.01   0.05  -0.02     0.02  -0.04   0.00    -0.02   0.04  -0.01
  17   6     0.09  -0.12  -0.03     0.08  -0.15  -0.00     0.01  -0.06   0.03
  18   1     0.04  -0.03   0.01     0.03  -0.03  -0.01     0.01  -0.01   0.02
  19   1     0.02  -0.06  -0.02     0.01  -0.05   0.01    -0.00  -0.04   0.00
  20   1     0.04  -0.03  -0.00     0.03  -0.06  -0.00     0.01  -0.01   0.01
  21   1     0.01  -0.01  -0.01    -0.02  -0.01  -0.03     0.02   0.03   0.01
  22   6     0.03   0.13   0.11    -0.13   0.08   0.01     0.09  -0.05   0.03
  23   8    -0.16  -0.10   0.27    -0.15   0.02   0.05     0.03  -0.12   0.07
  24   7     0.03   0.09   0.11    -0.10   0.20  -0.02     0.32   0.28  -0.20
  25   1    -0.02  -0.03   0.05    -0.03   0.05   0.00     0.08   0.08  -0.06
  26   1     0.06   0.08  -0.01    -0.03   0.06  -0.01     0.07   0.05  -0.03
  27   7     0.26   0.51  -0.05    -0.16   0.06  -0.01    -0.05  -0.32   0.22
  28   1     0.09   0.15  -0.02    -0.04   0.04  -0.02     0.03  -0.03   0.02
  29   1     0.04   0.09   0.01    -0.04   0.01  -0.01    -0.01  -0.08   0.06
  30   6    -0.05  -0.12   0.10     0.00   0.07  -0.05     0.02  -0.02   0.16
  31   8    -0.04  -0.04   0.13    -0.04   0.07  -0.07     0.01   0.00   0.18
  32   7    -0.04  -0.16   0.07     0.07   0.16  -0.04     0.06  -0.02   0.15
  33   1    -0.01  -0.03   0.02     0.02   0.07  -0.00     0.02   0.00   0.03
  34   1    -0.02  -0.07   0.02     0.02   0.06  -0.01     0.02  -0.01   0.04
  35   7    -0.09  -0.22   0.12    -0.03   0.00  -0.05     0.01  -0.07   0.18
  36   1    -0.02  -0.07   0.03     0.00   0.00  -0.01     0.00  -0.03   0.04
  37   1    -0.03  -0.04   0.04    -0.02  -0.01  -0.01    -0.00  -0.03   0.04
  38   6    -0.05  -0.00  -0.12     0.05  -0.04  -0.07    -0.06  -0.03  -0.10
  39   8    -0.06  -0.00  -0.18     0.04  -0.06   0.10    -0.10  -0.06  -0.10
  40   7    -0.05   0.05  -0.10    -0.06  -0.34  -0.22    -0.09  -0.08  -0.13
  41   1    -0.01   0.02  -0.03    -0.04  -0.15  -0.03    -0.04  -0.03  -0.03
  42   1    -0.02   0.01  -0.02    -0.02  -0.10  -0.09    -0.02  -0.01  -0.03
  43   7    -0.06  -0.05  -0.11     0.20   0.25  -0.13     0.01   0.04  -0.10
  44   1    -0.02  -0.01  -0.01     0.05   0.06  -0.08     0.01   0.01  -0.03
  45   1    -0.02  -0.03  -0.03     0.09   0.13  -0.03     0.01   0.02  -0.03
  46   6     0.04   0.03   0.05     0.03   0.08   0.12    -0.01   0.07  -0.06
  47   8     0.01  -0.02   0.07     0.13   0.30   0.06     0.05   0.03  -0.03
  48   7     0.13   0.15  -0.00    -0.03  -0.01   0.24    -0.21  -0.16  -0.06
  49   1     0.03   0.04  -0.00     0.00   0.03   0.06    -0.05  -0.05  -0.03
  50   1     0.03   0.04  -0.00    -0.02  -0.04   0.08    -0.03   0.02  -0.04
  51   7    -0.01  -0.00   0.07    -0.00  -0.04   0.13     0.13   0.35  -0.09
  52   1     0.01   0.01   0.01    -0.02  -0.05   0.06    -0.01   0.07  -0.01
  53   1    -0.01  -0.01   0.03     0.01   0.00   0.02     0.03   0.08  -0.00
                     10                     11                     12
                        a                      a                      a 
 Frequencies --    55.9733                59.7137                68.5538
 Red. masses --    12.5266                12.1484                11.0740
 Frc consts  --     0.0000                 0.0000                 0.0000
 IR Inten    --     0.3284                 1.1653                 5.3497
 Raman Activ --     0.0000                 0.0000                 0.0000
 Depolar     --     0.0000                 0.0000                 0.0000
 Atom AN      X      Y      Z        X      Y      Z        X      Y      Z
   1   8    -0.04  -0.08   0.02     0.07   0.07   0.03    -0.39  -0.05  -0.00
   2   6    -0.00  -0.04  -0.00    -0.04  -0.07  -0.03    -0.03   0.31   0.10
   3   1     0.01  -0.02   0.00    -0.04  -0.02  -0.02     0.07   0.10   0.09
   4   1    -0.00  -0.01  -0.00     0.00  -0.05  -0.00    -0.03   0.19  -0.03
   5   6    -0.01  -0.02  -0.01    -0.11  -0.06  -0.07     0.01   0.16   0.20
   6   1    -0.00  -0.01  -0.01    -0.04  -0.04  -0.03     0.01   0.07   0.08
   7   1    -0.00  -0.00  -0.01    -0.05   0.00  -0.02     0.00   0.03   0.09
   8   7     0.01  -0.01   0.00    -0.08  -0.05  -0.05    -0.00   0.01   0.09
   9   6    -0.03  -0.02  -0.03    -0.12  -0.05  -0.08    -0.22  -0.18   0.06
  10   1    -0.01  -0.01  -0.01    -0.04  -0.01  -0.02    -0.06  -0.09  -0.00
  11   1    -0.01  -0.02  -0.01    -0.04  -0.03  -0.03    -0.07  -0.08  -0.00
  12   1    -0.02  -0.00  -0.01    -0.04  -0.01  -0.02    -0.11  -0.03   0.05
  13   6     0.02   0.05   0.03    -0.06   0.04  -0.01     0.00   0.11   0.15
  14   1     0.01   0.01   0.01    -0.00   0.02   0.00     0.04   0.07   0.05
  15   1     0.01   0.02   0.01    -0.01   0.01   0.00     0.00  -0.00   0.02
  16   1    -0.00   0.02   0.00    -0.03   0.02  -0.01    -0.05   0.05   0.07
  17   6     0.06  -0.06   0.02    -0.02  -0.11  -0.01     0.23  -0.08  -0.10
  18   1     0.03  -0.01   0.01     0.01  -0.03   0.01     0.12   0.02  -0.03
  19   1     0.01  -0.03  -0.00    -0.01  -0.05  -0.01     0.06  -0.04  -0.04
  20   1     0.02  -0.02   0.01    -0.00  -0.03   0.00     0.07  -0.07  -0.06
  21   1    -0.01  -0.02   0.01     0.03   0.02   0.01    -0.11  -0.02  -0.01
  22   6     0.10  -0.07  -0.04    -0.10   0.08   0.04    -0.04  -0.03  -0.06
  23   8     0.02  -0.10  -0.03    -0.15  -0.05   0.13    -0.15  -0.12  -0.02
  24   7     0.18  -0.05  -0.13    -0.03   0.30  -0.02     0.04   0.04  -0.16
  25   1     0.04  -0.02  -0.04    -0.01   0.06   0.01    -0.00  -0.01  -0.04
  26   1     0.06  -0.02  -0.03    -0.02   0.09  -0.01     0.03   0.02  -0.05
  27   7     0.13  -0.06   0.02    -0.14   0.06   0.01    -0.00   0.01  -0.05
  28   1     0.06  -0.01   0.00    -0.02   0.06  -0.03     0.02   0.03  -0.03
  29   1     0.03  -0.01   0.02    -0.03   0.00  -0.01    -0.01  -0.00  -0.01
  30   6     0.03   0.10   0.12     0.13   0.00  -0.10    -0.00   0.02  -0.02
  31   8    -0.01   0.06   0.12     0.07  -0.06  -0.16    -0.02  -0.07  -0.03
  32   7     0.06   0.14   0.13     0.20   0.06  -0.11    -0.03   0.01  -0.00
  33   1     0.01   0.03   0.02     0.05   0.01  -0.04    -0.01  -0.02  -0.00
  34   1     0.03   0.05   0.04     0.07   0.03  -0.03    -0.00   0.02   0.00
  35   7     0.04   0.14   0.14     0.17   0.02  -0.05     0.05   0.13  -0.00
  36   1     0.01   0.04   0.04     0.06   0.01  -0.00     0.01   0.03  -0.00
  37   1     0.00   0.01   0.03     0.02  -0.01  -0.01     0.00   0.01  -0.01
  38   6    -0.01   0.04   0.02    -0.01   0.09   0.12     0.08  -0.04  -0.06
  39   8     0.04   0.08  -0.03    -0.07   0.06  -0.09     0.14  -0.01  -0.16
  40   7    -0.26  -0.07   0.02    -0.11   0.28   0.25     0.02   0.03  -0.01
  41   1    -0.10  -0.03   0.00    -0.06   0.11   0.04     0.00   0.02  -0.01
  42   1    -0.07  -0.02   0.03    -0.00   0.10   0.12    -0.00  -0.00   0.02
  43   7     0.16   0.10   0.09     0.12  -0.01   0.26     0.10  -0.14  -0.01
  44   1     0.03   0.02   0.02     0.04   0.00   0.09     0.01  -0.04   0.02
  45   1     0.10   0.06   0.02     0.06  -0.02   0.05     0.04  -0.04  -0.01
  46   6    -0.12  -0.02  -0.11     0.07  -0.13  -0.02     0.05  -0.04   0.02
  47   8    -0.01   0.08  -0.17     0.18  -0.03  -0.07    -0.05  -0.18   0.08
  48   7     0.07   0.22  -0.24    -0.02  -0.27   0.03     0.11   0.04  -0.02
  49   1     0.04   0.08  -0.08     0.00  -0.06   0.00     0.01  -0.01   0.00
  50   1    -0.05  -0.02  -0.04    -0.01  -0.09   0.01     0.04   0.03  -0.01
  51   7    -0.44  -0.38   0.03     0.06  -0.18  -0.03     0.11   0.06   0.00
  52   1    -0.11  -0.08   0.00    -0.00  -0.08   0.01     0.05   0.04  -0.01
  53   1    -0.10  -0.07   0.01     0.03  -0.03  -0.02     0.02  -0.00   0.00
                     13                     14                     15
                        a                      a                      a 
 Frequencies --    70.6090                85.8683                87.2632
 Red. masses --    13.3212                12.7672                12.4757
 Frc consts  --     0.0000                 0.0000                 0.0000
 IR Inten    --     0.9154                 1.8986                 7.5201
 Raman Activ --     0.0000                 0.0000                 0.0000
 Depolar     --     0.0000                 0.0000                 0.0000
 Atom AN      X      Y      Z        X      Y      Z        X      Y      Z
   1   8    -0.06   0.04  -0.03    -0.09  -0.07   0.05    -0.05  -0.31   0.11
   2   6    -0.00   0.11   0.04     0.11   0.12   0.02     0.25   0.01   0.00
   3   1     0.01   0.04   0.03     0.09   0.03   0.03     0.16  -0.01   0.04
   4   1    -0.01   0.05   0.00     0.03   0.08  -0.03     0.07   0.07  -0.06
   5   6     0.04   0.05   0.09     0.09   0.11   0.02     0.17   0.02  -0.03
   6   1     0.01   0.02   0.04     0.04   0.04   0.00     0.06   0.01  -0.02
   7   1     0.02   0.01   0.03     0.03   0.02   0.02     0.04   0.00   0.01
   8   7     0.08  -0.00   0.08     0.02   0.09  -0.04     0.07   0.01  -0.10
   9   6     0.02  -0.08   0.08    -0.06   0.05  -0.07    -0.03  -0.02  -0.16
  10   1    -0.00  -0.04   0.01    -0.03   0.01  -0.03    -0.02  -0.01  -0.06
  11   1     0.01  -0.02   0.02    -0.01   0.01  -0.03    -0.00  -0.01  -0.06
  12   1    -0.01  -0.02   0.04    -0.03   0.02  -0.01    -0.02  -0.00  -0.03
  13   6     0.11   0.05   0.06    -0.03   0.09   0.04    -0.01   0.01   0.02
  14   1     0.04   0.03   0.01     0.01   0.03   0.02     0.01  -0.00   0.03
  15   1     0.04   0.00   0.02    -0.02   0.02   0.00    -0.03   0.01  -0.00
  16   1     0.02   0.02   0.02    -0.02   0.03   0.03    -0.02   0.00   0.02
  17   6     0.15  -0.05   0.04     0.08   0.09  -0.12     0.14   0.00  -0.21
  18   1     0.06   0.00   0.01     0.04   0.04  -0.03     0.06   0.02  -0.06
  19   1     0.04  -0.03   0.02     0.03   0.03  -0.04     0.04   0.00  -0.06
  20   1     0.06  -0.03   0.01     0.01   0.01  -0.05     0.03  -0.02  -0.08
  21   1    -0.02   0.02  -0.01    -0.02  -0.03   0.02     0.00  -0.09   0.05
  22   6     0.06  -0.07  -0.02     0.00  -0.02   0.05     0.01   0.02  -0.02
  23   8     0.08  -0.14   0.01     0.00   0.03   0.04     0.02  -0.01  -0.00
  24   7     0.03  -0.07   0.02     0.06   0.04  -0.01    -0.00   0.02  -0.00
  25   1     0.01  -0.02   0.02     0.01   0.01  -0.01    -0.00   0.00   0.00
  26   1     0.01  -0.00  -0.01     0.00  -0.02   0.02     0.00   0.02  -0.01
  27   7     0.08  -0.02  -0.10    -0.07  -0.15   0.17     0.04   0.07  -0.07
  28   1     0.01  -0.00  -0.03     0.01  -0.01   0.03     0.00   0.01  -0.01
  29   1     0.02  -0.02  -0.02     0.01   0.01   0.03    -0.00  -0.00  -0.01
  30   6    -0.04  -0.19  -0.04     0.01  -0.02  -0.09     0.03   0.06   0.05
  31   8    -0.06  -0.20  -0.05     0.20   0.43   0.02    -0.06  -0.13  -0.01
  32   7    -0.01  -0.21  -0.06     0.02  -0.15  -0.20     0.07   0.15   0.10
  33   1     0.01  -0.02  -0.02     0.02   0.01  -0.03     0.01   0.02   0.01
  34   1     0.00  -0.05  -0.01    -0.05  -0.15  -0.07     0.04   0.09   0.03
  35   7    -0.05  -0.24  -0.02    -0.19  -0.42  -0.15     0.10   0.18   0.07
  36   1    -0.01  -0.07  -0.01    -0.06  -0.17  -0.06     0.05   0.09   0.04
  37   1    -0.01  -0.05  -0.00    -0.03  -0.05  -0.02     0.02   0.03   0.01
  38   6    -0.05   0.23   0.05    -0.04  -0.04   0.03    -0.21  -0.07   0.10
  39   8     0.12   0.40   0.16    -0.19  -0.14   0.01    -0.38  -0.18   0.21
  40   7    -0.12   0.11  -0.00     0.04   0.02   0.04     0.02  -0.04   0.07
  41   1     0.01   0.03   0.01    -0.02  -0.01   0.01     0.02  -0.02   0.03
  42   1    -0.05   0.01  -0.02     0.03   0.02   0.02     0.03   0.01  -0.01
  43   7    -0.21   0.20  -0.01     0.05   0.04   0.04    -0.30   0.02   0.02
  44   1    -0.07   0.05  -0.03     0.04   0.02   0.02    -0.04   0.02  -0.01
  45   1    -0.04   0.09   0.00    -0.02  -0.02   0.01    -0.13  -0.01   0.02
  46   6    -0.03   0.04  -0.08     0.00  -0.01   0.04     0.03   0.05  -0.03
  47   8     0.04   0.26  -0.18     0.12   0.07   0.02     0.09   0.15  -0.08
  48   7    -0.18  -0.17   0.08     0.02   0.02  -0.01    -0.06  -0.07   0.02
  49   1    -0.03   0.01   0.02     0.01  -0.00  -0.01    -0.00   0.01  -0.00
  50   1    -0.03  -0.05   0.02    -0.04  -0.04   0.01    -0.01  -0.01   0.00
  51   7    -0.00  -0.03  -0.13    -0.14  -0.15   0.12     0.05   0.05  -0.06
  52   1    -0.04  -0.07  -0.00    -0.03  -0.02   0.02    -0.01  -0.03   0.00
  53   1    -0.00  -0.01  -0.04    -0.00   0.01   0.02     0.00   0.00  -0.01
                     16                     17                     18
                        a                      a                      a 
 Frequencies --    97.8095               122.0986               126.1951
 Red. masses --    13.1660                13.0274                13.2837
 Frc consts  --     0.0000                 0.0000                 0.0000
 IR Inten    --    15.8376                 1.6142                10.0249
 Raman Activ --     0.0000                 0.0000                 0.0000
 Depolar     --     0.0000                 0.0000                 0.0000
 Atom AN      X      Y      Z        X      Y      Z        X      Y      Z
   1   8    -0.02   0.04   0.03    -0.01  -0.04   0.05     0.06  -0.01  -0.04
   2   6     0.01   0.05   0.00     0.03  -0.02  -0.03     0.02  -0.04  -0.03
   3   1     0.01   0.01  -0.00     0.02  -0.01  -0.01    -0.00  -0.03  -0.03
   4   1    -0.00   0.02   0.00     0.01  -0.00  -0.02    -0.00  -0.02   0.02
   5   6     0.02   0.08  -0.01    -0.02   0.02  -0.07     0.11   0.06  -0.05
   6   1     0.01   0.03  -0.01    -0.01  -0.01  -0.03     0.04   0.03  -0.02
   7   1     0.01   0.02  -0.00    -0.01   0.01  -0.02     0.05   0.00  -0.03
   8   7    -0.01   0.11  -0.00    -0.04   0.04  -0.07     0.07   0.17   0.00
   9   6    -0.02   0.12  -0.03    -0.06   0.04  -0.08     0.15   0.23   0.01
  10   1    -0.01   0.04  -0.01    -0.01   0.01  -0.02     0.04   0.08   0.01
  11   1    -0.01   0.03  -0.01    -0.02   0.00  -0.03     0.05   0.08   0.01
  12   1    -0.01   0.04  -0.01    -0.02   0.02  -0.03     0.07   0.05  -0.01
  13   6    -0.03   0.11   0.02    -0.05   0.07  -0.02     0.05   0.11  -0.01
  14   1    -0.01   0.03   0.01    -0.01   0.01   0.00     0.00   0.02  -0.00
  15   1    -0.01   0.04   0.01    -0.02   0.03  -0.00     0.01   0.04   0.00
  16   1    -0.01   0.03   0.00    -0.02   0.03  -0.01     0.03   0.03  -0.01
  17   6    -0.02   0.11  -0.01    -0.02   0.02  -0.06    -0.05   0.22   0.08
  18   1    -0.01   0.03   0.00    -0.00   0.01  -0.01    -0.04   0.04   0.03
  19   1    -0.00   0.04  -0.01    -0.01   0.00  -0.02    -0.01   0.08   0.03
  20   1    -0.01   0.04  -0.00    -0.01   0.01  -0.02    -0.02   0.09   0.03
  21   1    -0.01   0.00   0.01     0.01  -0.02   0.02    -0.01  -0.03  -0.01
  22   6     0.00   0.00  -0.08     0.02  -0.04   0.02    -0.17  -0.17  -0.02
  23   8     0.08   0.01  -0.10     0.00  -0.11   0.06    -0.46  -0.49   0.14
  24   7    -0.09  -0.06   0.01     0.04   0.03   0.00    -0.00  -0.00  -0.23
  25   1    -0.01  -0.00   0.01     0.01  -0.01   0.01    -0.05  -0.08  -0.05
  26   1    -0.03   0.00  -0.01     0.01   0.01  -0.00     0.04   0.02  -0.08
  27   7     0.01   0.06  -0.18     0.02  -0.02  -0.01    -0.06  -0.01  -0.05
  28   1    -0.03  -0.02  -0.02     0.01   0.01  -0.01     0.05   0.07  -0.06
  29   1    -0.02  -0.02  -0.03     0.01  -0.01  -0.00    -0.03  -0.01  -0.00
  30   6    -0.11  -0.14   0.05    -0.02  -0.10  -0.03    -0.01   0.02  -0.02
  31   8    -0.23  -0.37  -0.01    -0.04  -0.11  -0.04    -0.04   0.04  -0.04
  32   7     0.10   0.23   0.20    -0.21  -0.46  -0.17     0.02   0.04  -0.04
  33   1     0.02   0.06   0.04    -0.04  -0.09  -0.04     0.01   0.01  -0.01
  34   1     0.04   0.09   0.06    -0.04  -0.10  -0.04     0.01   0.01  -0.01
  35   7    -0.24  -0.35  -0.05     0.19   0.23   0.11     0.00   0.03   0.02
  36   1    -0.03  -0.01   0.03     0.03   0.03   0.01     0.00  -0.02   0.00
  37   1    -0.05  -0.08  -0.01     0.04   0.05   0.02    -0.03  -0.03  -0.00
  38   6     0.11  -0.06   0.05     0.14   0.01   0.07     0.03  -0.04   0.06
  39   8    -0.05  -0.20  -0.05    -0.06  -0.16   0.08     0.13   0.04   0.15
  40   7     0.06  -0.02   0.09     0.23  -0.00   0.05     0.04  -0.12   0.02
  41   1    -0.04  -0.02   0.02     0.00  -0.04   0.02     0.04  -0.04   0.02
  42   1     0.05   0.02   0.05     0.08   0.02   0.01    -0.01  -0.05  -0.02
  43   7     0.37   0.05   0.13     0.35   0.20   0.09    -0.08  -0.06   0.02
  44   1     0.10   0.01   0.04     0.08   0.05   0.01    -0.02  -0.02  -0.00
  45   1     0.13   0.02   0.03     0.09   0.06   0.03    -0.03  -0.00   0.01
  46   6     0.01   0.04  -0.02    -0.12   0.09   0.01     0.04  -0.01   0.02
  47   8     0.11   0.08  -0.02    -0.23   0.16  -0.03     0.09  -0.02   0.03
  48   7    -0.06  -0.02  -0.06    -0.10   0.10   0.14     0.02  -0.02  -0.03
  49   1     0.01   0.01  -0.03    -0.04   0.05   0.06     0.01  -0.01  -0.01
  50   1    -0.02   0.01  -0.02    -0.00   0.01   0.05    -0.01  -0.01  -0.01
  51   7    -0.00   0.09   0.00    -0.06   0.03  -0.06     0.01   0.01   0.05
  52   1    -0.04  -0.01   0.02    -0.01  -0.01  -0.01    -0.01   0.00   0.01
  53   1    -0.02  -0.00   0.02    -0.03  -0.00  -0.03     0.00   0.00   0.02
                     19                     20                     21
                        a                      a                      a 
 Frequencies --   130.8195               144.4533               151.6599
 Red. masses --    12.7114                13.7852                12.5929
 Frc consts  --     0.0000                 0.0000                 0.0000
 IR Inten    --    20.0929                 8.7313                20.0718
 Raman Activ --     0.0000                 0.0000                 0.0000
 Depolar     --     0.0000                 0.0000                 0.0000
 Atom AN      X      Y      Z        X      Y      Z        X      Y      Z
   1   8     0.00  -0.02   0.00    -0.01  -0.00   0.03     0.03  -0.01  -0.09
   2   6     0.01  -0.01  -0.02    -0.00  -0.01  -0.02     0.01   0.03   0.07
   3   1     0.01  -0.01  -0.00     0.00  -0.01  -0.00    -0.01   0.02   0.02
   4   1     0.01  -0.00  -0.01     0.00  -0.01  -0.01    -0.02   0.02   0.03
   5   6     0.00   0.00  -0.03    -0.04   0.01  -0.04     0.13  -0.01   0.14
   6   1     0.00   0.00  -0.01    -0.02  -0.01  -0.02     0.04   0.01   0.06
   7   1    -0.00   0.00  -0.01    -0.02   0.01  -0.01     0.05  -0.02   0.04
   8   7    -0.00   0.01  -0.03    -0.04   0.01  -0.04     0.15  -0.04   0.14
   9   6    -0.01   0.02  -0.03    -0.06  -0.00  -0.04     0.24   0.01   0.18
  10   1     0.00   0.01  -0.00    -0.01   0.00  -0.01     0.08   0.01   0.06
  11   1    -0.01  -0.00  -0.01    -0.02  -0.01  -0.01     0.06   0.01   0.07
  12   1    -0.01   0.01  -0.02    -0.02   0.01  -0.02     0.08  -0.00   0.03
  13   6    -0.01   0.02  -0.01    -0.04   0.04  -0.02     0.14  -0.18   0.03
  14   1     0.00   0.01  -0.00    -0.01   0.01   0.00     0.02  -0.05  -0.02
  15   1    -0.01   0.00  -0.01    -0.01   0.02  -0.00     0.04  -0.07  -0.01
  16   1    -0.01   0.01   0.00    -0.01   0.01  -0.01     0.06  -0.08   0.02
  17   6     0.00   0.01  -0.03    -0.02  -0.01  -0.03     0.01   0.06   0.14
  18   1     0.00   0.00  -0.00     0.00  -0.00  -0.01    -0.03   0.01   0.02
  19   1     0.00   0.00  -0.01    -0.00  -0.01  -0.01     0.00   0.04   0.05
  20   1    -0.00   0.00  -0.01    -0.01  -0.00  -0.01     0.00   0.02   0.04
  21   1    -0.00  -0.01   0.00     0.01  -0.00   0.01    -0.03  -0.00  -0.04
  22   6    -0.05   0.06   0.09    -0.12   0.12  -0.16    -0.05  -0.01  -0.01
  23   8    -0.31   0.23   0.01    -0.12   0.31  -0.29    -0.15  -0.00  -0.02
  24   7     0.11  -0.14  -0.13    -0.13  -0.09  -0.19     0.00  -0.07  -0.09
  25   1     0.00  -0.04  -0.10    -0.03   0.00  -0.09    -0.01  -0.02  -0.04
  26   1     0.09  -0.08  -0.01    -0.02  -0.05  -0.03     0.03  -0.02  -0.02
  27   7     0.05   0.07   0.39    -0.11   0.07  -0.05    -0.01   0.01   0.05
  28   1     0.05  -0.00   0.11    -0.03  -0.03   0.02     0.01   0.01   0.01
  29   1     0.01   0.04   0.12    -0.04   0.04  -0.00    -0.01   0.01   0.02
  30   6    -0.06  -0.00   0.02    -0.03  -0.05   0.17    -0.06  -0.00   0.02
  31   8     0.07  -0.08   0.07    -0.05   0.08   0.23    -0.03  -0.02   0.04
  32   7    -0.10   0.11   0.14    -0.10  -0.31   0.05    -0.14  -0.12   0.00
  33   1    -0.03   0.01   0.03    -0.02  -0.05   0.01    -0.03  -0.02   0.00
  34   1    -0.04   0.04   0.03    -0.01  -0.09   0.02    -0.03  -0.02   0.00
  35   7    -0.14  -0.05  -0.13     0.03   0.06   0.28    -0.00   0.11   0.02
  36   1    -0.05   0.01  -0.03    -0.03  -0.04   0.04    -0.01   0.03  -0.00
  37   1    -0.03  -0.00  -0.03     0.01   0.00   0.07     0.00   0.03   0.00
  38   6     0.03   0.02   0.05     0.06  -0.00   0.04    -0.10  -0.04  -0.15
  39   8     0.03   0.02   0.11     0.15   0.06   0.08    -0.31  -0.18  -0.40
  40   7     0.03  -0.05   0.01     0.04  -0.07   0.03    -0.11   0.26   0.01
  41   1     0.00  -0.03   0.01     0.05  -0.01   0.01    -0.09   0.11  -0.03
  42   1     0.01  -0.01  -0.01     0.01  -0.02  -0.00     0.01   0.11   0.07
  43   7     0.07   0.11   0.03    -0.02  -0.06   0.03     0.09  -0.09  -0.01
  44   1    -0.01   0.02  -0.02    -0.00  -0.01   0.00     0.04  -0.02   0.04
  45   1     0.02   0.05   0.01     0.01   0.00   0.01     0.02  -0.07  -0.02
  46   6     0.05  -0.07  -0.13     0.17  -0.01  -0.01     0.04   0.08  -0.03
  47   8    -0.21   0.00  -0.22     0.40   0.09  -0.04     0.12   0.24  -0.10
  48   7     0.14  -0.06   0.14     0.03  -0.15  -0.10    -0.03  -0.02   0.06
  49   1     0.01   0.02   0.08     0.06  -0.01  -0.07     0.01   0.04   0.01
  50   1     0.11  -0.02   0.05    -0.02  -0.02  -0.04    -0.00  -0.02   0.02
  51   7     0.24  -0.17  -0.32     0.04  -0.03   0.09     0.01  -0.01  -0.04
  52   1     0.09  -0.07  -0.07    -0.04  -0.04   0.04    -0.03  -0.05   0.01
  53   1     0.05  -0.06  -0.11     0.02   0.00   0.04     0.00  -0.01  -0.01
                     22                     23                     24
                        a                      a                      a 
 Frequencies --   170.2139               172.8580               192.8696
 Red. masses --    12.9513                13.2003                12.3122
 Frc consts  --     0.0000                 0.0000                 0.0000
 IR Inten    --     4.3562                 5.9359                11.6645
 Raman Activ --     0.0000                 0.0000                 0.0000
 Depolar     --     0.0000                 0.0000                 0.0000
 Atom AN      X      Y      Z        X      Y      Z        X      Y      Z
   1   8    -0.01   0.00   0.03     0.00  -0.02  -0.00    -0.07  -0.06   0.19
   2   6     0.00   0.00  -0.00     0.03   0.02   0.02     0.07   0.04   0.02
   3   1     0.01  -0.00   0.00     0.02   0.01   0.01     0.07   0.01   0.04
   4   1     0.00   0.00  -0.00     0.01   0.02   0.00     0.04   0.03  -0.04
   5   6    -0.02   0.01  -0.01     0.05   0.01   0.04    -0.11   0.03  -0.05
   6   1    -0.01  -0.00  -0.01     0.01   0.00   0.02    -0.06  -0.04  -0.03
   7   1    -0.01   0.01  -0.00     0.02   0.00   0.01    -0.07   0.05  -0.01
   8   7    -0.01   0.01  -0.01     0.06   0.01   0.04     0.03  -0.02  -0.03
   9   6     0.00   0.00   0.01     0.09   0.01   0.06     0.10  -0.05   0.09
  10   1    -0.01  -0.00  -0.01     0.02   0.00   0.01     0.04  -0.03   0.02
  11   1     0.01   0.01   0.00     0.02   0.01   0.02     0.02   0.01   0.05
  12   1     0.01  -0.01   0.02     0.03  -0.00   0.02     0.04  -0.03   0.03
  13   6     0.00   0.02  -0.02     0.06  -0.04  -0.00     0.11  -0.02  -0.14
  14   1    -0.01  -0.01  -0.00     0.01  -0.02  -0.01    -0.01  -0.04  -0.05
  15   1     0.00   0.02   0.01     0.02  -0.01   0.00     0.05   0.03  -0.01
  16   1     0.01   0.01  -0.02     0.03  -0.02  -0.00     0.06  -0.00  -0.09
  17   6    -0.01   0.01  -0.00     0.01   0.05   0.04    -0.02   0.01   0.00
  18   1    -0.01   0.01  -0.01    -0.01   0.01  -0.00    -0.02   0.02  -0.04
  19   1    -0.01   0.00   0.01    -0.00   0.02   0.02    -0.04   0.01   0.05
  20   1     0.00  -0.00   0.00     0.01   0.01   0.01     0.04  -0.03   0.01
  21   1     0.01   0.00   0.01    -0.01  -0.01  -0.00     0.02  -0.01   0.07
  22   6     0.03  -0.07  -0.05    -0.13   0.04  -0.13     0.05  -0.02   0.07
  23   8     0.23  -0.25   0.03    -0.10   0.04  -0.16    -0.02  -0.00   0.07
  24   7    -0.10   0.15   0.13    -0.16   0.01  -0.13     0.10  -0.05   0.02
  25   1    -0.00   0.04   0.11    -0.04   0.00  -0.04     0.02  -0.02  -0.01
  26   1    -0.08   0.08   0.01    -0.05  -0.00  -0.03     0.04  -0.02   0.01
  27   7    -0.05  -0.07  -0.30    -0.13   0.04  -0.16     0.07  -0.01   0.12
  28   1    -0.04   0.00  -0.09    -0.04  -0.00  -0.04     0.02  -0.00   0.03
  29   1    -0.01  -0.03  -0.09    -0.04   0.01  -0.04     0.02  -0.01   0.04
  30   6    -0.15   0.15   0.11     0.20  -0.09   0.12    -0.18   0.01  -0.08
  31   8    -0.11   0.33   0.18     0.16   0.01   0.13    -0.22  -0.07  -0.11
  32   7    -0.18   0.05   0.06     0.28  -0.07   0.09    -0.16   0.00  -0.11
  33   1    -0.05   0.02   0.00     0.07  -0.02   0.01    -0.05  -0.01  -0.03
  34   1    -0.04  -0.01   0.02     0.06  -0.06   0.02    -0.04  -0.01  -0.03
  35   7    -0.20   0.06   0.18     0.17  -0.17   0.19    -0.11   0.13  -0.04
  36   1    -0.07  -0.06   0.02     0.04  -0.08   0.04    -0.02   0.05  -0.01
  37   1    -0.05   0.01   0.04     0.03  -0.07   0.05    -0.03   0.04  -0.01
  38   6     0.00   0.00  -0.00    -0.08   0.11  -0.04    -0.04   0.15  -0.02
  39   8    -0.03  -0.02  -0.01    -0.24   0.02   0.03    -0.19   0.07   0.07
  40   7    -0.01   0.01   0.00    -0.02   0.09  -0.10     0.01   0.08  -0.10
  41   1    -0.02  -0.01  -0.00    -0.07  -0.03  -0.01    -0.05  -0.03  -0.01
  42   1     0.00   0.01   0.01    -0.01   0.02  -0.03     0.00   0.02  -0.04
  43   7     0.08   0.05   0.01     0.07   0.32  -0.07     0.09   0.34  -0.05
  44   1     0.01   0.01  -0.00     0.02   0.09  -0.03     0.04   0.10  -0.03
  45   1     0.00  -0.00   0.00    -0.01   0.07  -0.01     0.04   0.10  -0.01
  46   6     0.13  -0.10  -0.08    -0.09  -0.11   0.01     0.11  -0.14   0.06
  47   8    -0.04  -0.03  -0.17    -0.31  -0.31   0.08     0.20  -0.31   0.13
  48   7     0.20  -0.11   0.13     0.05   0.05  -0.00     0.07  -0.14  -0.24
  49   1     0.03   0.00   0.06    -0.04  -0.04   0.03     0.06  -0.07  -0.11
  50   1     0.11  -0.03   0.05     0.03   0.01   0.00    -0.01   0.03  -0.10
  51   7     0.25  -0.18  -0.21     0.02  -0.02  -0.05     0.05   0.01   0.15
  52   1     0.08  -0.07  -0.05     0.06   0.05  -0.04    -0.01   0.02   0.03
  53   1     0.07  -0.05  -0.07     0.00  -0.01  -0.01     0.01  -0.01   0.06
                     25                     26                     27
                        a                      a                      a 
 Frequencies --   199.1717               211.9634               220.6590
 Red. masses --    10.1915                 3.2590                11.7017
 Frc consts  --     0.0000                 0.0000                 0.0000
 IR Inten    --     6.4650               139.2075               115.4942
 Raman Activ --     0.0000                 0.0000                 0.0000
 Depolar     --     0.0000                 0.0000                 0.0000
 Atom AN      X      Y      Z        X      Y      Z        X      Y      Z
   1   8    -0.18  -0.06   0.43    -0.01  -0.00   0.02     0.01   0.00  -0.01
   2   6     0.10   0.08   0.03     0.01   0.01   0.00    -0.01  -0.01   0.00
   3   1     0.12   0.01   0.06     0.01   0.00   0.00    -0.01  -0.00  -0.01
   4   1     0.07   0.05  -0.08     0.00   0.00  -0.00    -0.01  -0.00   0.01
   5   6    -0.27   0.09  -0.13    -0.01   0.00  -0.00     0.02   0.00   0.01
   6   1    -0.14  -0.07  -0.07    -0.01  -0.00  -0.00     0.01   0.00   0.00
   7   1    -0.15   0.12  -0.04    -0.01   0.00  -0.00     0.01  -0.00  -0.00
   8   7    -0.01   0.01  -0.10    -0.00  -0.00  -0.01     0.01   0.01   0.01
   9   6     0.14  -0.10   0.16     0.01  -0.00   0.00    -0.00   0.00   0.00
  10   1     0.07  -0.07   0.04     0.00  -0.00   0.00    -0.02  -0.00  -0.01
  11   1     0.02   0.01   0.10    -0.00  -0.00   0.00     0.01   0.01  -0.01
  12   1     0.06  -0.05   0.06     0.00  -0.00  -0.00    -0.00  -0.01   0.02
  13   6     0.17   0.04  -0.31     0.00   0.00  -0.01     0.00  -0.00   0.01
  14   1    -0.03  -0.06  -0.10    -0.00  -0.00  -0.00    -0.00  -0.00   0.00
  15   1     0.09   0.08  -0.01     0.00   0.00  -0.00    -0.00   0.00   0.00
  16   1     0.11   0.02  -0.19     0.00   0.00  -0.01     0.01  -0.00   0.00
  17   6    -0.07   0.03  -0.03    -0.00  -0.00  -0.00     0.01   0.01   0.01
  18   1    -0.05   0.05  -0.09    -0.00   0.00  -0.00     0.00   0.00   0.00
  19   1    -0.07   0.02   0.07    -0.00   0.00   0.00     0.00   0.00   0.00
  20   1     0.05  -0.04   0.00     0.00  -0.00  -0.00     0.00   0.00   0.00
  21   1     0.05  -0.00   0.16     0.00  -0.00   0.01    -0.01  -0.01  -0.01
  22   6    -0.03   0.00  -0.01    -0.02  -0.00  -0.01     0.05   0.01   0.02
  23   8    -0.03  -0.01  -0.01    -0.01  -0.04   0.01     0.01   0.11  -0.04
  24   7    -0.03   0.01  -0.03    -0.04   0.04   0.02     0.11  -0.11  -0.07
  25   1    -0.01  -0.01   0.00    -0.01   0.00   0.02     0.01  -0.03  -0.05
  26   1    -0.01  -0.01   0.00    -0.02   0.02   0.00     0.04  -0.07   0.01
  27   7    -0.02   0.01  -0.02    -0.03  -0.00  -0.04     0.06  -0.00   0.11
  28   1    -0.00   0.01  -0.01    -0.00   0.01  -0.02     0.02  -0.02   0.04
  29   1    -0.01   0.00  -0.01     0.00   0.00  -0.02     0.01   0.01   0.05
  30   6     0.08  -0.02   0.02     0.06  -0.00   0.01    -0.08   0.04  -0.06
  31   8     0.08   0.01   0.02     0.19   0.00   0.06    -0.47   0.14  -0.20
  32   7     0.10   0.02   0.03    -0.05   0.01   0.09     0.31   0.06  -0.34
  33   1     0.03   0.01   0.01    -0.02  -0.02   0.05     0.08   0.04  -0.16
  34   1     0.03   0.01   0.01    -0.06  -0.02   0.01     0.15  -0.03  -0.07
  35   7     0.04  -0.09   0.01     0.02   0.01  -0.13    -0.01  -0.08   0.39
  36   1     0.01  -0.03   0.00    -0.02   0.01  -0.05     0.07  -0.06   0.13
  37   1     0.01  -0.02   0.01     0.03   0.01  -0.05    -0.07  -0.04   0.15
  38   6     0.03  -0.07  -0.02     0.00  -0.00  -0.00    -0.00  -0.03  -0.00
  39   8     0.12  -0.01  -0.09     0.00  -0.00   0.00     0.03  -0.03  -0.04
  40   7    -0.03  -0.02   0.03     0.01  -0.00  -0.01    -0.01  -0.00   0.02
  41   1     0.02   0.03  -0.00    -0.01  -0.01   0.00    -0.00   0.01  -0.00
  42   1    -0.01  -0.01   0.02    -0.01  -0.02  -0.00    -0.01  -0.01   0.02
  43   7    -0.03  -0.20   0.01     0.03   0.02  -0.00    -0.02  -0.08  -0.00
  44   1    -0.02  -0.06   0.02    -0.01  -0.00   0.00     0.01  -0.01   0.01
  45   1    -0.00  -0.06  -0.00    -0.01  -0.01   0.00    -0.02  -0.03  -0.00
  46   6    -0.05   0.07  -0.02     0.01   0.05  -0.00    -0.01   0.01   0.02
  47   8    -0.08   0.15  -0.05    -0.03  -0.02   0.02    -0.11  -0.01   0.02
  48   7    -0.04   0.07   0.11    -0.18  -0.21   0.03    -0.03  -0.04   0.17
  49   1    -0.03   0.03   0.05     0.27   0.36  -0.15     0.07   0.13   0.02
  50   1    -0.01  -0.03   0.05     0.41   0.57  -0.20     0.18   0.18  -0.01
  51   7    -0.03   0.01  -0.06    -0.05  -0.02   0.02     0.03  -0.02  -0.03
  52   1     0.00  -0.00  -0.01    -0.12  -0.15   0.07    -0.01  -0.05   0.01
  53   1    -0.01   0.01  -0.03    -0.06  -0.07   0.04    -0.02  -0.03  -0.03
                     28                     29                     30
                        a                      a                      a 
 Frequencies --   266.9678               284.0643               285.8683
 Red. masses --     5.0128                 2.5196                 6.8085
 Frc consts  --     0.0000                 0.0000                 0.0000
 IR Inten    --     9.6770               124.0179                 2.6597
 Raman Activ --     0.0000                 0.0000                 0.0000
 Depolar     --     0.0000                 0.0000                 0.0000
 Atom AN      X      Y      Z        X      Y      Z        X      Y      Z
   1   8    -0.02   0.09   0.30    -0.03   0.04   0.06     0.17  -0.26  -0.26
   2   6    -0.21  -0.19   0.06    -0.08  -0.04   0.01     0.30   0.07   0.05
   3   1    -0.12  -0.12  -0.09    -0.05  -0.03  -0.03     0.15   0.07   0.11
   4   1    -0.08  -0.14   0.12    -0.03  -0.03   0.03     0.10   0.09  -0.08
   5   6     0.03   0.08  -0.02     0.03   0.02   0.01    -0.08  -0.06   0.02
   6   1     0.02   0.05   0.02     0.01   0.02   0.02    -0.04  -0.07  -0.05
   7   1     0.06  -0.01  -0.03     0.03  -0.01  -0.01    -0.09   0.04   0.04
   8   7     0.06   0.06  -0.05     0.03  -0.00  -0.01    -0.15   0.02   0.06
   9   6     0.03  -0.13   0.09     0.02  -0.01  -0.01    -0.13  -0.02   0.12
  10   1     0.13  -0.05   0.07     0.01  -0.00  -0.00     0.06  -0.00   0.08
  11   1    -0.07  -0.12   0.08     0.00  -0.01  -0.00    -0.10  -0.08   0.07
  12   1    -0.04   0.03  -0.04     0.00   0.00  -0.01    -0.07   0.05  -0.03
  13   6     0.10   0.01  -0.12    -0.00  -0.04   0.01     0.06   0.17  -0.13
  14   1     0.19   0.27  -0.11    -0.02  -0.04   0.01     0.17   0.34  -0.14
  15   1     0.06  -0.26  -0.23    -0.01   0.02   0.02     0.11  -0.23  -0.21
  16   1    -0.15  -0.01   0.21     0.02  -0.01  -0.02    -0.18   0.06   0.18
  17   6     0.06   0.14  -0.22     0.05   0.01  -0.06    -0.22   0.02   0.18
  18   1     0.05  -0.07   0.10     0.03  -0.02   0.02    -0.09   0.02   0.01
  19   1     0.16   0.05  -0.22     0.04   0.00  -0.05    -0.09   0.01   0.09
  20   1    -0.17   0.16  -0.10    -0.02   0.02  -0.03    -0.02  -0.00   0.07
  21   1    -0.14  -0.16   0.06     0.01   0.02   0.02     0.04   0.01  -0.10
  22   6     0.01  -0.00  -0.01     0.00  -0.01   0.00     0.01  -0.00  -0.00
  23   8     0.01  -0.00  -0.00     0.04   0.02  -0.02     0.03   0.01  -0.01
  24   7    -0.01  -0.02   0.03     0.08   0.22  -0.17     0.02   0.04  -0.03
  25   1     0.02   0.04  -0.02    -0.15  -0.36   0.24    -0.03  -0.07   0.05
  26   1     0.03   0.05  -0.04    -0.30  -0.54   0.39    -0.06  -0.10   0.08
  27   7     0.00  -0.01  -0.01    -0.02  -0.02   0.03    -0.00  -0.01  -0.00
  28   1    -0.01  -0.02   0.01     0.14   0.24  -0.15     0.03   0.04  -0.03
  29   1    -0.00  -0.01   0.00     0.05   0.08  -0.04     0.01   0.01  -0.01
  30   6    -0.00   0.00   0.00    -0.01  -0.01   0.00    -0.00  -0.00   0.00
  31   8    -0.01   0.01  -0.00    -0.01  -0.03   0.00    -0.01  -0.00  -0.00
  32   7     0.00   0.00  -0.00    -0.02   0.00   0.02     0.01   0.01   0.00
  33   1    -0.00  -0.00  -0.00    -0.01  -0.00   0.01     0.00   0.00  -0.00
  34   1    -0.00  -0.00  -0.00    -0.00   0.01   0.01     0.00   0.00   0.00
  35   7    -0.00   0.00   0.00    -0.01  -0.00  -0.00    -0.01  -0.01   0.01
  36   1    -0.00   0.00   0.00     0.00   0.02   0.01    -0.00  -0.00   0.00
  37   1     0.00   0.00  -0.00     0.01   0.00  -0.00     0.00   0.00   0.00
  38   6    -0.01   0.01  -0.01    -0.00   0.00  -0.00     0.01   0.00  -0.00
  39   8    -0.02   0.00  -0.00    -0.01  -0.00   0.00     0.02   0.01  -0.00
  40   7    -0.01   0.02  -0.01    -0.00   0.00  -0.00    -0.01   0.00  -0.00
  41   1    -0.01   0.00  -0.00     0.00   0.00  -0.00     0.00   0.00  -0.00
  42   1    -0.00   0.00   0.00     0.00   0.00  -0.00    -0.00   0.00   0.00
  43   7    -0.01   0.01  -0.01    -0.01   0.00  -0.00    -0.01  -0.01  -0.00
  44   1    -0.00   0.00  -0.00    -0.00   0.00  -0.00    -0.00  -0.00  -0.00
  45   1     0.00   0.01  -0.00     0.01   0.01  -0.00     0.01   0.01  -0.00
  46   6     0.00  -0.00   0.00     0.00  -0.00   0.00    -0.00  -0.00  -0.00
  47   8    -0.00  -0.01   0.00     0.00  -0.00   0.00    -0.00  -0.00  -0.00
  48   7     0.00  -0.00  -0.00     0.00   0.00  -0.01     0.00   0.00   0.00
  49   1     0.00  -0.00  -0.00    -0.00  -0.01  -0.00    -0.00   0.00   0.00
  50   1     0.00   0.00  -0.00    -0.01  -0.01  -0.00     0.00  -0.00   0.00
  51   7     0.00  -0.00   0.00     0.00   0.01   0.00     0.00   0.00  -0.00
  52   1     0.00   0.00  -0.00    -0.01  -0.01   0.00    -0.00  -0.00   0.00
  53   1     0.00  -0.00   0.00    -0.00  -0.00   0.00    -0.00  -0.00   0.00
                     31                     32                     33
                        a                      a                      a 
 Frequencies --   309.4659               313.6421               340.3530
 Red. masses --     4.4168                 5.4889                 2.1957
 Frc consts  --     0.0000                 0.0000                 0.0000
 IR Inten    --   106.7696                46.9248                 1.5572
 Raman Activ --     0.0000                 0.0000                 0.0000
 Depolar     --     0.0000                 0.0000                 0.0000
 Atom AN      X      Y      Z        X      Y      Z        X      Y      Z
   1   8     0.04   0.25   0.13     0.25  -0.03  -0.11     0.08  -0.08  -0.15
   2   6     0.10   0.20  -0.04     0.00  -0.16   0.08     0.12   0.07   0.03
   3   1     0.07   0.07   0.02    -0.05  -0.06  -0.03     0.06   0.05   0.06
   4   1     0.05   0.08  -0.05    -0.02  -0.08   0.08     0.04   0.05  -0.03
   5   6    -0.03  -0.01  -0.03     0.07  -0.00   0.04    -0.05  -0.02   0.03
   6   1    -0.02  -0.01  -0.00     0.04   0.01  -0.01    -0.03  -0.04  -0.01
   7   1    -0.03   0.00   0.02     0.03  -0.01  -0.00    -0.05   0.03   0.02
   8   7    -0.00  -0.10  -0.07    -0.04   0.08   0.05    -0.04  -0.03   0.04
   9   6     0.09   0.11  -0.18    -0.21  -0.23   0.20    -0.04  -0.08   0.09
  10   1     0.05   0.10   0.01    -0.22  -0.20  -0.10     0.21   0.03   0.16
  11   1     0.01  -0.01  -0.05     0.04   0.09   0.01    -0.15  -0.22   0.10
  12   1     0.04   0.06  -0.13    -0.05  -0.17   0.28    -0.08   0.11  -0.16
  13   6    -0.05  -0.12  -0.00     0.10   0.20  -0.05     0.03   0.08  -0.01
  14   1     0.01  -0.01   0.01    -0.05  -0.04  -0.00    -0.13  -0.19   0.04
  15   1    -0.03  -0.05  -0.03     0.08   0.17   0.10     0.03   0.24   0.18
  16   1    -0.03  -0.04   0.03     0.10   0.09  -0.17     0.15   0.05  -0.24
  17   6    -0.04  -0.18   0.17    -0.08   0.19  -0.12    -0.07   0.02  -0.03
  18   1    -0.03  -0.06   0.04    -0.06   0.11  -0.13     0.03  -0.19   0.29
  19   1    -0.05  -0.09   0.07    -0.06   0.11   0.05     0.22  -0.01  -0.31
  20   1     0.04  -0.03   0.09     0.03  -0.03  -0.06    -0.34   0.25  -0.04
  21   1    -0.54  -0.57  -0.08    -0.31  -0.34  -0.13    -0.05  -0.05  -0.07
  22   6     0.00  -0.00   0.00     0.01   0.02  -0.01    -0.00  -0.01   0.01
  23   8     0.01  -0.01   0.00     0.01   0.03  -0.01    -0.00  -0.01   0.00
  24   7     0.00   0.01  -0.00    -0.00  -0.01   0.01    -0.00   0.01   0.01
  25   1    -0.01  -0.02   0.01     0.00   0.00   0.00     0.00   0.01   0.00
  26   1    -0.02  -0.02   0.02    -0.01  -0.01   0.01     0.00   0.02  -0.01
  27   7    -0.00  -0.00  -0.01    -0.00  -0.01   0.02     0.01   0.01  -0.00
  28   1     0.00   0.01  -0.01     0.01   0.02  -0.01    -0.01  -0.03   0.02
  29   1     0.00   0.00  -0.00     0.01   0.01  -0.01    -0.00  -0.00   0.01
  30   6     0.00  -0.00   0.00     0.01   0.00  -0.01    -0.00   0.00   0.00
  31   8    -0.01   0.00   0.00     0.02  -0.01  -0.00    -0.01   0.01   0.00
  32   7     0.00  -0.00   0.00    -0.02  -0.00   0.01     0.01   0.00  -0.00
  33   1     0.00   0.00  -0.00    -0.00   0.00   0.01     0.00  -0.00  -0.00
  34   1     0.01   0.01   0.00    -0.00   0.02   0.00    -0.00  -0.01  -0.00
  35   7    -0.01  -0.01   0.00     0.01   0.02  -0.01    -0.01  -0.01   0.00
  36   1    -0.00  -0.00  -0.00    -0.00  -0.01  -0.01     0.01   0.01   0.01
  37   1     0.01   0.01   0.00    -0.01  -0.02  -0.01     0.01   0.02   0.01
  38   6     0.01   0.00   0.01    -0.01  -0.00  -0.01     0.00   0.00   0.00
  39   8     0.02   0.01   0.01    -0.02  -0.01  -0.01     0.00   0.01   0.00
  40   7     0.00  -0.02   0.00    -0.01   0.01   0.00    -0.00   0.01  -0.00
  41   1     0.02   0.00   0.00    -0.00   0.01  -0.00    -0.01   0.00  -0.00
  42   1     0.00   0.00  -0.00     0.01   0.01   0.01    -0.01  -0.00   0.00
  43   7    -0.01  -0.00   0.00     0.00   0.00  -0.01    -0.02   0.00  -0.00
  44   1    -0.00  -0.00  -0.00     0.00   0.00  -0.00    -0.00   0.00  -0.01
  45   1     0.00   0.00   0.00    -0.00  -0.00  -0.00     0.01   0.02  -0.00
  46   6     0.00   0.00   0.00     0.00   0.00   0.00     0.00  -0.00  -0.00
  47   8     0.00   0.00  -0.00     0.00   0.00   0.00    -0.00  -0.00  -0.00
  48   7     0.00   0.00   0.00    -0.00   0.00  -0.01     0.00  -0.00   0.00
  49   1    -0.00  -0.00   0.00     0.00  -0.00  -0.00     0.00   0.00   0.00
  50   1    -0.00  -0.00   0.00    -0.01  -0.00  -0.00     0.00   0.00   0.00
  51   7    -0.00  -0.00   0.00    -0.00  -0.00   0.00    -0.00  -0.00   0.00
  52   1     0.00   0.00  -0.00     0.00   0.00   0.00     0.00   0.00  -0.00
  53   1     0.00   0.00  -0.00     0.00   0.00   0.00     0.00   0.00  -0.00
                     34                     35                     36
                        a                      a                      a 
 Frequencies --   367.7669               373.4022               382.4436
 Red. masses --     3.5729                 5.1561                 3.1943
 Frc consts  --     0.0000                 0.0000                 0.0000
 IR Inten    --     1.9399                11.4444                47.3270
 Raman Activ --     0.0000                 0.0000                 0.0000
 Depolar     --     0.0000                 0.0000                 0.0000
 Atom AN      X      Y      Z        X      Y      Z        X      Y      Z
   1   8    -0.06  -0.02   0.03    -0.00   0.01  -0.08    -0.02   0.00   0.05
   2   6     0.03   0.09   0.10     0.07   0.03  -0.14    -0.03  -0.00   0.06
   3   1     0.02   0.02   0.03     0.06   0.05   0.02    -0.02  -0.02  -0.02
   4   1    -0.01   0.04   0.04     0.06   0.02  -0.12    -0.03  -0.00   0.06
   5   6     0.04   0.07   0.08    -0.24  -0.11  -0.15     0.15   0.06   0.08
   6   1     0.04   0.04   0.01    -0.15  -0.14  -0.07     0.08   0.07   0.04
   7   1     0.01   0.00   0.05    -0.14   0.07  -0.07     0.09  -0.05   0.04
   8   7    -0.02   0.01  -0.02     0.01  -0.04   0.05     0.01   0.02  -0.03
   9   6    -0.10   0.06  -0.15     0.22   0.04   0.18    -0.13  -0.02  -0.12
  10   1    -0.36  -0.05  -0.23    -0.08  -0.04  -0.04     0.06   0.03   0.03
  11   1     0.18   0.27  -0.19     0.15   0.20   0.05    -0.10  -0.13  -0.03
  12   1     0.05  -0.16   0.24     0.16  -0.12   0.19    -0.11   0.08  -0.12
  13   6     0.13  -0.06  -0.27    -0.11   0.05   0.29     0.07  -0.04  -0.16
  14   1     0.01   0.03  -0.15     0.06   0.06   0.13    -0.03  -0.04  -0.07
  15   1     0.09  -0.07  -0.10    -0.08  -0.03   0.03     0.04   0.02  -0.01
  16   1     0.05  -0.04  -0.06    -0.11   0.03   0.16     0.07  -0.02  -0.09
  17   6    -0.03  -0.12   0.22     0.07   0.02  -0.13    -0.05  -0.00   0.09
  18   1     0.03  -0.21   0.32     0.07  -0.04   0.07    -0.05   0.01  -0.02
  19   1     0.13  -0.11  -0.16     0.13   0.02  -0.16    -0.06  -0.01   0.08
  20   1    -0.20   0.20   0.10    -0.13   0.06  -0.09     0.05  -0.01   0.06
  21   1     0.04   0.07   0.01    -0.02  -0.04  -0.02     0.03   0.04   0.02
  22   6    -0.00   0.01  -0.00     0.02   0.05  -0.01     0.03   0.04  -0.01
  23   8    -0.00   0.01  -0.00     0.01   0.02   0.01     0.02   0.03   0.00
  24   7    -0.00  -0.01  -0.00    -0.01  -0.05   0.02    -0.02  -0.04   0.06
  25   1    -0.00  -0.00  -0.01     0.00   0.01  -0.02     0.01   0.03  -0.00
  26   1     0.01  -0.00  -0.00     0.02   0.01  -0.01     0.02   0.05  -0.03
  27   7    -0.01  -0.00   0.00    -0.04  -0.05   0.03    -0.02  -0.06   0.06
  28   1     0.00   0.01  -0.01     0.06   0.12  -0.08     0.10   0.15  -0.09
  29   1     0.00  -0.00  -0.00     0.02   0.02  -0.02     0.03   0.03  -0.02
  30   6     0.01   0.00  -0.00    -0.01  -0.04  -0.04    -0.02  -0.06  -0.06
  31   8     0.01  -0.00  -0.00     0.01  -0.04  -0.02     0.01  -0.05  -0.04
  32   7    -0.01  -0.01   0.00    -0.01   0.02   0.01    -0.02   0.01   0.01
  33   1    -0.00  -0.00   0.00     0.00   0.02   0.01     0.01   0.04   0.00
  34   1    -0.00   0.01   0.00     0.05   0.12   0.02     0.11   0.25   0.04
  35   7     0.00   0.00  -0.01     0.04   0.10   0.06     0.07   0.15   0.11
  36   1     0.01   0.02   0.01    -0.17  -0.34  -0.16    -0.30  -0.60  -0.28
  37   1    -0.01  -0.01   0.00    -0.02  -0.06  -0.03    -0.01  -0.10  -0.04
  38   6    -0.01  -0.01   0.01    -0.01  -0.01  -0.00    -0.01  -0.00   0.00
  39   8    -0.01  -0.01   0.00    -0.01  -0.01  -0.00    -0.00  -0.01  -0.00
  40   7     0.01  -0.02   0.01    -0.01  -0.00   0.00     0.00  -0.01   0.01
  41   1     0.02  -0.01   0.01    -0.01   0.00  -0.00    -0.00   0.00  -0.00
  42   1     0.01  -0.00  -0.01     0.02   0.02   0.01     0.04   0.03   0.01
  43   7     0.02   0.01   0.01     0.01   0.00  -0.01    -0.02  -0.01  -0.00
  44   1     0.01   0.00   0.01     0.01   0.00   0.00     0.00   0.00  -0.01
  45   1    -0.03  -0.03   0.01    -0.02  -0.02  -0.00     0.02   0.02  -0.00
  46   6    -0.00   0.00   0.00    -0.01   0.00   0.01    -0.02  -0.01   0.02
  47   8     0.00   0.00   0.00    -0.00   0.00   0.01    -0.01  -0.01   0.02
  48   7    -0.00   0.00  -0.00    -0.01   0.01  -0.01    -0.00   0.02  -0.02
  49   1    -0.00  -0.00  -0.00    -0.00  -0.00  -0.01    -0.00  -0.01  -0.01
  50   1    -0.00  -0.00  -0.00    -0.01   0.00  -0.00    -0.01   0.01  -0.01
  51   7     0.00   0.00  -0.00     0.00   0.00  -0.00     0.02   0.02  -0.01
  52   1    -0.00  -0.00   0.00    -0.01  -0.02   0.01    -0.05  -0.07   0.03
  53   1    -0.00  -0.00  -0.00    -0.00  -0.00  -0.00    -0.00  -0.01   0.00
                     37                     38                     39
                        a                      a                      a 
 Frequencies --   396.4422               415.8196               416.7086
 Red. masses --     3.4332                 8.3673                 3.5583
 Frc consts  --     0.0000                 0.0000                 0.0000
 IR Inten    --    29.3826                 7.3705                50.9645
 Raman Activ --     0.0000                 0.0000                 0.0000
 Depolar     --     0.0000                 0.0000                 0.0000
 Atom AN      X      Y      Z        X      Y      Z        X      Y      Z
   1   8    -0.00   0.00   0.00     0.15  -0.14  -0.10     0.05  -0.04  -0.04
   2   6    -0.00  -0.00   0.00    -0.00  -0.10   0.18    -0.01  -0.03   0.07
   3   1    -0.00  -0.00  -0.00    -0.03  -0.03   0.03    -0.01  -0.01   0.02
   4   1    -0.00  -0.00   0.00    -0.01  -0.04   0.07    -0.00  -0.01   0.02
   5   6     0.01   0.00   0.00    -0.14   0.11   0.03    -0.06   0.02   0.03
   6   1     0.00   0.00   0.00    -0.05  -0.02  -0.06    -0.03  -0.03  -0.01
   7   1     0.01  -0.00   0.00    -0.08   0.09  -0.00    -0.04   0.03   0.00
   8   7    -0.00   0.00  -0.00    -0.17   0.26   0.08    -0.04   0.05   0.05
   9   6    -0.01   0.00  -0.01    -0.06   0.26   0.19    -0.01   0.08   0.05
  10   1    -0.01  -0.00  -0.00     0.02   0.09   0.08    -0.02   0.03   0.01
  11   1    -0.00   0.00  -0.00    -0.04   0.07   0.08     0.01   0.04   0.01
  12   1    -0.00  -0.00   0.00     0.01   0.08   0.01     0.02   0.01   0.01
  13   6     0.00  -0.00  -0.01    -0.19  -0.18  -0.24    -0.03  -0.04  -0.05
  14   1    -0.00   0.00  -0.01    -0.15  -0.08  -0.15    -0.03  -0.01  -0.04
  15   1     0.00  -0.00  -0.00    -0.07  -0.07  -0.09    -0.00  -0.03  -0.02
  16   1     0.00  -0.00  -0.00     0.06  -0.14  -0.05     0.01  -0.03  -0.01
  17   6    -0.00  -0.00   0.00     0.38  -0.09  -0.06     0.10  -0.01  -0.05
  18   1    -0.00  -0.00   0.00     0.26   0.07   0.02     0.07   0.03  -0.01
  19   1    -0.00  -0.00   0.00     0.07  -0.16  -0.06     0.03  -0.03  -0.03
  20   1     0.00   0.00   0.00     0.16  -0.11  -0.04     0.03  -0.03  -0.03
  21   1     0.00   0.00   0.00    -0.07  -0.05  -0.08    -0.03  -0.01  -0.03
  22   6    -0.01  -0.02   0.02     0.02   0.02  -0.02    -0.06  -0.10   0.06
  23   8    -0.01  -0.01   0.01     0.01   0.00  -0.00    -0.04  -0.04   0.03
  24   7     0.02   0.04  -0.02    -0.02  -0.04   0.03     0.08   0.15  -0.10
  25   1    -0.00  -0.01   0.02     0.00   0.01  -0.01    -0.02  -0.07   0.04
  26   1    -0.03  -0.04   0.04     0.03   0.05  -0.04    -0.08  -0.14   0.10
  27   7     0.04   0.04  -0.02    -0.03  -0.05   0.03     0.11   0.17  -0.11
  28   1    -0.07  -0.12   0.08     0.08   0.14  -0.09    -0.31  -0.52   0.34
  29   1    -0.01  -0.02   0.01     0.01   0.01  -0.01    -0.03  -0.03   0.03
  30   6    -0.03  -0.05  -0.01    -0.01  -0.02   0.00     0.04   0.04  -0.01
  31   8    -0.01  -0.06  -0.01    -0.00  -0.02   0.01     0.02   0.05  -0.02
  32   7     0.02   0.07   0.02     0.02   0.03   0.00    -0.07  -0.11  -0.01
  33   1    -0.02  -0.04  -0.01     0.00  -0.01   0.00    -0.00   0.02  -0.01
  34   1    -0.05  -0.07  -0.01    -0.04  -0.08  -0.01     0.18   0.34   0.06
  35   7     0.02   0.07   0.03    -0.00   0.01   0.01     0.00  -0.03  -0.01
  36   1    -0.09  -0.15  -0.08    -0.00   0.01   0.00    -0.05  -0.13  -0.06
  37   1     0.00  -0.01  -0.01     0.00   0.00   0.00     0.01   0.02   0.00
  38   6    -0.01  -0.01   0.01     0.00  -0.01   0.00     0.01   0.01  -0.01
  39   8    -0.01  -0.00  -0.01     0.01  -0.00   0.00    -0.01  -0.01  -0.01
  40   7     0.04   0.03  -0.02     0.02   0.02  -0.00    -0.07  -0.07   0.02
  41   1    -0.07  -0.05   0.01    -0.05  -0.03   0.01     0.13   0.10  -0.02
  42   1    -0.05  -0.05  -0.00    -0.04  -0.04   0.01     0.12   0.11  -0.00
  43   7     0.02  -0.00   0.00     0.00  -0.00  -0.00    -0.01   0.02  -0.01
  44   1    -0.04  -0.02   0.01    -0.00  -0.00  -0.00     0.01   0.01  -0.01
  45   1    -0.02  -0.00   0.01    -0.01  -0.00   0.00     0.02   0.02  -0.00
  46   6     0.10   0.11  -0.06     0.00   0.00  -0.01    -0.02  -0.02   0.03
  47   8     0.04   0.08  -0.05     0.00   0.00  -0.01    -0.02  -0.01   0.03
  48   7    -0.09  -0.15   0.05     0.00  -0.00   0.01     0.00   0.02  -0.03
  49   1     0.03   0.05  -0.01     0.00   0.01   0.00    -0.00  -0.02  -0.01
  50   1     0.08   0.07  -0.02     0.00  -0.01   0.00    -0.00   0.02  -0.02
  51   7    -0.18  -0.20   0.13    -0.01  -0.00   0.00     0.03   0.01  -0.01
  52   1     0.49   0.61  -0.29     0.01   0.02  -0.01    -0.05  -0.07   0.04
  53   1     0.04   0.08  -0.04    -0.00   0.00   0.00     0.00  -0.00  -0.01
                     40                     41                     42
                        a                      a                      a 
 Frequencies --   439.2551               454.0241               459.2327
 Red. masses --     3.3720                 6.5005                 4.9345
 Frc consts  --     0.0000                 0.0000                 0.0000
 IR Inten    --   802.8296                34.0141                50.4608
 Raman Activ --     0.0000                 0.0000                 0.0000
 Depolar     --     0.0000                 0.0000                 0.0000
 Atom AN      X      Y      Z        X      Y      Z        X      Y      Z
   1   8    -0.00   0.01   0.01     0.02  -0.01  -0.02     0.01  -0.00  -0.01
   2   6     0.01   0.00  -0.02    -0.09  -0.01   0.24    -0.06  -0.00   0.16
   3   1     0.00  -0.00  -0.01    -0.05   0.03   0.09    -0.03   0.02   0.06
   4   1    -0.00   0.00  -0.00    -0.02   0.00   0.05    -0.01   0.01   0.04
   5   6     0.04   0.01  -0.01    -0.13  -0.14   0.23    -0.06  -0.10   0.16
   6   1     0.03   0.02  -0.00    -0.05  -0.07   0.05    -0.00  -0.02   0.04
   7   1     0.03  -0.02   0.01    -0.07  -0.01   0.07    -0.02  -0.03   0.06
   8   7    -0.03   0.01  -0.03    -0.06  -0.21   0.13    -0.08  -0.15   0.05
   9   6     0.01  -0.02   0.03     0.07   0.21  -0.17     0.09   0.15  -0.10
  10   1    -0.01  -0.02  -0.01    -0.03   0.18   0.01    -0.03   0.12  -0.00
  11   1     0.01   0.02   0.02     0.06   0.06  -0.11     0.06   0.08  -0.05
  12   1     0.02  -0.02   0.03     0.07   0.06  -0.13     0.09   0.01  -0.07
  13   6    -0.04   0.03  -0.01     0.21   0.08  -0.03     0.11   0.10  -0.03
  14   1    -0.00   0.01   0.00     0.06   0.06  -0.04     0.04   0.06  -0.02
  15   1    -0.01   0.01  -0.00     0.16   0.02   0.04     0.11   0.03   0.03
  16   1    -0.02   0.01  -0.00     0.03   0.08  -0.07    -0.00   0.08  -0.05
  17   6    -0.01  -0.03   0.02    -0.06  -0.02  -0.27    -0.05  -0.07  -0.19
  18   1     0.00  -0.01   0.01    -0.01   0.05  -0.14    -0.00   0.02  -0.08
  19   1    -0.01  -0.03  -0.00     0.01   0.08  -0.05     0.00   0.02  -0.04
  20   1     0.00  -0.00   0.01    -0.05  -0.09  -0.15    -0.03  -0.07  -0.10
  21   1    -0.00  -0.01   0.00    -0.04   0.03  -0.05    -0.02   0.02  -0.03
  22   6    -0.02  -0.04   0.02    -0.00   0.01   0.01    -0.01   0.04   0.03
  23   8    -0.02  -0.02  -0.00     0.00   0.00   0.01     0.04   0.02   0.05
  24   7     0.03   0.08  -0.03     0.01  -0.00  -0.01     0.03  -0.05  -0.02
  25   1    -0.00  -0.02   0.04    -0.00  -0.01  -0.01    -0.03  -0.06  -0.04
  26   1    -0.06  -0.07   0.06     0.01  -0.01   0.00     0.08   0.01  -0.03
  27   7     0.07   0.08  -0.04    -0.01   0.00  -0.01    -0.07  -0.01  -0.03
  28   1    -0.14  -0.27   0.17    -0.01  -0.01   0.00    -0.01   0.06  -0.05
  29   1    -0.00   0.01   0.01    -0.00  -0.01  -0.01    -0.00  -0.01  -0.03
  30   6    -0.04  -0.05  -0.00    -0.04  -0.04   0.01     0.04   0.05  -0.01
  31   8     0.01  -0.08   0.02    -0.01  -0.04   0.02    -0.01   0.05  -0.02
  32   7     0.12   0.16  -0.01     0.07   0.07  -0.01    -0.06  -0.07   0.02
  33   1     0.03   0.02   0.02     0.01   0.00  -0.01    -0.01  -0.01   0.01
  34   1    -0.23  -0.43  -0.09    -0.08  -0.19  -0.04     0.08   0.19   0.04
  35   7     0.02   0.14   0.03    -0.00   0.06   0.00     0.00  -0.07  -0.01
  36   1    -0.14  -0.18  -0.12    -0.06  -0.06  -0.05     0.05   0.05   0.04
  37   1     0.02   0.01  -0.03     0.02   0.02  -0.02     0.00   0.01   0.02
  38   6    -0.00  -0.04   0.00    -0.04   0.03   0.03     0.02  -0.01  -0.02
  39   8     0.03  -0.01   0.04    -0.02   0.03  -0.05     0.01   0.00   0.06
  40   7     0.16   0.16  -0.03    -0.04  -0.06   0.00     0.14   0.08  -0.04
  41   1    -0.40  -0.22   0.03     0.28   0.06   0.02    -0.44  -0.19  -0.01
  42   1    -0.19  -0.18   0.06    -0.13  -0.14  -0.11     0.14   0.14   0.10
  43   7    -0.05  -0.07  -0.01     0.10   0.07   0.05    -0.14  -0.13  -0.00
  44   1     0.01  -0.00  -0.01     0.09   0.05   0.08    -0.14  -0.08  -0.08
  45   1     0.02   0.01  -0.00    -0.20  -0.22   0.02     0.29   0.29  -0.02
  46   6    -0.02  -0.00  -0.00    -0.00   0.01   0.00     0.00  -0.02  -0.04
  47   8     0.02   0.00  -0.00     0.00   0.01   0.01     0.02  -0.04  -0.04
  48   7     0.02   0.05   0.00    -0.01   0.01  -0.01     0.04  -0.01   0.05
  49   1    -0.01   0.00   0.01     0.00  -0.00  -0.01    -0.01   0.03   0.04
  50   1    -0.05  -0.06   0.03    -0.02  -0.02   0.00     0.06  -0.01   0.02
  51   7     0.04   0.06  -0.04     0.02  -0.00  -0.02    -0.06   0.04   0.03
  52   1    -0.17  -0.19   0.09    -0.02  -0.04   0.01    -0.02   0.05  -0.02
  53   1     0.01   0.01   0.01    -0.00  -0.01  -0.01    -0.00   0.02   0.03
                     43                     44                     45
                        a                      a                      a 
 Frequencies --   467.1378               470.7769               472.6822
 Red. masses --     7.6961                 6.0184                 7.0366
 Frc consts  --     0.0000                 0.0000                 0.0000
 IR Inten    --     4.9779                33.4512                 4.9861
 Raman Activ --     0.0000                 0.0000                 0.0000
 Depolar     --     0.0000                 0.0000                 0.0000
 Atom AN      X      Y      Z        X      Y      Z        X      Y      Z
   1   8     0.00   0.00   0.02    -0.00   0.00   0.01    -0.00  -0.00  -0.01
   2   6     0.00   0.01   0.02    -0.01   0.01   0.03    -0.01  -0.00   0.02
   3   1    -0.00  -0.01  -0.01    -0.00   0.00   0.01    -0.00   0.01   0.02
   4   1    -0.02   0.01   0.03    -0.01   0.00   0.01     0.01   0.00  -0.01
   5   6     0.14   0.02   0.05     0.02  -0.01   0.04    -0.08  -0.03   0.01
   6   1     0.11   0.11   0.03     0.02   0.02   0.01    -0.05  -0.05  -0.01
   7   1     0.10  -0.10   0.06     0.02  -0.03   0.02    -0.05   0.03  -0.01
   8   7    -0.17  -0.03  -0.14    -0.05  -0.03  -0.02     0.05  -0.02   0.07
   9   6     0.14  -0.01   0.11     0.04   0.03   0.00    -0.04   0.04  -0.07
  10   1     0.09  -0.01   0.05     0.01   0.02   0.01    -0.04   0.03  -0.02
  11   1     0.01   0.06   0.11     0.02   0.03   0.01     0.00  -0.01  -0.06
  12   1     0.11  -0.04   0.00     0.04  -0.00  -0.01    -0.03   0.03  -0.03
  13   6    -0.13   0.18  -0.07    -0.01   0.06  -0.03     0.08  -0.06   0.03
  14   1    -0.01   0.05   0.01     0.01   0.02  -0.00     0.01  -0.01  -0.01
  15   1    -0.01   0.07   0.01     0.02   0.02   0.00     0.03  -0.02   0.00
  16   1    -0.07   0.09  -0.05    -0.01   0.03  -0.02     0.03  -0.02   0.01
  17   6    -0.06  -0.20  -0.04    -0.02  -0.05  -0.04     0.01   0.07  -0.02
  18   1     0.01  -0.05   0.01     0.01  -0.01  -0.01    -0.01   0.03  -0.02
  19   1    -0.04  -0.11  -0.02    -0.01  -0.02  -0.01     0.02   0.05   0.00
  20   1     0.01  -0.05   0.01    -0.00  -0.02  -0.01    -0.01   0.00  -0.03
  21   1     0.01   0.01   0.01     0.00   0.01   0.00    -0.01  -0.00  -0.01
  22   6    -0.03   0.09   0.09     0.02  -0.08  -0.08     0.02  -0.08  -0.08
  23   8     0.09   0.05   0.13    -0.09  -0.04  -0.10    -0.10  -0.05  -0.11
  24   7     0.09  -0.09  -0.08    -0.08   0.05   0.07    -0.08   0.04   0.07
  25   1    -0.09  -0.19  -0.07     0.12   0.24   0.03     0.16   0.33  -0.01
  26   1     0.19  -0.01  -0.04    -0.19  -0.03   0.06    -0.23  -0.06   0.09
  27   7    -0.16   0.01  -0.10     0.14   0.00   0.08     0.14   0.00   0.07
  28   1    -0.10   0.02  -0.04     0.10   0.01   0.01     0.11   0.03  -0.00
  29   1    -0.01  -0.02  -0.08    -0.00   0.00   0.07    -0.00   0.00   0.07
  30   6     0.02   0.01  -0.03    -0.04  -0.05   0.05     0.03   0.04  -0.03
  31   8     0.02   0.02  -0.04    -0.04  -0.03   0.05     0.03   0.02  -0.03
  32   7    -0.07  -0.00   0.03     0.10   0.01  -0.04    -0.05  -0.01  -0.01
  33   1    -0.01   0.00   0.03     0.04   0.03  -0.01    -0.01   0.01   0.01
  34   1    -0.01   0.08   0.01    -0.03  -0.18  -0.03     0.02   0.09   0.01
  35   7     0.02  -0.04   0.04    -0.02   0.08  -0.06     0.01  -0.06   0.06
  36   1     0.05   0.00   0.03    -0.06   0.02  -0.04     0.07   0.02   0.06
  37   1    -0.01  -0.01   0.03     0.01  -0.00  -0.05    -0.03  -0.02   0.05
  38   6     0.08  -0.09  -0.03     0.11  -0.10  -0.06     0.02  -0.01  -0.00
  39   8     0.09  -0.09   0.10     0.14  -0.10   0.16     0.03  -0.01   0.02
  40   7    -0.11   0.08   0.08    -0.24  -0.05   0.12     0.06   0.05  -0.00
  41   1    -0.12   0.08  -0.03    -0.14   0.19  -0.09    -0.18  -0.09   0.01
  42   1    -0.06  -0.01   0.14     0.32   0.37   0.23    -0.04  -0.04   0.04
  43   7     0.05   0.10  -0.18     0.01   0.12  -0.25    -0.03  -0.04  -0.01
  44   1     0.07   0.05  -0.03     0.00   0.03  -0.08    -0.01  -0.01  -0.01
  45   1    -0.25  -0.15  -0.01    -0.20  -0.05  -0.02     0.00   0.01  -0.00
  46   6     0.01   0.04   0.12    -0.00  -0.03  -0.05     0.00   0.08   0.21
  47   8    -0.08   0.10   0.10     0.03  -0.05  -0.04    -0.14   0.18   0.18
  48   7    -0.09   0.01  -0.13     0.05  -0.01   0.06    -0.16   0.03  -0.23
  49   1     0.06  -0.05  -0.13    -0.04   0.01   0.07     0.11  -0.08  -0.22
  50   1    -0.14   0.04  -0.07     0.08  -0.01   0.03    -0.24   0.08  -0.13
  51   7     0.14  -0.12  -0.03    -0.07   0.06   0.03     0.25  -0.21  -0.06
  52   1     0.12  -0.04   0.00    -0.04   0.05  -0.01     0.20  -0.10   0.02
  53   1     0.01  -0.05  -0.08    -0.02   0.01   0.05     0.03  -0.08  -0.15
                     46                     47                     48
                        a                      a                      a 
 Frequencies --   475.6109               481.3898               484.3179
 Red. masses --     4.3997                 5.4171                 5.8383
 Frc consts  --     0.0000                 0.0000                 0.0000
 IR Inten    --    12.0985                 9.8110                86.0669
 Raman Activ --     0.0000                 0.0000                 0.0000
 Depolar     --     0.0000                 0.0000                 0.0000
 Atom AN      X      Y      Z        X      Y      Z        X      Y      Z
   1   8     0.01  -0.00   0.01     0.00  -0.00  -0.00    -0.00  -0.00  -0.01
   2   6     0.00   0.01   0.02     0.00  -0.00  -0.01    -0.00  -0.01  -0.02
   3   1    -0.00  -0.01  -0.01     0.00  -0.00  -0.00     0.00   0.01   0.01
   4   1    -0.01   0.00   0.03     0.00  -0.00   0.00     0.01  -0.01  -0.02
   5   6     0.12   0.02   0.04    -0.01   0.01  -0.01    -0.11  -0.01  -0.05
   6   1     0.10   0.10   0.03    -0.02  -0.02  -0.01    -0.09  -0.09  -0.03
   7   1     0.09  -0.09   0.05    -0.01   0.02  -0.01    -0.08   0.08  -0.05
   8   7    -0.15  -0.03  -0.12     0.03   0.02   0.01     0.14   0.03   0.11
   9   6     0.14  -0.00   0.12    -0.04  -0.01  -0.02    -0.15  -0.02  -0.12
  10   1     0.07  -0.01   0.04    -0.00  -0.01  -0.00    -0.06   0.00  -0.03
  11   1     0.03   0.07   0.10    -0.02  -0.03  -0.01    -0.03  -0.08  -0.10
  12   1     0.11  -0.05   0.02    -0.03   0.01  -0.01    -0.12   0.05  -0.03
  13   6    -0.12   0.16  -0.06     0.01  -0.04   0.00     0.11  -0.15   0.06
  14   1    -0.01   0.05   0.01    -0.01  -0.02  -0.00     0.00  -0.05  -0.01
  15   1    -0.01   0.06   0.01    -0.01  -0.01  -0.00     0.01  -0.05  -0.00
  16   1    -0.06   0.08  -0.04     0.02  -0.02   0.01     0.06  -0.07   0.03
  17   6    -0.05  -0.18  -0.04     0.02   0.03   0.02     0.04   0.17   0.05
  18   1     0.02  -0.04   0.01    -0.00   0.01   0.01    -0.02   0.04  -0.01
  19   1    -0.03  -0.10  -0.02     0.00   0.01   0.01     0.03   0.09   0.03
  20   1     0.01  -0.04   0.01     0.00   0.01   0.01    -0.01   0.04  -0.00
  21   1     0.01   0.01   0.01     0.00  -0.00  -0.00    -0.01  -0.01  -0.01
  22   6     0.00  -0.05  -0.01    -0.04   0.06   0.19    -0.03   0.03   0.09
  23   8    -0.08  -0.04  -0.02     0.05   0.02   0.23     0.04   0.02   0.12
  24   7    -0.02  -0.03   0.03     0.18  -0.18  -0.08     0.09  -0.08  -0.04
  25   1     0.21   0.41  -0.14     0.16   0.31  -0.35     0.03   0.06  -0.14
  26   1    -0.21  -0.18   0.15     0.01  -0.32   0.17     0.05  -0.11   0.05
  27   7     0.08   0.04  -0.00    -0.17   0.09  -0.23    -0.10   0.04  -0.10
  28   1     0.05   0.06  -0.03    -0.16   0.08  -0.09    -0.07   0.05  -0.05
  29   1    -0.02  -0.04   0.03    -0.03  -0.10  -0.12    -0.02  -0.05  -0.06
  30   6    -0.00   0.03   0.04     0.03  -0.00  -0.08     0.00   0.01   0.04
  31   8    -0.01   0.02   0.04     0.03   0.00  -0.08    -0.02   0.03   0.04
  32   7     0.01  -0.11  -0.03    -0.07   0.13   0.06    -0.01  -0.11   0.00
  33   1    -0.00  -0.01  -0.07    -0.02  -0.01   0.10     0.00   0.00  -0.04
  34   1     0.18   0.21   0.05    -0.22  -0.18  -0.05     0.15   0.21   0.05
  35   7    -0.03  -0.01  -0.06     0.06  -0.02   0.09    -0.03  -0.01  -0.08
  36   1    -0.01   0.05  -0.01     0.03  -0.09   0.01    -0.01   0.06  -0.01
[...]
  44   1    -0.09   0.21  -0.01     0.08  -0.19   0.01     0.36  -0.83   0.05
  45   1     0.01  -0.01   0.02    -0.01   0.01  -0.02    -0.04   0.05  -0.12
  46   6    -0.00   0.01   0.01     0.00  -0.00   0.00    -0.00   0.01   0.02
  47   8     0.00   0.00  -0.00     0.00  -0.00  -0.00    -0.00  -0.00  -0.01
  48   7     0.00  -0.00  -0.00    -0.00   0.00   0.00    -0.00  -0.00  -0.00
  49   1     0.01  -0.00   0.01    -0.00   0.00  -0.00     0.01  -0.00   0.02
  50   1     0.00  -0.00  -0.00     0.00   0.00   0.00     0.00  -0.00  -0.01
  51   7    -0.09   0.06   0.01     0.05  -0.03  -0.00    -0.03   0.02  -0.00
  52   1    -0.01   0.03   0.05     0.00  -0.02  -0.03    -0.00   0.01   0.02
  53   1     0.35  -0.26  -0.07    -0.18   0.13   0.04     0.12  -0.09  -0.03
                    142                    143                    144
                        a                      a                      a 
 Frequencies --  3480.6076              3498.3497              3501.2069
 Red. masses --     1.4594                 1.4508                 1.4452
 Frc consts  --     0.0000                 0.0000                 0.0000
 IR Inten    --    24.0008                20.2713                24.0936
 Raman Activ --     0.0000                 0.0000                 0.0000
 Depolar     --     0.0000                 0.0000                 0.0000
 Atom AN      X      Y      Z        X      Y      Z        X      Y      Z
   1   8    -0.00   0.00   0.00     0.00  -0.00   0.00     0.00  -0.00  -0.00
   2   6     0.00   0.00   0.00    -0.00   0.00  -0.00     0.00  -0.00  -0.00
   3   1     0.00   0.00  -0.00     0.00   0.00  -0.00    -0.00  -0.00   0.00
   4   1    -0.00  -0.00  -0.00     0.00   0.00   0.00     0.00   0.00   0.00
   5   6     0.00  -0.00   0.00    -0.00  -0.00  -0.00    -0.00   0.00  -0.00
   6   1    -0.00   0.00  -0.00    -0.00  -0.00   0.00     0.00  -0.00   0.00
   7   1    -0.00  -0.00  -0.00     0.00   0.00   0.00    -0.00  -0.00  -0.00
   8   7     0.00   0.00  -0.00     0.00   0.00   0.00     0.00  -0.00  -0.00
   9   6     0.00  -0.00   0.00    -0.00  -0.00  -0.00     0.00   0.00   0.00
  10   1    -0.00  -0.00   0.00    -0.00  -0.00  -0.00     0.00  -0.00   0.00
  11   1    -0.00   0.00  -0.00     0.00  -0.00   0.00    -0.00   0.00  -0.00
  12   1    -0.00  -0.00  -0.00     0.00   0.00   0.00     0.00  -0.00  -0.00
  13   6     0.00  -0.00  -0.00    -0.00  -0.00  -0.00     0.00   0.00   0.00
  14   1    -0.00   0.00   0.00    -0.00  -0.00  -0.00    -0.00   0.00  -0.00
  15   1     0.00  -0.00   0.00    -0.00   0.00   0.00    -0.00  -0.00   0.00
  16   1    -0.00  -0.00  -0.00     0.00   0.00   0.00    -0.00  -0.00  -0.00
  17   6     0.00  -0.00   0.00    -0.00   0.00  -0.00    -0.00  -0.00  -0.00
  18   1     0.00  -0.00   0.00    -0.00  -0.00  -0.00    -0.00   0.00   0.00
  19   1    -0.00   0.00  -0.00     0.00  -0.00   0.00     0.00  -0.00   0.00
  20   1    -0.00  -0.00   0.00     0.00   0.00  -0.00    -0.00  -0.00   0.00
  21   1     0.00  -0.00  -0.00     0.00  -0.00  -0.00    -0.00   0.00   0.00
  22   6    -0.00  -0.00  -0.00     0.00   0.00   0.00     0.00  -0.00  -0.00
  23   8     0.00   0.00   0.00     0.00  -0.00  -0.00    -0.00   0.00   0.00
  24   7    -0.00   0.00  -0.00     0.15   0.01   0.10    -0.00   0.00  -0.00
  25   1     0.00  -0.00  -0.00    -0.54   0.35   0.20     0.00  -0.00  -0.00
  26   1     0.00   0.00   0.00    -0.03  -0.41  -0.58     0.00   0.00   0.00
  27   7     0.00  -0.00   0.00    -0.01  -0.00  -0.01    -0.00   0.00   0.00
  28   1     0.00   0.00   0.00     0.00   0.02   0.03     0.00  -0.00  -0.00
  29   1    -0.00   0.00  -0.00     0.01  -0.00   0.01     0.00  -0.00   0.00
  30   6    -0.00  -0.00  -0.00     0.00  -0.00   0.00     0.00  -0.00  -0.00
  31   8     0.00   0.00   0.00    -0.00   0.00  -0.00    -0.00   0.00   0.00
  32   7    -0.00   0.00   0.00    -0.00   0.00  -0.00    -0.00   0.00  -0.00
  33   1     0.01  -0.00  -0.00     0.00  -0.00  -0.00     0.01  -0.00  -0.00
  34   1    -0.00  -0.00  -0.00    -0.00  -0.00   0.00    -0.00  -0.00   0.01
  35   7     0.00  -0.00   0.00    -0.00   0.00   0.00    -0.00   0.00   0.00
  36   1     0.00   0.00  -0.00     0.00   0.00  -0.01     0.00   0.00  -0.00
  37   1    -0.00   0.00  -0.00     0.01  -0.00   0.01     0.00  -0.00   0.00
  38   6    -0.00   0.00  -0.00     0.00  -0.00   0.00     0.00  -0.00  -0.00
  39   8     0.00  -0.00  -0.00    -0.00   0.00  -0.00    -0.00   0.00   0.00
  40   7    -0.10   0.07  -0.14    -0.00   0.00  -0.00    -0.00   0.00  -0.00
  41   1    -0.14   0.29   0.52    -0.00   0.00   0.00    -0.00   0.00   0.00
  42   1     0.54  -0.55  -0.01     0.00  -0.00  -0.00     0.00  -0.00  -0.00
  43   7    -0.00   0.00   0.01     0.00  -0.00   0.00     0.00   0.00   0.01
  44   1     0.01  -0.02   0.00    -0.00   0.00   0.00     0.00  -0.01   0.00
  45   1    -0.01   0.01  -0.03    -0.00   0.00  -0.00    -0.01   0.01  -0.02
  46   6     0.00   0.00   0.00     0.00  -0.00   0.00     0.00  -0.00  -0.00
  47   8    -0.00   0.00  -0.00    -0.00   0.00  -0.00    -0.00   0.00   0.00
  48   7    -0.00   0.00  -0.00     0.00  -0.00   0.00     0.14  -0.11  -0.03
  49   1     0.00  -0.00   0.00    -0.00   0.00  -0.00    -0.43   0.14  -0.51
  50   1     0.00  -0.00  -0.00    -0.00   0.00   0.00    -0.09   0.28   0.64
  51   7    -0.00   0.00  -0.00    -0.00   0.00  -0.00    -0.01   0.01   0.01
  52   1    -0.00   0.00   0.00    -0.00   0.00   0.00     0.00  -0.02  -0.04
  53   1     0.00  -0.00  -0.00     0.00  -0.00  -0.00     0.01  -0.01  -0.00
                    145                    146                    147
                        a                      a                      a 
 Frequencies --  3514.7570              3528.8982              3535.8856
 Red. masses --     1.9072                 1.8974                 1.8997
 Frc consts  --     0.0000                 0.0000                 0.0000
 IR Inten    --    16.1810                 7.7706                 7.7095
 Raman Activ --     0.0000                 0.0000                 0.0000
 Depolar     --     0.0000                 0.0000                 0.0000
 Atom AN      X      Y      Z        X      Y      Z        X      Y      Z
   1   8    -0.00  -0.00   0.00     0.00  -0.00  -0.00     0.00  -0.00  -0.00
   2   6    -0.00  -0.00  -0.00    -0.00   0.00  -0.00    -0.00  -0.00  -0.00
   3   1    -0.00  -0.00   0.00    -0.00  -0.00   0.00     0.00   0.00  -0.00
   4   1     0.00   0.00   0.00     0.00   0.00   0.00     0.00   0.00   0.00
   5   6     0.00  -0.00   0.00    -0.00  -0.00  -0.00     0.00  -0.00  -0.00
   6   1    -0.00   0.00  -0.00     0.00  -0.00  -0.00    -0.00  -0.00  -0.00
   7   1     0.00  -0.00   0.00     0.00   0.00   0.00     0.00  -0.00   0.00
   8   7    -0.00   0.00   0.00     0.00  -0.00   0.00     0.00   0.00   0.00
   9   6     0.00  -0.00   0.00    -0.00  -0.00  -0.00     0.00   0.00   0.00
  10   1     0.00  -0.00   0.00     0.00   0.00  -0.00     0.00   0.00   0.00
  11   1    -0.01   0.00  -0.01    -0.00  -0.00   0.00    -0.00   0.00  -0.00
  12   1     0.00   0.00   0.00     0.00   0.00   0.00    -0.00  -0.00  -0.00
  13   6     0.00  -0.00  -0.00    -0.00  -0.00  -0.00    -0.00  -0.00   0.00
  14   1    -0.00   0.00   0.00    -0.00   0.00   0.00     0.00  -0.00  -0.00
  15   1     0.00  -0.00   0.00    -0.00  -0.00   0.00     0.00   0.00   0.00
  16   1     0.00  -0.00  -0.00     0.00   0.00   0.00     0.00   0.00   0.00
  17   6     0.00  -0.00   0.00    -0.00  -0.00  -0.00    -0.00  -0.00   0.00
  18   1    -0.00   0.00   0.00    -0.00   0.00   0.00     0.00   0.00   0.00
  19   1    -0.00   0.00  -0.00     0.00  -0.00  -0.00    -0.00   0.00  -0.00
  20   1     0.00  -0.00   0.00    -0.00  -0.00   0.00     0.00   0.00  -0.00
  21   1     0.00  -0.00  -0.00    -0.00   0.00   0.00    -0.00   0.00   0.00
  22   6     0.00  -0.00  -0.00     0.00  -0.00  -0.00     0.00   0.00   0.00
  23   8    -0.00  -0.00   0.00    -0.00   0.00   0.00    -0.00  -0.00  -0.00
  24   7    -0.00  -0.00  -0.00    -0.00   0.00   0.00     0.00  -0.00  -0.00
  25   1     0.00  -0.00  -0.00     0.00  -0.00  -0.00    -0.02   0.01   0.01
  26   1     0.00   0.00   0.00    -0.00  -0.00  -0.00     0.00   0.00   0.01
  27   7     0.00   0.00   0.00    -0.00  -0.00  -0.00     0.00   0.03   0.06
  28   1     0.00  -0.00  -0.00     0.00   0.01   0.02    -0.01  -0.13  -0.21
  29   1    -0.00   0.00  -0.00     0.00  -0.00   0.00    -0.01   0.01  -0.01
  30   6    -0.00   0.00  -0.00    -0.01   0.00   0.00    -0.00   0.00  -0.00
  31   8     0.00  -0.00   0.00     0.00  -0.00  -0.00    -0.00   0.00   0.00
  32   7     0.00  -0.00  -0.00    -0.09   0.00   0.23    -0.00  -0.00   0.01
  33   1    -0.01   0.00   0.00     0.07  -0.02   0.00     0.00  -0.00   0.00
  34   1    -0.00  -0.00   0.00     0.28   0.00  -0.86     0.02   0.00  -0.05
  35   7     0.00   0.00  -0.00     0.03   0.02  -0.08    -0.01  -0.00   0.02
  36   1    -0.00  -0.00   0.00    -0.13  -0.07   0.28     0.03   0.02  -0.06
  37   1    -0.00   0.00  -0.00     0.02  -0.02   0.02    -0.00   0.00  -0.00
  38   6     0.01  -0.00   0.01    -0.00  -0.00   0.00    -0.00   0.00   0.00
  39   8     0.00  -0.00  -0.00     0.00   0.00   0.00     0.00  -0.00  -0.00
  40   7    -0.00   0.01   0.01    -0.00   0.00   0.00     0.00  -0.00  -0.00
  41   1     0.01  -0.03  -0.05     0.00  -0.00  -0.01    -0.00   0.00   0.00
  42   1     0.00  -0.00   0.00     0.00  -0.00  -0.00    -0.00   0.00   0.00
  43   7     0.09  -0.10   0.22    -0.00   0.00   0.00     0.00  -0.00   0.00
  44   1    -0.04   0.11   0.01     0.00  -0.01   0.00    -0.00   0.00   0.00
  45   1    -0.31   0.28  -0.86    -0.00   0.00  -0.00    -0.00   0.00  -0.01
  46   6     0.00  -0.00  -0.00     0.00   0.00   0.00     0.00  -0.01  -0.00
  47   8     0.00   0.00   0.00     0.00  -0.00  -0.00    -0.00   0.00   0.00
  48   7    -0.00   0.00   0.00     0.00  -0.00  -0.00     0.01  -0.00   0.02
  49   1     0.01  -0.00   0.01    -0.00   0.00  -0.00    -0.05   0.02  -0.06
  50   1     0.00  -0.01  -0.02    -0.00   0.00   0.01     0.00  -0.01  -0.02
  51   7     0.00   0.00   0.00    -0.00   0.00   0.01     0.03  -0.13  -0.21
  52   1     0.00  -0.01  -0.01     0.00  -0.01  -0.02    -0.06   0.44   0.81
  53   1    -0.00   0.00   0.00     0.00  -0.00  -0.00    -0.07   0.04  -0.00
                    148                    149                    150
                        a                      a                      a 
 Frequencies --  3536.8261              3537.6451              3548.0841
 Red. masses --     1.8966                 1.9082                 2.1715
 Frc consts  --     0.0000                 0.0000                 0.0000
 IR Inten    --    22.4449                19.5199                15.5479
 Raman Activ --     0.0000                 0.0000                 0.0000
 Depolar     --     0.0000                 0.0000                 0.0000
 Atom AN      X      Y      Z        X      Y      Z        X      Y      Z
   1   8     0.00  -0.00  -0.00    -0.00   0.00   0.00    -0.00   0.00   0.00
   2   6     0.00  -0.00  -0.00     0.00  -0.00   0.00     0.00   0.00   0.00
   3   1    -0.00  -0.00   0.00    -0.00  -0.00   0.00    -0.00  -0.00   0.00
   4   1    -0.00  -0.00  -0.00    -0.00  -0.00  -0.00     0.00   0.00   0.00
   5   6    -0.00   0.00   0.00    -0.00  -0.00   0.00     0.00  -0.00   0.00
   6   1     0.00  -0.00   0.00     0.00   0.00  -0.00    -0.00   0.00  -0.00
   7   1    -0.00  -0.00  -0.00     0.00   0.00  -0.00     0.00  -0.00   0.00
   8   7    -0.00  -0.00  -0.00     0.00  -0.00   0.00    -0.00   0.00  -0.00
   9   6    -0.00  -0.00  -0.00    -0.00  -0.00  -0.00     0.00  -0.00   0.00
  10   1    -0.00  -0.00  -0.00     0.00  -0.00   0.00     0.00  -0.00   0.00
  11   1     0.00  -0.00   0.00    -0.00  -0.00  -0.00    -0.00   0.00  -0.00
  12   1     0.00   0.00   0.00     0.00   0.00   0.00     0.00  -0.00   0.00
  13   6     0.00   0.00   0.00    -0.00  -0.00  -0.00     0.00  -0.00  -0.00
  14   1    -0.00   0.00   0.00    -0.00   0.00   0.00    -0.00   0.00   0.00
  15   1    -0.00  -0.00  -0.00    -0.00  -0.00   0.00     0.00  -0.00   0.00
  16   1    -0.00  -0.00  -0.00     0.00   0.00   0.00    -0.00  -0.00  -0.00
  17   6    -0.00   0.00   0.00     0.00  -0.00  -0.00     0.00  -0.00   0.00
  18   1     0.00  -0.00  -0.00    -0.00   0.00   0.00     0.00   0.00   0.00
  19   1     0.00  -0.00   0.00     0.00   0.00  -0.00    -0.00   0.00  -0.00
  20   1    -0.00  -0.00   0.00    -0.00  -0.00   0.00     0.00  -0.00   0.00
  21   1    -0.00   0.00   0.00     0.00  -0.00  -0.00     0.00  -0.00  -0.00
  22   6    -0.01  -0.00  -0.01     0.00  -0.00  -0.00     0.00  -0.00  -0.00
  23   8     0.00   0.00   0.00    -0.00   0.00   0.00    -0.00   0.00   0.00
  24   7    -0.02   0.02   0.01     0.00  -0.00   0.00    -0.00   0.00   0.00
  25   1     0.07  -0.05  -0.03    -0.01   0.00   0.00     0.00  -0.00  -0.00
  26   1    -0.00  -0.02  -0.03    -0.00  -0.00  -0.01    -0.00  -0.00  -0.00
  27   7    -0.02  -0.12  -0.21     0.00   0.02   0.03    -0.00  -0.00  -0.00
  28   1     0.02   0.49   0.77    -0.00  -0.07  -0.11     0.00   0.00   0.00
  29   1     0.06  -0.02   0.03    -0.00   0.00  -0.00     0.00  -0.00   0.00
  30   6     0.00   0.00  -0.00     0.00   0.00  -0.01     0.00   0.00  -0.00
  31   8    -0.00  -0.00   0.00    -0.00  -0.00   0.00    -0.00  -0.00   0.00
  32   7     0.01  -0.00  -0.01     0.03  -0.00  -0.08     0.00  -0.00   0.00
  33   1    -0.01   0.00   0.00    -0.03   0.01  -0.00    -0.00   0.00   0.00
  34   1    -0.01  -0.00   0.04    -0.10  -0.00   0.30     0.00   0.00  -0.00
  35   7     0.01   0.01  -0.02     0.08   0.06  -0.22     0.00   0.00  -0.00
  36   1    -0.04  -0.02   0.09    -0.38  -0.20   0.79    -0.00  -0.00   0.01
  37   1     0.01  -0.01   0.01     0.07  -0.04   0.06     0.00  -0.00   0.00
  38   6     0.00  -0.00  -0.00     0.00   0.00  -0.00     0.01  -0.01  -0.01
  39   8    -0.00   0.00  -0.00    -0.00  -0.00   0.00    -0.00   0.00   0.00
  40   7    -0.00   0.00   0.00    -0.00   0.00   0.00     0.15  -0.20  -0.17
  41   1     0.00  -0.00  -0.00     0.00  -0.00  -0.00    -0.14   0.34   0.65
  42   1     0.00  -0.00   0.00     0.00  -0.00   0.00    -0.42   0.42  -0.02
  43   7     0.00  -0.00   0.00    -0.00  -0.00  -0.00     0.00  -0.01   0.01
  44   1    -0.00   0.00   0.00    -0.00   0.00  -0.00    -0.01   0.02   0.00
  45   1    -0.00   0.00  -0.00     0.00  -0.00   0.00    -0.01   0.01  -0.04
  46   6     0.00  -0.00  -0.00     0.00  -0.00  -0.00    -0.00  -0.00  -0.00
  47   8    -0.00   0.00   0.00    -0.00   0.00   0.00     0.00  -0.00   0.00
  48   7     0.00  -0.00   0.01     0.00   0.00   0.00    -0.00   0.00   0.00
  49   1    -0.02   0.01  -0.02    -0.00   0.00  -0.00     0.00  -0.00   0.00
  50   1     0.00  -0.00  -0.01     0.00  -0.00  -0.00     0.00  -0.00  -0.00
  51   7     0.01  -0.04  -0.06     0.00  -0.01  -0.01     0.00   0.00   0.00
  52   1    -0.02   0.12   0.23    -0.00   0.03   0.05     0.00  -0.00  -0.00
  53   1    -0.02   0.01   0.00    -0.01   0.01   0.00    -0.00   0.00   0.00
                    151                    152                    153
                        a                      a                      a 
 Frequencies --  3563.1823              3568.4474              3573.3011
 Red. masses --     2.1794                 2.1882                 1.8782
 Frc consts  --     0.0000                 0.0000                 0.0000
 IR Inten    --    14.0625                16.9577                26.9302
 Raman Activ --     0.0000                 0.0000                 0.0000
 Depolar     --     0.0000                 0.0000                 0.0000
 Atom AN      X      Y      Z        X      Y      Z        X      Y      Z
   1   8     0.00  -0.00  -0.00     0.00  -0.00  -0.00    -0.12   0.07   0.20
   2   6    -0.00   0.00  -0.00     0.00  -0.00  -0.00    -0.00   0.00   0.00
   3   1    -0.00  -0.00   0.00    -0.00   0.00   0.00     0.00   0.00  -0.00
   4   1     0.00  -0.00  -0.00    -0.00  -0.00  -0.00     0.00   0.00   0.00
   5   6    -0.00  -0.00  -0.00    -0.00   0.00  -0.00    -0.00   0.00  -0.00
   6   1     0.00  -0.00   0.00     0.00  -0.00   0.00    -0.00   0.00   0.00
   7   1     0.00   0.00   0.00     0.00   0.00   0.00    -0.00  -0.00  -0.00
   8   7     0.00   0.00   0.00    -0.00  -0.00   0.00     0.00  -0.00  -0.00
   9   6    -0.00  -0.00  -0.00    -0.00   0.00  -0.00     0.00   0.00  -0.00
  10   1    -0.00  -0.00  -0.00    -0.00   0.00  -0.00     0.00   0.00   0.00
  11   1     0.00  -0.00   0.00     0.00  -0.00   0.00    -0.00   0.00  -0.00
  12   1     0.00   0.00   0.00    -0.00   0.00   0.00    -0.00  -0.00  -0.00
  13   6    -0.00  -0.00  -0.00    -0.00   0.00   0.00     0.00  -0.00  -0.00
  14   1    -0.00  -0.00  -0.00     0.00  -0.00  -0.00    -0.00   0.00   0.00
  15   1    -0.00  -0.00  -0.00     0.00   0.00  -0.00    -0.00   0.00  -0.00
  16   1     0.00   0.00   0.00    -0.00  -0.00  -0.00    -0.00  -0.00  -0.00
  17   6    -0.00   0.00  -0.00    -0.00   0.00  -0.00     0.00  -0.00  -0.00
  18   1    -0.00  -0.00  -0.00    -0.00  -0.00  -0.00    -0.00   0.00   0.00
  19   1     0.00  -0.00   0.00     0.00  -0.00   0.00     0.00  -0.00   0.00
  20   1    -0.00   0.00  -0.00     0.00   0.00  -0.00     0.00   0.00  -0.00
  21   1    -0.00   0.00   0.00    -0.00   0.00   0.00     0.49  -0.29  -0.78
  22   6     0.01  -0.01  -0.01    -0.00   0.00   0.00    -0.00   0.00   0.00
  23   8    -0.00   0.00   0.00     0.00  -0.00  -0.00     0.00  -0.00  -0.00
  24   7     0.13  -0.19  -0.19    -0.00   0.00   0.00     0.00  -0.00  -0.00
  25   1    -0.56   0.34   0.18     0.00  -0.00  -0.00    -0.00   0.00   0.00
  26   1     0.05   0.37   0.54    -0.00  -0.00  -0.00     0.00   0.00   0.00
  27   7    -0.00  -0.01  -0.02     0.00   0.00   0.00    -0.00  -0.00  -0.00
  28   1     0.00   0.05   0.08    -0.00  -0.00  -0.00     0.00   0.00   0.00
  29   1     0.01  -0.00   0.00    -0.00   0.00  -0.00     0.00  -0.00   0.00
  30   6     0.00   0.00  -0.00    -0.00  -0.00   0.00    -0.00   0.00   0.00
  31   8     0.00   0.00   0.00     0.00  -0.00  -0.00     0.00  -0.00  -0.00
  32   7     0.00  -0.00  -0.00    -0.00   0.00   0.00     0.00  -0.00   0.00
  33   1    -0.00   0.00   0.00     0.01  -0.00  -0.00    -0.00   0.00   0.00
  34   1    -0.00  -0.00   0.00     0.00   0.00  -0.01     0.00   0.00  -0.00
  35   7    -0.00   0.00  -0.00    -0.00  -0.00   0.00     0.00  -0.00  -0.00
  36   1    -0.00  -0.00   0.01     0.00   0.00  -0.00    -0.00   0.00  -0.00
  37   1     0.00  -0.00   0.01    -0.00   0.00  -0.00     0.00  -0.00   0.00
  38   6     0.00  -0.00  -0.00     0.00  -0.00  -0.00    -0.00   0.00   0.00
  39   8    -0.00   0.00  -0.00    -0.00   0.00   0.00     0.00  -0.00  -0.00
  40   7     0.00  -0.00  -0.00    -0.00   0.00   0.00     0.00  -0.00   0.00
  41   1    -0.00   0.00   0.00    -0.00   0.00   0.00     0.00  -0.00  -0.00
  42   1    -0.00   0.00  -0.00     0.00  -0.00  -0.00    -0.00   0.00  -0.00
  43   7     0.00  -0.00   0.00    -0.00   0.00  -0.00     0.00  -0.00  -0.00
  44   1    -0.00   0.00  -0.00     0.00  -0.01   0.00    -0.00   0.00  -0.00
  45   1    -0.00   0.00  -0.00     0.00  -0.00   0.00     0.00  -0.00   0.00
  46   6     0.00  -0.00   0.00     0.00   0.00   0.01    -0.00   0.00   0.00
  47   8     0.00   0.00   0.00    -0.00  -0.00  -0.00     0.00  -0.00  -0.00
  48   7     0.00   0.00   0.00     0.09   0.03   0.29     0.00   0.00   0.00
  49   1    -0.00   0.00  -0.00    -0.44   0.15  -0.49    -0.00   0.00  -0.00
  50   1     0.00  -0.00  -0.00     0.11  -0.27  -0.59     0.00  -0.00  -0.00
  51   7     0.00  -0.00  -0.00    -0.00   0.01   0.02     0.00  -0.00  -0.00
  52   1    -0.00   0.00   0.00     0.00  -0.03  -0.07    -0.00   0.00   0.00
  53   1    -0.00   0.00   0.00     0.01  -0.00   0.00    -0.00   0.00   0.00
