      -----------------------------------------------------------      
     |                   =====================                   |     
     |                           x T B                           |     
     |                   =====================                   |     
     |                         S. Grimme                         |     
     |          Mulliken Center for Theoretical Chemistry        |     
     |                    University of Bonn                     |     
      -----------------------------------------------------------      

   * xtb version 6.6.1 (unknown-commit) compiled by '@Linux' on 12/27/2023

   xtb is free software: you can redistribute it and/or modify it under
   the terms of the GNU Lesser General Public License as published by
   the Free Software Foundation, either version 3 of the License, or
   (at your option) any later version.
   
   xtb is distributed in the hope that it will be useful,
   but WITHOUT ANY WARRANTY; without even the implied warranty of
   MERCHANTABILITY or FITNESS FOR A PARTICULAR PURPOSE.  See the
   GNU Lesser General Public License for more details.
   
   Cite this work as:
   * C. Bannwarth, E. Caldeweyher, S. Ehlert, A. Hansen, P. Pracht,
     J. Seibert, S. Spicher, S. Grimme, WIREs Comput. Mol. Sci., 2020, 11,
     e01493. DOI: 10.1002/wcms.1493
   
   for GFN2-xTB:
   * C. Bannwarth, S. Ehlert and S. Grimme., J. Chem. Theory Comput., 2019,
     15, 1652-1671. DOI: 10.1021/acs.jctc.8b01176
   for GFN1-xTB:
   * S. Grimme, C. Bannwarth, P. Shushkov, J. Chem. Theory Comput., 2017,
     13, 1989-2009. DOI: 10.1021/acs.jctc.7b00118
   for GFN0-xTB:
   * P. Pracht, E. Caldeweyher, S. Ehlert, S. Grimme, ChemRxiv, 2019, preprint.
     DOI: 10.26434/chemrxiv.8326202.v1
   for GFN-FF:
   * S. Spicher and S. Grimme, Angew. Chem. Int. Ed., 2020, 59, 15665-15673.
     DOI: 10.1002/anie.202004239
   
   for ALPB and GBSA implicit solvation:
   * S. Ehlert, M. Stahn, S. Spicher, S. Grimme, J. Chem. Theory Comput.,
     2021, 17, 4250-4261. DOI: 10.1021/acs.jctc.1c00471
   
   for DFT-D4:
   * E. Caldeweyher, C. Bannwarth and S. Grimme, J. Chem. Phys., 2017,
     147, 034112. DOI: 10.1063/1.4993215
   * E. Caldeweyher, S. Ehlert, A. Hansen, H. Neugebauer, S. Spicher,
     C. Bannwarth and S. Grimme, J. Chem. Phys., 2019, 150, 154122.
     DOI: 10.1063/1.5090222
   * E. Caldeweyher, J.-M. Mewes, S. Ehlert and S. Grimme, Phys. Chem. Chem. Phys.
     2020, 22, 8499-8512. DOI: 10.1039/D0CP00502A
   
   for sTDA-xTB:
   * S. Grimme and C. Bannwarth, J. Chem. Phys., 2016, 145, 054103.
     DOI: 10.1063/1.4959605
   
   in the mass-spec context:
   * V. Asgeirsson, C. Bauer and S. Grimme, Chem. Sci., 2017, 8, 4879.
     DOI: 10.1039/c7sc00601b
   * J. Koopman and S. Grimme, ACS Omega 2019, 4, 12, 15120-15133.
     DOI: 10.1021/acsomega.9b02011
   
   for metadynamics refer to:
   * S. Grimme, J. Chem. Theory Comput., 2019, 155, 2847-2862
     DOI: 10.1021/acs.jctc.9b00143
   
   for SPH calculations refer to:
   * S. Spicher and S. Grimme, J. Chem. Theory Comput., 2021, 17, 1701-1714
     DOI: 10.1021/acs.jctc.0c01306
   
   with help from (in alphabetical order)
   P. Atkinson, C. Bannwarth, F. Bohle, G. Brandenburg, E. Caldeweyher
   M. Checinski, S. Dohm, S. Ehlert, S. Ehrlich, I. Gerasimov, C. Hölzer
   A. Katbashev, J. Koopman, C. Lavigne, S. Lehtola, F. März, M. Müller,
   F. Musil, H. Neugebauer, J. Pisarek, C. Plett, P. Pracht, F. Pultar,
   J. Seibert, P. Shushkov, S. Spicher, M. Stahn, M. Steiner, T. Strunk,
   J. Stückrath, T. Rose, and J. Unsleber
   
 * started run on 2024/01/10 at 18:25:29.053     

           -------------------------------------------------
          |                Calculation Setup                |
           -------------------------------------------------

          program call               : xtb struc.xyz --gfn2 --hess
          hostname                   : swaroop
          coordinate file            : struc.xyz
          omp threads                :                     1

   ID    Z sym.   atoms
    1    8 O      1, 23, 31, 39, 47
    2    6 C      2, 5, 9, 13, 17, 22, 30, 38, 46
    3    1 H      3, 4, 6, 7, 10-12, 14-16, 18-21, 25, 26, 28, 29, 33, 34,
                  36, 37, 41, 42, 44, 45, 49, 50, 52, 53
    4    7 N      8, 24, 27, 32, 35, 40, 43, 48, 51

molecular fragmentation (1/2 indicates fragments):
11111111111111111111122222222222222222222222222222222
# atoms in fragment 1/2:    21    32
 fragment masses (1/2) :      104.17      240.22
CMA distance (Bohr)    :   9.484
constraining FC (au)   :  0.0500

           -------------------------------------------------
          |                 G F N 2 - x T B                 |
           -------------------------------------------------

        Reference                      10.1021/acs.jctc.8b01176
      * Hamiltonian:
        H0-scaling (s, p, d)           1.850000    2.230000    2.230000
        zeta-weighting                 0.500000
      * Dispersion:
        s8                             2.700000
        a1                             0.520000
        a2                             5.000000
        s9                             5.000000
      * Repulsion:
        kExp                           1.500000    1.000000
        rExp                           1.000000
      * Coulomb:
        alpha                          2.000000
        third order                    shell-resolved
        anisotropic                    true
        a3                             3.000000
        a5                             4.000000
        cn-shift                       1.200000
        cn-exp                         4.000000
        max-rad                        5.000000


          ...................................................
          :                      SETUP                      :
          :.................................................:
          :  # basis functions                 122          :
          :  # atomic orbitals                 122          :
          :  # shells                           76          :
          :  # electrons                       140          :
          :  max. iterations                   250          :
          :  Hamiltonian                  GFN2-xTB          :
          :  restarted?                      false          :
          :  GBSA solvation                  false          :
          :  PC potential                    false          :
          :  electronic temp.          300.0000000     K    :
          :  accuracy                    1.0000000          :
          :  -> integral cutoff          0.2500000E+02      :
          :  -> integral neglect         0.1000000E-07      :
          :  -> SCF convergence          0.1000000E-05 Eh   :
          :  -> wf. convergence          0.1000000E-03 e    :
          :  Broyden damping             0.4000000          :
          ...................................................

 iter      E             dE          RMSdq      gap      omega  full diag
   1    -81.5600938 -0.815601E+02  0.425E+00    4.98       0.0  T
   2    -81.8368268 -0.276733E+00  0.228E+00    6.06       1.0  T
   3    -81.8425812 -0.575444E-02  0.111E+00    5.74       1.0  T
   4    -81.8440014 -0.142017E-02  0.248E-01    5.82       1.0  T
   5    -81.8449737 -0.972312E-03  0.907E-02    5.75       1.0  T
   6    -81.8449981 -0.244221E-04  0.260E-02    5.77       1.0  T
   7    -81.8450022 -0.406650E-05  0.775E-03    5.77       1.8  T
   8    -81.8450025 -0.306630E-06  0.296E-03    5.76       4.6  T
   9    -81.8450025 -0.434402E-07  0.111E-03    5.76      12.4  T
  10    -81.8450025 -0.648281E-08  0.227E-04    5.76      60.6  T
  11    -81.8450025 -0.575326E-09  0.936E-05    5.76     146.8  T

   *** convergence criteria satisfied after 11 iterations ***

         #    Occupation            Energy/Eh            Energy/eV
      -------------------------------------------------------------
         1        2.0000           -0.8032486             -21.8575
       ...           ...                  ...                  ...
        64        2.0000           -0.4984209             -13.5627
        65        2.0000           -0.4949591             -13.4685
        66        2.0000           -0.4924891             -13.4013
        67        2.0000           -0.4911907             -13.3660
        68        2.0000           -0.4899329             -13.3318
        69        2.0000           -0.4857714             -13.2185
        70        2.0000           -0.4831936             -13.1484 (HOMO)
        71                         -0.2714144              -7.3856 (LUMO)
        72                         -0.2674399              -7.2774
        73                         -0.2638566              -7.1799
        74                         -0.2590907              -7.0502
        75                         -0.1603416              -4.3631
       ...                                ...                  ...
       122                          0.5512022              14.9990
      -------------------------------------------------------------
                  HL-Gap            0.2117792 Eh            5.7628 eV
             Fermi-level           -0.3773040 Eh          -10.2670 eV

 SCC (total)                   0 d,  0 h,  0 min,  0.099 sec
 SCC setup                      ...        0 min,  0.000 sec (  0.289%)
 Dispersion                     ...        0 min,  0.001 sec (  0.587%)
 classical contributions        ...        0 min,  0.000 sec (  0.182%)
 integral evaluation            ...        0 min,  0.008 sec (  8.052%)
 iterations                     ...        0 min,  0.062 sec ( 62.374%)
 molecular gradient             ...        0 min,  0.028 sec ( 28.244%)
 printout                       ...        0 min,  0.000 sec (  0.261%)

         :::::::::::::::::::::::::::::::::::::::::::::::::::::
         ::                     SUMMARY                     ::
         :::::::::::::::::::::::::::::::::::::::::::::::::::::
         :: total energy             -80.935400431994 Eh    ::
         :: gradient norm              0.000068539879 Eh/a0 ::
         :: HOMO-LUMO gap              5.762805253699 eV    ::
         ::.................................................::
         :: SCC energy               -81.845002540554 Eh    ::
         :: -> isotropic ES            0.296383429863 Eh    ::
         :: -> anisotropic ES         -0.029833464553 Eh    ::
         :: -> anisotropic XC          0.020394129817 Eh    ::
         :: -> dispersion             -0.046634588355 Eh    ::
         :: repulsion energy           0.908213323473 Eh    ::
         :: add. restraining           0.000000000000 Eh    ::
         :: total charge               1.000000000000 e     ::
         :::::::::::::::::::::::::::::::::::::::::::::::::::::

           ------------------------------------------------- 
          |                Numerical Hessian                |
           ------------------------------------------------- 
step length          :   0.00500
SCC accuracy         :   0.30000
Hessian scale factor :   1.00000
frozen atoms in %    :   0.00000    0
RMS gradient         :   0.00007
estimated CPU  time      0.24 min
estimated wall time      0.24 min

writing file <hessian>.

 projected vibrational frequencies (cm⁻¹)
eigval :       -0.00    -0.00    -0.00     0.00     0.00     0.00
eigval :       16.90    31.45    32.63    35.95    41.86    44.41
eigval :       47.18    51.08    53.61    55.97    59.71    68.55
eigval :       70.61    85.87    87.26    97.81   122.10   126.20
eigval :      130.82   144.45   151.66   170.21   172.86   192.87
eigval :      199.17   211.96   220.66   266.97   284.06   285.87
eigval :      309.47   313.64   340.35   367.77   373.40   382.44
eigval :      396.44   415.82   416.71   439.26   454.02   459.23
eigval :      467.14   470.78   472.68   475.61   481.39   484.32
eigval :      490.78   503.19   516.28   550.74   555.48   558.09
eigval :      564.74   577.70   643.74   664.49   672.16   678.41
eigval :      686.95   708.93   726.85   751.66   771.28   790.03
eigval :      889.66   927.75   963.04   967.73   995.08   996.95
eigval :     1001.16  1011.61  1016.94  1020.41  1022.52  1023.45
eigval :     1036.45  1038.18  1053.94  1086.90  1087.35  1094.37
eigval :     1097.77  1112.49  1120.67  1130.15  1188.64  1206.90
eigval :     1245.61  1255.28  1275.26  1320.14  1351.02  1353.97
eigval :     1357.22  1372.38  1374.23  1394.17  1398.59  1405.14
eigval :     1414.26  1430.07  1440.66  1446.76  1450.62  1453.21
eigval :     1456.40  1460.47  1463.43  1469.89  1472.99  1478.60
eigval :     1497.52  1501.87  1511.40  1519.78  1523.07  1643.99
eigval :     1669.29  1696.55  1711.32  2894.95  2927.80  2986.37
eigval :     3015.09  3022.81  3038.07  3040.52  3042.57  3044.43
eigval :     3048.47  3055.52  3060.81  3071.40  3141.54  3182.91
eigval :     3226.69  3272.29  3320.25  3480.61  3498.35  3501.21
eigval :     3514.76  3528.90  3535.89  3536.83  3537.65  3548.08
eigval :     3563.18  3568.45  3573.30
           -------------------------------------------------
          |                Property Printout                |
           -------------------------------------------------

    * Orbital Energies and Occupations

         #    Occupation            Energy/Eh            Energy/eV
      -------------------------------------------------------------
         1        2.0000           -0.8032485             -21.8575
       ...           ...                  ...                  ...
        58        2.0000           -0.5204586             -14.1624
        59        2.0000           -0.5084738             -13.8363
        60        2.0000           -0.5041495             -13.7186
        61        2.0000           -0.5031816             -13.6923
        62        2.0000           -0.5011648             -13.6374
        63        2.0000           -0.4989314             -13.5766
        64        2.0000           -0.4984214             -13.5627
        65        2.0000           -0.4949601             -13.4685
        66        2.0000           -0.4924898             -13.4013
        67        2.0000           -0.4911913             -13.3660
        68        2.0000           -0.4899336             -13.3318
        69        2.0000           -0.4857723             -13.2185
        70        2.0000           -0.4831947             -13.1484 (HOMO)
        71                         -0.2714147              -7.3856 (LUMO)
        72                         -0.2674402              -7.2774
        73                         -0.2638575              -7.1799
        74                         -0.2590912              -7.0502
        75                         -0.1603415              -4.3631
        76                         -0.1049256              -2.8552
        77                         -0.0960258              -2.6130
        78                         -0.0875568              -2.3825
        79                         -0.0840205              -2.2863
        80                         -0.0736290              -2.0035
        81                         -0.0676511              -1.8409
       ...                                ...                  ...
       122                          0.5512016              14.9990
      -------------------------------------------------------------
                  HL-Gap            0.2117800 Eh            5.7628 eV
             Fermi-level           -0.3773047 Eh          -10.2670 eV

     #   Z          covCN         q      C6AA      α(0)
     1   8 O        1.655    -0.442    21.679     6.285
     2   6 C        3.672     0.073    19.597     6.345
     3   1 H        0.924     0.050     2.324     2.384
     4   1 H        0.924     0.048     2.347     2.396
     5   6 C        3.769    -0.068    21.829     6.658
     6   1 H        0.924     0.125     1.571     1.960
     7   1 H        0.925     0.117     1.637     2.001
     8   7 N        3.624     0.162    18.517     6.391
     9   6 C        3.736    -0.122    22.937     6.835
    10   1 H        0.925     0.078     1.999     2.211
    11   1 H        0.925     0.123     1.586     1.970
    12   1 H        0.925     0.116     1.643     2.004
    13   6 C        3.722    -0.108    22.682     6.801
    14   1 H        0.925     0.119     1.625     1.994
    15   1 H        0.925     0.081     1.973     2.197
    16   1 H        0.925     0.108     1.714     2.047
    17   6 C        3.722    -0.104    22.596     6.789
    18   1 H        0.925     0.098     1.801     2.099
    19   1 H        0.925     0.117     1.635     1.999
    20   1 H        0.925     0.086     1.920     2.167
    21   1 H        0.805     0.302     0.715     1.328
    22   6 C        2.675     0.341    21.209     7.536
    23   8 O        0.861    -0.542    24.739     6.669
    24   7 N        2.645    -0.291    27.499     7.788
    25   1 H        0.860     0.200     1.107     1.648
    26   1 H        0.861     0.184     1.191     1.709
    27   7 N        2.644    -0.308    27.931     7.849
    28   1 H        0.861     0.178     1.227     1.735
    29   1 H        0.859     0.245     0.904     1.490
    30   6 C        2.675     0.340    21.224     7.539
    31   8 O        0.860    -0.535    24.579     6.647
    32   7 N        2.644    -0.308    27.935     7.850
    33   1 H        0.860     0.241     0.918     1.501
    34   1 H        0.860     0.178     1.223     1.732
    35   7 N        2.644    -0.315    28.095     7.872
    36   1 H        0.861     0.175     1.244     1.747
    37   1 H        0.860     0.234     0.946     1.524
    38   6 C        2.675     0.342    21.191     7.533
    39   8 O        0.859    -0.541    24.708     6.664
    40   7 N        2.647    -0.301    27.742     7.823
    41   1 H        0.860     0.192     1.148     1.678
    42   1 H        0.860     0.197     1.122     1.660
    43   7 N        2.646    -0.312    28.027     7.863
    44   1 H        0.860     0.225     0.986     1.556
    45   1 H        0.860     0.191     1.155     1.684
    46   6 C        2.675     0.342    21.193     7.533
    47   8 O        0.861    -0.529    24.427     6.627
    48   7 N        2.645    -0.284    27.335     7.765
    49   1 H        0.860     0.204     1.083     1.631
    50   1 H        0.861     0.185     1.185     1.705
    51   7 N        2.644    -0.308    27.920     7.848
    52   1 H        0.861     0.177     1.232     1.739
    53   1 H        0.859     0.242     0.914     1.498

 Mol. C6AA /au·bohr⁶  :      21784.047422
 Mol. C8AA /au·bohr⁸  :     454286.894165
 Mol. α(0) /au        :        220.500110


Wiberg/Mayer (AO) data.
largest (>0.10) Wiberg bond orders for each atom

 ---------------------------------------------------------------------------
     #   Z sym  total        # sym  WBO       # sym  WBO       # sym  WBO
 ---------------------------------------------------------------------------
     1   8 O    1.956 --     2 C    0.997    21 H    0.893
     2   6 C    3.958 --     5 C    1.007     1 O    0.997     3 H    0.966
                             4 H    0.966
     3   1 H    0.997 --     2 C    0.966
     4   1 H    0.998 --     2 C    0.966
     5   6 C    3.929 --     2 C    1.007     7 H    0.958     6 H    0.947
                             8 N    0.937
     6   1 H    0.984 --     5 C    0.947
     7   1 H    0.986 --     5 C    0.958
     8   7 N    3.824 --    17 C    0.961    13 C    0.958     9 C    0.952
                             5 C    0.937
     9   6 C    3.913 --    10 H    0.979    12 H    0.960     8 N    0.952
                            11 H    0.952
    10   1 H    0.994 --     9 C    0.979
    11   1 H    0.985 --     9 C    0.952
    12   1 H    0.986 --     9 C    0.960
    13   6 C    3.925 --    15 H    0.979    16 H    0.970    14 H    0.965
                             8 N    0.958
    14   1 H    0.986 --    13 C    0.965
    15   1 H    0.993 --    13 C    0.979
    16   1 H    0.988 --    13 C    0.970
    17   6 C    3.930 --    20 H    0.977    18 H    0.974    19 H    0.969
                             8 N    0.961
    18   1 H    0.990 --    17 C    0.974
    19   1 H    0.986 --    17 C    0.969
    20   1 H    0.993 --    17 C    0.977
    21   1 H    0.908 --     1 O    0.893
    22   6 C    3.960 --    23 O    1.479    27 N    1.263    24 N    1.207
    23   8 O    1.885 --    22 C    1.479    27 N    0.145    24 N    0.129
    24   7 N    3.321 --    22 C    1.207    26 H    0.947    25 H    0.943
                            23 O    0.129
    25   1 H    0.960 --    24 N    0.943
    26   1 H    0.966 --    24 N    0.947
    27   7 N    3.348 --    22 C    1.263    28 H    0.949    29 H    0.864
                            23 O    0.145
    28   1 H    0.968 --    27 N    0.949
    29   1 H    0.940 --    27 N    0.864
    30   6 C    3.960 --    31 O    1.459    32 N    1.255    35 N    1.237
    31   8 O    1.921 --    30 C    1.459    32 N    0.133    35 N    0.131
    32   7 N    3.336 --    30 C    1.255    34 H    0.948    33 H    0.871
                            31 O    0.133
    33   1 H    0.942 --    32 N    0.871
    34   1 H    0.968 --    32 N    0.948
    35   7 N    3.325 --    30 C    1.237    36 H    0.949    37 H    0.878
                            31 O    0.131
    36   1 H    0.969 --    35 N    0.949
    37   1 H    0.945 --    35 N    0.878
    38   6 C    3.959 --    39 O    1.519    43 N    1.234    40 N    1.197
    39   8 O    1.880 --    38 C    1.519    43 N    0.143    40 N    0.134
    40   7 N    3.304 --    38 C    1.197    41 H    0.945    42 H    0.942
                            39 O    0.134
    41   1 H    0.963 --    40 N    0.945
    42   1 H    0.961 --    40 N    0.942
    43   7 N    3.319 --    38 C    1.234    45 H    0.941    44 H    0.888
                            39 O    0.143
    44   1 H    0.949 --    43 N    0.888
    45   1 H    0.964 --    43 N    0.941
    46   6 C    3.960 --    47 O    1.473    51 N    1.254    48 N    1.220
    47   8 O    1.911 --    46 C    1.473    51 N    0.141    48 N    0.129
    48   7 N    3.335 --    46 C    1.220    50 H    0.947    49 H    0.941
                            47 O    0.129
    49   1 H    0.958 --    48 N    0.941
    50   1 H    0.965 --    48 N    0.947
    51   7 N    3.340 --    46 C    1.254    52 H    0.949    53 H    0.872
                            47 O    0.141
    52   1 H    0.969 --    51 N    0.949
    53   1 H    0.941 --    51 N    0.872
 ---------------------------------------------------------------------------

Topologies differ in total number of bonds
Writing topology from bond orders to xtbtopo.mol

molecular dipole:
                 x           y           z       tot (Debye)
 q only:        0.951      -1.182       0.825
   full:        0.959      -0.416       0.836       3.402
molecular quadrupole (traceless):
                xx          xy          yy          xz          yz          zz
 q only:       -7.594     -31.911      14.111       1.033      14.399      -6.517
  q+dip:       -6.865     -33.777      10.057       1.537      19.737      -3.192
   full:       -7.061     -33.465      10.489       1.262      19.776      -3.428

           -------------------------------------------------
          |               Frequency Printout                |
           -------------------------------------------------
 projected vibrational frequencies (cm⁻¹)
eigval :       -0.00    -0.00    -0.00     0.00     0.00     0.00
eigval :       16.90    31.45    32.63    35.95    41.86    44.41
eigval :       47.18    51.08    53.61    55.97    59.71    68.55
eigval :       70.61    85.87    87.26    97.81   122.10   126.20
eigval :      130.82   144.45   151.66   170.21   172.86   192.87
eigval :      199.17   211.96   220.66   266.97   284.06   285.87
eigval :      309.47   313.64   340.35   367.77   373.40   382.44
eigval :      396.44   415.82   416.71   439.26   454.02   459.23
eigval :      467.14   470.78   472.68   475.61   481.39   484.32
eigval :      490.78   503.19   516.28   550.74   555.48   558.09
eigval :      564.74   577.70   643.74   664.49   672.16   678.41
eigval :      686.95   708.93   726.85   751.66   771.28   790.03
eigval :      889.66   927.75   963.04   967.73   995.08   996.95
eigval :     1001.16  1011.61  1016.94  1020.41  1022.52  1023.45
eigval :     1036.45  1038.18  1053.94  1086.90  1087.35  1094.37
eigval :     1097.77  1112.49  1120.67  1130.15  1188.64  1206.90
eigval :     1245.61  1255.28  1275.26  1320.14  1351.02  1353.97
eigval :     1357.22  1372.38  1374.23  1394.17  1398.59  1405.14
eigval :     1414.26  1430.07  1440.66  1446.76  1450.62  1453.21
eigval :     1456.40  1460.47  1463.43  1469.89  1472.99  1478.60
eigval :     1497.52  1501.87  1511.40  1519.78  1523.07  1643.99
eigval :     1669.29  1696.55  1711.32  2894.95  2927.80  2986.37
eigval :     3015.09  3022.81  3038.07  3040.52  3042.57  3044.43
eigval :     3048.47  3055.52  3060.81  3071.40  3141.54  3182.91
eigval :     3226.69  3272.29  3320.25  3480.61  3498.35  3501.21
eigval :     3514.76  3528.90  3535.89  3536.83  3537.65  3548.08
eigval :     3563.18  3568.45  3573.30
 reduced masses (amu)
   1: 12.87   2: 12.61   3: 12.72   4: 12.43   5: 12.37   6: 12.26   7: 12.09   8: 12.12
   9: 11.77  10: 11.07  11: 12.38  12: 12.55  13: 12.47  14: 12.01  15: 12.78  16: 12.53
  17: 12.15  18: 11.07  19: 13.32  20: 12.77  21: 12.48  22: 13.17  23: 13.03  24: 13.28
  25: 12.71  26: 13.79  27: 12.59  28: 12.95  29: 13.20  30: 12.31  31: 10.19  32:  3.26
  33: 11.70  34:  5.01  35:  2.52  36:  6.81  37:  4.42  38:  5.49  39:  2.20  40:  3.57
  41:  5.16  42:  3.19  43:  3.43  44:  8.37  45:  3.56  46:  3.37  47:  6.50  48:  4.93
  49:  7.70  50:  6.02  51:  7.04  52:  4.40  53:  5.42  54:  5.84  55:  1.72  56:  5.97
  57:  8.68  58: 10.30  59: 11.55  60: 11.71  61:  8.60  62: 12.09  63:  4.49  64: 10.55
  65: 10.90  66: 11.33  67: 10.28  68:  2.96  69:  2.38  70:  1.96  71:  9.15  72:  2.40
  73:  6.01  74:  8.87  75:  5.10  76:  4.88  77:  4.59  78:  4.47  79:  7.43  80:  8.94
  81:  7.93  82:  8.77  83:  8.09  84:  9.22  85:  8.57  86:  4.94  87:  4.98  88:  8.52
  89:  8.57  90:  6.36  91:  7.51  92:  7.78  93:  5.53  94:  8.32  95:  3.49  96:  2.93
  97:  7.24  98:  4.31  99:  8.33 100:  6.20 101:  4.56 102:  4.69 103:  5.50 104:  4.55
 105:  4.68 106:  4.49 107:  2.70 108:  2.60 109:  2.14 110:  2.47 111:  1.71 112:  3.21
 113:  3.05 114:  2.14 115:  2.02 116:  2.63 117:  1.69 118:  3.11 119:  1.87 120:  1.61
 121:  1.76 122:  7.39 123:  9.48 124:  9.41 125:  9.02 126: 12.16 127: 12.59 128: 12.59
 129: 12.75 130:  1.95 131:  1.49 132:  1.73 133:  1.72 134:  1.80 135:  1.59 136:  1.82
 137:  1.54 138:  1.91 139:  1.63 140:  1.88 141:  1.74 142:  1.76 143:  1.82 144:  1.82
 145:  1.77 146:  1.78 147:  1.75 148:  1.46 149:  1.45 150:  1.45 151:  1.91 152:  1.90
 153:  1.90 154:  1.90 155:  1.91 156:  2.17 157:  2.18 158:  2.19 159:  1.88
 IR intensities (km·mol⁻¹)
   1:  1.35   2:  1.63   3:  2.20   4:  1.25   5:  0.78   6:  1.71   7:  0.50   8:  2.78
   9:  0.48  10:  1.19  11:  0.93  12:  0.34  13:  1.77  14:  3.15  15:  0.76  16:  0.33
  17:  1.17  18:  5.35  19:  0.92  20:  1.90  21:  7.52  22: 15.84  23:  1.61  24: 10.02
  25: 20.09  26:  8.73  27: 20.07  28:  4.36  29:  5.94  30: 11.66  31:  6.46  32:139.21
  33:115.49  34:  9.68  35:124.02  36:  2.66  37:106.77  38: 46.92  39:  1.56  40:  1.94
  41: 11.44  42: 47.33  43: 29.38  44:  7.37  45: 50.96  46:802.83  47: 34.01  48: 50.46
  49:  4.98  50: 33.45  51:  4.99  52: 12.10  53:  9.81  54: 86.07  55: 11.14  56:  3.69
  57: 64.58  58: 57.62  59: 21.41  60:  7.35  61: 32.17  62: 55.72  63:139.42  64: 25.86
  65: 18.58  66:  4.61  67:231.10  68:148.64  69: 15.66  70: 61.54  71:  1.17  72:625.42
  73:  4.96  74:  5.87  75:  7.85  76:  3.20  77:  4.05  78:  1.12  79: 25.47  80:  9.27
  81: 12.66  82:  9.19  83: 10.85  84:  3.91  85:  1.17  86:  0.64  87:  4.02  88:  1.23
  89:  1.16  90: 35.69  91:  3.40  92:  1.83  93:  8.74  94: 41.02  95:  3.23  96: 42.57
  97: 37.74  98: 14.35  99:  4.94 100:  3.46 101: 81.67 102:220.12 103: 54.19 104: 46.43
 105:  2.35 106:  1.43 107:  4.05 108: 10.78 109: 17.12 110:  7.82 111:  2.84 112:  9.20
 113: 12.70 114:  7.97 115:  0.91 116:  1.41 117:  5.89 118: 70.18 119:  6.33 120: 49.70
 121: 10.27 122:340.81 123:840.12 124:  8.42 125:610.93 126:275.50 127:164.75 128:******
 129:682.80 130: 33.05 131: 27.96 132: 21.66 133: 81.18 134:  0.19 135: 11.14 136:  0.45
 137:  3.59 138:  1.67 139: 28.17 140: 25.24 141:  0.75 142:  4.40 143:****** 144: 61.13
 145:****** 146:669.38 147:933.47 148: 24.00 149: 20.27 150: 24.09 151: 16.18 152:  7.77
 153:  7.71 154: 22.44 155: 19.52 156: 15.55 157: 14.06 158: 16.96 159: 26.93
 Raman intensities (amu)
Molecule has no symmetry elements
It seems to be the C1 point group
   1:  0.00   2:  0.00   3:  0.00   4:  0.00   5:  0.00   6:  0.00   7:  0.00   8:  0.00
   9:  0.00  10:  0.00  11:  0.00  12:  0.00  13:  0.00  14:  0.00  15:  0.00  16:  0.00
  17:  0.00  18:  0.00  19:  0.00  20:  0.00  21:  0.00  22:  0.00  23:  0.00  24:  0.00
  25:  0.00  26:  0.00  27:  0.00  28:  0.00  29:  0.00  30:  0.00  31:  0.00  32:  0.00
  33:  0.00  34:  0.00  35:  0.00  36:  0.00  37:  0.00  38:  0.00  39:  0.00  40:  0.00
  41:  0.00  42:  0.00  43:  0.00  44:  0.00  45:  0.00  46:  0.00  47:  0.00  48:  0.00
  49:  0.00  50:  0.00  51:  0.00  52:  0.00  53:  0.00  54:  0.00  55:  0.00  56:  0.00
  57:  0.00  58:  0.00  59:  0.00  60:  0.00  61:  0.00  62:  0.00  63:  0.00  64:  0.00
  65:  0.00  66:  0.00  67:  0.00  68:  0.00  69:  0.00  70:  0.00  71:  0.00  72:  0.00
  73:  0.00  74:  0.00  75:  0.00  76:  0.00  77:  0.00  78:  0.00  79:  0.00  80:  0.00
  81:  0.00  82:  0.00  83:  0.00  84:  0.00  85:  0.00  86:  0.00  87:  0.00  88:  0.00
  89:  0.00  90:  0.00  91:  0.00  92:  0.00  93:  0.00  94:  0.00  95:  0.00  96:  0.00
  97:  0.00  98:  0.00  99:  0.00 100:  0.00 101:  0.00 102:  0.00 103:  0.00 104:  0.00
 105:  0.00 106:  0.00 107:  0.00 108:  0.00 109:  0.00 110:  0.00 111:  0.00 112:  0.00
 113:  0.00 114:  0.00 115:  0.00 116:  0.00 117:  0.00 118:  0.00 119:  0.00 120:  0.00
 121:  0.00 122:  0.00 123:  0.00 124:  0.00 125:  0.00 126:  0.00 127:  0.00 128:  0.00
 129:  0.00 130:  0.00 131:  0.00 132:  0.00 133:  0.00 134:  0.00 135:  0.00 136:  0.00
 137:  0.00 138:  0.00 139:  0.00 140:  0.00 141:  0.00 142:  0.00 143:  0.00 144:  0.00
 145:  0.00 146:  0.00 147:  0.00 148:  0.00 149:  0.00 150:  0.00 151:  0.00 152:  0.00
 153:  0.00 154:  0.00 155:  0.00 156:  0.00 157:  0.00 158:  0.00 159:  0.00
 output can be read by thermo (or use thermo option).
 writing <g98.out> molden fake output.
 recommended (thermochemical) frequency scaling factor: 1.0
           -------------------------------------------------
          |             Thermodynamic Functions             |
           -------------------------------------------------

c1  symmetry found (for desy threshold:  0.10E+00) used in thermo

          ...................................................
          :                      SETUP                      :
          :.................................................:
          :  # frequencies                         153      :
          :  # imaginary freq.                       0      :
          :  linear?                             false      :
          :  only rotor calc.                    false      :
          :  symmetry                               c1      :
          :  rotational number                       1      :
          :  scaling factor                  1.0000000      :
          :  rotor cutoff                   50.0000000 cm⁻¹ :
          :  imag. cutoff                  -20.0000000 cm⁻¹ :
          :.................................................:

    mode    ω/cm⁻¹     T·S(HO)/kcal·mol⁻¹    T·S(FR)/kcal·mol⁻¹   T·S(vib)
   ------------------------------------------------------------------------
       1     16.90    -2.07783 (  1.29%)    -1.37786 ( 98.71%)    -1.38687
       2     31.45    -1.71013 ( 13.53%)    -1.19385 ( 86.47%)    -1.26372
       3     32.63    -1.68836 ( 15.35%)    -1.18294 ( 84.65%)    -1.26053
       4     35.95    -1.63114 ( 21.08%)    -1.15427 ( 78.92%)    -1.25480
       5     41.86    -1.54118 ( 32.94%)    -1.10917 ( 67.06%)    -1.25147
       6     44.41    -1.50630 ( 38.35%)    -1.09167 ( 61.65%)    -1.25069
       7     47.18    -1.47055 ( 44.22%)    -1.07372 ( 55.78%)    -1.24919
       8     51.08    -1.42373 ( 52.13%)    -1.05020 ( 47.87%)    -1.24493
       9     53.61    -1.39523 ( 56.92%)    -1.03588 ( 43.08%)    -1.24043
      10     55.97    -1.36980 ( 61.10%)    -1.02309 ( 38.90%)    -1.23492
      11     59.71    -1.33172 ( 67.04%)    -1.00393 ( 32.96%)    -1.22369
      12     68.55    -1.25057 ( 77.94%)    -0.96304 ( 22.06%)    -1.18715
      13     70.61    -1.23324 ( 79.91%)    -0.95429 ( 20.09%)    -1.17719
      14     85.87    -1.11868 ( 89.69%)    -0.89633 ( 10.31%)    -1.09575
      15     87.26    -1.10927 ( 90.27%)    -0.89155 (  9.73%)    -1.08808
      16     97.81    -1.04278 ( 93.61%)    -0.85776 (  6.39%)    -1.03095
      17    122.10    -0.91439 ( 97.26%)    -0.79205 (  2.74%)    -0.91104
      18    126.20    -0.89541 ( 97.59%)    -0.78228 (  2.41%)    -0.89269
      19    130.82    -0.87476 ( 97.91%)    -0.77161 (  2.09%)    -0.87260
      20    144.45    -0.81813 ( 98.58%)    -0.74225 (  1.42%)    -0.81706
      21    151.66    -0.79048 ( 98.83%)    -0.72782 (  1.17%)    -0.78975
      22    170.21    -0.72543 ( 99.26%)    -0.69363 (  0.74%)    -0.72520
      23    172.86    -0.71680 ( 99.30%)    -0.68907 (  0.70%)    -0.71661
      24    192.87    -0.65595 ( 99.55%)    -0.65662 (  0.45%)    -0.65595
      25    199.17    -0.63826 ( 99.60%)    -0.64709 (  0.40%)    -0.63829
      26    211.96    -0.60426 ( 99.69%)    -0.62865 (  0.31%)    -0.60433
      27    220.66    -0.58249 ( 99.74%)    -0.61674 (  0.26%)    -0.58258
      28    266.97    -0.48174 ( 99.88%)    -0.56031 (  0.12%)    -0.48183
      29    284.06    -0.44993 ( 99.90%)    -0.54192 (  0.10%)    -0.45002
      30    285.87    -0.44672 ( 99.91%)    -0.54004 (  0.09%)    -0.44680
   ------------------------------------------------------------------------

   temp. (K)  partition function   enthalpy   heat capacity  entropy
                                   cal/mol     cal/K/mol   cal/K/mol   J/K/mol
 298.15  VIB  0.496E+16            19028.229    104.129    124.003
         ROT  0.126E+08              888.752      2.981     35.465
         INT  0.623E+23            19916.982    107.110    159.469
         TR   0.618E+28             1481.254      4.968     43.384
         TOT                       21398.2356   112.0785   202.8529   848.7367

       T/K    H(0)-H(T)+PV         H(T)/Eh          T*S/Eh         G(T)/Eh
   ------------------------------------------------------------------------
    298.15    0.341003E-01    0.474191E+00    0.963820E-01    0.377809E+00
   ------------------------------------------------------------------------

         :::::::::::::::::::::::::::::::::::::::::::::::::::::
         ::                  THERMODYNAMIC                  ::
         :::::::::::::::::::::::::::::::::::::::::::::::::::::
         :: total free energy         -80.557591043021 Eh   ::
         ::.................................................::
         :: total energy              -80.935400432032 Eh   ::
         :: zero point energy           0.440091105483 Eh   ::
         :: G(RRHO) w/o ZPVE           -0.062281716472 Eh   ::
         :: G(RRHO) contrib.            0.377809389011 Eh   ::
         :::::::::::::::::::::::::::::::::::::::::::::::::::::

           -------------------------------------------------
          | TOTAL ENERGY              -80.935400432032 Eh   |
          | TOTAL ENTHALPY            -80.461209067590 Eh   |
          | TOTAL FREE ENERGY         -80.557591043021 Eh   |
          | GRADIENT NORM               0.000068758629 Eh/α |
          | HOMO-LUMO GAP               5.762826419630 eV   |
           -------------------------------------------------

------------------------------------------------------------------------
 * finished run on 2024/01/10 at 18:25:43.744     
------------------------------------------------------------------------
 total:
 * wall-time:     0 d,  0 h,  0 min, 14.691 sec
 *  cpu-time:     0 d,  0 h,  0 min, 14.616 sec
 * ratio c/w:     0.995 speedup
 SCF:
 * wall-time:     0 d,  0 h,  0 min,  0.100 sec
 *  cpu-time:     0 d,  0 h,  0 min,  0.060 sec
 * ratio c/w:     0.600 speedup
 analytical hessian:
 * wall-time:     0 d,  0 h,  0 min, 14.564 sec
 *  cpu-time:     0 d,  0 h,  0 min, 14.530 sec
 * ratio c/w:     0.998 speedup

