      -----------------------------------------------------------      
     |                   =====================                   |     
     |                           x T B                           |     
     |                   =====================                   |     
     |                         S. Grimme                         |     
     |          Mulliken Center for Theoretical Chemistry        |     
     |                    University of Bonn                     |     
      -----------------------------------------------------------      

   * xtb version 6.6.1 (unknown-commit) compiled by '@Linux' on 12/27/2023

   xtb is free software: you can redistribute it and/or modify it under
   the terms of the GNU Lesser General Public License as published by
   the Free Software Foundation, either version 3 of the License, or
   (at your option) any later version.
   
   xtb is distributed in the hope that it will be useful,
   but WITHOUT ANY WARRANTY; without even the implied warranty of
   MERCHANTABILITY or FITNESS FOR A PARTICULAR PURPOSE.  See the
   GNU Lesser General Public License for more details.
   
   Cite this work as:
   * C. Bannwarth, E. Caldeweyher, S. Ehlert, A. Hansen, P. Pracht,
     J. Seibert, S. Spicher, S. Grimme, WIREs Comput. Mol. Sci., 2020, 11,
     e01493. DOI: 10.1002/wcms.1493
   
   for GFN2-xTB:
   * C. Bannwarth, S. Ehlert and S. Grimme., J. Chem. Theory Comput., 2019,
     15, 1652-1671. DOI: 10.1021/acs.jctc.8b01176
   for GFN1-xTB:
   * S. Grimme, C. Bannwarth, P. Shushkov, J. Chem. Theory Comput., 2017,
     13, 1989-2009. DOI: 10.1021/acs.jctc.7b00118
   for GFN0-xTB:
   * P. Pracht, E. Caldeweyher, S. Ehlert, S. Grimme, ChemRxiv, 2019, preprint.
     DOI: 10.26434/chemrxiv.8326202.v1
   for GFN-FF:
   * S. Spicher and S. Grimme, Angew. Chem. Int. Ed., 2020, 59, 15665-15673.
     DOI: 10.1002/anie.202004239
   
   for ALPB and GBSA implicit solvation:
   * S. Ehlert, M. Stahn, S. Spicher, S. Grimme, J. Chem. Theory Comput.,
     2021, 17, 4250-4261. DOI: 10.1021/acs.jctc.1c00471
   
   for DFT-D4:
   * E. Caldeweyher, C. Bannwarth and S. Grimme, J. Chem. Phys., 2017,
     147, 034112. DOI: 10.1063/1.4993215
   * E. Caldeweyher, S. Ehlert, A. Hansen, H. Neugebauer, S. Spicher,
     C. Bannwarth and S. Grimme, J. Chem. Phys., 2019, 150, 154122.
     DOI: 10.1063/1.5090222
   * E. Caldeweyher, J.-M. Mewes, S. Ehlert and S. Grimme, Phys. Chem. Chem. Phys.
     2020, 22, 8499-8512. DOI: 10.1039/D0CP00502A
   
   for sTDA-xTB:
   * S. Grimme and C. Bannwarth, J. Chem. Phys., 2016, 145, 054103.
     DOI: 10.1063/1.4959605
   
   in the mass-spec context:
   * V. Asgeirsson, C. Bauer and S. Grimme, Chem. Sci., 2017, 8, 4879.
     DOI: 10.1039/c7sc00601b
   * J. Koopman and S. Grimme, ACS Omega 2019, 4, 12, 15120-15133.
     DOI: 10.1021/acsomega.9b02011
   
   for metadynamics refer to:
   * S. Grimme, J. Chem. Theory Comput., 2019, 155, 2847-2862
     DOI: 10.1021/acs.jctc.9b00143
   
   for SPH calculations refer to:
   * S. Spicher and S. Grimme, J. Chem. Theory Comput., 2021, 17, 1701-1714
     DOI: 10.1021/acs.jctc.0c01306
   
   with help from (in alphabetical order)
   P. Atkinson, C. Bannwarth, F. Bohle, G. Brandenburg, E. Caldeweyher
   M. Checinski, S. Dohm, S. Ehlert, S. Ehrlich, I. Gerasimov, C. Hölzer
   A. Katbashev, J. Koopman, C. Lavigne, S. Lehtola, F. März, M. Müller,
   F. Musil, H. Neugebauer, J. Pisarek, C. Plett, P. Pracht, F. Pultar,
   J. Seibert, P. Shushkov, S. Spicher, M. Stahn, M. Steiner, T. Strunk,
   J. Stückrath, T. Rose, and J. Unsleber
   
 * started run on 2024/01/10 at 15:37:39.352     

           -------------------------------------------------
          |                Calculation Setup                |
           -------------------------------------------------

          program call               : xtb struc.xyz --gfn2 --hess
          hostname                   : swaroop
          coordinate file            : struc.xyz
          omp threads                :                     1

   ID    Z sym.   atoms
    1    8 O      1, 23, 31, 39, 47
    2    6 C      2, 5, 9, 13, 17, 22, 30, 38, 46
    3    1 H      3, 4, 6, 7, 10-12, 14-16, 18-21, 25, 26, 28, 29, 33, 34,
                  36, 37, 41, 42, 44, 45, 49, 50, 52, 53
    4    7 N      8, 24, 27, 32, 35, 40, 43, 48, 51

molecular fragmentation (1/2 indicates fragments):
11111111111111111111122222222222222222222222222222222
# atoms in fragment 1/2:    21    32
 fragment masses (1/2) :      104.17      240.22
CMA distance (Bohr)    :   6.222
constraining FC (au)   :  0.0500

           -------------------------------------------------
          |                 G F N 2 - x T B                 |
           -------------------------------------------------

        Reference                      10.1021/acs.jctc.8b01176
      * Hamiltonian:
        H0-scaling (s, p, d)           1.850000    2.230000    2.230000
        zeta-weighting                 0.500000
      * Dispersion:
        s8                             2.700000
        a1                             0.520000
        a2                             5.000000
        s9                             5.000000
      * Repulsion:
        kExp                           1.500000    1.000000
        rExp                           1.000000
      * Coulomb:
        alpha                          2.000000
        third order                    shell-resolved
        anisotropic                    true
        a3                             3.000000
        a5                             4.000000
        cn-shift                       1.200000
        cn-exp                         4.000000
        max-rad                        5.000000


          ...................................................
          :                      SETUP                      :
          :.................................................:
          :  # basis functions                 122          :
          :  # atomic orbitals                 122          :
          :  # shells                           76          :
          :  # electrons                       140          :
          :  max. iterations                   250          :
          :  Hamiltonian                  GFN2-xTB          :
          :  restarted?                      false          :
          :  GBSA solvation                  false          :
          :  PC potential                    false          :
          :  electronic temp.          300.0000000     K    :
          :  accuracy                    1.0000000          :
          :  -> integral cutoff          0.2500000E+02      :
          :  -> integral neglect         0.1000000E-07      :
          :  -> SCF convergence          0.1000000E-05 Eh   :
          :  -> wf. convergence          0.1000000E-03 e    :
          :  Broyden damping             0.4000000          :
          ...................................................

 iter      E             dE          RMSdq      gap      omega  full diag
   1    -81.5617362 -0.815617E+02  0.429E+00    5.12       0.0  T
   2    -81.8397527 -0.278017E+00  0.235E+00    6.06       1.0  T
   3    -81.8453960 -0.564329E-02  0.115E+00    5.83       1.0  T
   4    -81.8467770 -0.138095E-02  0.243E-01    5.92       1.0  T
   5    -81.8476993 -0.922355E-03  0.915E-02    5.85       1.0  T
   6    -81.8477237 -0.244267E-04  0.256E-02    5.87       1.0  T
   7    -81.8477278 -0.409443E-05  0.778E-03    5.87       1.8  T
   8    -81.8477281 -0.299122E-06  0.274E-03    5.86       5.0  T
   9    -81.8477282 -0.201725E-07  0.993E-04    5.86      13.8  T
  10    -81.8477282 -0.557117E-08  0.190E-04    5.86      72.4  T

   *** convergence criteria satisfied after 10 iterations ***

         #    Occupation            Energy/Eh            Energy/eV
      -------------------------------------------------------------
         1        2.0000           -0.7968082             -21.6823
       ...           ...                  ...                  ...
        64        2.0000           -0.4953024             -13.4779
        65        2.0000           -0.4950983             -13.4723
        66        2.0000           -0.4935787             -13.4310
        67        2.0000           -0.4903449             -13.3430
        68        2.0000           -0.4886011             -13.2955
        69        2.0000           -0.4865822             -13.2406
        70        2.0000           -0.4841388             -13.1741 (HOMO)
        71                         -0.2686804              -7.3112 (LUMO)
        72                         -0.2659365              -7.2365
        73                         -0.2648934              -7.2081
        74                         -0.2577763              -7.0144
        75                         -0.1532474              -4.1701
       ...                                ...                  ...
       122                          0.5614163              15.2769
      -------------------------------------------------------------
                  HL-Gap            0.2154584 Eh            5.8629 eV
             Fermi-level           -0.3764096 Eh          -10.2426 eV

 SCC (total)                   0 d,  0 h,  0 min,  0.098 sec
 SCC setup                      ...        0 min,  0.000 sec (  0.293%)
 Dispersion                     ...        0 min,  0.001 sec (  0.622%)
 classical contributions        ...        0 min,  0.000 sec (  0.185%)
 integral evaluation            ...        0 min,  0.008 sec (  8.388%)
 iterations                     ...        0 min,  0.060 sec ( 61.642%)
 molecular gradient             ...        0 min,  0.028 sec ( 28.588%)
 printout                       ...        0 min,  0.000 sec (  0.270%)

         :::::::::::::::::::::::::::::::::::::::::::::::::::::
         ::                     SUMMARY                     ::
         :::::::::::::::::::::::::::::::::::::::::::::::::::::
         :: total energy             -80.933858153183 Eh    ::
         :: gradient norm              0.000060814047 Eh/a0 ::
         :: HOMO-LUMO gap              5.862921069875 eV    ::
         ::.................................................::
         :: SCC energy               -81.847728168896 Eh    ::
         :: -> isotropic ES            0.293712933746 Eh    ::
         :: -> anisotropic ES         -0.029055774885 Eh    ::
         :: -> anisotropic XC          0.020793405588 Eh    ::
         :: -> dispersion             -0.046178650161 Eh    ::
         :: repulsion energy           0.911837952245 Eh    ::
         :: add. restraining           0.000000000000 Eh    ::
         :: total charge               1.000000000000 e     ::
         :::::::::::::::::::::::::::::::::::::::::::::::::::::

           ------------------------------------------------- 
          |                Numerical Hessian                |
           ------------------------------------------------- 
step length          :   0.00500
SCC accuracy         :   0.30000
Hessian scale factor :   1.00000
frozen atoms in %    :   0.00000    0
RMS gradient         :   0.00006
estimated CPU  time      0.24 min
estimated wall time      0.24 min

writing file <hessian>.

 projected vibrational frequencies (cm⁻¹)
eigval :       -0.00    -0.00    -0.00     0.00     0.00     0.00
eigval :       14.06    19.91    27.99    30.59    35.15    41.33
eigval :       43.13    50.18    52.83    56.13    66.55    69.29
eigval :       74.08    79.79    84.79    98.41   107.14   114.15
eigval :      119.17   124.35   132.41   144.77   171.82   179.91
eigval :      197.95   213.84   224.72   262.02   275.24   283.40
eigval :      288.13   312.19   325.06   344.18   367.98   372.09
eigval :      386.63   406.13   418.21   420.86   437.12   455.83
eigval :      461.17   462.36   467.65   469.43   473.25   477.37
eigval :      480.10   484.49   500.82   525.56   541.17   546.16
eigval :      558.75   567.72   580.83   644.22   667.75   670.76
eigval :      676.71   677.27   727.06   752.79   771.08   787.96
eigval :      889.88   929.90   956.52   969.15   970.63   991.76
eigval :     1002.94  1005.43  1011.30  1016.93  1018.58  1024.46
eigval :     1029.91  1040.08  1053.11  1082.63  1087.86  1093.36
eigval :     1097.30  1099.43  1123.09  1132.15  1189.37  1208.43
eigval :     1247.64  1258.21  1276.72  1316.90  1349.41  1355.56
eigval :     1360.54  1368.89  1371.26  1394.42  1399.60  1405.14
eigval :     1418.20  1433.20  1444.41  1451.51  1452.81  1456.79
eigval :     1457.90  1460.22  1467.64  1471.71  1475.88  1479.02
eigval :     1490.68  1501.80  1506.82  1513.23  1514.21  1651.76
eigval :     1695.22  1697.88  1718.06  2894.33  2945.22  2995.55
eigval :     3006.52  3022.51  3040.22  3041.99  3042.66  3047.27
eigval :     3048.24  3061.57  3064.11  3076.28  3130.74  3217.41
eigval :     3254.47  3400.13  3440.12  3489.00  3495.25  3497.54
eigval :     3502.35  3525.19  3535.04  3540.67  3553.05  3559.38
eigval :     3562.39  3568.16  3582.57
           -------------------------------------------------
          |                Property Printout                |
           -------------------------------------------------

    * Orbital Energies and Occupations

         #    Occupation            Energy/Eh            Energy/eV
      -------------------------------------------------------------
         1        2.0000           -0.7968080             -21.6822
       ...           ...                  ...                  ...
        58        2.0000           -0.5139784             -13.9861
        59        2.0000           -0.5061082             -13.7719
        60        2.0000           -0.5038576             -13.7107
        61        2.0000           -0.5017456             -13.6532
        62        2.0000           -0.4993805             -13.5888
        63        2.0000           -0.4978250             -13.5465
        64        2.0000           -0.4953034             -13.4779
        65        2.0000           -0.4951010             -13.4724
        66        2.0000           -0.4935790             -13.4310
        67        2.0000           -0.4903455             -13.3430
        68        2.0000           -0.4886020             -13.2955
        69        2.0000           -0.4865842             -13.2406
        70        2.0000           -0.4841415             -13.1742 (HOMO)
        71                         -0.2686809              -7.3112 (LUMO)
        72                         -0.2659373              -7.2365
        73                         -0.2648938              -7.2081
        74                         -0.2577814              -7.0146
        75                         -0.1532469              -4.1701
        76                         -0.1041480              -2.8340
        77                         -0.0901274              -2.4525
        78                         -0.0851787              -2.3178
        79                         -0.0785782              -2.1382
        80                         -0.0750047              -2.0410
        81                         -0.0666433              -1.8135
       ...                                ...                  ...
       122                          0.5614151              15.2769
      -------------------------------------------------------------
                  HL-Gap            0.2154606 Eh            5.8630 eV
             Fermi-level           -0.3764112 Eh          -10.2427 eV

     #   Z          covCN         q      C6AA      α(0)
     1   8 O        1.655    -0.443    21.711     6.290
     2   6 C        3.672     0.072    19.604     6.346
     3   1 H        0.923     0.043     2.415     2.430
     4   1 H        0.924     0.060     2.205     2.322
     5   6 C        3.771    -0.065    21.785     6.651
     6   1 H        0.924     0.124     1.580     1.966
     7   1 H        0.924     0.116     1.643     2.004
     8   7 N        3.624     0.162    18.513     6.390
     9   6 C        3.737    -0.120    22.889     6.827
    10   1 H        0.925     0.123     1.587     1.970
    11   1 H        0.925     0.084     1.939     2.178
    12   1 H        0.925     0.113     1.669     2.020
    13   6 C        3.721    -0.109    22.699     6.804
    14   1 H        0.925     0.095     1.832     2.117
    15   1 H        0.925     0.081     1.965     2.192
    16   1 H        0.924     0.127     1.558     1.952
    17   6 C        3.723    -0.110    22.716     6.806
    18   1 H        0.925     0.117     1.637     2.001
    19   1 H        0.925     0.111     1.691     2.034
    20   1 H        0.925     0.079     1.993     2.208
    21   1 H        0.805     0.299     0.723     1.335
    22   6 C        2.675     0.343    21.176     7.530
    23   8 O        0.860    -0.539    24.659     6.658
    24   7 N        2.644    -0.313    28.064     7.868
    25   1 H        0.860     0.240     0.923     1.505
    26   1 H        0.860     0.176     1.239     1.743
    27   7 N        2.645    -0.299    27.700     7.817
    28   1 H        0.860     0.180     1.212     1.725
    29   1 H        0.860     0.192     1.149     1.679
    30   6 C        2.675     0.341    21.208     7.536
    31   8 O        0.860    -0.536    24.605     6.651
    32   7 N        2.645    -0.294    27.587     7.801
    33   1 H        0.860     0.197     1.123     1.660
    34   1 H        0.861     0.184     1.194     1.712
    35   7 N        2.644    -0.305    27.843     7.837
    36   1 H        0.861     0.180     1.215     1.727
    37   1 H        0.859     0.249     0.887     1.476
    38   6 C        2.675     0.341    21.200     7.534
    39   8 O        0.860    -0.541    24.715     6.665
    40   7 N        2.646    -0.292    27.521     7.791
    41   1 H        0.860     0.198     1.114     1.654
    42   1 H        0.861     0.183     1.195     1.713
    43   7 N        2.645    -0.297    27.651     7.810
    44   1 H        0.861     0.179     1.217     1.728
    45   1 H        0.860     0.239     0.926     1.508
    46   6 C        2.675     0.341    21.214     7.537
    47   8 O        0.860    -0.519    24.212     6.597
    48   7 N        2.644    -0.318    28.173     7.883
    49   1 H        0.860     0.237     0.934     1.514
    50   1 H        0.860     0.205     1.081     1.629
    51   7 N        2.644    -0.295    27.616     7.805
    52   1 H        0.860     0.185     1.186     1.706
    53   1 H        0.860     0.199     1.110     1.651

 Mol. C6AA /au·bohr⁶  :      21781.151561
 Mol. C8AA /au·bohr⁸  :     454165.674109
 Mol. α(0) /au        :        220.490876


Wiberg/Mayer (AO) data.
largest (>0.10) Wiberg bond orders for each atom

 ---------------------------------------------------------------------------
     #   Z sym  total        # sym  WBO       # sym  WBO       # sym  WBO
 ---------------------------------------------------------------------------
     1   8 O    1.955 --     2 C    0.995    21 H    0.895
     2   6 C    3.956 --     5 C    1.007     1 O    0.995     3 H    0.966
                             4 H    0.964
     3   1 H    0.998 --     2 C    0.966
     4   1 H    0.996 --     2 C    0.964
     5   6 C    3.926 --     2 C    1.007     7 H    0.952     6 H    0.950
                             8 N    0.935
     6   1 H    0.985 --     5 C    0.950
     7   1 H    0.986 --     5 C    0.952
     8   7 N    3.824 --    13 C    0.960    17 C    0.958     9 C    0.956
                             5 C    0.935
     9   6 C    3.920 --    11 H    0.978    12 H    0.968    10 H    0.962
                             8 N    0.956
    10   1 H    0.985 --     9 C    0.962
    11   1 H    0.993 --     9 C    0.978
    12   1 H    0.987 --     9 C    0.968
    13   6 C    3.926 --    15 H    0.978    14 H    0.975     8 N    0.960
                            16 H    0.958
    14   1 H    0.991 --    13 C    0.975
    15   1 H    0.993 --    13 C    0.978
    16   1 H    0.984 --    13 C    0.958
    17   6 C    3.924 --    20 H    0.979    19 H    0.965    18 H    0.965
                             8 N    0.958
    18   1 H    0.986 --    17 C    0.965
    19   1 H    0.988 --    17 C    0.965
    20   1 H    0.994 --    17 C    0.979
    21   1 H    0.910 --     1 O    0.895
    22   6 C    3.959 --    23 O    1.520    24 N    1.243    27 N    1.188
    23   8 O    1.879 --    22 C    1.520    24 N    0.147    27 N    0.135
    24   7 N    3.327 --    22 C    1.243    26 H    0.949    25 H    0.871
                            23 O    0.147
    25   1 H    0.942 --    24 N    0.871
    26   1 H    0.969 --    24 N    0.949
    27   7 N    3.302 --    22 C    1.188    28 H    0.948    29 H    0.946
                            23 O    0.135
    28   1 H    0.967 --    27 N    0.948
    29   1 H    0.963 --    27 N    0.946
    30   6 C    3.960 --    31 O    1.477    35 N    1.273    32 N    1.198
    31   8 O    1.904 --    30 C    1.477    35 N    0.147    32 N    0.128
    32   7 N    3.311 --    30 C    1.198    34 H    0.947    33 H    0.944
                            31 O    0.128
    33   1 H    0.961 --    32 N    0.944
    34   1 H    0.966 --    32 N    0.947
    35   7 N    3.355 --    30 C    1.273    36 H    0.948    37 H    0.860
                            31 O    0.147
    36   1 H    0.967 --    35 N    0.948
    37   1 H    0.938 --    35 N    0.860
    38   6 C    3.959 --    39 O    1.500    43 N    1.247    40 N    1.204
    39   8 O    1.872 --    38 C    1.500    43 N    0.146    40 N    0.134
    40   7 N    3.320 --    38 C    1.204    42 H    0.947    41 H    0.944
                            39 O    0.134
    41   1 H    0.961 --    40 N    0.944
    42   1 H    0.966 --    40 N    0.947
    43   7 N    3.346 --    38 C    1.247    44 H    0.949    45 H    0.898
                            39 O    0.146
    44   1 H    0.968 --    43 N    0.949
    45   1 H    0.943 --    43 N    0.898
    46   6 C    3.959 --    47 O    1.479    48 N    1.270    51 N    1.199
    47   8 O    1.948 --    46 C    1.479    48 N    0.141    51 N    0.125
    48   7 N    3.338 --    46 C    1.270    50 H    0.918    49 H    0.870
                            47 O    0.141
    49   1 H    0.944 --    48 N    0.870
    50   1 H    0.958 --    48 N    0.918
    51   7 N    3.307 --    46 C    1.199    52 H    0.947    53 H    0.942
                            47 O    0.125
    52   1 H    0.965 --    51 N    0.947
    53   1 H    0.960 --    51 N    0.942
 ---------------------------------------------------------------------------

Topologies differ in total number of bonds
Writing topology from bond orders to xtbtopo.mol

molecular dipole:
                 x           y           z       tot (Debye)
 q only:       -0.108      -1.047      -0.786
   full:       -0.248      -0.398      -0.639       2.014
molecular quadrupole (traceless):
                xx          xy          yy          xz          yz          zz
 q only:       20.596      -0.104       3.169      -1.291      -5.648     -23.765
  q+dip:       28.668      -0.653       0.909      -1.933      -9.900     -29.577
   full:       27.889      -0.561       0.718      -1.627      -9.550     -28.606

           -------------------------------------------------
          |               Frequency Printout                |
           -------------------------------------------------
 projected vibrational frequencies (cm⁻¹)
eigval :       -0.00    -0.00    -0.00     0.00     0.00     0.00
eigval :       14.06    19.91    27.99    30.59    35.15    41.33
eigval :       43.13    50.18    52.83    56.13    66.55    69.29
eigval :       74.08    79.79    84.79    98.41   107.14   114.15
eigval :      119.17   124.35   132.41   144.77   171.82   179.91
eigval :      197.95   213.84   224.72   262.02   275.24   283.40
eigval :      288.13   312.19   325.06   344.18   367.98   372.09
eigval :      386.63   406.13   418.21   420.86   437.12   455.83
eigval :      461.17   462.36   467.65   469.43   473.25   477.37
eigval :      480.10   484.49   500.82   525.56   541.17   546.16
eigval :      558.75   567.72   580.83   644.22   667.75   670.76
eigval :      676.71   677.27   727.06   752.79   771.08   787.96
eigval :      889.88   929.90   956.52   969.15   970.63   991.76
eigval :     1002.94  1005.43  1011.30  1016.93  1018.58  1024.46
eigval :     1029.91  1040.08  1053.11  1082.63  1087.86  1093.36
eigval :     1097.30  1099.43  1123.09  1132.15  1189.37  1208.43
eigval :     1247.64  1258.21  1276.72  1316.90  1349.41  1355.56
eigval :     1360.54  1368.89  1371.26  1394.42  1399.60  1405.14
eigval :     1418.20  1433.20  1444.41  1451.51  1452.81  1456.79
eigval :     1457.90  1460.22  1467.64  1471.71  1475.88  1479.02
eigval :     1490.68  1501.80  1506.82  1513.23  1514.21  1651.76
eigval :     1695.22  1697.88  1718.06  2894.33  2945.22  2995.55
eigval :     3006.52  3022.51  3040.22  3041.99  3042.66  3047.27
eigval :     3048.24  3061.57  3064.11  3076.28  3130.74  3217.41
eigval :     3254.47  3400.13  3440.12  3489.00  3495.25  3497.54
eigval :     3502.35  3525.19  3535.04  3540.67  3553.05  3559.38
eigval :     3562.39  3568.16  3582.57
 reduced masses (amu)
   1: 12.71   2: 12.46   3: 12.17   4: 12.56   5: 12.65   6: 12.61   7: 12.54   8: 12.55
   9: 12.48  10: 12.42  11: 12.45  12: 12.61  13: 12.17  14: 12.57  15: 12.81  16: 12.63
  17: 12.39  18: 11.21  19: 12.65  20: 12.31  21: 12.99  22: 12.55  23: 11.05  24: 12.66
  25: 13.39  26: 13.19  27: 12.92  28: 12.68  29: 12.72  30: 12.34  31:  9.22  32: 12.67
  33:  2.61  34:  5.42  35:  4.64  36:  4.96  37:  2.75  38:  7.16  39:  2.98  40:  2.29
  41:  4.08  42:  5.40  43:  3.55  44:  3.23  45:  8.45  46:  3.30  47:  3.02  48:  8.30
  49:  4.75  50:  3.62  51:  2.21  52:  4.99  53:  4.27  54:  6.41  55:  7.74  56:  8.39
  57:  9.16  58:  3.06  59: 11.21  60: 11.20  61: 11.49  62:  8.50  63: 11.55  64:  2.44
  65: 10.89  66: 11.37  67: 11.95  68: 11.25  69:  2.34  70:  2.09  71:  9.15  72:  2.66
  73:  5.99  74:  8.94  75:  4.97  76:  4.75  77:  4.82  78:  4.68  79:  7.73  80:  8.73
  81:  9.47  82:  7.39  83:  9.29  84:  7.38  85: 10.16  86:  2.93  87:  4.86  88:  9.41
  89:  8.72  90:  8.28  91:  6.34  92:  7.42  93:  5.55  94:  8.13  95:  3.53  96:  2.79
  97:  7.13  98:  3.98  99:  8.27 100:  6.62 101:  3.88 102:  5.42 103:  5.78 104:  5.23
 105:  4.89 106:  5.08 107:  2.54 108:  2.55 109:  2.14 110:  2.42 111:  1.72 112:  2.68
 113:  2.15 114:  1.95 115:  3.07 116:  2.96 117:  1.80 118:  1.81 119:  2.79 120:  1.88
 121:  1.69 122:  8.01 123:  8.25 124:  9.10 125:  8.78 126: 12.47 127: 12.62 128: 12.68
 129: 12.69 130:  1.84 131:  1.59 132:  1.66 133:  1.87 134:  1.69 135:  1.60 136:  1.69
 137:  1.64 138:  1.81 139:  1.85 140:  1.85 141:  1.71 142:  1.75 143:  1.83 144:  1.79
 145:  1.80 146:  1.67 147:  1.89 148:  1.45 149:  1.45 150:  1.45 151:  1.45 152:  1.90
 153:  1.89 154:  1.98 155:  2.18 156:  2.17 157:  2.18 158:  2.18 159:  1.88
 IR intensities (km·mol⁻¹)
   1:  1.45   2:  2.10   3:  0.93   4:  0.86   5:  1.70   6:  1.62   7:  0.23   8:  0.29
   9:  1.44  10:  1.22  11:  0.69  12:  2.83  13:  0.72  14:  0.40  15:  1.71  16: 10.24
  17:  2.06  18:  0.45  19:  4.44  20:  2.37  21:  4.42  22: 10.80  23:  5.20  24: 22.30
  25: 16.81  26:  3.28  27:  2.10  28: 14.07  29:  8.14  30: 33.93  31:  4.46  32: 26.05
  33: 99.17  34:109.31  35:126.05  36: 23.34  37: 33.92  38:  3.86  39:192.44  40:  1.16
  41:  3.45  42:  7.05  43:171.04  44:120.61  45:  2.96  46:199.26  47:451.10  48:  8.81
  49: 32.72  50:  6.49  51:  6.96  52:  4.72  53:  0.87  54: 20.51  55: 16.03  56: 60.22
  57: 51.16  58: 83.64  59: 25.80  60: 15.05  61: 19.58  62:  6.29  63: 55.59  64:127.97
  65:  7.55  66: 33.15  67: 32.65  68:  3.58  69: 32.50  70: 69.20  71:  0.08  72:803.34
  73:  4.05  74:  4.69  75:  1.15  76:  3.96  77:  0.57  78: 10.48  79: 26.40  80:  6.49
  81: 15.49  82: 19.21  83: 15.85  84: 16.11  85:  2.01  86:  0.26  87:  6.33  88:  2.51
  89:  1.62  90:  1.43  91: 41.68  92: 11.55  93:  6.23  94: 38.29  95:  0.68  96: 40.25
  97: 41.87  98: 14.60  99:  2.75 100:  7.81 101:  9.17 102:205.90 103:182.77 104: 40.93
 105: 34.75 106:  7.03 107: 19.70 108:  6.28 109: 18.14 110:  9.03 111:  0.39 112:  3.99
 113:  5.75 114:  1.10 115: 22.31 116:  7.75 117:  5.60 118:  3.76 119:  1.58 120: 54.05
 121: 16.89 122:573.52 123:455.75 124:434.20 125:649.23 126:161.19 127:436.28 128:******
 129:****** 130: 40.14 131: 13.69 132:  5.36 133: 13.90 134: 36.96 135: 21.16 136:  6.25
 137: 10.41 138:  9.40 139: 16.50 140:  7.39 141:  1.31 142:  2.88 143:780.67 144:******
 145:902.27 146:434.29 147:202.14 148: 18.22 149: 13.72 150: 15.14 151: 17.96 152: 13.27
 153: 14.00 154: 23.60 155: 13.34 156:  7.67 157: 14.17 158: 11.67 159: 22.20
 Raman intensities (amu)
Molecule has no symmetry elements
It seems to be the C1 point group
   1:  0.00   2:  0.00   3:  0.00   4:  0.00   5:  0.00   6:  0.00   7:  0.00   8:  0.00
   9:  0.00  10:  0.00  11:  0.00  12:  0.00  13:  0.00  14:  0.00  15:  0.00  16:  0.00
  17:  0.00  18:  0.00  19:  0.00  20:  0.00  21:  0.00  22:  0.00  23:  0.00  24:  0.00
  25:  0.00  26:  0.00  27:  0.00  28:  0.00  29:  0.00  30:  0.00  31:  0.00  32:  0.00
  33:  0.00  34:  0.00  35:  0.00  36:  0.00  37:  0.00  38:  0.00  39:  0.00  40:  0.00
  41:  0.00  42:  0.00  43:  0.00  44:  0.00  45:  0.00  46:  0.00  47:  0.00  48:  0.00
  49:  0.00  50:  0.00  51:  0.00  52:  0.00  53:  0.00  54:  0.00  55:  0.00  56:  0.00
  57:  0.00  58:  0.00  59:  0.00  60:  0.00  61:  0.00  62:  0.00  63:  0.00  64:  0.00
  65:  0.00  66:  0.00  67:  0.00  68:  0.00  69:  0.00  70:  0.00  71:  0.00  72:  0.00
  73:  0.00  74:  0.00  75:  0.00  76:  0.00  77:  0.00  78:  0.00  79:  0.00  80:  0.00
  81:  0.00  82:  0.00  83:  0.00  84:  0.00  85:  0.00  86:  0.00  87:  0.00  88:  0.00
  89:  0.00  90:  0.00  91:  0.00  92:  0.00  93:  0.00  94:  0.00  95:  0.00  96:  0.00
  97:  0.00  98:  0.00  99:  0.00 100:  0.00 101:  0.00 102:  0.00 103:  0.00 104:  0.00
 105:  0.00 106:  0.00 107:  0.00 108:  0.00 109:  0.00 110:  0.00 111:  0.00 112:  0.00
 113:  0.00 114:  0.00 115:  0.00 116:  0.00 117:  0.00 118:  0.00 119:  0.00 120:  0.00
 121:  0.00 122:  0.00 123:  0.00 124:  0.00 125:  0.00 126:  0.00 127:  0.00 128:  0.00
 129:  0.00 130:  0.00 131:  0.00 132:  0.00 133:  0.00 134:  0.00 135:  0.00 136:  0.00
 137:  0.00 138:  0.00 139:  0.00 140:  0.00 141:  0.00 142:  0.00 143:  0.00 144:  0.00
 145:  0.00 146:  0.00 147:  0.00 148:  0.00 149:  0.00 150:  0.00 151:  0.00 152:  0.00
 153:  0.00 154:  0.00 155:  0.00 156:  0.00 157:  0.00 158:  0.00 159:  0.00
 output can be read by thermo (or use thermo option).
 writing <g98.out> molden fake output.
 recommended (thermochemical) frequency scaling factor: 1.0
           -------------------------------------------------
          |             Thermodynamic Functions             |
           -------------------------------------------------

c1  symmetry found (for desy threshold:  0.10E+00) used in thermo

          ...................................................
          :                      SETUP                      :
          :.................................................:
          :  # frequencies                         153      :
          :  # imaginary freq.                       0      :
          :  linear?                             false      :
          :  only rotor calc.                    false      :
          :  symmetry                               c1      :
          :  rotational number                       1      :
          :  scaling factor                  1.0000000      :
          :  rotor cutoff                   50.0000000 cm⁻¹ :
          :  imag. cutoff                  -20.0000000 cm⁻¹ :
          :.................................................:

    mode    ω/cm⁻¹     T·S(HO)/kcal·mol⁻¹    T·S(FR)/kcal·mol⁻¹   T·S(vib)
   ------------------------------------------------------------------------
       1     14.06    -2.18656 (  0.62%)    -1.43221 ( 99.38%)    -1.43690
       2     19.91    -1.98058 (  2.45%)    -1.32921 ( 97.55%)    -1.34519
       3     27.99    -1.77914 (  8.94%)    -1.22840 ( 91.06%)    -1.27762
       4     30.59    -1.72658 ( 12.28%)    -1.20208 ( 87.72%)    -1.26651
       5     35.15    -1.64438 ( 19.63%)    -1.16090 ( 80.37%)    -1.25580
       6     41.33    -1.54861 ( 31.84%)    -1.11289 ( 68.16%)    -1.25161
       7     43.13    -1.52348 ( 35.64%)    -1.10028 ( 64.36%)    -1.25111
       8     50.18    -1.43422 ( 50.35%)    -1.05547 ( 49.65%)    -1.24618
       9     52.83    -1.40387 ( 55.48%)    -1.04022 ( 44.52%)    -1.24197
      10     56.13    -1.36818 ( 61.36%)    -1.02227 ( 38.64%)    -1.23452
      11     66.55    -1.26798 ( 75.84%)    -0.97181 ( 24.16%)    -1.19642
      12     69.29    -1.24430 ( 78.67%)    -0.95987 ( 21.33%)    -1.18363
      13     74.08    -1.20507 ( 82.82%)    -0.94006 ( 17.18%)    -1.15953
      14     79.79    -1.16160 ( 86.64%)    -0.91807 ( 13.36%)    -1.12907
      15     84.79    -1.12607 ( 89.21%)    -0.90007 ( 10.79%)    -1.10169
      16     98.41    -1.03921 ( 93.75%)    -0.85594 (  6.25%)    -1.02776
      17    107.14    -0.98988 ( 95.47%)    -0.83076 (  4.53%)    -0.98267
      18    114.15    -0.95320 ( 96.45%)    -0.81198 (  3.55%)    -0.94819
      19    119.17    -0.92837 ( 96.99%)    -0.79924 (  3.01%)    -0.92449
      20    124.35    -0.90389 ( 97.45%)    -0.78665 (  2.55%)    -0.90091
      21    132.41    -0.86783 ( 98.01%)    -0.76803 (  1.99%)    -0.86584
      22    144.77    -0.81687 ( 98.60%)    -0.74159 (  1.40%)    -0.81581
      23    171.82    -0.72018 ( 99.29%)    -0.69086 (  0.71%)    -0.71997
      24    179.91    -0.69449 ( 99.41%)    -0.67722 (  0.59%)    -0.69439
      25    197.95    -0.64165 ( 99.59%)    -0.64892 (  0.41%)    -0.64168
      26    213.84    -0.59948 ( 99.70%)    -0.62605 (  0.30%)    -0.59956
      27    224.72    -0.57265 ( 99.76%)    -0.61133 (  0.24%)    -0.57275
      28    262.02    -0.49142 ( 99.87%)    -0.56584 (  0.13%)    -0.49152
      29    275.24    -0.46603 ( 99.89%)    -0.55127 (  0.11%)    -0.46612
      30    283.40    -0.45111 ( 99.90%)    -0.54261 (  0.10%)    -0.45120
      31    288.13    -0.44273 ( 99.91%)    -0.53771 (  0.09%)    -0.44281
   ------------------------------------------------------------------------

   temp. (K)  partition function   enthalpy   heat capacity  entropy
                                   cal/mol     cal/K/mol   cal/K/mol   J/K/mol
 298.15  VIB  0.371E+17            19419.632    104.674    127.348
         ROT  0.111E+08              888.752      2.981     35.212
         INT  0.410E+24            20308.384    107.655    162.559
         TR   0.618E+28             1481.254      4.968     43.384
         TOT                       21789.6382   112.6228   205.9439   861.6692

       T/K    H(0)-H(T)+PV         H(T)/Eh          T*S/Eh         G(T)/Eh
   ------------------------------------------------------------------------
    298.15    0.347240E-01    0.474249E+00    0.978506E-01    0.376399E+00
   ------------------------------------------------------------------------

         :::::::::::::::::::::::::::::::::::::::::::::::::::::
         ::                  THERMODYNAMIC                  ::
         :::::::::::::::::::::::::::::::::::::::::::::::::::::
         :: total free energy         -80.557459385985 Eh   ::
         ::.................................................::
         :: total energy              -80.933858153560 Eh   ::
         :: zero point energy           0.439525349939 Eh   ::
         :: G(RRHO) w/o ZPVE           -0.063126582364 Eh   ::
         :: G(RRHO) contrib.            0.376398767575 Eh   ::
         :::::::::::::::::::::::::::::::::::::::::::::::::::::

           -------------------------------------------------
          | TOTAL ENERGY              -80.933858153560 Eh   |
          | TOTAL ENTHALPY            -80.459608804807 Eh   |
          | TOTAL FREE ENERGY         -80.557459385985 Eh   |
          | GRADIENT NORM               0.000060633424 Eh/α |
          | HOMO-LUMO GAP               5.862980403549 eV   |
           -------------------------------------------------

------------------------------------------------------------------------
 * finished run on 2024/01/10 at 15:37:54.255     
------------------------------------------------------------------------
 total:
 * wall-time:     0 d,  0 h,  0 min, 14.903 sec
 *  cpu-time:     0 d,  0 h,  0 min, 14.772 sec
 * ratio c/w:     0.991 speedup
 SCF:
 * wall-time:     0 d,  0 h,  0 min,  0.098 sec
 *  cpu-time:     0 d,  0 h,  0 min,  0.058 sec
 * ratio c/w:     0.592 speedup
 analytical hessian:
 * wall-time:     0 d,  0 h,  0 min, 14.778 sec
 *  cpu-time:     0 d,  0 h,  0 min, 14.687 sec
 * ratio c/w:     0.994 speedup

