      -----------------------------------------------------------      
     |                   =====================                   |     
     |                           x T B                           |     
     |                   =====================                   |     
     |                         S. Grimme                         |     
     |          Mulliken Center for Theoretical Chemistry        |     
     |                    University of Bonn                     |     
      -----------------------------------------------------------      

   * xtb version 6.6.1 (unknown-commit) compiled by '@Linux' on 12/27/2023

   xtb is free software: you can redistribute it and/or modify it under
   the terms of the GNU Lesser General Public License as published by
   the Free Software Foundation, either version 3 of the License, or
   (at your option) any later version.
   
   xtb is distributed in the hope that it will be useful,
   but WITHOUT ANY WARRANTY; without even the implied warranty of
   MERCHANTABILITY or FITNESS FOR A PARTICULAR PURPOSE.  See the
   GNU Lesser General Public License for more details.
   
   Cite this work as:
   * C. Bannwarth, E. Caldeweyher, S. Ehlert, A. Hansen, P. Pracht,
     J. Seibert, S. Spicher, S. Grimme, WIREs Comput. Mol. Sci., 2020, 11,
     e01493. DOI: 10.1002/wcms.1493
   
   for GFN2-xTB:
   * C. Bannwarth, S. Ehlert and S. Grimme., J. Chem. Theory Comput., 2019,
     15, 1652-1671. DOI: 10.1021/acs.jctc.8b01176
   for GFN1-xTB:
   * S. Grimme, C. Bannwarth, P. Shushkov, J. Chem. Theory Comput., 2017,
     13, 1989-2009. DOI: 10.1021/acs.jctc.7b00118
   for GFN0-xTB:
   * P. Pracht, E. Caldeweyher, S. Ehlert, S. Grimme, ChemRxiv, 2019, preprint.
     DOI: 10.26434/chemrxiv.8326202.v1
   for GFN-FF:
   * S. Spicher and S. Grimme, Angew. Chem. Int. Ed., 2020, 59, 15665-15673.
     DOI: 10.1002/anie.202004239
   
   for ALPB and GBSA implicit solvation:
   * S. Ehlert, M. Stahn, S. Spicher, S. Grimme, J. Chem. Theory Comput.,
     2021, 17, 4250-4261. DOI: 10.1021/acs.jctc.1c00471
   
   for DFT-D4:
   * E. Caldeweyher, C. Bannwarth and S. Grimme, J. Chem. Phys., 2017,
     147, 034112. DOI: 10.1063/1.4993215
   * E. Caldeweyher, S. Ehlert, A. Hansen, H. Neugebauer, S. Spicher,
     C. Bannwarth and S. Grimme, J. Chem. Phys., 2019, 150, 154122.
     DOI: 10.1063/1.5090222
   * E. Caldeweyher, J.-M. Mewes, S. Ehlert and S. Grimme, Phys. Chem. Chem. Phys.
     2020, 22, 8499-8512. DOI: 10.1039/D0CP00502A
   
   for sTDA-xTB:
   * S. Grimme and C. Bannwarth, J. Chem. Phys., 2016, 145, 054103.
     DOI: 10.1063/1.4959605
   
   in the mass-spec context:
   * V. Asgeirsson, C. Bauer and S. Grimme, Chem. Sci., 2017, 8, 4879.
     DOI: 10.1039/c7sc00601b
   * J. Koopman and S. Grimme, ACS Omega 2019, 4, 12, 15120-15133.
     DOI: 10.1021/acsomega.9b02011
   
   for metadynamics refer to:
   * S. Grimme, J. Chem. Theory Comput., 2019, 155, 2847-2862
     DOI: 10.1021/acs.jctc.9b00143
   
   for SPH calculations refer to:
   * S. Spicher and S. Grimme, J. Chem. Theory Comput., 2021, 17, 1701-1714
     DOI: 10.1021/acs.jctc.0c01306
   
   with help from (in alphabetical order)
   P. Atkinson, C. Bannwarth, F. Bohle, G. Brandenburg, E. Caldeweyher
   M. Checinski, S. Dohm, S. Ehlert, S. Ehrlich, I. Gerasimov, C. Hölzer
   A. Katbashev, J. Koopman, C. Lavigne, S. Lehtola, F. März, M. Müller,
   F. Musil, H. Neugebauer, J. Pisarek, C. Plett, P. Pracht, F. Pultar,
   J. Seibert, P. Shushkov, S. Spicher, M. Stahn, M. Steiner, T. Strunk,
   J. Stückrath, T. Rose, and J. Unsleber
   
 * started run on 2024/01/10 at 18:31:59.387     

           -------------------------------------------------
          |                Calculation Setup                |
           -------------------------------------------------

          program call               : xtb struc.xyz --gfn2 --hess
          hostname                   : swaroop
          coordinate file            : struc.xyz
          omp threads                :                     1

   ID    Z sym.   atoms
    1    8 O      1, 23, 31, 39, 47
    2    6 C      2, 5, 9, 13, 17, 22, 30, 38, 46
    3    1 H      3, 4, 6, 7, 10-12, 14-16, 18-21, 25, 26, 28, 29, 33, 34,
                  36, 37, 41, 42, 44, 45, 49, 50, 52, 53
    4    7 N      8, 24, 27, 32, 35, 40, 43, 48, 51

molecular fragmentation (1/2 indicates fragments):
11111111111111111111122222222222222222222222222222222
# atoms in fragment 1/2:    21    32
 fragment masses (1/2) :      104.17      240.22
CMA distance (Bohr)    :   3.196
constraining FC (au)   :  0.0500

           -------------------------------------------------
          |                 G F N 2 - x T B                 |
           -------------------------------------------------

        Reference                      10.1021/acs.jctc.8b01176
      * Hamiltonian:
        H0-scaling (s, p, d)           1.850000    2.230000    2.230000
        zeta-weighting                 0.500000
      * Dispersion:
        s8                             2.700000
        a1                             0.520000
        a2                             5.000000
        s9                             5.000000
      * Repulsion:
        kExp                           1.500000    1.000000
        rExp                           1.000000
      * Coulomb:
        alpha                          2.000000
        third order                    shell-resolved
        anisotropic                    true
        a3                             3.000000
        a5                             4.000000
        cn-shift                       1.200000
        cn-exp                         4.000000
        max-rad                        5.000000


          ...................................................
          :                      SETUP                      :
          :.................................................:
          :  # basis functions                 122          :
          :  # atomic orbitals                 122          :
          :  # shells                           76          :
          :  # electrons                       140          :
          :  max. iterations                   250          :
          :  Hamiltonian                  GFN2-xTB          :
          :  restarted?                      false          :
          :  GBSA solvation                  false          :
          :  PC potential                    false          :
          :  electronic temp.          300.0000000     K    :
          :  accuracy                    1.0000000          :
          :  -> integral cutoff          0.2500000E+02      :
          :  -> integral neglect         0.1000000E-07      :
          :  -> SCF convergence          0.1000000E-05 Eh   :
          :  -> wf. convergence          0.1000000E-03 e    :
          :  Broyden damping             0.4000000          :
          ...................................................

 iter      E             dE          RMSdq      gap      omega  full diag
   1    -81.5453808 -0.815454E+02  0.438E+00    5.13       0.0  T
   2    -81.8390120 -0.293631E+00  0.238E+00    5.76       1.0  T
   3    -81.8445657 -0.555375E-02  0.116E+00    5.38       1.0  T
   4    -81.8458730 -0.130727E-02  0.237E-01    5.36       1.0  T
   5    -81.8467287 -0.855673E-03  0.911E-02    5.29       1.0  T
   6    -81.8467520 -0.232652E-04  0.270E-02    5.32       1.0  T
   7    -81.8467569 -0.493419E-05  0.742E-03    5.32       1.9  T
   8    -81.8467571 -0.217250E-06  0.265E-03    5.31       5.2  T
   9    -81.8467571 -0.259615E-07  0.905E-04    5.31      15.2  T
  10    -81.8467571 -0.568119E-08  0.171E-04    5.31      80.5  T

   *** convergence criteria satisfied after 10 iterations ***

         #    Occupation            Energy/Eh            Energy/eV
      -------------------------------------------------------------
         1        2.0000           -0.8008627             -21.7926
       ...           ...                  ...                  ...
        64        2.0000           -0.5036515             -13.7051
        65        2.0000           -0.5004408             -13.6177
        66        2.0000           -0.4959485             -13.4954
        67        2.0000           -0.4921853             -13.3930
        68        2.0000           -0.4886108             -13.2958
        69        2.0000           -0.4883516             -13.2887
        70        2.0000           -0.4814959             -13.1022 (HOMO)
        71                         -0.2862751              -7.7899 (LUMO)
        72                         -0.2747695              -7.4769
        73                         -0.2644653              -7.1965
        74                         -0.2557235              -6.9586
        75                         -0.1453190              -3.9543
       ...                                ...                  ...
       122                          0.5597019              15.2303
      -------------------------------------------------------------
                  HL-Gap            0.1952208 Eh            5.3122 eV
             Fermi-level           -0.3838855 Eh          -10.4461 eV

 SCC (total)                   0 d,  0 h,  0 min,  0.095 sec
 SCC setup                      ...        0 min,  0.000 sec (  0.304%)
 Dispersion                     ...        0 min,  0.001 sec (  0.616%)
 classical contributions        ...        0 min,  0.000 sec (  0.191%)
 integral evaluation            ...        0 min,  0.008 sec (  8.453%)
 iterations                     ...        0 min,  0.058 sec ( 60.726%)
 molecular gradient             ...        0 min,  0.028 sec ( 29.436%)
 printout                       ...        0 min,  0.000 sec (  0.262%)

         :::::::::::::::::::::::::::::::::::::::::::::::::::::
         ::                     SUMMARY                     ::
         :::::::::::::::::::::::::::::::::::::::::::::::::::::
         :: total energy             -80.932435882807 Eh    ::
         :: gradient norm              0.000053062982 Eh/a0 ::
         :: HOMO-LUMO gap              5.312229453989 eV    ::
         ::.................................................::
         :: SCC energy               -81.846757142213 Eh    ::
         :: -> isotropic ES            0.292486127217 Eh    ::
         :: -> anisotropic ES         -0.027752749637 Eh    ::
         :: -> anisotropic XC          0.021346170936 Eh    ::
         :: -> dispersion             -0.046253214169 Eh    ::
         :: repulsion energy           0.912738001942 Eh    ::
         :: add. restraining           0.000000000000 Eh    ::
         :: total charge               1.000000000000 e     ::
         :::::::::::::::::::::::::::::::::::::::::::::::::::::

           ------------------------------------------------- 
          |                Numerical Hessian                |
           ------------------------------------------------- 
step length          :   0.00500
SCC accuracy         :   0.30000
Hessian scale factor :   1.00000
frozen atoms in %    :   0.00000    0
RMS gradient         :   0.00005
estimated CPU  time      0.24 min
estimated wall time      0.25 min

writing file <hessian>.

 projected vibrational frequencies (cm⁻¹)
eigval :       -0.00    -0.00    -0.00    -0.00     0.00     0.00
eigval :       11.02    24.20    31.51    33.47    41.74    43.74
eigval :       51.05    53.88    61.30    69.41    72.50    78.44
eigval :       83.38    88.45   100.80   104.81   107.96   112.01
eigval :      113.29   122.63   128.78   144.62   152.62   161.97
eigval :      178.59   193.36   261.31   274.33   275.12   279.14
eigval :      287.16   298.79   314.60   323.87   342.50   373.74
eigval :      396.13   399.71   404.83   431.10   454.32   460.59
eigval :      462.52   464.54   465.66   471.00   480.89   482.04
eigval :      485.86   491.94   500.60   535.20   536.16   541.48
eigval :      547.04   553.82   558.03   611.79   671.41   674.89
eigval :      676.87   677.35   719.03   732.84   767.47   816.18
eigval :      906.21   932.88   962.30   962.34   963.59   970.65
eigval :      993.58  1005.82  1009.00  1017.12  1018.91  1021.00
eigval :     1027.99  1040.05  1043.96  1085.34  1086.74  1088.58
eigval :     1089.87  1101.20  1103.67  1122.32  1160.72  1218.52
eigval :     1249.71  1276.07  1319.47  1320.36  1342.07  1350.33
eigval :     1354.07  1362.57  1369.40  1375.08  1406.07  1409.13
eigval :     1423.81  1433.55  1444.55  1446.73  1449.95  1452.08
eigval :     1455.56  1455.96  1459.83  1463.48  1475.35  1476.13
eigval :     1483.47  1495.66  1500.03  1502.01  1514.70  1669.36
eigval :     1699.29  1715.28  1723.73  2914.45  2996.93  3002.94
eigval :     3023.52  3040.60  3042.83  3043.84  3046.99  3048.19
eigval :     3049.44  3052.44  3055.71  3070.87  3139.00  3257.80
eigval :     3294.61  3425.92  3436.59  3495.16  3496.18  3496.72
eigval :     3498.12  3499.65  3525.26  3536.16  3538.09  3560.14
eigval :     3562.25  3562.99  3563.93
           -------------------------------------------------
          |                Property Printout                |
           -------------------------------------------------

    * Orbital Energies and Occupations

         #    Occupation            Energy/Eh            Energy/eV
      -------------------------------------------------------------
         1        2.0000           -0.8008627             -21.7926
       ...           ...                  ...                  ...
        58        2.0000           -0.5192396             -14.1292
        59        2.0000           -0.5164141             -14.0523
        60        2.0000           -0.5123530             -13.9418
        61        2.0000           -0.5105806             -13.8936
        62        2.0000           -0.5066298             -13.7861
        63        2.0000           -0.5040346             -13.7155
        64        2.0000           -0.5036515             -13.7051
        65        2.0000           -0.5004427             -13.6177
        66        2.0000           -0.4959501             -13.4955
        67        2.0000           -0.4921872             -13.3931
        68        2.0000           -0.4886127             -13.2958
        69        2.0000           -0.4883535             -13.2888
        70        2.0000           -0.4814978             -13.1022 (HOMO)
        71                         -0.2862760              -7.7900 (LUMO)
        72                         -0.2747681              -7.4768
        73                         -0.2644679              -7.1965
        74                         -0.2557259              -6.9587
        75                         -0.1453182              -3.9543
        76                         -0.1111774              -3.0253
        77                         -0.0905679              -2.4645
        78                         -0.0851913              -2.3182
        79                         -0.0815427              -2.2189
        80                         -0.0784494              -2.1347
        81                         -0.0679962              -1.8503
       ...                                ...                  ...
       122                          0.5596997              15.2302
      -------------------------------------------------------------
                  HL-Gap            0.1952218 Eh            5.3123 eV
             Fermi-level           -0.3838869 Eh          -10.4461 eV

     #   Z          covCN         q      C6AA      α(0)
     1   8 O        1.654    -0.456    21.970     6.327
     2   6 C        3.673     0.058    19.837     6.383
     3   1 H        0.924     0.094     1.841     2.122
     4   1 H        0.924     0.043     2.410     2.428
     5   6 C        3.773    -0.077    22.006     6.684
     6   1 H        0.924     0.111     1.688     2.032
     7   1 H        0.924     0.117     1.635     2.000
     8   7 N        3.624     0.158    18.582     6.402
     9   6 C        3.721    -0.109    22.704     6.805
    10   1 H        0.925     0.103     1.758     2.074
    11   1 H        0.925     0.079     1.991     2.207
    12   1 H        0.925     0.127     1.561     1.954
    13   6 C        3.736    -0.112    22.726     6.803
    14   1 H        0.925     0.102     1.763     2.077
    15   1 H        0.925     0.118     1.632     1.998
    16   1 H        0.925     0.084     1.942     2.179
    17   6 C        3.724    -0.116    22.836     6.824
    18   1 H        0.925     0.085     1.927     2.171
    19   1 H        0.925     0.105     1.744     2.065
    20   1 H        0.925     0.129     1.544     1.943
    21   1 H        0.804     0.301     0.719     1.332
    22   6 C        2.675     0.343    21.179     7.531
    23   8 O        0.860    -0.524    24.331     6.613
    24   7 N        2.644    -0.319    28.197     7.886
    25   1 H        0.860     0.230     0.967     1.540
    26   1 H        0.860     0.176     1.237     1.742
    27   7 N        2.645    -0.293    27.559     7.797
    28   1 H        0.861     0.182     1.200     1.716
    29   1 H        0.860     0.199     1.109     1.649
    30   6 C        2.675     0.342    21.185     7.532
    31   8 O        0.860    -0.519    24.211     6.597
    32   7 N        2.641    -0.332    28.556     7.937
    33   1 H        0.859     0.243     0.913     1.497
    34   1 H        0.860     0.177     1.231     1.738
    35   7 N        2.643    -0.284    27.327     7.764
    36   1 H        0.861     0.189     1.165     1.691
    37   1 H        0.860     0.207     1.073     1.623
    38   6 C        2.675     0.343    21.169     7.529
    39   8 O        0.860    -0.527    24.383     6.621
    40   7 N        2.645    -0.306    27.872     7.841
    41   1 H        0.860     0.238     0.932     1.513
    42   1 H        0.861     0.181     1.206     1.720
    43   7 N        2.645    -0.288    27.435     7.779
    44   1 H        0.861     0.186     1.178     1.700
    45   1 H        0.860     0.204     1.084     1.631
    46   6 C        2.675     0.344    21.154     7.526
    47   8 O        0.860    -0.521    24.261     6.604
    48   7 N        2.644    -0.305    27.854     7.838
    49   1 H        0.860     0.223     0.996     1.564
    50   1 H        0.861     0.177     1.230     1.737
    51   7 N        2.644    -0.291    27.502     7.789
    52   1 H        0.861     0.182     1.200     1.716
    53   1 H        0.860     0.200     1.106     1.647

 Mol. C6AA /au·bohr⁶  :      21765.793967
 Mol. C8AA /au·bohr⁸  :     453942.993129
 Mol. α(0) /au        :        220.416124


Wiberg/Mayer (AO) data.
largest (>0.10) Wiberg bond orders for each atom

 ---------------------------------------------------------------------------
     #   Z sym  total        # sym  WBO       # sym  WBO       # sym  WBO
 ---------------------------------------------------------------------------
     1   8 O    1.967 --     2 C    0.999    21 H    0.872
     2   6 C    3.950 --     5 C    1.001     1 O    0.999     4 H    0.966
                             3 H    0.951
     3   1 H    0.991 --     2 C    0.951
     4   1 H    0.998 --     2 C    0.966
     5   6 C    3.924 --     2 C    1.001     6 H    0.949     7 H    0.942
                             8 N    0.931
     6   1 H    0.988 --     5 C    0.949
     7   1 H    0.986 --     5 C    0.942
     8   7 N    3.822 --    13 C    0.959    17 C    0.957     9 C    0.957
                             5 C    0.931
     9   6 C    3.922 --    11 H    0.979    10 H    0.971    12 H    0.958
                             8 N    0.957
    10   1 H    0.989 --     9 C    0.971
    11   1 H    0.994 --     9 C    0.979
    12   1 H    0.984 --     9 C    0.958
    13   6 C    3.928 --    16 H    0.977    14 H    0.971    15 H    0.967
                             8 N    0.959
    14   1 H    0.989 --    13 C    0.971
    15   1 H    0.986 --    13 C    0.967
    16   1 H    0.993 --    13 C    0.977
    17   6 C    3.920 --    18 H    0.977    19 H    0.973    20 H    0.958
                             8 N    0.957
    18   1 H    0.993 --    17 C    0.977
    19   1 H    0.989 --    17 C    0.973
    20   1 H    0.983 --    17 C    0.958
    21   1 H    0.909 --     1 O    0.872
    22   6 C    3.959 --    23 O    1.536    24 N    1.214    27 N    1.202
    23   8 O    1.898 --    22 C    1.536    24 N    0.145    27 N    0.141
    24   7 N    3.309 --    22 C    1.214    26 H    0.949    25 H    0.891
                            23 O    0.145
    25   1 H    0.947 --    24 N    0.891
    26   1 H    0.969 --    24 N    0.949
    27   7 N    3.317 --    22 C    1.202    28 H    0.948    29 H    0.943
                            23 O    0.141
    28   1 H    0.967 --    27 N    0.948
    29   1 H    0.960 --    27 N    0.943
    30   6 C    3.959 --    31 O    1.514    35 N    1.231    32 N    1.199
    31   8 O    1.913 --    30 C    1.514    35 N    0.142    32 N    0.134
    32   7 N    3.294 --    30 C    1.199    34 H    0.948    33 H    0.869
                            31 O    0.134
    33   1 H    0.941 --    32 N    0.869
    34   1 H    0.969 --    32 N    0.948
    35   7 N    3.346 --    30 C    1.231    36 H    0.945    37 H    0.940
                            31 O    0.142
    36   1 H    0.964 --    35 N    0.945
    37   1 H    0.957 --    35 N    0.940
    38   6 C    3.960 --    39 O    1.480    40 N    1.253    43 N    1.218
    39   8 O    1.918 --    38 C    1.480    40 N    0.140    43 N    0.130
    40   7 N    3.342 --    38 C    1.253    42 H    0.947    41 H    0.875
                            39 O    0.140
    41   1 H    0.943 --    40 N    0.875
    42   1 H    0.967 --    40 N    0.947
    43   7 N    3.328 --    38 C    1.218    44 H    0.946    45 H    0.937
                            39 O    0.130
    44   1 H    0.965 --    43 N    0.946
    45   1 H    0.958 --    43 N    0.937
    46   6 C    3.959 --    47 O    1.536    48 N    1.212    51 N    1.204
    47   8 O    1.901 --    46 C    1.536    48 N    0.144    51 N    0.141
    48   7 N    3.314 --    46 C    1.212    50 H    0.949    49 H    0.914
                            47 O    0.144
    49   1 H    0.950 --    48 N    0.914
    50   1 H    0.969 --    48 N    0.949
    51   7 N    3.319 --    46 C    1.204    52 H    0.948    53 H    0.943
                            47 O    0.141
    52   1 H    0.966 --    51 N    0.948
    53   1 H    0.960 --    51 N    0.943
 ---------------------------------------------------------------------------

Topologies differ in total number of bonds
Writing topology from bond orders to xtbtopo.mol

molecular dipole:
                 x           y           z       tot (Debye)
 q only:        0.144       0.278       0.168
   full:        0.482       0.767      -0.205       2.361
molecular quadrupole (traceless):
                xx          xy          yy          xz          yz          zz
 q only:       24.004      -7.546      -7.476     -17.461      11.577     -16.528
  q+dip:       27.984      -9.006      -8.386     -21.308      14.615     -19.598
   full:       28.220      -9.106      -8.203     -21.121      14.730     -20.016

           -------------------------------------------------
          |               Frequency Printout                |
           -------------------------------------------------
 projected vibrational frequencies (cm⁻¹)
eigval :       -0.00    -0.00    -0.00    -0.00     0.00     0.00
eigval :       11.02    24.20    31.51    33.47    41.74    43.74
eigval :       51.05    53.88    61.30    69.41    72.50    78.44
eigval :       83.38    88.45   100.80   104.81   107.96   112.01
eigval :      113.29   122.63   128.78   144.62   152.62   161.97
eigval :      178.59   193.36   261.31   274.33   275.12   279.14
eigval :      287.16   298.79   314.60   323.87   342.50   373.74
eigval :      396.13   399.71   404.83   431.10   454.32   460.59
eigval :      462.52   464.54   465.66   471.00   480.89   482.04
eigval :      485.86   491.94   500.60   535.20   536.16   541.48
eigval :      547.04   553.82   558.03   611.79   671.41   674.89
eigval :      676.87   677.35   719.03   732.84   767.47   816.18
eigval :      906.21   932.88   962.30   962.34   963.59   970.65
eigval :      993.58  1005.82  1009.00  1017.12  1018.91  1021.00
eigval :     1027.99  1040.05  1043.96  1085.34  1086.74  1088.58
eigval :     1089.87  1101.20  1103.67  1122.32  1160.72  1218.52
eigval :     1249.71  1276.07  1319.47  1320.36  1342.07  1350.33
eigval :     1354.07  1362.57  1369.40  1375.08  1406.07  1409.13
eigval :     1423.81  1433.55  1444.55  1446.73  1449.95  1452.08
eigval :     1455.56  1455.96  1459.83  1463.48  1475.35  1476.13
eigval :     1483.47  1495.66  1500.03  1502.01  1514.70  1669.36
eigval :     1699.29  1715.28  1723.73  2914.45  2996.93  3002.94
eigval :     3023.52  3040.60  3042.83  3043.84  3046.99  3048.19
eigval :     3049.44  3052.44  3055.71  3070.87  3139.00  3257.80
eigval :     3294.61  3425.92  3436.59  3495.16  3496.18  3496.72
eigval :     3498.12  3499.65  3525.26  3536.16  3538.09  3560.14
eigval :     3562.25  3562.99  3563.93
 reduced masses (amu)
   1: 12.47   2: 12.62   3: 12.61   4: 12.65   5: 12.77   6: 12.42   7: 11.99   8: 12.28
   9: 12.50  10: 11.79  11: 11.98  12: 12.44  13: 11.81  14: 12.83  15: 11.51  16: 12.73
  17: 11.93  18: 12.89  19: 12.52  20: 12.91  21: 11.01  22: 13.22  23: 12.78  24: 12.70
  25: 13.08  26: 12.51  27: 11.77  28: 12.72  29: 12.03  30: 12.17  31: 13.70  32: 12.69
  33:  3.85  34:  2.93  35:  4.37  36:  4.76  37:  2.93  38:  2.63  39:  4.94  40:  3.45
  41:  4.32  42:  7.78  43:  3.28  44:  3.05  45:  3.30  46:  7.95  47:  6.79  48:  3.24
  49:  6.85  50:  7.62  51:  6.99  52:  7.60  53:  2.96  54:  3.25  55:  6.14  56:  8.32
  57:  1.78  58: 10.12  59:  6.21  60: 10.21  61:  8.84  62:  9.21  63: 11.80  64:  2.55
  65: 11.45  66: 11.17  67: 11.78  68: 11.84  69:  2.26  70:  2.11  71:  9.25  72:  3.19
  73:  7.73  74:  7.41  75:  5.53  76:  5.38  77:  5.06  78:  4.79  79:  7.56  80:  9.34
  81:  9.36  82:  7.19  83:  8.96  84:  6.57  85:  9.81  86:  7.24  87:  3.65  88:  8.84
  89:  8.42  90:  8.38  91:  8.38  92:  6.62  93:  4.03  94:  6.83  95:  2.90  96:  4.89
  97:  7.78  98:  8.37  99:  4.42 100:  4.80 101:  4.06 102:  5.69 103:  5.85 104:  5.48
 105:  4.10 106:  5.11 107:  2.44 108:  2.48 109:  2.15 110:  2.35 111:  3.26 112:  1.75
 113:  1.76 114:  2.08 115:  3.08 116:  2.85 117:  2.99 118:  2.46 119:  1.66 120:  1.63
 121:  1.66 122:  7.81 123:  7.82 124:  7.55 125:  9.43 126: 12.38 127: 12.75 128: 12.78
 129: 12.76 130:  1.74 131:  1.85 132:  1.69 133:  1.71 134:  1.48 135:  1.97 136:  1.66
 137:  1.69 138:  1.84 139:  1.55 140:  1.86 141:  1.76 142:  1.76 143:  1.82 144:  1.77
 145:  1.75 146:  1.65 147:  1.84 148:  1.45 149:  1.53 150:  1.45 151:  1.45 152:  1.79
 153:  1.92 154:  2.04 155:  1.92 156:  2.18 157:  2.18 158:  2.19 159:  2.18
 IR intensities (km·mol⁻¹)
   1:  0.29   2:  1.12   3:  1.75   4:  1.94   5:  2.69   6:  0.95   7:  0.74   8:  0.51
   9:  5.16  10:  1.19  11:  2.81  12:  6.18  13:  1.36  14:  1.08  15:  3.10  16:  5.99
  17:  0.54  18:  1.99  19: 10.17  20:  7.75  21: 11.38  22:  2.57  23:  1.88  24:  5.44
  25:  9.18  26:  5.30  27: 24.98  28:  1.06  29: 34.61  30: 12.12  31: 10.27  32: 81.13
  33: 85.06  34: 76.35  35: 48.30  36: 96.73  37:323.03  38: 60.49  39: 10.02  40:  2.96
  41:  7.95  42:  4.99  43:232.70  44:422.96  45:131.38  46:  9.56  47: 23.30  48:  8.40
  49: 31.08  50: 23.06  51: 19.19  52: 21.37  53:  4.63  54: 16.41  55: 10.70  56: 50.19
  57: 70.63  58: 17.88  59: 23.34  60: 27.05  61: 51.77  62: 18.69  63: 37.97  64:166.56
  65: 41.37  66: 13.27  67: 49.71  68: 46.36  69:145.34  70: 92.97  71:  0.62  72:549.79
  73:  9.08  74: 15.73  75:  4.06  76:  2.83  77:  0.79  78:  6.90  79: 27.54  80:  7.45
  81:  0.46  82: 11.52  83:  7.61  84: 49.50  85:  3.23  86: 14.99  87:  2.44  88:  0.58
  89: 23.66  90:  2.53  91:  0.48  92:  7.63  93: 19.43  94: 10.05  95: 17.55  96:  5.56
  97:  6.48  98:  4.81  99:  6.19 100: 12.28 101: 25.44 102:389.31 103:  4.74 104:158.64
 105:  1.33 106:  5.95 107: 17.57 108: 12.30 109: 16.99 110: 13.40 111:  4.76 112:  0.08
 113:  1.11 114: 13.80 115: 27.78 116: 15.93 117: 18.12 118: 14.28 119: 21.73 120: 39.48
 121: 44.10 122:512.76 123:552.47 124:176.68 125:501.04 126:413.80 127:741.17 128:865.19
 129:930.18 130: 35.04 131: 79.74 132:  1.81 133: 10.18 134: 15.52 135: 21.73 136:  7.62
 137:  2.03 138:  8.03 139:  7.88 140:  6.90 141:  0.04 142: 43.00 143:568.34 144:******
 145:335.31 146:281.21 147: 63.44 148: 30.26 149: 23.81 150: 15.89 151: 19.97 152: 17.17
 153: 14.21 154: 22.30 155: 17.61 156: 21.08 157: 11.16 158: 19.82 159: 13.29
 Raman intensities (amu)
Molecule has no symmetry elements
It seems to be the C1 point group
   1:  0.00   2:  0.00   3:  0.00   4:  0.00   5:  0.00   6:  0.00   7:  0.00   8:  0.00
   9:  0.00  10:  0.00  11:  0.00  12:  0.00  13:  0.00  14:  0.00  15:  0.00  16:  0.00
  17:  0.00  18:  0.00  19:  0.00  20:  0.00  21:  0.00  22:  0.00  23:  0.00  24:  0.00
  25:  0.00  26:  0.00  27:  0.00  28:  0.00  29:  0.00  30:  0.00  31:  0.00  32:  0.00
  33:  0.00  34:  0.00  35:  0.00  36:  0.00  37:  0.00  38:  0.00  39:  0.00  40:  0.00
  41:  0.00  42:  0.00  43:  0.00  44:  0.00  45:  0.00  46:  0.00  47:  0.00  48:  0.00
  49:  0.00  50:  0.00  51:  0.00  52:  0.00  53:  0.00  54:  0.00  55:  0.00  56:  0.00
  57:  0.00  58:  0.00  59:  0.00  60:  0.00  61:  0.00  62:  0.00  63:  0.00  64:  0.00
  65:  0.00  66:  0.00  67:  0.00  68:  0.00  69:  0.00  70:  0.00  71:  0.00  72:  0.00
  73:  0.00  74:  0.00  75:  0.00  76:  0.00  77:  0.00  78:  0.00  79:  0.00  80:  0.00
  81:  0.00  82:  0.00  83:  0.00  84:  0.00  85:  0.00  86:  0.00  87:  0.00  88:  0.00
  89:  0.00  90:  0.00  91:  0.00  92:  0.00  93:  0.00  94:  0.00  95:  0.00  96:  0.00
  97:  0.00  98:  0.00  99:  0.00 100:  0.00 101:  0.00 102:  0.00 103:  0.00 104:  0.00
 105:  0.00 106:  0.00 107:  0.00 108:  0.00 109:  0.00 110:  0.00 111:  0.00 112:  0.00
 113:  0.00 114:  0.00 115:  0.00 116:  0.00 117:  0.00 118:  0.00 119:  0.00 120:  0.00
 121:  0.00 122:  0.00 123:  0.00 124:  0.00 125:  0.00 126:  0.00 127:  0.00 128:  0.00
 129:  0.00 130:  0.00 131:  0.00 132:  0.00 133:  0.00 134:  0.00 135:  0.00 136:  0.00
 137:  0.00 138:  0.00 139:  0.00 140:  0.00 141:  0.00 142:  0.00 143:  0.00 144:  0.00
 145:  0.00 146:  0.00 147:  0.00 148:  0.00 149:  0.00 150:  0.00 151:  0.00 152:  0.00
 153:  0.00 154:  0.00 155:  0.00 156:  0.00 157:  0.00 158:  0.00 159:  0.00
 output can be read by thermo (or use thermo option).
 writing <g98.out> molden fake output.
 recommended (thermochemical) frequency scaling factor: 1.0
           -------------------------------------------------
          |             Thermodynamic Functions             |
           -------------------------------------------------

c1  symmetry found (for desy threshold:  0.10E+00) used in thermo

          ...................................................
          :                      SETUP                      :
          :.................................................:
          :  # frequencies                         153      :
          :  # imaginary freq.                       0      :
          :  linear?                             false      :
          :  only rotor calc.                    false      :
          :  symmetry                               c1      :
          :  rotational number                       1      :
          :  scaling factor                  1.0000000      :
          :  rotor cutoff                   50.0000000 cm⁻¹ :
          :  imag. cutoff                  -20.0000000 cm⁻¹ :
          :.................................................:

    mode    ω/cm⁻¹     T·S(HO)/kcal·mol⁻¹    T·S(FR)/kcal·mol⁻¹   T·S(vib)
   ------------------------------------------------------------------------
       1     11.02    -2.33077 (  0.24%)    -1.50433 ( 99.76%)    -1.50627
       2     24.20    -1.86509 (  5.20%)    -1.27143 ( 94.80%)    -1.30233
       3     31.51    -1.70897 ( 13.63%)    -1.19327 ( 86.37%)    -1.26354
       4     33.47    -1.67331 ( 16.72%)    -1.17541 ( 83.28%)    -1.25867
       5     41.74    -1.54283 ( 32.69%)    -1.11000 ( 67.31%)    -1.25150
       6     43.74    -1.51528 ( 36.92%)    -1.09617 ( 63.08%)    -1.25092
       7     51.05    -1.42407 ( 52.07%)    -1.05037 ( 47.93%)    -1.24497
       8     53.88    -1.39221 ( 57.42%)    -1.03436 ( 42.58%)    -1.23986
       9     61.30    -1.31632 ( 69.32%)    -0.99617 ( 30.68%)    -1.21808
      10     69.41    -1.24330 ( 78.78%)    -0.95937 ( 21.22%)    -1.18306
      11     72.50    -1.21777 ( 81.55%)    -0.94647 ( 18.45%)    -1.16771
      12     78.44    -1.17161 ( 85.83%)    -0.92314 ( 14.17%)    -1.13640
      13     83.38    -1.13586 ( 88.55%)    -0.90504 ( 11.45%)    -1.10943
      14     88.45    -1.10137 ( 90.74%)    -0.88754 (  9.26%)    -1.08156
      15    100.80    -1.02529 ( 94.29%)    -0.84884 (  5.71%)    -1.01521
      16    104.81    -1.00262 ( 95.08%)    -0.83728 (  4.92%)    -0.99448
      17    107.96    -0.98544 ( 95.60%)    -0.82850 (  4.40%)    -0.97854
      18    112.01    -0.96417 ( 96.18%)    -0.81761 (  3.82%)    -0.95857
      19    113.29    -0.95759 ( 96.34%)    -0.81424 (  3.66%)    -0.95235
      20    122.63    -0.91190 ( 97.31%)    -0.79077 (  2.69%)    -0.90864
      21    128.78    -0.88376 ( 97.78%)    -0.77626 (  2.22%)    -0.88137
      22    144.62    -0.81746 ( 98.59%)    -0.74190 (  1.41%)    -0.81640
      23    152.62    -0.78689 ( 98.86%)    -0.72595 (  1.14%)    -0.78620
      24    161.97    -0.75333 ( 99.10%)    -0.70835 (  0.90%)    -0.75293
      25    178.59    -0.69861 ( 99.39%)    -0.67941 (  0.61%)    -0.69849
      26    193.36    -0.65456 ( 99.55%)    -0.65587 (  0.45%)    -0.65456
      27    261.31    -0.49284 ( 99.87%)    -0.56665 (  0.13%)    -0.49293
      28    274.33    -0.46773 ( 99.89%)    -0.55225 (  0.11%)    -0.46782
      29    275.12    -0.46625 ( 99.89%)    -0.55139 (  0.11%)    -0.46634
      30    279.14    -0.45883 ( 99.90%)    -0.54710 (  0.10%)    -0.45892
      31    287.16    -0.44443 ( 99.91%)    -0.53870 (  0.09%)    -0.44451
      32    298.79    -0.42446 ( 99.92%)    -0.52694 (  0.08%)    -0.42454
   ------------------------------------------------------------------------

   temp. (K)  partition function   enthalpy   heat capacity  entropy
                                   cal/mol     cal/K/mol   cal/K/mol   J/K/mol
 298.15  VIB  0.125E+17            19396.988    106.027    127.092
         ROT  0.127E+08              888.752      2.981     35.488
         INT  0.159E+24            20285.741    109.008    162.580
         TR   0.618E+28             1481.254      4.968     43.384
         TOT                       21766.9948   113.9762   205.9648   861.7567

       T/K    H(0)-H(T)+PV         H(T)/Eh          T*S/Eh         G(T)/Eh
   ------------------------------------------------------------------------
    298.15    0.346879E-01    0.474265E+00    0.978605E-01    0.376404E+00
   ------------------------------------------------------------------------

         :::::::::::::::::::::::::::::::::::::::::::::::::::::
         ::                  THERMODYNAMIC                  ::
         :::::::::::::::::::::::::::::::::::::::::::::::::::::
         :: total free energy         -80.556031637676 Eh   ::
         ::.................................................::
         :: total energy              -80.932435883087 Eh   ::
         :: zero point energy           0.439576848240 Eh   ::
         :: G(RRHO) w/o ZPVE           -0.063172602829 Eh   ::
         :: G(RRHO) contrib.            0.376404245411 Eh   ::
         :::::::::::::::::::::::::::::::::::::::::::::::::::::

           -------------------------------------------------
          | TOTAL ENERGY              -80.932435883087 Eh   |
          | TOTAL ENTHALPY            -80.458171120698 Eh   |
          | TOTAL FREE ENERGY         -80.556031637676 Eh   |
          | GRADIENT NORM               0.000053382519 Eh/α |
          | HOMO-LUMO GAP               5.312255640799 eV   |
           -------------------------------------------------

------------------------------------------------------------------------
 * finished run on 2024/01/10 at 18:32:13.978     
------------------------------------------------------------------------
 total:
 * wall-time:     0 d,  0 h,  0 min, 14.591 sec
 *  cpu-time:     0 d,  0 h,  0 min, 14.494 sec
 * ratio c/w:     0.993 speedup
 SCF:
 * wall-time:     0 d,  0 h,  0 min,  0.095 sec
 *  cpu-time:     0 d,  0 h,  0 min,  0.058 sec
 * ratio c/w:     0.605 speedup
 analytical hessian:
 * wall-time:     0 d,  0 h,  0 min, 14.469 sec
 *  cpu-time:     0 d,  0 h,  0 min, 14.410 sec
 * ratio c/w:     0.996 speedup

