      -----------------------------------------------------------      
     |                   =====================                   |     
     |                           x T B                           |     
     |                   =====================                   |     
     |                         S. Grimme                         |     
     |          Mulliken Center for Theoretical Chemistry        |     
     |                    University of Bonn                     |     
      -----------------------------------------------------------      

   * xtb version 6.6.1 (unknown-commit) compiled by '@Linux' on 12/27/2023

   xtb is free software: you can redistribute it and/or modify it under
   the terms of the GNU Lesser General Public License as published by
   the Free Software Foundation, either version 3 of the License, or
   (at your option) any later version.
   
   xtb is distributed in the hope that it will be useful,
   but WITHOUT ANY WARRANTY; without even the implied warranty of
   MERCHANTABILITY or FITNESS FOR A PARTICULAR PURPOSE.  See the
   GNU Lesser General Public License for more details.
   
   Cite this work as:
   * C. Bannwarth, E. Caldeweyher, S. Ehlert, A. Hansen, P. Pracht,
     J. Seibert, S. Spicher, S. Grimme, WIREs Comput. Mol. Sci., 2020, 11,
     e01493. DOI: 10.1002/wcms.1493
   
   for GFN2-xTB:
   * C. Bannwarth, S. Ehlert and S. Grimme., J. Chem. Theory Comput., 2019,
     15, 1652-1671. DOI: 10.1021/acs.jctc.8b01176
   for GFN1-xTB:
   * S. Grimme, C. Bannwarth, P. Shushkov, J. Chem. Theory Comput., 2017,
     13, 1989-2009. DOI: 10.1021/acs.jctc.7b00118
   for GFN0-xTB:
   * P. Pracht, E. Caldeweyher, S. Ehlert, S. Grimme, ChemRxiv, 2019, preprint.
     DOI: 10.26434/chemrxiv.8326202.v1
   for GFN-FF:
   * S. Spicher and S. Grimme, Angew. Chem. Int. Ed., 2020, 59, 15665-15673.
     DOI: 10.1002/anie.202004239
   
   for ALPB and GBSA implicit solvation:
   * S. Ehlert, M. Stahn, S. Spicher, S. Grimme, J. Chem. Theory Comput.,
     2021, 17, 4250-4261. DOI: 10.1021/acs.jctc.1c00471
   
   for DFT-D4:
   * E. Caldeweyher, C. Bannwarth and S. Grimme, J. Chem. Phys., 2017,
     147, 034112. DOI: 10.1063/1.4993215
   * E. Caldeweyher, S. Ehlert, A. Hansen, H. Neugebauer, S. Spicher,
     C. Bannwarth and S. Grimme, J. Chem. Phys., 2019, 150, 154122.
     DOI: 10.1063/1.5090222
   * E. Caldeweyher, J.-M. Mewes, S. Ehlert and S. Grimme, Phys. Chem. Chem. Phys.
     2020, 22, 8499-8512. DOI: 10.1039/D0CP00502A
   
   for sTDA-xTB:
   * S. Grimme and C. Bannwarth, J. Chem. Phys., 2016, 145, 054103.
     DOI: 10.1063/1.4959605
   
   in the mass-spec context:
   * V. Asgeirsson, C. Bauer and S. Grimme, Chem. Sci., 2017, 8, 4879.
     DOI: 10.1039/c7sc00601b
   * J. Koopman and S. Grimme, ACS Omega 2019, 4, 12, 15120-15133.
     DOI: 10.1021/acsomega.9b02011
   
   for metadynamics refer to:
   * S. Grimme, J. Chem. Theory Comput., 2019, 155, 2847-2862
     DOI: 10.1021/acs.jctc.9b00143
   
   for SPH calculations refer to:
   * S. Spicher and S. Grimme, J. Chem. Theory Comput., 2021, 17, 1701-1714
     DOI: 10.1021/acs.jctc.0c01306
   
   with help from (in alphabetical order)
   P. Atkinson, C. Bannwarth, F. Bohle, G. Brandenburg, E. Caldeweyher
   M. Checinski, S. Dohm, S. Ehlert, S. Ehrlich, I. Gerasimov, C. Hölzer
   A. Katbashev, J. Koopman, C. Lavigne, S. Lehtola, F. März, M. Müller,
   F. Musil, H. Neugebauer, J. Pisarek, C. Plett, P. Pracht, F. Pultar,
   J. Seibert, P. Shushkov, S. Spicher, M. Stahn, M. Steiner, T. Strunk,
   J. Stückrath, T. Rose, and J. Unsleber
   
 * started run on 2024/01/10 at 15:32:59.612     

           -------------------------------------------------
          |                Calculation Setup                |
           -------------------------------------------------

          program call               : xtb struc.xyz --gfn2 --hess
          hostname                   : swaroop
          coordinate file            : struc.xyz
          omp threads                :                     1

   ID    Z sym.   atoms
    1    8 O      1, 23, 31, 39, 47
    2    6 C      2, 5, 9, 13, 17, 22, 30, 38, 46
    3    1 H      3, 4, 6, 7, 10-12, 14-16, 18-21, 25, 26, 28, 29, 33, 34,
                  36, 37, 41, 42, 44, 45, 49, 50, 52, 53
    4    7 N      8, 24, 27, 32, 35, 40, 43, 48, 51

molecular fragmentation (1/2 indicates fragments):
11111111111111111111122222222222222222222222222222222
# atoms in fragment 1/2:    21    32
 fragment masses (1/2) :      104.17      240.22
CMA distance (Bohr)    :  10.661
constraining FC (au)   :  0.0500

           -------------------------------------------------
          |                 G F N 2 - x T B                 |
           -------------------------------------------------

        Reference                      10.1021/acs.jctc.8b01176
      * Hamiltonian:
        H0-scaling (s, p, d)           1.850000    2.230000    2.230000
        zeta-weighting                 0.500000
      * Dispersion:
        s8                             2.700000
        a1                             0.520000
        a2                             5.000000
        s9                             5.000000
      * Repulsion:
        kExp                           1.500000    1.000000
        rExp                           1.000000
      * Coulomb:
        alpha                          2.000000
        third order                    shell-resolved
        anisotropic                    true
        a3                             3.000000
        a5                             4.000000
        cn-shift                       1.200000
        cn-exp                         4.000000
        max-rad                        5.000000


          ...................................................
          :                      SETUP                      :
          :.................................................:
          :  # basis functions                 122          :
          :  # atomic orbitals                 122          :
          :  # shells                           76          :
          :  # electrons                       140          :
          :  max. iterations                   250          :
          :  Hamiltonian                  GFN2-xTB          :
          :  restarted?                      false          :
          :  GBSA solvation                  false          :
          :  PC potential                    false          :
          :  electronic temp.          300.0000000     K    :
          :  accuracy                    1.0000000          :
          :  -> integral cutoff          0.2500000E+02      :
          :  -> integral neglect         0.1000000E-07      :
          :  -> SCF convergence          0.1000000E-05 Eh   :
          :  -> wf. convergence          0.1000000E-03 e    :
          :  Broyden damping             0.4000000          :
          ...................................................

 iter      E             dE          RMSdq      gap      omega  full diag
   1    -81.5600672 -0.815601E+02  0.427E+00    5.00       0.0  T
   2    -81.8357085 -0.275641E+00  0.232E+00    5.97       1.0  T
   3    -81.8415500 -0.584145E-02  0.112E+00    5.59       1.0  T
   4    -81.8430251 -0.147510E-02  0.249E-01    5.60       1.0  T
   5    -81.8440035 -0.978420E-03  0.924E-02    5.53       1.0  T
   6    -81.8440294 -0.259177E-04  0.268E-02    5.55       1.0  T
   7    -81.8440334 -0.399750E-05  0.780E-03    5.55       1.8  T
   8    -81.8440338 -0.338828E-06  0.289E-03    5.55       4.7  T
   9    -81.8440338 -0.449585E-07  0.119E-03    5.55      11.6  T
  10    -81.8440338 -0.872058E-08  0.225E-04    5.55      61.0  T
  11    -81.8440338 -0.446619E-09  0.909E-05    5.55     151.1  T

   *** convergence criteria satisfied after 11 iterations ***

         #    Occupation            Energy/Eh            Energy/eV
      -------------------------------------------------------------
         1        2.0000           -0.8174283             -22.2434
       ...           ...                  ...                  ...
        64        2.0000           -0.4950315             -13.4705
        65        2.0000           -0.4916353             -13.3781
        66        2.0000           -0.4897556             -13.3269
        67        2.0000           -0.4886801             -13.2977
        68        2.0000           -0.4864239             -13.2363
        69        2.0000           -0.4843493             -13.1798
        70        2.0000           -0.4796226             -13.0512 (HOMO)
        71                         -0.2758221              -7.5055 (LUMO)
        72                         -0.2692781              -7.3274
        73                         -0.2601501              -7.0790
        74                         -0.2560302              -6.9669
        75                         -0.1745457              -4.7496
       ...                                ...                  ...
       122                          0.5577663              15.1776
      -------------------------------------------------------------
                  HL-Gap            0.2038004 Eh            5.5457 eV
             Fermi-level           -0.3777224 Eh          -10.2783 eV

 SCC (total)                   0 d,  0 h,  0 min,  0.072 sec
 SCC setup                      ...        0 min,  0.000 sec (  0.389%)
 Dispersion                     ...        0 min,  0.001 sec (  0.805%)
 classical contributions        ...        0 min,  0.000 sec (  0.246%)
 integral evaluation            ...        0 min,  0.008 sec ( 10.656%)
 iterations                     ...        0 min,  0.036 sec ( 50.056%)
 molecular gradient             ...        0 min,  0.027 sec ( 37.510%)
 printout                       ...        0 min,  0.000 sec (  0.322%)

         :::::::::::::::::::::::::::::::::::::::::::::::::::::
         ::                     SUMMARY                     ::
         :::::::::::::::::::::::::::::::::::::::::::::::::::::
         :: total energy             -80.939845761931 Eh    ::
         :: gradient norm              0.000194128248 Eh/a0 ::
         :: HOMO-LUMO gap              5.545692187663 eV    ::
         ::.................................................::
         :: SCC energy               -81.844033822339 Eh    ::
         :: -> isotropic ES            0.299673466816 Eh    ::
         :: -> anisotropic ES         -0.031957201142 Eh    ::
         :: -> anisotropic XC          0.020086547591 Eh    ::
         :: -> dispersion             -0.046506384900 Eh    ::
         :: repulsion energy           0.902947769309 Eh    ::
         :: add. restraining           0.000000000000 Eh    ::
         :: total charge               1.000000000000 e     ::
         :::::::::::::::::::::::::::::::::::::::::::::::::::::

           ------------------------------------------------- 
          |                Numerical Hessian                |
           ------------------------------------------------- 
step length          :   0.00500
SCC accuracy         :   0.30000
Hessian scale factor :   1.00000
frozen atoms in %    :   0.00000    0
RMS gradient         :   0.00019
estimated CPU  time      0.24 min
estimated wall time      0.24 min

writing file <hessian>.

 projected vibrational frequencies (cm⁻¹)
eigval :       -0.00    -0.00    -0.00    -0.00     0.00     0.00
eigval :       17.41    22.61    29.69    32.76    35.52    44.16
eigval :       48.08    51.74    62.60    67.34    72.78    91.05
eigval :       94.93    99.82   103.07   110.02   114.06   128.85
eigval :      137.97   155.62   158.04   170.63   179.17   194.32
eigval :      214.55   220.15   248.50   266.76   271.21   305.37
eigval :      314.56   332.77   348.24   368.42   384.20   419.52
eigval :      424.02   424.74   456.00   458.25   465.70   470.15
eigval :      478.84   484.11   486.08   498.41   503.20   505.03
eigval :      524.64   529.15   544.55   548.82   566.25   582.23
eigval :      585.14   592.75   635.47   660.34   673.35   678.11
eigval :      686.40   704.02   729.27   762.64   790.57   844.94
eigval :      898.09   921.53   963.31   974.67   989.17   995.25
eigval :     1000.31  1006.36  1020.70  1021.16  1027.38  1030.51
eigval :     1031.24  1035.26  1039.01  1085.52  1087.95  1090.91
eigval :     1099.02  1102.65  1105.45  1130.11  1171.34  1226.03
eigval :     1246.80  1267.70  1307.80  1335.62  1346.60  1352.68
eigval :     1370.17  1373.88  1388.23  1398.43  1408.72  1410.08
eigval :     1424.66  1434.41  1440.67  1442.56  1447.06  1453.49
eigval :     1458.43  1461.20  1467.06  1470.63  1471.43  1478.86
eigval :     1492.22  1502.90  1511.07  1519.28  1535.61  1640.52
eigval :     1656.87  1692.49  1699.98  2894.61  2955.75  2962.26
eigval :     2989.44  2998.18  3018.48  3037.17  3038.31  3041.34
eigval :     3044.43  3045.91  3048.88  3051.53  3055.98  3089.40
eigval :     3214.14  3275.35  3359.32  3371.30  3390.37  3488.79
eigval :     3500.81  3505.65  3519.38  3525.08  3536.52  3536.76
eigval :     3538.60  3558.62  3567.83
           -------------------------------------------------
          |                Property Printout                |
           -------------------------------------------------

    * Orbital Energies and Occupations

         #    Occupation            Energy/Eh            Energy/eV
      -------------------------------------------------------------
         1        2.0000           -0.8174283             -22.2434
       ...           ...                  ...                  ...
        58        2.0000           -0.5146584             -14.0046
        59        2.0000           -0.5113800             -13.9154
        60        2.0000           -0.5072674             -13.8034
        61        2.0000           -0.5027855             -13.6815
        62        2.0000           -0.5022436             -13.6667
        63        2.0000           -0.4985833             -13.5671
        64        2.0000           -0.4950324             -13.4705
        65        2.0000           -0.4916362             -13.3781
        66        2.0000           -0.4897562             -13.3269
        67        2.0000           -0.4886808             -13.2977
        68        2.0000           -0.4864247             -13.2363
        69        2.0000           -0.4843502             -13.1798
        70        2.0000           -0.4796234             -13.0512 (HOMO)
        71                         -0.2758218              -7.5055 (LUMO)
        72                         -0.2692781              -7.3274
        73                         -0.2601506              -7.0791
        74                         -0.2560308              -6.9670
        75                         -0.1745456              -4.7496
        76                         -0.1100698              -2.9952
        77                         -0.1041647              -2.8345
        78                         -0.0960408              -2.6134
        79                         -0.0903656              -2.4590
        80                         -0.0835820              -2.2744
        81                         -0.0608496              -1.6558
       ...                                ...                  ...
       122                          0.5577658              15.1776
      -------------------------------------------------------------
                  HL-Gap            0.2038016 Eh            5.5457 eV
             Fermi-level           -0.3777226 Eh          -10.2784 eV

     #   Z          covCN         q      C6AA      α(0)
     1   8 O        1.652    -0.484    22.548     6.410
     2   6 C        3.673     0.075    19.547     6.336
     3   1 H        0.924     0.052     2.294     2.369
     4   1 H        0.923     0.046     2.374     2.409
     5   6 C        3.765    -0.067    21.827     6.659
     6   1 H        0.924     0.132     1.520     1.928
     7   1 H        0.924     0.073     2.051     2.240
     8   7 N        3.623     0.155    18.621     6.409
     9   6 C        3.726    -0.113    22.766     6.813
    10   1 H        0.925     0.124     1.582     1.967
    11   1 H        0.925     0.080     1.978     2.200
    12   1 H        0.925     0.117     1.636     2.000
    13   6 C        3.732    -0.111    22.715     6.803
    14   1 H        0.924     0.138     1.472     1.897
    15   1 H        0.925     0.083     1.945     2.181
    16   1 H        0.925     0.087     1.906     2.159
    17   6 C        3.719    -0.095    22.442     6.767
    18   1 H        0.925     0.087     1.906     2.159
    19   1 H        0.925     0.104     1.750     2.069
    20   1 H        0.925     0.090     1.878     2.143
    21   1 H        0.801     0.338     0.617     1.234
    22   6 C        2.675     0.343    21.181     7.531
    23   8 O        0.861    -0.532    24.514     6.638
    24   7 N        2.644    -0.289    27.445     7.781
    25   1 H        0.860     0.202     1.097     1.641
    26   1 H        0.861     0.183     1.195     1.712
    27   7 N        2.644    -0.309    27.962     7.853
    28   1 H        0.861     0.177     1.231     1.738
    29   1 H        0.860     0.241     0.917     1.500
    30   6 C        2.675     0.338    21.251     7.543
    31   8 O        0.860    -0.559    25.132     6.721
    32   7 N        2.645    -0.303    27.797     7.830
    33   1 H        0.860     0.190     1.159     1.686
    34   1 H        0.860     0.227     0.978     1.549
    35   7 N        2.644    -0.317    28.153     7.880
    36   1 H        0.860     0.190     1.160     1.687
    37   1 H        0.860     0.218     1.019     1.581
    38   6 C        2.675     0.344    21.160     7.527
    39   8 O        0.860    -0.521    24.254     6.603
    40   7 N        2.643    -0.301    27.745     7.823
    41   1 H        0.860     0.241     0.920     1.503
    42   1 H        0.860     0.179     1.220     1.730
    43   7 N        2.643    -0.304    27.820     7.834
    44   1 H        0.860     0.178     1.227     1.735
    45   1 H        0.860     0.225     0.987     1.556
    46   6 C        2.675     0.339    21.242     7.542
    47   8 O        0.861    -0.547    24.845     6.683
    48   7 N        2.644    -0.289    27.453     7.782
    49   1 H        0.860     0.212     1.046     1.602
    50   1 H        0.861     0.188     1.169     1.694
    51   7 N        2.643    -0.299    27.692     7.815
    52   1 H        0.861     0.183     1.197     1.714
    53   1 H        0.859     0.257     0.857     1.450

 Mol. C6AA /au·bohr⁶  :      21809.398846
 Mol. C8AA /au·bohr⁸  :     454720.460679
 Mol. α(0) /au        :        220.618252


Wiberg/Mayer (AO) data.
largest (>0.10) Wiberg bond orders for each atom

 ---------------------------------------------------------------------------
     #   Z sym  total        # sym  WBO       # sym  WBO       # sym  WBO
 ---------------------------------------------------------------------------
     1   8 O    1.943 --     2 C    1.027    21 H    0.791
     2   6 C    3.968 --     1 O    1.027     5 C    0.990     3 H    0.967
                             4 H    0.962
     3   1 H    0.997 --     2 C    0.967
     4   1 H    0.998 --     2 C    0.962
     5   6 C    3.924 --     2 C    0.990     7 H    0.970     6 H    0.945
                             8 N    0.931
     6   1 H    0.983 --     5 C    0.945
     7   1 H    0.995 --     5 C    0.970
     8   7 N    3.821 --    17 C    0.965    13 C    0.956     9 C    0.952
                             5 C    0.931
     9   6 C    3.913 --    11 H    0.979    12 H    0.963    10 H    0.960
                             8 N    0.952
    10   1 H    0.985 --     9 C    0.960
    11   1 H    0.994 --     9 C    0.979
    12   1 H    0.986 --     9 C    0.963
    13   6 C    3.921 --    15 H    0.978    16 H    0.977     8 N    0.956
                            14 H    0.954
    14   1 H    0.981 --    13 C    0.954
    15   1 H    0.993 --    13 C    0.978
    16   1 H    0.992 --    13 C    0.977
    17   6 C    3.938 --    18 H    0.978    20 H    0.976    19 H    0.972
                             8 N    0.965
    18   1 H    0.992 --    17 C    0.978
    19   1 H    0.989 --    17 C    0.972
    20   1 H    0.992 --    17 C    0.976
    21   1 H    0.886 --     1 O    0.791
    22   6 C    3.959 --    23 O    1.485    27 N    1.252    24 N    1.211
    23   8 O    1.901 --    22 C    1.485    27 N    0.143    24 N    0.131
    24   7 N    3.326 --    22 C    1.211    26 H    0.948    25 H    0.942
                            23 O    0.131
    25   1 H    0.959 --    24 N    0.942
    26   1 H    0.966 --    24 N    0.948
    27   7 N    3.340 --    22 C    1.252    28 H    0.949    29 H    0.873
                            23 O    0.143
    28   1 H    0.969 --    27 N    0.949
    29   1 H    0.942 --    27 N    0.873
    30   6 C    3.959 --    31 O    1.491    32 N    1.247    35 N    1.210
    31   8 O    1.855 --    30 C    1.491    32 N    0.142    35 N    0.132
    32   7 N    3.342 --    30 C    1.247    33 H    0.946    34 H    0.897
                            31 O    0.142
    33   1 H    0.964 --    32 N    0.946
    34   1 H    0.948 --    32 N    0.897
    35   7 N    3.302 --    30 C    1.210    36 H    0.941    37 H    0.908
                            31 O    0.132
    36   1 H    0.964 --    35 N    0.941
    37   1 H    0.952 --    35 N    0.908
    38   6 C    3.959 --    39 O    1.470    40 N    1.253    43 N    1.224
    39   8 O    1.947 --    38 C    1.470    40 N    0.133    43 N    0.127
    40   7 N    3.334 --    38 C    1.253    42 H    0.948    41 H    0.880
                            39 O    0.133
    41   1 H    0.942 --    40 N    0.880
    42   1 H    0.967 --    40 N    0.948
    43   7 N    3.315 --    38 C    1.224    44 H    0.949    45 H    0.902
                            39 O    0.127
    44   1 H    0.968 --    43 N    0.949
    45   1 H    0.949 --    43 N    0.902
    46   6 C    3.960 --    47 O    1.428    51 N    1.294    48 N    1.228
    47   8 O    1.905 --    46 C    1.428    51 N    0.135    48 N    0.123
    48   7 N    3.337 --    46 C    1.228    50 H    0.946    49 H    0.934
                            47 O    0.123
    49   1 H    0.955 --    48 N    0.934
    50   1 H    0.964 --    48 N    0.946
    51   7 N    3.367 --    46 C    1.294    52 H    0.947    53 H    0.849
                            47 O    0.135
    52   1 H    0.966 --    51 N    0.947
    53   1 H    0.934 --    51 N    0.849
 ---------------------------------------------------------------------------

Topologies differ in total number of bonds
Writing topology from bond orders to xtbtopo.mol

molecular dipole:
                 x           y           z       tot (Debye)
 q only:       -0.323      -2.359      -1.685
   full:       -0.218      -1.909      -1.263       5.844
molecular quadrupole (traceless):
                xx          xy          yy          xz          yz          zz
 q only:      -19.070      29.019       6.722      28.563      28.745      12.348
  q+dip:      -19.954      34.359       7.613      33.244      27.502      12.340
   full:      -19.466      33.629       6.942      33.127      27.628      12.524

           -------------------------------------------------
          |               Frequency Printout                |
           -------------------------------------------------
 projected vibrational frequencies (cm⁻¹)
eigval :       -0.00    -0.00    -0.00    -0.00     0.00     0.00
eigval :       17.41    22.61    29.69    32.76    35.52    44.16
eigval :       48.08    51.74    62.60    67.34    72.78    91.05
eigval :       94.93    99.82   103.07   110.02   114.06   128.85
eigval :      137.97   155.62   158.04   170.63   179.17   194.32
eigval :      214.55   220.15   248.50   266.76   271.21   305.37
eigval :      314.56   332.77   348.24   368.42   384.20   419.52
eigval :      424.02   424.74   456.00   458.25   465.70   470.15
eigval :      478.84   484.11   486.08   498.41   503.20   505.03
eigval :      524.64   529.15   544.55   548.82   566.25   582.23
eigval :      585.14   592.75   635.47   660.34   673.35   678.11
eigval :      686.40   704.02   729.27   762.64   790.57   844.94
eigval :      898.09   921.53   963.31   974.67   989.17   995.25
eigval :     1000.31  1006.36  1020.70  1021.16  1027.38  1030.51
eigval :     1031.24  1035.26  1039.01  1085.52  1087.95  1090.91
eigval :     1099.02  1102.65  1105.45  1130.11  1171.34  1226.03
eigval :     1246.80  1267.70  1307.80  1335.62  1346.60  1352.68
eigval :     1370.17  1373.88  1388.23  1398.43  1408.72  1410.08
eigval :     1424.66  1434.41  1440.67  1442.56  1447.06  1453.49
eigval :     1458.43  1461.20  1467.06  1470.63  1471.43  1478.86
eigval :     1492.22  1502.90  1511.07  1519.28  1535.61  1640.52
eigval :     1656.87  1692.49  1699.98  2894.61  2955.75  2962.26
eigval :     2989.44  2998.18  3018.48  3037.17  3038.31  3041.34
eigval :     3044.43  3045.91  3048.88  3051.53  3055.98  3089.40
eigval :     3214.14  3275.35  3359.32  3371.30  3390.37  3488.79
eigval :     3500.81  3505.65  3519.38  3525.08  3536.52  3536.76
eigval :     3538.60  3558.62  3567.83
 reduced masses (amu)
   1: 12.05   2: 12.45   3: 12.84   4: 11.69   5: 12.68   6: 12.74   7: 11.78   8: 11.99
   9: 12.64  10: 12.28  11: 12.84  12: 12.78  13: 12.22  14: 12.21  15: 12.99  16: 12.36
  17: 11.76  18: 12.44  19: 11.58  20: 12.73  21: 13.03  22: 12.80  23: 12.92  24: 12.67
  25: 13.01  26: 13.00  27: 12.89  28: 12.43  29: 13.13  30:  9.40  31: 12.74  32:  2.25
  33:  4.82  34: 11.76  35:  2.45  36:  6.11  37:  6.22  38:  5.19  39:  3.79  40:  7.36
  41:  3.43  42:  2.67  43:  5.17  44:  6.38  45:  7.23  46:  4.51  47:  8.27  48:  7.95
  49:  7.25  50:  3.44  51:  8.18  52:  6.21  53:  2.02  54:  4.97  55:  3.28  56:  3.92
  57: 10.67  58: 11.54  59:  8.54  60: 11.68  61: 11.40  62:  2.93  63:  3.49  64:  9.68
  65: 11.48  66: 10.56  67:  9.10  68:  5.86  69:  2.54  70:  9.28  71:  1.97  72:  2.03
  73:  6.76  74:  8.56  75:  5.00  76:  4.67  77:  5.32  78:  7.41  79:  4.39  80:  7.13
  81:  9.26  82:  7.98  83:  9.27  84:  9.72  85:  3.26  86:  8.02  87:  6.87  88:  8.60
  89:  8.68  90:  6.27  91:  4.79  92:  7.59  93:  7.53  94:  9.41  95:  3.34  96:  5.62
  97:  6.06  98:  8.03  99:  6.46 100:  3.21 101:  4.35 102:  4.81 103:  4.56 104:  5.12
 105:  4.62 106:  2.65 107:  2.74 108:  2.65 109:  2.33 110:  1.92 111:  2.39 112:  2.97
 113:  3.31 114:  1.69 115:  1.68 116:  3.36 117:  1.86 118:  1.77 119:  2.60 120:  1.73
 121:  1.76 122:  8.06 123:  9.49 124:  9.01 125: 10.46 126: 12.01 127: 12.47 128: 12.56
 129: 12.63 130:  1.77 131:  1.70 132:  1.78 133:  1.84 134:  1.79 135:  1.73 136:  1.57
 137:  1.97 138:  1.62 139:  1.77 140:  1.77 141:  1.56 142:  1.92 143:  1.66 144:  1.83
 145:  1.78 146:  1.75 147:  1.70 148:  1.70 149:  1.68 150:  1.47 151:  1.45 152:  1.96
 153:  1.93 154:  1.94 155:  1.89 156:  1.94 157:  1.91 158:  2.17 159:  2.19
 IR intensities (km·mol⁻¹)
   1:  0.58   2:  3.05   3:  1.40   4:  0.80   5:  0.71   6:  2.78   7:  2.60   8:  0.27
   9:  0.37  10:  2.99  11:  0.58  12:  0.40  13:  2.20  14:  1.33  15:  0.03  16:  1.05
  17:  8.56  18:  5.01  19:  6.35  20:  2.31  21:  1.55  22:  4.71  23: 43.37  24: 19.22
  25:  4.82  26:  2.18  27:  4.84  28: 22.45  29:  4.42  30:  7.39  31: 68.96  32:108.01
  33:  1.42  34: 20.67  35:138.26  36:  2.65  37:  1.13  38:  7.48  39:  0.85  40:  0.12
  41:135.30  42: 69.97  43: 77.90  44: 53.79  45: 44.75  46:191.82  47: 32.57  48:  9.94
  49: 27.23  50: 42.44  51: 58.27  52: 10.95  53:  4.69  54:154.03  55: 36.28  56: 91.71
  57: 12.96  58: 20.83  59:  8.33  60: 43.65  61: 77.46  62:384.32  63:125.64  64: 36.75
  65: 17.62  66:110.74  67:  4.96  68:203.63  69:128.87  70:  1.33  71:256.59  72:389.50
  73:  2.63  74:  3.93  75:  6.93  76: 10.15  77:  2.74  78: 15.96  79:  3.26  80: 20.38
  81:  3.66  82: 16.72  83:  4.67  84:  5.74  85:  1.67  86:  4.61  87: 15.47  88:  6.19
  89:  0.99  90: 21.59  91:  3.88  92:  4.81  93:  4.77  94: 46.62  95: 16.34  96:  2.35
  97:  1.22  98:  3.36  99:  4.61 100:  6.24 101: 15.77 102:227.61 103: 40.42 104: 48.72
 105: 22.67 106:  3.36 107: 68.99 108: 70.09 109: 29.99 110:  7.18 111:  3.19 112:  3.10
 113: 10.22 114:  3.50 115:  7.50 116:  4.70 117:  7.26 118:  6.17 119: 34.74 120: 47.57
 121: 13.92 122:104.74 123:491.30 124:950.18 125:347.47 126:290.28 127:286.81 128:******
 129:996.57 130: 27.41 131:121.83 132:482.13 133:892.53 134: 68.99 135: 70.08 136: 80.64
 137: 25.95 138:  9.39 139: 30.40 140: 12.99 141:  8.44 142:  8.01 143:  3.02 144:******
 145:239.60 146:868.62 147:646.30 148:185.38 149:462.45 150: 39.70 151: 24.22 152: 28.19
 153:  4.77 154: 27.01 155: 15.31 156: 25.59 157: 18.18 158: 26.97 159: 15.89
 Raman intensities (amu)
Molecule has no symmetry elements
It seems to be the C1 point group
   1:  0.00   2:  0.00   3:  0.00   4:  0.00   5:  0.00   6:  0.00   7:  0.00   8:  0.00
   9:  0.00  10:  0.00  11:  0.00  12:  0.00  13:  0.00  14:  0.00  15:  0.00  16:  0.00
  17:  0.00  18:  0.00  19:  0.00  20:  0.00  21:  0.00  22:  0.00  23:  0.00  24:  0.00
  25:  0.00  26:  0.00  27:  0.00  28:  0.00  29:  0.00  30:  0.00  31:  0.00  32:  0.00
  33:  0.00  34:  0.00  35:  0.00  36:  0.00  37:  0.00  38:  0.00  39:  0.00  40:  0.00
  41:  0.00  42:  0.00  43:  0.00  44:  0.00  45:  0.00  46:  0.00  47:  0.00  48:  0.00
  49:  0.00  50:  0.00  51:  0.00  52:  0.00  53:  0.00  54:  0.00  55:  0.00  56:  0.00
  57:  0.00  58:  0.00  59:  0.00  60:  0.00  61:  0.00  62:  0.00  63:  0.00  64:  0.00
  65:  0.00  66:  0.00  67:  0.00  68:  0.00  69:  0.00  70:  0.00  71:  0.00  72:  0.00
  73:  0.00  74:  0.00  75:  0.00  76:  0.00  77:  0.00  78:  0.00  79:  0.00  80:  0.00
  81:  0.00  82:  0.00  83:  0.00  84:  0.00  85:  0.00  86:  0.00  87:  0.00  88:  0.00
  89:  0.00  90:  0.00  91:  0.00  92:  0.00  93:  0.00  94:  0.00  95:  0.00  96:  0.00
  97:  0.00  98:  0.00  99:  0.00 100:  0.00 101:  0.00 102:  0.00 103:  0.00 104:  0.00
 105:  0.00 106:  0.00 107:  0.00 108:  0.00 109:  0.00 110:  0.00 111:  0.00 112:  0.00
 113:  0.00 114:  0.00 115:  0.00 116:  0.00 117:  0.00 118:  0.00 119:  0.00 120:  0.00
 121:  0.00 122:  0.00 123:  0.00 124:  0.00 125:  0.00 126:  0.00 127:  0.00 128:  0.00
 129:  0.00 130:  0.00 131:  0.00 132:  0.00 133:  0.00 134:  0.00 135:  0.00 136:  0.00
 137:  0.00 138:  0.00 139:  0.00 140:  0.00 141:  0.00 142:  0.00 143:  0.00 144:  0.00
 145:  0.00 146:  0.00 147:  0.00 148:  0.00 149:  0.00 150:  0.00 151:  0.00 152:  0.00
 153:  0.00 154:  0.00 155:  0.00 156:  0.00 157:  0.00 158:  0.00 159:  0.00
 output can be read by thermo (or use thermo option).
 writing <g98.out> molden fake output.
 recommended (thermochemical) frequency scaling factor: 1.0
           -------------------------------------------------
          |             Thermodynamic Functions             |
           -------------------------------------------------

c1  symmetry found (for desy threshold:  0.10E+00) used in thermo

          ...................................................
          :                      SETUP                      :
          :.................................................:
          :  # frequencies                         153      :
          :  # imaginary freq.                       0      :
          :  linear?                             false      :
          :  only rotor calc.                    false      :
          :  symmetry                               c1      :
          :  rotational number                       1      :
          :  scaling factor                  1.0000000      :
          :  rotor cutoff                   50.0000000 cm⁻¹ :
          :  imag. cutoff                  -20.0000000 cm⁻¹ :
          :.................................................:

    mode    ω/cm⁻¹     T·S(HO)/kcal·mol⁻¹    T·S(FR)/kcal·mol⁻¹   T·S(vib)
   ------------------------------------------------------------------------
       1     17.41    -2.06022 (  1.45%)    -1.36906 ( 98.55%)    -1.37906
       2     22.61    -1.90527 (  4.02%)    -1.29154 ( 95.98%)    -1.31619
       3     29.69    -1.74421 ( 11.06%)    -1.21092 ( 88.94%)    -1.26988
       4     32.76    -1.68605 ( 15.56%)    -1.18179 ( 84.44%)    -1.26023
       5     35.52    -1.63825 ( 20.29%)    -1.15784 ( 79.71%)    -1.25532
       6     44.16    -1.50958 ( 37.83%)    -1.09331 ( 62.17%)    -1.25078
       7     48.08    -1.45934 ( 46.10%)    -1.06809 ( 53.90%)    -1.24846
       8     51.74    -1.41618 ( 53.41%)    -1.04641 ( 46.59%)    -1.24390
       9     62.60    -1.30393 ( 71.08%)    -0.98993 ( 28.92%)    -1.21311
      10     67.34    -1.26104 ( 76.69%)    -0.96831 ( 23.31%)    -1.19281
      11     72.78    -1.21548 ( 81.78%)    -0.94532 ( 18.22%)    -1.16626
      12     91.05    -1.08446 ( 91.66%)    -0.87896 (  8.34%)    -1.06733
      13     94.93    -1.06017 ( 92.85%)    -0.86661 (  7.15%)    -1.04633
      14     99.82    -1.03094 ( 94.08%)    -0.85172 (  5.92%)    -1.02032
      15    103.07    -1.01232 ( 94.75%)    -0.84223 (  5.25%)    -1.00340
      16    110.02    -0.97454 ( 95.91%)    -0.82292 (  4.09%)    -0.96833
      17    114.06    -0.95368 ( 96.44%)    -0.81223 (  3.56%)    -0.94864
      18    128.85    -0.88344 ( 97.78%)    -0.77610 (  2.22%)    -0.88106
      19    137.97    -0.84430 ( 98.30%)    -0.75585 (  1.70%)    -0.84280
      20    155.62    -0.77591 ( 98.95%)    -0.72020 (  1.05%)    -0.77532
      21    158.04    -0.76717 ( 99.01%)    -0.71562 (  0.99%)    -0.76666
      22    170.63    -0.72406 ( 99.27%)    -0.69291 (  0.73%)    -0.72383
      23    179.17    -0.69679 ( 99.40%)    -0.67844 (  0.60%)    -0.69668
      24    194.32    -0.65182 ( 99.56%)    -0.65440 (  0.44%)    -0.65184
      25    214.55    -0.59767 ( 99.71%)    -0.62506 (  0.29%)    -0.59775
      26    220.15    -0.58372 ( 99.73%)    -0.61742 (  0.27%)    -0.58381
      27    248.50    -0.51913 ( 99.84%)    -0.58154 (  0.16%)    -0.51923
      28    266.76    -0.48214 ( 99.88%)    -0.56054 (  0.12%)    -0.48224
      29    271.21    -0.47360 ( 99.88%)    -0.55563 (  0.12%)    -0.47369
   ------------------------------------------------------------------------

   temp. (K)  partition function   enthalpy   heat capacity  entropy
                                   cal/mol     cal/K/mol   cal/K/mol   J/K/mol
 298.15  VIB  0.146E+16            18575.747    103.336    120.055
         ROT  0.125E+08              888.752      2.981     35.457
         INT  0.183E+23            19464.499    106.317    155.512
         TR   0.618E+28             1481.254      4.968     43.384
         TOT                       20945.7529   111.2847   198.8961   832.1814

       T/K    H(0)-H(T)+PV         H(T)/Eh          T*S/Eh         G(T)/Eh
   ------------------------------------------------------------------------
    298.15    0.333792E-01    0.473820E+00    0.945020E-01    0.379318E+00
   ------------------------------------------------------------------------

         :::::::::::::::::::::::::::::::::::::::::::::::::::::
         ::                  THERMODYNAMIC                  ::
         :::::::::::::::::::::::::::::::::::::::::::::::::::::
         :: total free energy         -80.560528207968 Eh   ::
         ::.................................................::
         :: total energy              -80.939845761967 Eh   ::
         :: zero point energy           0.440440345623 Eh   ::
         :: G(RRHO) w/o ZPVE           -0.061122791625 Eh   ::
         :: G(RRHO) contrib.            0.379317553999 Eh   ::
         :::::::::::::::::::::::::::::::::::::::::::::::::::::

           -------------------------------------------------
          | TOTAL ENERGY              -80.939845761967 Eh   |
          | TOTAL ENTHALPY            -80.466026234483 Eh   |
          | TOTAL FREE ENERGY         -80.560528207968 Eh   |
          | GRADIENT NORM               0.000194102777 Eh/α |
          | HOMO-LUMO GAP               5.545723019724 eV   |
           -------------------------------------------------

------------------------------------------------------------------------
 * finished run on 2024/01/10 at 15:33:13.779     
------------------------------------------------------------------------
 total:
 * wall-time:     0 d,  0 h,  0 min, 14.167 sec
 *  cpu-time:     0 d,  0 h,  0 min, 14.114 sec
 * ratio c/w:     0.996 speedup
 SCF:
 * wall-time:     0 d,  0 h,  0 min,  0.073 sec
 *  cpu-time:     0 d,  0 h,  0 min,  0.060 sec
 * ratio c/w:     0.823 speedup
 analytical hessian:
 * wall-time:     0 d,  0 h,  0 min, 14.067 sec
 *  cpu-time:     0 d,  0 h,  0 min, 14.027 sec
 * ratio c/w:     0.997 speedup

