 Entering Gaussian System
 *********************************************
 Gaussian 98:
 frequency output generated by the xtb code
 *********************************************
                         Standard orientation:
 --------------------------------------------------------------------
  Center     Atomic     Atomic              Coordinates (Angstroms)
  Number     Number      Type              X           Y           Z
 --------------------------------------------------------------------
    1          8             0        0.651938   -1.276868   -0.756413
    2          6             0       -0.294683   -1.962283    0.007962
    3          1             0       -0.377273   -2.964379   -0.421563
    4          1             0        0.050838   -2.076615    1.045411
    5          6             0       -1.671812   -1.288047    0.092458
    6          1             0       -1.584658   -0.327693    0.606525
    7          1             0       -2.326030   -1.953999    0.657636
    8          7             0       -2.348332   -1.008754   -1.205000
    9          6             0       -3.729565   -0.599639   -0.896685
   10          1             0       -3.699719    0.269622   -0.241713
   11          1             0       -4.242138   -1.424979   -0.406146
   12          1             0       -4.253339   -0.341686   -1.814658
   13          6             0       -2.383379   -2.209804   -2.050429
   14          1             0       -2.979945   -2.015044   -2.939688
   15          1             0       -2.837533   -3.021225   -1.482308
   16          1             0       -1.376538   -2.481784   -2.356959
   17          6             0       -1.673406    0.094510   -1.907654
   18          1             0       -0.643174   -0.181196   -2.120828
   19          1             0       -1.688129    0.975100   -1.265573
   20          1             0       -2.194046    0.313528   -2.837641
   21          1             0        0.819060   -0.396834   -0.328377
   22          6             0        6.782321    2.395678   -0.895401
   23          8             0        5.587689    2.212655   -0.704970
   24          7             0        7.288752    3.621306   -1.173744
   25          1             0        6.644509    4.371250   -1.352033
   26          1             0        8.243905    3.747033   -1.455452
   27          7             0        7.684979    1.386077   -0.840589
   28          1             0        8.673133    1.558743   -0.874313
   29          1             0        7.376708    0.488350   -0.511639
   30          6             0        2.402678    1.396393    0.071422
   31          8             0        1.218891    1.105546    0.306370
   32          7             0        2.919031    2.603596    0.364170
   33          1             0        2.323407    3.336261    0.702762
   34          1             0        3.871619    2.802145    0.096676
   35          7             0        3.264766    0.517640   -0.462659
   36          1             0        4.200832    0.827530   -0.682056
   37          1             0        2.938908   -0.389140   -0.748729
   38          6             0       -4.563965   -4.346176    0.988509
   39          8             0       -3.949343   -3.501458    0.353138
   40          7             0       -4.724955   -5.614368    0.540052
   41          1             0       -4.247077   -5.892694   -0.297953
   42          1             0       -5.144177   -6.330150    1.104530
   43          7             0       -5.129859   -4.075418    2.190121
   44          1             0       -5.721702   -4.735318    2.660265
   45          1             0       -5.123213   -3.127323    2.520838
   46          6             0       -1.961570    2.559849    1.433597
   47          8             0       -2.409190    1.716923    0.665063
   48          7             0       -0.641489    2.811004    1.545613
   49          1             0        0.015038    2.174422    1.088851
   50          1             0       -0.301568    3.377768    2.301923
   51          7             0       -2.782012    3.296950    2.234293
   52          1             0       -2.440865    4.106365    2.721050
   53          1             0       -3.769405    3.252816    2.052638
 --------------------------------------------------------------------
     1 basis functions        1 primitive gaussians
     1 alpha electrons        1 beta electrons

 Harmonic frequencies (cm**-1), IR intensities (km*mol⁻¹),
 Raman scattering activities (A**4/amu), Raman depolarization ratios,
 reduced masses (AMU), force constants (mDyne/A) and normal coordinates:
                      1                      2                      3
                        a                      a                      a 
 Frequencies --    -4.1654                 6.0853                 8.4444
 Red. masses --    11.1712                11.9232                11.4642
 Frc consts  --     0.0000                 0.0000                 0.0000
 IR Inten    --     0.0409                 1.0952                 1.0288
 Raman Activ --     0.0000                 0.0000                 0.0000
 Depolar     --     0.0000                 0.0000                 0.0000
 Atom AN      X      Y      Z        X      Y      Z        X      Y      Z
   1   8     0.01  -0.02   0.02     0.08  -0.13   0.24    -0.04   0.12  -0.13
   2   6     0.00  -0.01   0.02     0.00  -0.08   0.16     0.00   0.07  -0.09
   3   1    -0.00  -0.00   0.01    -0.00  -0.02   0.05     0.00   0.02  -0.03
   4   1     0.00  -0.00   0.01    -0.02  -0.02   0.05     0.01   0.02  -0.03
   5   6     0.01  -0.00   0.02     0.02  -0.03   0.07    -0.01   0.04  -0.03
   6   1     0.01  -0.00   0.01     0.00  -0.01   0.02    -0.00   0.01  -0.00
   7   1     0.00   0.00   0.01    -0.01  -0.00   0.01     0.01   0.00  -0.00
   8   7     0.01   0.01   0.02     0.11  -0.02   0.03    -0.07   0.05   0.00
   9   6     0.01   0.01   0.02     0.10   0.02  -0.06    -0.06   0.01   0.06
  10   1     0.00   0.00   0.01     0.02   0.01  -0.02    -0.02  -0.00   0.02
  11   1     0.00   0.00   0.00     0.01   0.01  -0.03    -0.01  -0.00   0.02
  12   1     0.00   0.00   0.01     0.05   0.01  -0.03    -0.03   0.00   0.02
  13   6     0.01   0.01   0.02     0.13  -0.03   0.03    -0.06   0.07  -0.02
  14   1     0.00   0.00   0.00     0.05  -0.00  -0.00    -0.03   0.02   0.00
  15   1     0.00   0.00   0.00     0.02  -0.00   0.00    -0.01   0.01  -0.01
  16   1     0.00   0.00   0.01     0.04  -0.02   0.03    -0.02   0.03  -0.02
  17   6     0.02   0.00   0.02     0.18  -0.04   0.06    -0.11   0.08   0.00
  18   1     0.00   0.00   0.01     0.05  -0.02   0.04    -0.03   0.03  -0.01
  19   1     0.01   0.00   0.01     0.05  -0.01   0.02    -0.03   0.02   0.01
  20   1     0.01   0.00   0.01     0.07  -0.01   0.01    -0.04   0.03   0.01
  21   1     0.00  -0.01   0.00     0.02  -0.03   0.06    -0.01   0.03  -0.03
  22   6    -0.01   0.02  -0.04    -0.06   0.09  -0.13     0.03  -0.11   0.04
  23   8    -0.00   0.01  -0.04    -0.06   0.07  -0.10     0.01  -0.00  -0.00
  24   7    -0.02   0.03  -0.03    -0.15   0.04  -0.51     0.10  -0.25  -0.40
  25   1    -0.01   0.01  -0.00    -0.05  -0.01  -0.20     0.04  -0.08  -0.20
  26   1    -0.01   0.01  -0.01    -0.04   0.01  -0.15     0.04  -0.11  -0.09
  27   7     0.00   0.03  -0.07     0.00   0.17   0.17    -0.01  -0.14   0.54
  28   1     0.00   0.01  -0.02    -0.00   0.06   0.04    -0.00  -0.05   0.16
  29   1     0.00   0.01  -0.02     0.02   0.07   0.12    -0.02   0.00   0.24
  30   6     0.01  -0.01  -0.00     0.02  -0.04   0.08    -0.03   0.07  -0.04
  31   8     0.02  -0.02   0.01     0.04  -0.09   0.16    -0.04   0.11  -0.09
  32   7     0.01  -0.01  -0.01    -0.03   0.00   0.00    -0.01   0.06  -0.02
  33   1     0.00  -0.00   0.00    -0.02  -0.00  -0.01    -0.00   0.02  -0.02
  34   1     0.00  -0.00  -0.00    -0.01   0.01  -0.01    -0.00   0.01  -0.00
  35   7     0.01  -0.01  -0.02     0.04  -0.03   0.12    -0.03   0.05  -0.01
  36   1     0.00  -0.00  -0.01     0.01   0.00   0.02    -0.01   0.01  -0.00
  37   1     0.00  -0.00  -0.00     0.02  -0.02   0.05    -0.01   0.02  -0.01
  38   6    -0.05   0.01  -0.03    -0.13   0.05  -0.11     0.11  -0.07  -0.00
  39   8    -0.01   0.01   0.01    -0.08   0.03  -0.08     0.08  -0.04   0.00
  40   7     0.44  -0.14   0.22    -0.25   0.09  -0.18     0.23  -0.09   0.01
  41   1     0.22  -0.06   0.13    -0.07   0.02  -0.05     0.07  -0.02   0.01
  42   1     0.10  -0.03   0.06    -0.08   0.02  -0.06     0.07  -0.03   0.00
  43   7    -0.60   0.17  -0.32    -0.11   0.04  -0.10     0.07  -0.10  -0.02
  44   1    -0.16   0.04  -0.10    -0.04   0.02  -0.04     0.03  -0.04  -0.01
  45   1    -0.25   0.07  -0.14    -0.01   0.00  -0.01    -0.00  -0.03  -0.01
  46   6     0.03  -0.02   0.04     0.04  -0.03   0.04    -0.04   0.02   0.04
  47   8     0.02   0.00   0.03     0.06  -0.01   0.01    -0.06   0.01   0.07
  48   7     0.03  -0.03   0.05     0.04  -0.05   0.10    -0.04   0.06  -0.02
  49   1     0.01  -0.01   0.01     0.01  -0.02   0.03    -0.01   0.02  -0.01
  50   1     0.01  -0.01   0.02     0.01  -0.02   0.03    -0.01   0.02  -0.01
  51   7     0.04  -0.03   0.06     0.02  -0.02   0.02    -0.02  -0.00   0.08
  52   1     0.01  -0.01   0.02     0.00  -0.01   0.01    -0.01   0.00   0.02
  53   1     0.01  -0.00   0.02     0.01  -0.00  -0.01    -0.01  -0.01   0.03
                      4                      5                      6
                        a                      a                      a 
 Frequencies --    12.9779                17.9938                18.7250
 Red. masses --    12.0490                11.8240                12.3084
 Frc consts  --     0.0000                 0.0000                 0.0000
 IR Inten    --     2.7180                 0.8516                 1.6797
 Raman Activ --     0.0000                 0.0000                 0.0000
 Depolar     --     0.0000                 0.0000                 0.0000
 Atom AN      X      Y      Z        X      Y      Z        X      Y      Z
   1   8     0.05   0.07   0.24     0.09   0.04  -0.06    -0.05   0.07  -0.05
   2   6     0.02   0.06   0.17     0.07  -0.02  -0.11    -0.06   0.03  -0.09
   3   1     0.02   0.01   0.05     0.03  -0.00  -0.04    -0.01   0.01  -0.04
   4   1    -0.01   0.03   0.06     0.01  -0.02  -0.03    -0.02  -0.00  -0.02
   5   6     0.01   0.04   0.09     0.06  -0.05  -0.11    -0.06   0.03  -0.08
   6   1    -0.01   0.01   0.03     0.01  -0.02  -0.03    -0.01   0.01  -0.02
   7   1    -0.00   0.01   0.02     0.02  -0.02  -0.04    -0.02   0.01  -0.03
   8   7     0.08   0.02   0.06     0.07  -0.04  -0.13    -0.05   0.05  -0.09
   9   6     0.05  -0.01  -0.02     0.06  -0.04  -0.13    -0.05   0.06  -0.08
  10   1    -0.00  -0.00  -0.01     0.01  -0.01  -0.03    -0.01   0.02  -0.02
  11   1     0.01  -0.01  -0.01     0.02  -0.01  -0.04    -0.02   0.02  -0.02
  12   1     0.03  -0.01  -0.01     0.02  -0.01  -0.04    -0.01   0.02  -0.02
  13   6     0.14   0.01   0.06     0.08  -0.02  -0.13    -0.07   0.05  -0.09
  14   1     0.05  -0.00   0.01     0.03  -0.00  -0.04    -0.02   0.02  -0.02
  15   1     0.04   0.00   0.01     0.02  -0.01  -0.04    -0.02   0.02  -0.03
  16   1     0.05   0.01   0.03     0.02  -0.00  -0.04    -0.02   0.01  -0.03
  17   6     0.08   0.03   0.08     0.07  -0.02  -0.09    -0.03   0.04  -0.07
  18   1     0.03   0.01   0.04     0.02  -0.00  -0.02    -0.01   0.01  -0.02
  19   1     0.01   0.01   0.02     0.02  -0.01  -0.02    -0.01   0.01  -0.02
  20   1     0.04   0.00   0.02     0.03  -0.00  -0.03    -0.01   0.01  -0.02
  21   1     0.00   0.02   0.05     0.01   0.00  -0.00    -0.01   0.01   0.01
  22   6    -0.03  -0.15  -0.12    -0.05  -0.01  -0.02    -0.02  -0.03  -0.06
  23   8    -0.05   0.03  -0.06    -0.09   0.19  -0.04     0.04  -0.14   0.23
  24   7     0.17  -0.22  -0.03     0.15  -0.10  -0.03    -0.20  -0.01  -0.26
  25   1     0.08  -0.02   0.03     0.07   0.00  -0.01    -0.08  -0.02  -0.04
  26   1     0.04  -0.10  -0.02     0.05  -0.07  -0.00    -0.07   0.02  -0.13
  27   7    -0.21  -0.33  -0.33    -0.21  -0.16  -0.01     0.08   0.05  -0.21
  28   1    -0.05  -0.13  -0.10    -0.05  -0.08   0.00     0.02   0.04  -0.12
  29   1    -0.09  -0.08  -0.11    -0.10  -0.03   0.00     0.06   0.01  -0.02
  30   6    -0.03   0.11   0.08    -0.03   0.06   0.05     0.04  -0.10   0.24
  31   8    -0.03   0.13   0.13    -0.01  -0.00   0.08     0.02  -0.07   0.23
  32   7    -0.04   0.14   0.03    -0.08   0.07   0.12     0.09  -0.16   0.37
  33   1    -0.01   0.04   0.00    -0.03   0.01   0.04     0.03  -0.04   0.12
  34   1    -0.01   0.04   0.00    -0.03   0.04   0.02     0.03  -0.05   0.11
  35   7    -0.04   0.11   0.12     0.00   0.14  -0.01     0.00  -0.11   0.20
  36   1    -0.01   0.03   0.02    -0.01   0.06  -0.01     0.00  -0.04   0.06
  37   1    -0.01   0.02   0.04     0.01   0.04  -0.02    -0.01  -0.02   0.03
  38   6     0.06  -0.08  -0.11     0.02   0.15   0.07     0.11   0.01   0.02
  39   8     0.06  -0.04  -0.05     0.05   0.02  -0.09    -0.00   0.05  -0.07
  40   7     0.10  -0.07  -0.20    -0.08   0.10   0.28     0.23  -0.03   0.11
  41   1     0.04  -0.00  -0.05    -0.04  -0.01   0.08     0.05  -0.01   0.02
  42   1     0.03  -0.03  -0.07    -0.03   0.06   0.11     0.09  -0.01   0.04
  43   7     0.02  -0.18  -0.12     0.09   0.39   0.06     0.18   0.02   0.05
  44   1     0.01  -0.06  -0.05     0.02   0.13   0.05     0.07  -0.00   0.03
  45   1    -0.00  -0.05  -0.02     0.04   0.12  -0.02     0.02   0.01  -0.00
  46   6    -0.09   0.08  -0.01    -0.06  -0.16   0.07    -0.04   0.04  -0.06
  47   8    -0.07   0.04   0.03    -0.01  -0.11  -0.04    -0.02   0.06  -0.11
  48   7    -0.11   0.13   0.00    -0.08  -0.16   0.18    -0.05  -0.02   0.06
  49   1    -0.02   0.04   0.01    -0.01  -0.03   0.04    -0.01  -0.01   0.03
  50   1    -0.04   0.05  -0.00    -0.03  -0.06   0.07    -0.03  -0.01   0.02
  51   7    -0.14   0.09  -0.05    -0.13  -0.26   0.10    -0.09   0.09  -0.16
  52   1    -0.05   0.03  -0.02    -0.04  -0.08   0.05    -0.03   0.02  -0.03
  53   1    -0.04   0.01  -0.02    -0.03  -0.07   0.01    -0.02   0.04  -0.07
                      7                      8                      9
                        a                      a                      a 
 Frequencies --    24.6453                28.1480                37.2365
 Red. masses --    12.2247                12.6230                12.2850
 Frc consts  --     0.0000                 0.0000                 0.0000
 IR Inten    --     3.6464                 1.5726                 1.2646
 Raman Activ --     0.0000                 0.0000                 0.0000
 Depolar     --     0.0000                 0.0000                 0.0000
 Atom AN      X      Y      Z        X      Y      Z        X      Y      Z
   1   8    -0.06  -0.24   0.16    -0.00  -0.00  -0.09    -0.05   0.11   0.23
   2   6    -0.16  -0.09   0.11     0.01  -0.04  -0.09    -0.08   0.10   0.17
   3   1    -0.07  -0.03   0.04    -0.00  -0.00  -0.04    -0.01   0.02   0.06
   4   1    -0.07  -0.03   0.04     0.01  -0.03  -0.03    -0.04   0.05   0.06
   5   6    -0.10   0.04   0.01     0.02  -0.02  -0.02    -0.10   0.07   0.04
   6   1    -0.01   0.01   0.00     0.02  -0.00  -0.01    -0.05   0.03   0.00
   7   1    -0.06   0.03  -0.01     0.01  -0.00   0.01    -0.04   0.02   0.01
   8   7     0.02   0.10  -0.05    -0.05  -0.03   0.02    -0.01  -0.00  -0.02
   9   6     0.02   0.17  -0.15    -0.01   0.04   0.09    -0.04   0.00  -0.13
  10   1     0.00   0.05  -0.04     0.02   0.02   0.02    -0.03   0.01  -0.05
  11   1    -0.02   0.06  -0.06    -0.00   0.02   0.04    -0.02   0.01  -0.04
  12   1     0.03   0.06  -0.05    -0.02   0.01   0.03     0.01  -0.01  -0.05
  13   6     0.02   0.11  -0.06    -0.15  -0.04   0.04     0.06  -0.04   0.04
  14   1     0.03   0.04  -0.03    -0.06  -0.01   0.02     0.03  -0.03  -0.00
  15   1    -0.02   0.04  -0.03    -0.04  -0.00   0.03     0.01  -0.00   0.01
  16   1     0.01   0.02   0.01    -0.05  -0.03  -0.01     0.02  -0.01   0.04
  17   6     0.14   0.06   0.02    -0.04  -0.07  -0.05     0.02  -0.03  -0.03
  18   1     0.04   0.00   0.03    -0.02  -0.03  -0.02     0.01  -0.01   0.01
  19   1     0.04   0.02   0.01     0.00  -0.01  -0.02    -0.01   0.00  -0.02
  20   1     0.06   0.03  -0.00    -0.02  -0.03  -0.01     0.02  -0.02  -0.02
  21   1    -0.01  -0.06   0.03     0.01  -0.02   0.00    -0.01   0.03   0.06
  22   6    -0.12  -0.01   0.02    -0.05   0.09  -0.03     0.12  -0.04  -0.02
  23   8    -0.17  -0.02  -0.18    -0.12   0.28  -0.24     0.14  -0.18  -0.16
  24   7    -0.08  -0.00   0.16     0.17   0.02   0.06     0.03   0.02   0.04
  25   1    -0.01   0.00   0.02     0.08   0.03  -0.02    -0.01  -0.02  -0.02
  26   1    -0.01   0.00   0.08     0.06  -0.03   0.05     0.01   0.03   0.03
  27   7    -0.14  -0.02   0.13    -0.21  -0.04   0.13     0.23   0.06   0.07
  28   1    -0.04  -0.01   0.07    -0.05  -0.05   0.08     0.06   0.04   0.05
  29   1    -0.05  -0.01   0.01    -0.11   0.00   0.02     0.08   0.01   0.01
  30   6    -0.08  -0.10  -0.06     0.05  -0.04   0.10     0.04   0.04  -0.07
  31   8    -0.07  -0.17  -0.00     0.11  -0.18   0.26     0.07   0.12   0.14
  32   7    -0.16  -0.05  -0.21     0.02  -0.07   0.26     0.22  -0.05   0.02
  33   1    -0.05  -0.01  -0.08     0.00  -0.04   0.13     0.11  -0.02   0.11
  34   1    -0.05  -0.00  -0.07    -0.01   0.02   0.03     0.06  -0.03  -0.01
  35   7    -0.05  -0.12  -0.00     0.02   0.11  -0.20    -0.17   0.09  -0.48
  36   1    -0.02  -0.02  -0.02    -0.01   0.06  -0.08    -0.04  -0.00  -0.13
  37   1    -0.00  -0.04   0.03     0.01   0.04  -0.08    -0.07   0.03  -0.13
  38   6     0.15   0.05  -0.01    -0.04  -0.05   0.03    -0.01   0.01   0.00
  39   8    -0.08   0.15  -0.14    -0.05   0.02   0.14    -0.08   0.05  -0.01
  40   7     0.34   0.01   0.07     0.01  -0.02  -0.08     0.06   0.00  -0.00
  41   1     0.07   0.02  -0.00     0.02   0.02  -0.02     0.01   0.01  -0.01
  42   1     0.14  -0.01   0.04     0.01  -0.02  -0.04     0.03  -0.01   0.00
  43   7     0.28   0.00   0.06    -0.09  -0.18   0.04     0.03  -0.04   0.03
  44   1     0.11  -0.02   0.04    -0.02  -0.06  -0.01     0.02  -0.02   0.01
  45   1     0.03   0.01  -0.00    -0.03  -0.06   0.03    -0.01  -0.01   0.01
  46   6     0.06   0.03   0.02     0.10   0.06  -0.09    -0.11  -0.06   0.02
  47   8     0.02   0.12  -0.03     0.15   0.09  -0.15    -0.06   0.02  -0.11
  48   7     0.08  -0.06   0.06     0.12  -0.09   0.12    -0.13  -0.10   0.20
  49   1     0.01  -0.03   0.01     0.03  -0.04   0.06    -0.02  -0.00   0.04
  50   1     0.03  -0.04   0.03     0.02  -0.03   0.04    -0.05  -0.03   0.07
  51   7     0.10   0.06   0.04     0.06   0.17  -0.25    -0.19  -0.14   0.02
  52   1     0.04   0.00   0.02     0.02   0.04  -0.06    -0.06  -0.05   0.03
  53   1     0.03   0.04   0.00     0.02   0.07  -0.11    -0.05  -0.03  -0.03
                     10                     11                     12
                        a                      a                      a 
 Frequencies --    38.4664                45.8467                52.8216
 Red. masses --    12.4100                13.3162                13.3408
 Frc consts  --     0.0000                 0.0000                 0.0000
 IR Inten    --     5.1619                 1.4746                 0.4799
 Raman Activ --     0.0000                 0.0000                 0.0000
 Depolar     --     0.0000                 0.0000                 0.0000
 Atom AN      X      Y      Z        X      Y      Z        X      Y      Z
   1   8     0.01   0.04   0.04    -0.03   0.20  -0.00     0.13   0.05  -0.14
   2   6     0.03  -0.07  -0.04    -0.01   0.09  -0.06     0.17   0.03  -0.07
   3   1     0.02  -0.01  -0.04     0.01   0.03  -0.03     0.04   0.01  -0.02
   4   1     0.01  -0.05  -0.01    -0.01   0.02  -0.02     0.07   0.01  -0.03
   5   6     0.01  -0.12   0.02    -0.05   0.02  -0.05     0.18   0.04   0.00
   6   1    -0.01  -0.05   0.04    -0.03   0.01  -0.01     0.06   0.01  -0.01
   7   1     0.01  -0.06  -0.02    -0.00  -0.00  -0.01     0.06   0.02   0.01
   8   7     0.02   0.00   0.04    -0.07  -0.00  -0.05     0.12   0.02   0.03
   9   6     0.00  -0.07   0.07    -0.07  -0.01  -0.02     0.12  -0.02   0.10
  10   1    -0.01  -0.04   0.05    -0.02  -0.00  -0.01     0.04   0.00   0.02
  11   1     0.01  -0.04  -0.01    -0.02  -0.00  -0.00     0.05  -0.01   0.04
  12   1     0.00   0.01   0.03    -0.02  -0.01  -0.01     0.02  -0.02   0.03
  13   6     0.07   0.09  -0.09    -0.08  -0.02  -0.03     0.10   0.02   0.04
  14   1     0.02   0.05  -0.02    -0.03  -0.01  -0.00     0.01  -0.00   0.02
  15   1     0.02   0.00  -0.06    -0.02  -0.00  -0.00     0.05   0.00   0.02
  16   1     0.02   0.05  -0.03    -0.02  -0.00  -0.01     0.03   0.02  -0.01
  17   6    -0.01   0.10   0.17    -0.09  -0.01  -0.07     0.04   0.04  -0.01
  18   1     0.00   0.04   0.04    -0.02   0.00  -0.02     0.01   0.02  -0.02
  19   1    -0.01   0.01   0.08    -0.03   0.00  -0.02     0.01   0.01  -0.00
  20   1    -0.00   0.05   0.06    -0.03  -0.01  -0.02    -0.00   0.00   0.00
  21   1    -0.00   0.00   0.03    -0.01   0.04   0.02     0.01   0.02  -0.04
  22   6    -0.03  -0.01  -0.03     0.03   0.01  -0.12    -0.15  -0.10  -0.02
  23   8    -0.06  -0.07  -0.23    -0.02  -0.07  -0.54    -0.18  -0.27  -0.18
  24   7    -0.05   0.02   0.08     0.06   0.06   0.14    -0.27  -0.04   0.09
  25   1    -0.02  -0.00  -0.01     0.02   0.01  -0.01    -0.09  -0.03   0.00
  26   1    -0.01   0.02   0.05     0.03   0.03   0.11    -0.07   0.02   0.05
  27   7     0.00   0.03   0.09     0.07   0.05   0.08    -0.06  -0.01   0.08
  28   1    -0.00   0.02   0.06     0.02   0.03   0.09    -0.02   0.03   0.05
  29   1    -0.00   0.00   0.00     0.00  -0.00  -0.04    -0.00  -0.02  -0.01
  30   6     0.00  -0.05   0.04     0.12  -0.01   0.13    -0.09  -0.06  -0.01
  31   8     0.02  -0.03   0.18     0.12   0.09   0.17    -0.13   0.02  -0.04
  32   7     0.09  -0.10   0.08     0.15   0.05  -0.13    -0.00  -0.12   0.05
  33   1     0.05  -0.03   0.07     0.03   0.05  -0.12     0.01  -0.02  -0.00
  34   1     0.02  -0.03  -0.00     0.03   0.00  -0.08    -0.00  -0.05  -0.00
  35   7    -0.11  -0.03  -0.17     0.15  -0.19   0.48    -0.16  -0.12  -0.03
  36   1    -0.03  -0.01  -0.07     0.03  -0.05   0.06    -0.04  -0.05  -0.01
  37   1    -0.05   0.00  -0.06     0.02  -0.05   0.14    -0.06  -0.02  -0.02
  38   6     0.02  -0.04  -0.08    -0.02  -0.02   0.01     0.12   0.08   0.03
  39   8     0.06  -0.21  -0.27    -0.05  -0.01   0.00     0.41   0.06   0.26
  40   7    -0.10  -0.10   0.15    -0.01  -0.02   0.02    -0.02   0.17  -0.15
  41   1    -0.05  -0.07   0.04    -0.00  -0.00   0.00     0.04   0.05  -0.02
  42   1    -0.04   0.01   0.08     0.00  -0.01   0.01    -0.05   0.04  -0.08
  43   7     0.10   0.22  -0.10    -0.02  -0.03   0.02    -0.07   0.05  -0.06
  44   1     0.02   0.09   0.01     0.00  -0.01   0.01    -0.06   0.02  -0.05
  45   1     0.05   0.07  -0.07    -0.01  -0.01   0.00     0.02   0.00   0.02
  46   6    -0.02   0.07   0.03    -0.04  -0.04   0.00    -0.06   0.04   0.01
  47   8    -0.04  -0.19   0.33     0.01  -0.04  -0.04    -0.03   0.13  -0.10
  48   7    -0.02   0.19  -0.16    -0.05   0.03   0.02    -0.06  -0.02   0.14
  49   1    -0.01   0.02  -0.00    -0.00   0.02   0.01    -0.02   0.00   0.03
  50   1    -0.00   0.12  -0.10    -0.03   0.00   0.01    -0.02  -0.02   0.05
  51   7     0.01   0.27  -0.13    -0.09  -0.13   0.03    -0.10   0.02  -0.01
  52   1     0.00   0.11  -0.10    -0.04  -0.04   0.02    -0.03  -0.01   0.02
  53   1    -0.00   0.04  -0.00    -0.02  -0.05   0.00    -0.02   0.02  -0.03
                     13                     14                     15
                        a                      a                      a 
 Frequencies --    60.8757                63.6925                74.0538
 Red. masses --    12.4989                12.4012                13.6902
 Frc consts  --     0.0000                 0.0000                 0.0000
 IR Inten    --     2.4881                 1.3838                 4.0623
 Raman Activ --     0.0000                 0.0000                 0.0000
 Depolar     --     0.0000                 0.0000                 0.0000
 Atom AN      X      Y      Z        X      Y      Z        X      Y      Z
   1   8     0.07   0.01   0.06     0.14   0.12   0.02     0.01   0.10   0.04
   2   6     0.03  -0.03  -0.02     0.11  -0.10  -0.19     0.03   0.09   0.04
   3   1     0.02  -0.00  -0.02     0.05  -0.00  -0.12     0.01   0.02   0.02
   4   1    -0.00  -0.02  -0.00     0.02  -0.09  -0.06     0.01   0.03   0.01
   5   6     0.03  -0.04  -0.04     0.09  -0.15  -0.08     0.01   0.06   0.02
   6   1     0.01  -0.01  -0.01     0.03  -0.06   0.00     0.00   0.03  -0.01
   7   1     0.00  -0.01  -0.02     0.03  -0.06  -0.03     0.01   0.02   0.02
   8   7     0.05  -0.04  -0.06     0.03  -0.03  -0.03     0.00  -0.00   0.02
   9   6     0.07   0.05  -0.06     0.09   0.09   0.09     0.02   0.04   0.02
  10   1     0.03   0.02  -0.02     0.06   0.02   0.03     0.01   0.02  -0.01
  11   1     0.01   0.03  -0.01     0.02   0.04   0.03     0.00   0.02   0.02
  12   1     0.02   0.02  -0.02     0.01   0.05   0.04     0.00   0.00   0.01
  13   6    -0.03  -0.05  -0.02    -0.16   0.00  -0.07    -0.03  -0.05   0.08
  14   1    -0.00  -0.01  -0.01    -0.06   0.03  -0.00    -0.01  -0.02   0.02
  15   1    -0.03  -0.00   0.00    -0.06   0.01  -0.02    -0.01  -0.00   0.03
  16   1    -0.01  -0.04  -0.00    -0.06  -0.03  -0.05    -0.01  -0.02   0.02
  17   6     0.11  -0.09  -0.07     0.09  -0.07  -0.03     0.00  -0.05  -0.06
  18   1     0.03  -0.05  -0.03     0.02  -0.05  -0.03    -0.00  -0.02  -0.02
  19   1     0.05  -0.02  -0.02     0.07  -0.03   0.00     0.01  -0.00  -0.03
  20   1     0.03  -0.02  -0.02     0.02   0.00   0.01    -0.01  -0.03  -0.02
  21   1    -0.01   0.01   0.01    -0.00   0.02   0.04    -0.01   0.03  -0.00
  22   6    -0.09  -0.01  -0.01     0.00  -0.07   0.05    -0.10  -0.05   0.02
  23   8    -0.11  -0.02  -0.09     0.03  -0.16   0.15    -0.11  -0.11   0.00
  24   7    -0.09  -0.01   0.03    -0.10  -0.04   0.00    -0.15  -0.03   0.03
  25   1    -0.02  -0.00  -0.00    -0.05  -0.02   0.01    -0.05  -0.02   0.01
  26   1    -0.02   0.00   0.02    -0.04   0.01  -0.02    -0.04   0.00   0.01
  27   7    -0.09  -0.01   0.04     0.07  -0.01  -0.02    -0.07  -0.02   0.03
  28   1    -0.02  -0.00   0.02     0.02   0.02  -0.02    -0.02   0.00   0.00
  29   1    -0.03  -0.00   0.00     0.04  -0.01   0.01    -0.01  -0.01   0.00
  30   6    -0.02   0.01   0.05    -0.08   0.09  -0.01    -0.04   0.07   0.00
  31   8    -0.06   0.09  -0.02    -0.04   0.06   0.26    -0.07   0.13  -0.04
  32   7     0.09  -0.09   0.30    -0.14   0.20  -0.38     0.02   0.03   0.08
  33   1     0.03  -0.01   0.07    -0.01   0.04  -0.03     0.01   0.02   0.00
  34   1     0.02  -0.03   0.06    -0.03   0.03  -0.08     0.00   0.00   0.02
  35   7    -0.09   0.02  -0.06    -0.14   0.07  -0.03    -0.08   0.04  -0.00
  36   1    -0.02  -0.00  -0.01    -0.04   0.01  -0.02    -0.02  -0.00   0.01
  37   1    -0.04   0.02  -0.05    -0.03  -0.00   0.05    -0.03   0.02  -0.01
  38   6    -0.04   0.08   0.04    -0.06   0.01   0.02    -0.04  -0.17  -0.06
  39   8    -0.20   0.23   0.09    -0.20   0.09  -0.01    -0.05  -0.34  -0.25
  40   7     0.12   0.09  -0.06     0.06  -0.01   0.01    -0.16  -0.25   0.16
  41   1     0.03   0.06  -0.03     0.00   0.02  -0.01    -0.07  -0.11   0.05
  42   1     0.06  -0.00  -0.03     0.04  -0.01   0.00    -0.04  -0.03   0.08
  43   7    -0.03  -0.10   0.09    -0.02  -0.07   0.06     0.06   0.04  -0.06
  44   1     0.02  -0.06   0.01     0.02  -0.04   0.02     0.01   0.04   0.02
  45   1    -0.04  -0.03   0.04    -0.03  -0.02   0.02     0.03   0.03  -0.06
  46   6     0.06  -0.02  -0.03     0.06  -0.00   0.05     0.18   0.12  -0.04
  47   8     0.13  -0.17   0.09     0.26  -0.13   0.08     0.28   0.32  -0.30
  48   7     0.02   0.39  -0.39     0.03   0.10   0.22     0.17   0.16   0.08
  49   1     0.01   0.10  -0.09     0.03   0.03   0.09     0.05   0.06  -0.00
  50   1     0.01   0.11  -0.11    -0.03   0.05   0.05     0.03  -0.02   0.07
  51   7     0.05  -0.27   0.18    -0.12   0.03  -0.17     0.12  -0.13   0.13
  52   1    -0.02  -0.04   0.02    -0.07   0.03  -0.05     0.02  -0.06   0.08
  53   1     0.00  -0.15   0.11    -0.02  -0.02  -0.08     0.04  -0.02   0.01
                     16                     17                     18
                        a                      a                      a 
 Frequencies --    80.0470                91.9838                97.9542
 Red. masses --    13.9915                13.0826                11.7734
 Frc consts  --     0.0000                 0.0000                 0.0000
 IR Inten    --     6.8931                 9.0506                15.0196
 Raman Activ --     0.0000                 0.0000                 0.0000
 Depolar     --     0.0000                 0.0000                 0.0000
 Atom AN      X      Y      Z        X      Y      Z        X      Y      Z
   1   8     0.10  -0.01  -0.12     0.14  -0.08  -0.07     0.01  -0.20   0.18
   2   6     0.15   0.02  -0.01     0.12  -0.13  -0.12    -0.09  -0.23  -0.01
   3   1     0.04  -0.00   0.02     0.02  -0.02  -0.07    -0.04  -0.04  -0.06
   4   1     0.06   0.03  -0.00     0.05  -0.08  -0.04    -0.04  -0.13  -0.00
   5   6     0.13  -0.01   0.02     0.15  -0.08   0.02    -0.04  -0.14   0.05
   6   1     0.03  -0.00   0.01     0.07  -0.04   0.03     0.01  -0.05   0.03
   7   1     0.04  -0.00   0.01     0.05  -0.03   0.00    -0.02  -0.04   0.01
   8   7     0.12  -0.01   0.04     0.09   0.06   0.10    -0.08  -0.02   0.10
   9   6     0.10  -0.03   0.06     0.10   0.04   0.20     0.01   0.20   0.19
  10   1     0.03  -0.01   0.02     0.04   0.00   0.07     0.05   0.06   0.05
  11   1     0.03  -0.01   0.01     0.03   0.00   0.05    -0.02   0.08   0.06
  12   1     0.03  -0.01   0.02     0.01   0.03   0.07    -0.00   0.08   0.06
  13   6     0.12  -0.00   0.03     0.01   0.13  -0.02    -0.34   0.01   0.07
  14   1     0.05   0.00   0.00    -0.01   0.07   0.01    -0.12   0.04   0.04
  15   1     0.02   0.00   0.00     0.00   0.03  -0.02    -0.12   0.02   0.03
  16   1     0.04  -0.01   0.02    -0.01   0.04  -0.03    -0.12  -0.04  -0.01
  17   6     0.07   0.02   0.04     0.06   0.11   0.15     0.07  -0.13   0.06
  18   1     0.02   0.01  -0.01     0.02   0.04   0.04     0.00  -0.09   0.00
  19   1     0.03  -0.00   0.02     0.01   0.02   0.05     0.07  -0.04   0.02
  20   1     0.00   0.01   0.02     0.02   0.04   0.05     0.02  -0.01   0.03
  21   1     0.01   0.02  -0.06     0.04  -0.03   0.01    -0.03  -0.04   0.04
  22   6    -0.02  -0.01  -0.04     0.08   0.02  -0.01     0.11   0.04  -0.05
  23   8    -0.03  -0.03  -0.13     0.09   0.03  -0.02     0.12   0.05  -0.12
  24   7    -0.02   0.01   0.02     0.10   0.02  -0.01     0.16   0.04  -0.01
  25   1    -0.01  -0.00  -0.01     0.03   0.01  -0.01     0.05   0.01  -0.02
  26   1    -0.00   0.01   0.02     0.03   0.00  -0.01     0.05   0.00   0.00
  27   7    -0.01   0.01   0.02     0.08   0.01  -0.01     0.12   0.03  -0.02
  28   1    -0.00   0.01   0.02     0.02   0.00   0.00     0.03   0.01   0.01
  29   1    -0.00  -0.00  -0.01     0.02   0.00  -0.00     0.03   0.01  -0.01
  30   6     0.00   0.04  -0.07     0.00  -0.08   0.04    -0.06   0.05  -0.03
  31   8    -0.10   0.17  -0.43     0.05  -0.17   0.20    -0.14   0.15  -0.27
  32   7     0.09  -0.07   0.23    -0.05  -0.04  -0.08     0.02  -0.03   0.20
  33   1     0.00   0.01  -0.04    -0.01  -0.03   0.03    -0.01   0.02  -0.03
  34   1     0.02  -0.02   0.05    -0.02  -0.00  -0.02     0.00  -0.01   0.04
  35   7     0.04  -0.03   0.10     0.01  -0.03  -0.05    -0.03   0.01   0.09
  36   1     0.02  -0.01   0.05    -0.01   0.01  -0.03    -0.00  -0.00   0.04
  37   1    -0.00   0.01  -0.03     0.02  -0.02  -0.00    -0.02   0.01  -0.01
  38   6    -0.15  -0.01  -0.01    -0.08  -0.03   0.01     0.10   0.04  -0.07
  39   8    -0.48   0.10  -0.16    -0.21  -0.00  -0.06     0.22  -0.03  -0.08
  40   7     0.05  -0.07   0.08    -0.01  -0.06   0.06     0.03   0.05  -0.05
  41   1    -0.03   0.00  -0.01    -0.02  -0.01   0.00     0.01  -0.00  -0.01
  42   1     0.07  -0.03   0.04     0.02  -0.02   0.03    -0.02   0.03  -0.02
  43   7     0.02  -0.10   0.10     0.01  -0.05   0.06     0.08   0.14  -0.12
  44   1     0.05  -0.05   0.04     0.01  -0.02   0.02     0.02   0.05  -0.02
  45   1    -0.06  -0.02   0.00    -0.03  -0.01  -0.00     0.05   0.04  -0.03
  46   6    -0.06   0.00   0.06    -0.18   0.09  -0.10    -0.05   0.00  -0.02
  47   8    -0.07  -0.01   0.08    -0.31   0.32  -0.30     0.06  -0.00  -0.08
  48   7    -0.05  -0.18   0.22    -0.17   0.07  -0.21    -0.07   0.04   0.08
  49   1    -0.02  -0.03   0.04    -0.06   0.01  -0.06    -0.01   0.03   0.01
  50   1    -0.01  -0.02   0.04    -0.03  -0.05  -0.01    -0.03   0.02   0.02
  51   7    -0.07   0.18  -0.12    -0.10  -0.13   0.20    -0.16  -0.07  -0.07
  52   1    -0.01   0.04  -0.03    -0.01  -0.06   0.09    -0.07  -0.02  -0.01
  53   1    -0.02   0.07  -0.06    -0.03  -0.01   0.07    -0.04  -0.03  -0.04
                     19                     20                     21
                        a                      a                      a 
 Frequencies --   101.3771               111.5630               120.8562
 Red. masses --    11.9871                11.7925                11.6485
 Frc consts  --     0.0000                 0.0000                 0.0000
 IR Inten    --     7.8907                 6.7660                 1.5907
 Raman Activ --     0.0000                 0.0000                 0.0000
 Depolar     --     0.0000                 0.0000                 0.0000
 Atom AN      X      Y      Z        X      Y      Z        X      Y      Z
   1   8     0.04  -0.08   0.08    -0.06   0.01   0.03     0.08   0.09  -0.00
   2   6    -0.08  -0.09  -0.08    -0.04   0.01   0.05     0.05   0.13   0.02
   3   1    -0.03  -0.01  -0.05    -0.02   0.00   0.01     0.01   0.03   0.02
   4   1    -0.05  -0.06  -0.02    -0.00  -0.00   0.01     0.01   0.05   0.01
   5   6    -0.05  -0.03  -0.14    -0.03   0.02   0.09     0.07   0.17   0.01
   6   1    -0.02  -0.02  -0.02    -0.01  -0.01   0.05     0.03   0.06  -0.02
   7   1    -0.04  -0.01  -0.07    -0.01  -0.01   0.00     0.02   0.07   0.02
   8   7     0.07   0.13  -0.19     0.00   0.18   0.11     0.04   0.10   0.01
   9   6     0.07   0.19  -0.25    -0.04   0.02   0.11     0.09   0.26   0.02
  10   1     0.02   0.05  -0.06    -0.03  -0.01   0.05     0.06   0.08  -0.01
  11   1    -0.00   0.06  -0.09     0.00  -0.02   0.00     0.01   0.10   0.02
  12   1     0.04   0.07  -0.08    -0.01   0.02   0.03     0.03   0.08   0.00
  13   6     0.03   0.17  -0.25     0.12   0.28  -0.06    -0.13  -0.01   0.15
  14   1     0.02   0.07  -0.08     0.05   0.11  -0.02    -0.05  -0.02   0.05
  15   1    -0.01   0.04  -0.09     0.04   0.05  -0.06    -0.05   0.03   0.08
  16   1     0.01   0.04  -0.07     0.05   0.11  -0.01    -0.05  -0.04   0.04
  17   6     0.21   0.12  -0.05    -0.05   0.30   0.26     0.13  -0.07  -0.16
  18   1     0.06   0.02   0.00    -0.01   0.11   0.06     0.03  -0.06  -0.04
  19   1     0.07   0.02   0.01    -0.02   0.06   0.12     0.07   0.00  -0.08
  20   1     0.09   0.07  -0.02    -0.02   0.12   0.09     0.04  -0.04  -0.05
  21   1    -0.00  -0.02   0.03    -0.01   0.00   0.00     0.02   0.03  -0.01
  22   6     0.05   0.01  -0.02    -0.05   0.02   0.03    -0.07   0.10   0.06
  23   8     0.05   0.00  -0.06    -0.06   0.05   0.07    -0.08   0.25   0.20
  24   7     0.06   0.01  -0.00    -0.04  -0.00  -0.01     0.04   0.03  -0.04
  25   1     0.02   0.00  -0.01    -0.01   0.01   0.01     0.03   0.03   0.01
  26   1     0.02   0.00   0.00    -0.01  -0.01  -0.01     0.01  -0.03  -0.03
  27   7     0.06   0.01  -0.01    -0.09  -0.01   0.01    -0.21  -0.02  -0.00
  28   1     0.02   0.01   0.01    -0.02  -0.01  -0.01    -0.05  -0.04  -0.03
  29   1     0.02   0.00  -0.01    -0.03   0.00   0.01    -0.08   0.01   0.03
  30   6    -0.03   0.03  -0.00     0.05  -0.01  -0.04     0.10  -0.16  -0.08
  31   8    -0.06   0.06  -0.10     0.03   0.05  -0.09     0.08   0.00  -0.01
  32   7    -0.00  -0.00   0.09     0.09  -0.03  -0.03     0.25  -0.22  -0.22
  33   1    -0.01   0.01  -0.01     0.03  -0.00  -0.02     0.10  -0.05  -0.01
  34   1    -0.00  -0.00   0.02     0.03  -0.02  -0.00     0.08  -0.09  -0.05
  35   7    -0.02   0.02   0.03     0.03  -0.06  -0.00    -0.02  -0.33  -0.06
  36   1    -0.00   0.00   0.02     0.01  -0.02  -0.00    -0.01  -0.11  -0.04
  37   1    -0.00   0.01   0.00    -0.01  -0.01  -0.01    -0.04  -0.07  -0.02
  38   6    -0.05  -0.18   0.18    -0.02  -0.02   0.04    -0.00  -0.06  -0.01
  39   8     0.11  -0.25   0.32    -0.01  -0.02   0.07     0.02  -0.11  -0.05
  40   7    -0.18  -0.16   0.11    -0.03  -0.01   0.02    -0.05  -0.08   0.03
  41   1    -0.00  -0.06   0.06     0.01  -0.00   0.01    -0.01  -0.04   0.02
  42   1    -0.05  -0.04   0.03     0.00  -0.01   0.01    -0.01  -0.01   0.02
  43   7    -0.17  -0.21   0.15    -0.04  -0.04   0.05     0.01  -0.00  -0.02
  44   1    -0.09  -0.04  -0.00    -0.02  -0.01  -0.00    -0.01   0.01  -0.00
  45   1    -0.04  -0.06   0.05    -0.02  -0.01   0.01     0.00   0.00  -0.02
  46   6    -0.02   0.05   0.06     0.08  -0.17  -0.16    -0.09  -0.02   0.04
  47   8    -0.04   0.05   0.09     0.27  -0.24  -0.24    -0.07  -0.10   0.12
  48   7    -0.02   0.04   0.06     0.04  -0.05  -0.03    -0.11   0.04   0.01
  49   1    -0.01   0.01   0.01     0.04   0.01  -0.01    -0.02   0.02   0.01
  50   1    -0.00   0.01   0.01    -0.02   0.00  -0.01    -0.03   0.04  -0.02
  51   7    -0.01   0.10   0.04    -0.11  -0.30  -0.28    -0.13   0.00  -0.01
  52   1     0.00   0.03   0.01    -0.08  -0.08  -0.05    -0.05   0.01  -0.01
  53   1    -0.00   0.03   0.02    -0.02  -0.12  -0.11    -0.04  -0.02   0.01
                     22                     23                     24
                        a                      a                      a 
 Frequencies --   126.4779               130.6476               174.8845
 Red. masses --    12.1964                11.9492                 7.1662
 Frc consts  --     0.0000                 0.0000                 0.0000
 IR Inten    --    22.6335                19.4215                12.6849
 Raman Activ --     0.0000                 0.0000                 0.0000
 Depolar     --     0.0000                 0.0000                 0.0000
 Atom AN      X      Y      Z        X      Y      Z        X      Y      Z
   1   8    -0.08   0.00  -0.06     0.05   0.14   0.26    -0.04  -0.19  -0.10
   2   6    -0.01  -0.04  -0.01    -0.00  -0.14  -0.07    -0.05  -0.06  -0.00
   3   1     0.01  -0.02   0.01     0.04  -0.01  -0.10    -0.04  -0.02   0.02
   4   1     0.01   0.01  -0.00    -0.04  -0.11  -0.02    -0.01  -0.00  -0.00
   5   6    -0.03  -0.09  -0.02    -0.08  -0.30  -0.05    -0.01   0.02  -0.01
   6   1    -0.02  -0.03  -0.00    -0.06  -0.11   0.03     0.01   0.01  -0.01
   7   1    -0.01  -0.04  -0.01    -0.01  -0.13  -0.06    -0.01   0.02   0.00
   8   7    -0.00  -0.11  -0.04    -0.06  -0.14  -0.04    -0.01   0.01  -0.01
   9   6    -0.05  -0.25  -0.07    -0.05  -0.14  -0.01    -0.02  -0.01  -0.02
  10   1    -0.04  -0.07  -0.02    -0.01  -0.05   0.01    -0.01  -0.00  -0.01
  11   1     0.01  -0.09  -0.02    -0.01  -0.05  -0.01    -0.00  -0.01  -0.01
  12   1    -0.02  -0.08  -0.02    -0.02  -0.03   0.00    -0.00  -0.00  -0.01
  13   6     0.18  -0.06  -0.10    -0.07  -0.02  -0.19     0.02   0.00  -0.00
  14   1     0.06  -0.02  -0.04    -0.01   0.03  -0.05     0.00  -0.01   0.00
  15   1     0.06  -0.04  -0.05    -0.03  -0.02  -0.09     0.02  -0.00   0.01
  16   1     0.07   0.02  -0.01    -0.02  -0.00  -0.06     0.01   0.01  -0.00
  17   6    -0.10   0.02   0.05    -0.02  -0.05   0.13    -0.02   0.02  -0.01
  18   1    -0.02   0.03  -0.00     0.00  -0.00   0.05    -0.00   0.01   0.00
  19   1    -0.04  -0.01   0.04    -0.02  -0.04   0.07    -0.01   0.01  -0.01
  20   1    -0.04   0.02   0.02     0.01   0.02   0.04    -0.00   0.00  -0.01
  21   1    -0.04   0.01  -0.02    -0.02   0.03   0.09     0.03  -0.05  -0.03
  22   6     0.10   0.11  -0.01    -0.13   0.01   0.06    -0.04  -0.03   0.01
  23   8     0.11   0.24   0.04    -0.14   0.06   0.15    -0.05  -0.05   0.02
  24   7     0.25   0.06  -0.05    -0.12  -0.01  -0.01    -0.09  -0.02   0.01
  25   1     0.09   0.03  -0.02    -0.03   0.00   0.02    -0.03  -0.01   0.01
  26   1     0.07  -0.02  -0.03    -0.03  -0.01  -0.01    -0.02   0.01   0.01
  27   7     0.03   0.03  -0.04    -0.20  -0.03   0.02    -0.04  -0.02   0.02
  28   1     0.01  -0.01   0.00    -0.05  -0.03  -0.02    -0.01  -0.00  -0.01
  29   1    -0.01   0.02   0.01    -0.06  -0.00   0.02    -0.01  -0.01  -0.00
  30   6    -0.14  -0.15  -0.02     0.17   0.07  -0.07     0.14  -0.00  -0.04
  31   8    -0.19  -0.01  -0.01     0.15   0.25  -0.08     0.18  -0.09  -0.06
  32   7    -0.00  -0.21  -0.07     0.34   0.01  -0.09     0.06   0.04  -0.01
  33   1     0.02  -0.04  -0.02     0.11   0.02  -0.02    -0.00   0.00  -0.02
  34   1     0.01  -0.08  -0.02     0.10  -0.03  -0.02     0.01   0.03  -0.01
  35   7    -0.22  -0.28   0.04     0.07  -0.07  -0.02     0.24   0.09  -0.06
  36   1    -0.06  -0.09  -0.01     0.02  -0.05  -0.02     0.06   0.05  -0.00
  37   1    -0.08  -0.06  -0.00    -0.03   0.00  -0.02     0.09   0.01  -0.01
  38   6    -0.01   0.03   0.01     0.02   0.04   0.01    -0.01  -0.02   0.01
  39   8    -0.03   0.07   0.02     0.02   0.08   0.05    -0.01  -0.02   0.01
  40   7     0.04   0.04  -0.02     0.05   0.06  -0.03     0.20  -0.05   0.13
  41   1     0.00   0.02  -0.01     0.01   0.03  -0.02    -0.25   0.05  -0.16
  42   1     0.00   0.01  -0.02    -0.00   0.01  -0.03    -0.35   0.05  -0.19
  43   7    -0.01  -0.00   0.01    -0.01   0.01   0.00    -0.20   0.05  -0.13
  44   1     0.01  -0.01   0.01     0.01  -0.01   0.00     0.30  -0.11   0.22
  45   1    -0.00  -0.00   0.02     0.01  -0.00   0.02     0.24  -0.06   0.16
  46   6     0.04   0.15   0.08    -0.00   0.06  -0.02    -0.06   0.08   0.06
  47   8     0.23   0.17  -0.01    -0.13   0.20  -0.09     0.08   0.05   0.05
  48   7     0.02   0.31   0.21     0.02  -0.12   0.02    -0.08   0.22   0.11
  49   1     0.01   0.09   0.06     0.00  -0.01  -0.03    -0.01   0.06   0.04
  50   1    -0.02   0.06   0.08     0.02  -0.04   0.00    -0.03   0.05   0.04
  51   7    -0.11   0.01   0.06     0.11   0.09   0.08    -0.19  -0.01   0.02
  52   1    -0.07   0.01   0.03     0.06   0.00   0.03    -0.09   0.01   0.01
  53   1    -0.02  -0.02  -0.02     0.03   0.07   0.02    -0.05  -0.03  -0.01
                     25                     26                     27
                        a                      a                      a 
 Frequencies --   175.2083               197.1099               251.2540
 Red. masses --     9.0892                10.0640                 4.2887
 Frc consts  --     0.0000                 0.0000                 0.0000
 IR Inten    --     6.7415                 5.8098                16.7589
 Raman Activ --     0.0000                 0.0000                 0.0000
 Depolar     --     0.0000                 0.0000                 0.0000
 Atom AN      X      Y      Z        X      Y      Z        X      Y      Z
   1   8     0.04   0.23   0.10    -0.39   0.23  -0.36    -0.08  -0.10  -0.09
   2   6     0.06   0.09   0.01     0.03   0.11   0.07    -0.05  -0.08  -0.03
   3   1     0.04   0.03  -0.02     0.06  -0.01   0.09    -0.03  -0.02  -0.01
   4   1     0.01   0.01   0.00     0.08   0.13   0.00     0.00  -0.03  -0.02
   5   6     0.01  -0.01   0.01    -0.15  -0.27   0.13     0.01   0.02   0.02
   6   1    -0.02  -0.01   0.02    -0.13  -0.11   0.11     0.03   0.01  -0.00
   7   1     0.01  -0.03  -0.02    -0.03  -0.16  -0.04    -0.01   0.03   0.02
   8   7     0.03   0.03   0.01     0.06  -0.08   0.08     0.03   0.01   0.01
   9   6     0.04   0.06   0.01     0.08   0.15  -0.11     0.02   0.01  -0.01
  10   1     0.02   0.02  -0.00     0.04   0.07  -0.07     0.00   0.00  -0.00
  11   1     0.01   0.02   0.01    -0.02   0.09  -0.01     0.00   0.00  -0.01
  12   1     0.01   0.01   0.00     0.06   0.02  -0.06     0.01   0.01  -0.01
  13   6    -0.01   0.03   0.01    -0.00  -0.04   0.03     0.05  -0.01   0.04
  14   1    -0.00   0.01   0.00     0.10   0.04  -0.05    -0.01  -0.02   0.02
  15   1    -0.01   0.01   0.00    -0.11   0.02  -0.04     0.04  -0.01   0.03
  16   1    -0.01  -0.00   0.00     0.01  -0.09   0.10     0.01   0.01  -0.01
  17   6     0.06   0.01   0.01     0.28  -0.12   0.21     0.01   0.00  -0.01
  18   1     0.01  -0.01  -0.01     0.03  -0.12  -0.05     0.00   0.00  -0.01
  19   1     0.03  -0.00   0.01     0.21  -0.08   0.13     0.01   0.00  -0.01
  20   1     0.01   0.01   0.01     0.03   0.09   0.12    -0.00  -0.00   0.00
  21   1    -0.03   0.06   0.03    -0.05   0.05  -0.09    -0.01  -0.03  -0.02
  22   6     0.05   0.04  -0.01    -0.00  -0.01  -0.00    -0.03  -0.01   0.01
  23   8     0.06   0.06  -0.02    -0.00  -0.01  -0.00    -0.02  -0.01  -0.00
  24   7     0.11   0.02  -0.01    -0.01  -0.00   0.00     0.04   0.08   0.27
  25   1     0.04   0.01  -0.02    -0.00  -0.00   0.00    -0.05  -0.11  -0.29
  26   1     0.03  -0.01  -0.02    -0.00   0.00   0.00    -0.11  -0.14  -0.45
  27   7     0.05   0.02  -0.02     0.00  -0.00   0.00    -0.02  -0.08  -0.28
  28   1     0.01   0.01   0.01     0.00   0.00  -0.00    -0.01   0.13   0.49
  29   1     0.01   0.01   0.00     0.00  -0.00  -0.00     0.02   0.11   0.32
  30   6    -0.17   0.00   0.05     0.02  -0.02  -0.00     0.02   0.06   0.03
  31   8    -0.22   0.10   0.08     0.04  -0.07  -0.00     0.02   0.10   0.03
  32   7    -0.08  -0.05   0.01    -0.04   0.01  -0.02     0.06   0.07  -0.07
  33   1     0.00  -0.00   0.02    -0.02  -0.01   0.02     0.07  -0.01   0.14
  34   1    -0.02  -0.04   0.01    -0.01   0.01   0.01     0.04  -0.01   0.04
  35   7    -0.29  -0.11   0.07     0.07   0.02   0.00    -0.02  -0.01   0.07
  36   1    -0.07  -0.05   0.00     0.01   0.02  -0.01    -0.02  -0.00  -0.04
  37   1    -0.11  -0.02   0.02     0.02   0.01  -0.02    -0.05   0.04  -0.07
  38   6    -0.01  -0.02   0.01     0.02   0.00   0.00    -0.00  -0.00  -0.00
  39   8    -0.01  -0.01   0.01     0.04  -0.00   0.02    -0.00  -0.00  -0.00
  40   7     0.17  -0.04   0.10     0.00   0.01  -0.01     0.00  -0.00   0.00
  41   1    -0.20   0.04  -0.13     0.01   0.00   0.00    -0.00  -0.00  -0.00
  42   1    -0.28   0.04  -0.15     0.00   0.00  -0.00    -0.00   0.00  -0.00
  43   7    -0.16   0.03  -0.10     0.01   0.01  -0.00     0.00  -0.00   0.00
  44   1     0.24  -0.09   0.18    -0.01   0.01  -0.01    -0.00   0.00  -0.00
  45   1     0.19  -0.05   0.13    -0.00   0.00  -0.01    -0.00   0.00  -0.00
  46   6     0.06  -0.11  -0.08    -0.02   0.02  -0.01     0.00  -0.00  -0.01
  47   8    -0.10  -0.07  -0.06    -0.01   0.04  -0.03    -0.01  -0.00  -0.00
  48   7     0.09  -0.28  -0.15    -0.02   0.02  -0.00     0.00  -0.02  -0.00
  49   1     0.01  -0.08  -0.05    -0.01   0.00   0.00     0.00   0.00  -0.01
  50   1     0.04  -0.07  -0.05    -0.01  -0.01   0.01    -0.00   0.01  -0.01
  51   7     0.23  -0.00  -0.03    -0.03  -0.01   0.01     0.02   0.00   0.00
  52   1     0.11  -0.01  -0.02    -0.01  -0.00   0.00     0.01   0.00  -0.00
  53   1     0.06   0.04   0.01    -0.01  -0.00  -0.00     0.00   0.00   0.00
                     28                     29                     30
                        a                      a                      a 
 Frequencies --   253.0849               268.5734               274.2499
 Red. masses --    10.6450                 4.3081                 5.3274
 Frc consts  --     0.0000                 0.0000                 0.0000
 IR Inten    --    11.4559                20.5970                 0.1602
 Raman Activ --     0.0000                 0.0000                 0.0000
 Depolar     --     0.0000                 0.0000                 0.0000
 Atom AN      X      Y      Z        X      Y      Z        X      Y      Z
   1   8     0.26   0.30   0.29    -0.08  -0.08  -0.11    -0.13   0.30   0.02
   2   6     0.16   0.24   0.10    -0.03  -0.05  -0.02    -0.08  -0.05  -0.23
   3   1     0.10   0.06   0.04    -0.02  -0.02   0.00    -0.04   0.04  -0.19
   4   1    -0.01   0.10   0.05     0.01  -0.01  -0.01    -0.00  -0.16  -0.09
   5   6    -0.02  -0.05  -0.07     0.00   0.00   0.01    -0.03  -0.01   0.09
   6   1    -0.08  -0.02   0.01     0.01   0.00   0.00     0.03  -0.01   0.03
   7   1     0.03  -0.07  -0.05    -0.01   0.01   0.01    -0.01   0.01   0.03
   8   7    -0.08  -0.02  -0.04     0.02   0.00   0.01     0.01   0.01   0.09
   9   6    -0.06  -0.03   0.04     0.02   0.01   0.00    -0.02   0.05  -0.14
  10   1    -0.01  -0.00   0.00     0.01   0.01  -0.01    -0.03  -0.06   0.06
  11   1    -0.01  -0.01   0.03     0.01   0.01   0.01    -0.08  -0.02  -0.18
  12   1    -0.04  -0.02   0.02     0.00  -0.00   0.00     0.09   0.15  -0.06
  13   6    -0.15   0.05  -0.13     0.04  -0.01   0.02     0.09  -0.08   0.19
  14   1     0.02   0.07  -0.07     0.01  -0.01   0.01    -0.21  -0.14   0.18
  15   1    -0.12   0.03  -0.08     0.02  -0.00   0.01     0.27  -0.08   0.16
  16   1    -0.04  -0.04   0.02     0.01   0.00   0.00     0.00   0.14  -0.16
  17   6    -0.03  -0.00   0.03     0.00   0.00  -0.02     0.14  -0.04   0.14
  18   1    -0.00   0.00   0.04    -0.01  -0.01  -0.04     0.11   0.06   0.29
  19   1    -0.03  -0.00   0.01     0.03  -0.01   0.01    -0.18   0.05  -0.05
  20   1     0.02   0.00  -0.00    -0.03   0.02   0.02     0.22  -0.17  -0.10
  21   1     0.05   0.09   0.07    -0.02  -0.01  -0.04    -0.02   0.04   0.08
  22   6    -0.00  -0.01   0.00    -0.01   0.01   0.03     0.00  -0.00   0.00
  23   8    -0.00  -0.02  -0.00    -0.00   0.02   0.05     0.00  -0.00   0.00
  24   7     0.01   0.02   0.09     0.01   0.00   0.01    -0.00  -0.00  -0.00
  25   1    -0.02  -0.04  -0.10     0.01  -0.00  -0.01    -0.00  -0.00   0.00
  26   1    -0.04  -0.05  -0.15    -0.01  -0.02  -0.04     0.00   0.00   0.00
  27   7     0.02  -0.03  -0.11    -0.01  -0.01  -0.06     0.01  -0.00  -0.01
  28   1     0.00   0.06   0.18    -0.00   0.02   0.08     0.00   0.00   0.01
  29   1     0.02   0.04   0.12     0.00   0.02   0.06     0.01   0.00   0.00
  30   6     0.02  -0.18  -0.10     0.00   0.05   0.02     0.00  -0.06  -0.06
  31   8     0.02  -0.28  -0.17     0.03   0.06   0.15     0.00  -0.08  -0.09
  32   7    -0.23  -0.13   0.12     0.19  -0.03   0.23    -0.09  -0.05   0.05
  33   1    -0.17  -0.03  -0.16    -0.10   0.19  -0.63    -0.07  -0.01  -0.07
  34   1    -0.09   0.05  -0.02    -0.04   0.03  -0.25    -0.04   0.02  -0.01
  35   7     0.17  -0.01  -0.12    -0.17   0.07  -0.23     0.07  -0.01  -0.03
  36   1     0.06   0.02   0.03     0.03  -0.09   0.12     0.02   0.01   0.01
  37   1     0.11  -0.05   0.05     0.06  -0.16   0.40     0.04  -0.01  -0.00
  38   6     0.01   0.00   0.01    -0.00   0.00  -0.00    -0.01   0.01  -0.01
  39   8     0.01  -0.00   0.01    -0.00  -0.00  -0.00    -0.01   0.01  -0.01
  40   7    -0.01   0.01  -0.01     0.00  -0.00   0.00     0.02   0.00   0.00
  41   1     0.01   0.00   0.00    -0.00  -0.00  -0.00    -0.01   0.00  -0.01
  42   1     0.01  -0.00   0.00    -0.00   0.00  -0.00    -0.01   0.00  -0.01
  43   7    -0.01   0.01  -0.01     0.01  -0.00   0.00     0.01  -0.00   0.01
  44   1     0.01  -0.00   0.01    -0.01   0.00  -0.01    -0.02   0.01  -0.01
  45   1     0.01  -0.00   0.01    -0.01   0.00  -0.00    -0.01   0.00  -0.01
  46   6    -0.01   0.02   0.02    -0.00  -0.02  -0.00     0.00   0.00   0.00
  47   8     0.04   0.01   0.02    -0.03  -0.01  -0.00     0.02   0.00  -0.00
  48   7    -0.01   0.07   0.01    -0.00  -0.01  -0.02     0.01   0.02   0.01
  49   1    -0.02  -0.00   0.02     0.00  -0.02   0.02    -0.00   0.00   0.00
  50   1     0.00  -0.02   0.03     0.00  -0.03   0.01     0.00  -0.01   0.02
  51   7    -0.06  -0.01  -0.01     0.02   0.01  -0.01    -0.02  -0.01  -0.01
  52   1    -0.03  -0.00   0.01     0.02  -0.01   0.02    -0.01  -0.00  -0.00
  53   1    -0.02  -0.02  -0.01     0.00   0.01   0.01    -0.00  -0.01  -0.01
                     31                     32                     33
                        a                      a                      a 
 Frequencies --   315.6179               321.3580               324.4196
 Red. masses --     9.2842                 4.3048                 3.7913
 Frc consts  --     0.0000                 0.0000                 0.0000
 IR Inten    --    11.1884                34.1293               463.2090
 Raman Activ --     0.0000                 0.0000                 0.0000
 Depolar     --     0.0000                 0.0000                 0.0000
 Atom AN      X      Y      Z        X      Y      Z        X      Y      Z
   1   8     0.37  -0.18  -0.17    -0.04  -0.15  -0.18     0.07  -0.07  -0.06
   2   6     0.11   0.07  -0.15     0.08   0.11   0.23     0.05   0.05   0.05
   3   1     0.01   0.01  -0.02     0.05  -0.03   0.20     0.02  -0.01   0.06
   4   1     0.03   0.03  -0.04     0.04   0.20   0.08     0.01   0.07   0.02
   5   6     0.03   0.06  -0.02    -0.02  -0.05  -0.02    -0.01  -0.02  -0.02
   6   1     0.00   0.01  -0.00    -0.05  -0.01  -0.01    -0.02  -0.00  -0.00
   7   1     0.05  -0.00   0.02    -0.00  -0.03  -0.02     0.01  -0.02  -0.01
   8   7    -0.16   0.01   0.07    -0.00  -0.07  -0.04    -0.04  -0.02  -0.01
   9   6    -0.26  -0.01  -0.34     0.05  -0.01   0.14    -0.03   0.01  -0.02
  10   1    -0.15   0.05  -0.17     0.05  -0.18   0.27    -0.01  -0.02   0.02
  11   1    -0.09   0.03  -0.06    -0.06  -0.09  -0.20    -0.02  -0.01  -0.03
  12   1    -0.01  -0.11  -0.16     0.08   0.30   0.09     0.00   0.03  -0.00
  13   6    -0.16  -0.07   0.19    -0.13   0.06  -0.21    -0.07   0.01  -0.04
  14   1     0.07  -0.01  -0.02    -0.02   0.09  -0.06    -0.01   0.02  -0.02
  15   1    -0.18   0.04   0.04    -0.07   0.01  -0.11    -0.03   0.00  -0.02
  16   1    -0.04  -0.12   0.17    -0.04  -0.00  -0.06    -0.02  -0.01   0.00
  17   6     0.05   0.05   0.35     0.05  -0.08  -0.01     0.00  -0.00   0.04
  18   1     0.05   0.04   0.23     0.10   0.08   0.27     0.02   0.02   0.09
  19   1    -0.08   0.01   0.11    -0.24   0.06  -0.12    -0.07   0.01  -0.01
  20   1     0.14   0.02   0.03     0.21  -0.22  -0.16     0.06  -0.04  -0.03
  21   1     0.10  -0.04  -0.05     0.03  -0.02  -0.09     0.03  -0.01  -0.03
  22   6    -0.00   0.00  -0.00    -0.00   0.00  -0.00    -0.00   0.00  -0.00
  23   8    -0.00   0.00   0.00    -0.00   0.00   0.00    -0.00   0.00  -0.00
  24   7     0.01   0.00   0.00     0.01   0.00   0.00     0.00   0.00   0.00
  25   1     0.00  -0.00  -0.00     0.00  -0.00  -0.00    -0.00  -0.00  -0.00
  26   1    -0.00  -0.00  -0.01    -0.00  -0.00  -0.01    -0.00  -0.00  -0.00
  27   7    -0.00   0.00   0.00    -0.01   0.00   0.00    -0.00   0.00   0.00
  28   1    -0.00  -0.00  -0.00    -0.00  -0.00  -0.00    -0.00  -0.00  -0.00
  29   1    -0.00  -0.00  -0.00    -0.00   0.00  -0.00    -0.00  -0.00  -0.00
  30   6    -0.02   0.04   0.03    -0.02   0.05   0.04    -0.01   0.01   0.02
  31   8    -0.03   0.06   0.05    -0.02   0.06   0.05    -0.01   0.02   0.02
  32   7     0.06   0.02  -0.02     0.07   0.03  -0.02     0.02   0.01  -0.01
  33   1     0.04   0.02   0.00     0.04   0.02   0.01     0.02   0.00   0.02
  34   1     0.02  -0.02  -0.01     0.02  -0.02  -0.01     0.01  -0.01   0.00
  35   7    -0.08  -0.00   0.01    -0.08   0.01   0.02    -0.03   0.00   0.00
  36   1    -0.02  -0.01   0.00    -0.02  -0.01   0.00    -0.00  -0.01   0.00
  37   1    -0.02  -0.00   0.02    -0.02  -0.00   0.03    -0.01  -0.00   0.01
  38   6     0.02  -0.01   0.01     0.02  -0.00   0.02    -0.09   0.03  -0.05
  39   8     0.01  -0.00   0.00     0.01   0.00   0.02     0.00  -0.01  -0.02
  40   7    -0.04   0.00  -0.02    -0.05   0.01  -0.03     0.25  -0.02   0.13
  41   1     0.04  -0.01   0.02     0.05  -0.00   0.03    -0.22   0.04  -0.14
  42   1     0.07  -0.01   0.03     0.10  -0.02   0.05    -0.47   0.10  -0.24
  43   7    -0.03   0.02  -0.03    -0.06   0.01  -0.03     0.21  -0.09   0.18
  44   1     0.06  -0.02   0.04     0.10  -0.04   0.07    -0.44   0.17  -0.30
  45   1     0.04  -0.01   0.02     0.05  -0.02   0.04    -0.21   0.06  -0.16
  46   6     0.02  -0.00  -0.00     0.01   0.00  -0.01     0.01  -0.00   0.00
  47   8     0.01  -0.00  -0.00     0.00   0.01  -0.01     0.01  -0.00   0.00
  48   7     0.01   0.00   0.01     0.00  -0.01   0.00     0.00   0.01   0.00
  49   1     0.01   0.01   0.00     0.00   0.00  -0.00     0.00   0.00   0.00
  50   1    -0.00   0.01  -0.00    -0.00   0.00  -0.00     0.00   0.01  -0.00
  51   7     0.01  -0.00  -0.01     0.01  -0.02   0.02     0.00   0.01  -0.02
  52   1     0.00  -0.01   0.01     0.00   0.02  -0.03     0.00  -0.03   0.04
  53   1     0.00  -0.01   0.00     0.00   0.01  -0.02    -0.00  -0.01   0.01
                     34                     35                     36
                        a                      a                      a 
 Frequencies --   343.5794               346.8414               354.3460
 Red. masses --     2.7455                 2.9906                 3.7537
 Frc consts  --     0.0000                 0.0000                 0.0000
 IR Inten    --   133.2665                 2.2649               433.3253
 Raman Activ --     0.0000                 0.0000                 0.0000
 Depolar     --     0.0000                 0.0000                 0.0000
 Atom AN      X      Y      Z        X      Y      Z        X      Y      Z
   1   8     0.05  -0.03  -0.00    -0.18   0.13   0.02    -0.02   0.02   0.01
   2   6     0.01   0.03   0.01    -0.07  -0.15  -0.12    -0.01  -0.01  -0.02
   3   1    -0.00   0.01   0.01    -0.03  -0.01  -0.11    -0.00  -0.00  -0.01
   4   1    -0.00   0.02   0.00    -0.00  -0.13  -0.05    -0.00  -0.02  -0.01
   5   6    -0.00   0.02  -0.00     0.03  -0.02   0.05    -0.00  -0.01   0.00
   6   1    -0.00   0.00   0.00     0.06  -0.00   0.00     0.00  -0.00   0.00
   7   1     0.00   0.00   0.00    -0.01   0.02   0.02    -0.00  -0.00   0.00
   8   7    -0.01   0.02   0.00     0.04   0.03   0.06     0.00   0.00   0.00
   9   6    -0.04  -0.02  -0.03     0.06   0.04   0.10     0.01   0.01   0.01
  10   1    -0.03  -0.03   0.03     0.03   0.11  -0.10     0.00   0.02  -0.01
  11   1    -0.02  -0.03  -0.05     0.07   0.07   0.19     0.01   0.01   0.02
  12   1     0.01   0.03  -0.01    -0.05  -0.16   0.02    -0.01  -0.02   0.00
  13   6    -0.03   0.01   0.01     0.12   0.05   0.04     0.02   0.00   0.00
  14   1    -0.06  -0.02   0.03     0.35   0.12  -0.17     0.02   0.01  -0.01
  15   1     0.04  -0.01   0.02    -0.27   0.09  -0.12    -0.01   0.01  -0.01
  16   1    -0.02   0.03  -0.04     0.08  -0.17   0.31     0.01  -0.01   0.02
  17   6     0.02   0.00   0.02    -0.04  -0.01  -0.11    -0.00  -0.00  -0.01
  18   1    -0.02  -0.04  -0.06     0.07   0.10   0.21     0.01   0.01   0.02
  19   1     0.08  -0.02   0.04    -0.25   0.10  -0.18    -0.02   0.01  -0.02
  20   1    -0.03   0.06   0.04     0.13  -0.24  -0.17     0.01  -0.02  -0.01
  21   1     0.01  -0.00  -0.01    -0.04   0.00   0.07    -0.01   0.01   0.00
  22   6     0.00   0.00   0.00     0.00   0.00   0.01    -0.02  -0.02  -0.10
  23   8    -0.00   0.00   0.00     0.00   0.00   0.01    -0.01  -0.03  -0.05
  24   7    -0.00  -0.00  -0.01    -0.01  -0.01  -0.03     0.10   0.10   0.28
  25   1     0.00   0.00   0.01     0.00   0.01   0.02    -0.04  -0.09  -0.23
  26   1     0.00   0.00   0.01     0.01   0.01   0.05    -0.13  -0.15  -0.56
  27   7    -0.00  -0.00  -0.01     0.00  -0.01  -0.03    -0.03   0.08   0.29
  28   1     0.00   0.00   0.02     0.00   0.01   0.04    -0.01  -0.11  -0.52
  29   1     0.00   0.00   0.01     0.00   0.01   0.02    -0.01  -0.09  -0.23
  30   6     0.01   0.00  -0.00     0.00  -0.00  -0.02     0.01  -0.01   0.01
  31   8     0.00   0.01  -0.00     0.00  -0.00  -0.02     0.00  -0.01  -0.01
  32   7     0.01   0.00  -0.00    -0.01  -0.00   0.02     0.00  -0.00  -0.01
  33   1     0.00   0.00   0.00    -0.02   0.00  -0.03     0.00  -0.00   0.00
  34   1     0.00  -0.00  -0.00    -0.01   0.01  -0.01     0.01  -0.01   0.03
  35   7    -0.00  -0.00  -0.00     0.02  -0.01   0.01    -0.01   0.02  -0.05
  36   1     0.00  -0.00   0.00     0.00   0.00  -0.01     0.02  -0.02   0.07
  37   1     0.00  -0.00   0.01    -0.00   0.01  -0.03     0.03  -0.04   0.09
  38   6    -0.01   0.00  -0.00     0.00  -0.00  -0.00    -0.00   0.00  -0.00
  39   8    -0.00  -0.00  -0.00     0.01  -0.01   0.00     0.00  -0.00  -0.00
  40   7     0.01  -0.00   0.01     0.01  -0.00   0.01     0.00  -0.00   0.00
  41   1    -0.01   0.00  -0.01    -0.01  -0.00  -0.00    -0.00  -0.00  -0.00
  42   1    -0.02   0.00  -0.01    -0.03   0.01  -0.01    -0.00   0.00  -0.00
  43   7     0.01  -0.01   0.01     0.01  -0.00   0.00     0.00  -0.00   0.00
  44   1    -0.03   0.01  -0.02    -0.02   0.01  -0.01    -0.00   0.00  -0.00
  45   1    -0.01   0.00  -0.01    -0.01   0.00  -0.01    -0.00  -0.00  -0.00
  46   6    -0.01  -0.01  -0.04     0.00  -0.01   0.00     0.00   0.00  -0.00
  47   8    -0.00  -0.01  -0.03     0.01  -0.02   0.01     0.00  -0.00  -0.00
  48   7    -0.00   0.05  -0.04     0.00   0.02  -0.01    -0.00  -0.00   0.00
  49   1    -0.01  -0.03   0.03    -0.00  -0.01   0.00    -0.00   0.00  -0.00
  50   1    -0.03  -0.22   0.18    -0.00  -0.05   0.04    -0.00  -0.00   0.00
  51   7    -0.00  -0.15   0.30    -0.00  -0.03   0.05    -0.00  -0.01   0.02
  52   1    -0.03   0.44  -0.67    -0.01   0.09  -0.14    -0.00   0.02  -0.03
  53   1     0.04   0.15  -0.26     0.01   0.02  -0.05     0.00   0.01  -0.01
                     37                     38                     39
                        a                      a                      a 
 Frequencies --   366.4382               372.6922               414.3819
 Red. masses --     6.1875                 3.7361                 3.3708
 Frc consts  --     0.0000                 0.0000                 0.0000
 IR Inten    --     2.3709                 1.9735               162.3909
 Raman Activ --     0.0000                 0.0000                 0.0000
 Depolar     --     0.0000                 0.0000                 0.0000
 Atom AN      X      Y      Z        X      Y      Z        X      Y      Z
   1   8    -0.08  -0.00  -0.07     0.05  -0.10  -0.04     0.01   0.02   0.01
   2   6    -0.11   0.11   0.01     0.12   0.01   0.15    -0.01   0.01  -0.02
   3   1    -0.09   0.04  -0.01     0.10  -0.04   0.13    -0.00   0.01  -0.01
   4   1    -0.01   0.01  -0.01     0.02   0.13   0.06    -0.01  -0.00  -0.00
   5   6     0.01   0.24   0.07    -0.08  -0.27  -0.06    -0.01   0.01  -0.01
   6   1     0.03   0.11  -0.06    -0.11  -0.12   0.07    -0.00   0.00  -0.00
   7   1     0.01   0.12   0.09    -0.01  -0.17  -0.11    -0.00  -0.00  -0.00
   8   7     0.01  -0.03   0.03    -0.02  -0.00  -0.04    -0.01  -0.01  -0.01
   9   6    -0.04  -0.28   0.11     0.06   0.24  -0.00     0.00   0.01   0.01
  10   1    -0.05   0.07  -0.16     0.07   0.27  -0.27     0.01   0.01  -0.00
  11   1     0.14  -0.04   0.26     0.07   0.22   0.30    -0.00   0.01   0.01
  12   1    -0.13  -0.36   0.02    -0.08  -0.23  -0.03    -0.00   0.00   0.00
  13   6    -0.14   0.16  -0.25     0.04  -0.02  -0.01     0.02  -0.02  -0.01
  14   1    -0.16   0.10   0.02    -0.18  -0.12   0.10     0.01  -0.01  -0.01
  15   1     0.05  -0.02  -0.09     0.23  -0.07   0.08     0.00  -0.01  -0.00
  16   1    -0.07   0.10  -0.22     0.00   0.15  -0.17     0.01  -0.00   0.01
  17   6     0.35  -0.19   0.10    -0.16   0.10  -0.03    -0.00  -0.01   0.01
  18   1     0.10  -0.13   0.13     0.01   0.14   0.11     0.00   0.00   0.01
  19   1     0.10  -0.03  -0.01    -0.21   0.07  -0.06    -0.01  -0.01   0.01
  20   1     0.20  -0.06  -0.03     0.02  -0.10  -0.08     0.00  -0.00   0.00
  21   1     0.02  -0.01  -0.01     0.02  -0.01  -0.04    -0.01   0.01  -0.00
  22   6     0.00   0.00   0.00    -0.00   0.00   0.00    -0.00   0.00  -0.00
  23   8    -0.00   0.00   0.00     0.00   0.00   0.00    -0.01   0.00  -0.01
  24   7     0.00  -0.00  -0.00    -0.00  -0.00  -0.00     0.00  -0.00  -0.01
  25   1     0.00   0.00   0.00     0.00   0.00   0.00     0.01   0.00  -0.01
  26   1     0.00  -0.00   0.00     0.00   0.00   0.01     0.01   0.00   0.03
  27   7    -0.00  -0.00  -0.00    -0.00  -0.00  -0.00     0.00   0.00  -0.01
  28   1    -0.00   0.00   0.00    -0.00   0.00   0.01    -0.00   0.01   0.03
  29   1    -0.00   0.00   0.00    -0.00   0.00   0.00     0.00   0.00   0.00
  30   6    -0.01   0.01   0.01    -0.01   0.01   0.02    -0.00  -0.04   0.03
  31   8    -0.01   0.01   0.01    -0.01   0.01   0.01    -0.02  -0.02  -0.01
  32   7     0.02   0.00  -0.00     0.02   0.01  -0.01    -0.03  -0.02  -0.01
  33   1     0.01   0.01   0.00     0.02   0.00   0.01     0.01  -0.02   0.05
  34   1     0.01  -0.01  -0.00     0.01  -0.01  -0.00    -0.00  -0.01   0.02
  35   7    -0.02   0.00   0.00    -0.02   0.01   0.00     0.01   0.04  -0.05
  36   1    -0.00  -0.00   0.00    -0.00  -0.00   0.00     0.03  -0.01   0.07
  37   1    -0.00  -0.00   0.00    -0.00  -0.00   0.01     0.06  -0.06   0.14
  38   6    -0.00   0.00  -0.01    -0.00  -0.00  -0.01    -0.00   0.00   0.00
  39   8    -0.01   0.00  -0.01    -0.01   0.00  -0.01    -0.00  -0.00  -0.00
  40   7    -0.00  -0.00   0.01    -0.01  -0.00  -0.00     0.01  -0.00   0.00
  41   1    -0.01  -0.00  -0.00     0.00  -0.00   0.00    -0.00   0.00  -0.00
  42   1     0.00   0.00   0.01     0.04  -0.01   0.02    -0.00  -0.00  -0.00
  43   7    -0.00  -0.00  -0.00    -0.01   0.00  -0.01     0.00  -0.00   0.00
  44   1     0.01  -0.01   0.00     0.02  -0.01   0.01    -0.02   0.01  -0.01
  45   1    -0.00  -0.00   0.00     0.01  -0.00   0.01     0.01  -0.00   0.00
  46   6    -0.00  -0.01   0.00     0.01  -0.00   0.01     0.02   0.11  -0.04
  47   8    -0.00  -0.01   0.01     0.01  -0.01   0.01     0.07   0.10  -0.05
  48   7    -0.00  -0.00   0.00     0.00   0.00  -0.01    -0.03  -0.28   0.13
  49   1     0.00   0.00   0.00    -0.00  -0.00  -0.00     0.04   0.02  -0.00
  50   1    -0.00   0.01  -0.00     0.00  -0.02   0.01     0.03   0.66  -0.54
  51   7     0.01   0.00  -0.00    -0.01  -0.01   0.01    -0.05  -0.10   0.19
  52   1     0.00   0.00  -0.00    -0.01   0.03  -0.05    -0.07   0.13  -0.17
  53   1     0.00  -0.00   0.01     0.00  -0.01  -0.01     0.01   0.01  -0.08
                     40                     41                     42
                        a                      a                      a 
 Frequencies --   426.1695               443.4518               445.4373
 Red. masses --     8.9153                 1.5840                 1.7465
 Frc consts  --     0.0000                 0.0000                 0.0000
 IR Inten    --     0.7645                 4.0453                 6.5423
 Raman Activ --     0.0000                 0.0000                 0.0000
 Depolar     --     0.0000                 0.0000                 0.0000
 Atom AN      X      Y      Z        X      Y      Z        X      Y      Z
   1   8     0.25  -0.07  -0.04    -0.00   0.00   0.00     0.00  -0.01  -0.00
   2   6    -0.04   0.11  -0.15     0.01  -0.01   0.01     0.00  -0.00   0.00
   3   1    -0.02   0.03  -0.04     0.00  -0.00  -0.00    -0.00  -0.00   0.00
   4   1    -0.03   0.01  -0.04     0.01  -0.00   0.00     0.00   0.00   0.00
   5   6    -0.15  -0.03   0.02     0.01   0.00   0.02     0.00   0.00   0.00
   6   1    -0.08  -0.03   0.05     0.01   0.00  -0.00     0.00   0.00  -0.00
   7   1     0.01  -0.08  -0.01     0.00   0.01   0.01     0.00   0.00   0.00
   8   7    -0.30   0.02   0.14     0.00  -0.02   0.01    -0.00  -0.00   0.00
   9   6    -0.26   0.20   0.16     0.00   0.02  -0.02    -0.00   0.00  -0.00
  10   1    -0.02   0.04   0.06     0.00   0.01  -0.01     0.00   0.00  -0.00
  11   1    -0.11   0.07   0.03    -0.01   0.01  -0.00    -0.00   0.00  -0.00
  12   1    -0.07   0.11   0.05     0.01   0.00  -0.01     0.00   0.00  -0.00
  13   6     0.38   0.15  -0.04    -0.00   0.00  -0.02     0.00   0.00  -0.00
  14   1     0.17   0.01  -0.06    -0.01   0.01   0.00     0.00   0.00  -0.00
  15   1     0.17  -0.06  -0.11     0.00  -0.01  -0.01     0.00  -0.00  -0.00
  16   1     0.18   0.21   0.07    -0.00   0.01  -0.01     0.00   0.00  -0.00
  17   6     0.03  -0.35  -0.07    -0.02  -0.01   0.01    -0.00  -0.00   0.00
  18   1    -0.03  -0.24  -0.02    -0.01   0.00  -0.00    -0.00  -0.00  -0.00
  19   1     0.13  -0.05  -0.08    -0.01  -0.00   0.00     0.00  -0.00  -0.00
  20   1     0.02  -0.10  -0.03    -0.01  -0.01   0.00    -0.00  -0.00   0.00
  21   1     0.06  -0.01  -0.02    -0.00   0.00  -0.00     0.00  -0.00   0.00
  22   6     0.00   0.00  -0.00    -0.00   0.00  -0.00    -0.07  -0.01   0.01
  23   8     0.00  -0.00  -0.00     0.00   0.00  -0.00    -0.08  -0.01   0.01
  24   7    -0.00   0.00  -0.00    -0.00   0.00  -0.00     0.05  -0.02   0.14
  25   1    -0.00   0.00   0.00    -0.00   0.00   0.00     0.06  -0.10  -0.51
  26   1     0.00   0.00   0.00    -0.00   0.00  -0.00     0.13  -0.04   0.40
  27   7    -0.00  -0.00  -0.00     0.00   0.00   0.00    -0.00   0.03  -0.13
  28   1    -0.00  -0.00   0.01     0.00  -0.00   0.00    -0.02   0.05  -0.46
  29   1    -0.00  -0.00  -0.00    -0.00  -0.00  -0.00     0.19   0.13   0.48
  30   6    -0.01   0.01   0.01     0.00  -0.00   0.00     0.02   0.01  -0.01
  31   8    -0.01   0.00   0.00     0.00  -0.00  -0.00     0.02   0.01   0.00
  32   7     0.02  -0.00  -0.01    -0.00  -0.00   0.00    -0.01   0.02   0.01
  33   1     0.02  -0.00   0.02    -0.00  -0.00   0.00    -0.02   0.00  -0.01
  34   1     0.01  -0.01   0.00    -0.00   0.00   0.00    -0.01   0.02   0.00
  35   7    -0.02   0.01  -0.00     0.00  -0.00  -0.00    -0.01  -0.02   0.00
  36   1    -0.00  -0.00   0.01     0.00  -0.00   0.00    -0.00  -0.01  -0.02
  37   1     0.01  -0.01   0.03     0.00  -0.00   0.00    -0.02   0.01  -0.02
  38   6     0.01   0.02  -0.01     0.03   0.05  -0.03     0.00   0.00  -0.00
  39   8     0.01   0.01  -0.01     0.03   0.05  -0.04     0.00   0.00  -0.00
  40   7    -0.01   0.01   0.03    -0.12   0.05  -0.00    -0.00   0.00   0.00
  41   1    -0.02  -0.01   0.00     0.37  -0.19   0.29    -0.00  -0.00   0.00
  42   1     0.00   0.01   0.02    -0.43   0.15  -0.12    -0.00   0.00   0.00
  43   7    -0.01  -0.03  -0.00     0.10  -0.08   0.03    -0.00  -0.00  -0.00
  44   1     0.00  -0.02  -0.01     0.37  -0.22   0.17    -0.00  -0.00  -0.00
  45   1    -0.01  -0.02   0.02    -0.47   0.05  -0.19    -0.00  -0.00   0.00
  46   6    -0.01  -0.01  -0.00     0.00   0.00   0.00     0.00   0.00   0.00
  47   8     0.00  -0.01  -0.00     0.00   0.00   0.00    -0.00   0.00   0.00
  48   7    -0.01   0.01  -0.00     0.00  -0.01   0.00     0.00  -0.00  -0.00
  49   1    -0.00   0.00   0.00     0.00  -0.00   0.00     0.00  -0.00   0.00
  50   1    -0.00  -0.02   0.02     0.00   0.01  -0.01     0.00   0.00  -0.00
  51   7     0.01   0.01  -0.00    -0.00  -0.00   0.00    -0.00  -0.00   0.00
  52   1     0.02  -0.02   0.02    -0.00   0.01  -0.01    -0.00   0.00  -0.00
  53   1     0.00   0.02   0.00    -0.00  -0.01   0.00    -0.00  -0.00  -0.00
                     43                     44                     45
                        a                      a                      a 
 Frequencies --   454.6824               457.2397               459.5971
 Red. masses --     8.1895                 8.4583                 6.8964
 Frc consts  --     0.0000                 0.0000                 0.0000
 IR Inten    --     9.9627                 8.2749               136.6956
 Raman Activ --     0.0000                 0.0000                 0.0000
 Depolar     --     0.0000                 0.0000                 0.0000
 Atom AN      X      Y      Z        X      Y      Z        X      Y      Z
   1   8    -0.03   0.03   0.00    -0.00   0.01   0.00    -0.00   0.01  -0.01
   2   6     0.09  -0.06   0.07     0.01  -0.00   0.01     0.16  -0.10   0.10
   3   1     0.01  -0.01   0.00     0.00  -0.00   0.00     0.03  -0.02   0.01
   4   1     0.05  -0.03   0.01     0.01  -0.00   0.00     0.08  -0.04   0.01
   5   6     0.12   0.02   0.14     0.01  -0.01   0.01     0.12  -0.07   0.23
   6   1     0.07   0.03  -0.01     0.00  -0.00   0.01     0.05  -0.02   0.07
   7   1     0.03   0.06   0.09     0.00  -0.00   0.00     0.03  -0.02   0.05
   8   7     0.02  -0.10   0.12     0.01   0.01   0.01     0.04   0.04   0.22
   9   6     0.01   0.06  -0.15    -0.00  -0.00  -0.01    -0.08  -0.02  -0.23
  10   1    -0.01   0.03  -0.07    -0.01  -0.00  -0.00    -0.11   0.01  -0.09
  11   1    -0.06   0.05  -0.06    -0.00  -0.00  -0.01    -0.06  -0.00  -0.10
  12   1     0.07   0.01  -0.08     0.00  -0.00  -0.01     0.07  -0.04  -0.13
  13   6    -0.05   0.06  -0.11    -0.01   0.02   0.00    -0.07   0.26  -0.05
  14   1    -0.03   0.09  -0.01    -0.00   0.01   0.00    -0.05   0.15   0.03
  15   1    -0.01  -0.02  -0.08    -0.00   0.00  -0.00    -0.01   0.03  -0.07
  16   1    -0.02   0.03  -0.07    -0.00   0.00  -0.00    -0.04   0.09  -0.08
  17   6    -0.15  -0.08   0.01    -0.00  -0.00  -0.01    -0.12  -0.11  -0.15
  18   1    -0.04   0.01  -0.04    -0.00  -0.00  -0.01    -0.05  -0.04  -0.09
  19   1    -0.04  -0.01  -0.01     0.00   0.00  -0.01     0.00   0.02  -0.12
  20   1    -0.09  -0.05   0.02    -0.01  -0.01  -0.00    -0.10  -0.12  -0.03
  21   1    -0.01   0.00   0.01    -0.00  -0.00   0.01     0.00  -0.01   0.01
  22   6    -0.00  -0.01   0.01     0.30   0.05  -0.05    -0.02  -0.02   0.02
  23   8    -0.00   0.00   0.00     0.34   0.05  -0.06    -0.03   0.01   0.01
  24   7     0.00  -0.01   0.00    -0.27   0.31   0.02     0.02  -0.04   0.01
  25   1    -0.00   0.00   0.02    -0.27  -0.11  -0.09     0.01   0.01   0.06
  26   1    -0.01  -0.00  -0.03    -0.09   0.32   0.04    -0.01  -0.03  -0.06
  27   7     0.01   0.00   0.00    -0.16  -0.38   0.05     0.03   0.03   0.01
  28   1     0.00   0.00  -0.02    -0.00  -0.33  -0.06     0.00   0.03  -0.05
  29   1     0.01  -0.00   0.00    -0.24   0.03   0.19     0.04  -0.00   0.01
  30   6     0.00   0.00  -0.02    -0.06  -0.01   0.00    -0.00   0.01  -0.05
  31   8     0.01  -0.00   0.02    -0.06  -0.02   0.02     0.03   0.00   0.04
  32   7    -0.01   0.00   0.02     0.02  -0.04  -0.01    -0.01   0.00   0.05
  33   1    -0.03   0.01  -0.07     0.02   0.03  -0.06    -0.06   0.04  -0.16
  34   1    -0.01   0.01  -0.02     0.01  -0.04  -0.01    -0.03   0.03  -0.06
  35   7     0.01  -0.02   0.02     0.02   0.04   0.02     0.03  -0.05   0.06
  36   1    -0.01   0.01  -0.04    -0.01   0.05  -0.02    -0.04   0.03  -0.11
  37   1    -0.03   0.04  -0.09     0.02   0.02  -0.04    -0.07   0.09  -0.23
  38   6     0.14   0.18  -0.14    -0.00  -0.00   0.00    -0.06  -0.08   0.07
  39   8     0.15   0.21  -0.15    -0.00  -0.00   0.00    -0.07  -0.10   0.07
  40   7    -0.13   0.06   0.33     0.00  -0.00  -0.00     0.06  -0.03  -0.14
  41   1    -0.22  -0.15   0.04     0.00   0.00  -0.00     0.09   0.08  -0.03
  42   1     0.00   0.13   0.26    -0.00  -0.00  -0.00     0.00  -0.07  -0.12
  43   7    -0.07  -0.33  -0.13     0.00   0.00   0.00     0.02   0.14   0.06
  44   1    -0.05  -0.19  -0.22    -0.00   0.00   0.00    -0.00   0.10   0.09
  45   1    -0.02  -0.17   0.20     0.00   0.00  -0.00     0.03   0.07  -0.08
  46   6    -0.00   0.00  -0.00    -0.01  -0.01  -0.01    -0.05  -0.05  -0.03
  47   8    -0.00   0.00  -0.00     0.01  -0.02  -0.01     0.04  -0.08  -0.06
  48   7    -0.00  -0.01   0.01    -0.02   0.01   0.01    -0.09   0.06   0.04
  49   1     0.00  -0.00   0.01     0.00   0.00   0.01     0.01   0.01   0.07
  50   1    -0.00   0.03  -0.02    -0.01   0.03  -0.01    -0.05   0.13  -0.06
  51   7     0.00   0.00   0.00     0.02  -0.00   0.02     0.06   0.00   0.08
  52   1    -0.00   0.01  -0.02     0.03  -0.01   0.01     0.13  -0.07   0.05
  53   1    -0.00  -0.02   0.01     0.01   0.05  -0.02     0.03   0.25  -0.11
                     46                     47                     48
                        a                      a                      a 
 Frequencies --   462.5239               464.5240               476.0190
 Red. masses --     3.9271                 3.7372                 7.2786
 Frc consts  --     0.0000                 0.0000                 0.0000
 IR Inten    --   345.8399                28.9624                23.3275
 Raman Activ --     0.0000                 0.0000                 0.0000
 Depolar     --     0.0000                 0.0000                 0.0000
 Atom AN      X      Y      Z        X      Y      Z        X      Y      Z
   1   8     0.03  -0.04  -0.01    -0.01  -0.01   0.01    -0.02   0.04   0.01
   2   6    -0.09   0.07  -0.04    -0.03   0.01  -0.02    -0.03   0.03  -0.00
   3   1    -0.01   0.01   0.02     0.01  -0.00   0.00    -0.05   0.02  -0.03
   4   1    -0.05   0.05  -0.00    -0.03   0.02   0.00     0.01  -0.03  -0.01
   5   6    -0.09   0.04  -0.17    -0.05  -0.04  -0.07     0.09   0.19   0.04
   6   1    -0.04   0.01  -0.04    -0.04  -0.03   0.02     0.11   0.13  -0.14
   7   1    -0.02   0.00  -0.05    -0.02  -0.04  -0.06     0.03   0.17   0.15
   8   7    -0.05  -0.00  -0.16     0.02   0.08  -0.06    -0.05  -0.31  -0.00
   9   6     0.02   0.02   0.16    -0.00  -0.07   0.06     0.13   0.25  -0.03
  10   1     0.07  -0.01   0.06    -0.02  -0.03   0.03     0.16   0.10  -0.05
  11   1     0.04   0.00   0.08     0.04  -0.04   0.03    -0.07   0.17   0.04
  12   1    -0.06   0.02   0.09    -0.04  -0.03   0.04     0.06   0.10  -0.02
  13   6     0.06  -0.15   0.03    -0.02  -0.02   0.09     0.07  -0.18  -0.26
  14   1     0.03  -0.11  -0.02    -0.00  -0.05   0.02     0.03   0.01  -0.07
  15   1     0.02  -0.02   0.05    -0.01   0.02   0.07     0.02  -0.09  -0.14
  16   1     0.03  -0.04   0.05    -0.01  -0.03   0.04     0.03  -0.00  -0.08
  17   6     0.09   0.07   0.09     0.08   0.08  -0.02    -0.20  -0.10   0.25
  18   1     0.03   0.01   0.06     0.03   0.02   0.02    -0.04   0.05   0.05
  19   1     0.01  -0.02   0.07     0.01   0.02  -0.00    -0.09  -0.07   0.13
  20   1     0.07   0.08   0.01     0.05   0.02  -0.02    -0.07   0.03   0.09
  21   1     0.05  -0.04   0.04    -0.01   0.01  -0.02     0.00   0.01   0.01
  22   6     0.00  -0.04   0.03    -0.02   0.01  -0.01     0.00   0.01  -0.00
  23   8    -0.01   0.03   0.01    -0.02  -0.01   0.00     0.01  -0.01   0.00
  24   7    -0.01  -0.03   0.02     0.02  -0.01  -0.01     0.00   0.01  -0.00
  25   1    -0.01   0.01   0.11     0.02   0.00  -0.04     0.00  -0.00  -0.02
  26   1    -0.04  -0.01  -0.13     0.02  -0.01   0.05     0.00   0.00   0.02
  27   7     0.04   0.01   0.02    -0.01   0.02  -0.01    -0.01  -0.00  -0.00
  28   1     0.00   0.02  -0.11    -0.00   0.01   0.04    -0.00  -0.01   0.02
  29   1     0.05   0.01   0.05    -0.00  -0.00  -0.03    -0.01  -0.00  -0.01
  30   6    -0.01   0.04  -0.09    -0.00  -0.03   0.02     0.01   0.00   0.01
  31   8     0.05  -0.02   0.10    -0.03   0.02  -0.04    -0.00  -0.00  -0.02
  32   7     0.00   0.02   0.11    -0.00  -0.02  -0.05     0.00   0.00  -0.01
  33   1    -0.11   0.10  -0.35     0.04  -0.04   0.13     0.01  -0.01   0.04
  34   1    -0.05   0.05  -0.12     0.02  -0.02   0.05     0.01  -0.01   0.02
  35   7     0.02  -0.11   0.14     0.02   0.05  -0.05    -0.01   0.01  -0.01
  36   1    -0.09   0.07  -0.24     0.04  -0.01   0.09     0.01  -0.01   0.02
[...]
  44   1     0.00   0.00   0.00    -0.00  -0.00   0.00     0.00   0.00  -0.00
  45   1     0.00  -0.00  -0.00     0.00  -0.00  -0.00     0.00  -0.00  -0.00
  46   6     0.00  -0.00  -0.00     0.00  -0.00  -0.00    -0.00   0.00  -0.00
  47   8    -0.00   0.00   0.00    -0.00   0.00   0.00    -0.00  -0.00  -0.00
  48   7    -0.00   0.00   0.00    -0.01   0.00   0.00     0.00  -0.01  -0.01
  49   1     0.01  -0.01  -0.01     0.03  -0.03  -0.02    -0.01   0.00   0.01
  50   1     0.00   0.00   0.00     0.00   0.01   0.01     0.01   0.02   0.03
  51   7    -0.00  -0.00  -0.00     0.00  -0.00   0.00    -0.10   0.14   0.07
  52   1     0.00   0.00   0.00     0.00   0.00   0.00    -0.27  -0.58  -0.36
  53   1    -0.00  -0.00  -0.00    -0.00  -0.00  -0.00     0.64   0.05   0.12
                    142                    143                    144
                        a                      a                      a 
 Frequencies --  3496.0784              3499.8193              3500.0594
 Red. masses --     1.4387                 1.4635                 1.4391
 Frc consts  --     0.0000                 0.0000                 0.0000
 IR Inten    --    40.1187                 3.8551                37.4349
 Raman Activ --     0.0000                 0.0000                 0.0000
 Depolar     --     0.0000                 0.0000                 0.0000
 Atom AN      X      Y      Z        X      Y      Z        X      Y      Z
   1   8    -0.00   0.00   0.00     0.00  -0.00  -0.00    -0.00   0.00   0.00
   2   6     0.00  -0.00   0.00    -0.00  -0.00   0.00     0.00  -0.00  -0.00
   3   1     0.00   0.00   0.00    -0.00  -0.00  -0.00    -0.00   0.00   0.00
   4   1    -0.00  -0.00  -0.00    -0.00   0.00  -0.00     0.00  -0.00   0.00
   5   6     0.00   0.00   0.00     0.00   0.00  -0.00     0.00   0.00  -0.00
   6   1     0.00  -0.00  -0.00     0.00  -0.00  -0.00     0.00   0.00  -0.00
   7   1     0.00   0.00  -0.00    -0.00  -0.00   0.00    -0.00  -0.00   0.00
   8   7    -0.00   0.00  -0.00    -0.00  -0.00  -0.00    -0.00   0.00  -0.00
   9   6     0.00   0.00   0.00     0.00   0.00  -0.00     0.00   0.00  -0.00
  10   1    -0.00  -0.00  -0.00    -0.00  -0.00   0.00     0.00   0.00  -0.00
  11   1     0.00   0.00  -0.00    -0.00  -0.00   0.00    -0.00  -0.00   0.00
  12   1    -0.00   0.00  -0.00    -0.00   0.00  -0.00     0.00  -0.00   0.00
  13   6     0.00  -0.00   0.00     0.00   0.00  -0.00     0.00  -0.00  -0.00
  14   1    -0.00   0.00  -0.00    -0.00   0.00  -0.00     0.00  -0.00   0.00
  15   1     0.00   0.00   0.00    -0.00  -0.00   0.00     0.00  -0.00  -0.00
  16   1     0.00  -0.00   0.00    -0.00   0.00   0.00    -0.00  -0.00   0.00
  17   6    -0.00   0.00   0.00     0.00  -0.00   0.00    -0.00   0.00   0.00
  18   1     0.00  -0.00   0.00    -0.00   0.00   0.00    -0.00  -0.00   0.00
  19   1     0.00  -0.00  -0.00     0.00  -0.00  -0.00     0.00  -0.00  -0.00
  20   1    -0.00  -0.00  -0.00    -0.00  -0.00  -0.00     0.00  -0.00   0.00
  21   1     0.00  -0.00  -0.00     0.00   0.00   0.00    -0.00  -0.00  -0.00
  22   6    -0.00   0.00  -0.00    -0.00  -0.00   0.00    -0.00  -0.00  -0.00
  23   8    -0.00   0.00   0.00     0.01   0.00  -0.00     0.00   0.00  -0.00
  24   7     0.05   0.11  -0.06    -0.04  -0.11   0.05    -0.00  -0.00   0.00
  25   1     0.32  -0.36   0.08    -0.30   0.34  -0.07    -0.00   0.00  -0.00
  26   1    -0.52  -0.06   0.14     0.45   0.05  -0.12     0.00   0.00  -0.00
  27   7    -0.09   0.08  -0.03    -0.09   0.10  -0.03    -0.00   0.00  -0.00
  28   1     0.48   0.09  -0.02     0.52   0.10  -0.03     0.01   0.00  -0.00
  29   1    -0.15  -0.39   0.14    -0.17  -0.45   0.16    -0.00  -0.01   0.00
  30   6     0.00  -0.00  -0.00    -0.00  -0.00  -0.00     0.00  -0.00  -0.00
  31   8    -0.00   0.00   0.00    -0.00  -0.00   0.00    -0.00   0.00   0.00
  32   7    -0.00  -0.00  -0.00     0.00   0.00  -0.00     0.00  -0.00  -0.00
  33   1    -0.00   0.00   0.00     0.01  -0.01  -0.01    -0.00   0.00   0.00
  34   1     0.00   0.00  -0.00    -0.02  -0.00   0.01    -0.00  -0.00   0.00
  35   7     0.00  -0.00  -0.00     0.00  -0.01  -0.00    -0.00  -0.00  -0.00
  36   1    -0.00  -0.00   0.00    -0.02  -0.01   0.00     0.00   0.00  -0.00
  37   1     0.00   0.00   0.00     0.01   0.03   0.01     0.00   0.00   0.00
  38   6     0.00  -0.00  -0.00     0.00  -0.00  -0.00    -0.00   0.00   0.00
  39   8    -0.00   0.00  -0.00    -0.00  -0.00  -0.00     0.00   0.00   0.00
  40   7    -0.00  -0.00  -0.00    -0.00  -0.00  -0.00     0.00   0.12   0.02
  41   1    -0.00   0.00   0.00    -0.00   0.00   0.00     0.20  -0.11  -0.35
  42   1     0.00   0.00  -0.00     0.00   0.00  -0.00    -0.21  -0.34   0.28
  43   7     0.00  -0.00  -0.00     0.00  -0.00  -0.00    -0.08   0.02   0.11
  44   1    -0.00  -0.00   0.00    -0.00  -0.01   0.00     0.32   0.38  -0.25
  45   1     0.00   0.00   0.00     0.00   0.01   0.00    -0.01  -0.47  -0.16
  46   6    -0.00  -0.00  -0.00    -0.00  -0.00  -0.00     0.00   0.00  -0.00
  47   8     0.00   0.00   0.00    -0.00   0.00   0.00    -0.00  -0.00   0.00
  48   7    -0.00   0.00  -0.00    -0.00   0.00  -0.00    -0.00   0.00   0.00
  49   1     0.00  -0.00  -0.00     0.00  -0.00  -0.00     0.00  -0.00  -0.00
  50   1     0.00   0.00   0.00     0.00   0.00   0.00     0.00   0.00   0.00
  51   7    -0.00   0.00   0.00    -0.00   0.00   0.00    -0.00   0.00   0.00
  52   1    -0.00  -0.00  -0.00    -0.00  -0.00  -0.00    -0.00  -0.00  -0.00
  53   1     0.00  -0.00   0.00     0.00   0.00   0.00     0.00   0.00  -0.00
                    145                    146                    147
                        a                      a                      a 
 Frequencies --  3504.2217              3522.0937              3529.4359
 Red. masses --     1.4624                 1.9039                 2.0565
 Frc consts  --     0.0000                 0.0000                 0.0000
 IR Inten    --     8.0280                 8.8712                97.9658
 Raman Activ --     0.0000                 0.0000                 0.0000
 Depolar     --     0.0000                 0.0000                 0.0000
 Atom AN      X      Y      Z        X      Y      Z        X      Y      Z
   1   8     0.00   0.00   0.00     0.00   0.00   0.00    -0.00   0.00   0.00
   2   6    -0.00   0.00   0.00    -0.00   0.00   0.00     0.00   0.00  -0.00
   3   1    -0.00   0.00   0.00     0.00  -0.00  -0.00     0.00   0.00   0.00
   4   1    -0.00  -0.00  -0.00     0.00  -0.00  -0.00     0.00  -0.00   0.00
   5   6     0.00   0.00  -0.00    -0.00  -0.00  -0.00    -0.00  -0.00   0.00
   6   1     0.00   0.00  -0.00     0.00   0.00   0.00    -0.00  -0.00  -0.00
   7   1    -0.00  -0.00   0.00     0.00  -0.00  -0.00     0.00   0.00  -0.00
   8   7    -0.00  -0.00   0.00     0.00  -0.00   0.00    -0.00   0.00  -0.00
   9   6     0.00   0.00  -0.00    -0.00  -0.00  -0.00     0.00   0.00   0.00
  10   1     0.00   0.00  -0.00     0.00   0.00   0.00    -0.00  -0.00  -0.00
  11   1    -0.00  -0.00   0.00     0.00   0.00  -0.00     0.00   0.00  -0.00
  12   1    -0.00   0.00  -0.00     0.00  -0.00   0.00    -0.00   0.00  -0.00
  13   6     0.00   0.00  -0.00    -0.00   0.00   0.00    -0.00  -0.00   0.00
  14   1    -0.00   0.00  -0.00    -0.00  -0.00  -0.00    -0.00   0.00  -0.00
  15   1    -0.00  -0.00   0.00    -0.00  -0.00   0.00     0.00   0.00  -0.00
  16   1     0.00   0.00  -0.00     0.00  -0.00  -0.00     0.00  -0.00   0.00
  17   6     0.00   0.00   0.00     0.00  -0.00  -0.00    -0.00   0.00   0.00
  18   1    -0.00   0.00   0.00    -0.00   0.00   0.00     0.00  -0.00   0.00
  19   1     0.00  -0.00  -0.00     0.00   0.00   0.00    -0.00  -0.00  -0.00
  20   1     0.00   0.00  -0.00     0.00  -0.00   0.00    -0.00   0.00  -0.00
  21   1    -0.00  -0.00  -0.00    -0.00  -0.00  -0.00    -0.00  -0.01  -0.01
  22   6    -0.00  -0.00   0.00     0.00   0.00  -0.00     0.00   0.00  -0.00
  23   8     0.00   0.00  -0.00    -0.00  -0.00   0.00    -0.00  -0.00  -0.00
  24   7    -0.00  -0.00   0.00    -0.00  -0.00   0.00    -0.00  -0.00   0.00
  25   1    -0.00   0.00  -0.00    -0.00   0.00  -0.00    -0.00   0.00  -0.00
  26   1     0.00   0.00  -0.00     0.00   0.00  -0.00     0.01   0.00  -0.00
  27   7    -0.00   0.00  -0.00     0.00  -0.00   0.00    -0.01   0.00   0.00
  28   1     0.00   0.00  -0.00    -0.00  -0.00   0.00     0.02   0.00  -0.00
  29   1    -0.00  -0.00   0.00     0.00   0.00  -0.00    -0.00  -0.00   0.00
  30   6    -0.00  -0.00  -0.00     0.00   0.00  -0.00     0.01   0.01   0.00
  31   8     0.00   0.00   0.00    -0.00  -0.00   0.00     0.00  -0.00   0.00
  32   7     0.00   0.00   0.00    -0.00  -0.00  -0.00    -0.02   0.02   0.01
  33   1     0.00  -0.00  -0.00    -0.00   0.00   0.00     0.05  -0.07  -0.03
  34   1    -0.00  -0.00   0.00     0.00   0.00  -0.00     0.00   0.00  -0.00
  35   7    -0.00  -0.00  -0.00    -0.00  -0.01  -0.00     0.14   0.24   0.05
  36   1     0.00   0.00  -0.00     0.01   0.00  -0.00    -0.26  -0.07   0.07
  37   1     0.00   0.00   0.00     0.01   0.02   0.01    -0.29  -0.83  -0.26
  38   6    -0.00  -0.00   0.00    -0.00   0.00  -0.00     0.00   0.00  -0.00
  39   8     0.00   0.00  -0.00     0.00  -0.00   0.00    -0.00  -0.00   0.00
  40   7    -0.00  -0.14  -0.03    -0.00  -0.00  -0.00     0.00  -0.00  -0.00
  41   1    -0.24   0.13   0.42    -0.00   0.00   0.00    -0.00   0.00   0.00
  42   1     0.24   0.38  -0.32     0.00   0.00  -0.00     0.00  -0.00   0.00
  43   7    -0.07   0.03   0.10    -0.00  -0.00   0.00    -0.00  -0.00   0.00
  44   1     0.27   0.32  -0.21     0.00   0.00  -0.00     0.00   0.00  -0.00
  45   1    -0.01  -0.41  -0.14    -0.00  -0.00  -0.00     0.00  -0.00  -0.00
  46   6     0.00  -0.00  -0.00     0.00  -0.01  -0.01    -0.00  -0.00  -0.00
  47   8    -0.00   0.00   0.00    -0.00   0.00   0.00     0.00   0.00   0.00
  48   7     0.00   0.00   0.00    -0.07  -0.16  -0.20    -0.00  -0.00  -0.00
  49   1     0.00  -0.00  -0.00    -0.07   0.05   0.03    -0.01   0.00   0.00
  50   1    -0.00  -0.00  -0.00     0.32   0.55   0.72     0.01   0.01   0.02
  51   7     0.00  -0.00  -0.00     0.02   0.01   0.01     0.00   0.00   0.00
  52   1     0.00   0.00   0.00    -0.01  -0.02  -0.01    -0.00  -0.00  -0.00
  53   1    -0.00   0.00  -0.00    -0.08  -0.00  -0.01    -0.00  -0.00  -0.00
                    148                    149                    150
                        a                      a                      a 
 Frequencies --  3556.7865              3558.2268              3559.3011
 Red. masses --     2.1705                 2.0448                 2.1886
 Frc consts  --     0.0000                 0.0000                 0.0000
 IR Inten    --     6.5601                44.5862                15.5584
 Raman Activ --     0.0000                 0.0000                 0.0000
 Depolar     --     0.0000                 0.0000                 0.0000
 Atom AN      X      Y      Z        X      Y      Z        X      Y      Z
   1   8    -0.00  -0.00  -0.00     0.00   0.00   0.00     0.00   0.00   0.00
   2   6     0.00   0.00   0.00     0.00   0.00  -0.00    -0.00   0.00  -0.00
   3   1    -0.00   0.00   0.00     0.00   0.00   0.00    -0.00  -0.00  -0.00
   4   1    -0.00   0.00  -0.00     0.00  -0.00   0.00     0.00  -0.00   0.00
   5   6     0.00   0.00   0.00    -0.00  -0.00  -0.00    -0.00  -0.00  -0.00
   6   1     0.00  -0.00  -0.00    -0.00   0.00   0.00    -0.00   0.00   0.00
   7   1    -0.00  -0.00   0.00     0.00   0.00   0.00    -0.00  -0.00   0.00
   8   7     0.00  -0.00  -0.00    -0.00  -0.00  -0.00     0.00  -0.00   0.00
   9   6     0.00   0.00   0.00    -0.00  -0.00  -0.00    -0.00  -0.00  -0.00
  10   1    -0.00  -0.00  -0.00     0.00   0.00   0.00     0.00   0.00   0.00
  11   1    -0.00   0.00   0.00     0.00   0.00  -0.00    -0.00   0.00  -0.00
  12   1    -0.00   0.00   0.00     0.00   0.00  -0.00     0.00   0.00   0.00
  13   6     0.00   0.00  -0.00    -0.00  -0.00   0.00    -0.00   0.00   0.00
  14   1    -0.00   0.00   0.00    -0.00   0.00  -0.00     0.00  -0.00   0.00
  15   1    -0.00  -0.00   0.00     0.00   0.00  -0.00    -0.00  -0.00  -0.00
  16   1    -0.00   0.00   0.00     0.00  -0.00   0.00     0.00   0.00  -0.00
  17   6    -0.00   0.00   0.00    -0.00  -0.00  -0.00     0.00  -0.00  -0.00
  18   1     0.00   0.00   0.00     0.00  -0.00  -0.00    -0.00   0.00  -0.00
  19   1     0.00  -0.00  -0.00    -0.00   0.00   0.00    -0.00   0.00   0.00
  20   1    -0.00   0.00  -0.00     0.00   0.00   0.00     0.00   0.00   0.00
  21   1     0.00   0.00   0.00    -0.00  -0.00  -0.00    -0.00  -0.00  -0.00
  22   6    -0.00  -0.00   0.00     0.00   0.00  -0.00     0.00  -0.01   0.00
  23   8     0.00   0.00  -0.00    -0.00  -0.00   0.00    -0.00   0.00   0.00
  24   7     0.00  -0.00  -0.00    -0.03   0.01   0.00     0.21  -0.09  -0.01
  25   1    -0.00   0.00  -0.00     0.04  -0.05   0.01    -0.33   0.40  -0.09
  26   1    -0.00  -0.00   0.00     0.07   0.01  -0.02    -0.45  -0.07   0.13
  27   7    -0.00  -0.00   0.00     0.00   0.00  -0.00    -0.15  -0.13   0.04
  28   1     0.00   0.00  -0.00    -0.00  -0.00  -0.00     0.42   0.07  -0.01
  29   1     0.00   0.00  -0.00    -0.00  -0.01   0.00     0.14   0.42  -0.15
  30   6    -0.00  -0.00   0.00     0.01  -0.00  -0.00     0.00   0.00  -0.00
  31   8     0.00  -0.00  -0.00    -0.00   0.00   0.00    -0.00  -0.00   0.00
  32   7    -0.00   0.00   0.00     0.21  -0.16  -0.10     0.02  -0.01  -0.01
  33   1     0.00  -0.00  -0.00    -0.53   0.67   0.31    -0.05   0.06   0.03
  34   1     0.00   0.00  -0.00    -0.25  -0.07   0.07    -0.02  -0.01   0.01
  35   7    -0.00  -0.00  -0.00     0.01   0.02   0.00     0.00   0.00   0.00
  36   1     0.00  -0.00  -0.00    -0.04  -0.01   0.01    -0.00  -0.00   0.00
  37   1     0.00   0.00   0.00    -0.02  -0.07  -0.02    -0.00  -0.00  -0.00
  38   6    -0.00  -0.00   0.00     0.00   0.00  -0.00    -0.00   0.00   0.00
  39   8     0.00   0.00  -0.00    -0.00  -0.00   0.00     0.00  -0.00   0.00
  40   7    -0.00   0.00   0.00    -0.00  -0.00   0.00    -0.00  -0.00   0.00
  41   1     0.00  -0.00  -0.00    -0.00   0.00   0.00     0.00  -0.00  -0.00
  42   1     0.00   0.00  -0.00     0.00   0.00  -0.00     0.00   0.00  -0.00
  43   7     0.00   0.00  -0.00     0.00   0.00  -0.00     0.00   0.00  -0.00
  44   1    -0.00  -0.00   0.00    -0.00  -0.00   0.00    -0.00  -0.00   0.00
  45   1    -0.00  -0.00  -0.00     0.00  -0.00  -0.00     0.00  -0.00  -0.00
  46   6     0.01   0.00   0.00     0.00   0.00   0.00     0.00   0.00   0.00
  47   8    -0.00  -0.00  -0.00    -0.00  -0.00  -0.00    -0.00  -0.00  -0.00
  48   7     0.00   0.01   0.01     0.00  -0.00  -0.00     0.00  -0.00  -0.00
  49   1     0.01  -0.00  -0.00    -0.01   0.01   0.00    -0.00   0.00   0.00
  50   1    -0.03  -0.04  -0.05    -0.00  -0.00  -0.00     0.00   0.00  -0.00
  51   7     0.24   0.14   0.11     0.00   0.00   0.00    -0.00  -0.00  -0.00
  52   1    -0.21  -0.51  -0.31    -0.00  -0.00  -0.00     0.00   0.00   0.00
  53   1    -0.70  -0.02  -0.12    -0.00  -0.00  -0.00     0.00   0.00   0.00
                    151                    152                    153
                        a                      a                      a 
 Frequencies --  3564.5527              3564.8012              3570.0404
 Red. masses --     2.1898                 2.1752                 2.1766
 Frc consts  --     0.0000                 0.0000                 0.0000
 IR Inten    --    13.4088                18.6542                11.1246
 Raman Activ --     0.0000                 0.0000                 0.0000
 Depolar     --     0.0000                 0.0000                 0.0000
 Atom AN      X      Y      Z        X      Y      Z        X      Y      Z
   1   8     0.00   0.00   0.00     0.00   0.00   0.00     0.00   0.00   0.00
   2   6     0.00  -0.00  -0.00     0.00  -0.00  -0.00    -0.00  -0.00   0.00
   3   1     0.00   0.00   0.00     0.00   0.00   0.00    -0.00   0.00   0.00
   4   1    -0.00  -0.00   0.00     0.00  -0.00  -0.00    -0.00  -0.00  -0.00
   5   6     0.00   0.00  -0.00    -0.00  -0.00   0.00     0.00   0.00  -0.00
   6   1     0.00   0.00  -0.00    -0.00   0.00   0.00     0.00   0.00  -0.00
   7   1    -0.00  -0.00   0.00     0.00   0.00  -0.00    -0.00  -0.00   0.00
   8   7     0.00   0.00  -0.00    -0.00  -0.00  -0.00    -0.00  -0.00   0.00
   9   6     0.00   0.00  -0.00    -0.00  -0.00  -0.00     0.00   0.00  -0.00
  10   1     0.00  -0.00  -0.00     0.00   0.00   0.00     0.00  -0.00  -0.00
  11   1    -0.00  -0.00   0.00     0.00   0.00  -0.00    -0.00  -0.00   0.00
  12   1     0.00   0.00  -0.00     0.00  -0.00  -0.00     0.00   0.00  -0.00
  13   6    -0.00  -0.00   0.00    -0.00   0.00   0.00     0.00   0.00  -0.00
  14   1     0.00  -0.00   0.00     0.00   0.00  -0.00     0.00   0.00  -0.00
  15   1     0.00   0.00  -0.00     0.00   0.00   0.00    -0.00  -0.00   0.00
  16   1    -0.00  -0.00   0.00     0.00  -0.00   0.00     0.00   0.00  -0.00
  17   6    -0.00   0.00   0.00    -0.00  -0.00  -0.00     0.00   0.00   0.00
  18   1    -0.00  -0.00  -0.00     0.00  -0.00  -0.00    -0.00   0.00   0.00
  19   1     0.00  -0.00  -0.00    -0.00   0.00   0.00     0.00  -0.00  -0.00
  20   1     0.00  -0.00   0.00     0.00   0.00  -0.00    -0.00   0.00  -0.00
  21   1    -0.00  -0.00  -0.00    -0.00  -0.00  -0.00    -0.00  -0.00  -0.00
  22   6     0.00   0.00  -0.00     0.01   0.00  -0.00    -0.00  -0.00   0.00
  23   8    -0.00  -0.00   0.00    -0.00  -0.00   0.00     0.00   0.00  -0.00
  24   7     0.00  -0.00  -0.00     0.18  -0.07  -0.01    -0.00   0.00   0.00
  25   1    -0.01   0.01  -0.00    -0.28   0.34  -0.08     0.00  -0.00   0.00
  26   1    -0.01  -0.00   0.00    -0.41  -0.06   0.12     0.00   0.00  -0.00
  27   7     0.00   0.00  -0.00     0.17   0.14  -0.05    -0.00  -0.00   0.00
  28   1    -0.01  -0.00   0.00    -0.49  -0.08   0.02     0.00   0.00  -0.00
  29   1    -0.00  -0.01   0.00    -0.15  -0.46   0.17     0.00   0.00  -0.00
  30   6     0.00  -0.00  -0.00     0.00  -0.00  -0.00    -0.00  -0.00  -0.00
  31   8    -0.00   0.00   0.00     0.00   0.00   0.00     0.00   0.00   0.00
  32   7     0.00  -0.00  -0.00     0.01  -0.01  -0.01    -0.00   0.00   0.00
  33   1    -0.00   0.00   0.00    -0.03   0.04   0.02     0.00  -0.00  -0.00
  34   1    -0.00  -0.00   0.00    -0.02  -0.01   0.01     0.00   0.00  -0.00
  35   7     0.00   0.00   0.00     0.00   0.00   0.00     0.00   0.00   0.00
  36   1    -0.00  -0.00   0.00    -0.02  -0.01   0.00     0.00   0.00  -0.00
  37   1    -0.00  -0.00  -0.00    -0.00  -0.01  -0.00    -0.00  -0.00  -0.00
  38   6    -0.00   0.01   0.01     0.00  -0.00  -0.00     0.01   0.01  -0.01
  39   8    -0.00  -0.00  -0.00    -0.00   0.00   0.00    -0.00  -0.00   0.00
  40   7    -0.10  -0.04   0.17     0.00   0.00  -0.00     0.12   0.05  -0.18
  41   1     0.23  -0.14  -0.40    -0.01   0.00   0.01    -0.25   0.16   0.44
  42   1     0.17   0.30  -0.23    -0.00  -0.01   0.01    -0.20  -0.35   0.26
  43   7     0.07   0.21  -0.01    -0.00  -0.01   0.00     0.07   0.19  -0.01
  44   1    -0.28  -0.30   0.22     0.01   0.01  -0.01    -0.26  -0.28   0.21
  45   1     0.00  -0.50  -0.18    -0.00   0.01   0.00     0.00  -0.44  -0.16
  46   6     0.00   0.00  -0.00     0.00   0.00  -0.00     0.00  -0.00  -0.00
  47   8    -0.00  -0.00   0.00    -0.00  -0.00  -0.00    -0.00   0.00   0.00
  48   7    -0.00   0.00   0.00     0.00  -0.00  -0.00    -0.00  -0.00  -0.00
  49   1     0.00  -0.00  -0.00    -0.00   0.00   0.00     0.00  -0.00  -0.00
  50   1     0.00   0.00   0.00     0.00   0.00   0.00     0.00   0.00   0.00
  51   7    -0.00  -0.00  -0.00    -0.00  -0.00  -0.00    -0.00  -0.00  -0.00
  52   1     0.00   0.00   0.00     0.00   0.00   0.00     0.00   0.00   0.00
  53   1     0.00   0.00   0.00     0.00   0.00   0.00     0.00   0.00   0.00
