 Entering Gaussian System
 *********************************************
 Gaussian 98:
 frequency output generated by the xtb code
 *********************************************
                         Standard orientation:
 --------------------------------------------------------------------
  Center     Atomic     Atomic              Coordinates (Angstroms)
  Number     Number      Type              X           Y           Z
 --------------------------------------------------------------------
    1          8             0        0.316107   -4.129784   -3.118727
    2          6             0       -0.826057   -3.497324   -2.598004
    3          1             0       -1.134962   -2.767843   -3.348026
    4          1             0       -1.648341   -4.212045   -2.476850
    5          6             0       -0.614170   -2.824307   -1.234655
    6          1             0       -0.233536   -3.564366   -0.526117
    7          1             0       -1.584512   -2.455030   -0.889526
    8          7             0        0.312358   -1.660996   -1.210701
    9          6             0        0.305549   -1.105401    0.154150
   10          1             0       -0.696447   -0.749751    0.389407
   11          1             0        1.010890   -0.278070    0.209243
   12          1             0        0.595987   -1.864511    0.877064
   13          6             0       -0.140913   -0.600033   -2.124681
   14          1             0       -0.082059   -0.936682   -3.155829
   15          1             0        0.515607    0.258285   -2.000515
   16          1             0       -1.165822   -0.332794   -1.871961
   17          6             0        1.687967   -2.043935   -1.564189
   18          1             0        1.709241   -2.495831   -2.553404
   19          1             0        2.076615   -2.756517   -0.839307
   20          1             0        2.306686   -1.147556   -1.554614
   21          1             0        0.463752   -4.972684   -2.677044
   22          6             0        3.530297    1.401620   -0.790999
   23          8             0        2.446013    1.014260   -1.222917
   24          7             0        4.487534    1.882673   -1.622149
   25          1             0        4.325675    1.854966   -2.612688
   26          1             0        5.403747    2.130420   -1.297092
   27          7             0        3.846697    1.350254    0.517855
   28          1             0        4.684873    1.787106    0.856527
   29          1             0        3.119909    1.142347    1.193748
   30          6             0       -0.991775    2.201648    0.281917
   31          8             0       -1.645122    1.857501    1.273344
   32          7             0       -1.602498    2.463100   -0.903223
   33          1             0       -2.605033    2.537554   -0.910786
   34          1             0       -1.097568    2.917447   -1.642872
   35          7             0        0.342596    2.325042    0.314266
   36          1             0        0.873817    2.378481   -0.539601
   37          1             0        0.834009    1.920352    1.114040
   38          6             0       -3.909248   -0.550346   -0.050765
   39          8             0       -2.831117   -0.900431   -0.523703
   40          7             0       -5.034228   -1.296524   -0.225729
   41          1             0       -5.003178   -2.056665   -0.881661
   42          1             0       -5.938830   -0.940904    0.026010
   43          7             0       -4.052935    0.584429    0.659041
   44          1             0       -4.904102    0.766109    1.160220
   45          1             0       -3.208005    1.075168    0.960121
   46          6             0        1.091938    0.887614    3.445813
   47          8             0        1.672360    0.946095    2.357048
   48          7             0       -0.221362    1.116443    3.567225
   49          1             0       -0.769876    1.397658    2.749215
   50          1             0       -0.671721    1.100477    4.463617
   51          7             0        1.763487    0.543173    4.572578
   52          1             0        1.334804    0.582770    5.478825
   53          1             0        2.759912    0.429929    4.524046
 --------------------------------------------------------------------
     1 basis functions        1 primitive gaussians
     1 alpha electrons        1 beta electrons

 Harmonic frequencies (cm**-1), IR intensities (km*mol⁻¹),
 Raman scattering activities (A**4/amu), Raman depolarization ratios,
 reduced masses (AMU), force constants (mDyne/A) and normal coordinates:
                      1                      2                      3
                        a                      a                      a 
 Frequencies --    15.6091                19.9109                30.3676
 Red. masses --    12.7205                12.5896                12.4449
 Frc consts  --     0.0000                 0.0000                 0.0000
 IR Inten    --     0.6448                 0.2836                 0.2766
 Raman Activ --     0.0000                 0.0000                 0.0000
 Depolar     --     0.0000                 0.0000                 0.0000
 Atom AN      X      Y      Z        X      Y      Z        X      Y      Z
   1   8    -0.13   0.20  -0.32    -0.08   0.10  -0.20    -0.16   0.40  -0.26
   2   6    -0.08   0.09  -0.11    -0.06   0.06  -0.12    -0.13   0.11   0.08
   3   1    -0.05   0.04  -0.01    -0.02   0.03  -0.02    -0.11   0.06   0.07
   4   1    -0.01   0.01  -0.03    -0.02   0.01  -0.04    -0.01  -0.00   0.03
   5   6     0.03  -0.01  -0.08    -0.05  -0.01  -0.09     0.00  -0.06   0.14
   6   1     0.02  -0.02  -0.05    -0.02  -0.01  -0.04     0.02  -0.04   0.01
   7   1     0.01  -0.01   0.01    -0.01  -0.00  -0.02     0.01  -0.03   0.07
   8   7     0.03  -0.01  -0.08    -0.03  -0.03  -0.04     0.00  -0.07   0.22
   9   6     0.08  -0.07  -0.05    -0.04  -0.06  -0.02    -0.04  -0.09   0.21
  10   1     0.03  -0.02   0.00    -0.01  -0.01  -0.01    -0.01  -0.02   0.05
  11   1     0.02  -0.02  -0.01    -0.01  -0.02   0.00    -0.00  -0.04   0.08
  12   1     0.03  -0.03  -0.03    -0.02  -0.03  -0.01    -0.03  -0.04   0.06
  13   6    -0.01   0.03  -0.01     0.02   0.00  -0.02     0.05  -0.05   0.20
  14   1    -0.02   0.02  -0.01     0.01   0.01  -0.01     0.03  -0.01   0.06
  15   1    -0.00   0.01   0.00     0.01  -0.00   0.01     0.01  -0.01   0.07
  16   1    -0.00   0.01   0.01     0.00   0.00  -0.01     0.01  -0.02   0.04
  17   6     0.01   0.00  -0.15    -0.02  -0.05  -0.02     0.02  -0.06   0.24
  18   1    -0.01   0.02  -0.05    -0.00  -0.01  -0.01     0.01  -0.01   0.07
  19   1     0.01  -0.01  -0.06    -0.02  -0.02  -0.01    -0.00  -0.02   0.07
  20   1     0.00   0.00  -0.04    -0.00  -0.02   0.01     0.00  -0.02   0.08
  21   1    -0.01   0.04  -0.11    -0.02   0.02  -0.06     0.01   0.08  -0.12
  22   6     0.06  -0.09   0.08     0.01  -0.06   0.04     0.06   0.06   0.01
  23   8     0.08  -0.06   0.03     0.01  -0.08   0.07     0.11  -0.11   0.07
  24   7     0.14  -0.17   0.13     0.01  -0.10   0.01    -0.03   0.18  -0.03
  25   1     0.05  -0.04   0.03    -0.00  -0.04   0.00    -0.00   0.00  -0.01
  26   1     0.03  -0.05   0.05     0.00  -0.02  -0.00    -0.01   0.06  -0.02
  27   7    -0.02  -0.08   0.10     0.02  -0.01   0.04     0.10   0.19   0.01
  28   1    -0.00  -0.03   0.04     0.01  -0.00   0.00     0.01   0.09  -0.01
  29   1    -0.02  -0.01   0.02     0.01   0.00   0.02     0.03   0.04   0.01
  30   6     0.01   0.05  -0.09    -0.03  -0.15   0.08     0.03  -0.06  -0.10
  31   8    -0.04   0.17  -0.10     0.01  -0.21   0.10     0.04  -0.11  -0.12
  32   7     0.04   0.03  -0.13    -0.07  -0.19   0.10     0.03  -0.07  -0.11
  33   1     0.01   0.04  -0.04    -0.02  -0.07   0.03     0.01  -0.03  -0.03
  34   1     0.02  -0.01  -0.04    -0.03  -0.05   0.02     0.00  -0.01  -0.03
  35   7     0.01  -0.05  -0.09    -0.03  -0.09   0.06     0.03  -0.01  -0.09
  36   1     0.01  -0.03  -0.02    -0.01  -0.02   0.01     0.01   0.01  -0.02
  37   1    -0.01  -0.01  -0.01     0.00  -0.02   0.01     0.01   0.00  -0.03
  38   6     0.07  -0.11   0.19    -0.04  -0.02  -0.11    -0.06  -0.02  -0.02
  39   8     0.08  -0.08   0.19    -0.06   0.00  -0.16    -0.05  -0.13   0.08
  40   7     0.13  -0.23   0.36    -0.07   0.03  -0.23    -0.09   0.03  -0.03
  41   1     0.04  -0.08   0.12    -0.02   0.03  -0.08    -0.02  -0.01   0.01
  42   1     0.03  -0.07   0.10    -0.02   0.01  -0.05    -0.02   0.03  -0.03
  43   7     0.03  -0.05   0.09    -0.02  -0.10   0.01    -0.04   0.06  -0.15
  44   1     0.01  -0.02   0.03    -0.01  -0.04   0.01    -0.01   0.04  -0.05
  45   1     0.00   0.01  -0.00    -0.00  -0.04   0.02    -0.01   0.00  -0.03
  46   6    -0.12   0.10   0.01     0.12   0.21   0.12     0.03  -0.04  -0.08
  47   8    -0.11   0.01   0.02     0.07   0.05   0.08     0.07   0.06  -0.08
  48   7    -0.12   0.19  -0.03     0.13   0.20   0.16     0.01  -0.18  -0.12
  49   1    -0.02   0.05  -0.02     0.02   0.01   0.04     0.01  -0.04  -0.03
  50   1    -0.04   0.07  -0.01     0.05   0.10   0.05    -0.00  -0.06  -0.04
  51   7    -0.18   0.14   0.05     0.22   0.50   0.15     0.03  -0.03  -0.08
  52   1    -0.05   0.05   0.01     0.07   0.15   0.04     0.00  -0.03  -0.03
  53   1    -0.05   0.02   0.02     0.06   0.12   0.03     0.01   0.01  -0.02
                      4                      5                      6
                        a                      a                      a 
 Frequencies --    35.2418                37.1228                40.8001
 Red. masses --    12.1872                11.8746                12.5255
 Frc consts  --     0.0000                 0.0000                 0.0000
 IR Inten    --     0.6891                 4.7413                 1.2481
 Raman Activ --     0.0000                 0.0000                 0.0000
 Depolar     --     0.0000                 0.0000                 0.0000
 Atom AN      X      Y      Z        X      Y      Z        X      Y      Z
   1   8     0.29   0.14   0.05    -0.19   0.09  -0.03    -0.14  -0.08   0.11
   2   6     0.17   0.08  -0.08    -0.11  -0.01   0.19    -0.08   0.07   0.02
   3   1     0.07   0.02  -0.03    -0.09  -0.01   0.07     0.01   0.02  -0.01
   4   1     0.05   0.01  -0.05    -0.01  -0.02   0.11    -0.05   0.05   0.00
   5   6    -0.00   0.07  -0.04     0.10   0.03   0.14    -0.06   0.10   0.00
   6   1    -0.01   0.02  -0.01     0.07   0.02   0.03    -0.04   0.03   0.01
   7   1    -0.02   0.00  -0.04     0.04   0.00   0.08    -0.01   0.06  -0.01
   8   7    -0.08   0.13   0.07     0.07   0.06  -0.05     0.03   0.03  -0.01
   9   6    -0.20   0.07   0.09     0.20   0.16  -0.08     0.05   0.06  -0.03
  10   1    -0.07   0.00   0.01     0.06   0.04   0.00     0.02   0.04  -0.01
  11   1    -0.07   0.03   0.05     0.05   0.05  -0.07     0.03   0.00  -0.01
  12   1    -0.06   0.01   0.02     0.09   0.06  -0.02    -0.00   0.02  -0.00
  13   6    -0.07   0.12   0.07    -0.06  -0.02  -0.07     0.13   0.04  -0.04
  14   1     0.00   0.05   0.02    -0.04  -0.02  -0.02     0.04   0.01  -0.01
  15   1    -0.03   0.04   0.04    -0.03   0.01  -0.05     0.05  -0.00  -0.01
  16   1    -0.03   0.02   0.01    -0.02  -0.02  -0.00     0.04   0.03  -0.02
  17   6    -0.03   0.20   0.15     0.04   0.07  -0.17     0.00  -0.09   0.02
  18   1     0.02   0.06   0.04    -0.02   0.01  -0.04    -0.00  -0.03   0.01
  19   1    -0.01   0.06   0.05     0.04   0.03  -0.05    -0.02  -0.03   0.01
  20   1    -0.02   0.07   0.06     0.00   0.02  -0.08     0.02  -0.04   0.01
  21   1     0.07   0.04   0.01    -0.01   0.02  -0.02    -0.06  -0.02   0.04
  22   6     0.06  -0.11  -0.03    -0.03  -0.01  -0.07     0.12  -0.05   0.08
  23   8    -0.06   0.18  -0.00    -0.10   0.12  -0.04     0.17  -0.20   0.14
  24   7     0.17  -0.37  -0.05     0.08  -0.34  -0.14     0.13  -0.16   0.02
  25   1     0.02  -0.06  -0.01     0.01  -0.08  -0.03     0.04  -0.10   0.01
  26   1     0.06  -0.14  -0.02     0.01  -0.07  -0.04     0.03  -0.02   0.00
  27   7     0.10  -0.24  -0.04    -0.06   0.14  -0.07     0.09   0.22   0.10
  28   1     0.06  -0.12  -0.02     0.01  -0.01  -0.03     0.01   0.09   0.01
  29   1     0.02  -0.02  -0.01    -0.02   0.07  -0.01     0.02   0.07   0.03
  30   6     0.01   0.01  -0.03     0.02  -0.07   0.03    -0.13   0.05  -0.01
  31   8     0.02  -0.13  -0.08    -0.01  -0.07   0.03    -0.07  -0.02   0.02
  32   7     0.01   0.00  -0.04     0.08  -0.25  -0.03    -0.24   0.18   0.07
  33   1     0.00  -0.03  -0.02     0.02  -0.09  -0.03    -0.06   0.04   0.04
  34   1    -0.01   0.03   0.00     0.02  -0.06  -0.01    -0.08   0.06   0.01
  35   7    -0.01   0.15   0.01     0.01   0.07   0.11    -0.13   0.01  -0.11
  36   1     0.00   0.06   0.01     0.01   0.00   0.03    -0.05   0.04  -0.03
  37   1     0.00   0.04   0.00    -0.00   0.05   0.05    -0.02  -0.00  -0.04
  38   6    -0.12  -0.08   0.03     0.03   0.00  -0.04     0.03  -0.00  -0.00
  39   8    -0.19  -0.12  -0.06     0.07  -0.03   0.06     0.03   0.23  -0.18
  40   7    -0.16  -0.07   0.14     0.04   0.01  -0.12     0.11  -0.13  -0.01
  41   1    -0.06  -0.02   0.04     0.02  -0.01  -0.02     0.04   0.01  -0.05
  42   1    -0.03  -0.01   0.06     0.01   0.01  -0.05     0.02  -0.07   0.03
  43   7    -0.05  -0.07   0.01    -0.01   0.03  -0.11    -0.03  -0.15   0.22
  44   1    -0.00  -0.01   0.02    -0.01   0.01  -0.05    -0.00  -0.09   0.09
  45   1    -0.00  -0.02  -0.01    -0.01   0.00  -0.01    -0.02  -0.02   0.05
  46   6     0.03   0.01  -0.05    -0.03   0.01   0.11     0.00  -0.01  -0.10
  47   8     0.05   0.12  -0.04     0.08   0.30   0.21    -0.00   0.18  -0.10
  48   7    -0.00  -0.16  -0.07    -0.09  -0.22   0.02    -0.05  -0.33  -0.11
  49   1    -0.00  -0.04  -0.02    -0.01  -0.04   0.01    -0.02  -0.06  -0.02
  50   1    -0.00  -0.05  -0.02    -0.05  -0.11  -0.01    -0.01  -0.09  -0.03
  51   7     0.05   0.07  -0.05    -0.11  -0.09   0.14     0.07   0.08  -0.12
  52   1     0.01  -0.00  -0.02    -0.05  -0.06   0.03     0.01  -0.04  -0.03
  53   1     0.02   0.05  -0.01    -0.02   0.04   0.06     0.02   0.06  -0.03
                      7                      8                      9
                        a                      a                      a 
 Frequencies --    42.6470                46.1130                48.8407
 Red. masses --    12.1945                12.2405                12.0457
 Frc consts  --     0.0000                 0.0000                 0.0000
 IR Inten    --     0.8976                 4.0498                 1.5423
 Raman Activ --     0.0000                 0.0000                 0.0000
 Depolar     --     0.0000                 0.0000                 0.0000
 Atom AN      X      Y      Z        X      Y      Z        X      Y      Z
   1   8    -0.01   0.17  -0.11    -0.02   0.15  -0.02     0.22  -0.05  -0.07
   2   6     0.00  -0.01   0.12    -0.03   0.07   0.03     0.14  -0.01  -0.20
   3   1    -0.06   0.00   0.06    -0.03   0.02   0.01     0.08   0.01  -0.06
   4   1     0.03  -0.03   0.06     0.00   0.01   0.01     0.03   0.01  -0.10
   5   6     0.13  -0.07   0.13    -0.03   0.07   0.03    -0.02  -0.07  -0.14
   6   1     0.07  -0.02   0.02    -0.02   0.02   0.01    -0.02  -0.03  -0.04
   7   1     0.04  -0.03   0.07    -0.01   0.03   0.00    -0.01  -0.03  -0.06
   8   7     0.10  -0.03   0.09     0.01   0.04   0.05    -0.03  -0.07   0.01
   9   6     0.12  -0.01   0.07    -0.09   0.11   0.01    -0.10  -0.18   0.06
  10   1     0.03  -0.01   0.03    -0.03   0.05  -0.03    -0.03  -0.06   0.01
  11   1     0.03   0.00   0.01    -0.02   0.02   0.01    -0.03  -0.05   0.05
  12   1     0.05   0.00   0.02    -0.05   0.04   0.02    -0.03  -0.07   0.00
  13   6     0.02  -0.06   0.08     0.14  -0.01  -0.06     0.00   0.02   0.09
  14   1     0.00  -0.02   0.02     0.07  -0.02  -0.01     0.00   0.03   0.02
  15   1    -0.01  -0.01   0.02     0.04  -0.01  -0.02     0.01  -0.00   0.04
  16   1     0.00  -0.03   0.03     0.04   0.01  -0.05     0.00   0.01   0.03
  17   6     0.09   0.01   0.03     0.03  -0.04   0.20    -0.01  -0.02   0.04
  18   1     0.02  -0.00   0.01     0.03  -0.03   0.07     0.01   0.02   0.00
  19   1     0.04   0.01   0.01    -0.02  -0.00   0.08    -0.01  -0.02  -0.00
  20   1     0.02   0.01  -0.00     0.02  -0.02   0.06    -0.01  -0.00   0.04
  21   1     0.04   0.04  -0.05     0.00   0.04  -0.01     0.03  -0.02  -0.01
  22   6    -0.02  -0.10  -0.04     0.01   0.00  -0.01    -0.01   0.02  -0.06
  23   8    -0.09   0.08  -0.05    -0.01   0.06  -0.02     0.00  -0.12   0.01
  24   7     0.04  -0.22  -0.03     0.04  -0.07  -0.01     0.06  -0.35  -0.20
  25   1    -0.00  -0.02  -0.01     0.01  -0.00  -0.00     0.02  -0.16  -0.05
  26   1     0.02  -0.08  -0.01     0.01  -0.01  -0.00    -0.00  -0.03  -0.06
  27   7    -0.00  -0.25  -0.05    -0.00  -0.02  -0.01    -0.11   0.56  -0.03
  28   1     0.02  -0.10  -0.01     0.00  -0.02  -0.00    -0.02   0.14  -0.03
  29   1    -0.01  -0.04  -0.01    -0.00   0.00  -0.01    -0.02   0.14  -0.00
  30   6    -0.16   0.12   0.09    -0.04  -0.09  -0.04    -0.02   0.02   0.05
  31   8    -0.13   0.11   0.13    -0.02   0.01   0.02    -0.03   0.11   0.08
  32   7    -0.26   0.30   0.18    -0.06  -0.36  -0.09    -0.03   0.05   0.06
  33   1    -0.07   0.11   0.07    -0.02  -0.13  -0.03    -0.01   0.04   0.03
  34   1    -0.08   0.08   0.04    -0.03  -0.12  -0.04    -0.00   0.00   0.01
  35   7    -0.16   0.00  -0.02    -0.05   0.03  -0.05    -0.01  -0.10   0.01
  36   1    -0.06   0.02  -0.01    -0.01  -0.02  -0.02    -0.01  -0.04   0.00
  37   1    -0.03  -0.02  -0.02    -0.01   0.04  -0.00    -0.01  -0.03   0.01
  38   6     0.07  -0.02  -0.06     0.03   0.01  -0.00     0.00   0.04   0.04
  39   8     0.15  -0.07   0.14     0.01   0.19  -0.19     0.02  -0.05   0.15
  40   7     0.07   0.02  -0.29     0.07  -0.05  -0.01    -0.03   0.12  -0.02
  41   1     0.05   0.00  -0.07     0.02   0.02  -0.05    -0.01   0.02   0.01
  42   1     0.01   0.01  -0.12     0.02  -0.04   0.03    -0.01   0.05  -0.02
  43   7    -0.02  -0.02  -0.10     0.02  -0.13   0.22     0.01   0.09  -0.02
  44   1    -0.03   0.00  -0.07     0.01  -0.07   0.08    -0.00   0.04  -0.03
  45   1    -0.02  -0.01   0.01     0.00  -0.02   0.05     0.00   0.02   0.01
  46   6     0.01   0.00  -0.07    -0.00   0.02  -0.02    -0.01  -0.01   0.04
  47   8    -0.08  -0.09  -0.14    -0.03   0.06  -0.03    -0.00   0.02   0.05
  48   7     0.05   0.16   0.03     0.08   0.43   0.08     0.02   0.12   0.06
  49   1    -0.00   0.04   0.01     0.01   0.10   0.02     0.00   0.04   0.02
  50   1     0.03   0.05   0.02     0.01   0.04   0.02     0.00   0.01   0.01
  51   7     0.07  -0.05  -0.13    -0.07  -0.44  -0.11    -0.04  -0.16   0.02
  52   1     0.04   0.01  -0.02     0.01  -0.05  -0.02    -0.01  -0.03   0.01
  53   1     0.02  -0.03  -0.06    -0.02  -0.12  -0.04    -0.01  -0.05   0.00
                     10                     11                     12
                        a                      a                      a 
 Frequencies --    53.0262                57.4203                64.8563
 Red. masses --    11.7005                12.8127                13.8496
 Frc consts  --     0.0000                 0.0000                 0.0000
 IR Inten    --     2.0473                 5.6096                 8.4866
 Raman Activ --     0.0000                 0.0000                 0.0000
 Depolar     --     0.0000                 0.0000                 0.0000
 Atom AN      X      Y      Z        X      Y      Z        X      Y      Z
   1   8    -0.03  -0.15   0.16     0.10   0.03  -0.01     0.11  -0.05  -0.11
   2   6     0.03   0.06   0.00     0.07   0.07  -0.10     0.07  -0.07  -0.13
   3   1     0.06   0.02  -0.02     0.05   0.03  -0.03     0.02  -0.02  -0.04
   4   1    -0.03   0.06  -0.01     0.01   0.03  -0.05     0.02  -0.03  -0.05
   5   6     0.02   0.09  -0.01    -0.01   0.03  -0.06     0.00  -0.08  -0.11
   6   1     0.01   0.03  -0.00    -0.03  -0.00  -0.02    -0.00  -0.02  -0.03
   7   1     0.01   0.03   0.00    -0.01   0.02  -0.03    -0.00  -0.03  -0.04
   8   7     0.02   0.10  -0.03     0.04  -0.01   0.04    -0.01  -0.07  -0.07
   9   6     0.20  -0.05   0.03    -0.03  -0.08   0.07    -0.06  -0.07  -0.06
  10   1     0.07  -0.03   0.06    -0.01  -0.02   0.01    -0.02  -0.03  -0.02
  11   1     0.06  -0.01   0.00    -0.01  -0.03   0.04    -0.03  -0.01  -0.02
  12   1     0.09  -0.03  -0.03    -0.02  -0.03   0.01    -0.01  -0.02  -0.02
  13   6    -0.11   0.18   0.15     0.12   0.04   0.06     0.00  -0.06  -0.06
  14   1    -0.08   0.08   0.03     0.03   0.02   0.01     0.01  -0.01  -0.02
  15   1    -0.02   0.05   0.04     0.05  -0.00   0.02    -0.00  -0.02  -0.01
  16   1    -0.02   0.05   0.10     0.04   0.03   0.02    -0.00  -0.02  -0.02
  17   6    -0.03   0.13  -0.26     0.04  -0.05   0.11     0.00  -0.06  -0.03
  18   1    -0.05   0.07  -0.09     0.02  -0.01   0.03     0.01  -0.00  -0.01
  19   1     0.02   0.02  -0.11    -0.00  -0.02   0.03    -0.01  -0.03  -0.01
  20   1    -0.01   0.04  -0.07     0.02  -0.02   0.04     0.00  -0.02   0.01
  21   1    -0.05  -0.03   0.07     0.00   0.00  -0.00     0.03  -0.01  -0.03
  22   6     0.14   0.02   0.10    -0.03   0.02  -0.08    -0.04  -0.12   0.09
  23   8     0.18   0.01   0.06    -0.06   0.15  -0.15    -0.05  -0.24   0.21
  24   7     0.17   0.05   0.15     0.01   0.01  -0.02    -0.23   0.13   0.03
  25   1     0.06   0.01   0.04     0.00   0.05  -0.01    -0.08   0.01   0.01
  26   1     0.04   0.01   0.05     0.00  -0.00   0.01    -0.04   0.00  -0.02
  27   7     0.10   0.01   0.12    -0.05  -0.16  -0.09     0.14  -0.26   0.05
  28   1     0.02   0.01   0.04    -0.01  -0.07  -0.01     0.02  -0.01  -0.01
  29   1     0.02   0.00   0.02    -0.02  -0.04  -0.03     0.04  -0.04   0.03
  30   6    -0.09  -0.14  -0.06    -0.08  -0.11  -0.01    -0.05   0.06   0.01
  31   8    -0.05  -0.14  -0.02    -0.09   0.16   0.09     0.01   0.09   0.06
  32   7    -0.16  -0.25  -0.05    -0.10  -0.35  -0.06    -0.12  -0.07   0.01
  33   1    -0.04  -0.08  -0.00    -0.03  -0.08  -0.01    -0.03  -0.04   0.01
  34   1    -0.06  -0.06  -0.02    -0.02  -0.15  -0.05    -0.05  -0.01  -0.01
  35   7    -0.11  -0.10  -0.12    -0.08  -0.20  -0.08    -0.07   0.17  -0.04
  36   1    -0.03  -0.01  -0.03    -0.02  -0.11  -0.03    -0.03   0.05  -0.02
  37   1    -0.01  -0.01  -0.03    -0.02  -0.02  -0.00     0.00   0.08  -0.01
  38   6    -0.10   0.02   0.04     0.09   0.17   0.09     0.04   0.04   0.05
  39   8    -0.07  -0.08   0.23     0.18   0.26   0.21     0.06  -0.05   0.16
  40   7    -0.13   0.07  -0.04     0.15   0.14  -0.03     0.01   0.11  -0.00
  41   1    -0.02  -0.01   0.02     0.07   0.04  -0.01     0.00   0.01   0.02
  42   1    -0.04   0.03  -0.04     0.03   0.02  -0.03     0.00   0.04  -0.02
  43   7    -0.15   0.12  -0.11    -0.03   0.16   0.10     0.05   0.10  -0.03
  44   1    -0.05   0.05  -0.05    -0.02   0.03   0.01     0.01   0.04  -0.03
  45   1    -0.04   0.01  -0.00    -0.02   0.06   0.05     0.01   0.02   0.01
  46   6     0.04   0.01  -0.08    -0.05  -0.05  -0.02     0.04   0.14   0.01
  47   8    -0.01   0.00  -0.12    -0.06  -0.08  -0.02     0.11   0.58   0.07
  48   7     0.08   0.15   0.00    -0.11  -0.32  -0.06     0.01  -0.03  -0.00
  49   1     0.01   0.02   0.00    -0.02  -0.05  -0.01     0.00   0.02   0.01
  50   1     0.03   0.01   0.00    -0.02  -0.02  -0.01    -0.02  -0.11  -0.01
  51   7     0.08  -0.12  -0.14    -0.00   0.23   0.03     0.00  -0.16  -0.05
  52   1     0.04  -0.01  -0.03    -0.02   0.02   0.00    -0.00  -0.07  -0.02
  53   1     0.02  -0.04  -0.05    -0.00   0.06   0.01     0.01   0.04  -0.00
                     13                     14                     15
                        a                      a                      a 
 Frequencies --    70.7692                76.9222                87.0668
 Red. masses --    12.3444                11.0207                12.6462
 Frc consts  --     0.0000                 0.0000                 0.0000
 IR Inten    --     1.7170                 1.5974                 0.5045
 Raman Activ --     0.0000                 0.0000                 0.0000
 Depolar     --     0.0000                 0.0000                 0.0000
 Atom AN      X      Y      Z        X      Y      Z        X      Y      Z
   1   8     0.03   0.01  -0.02     0.13   0.13  -0.10     0.06   0.07  -0.03
   2   6     0.02  -0.04   0.02     0.03  -0.19   0.11     0.00  -0.09   0.04
   3   1    -0.01  -0.01   0.01    -0.09  -0.09   0.04    -0.04  -0.04   0.01
   4   1     0.01  -0.02   0.01     0.07  -0.12   0.08     0.03  -0.06   0.03
   5   6     0.03  -0.05   0.03     0.09  -0.09   0.05    -0.00  -0.02   0.01
   6   1     0.02  -0.01   0.00     0.06   0.00   0.02     0.01   0.01   0.01
   7   1     0.01  -0.03   0.02     0.02  -0.05   0.03    -0.00  -0.01  -0.00
   8   7    -0.03  -0.01   0.02    -0.02  -0.00  -0.11    -0.03  -0.00  -0.05
   9   6     0.03  -0.06   0.04    -0.11   0.20  -0.18    -0.12   0.12  -0.10
  10   1     0.01  -0.03   0.03    -0.04   0.05  -0.08    -0.04   0.04  -0.06
  11   1    -0.00  -0.01   0.01    -0.04   0.07  -0.08    -0.03   0.03  -0.04
  12   1     0.03  -0.02  -0.00    -0.03   0.09  -0.02    -0.05   0.05  -0.00
  13   6    -0.13   0.01   0.09    -0.08  -0.18  -0.27     0.01  -0.10  -0.18
  14   1    -0.05   0.01   0.02    -0.00  -0.09  -0.06     0.02  -0.06  -0.04
  15   1    -0.04   0.01   0.02    -0.05  -0.03  -0.10     0.00  -0.02  -0.07
  16   1    -0.04  -0.01   0.05    -0.03  -0.07  -0.10    -0.00  -0.02  -0.07
  17   6    -0.03   0.07  -0.08     0.03   0.07   0.01     0.01  -0.00   0.08
  18   1    -0.02   0.03  -0.03     0.03  -0.00   0.01     0.02  -0.03   0.04
  19   1     0.02   0.02  -0.04     0.01   0.05   0.03    -0.01   0.02   0.05
  20   1    -0.02   0.03  -0.03    -0.01   0.03  -0.01    -0.00   0.00   0.01
  21   1     0.02   0.00  -0.01     0.12   0.04  -0.03     0.05   0.02  -0.01
  22   6     0.04   0.01  -0.02    -0.01  -0.00   0.14     0.19   0.03  -0.13
  23   8     0.07   0.01  -0.07     0.03  -0.07   0.10     0.29   0.00  -0.28
  24   7     0.06   0.08   0.02     0.06  -0.08   0.18     0.26   0.17   0.00
  25   1     0.03   0.02   0.00     0.03  -0.04   0.05     0.11   0.04  -0.01
  26   1     0.01   0.01   0.01     0.00   0.01   0.06     0.06   0.03   0.03
  27   7     0.01  -0.02  -0.02    -0.12   0.16   0.18     0.10  -0.06  -0.11
  28   1    -0.00   0.00   0.00    -0.04   0.04   0.05     0.01   0.00  -0.00
  29   1    -0.00  -0.01  -0.01    -0.04   0.02   0.04     0.01  -0.01  -0.04
  30   6     0.06   0.05  -0.06    -0.01   0.01  -0.01    -0.08  -0.07   0.04
  31   8     0.07   0.16  -0.04     0.05   0.08   0.06    -0.07  -0.01   0.07
  32   7     0.06   0.01  -0.08    -0.07  -0.16  -0.01    -0.13   0.15   0.11
  33   1     0.02   0.04  -0.01    -0.02  -0.06   0.00    -0.03   0.10   0.06
  34   1     0.02  -0.00  -0.02    -0.03  -0.05  -0.02    -0.03   0.03   0.03
  35   7     0.07  -0.04  -0.10    -0.01   0.10  -0.06    -0.06  -0.40  -0.08
  36   1     0.02  -0.03  -0.03    -0.01   0.00  -0.02    -0.02  -0.09  -0.02
  37   1     0.01   0.00  -0.02     0.00   0.03  -0.02    -0.01  -0.08  -0.01
  38   6    -0.02  -0.06   0.07    -0.02   0.06   0.06    -0.09   0.00   0.02
  39   8    -0.05  -0.14   0.07    -0.06  -0.05   0.08    -0.11  -0.04   0.05
  40   7    -0.18   0.27  -0.35    -0.10   0.19   0.08    -0.11   0.00   0.08
  41   1    -0.07   0.12  -0.15    -0.05   0.04   0.03    -0.03  -0.01   0.03
  42   1    -0.03   0.09  -0.07    -0.02   0.07   0.03    -0.03   0.01   0.01
  43   7     0.16  -0.35   0.53     0.08   0.10   0.05    -0.10   0.06  -0.05
  44   1     0.03  -0.05   0.11     0.02   0.04   0.01    -0.03   0.02  -0.01
  45   1     0.05  -0.09   0.11     0.03   0.01   0.02    -0.03   0.01  -0.01
  46   6    -0.06   0.03  -0.01     0.01  -0.07  -0.08    -0.00   0.05   0.11
  47   8    -0.01   0.08   0.03    -0.13  -0.19  -0.17     0.10   0.17   0.18
  48   7    -0.08  -0.04  -0.07     0.02  -0.11   0.04    -0.01   0.02   0.04
  49   1    -0.01   0.01  -0.02    -0.00  -0.02   0.02     0.00   0.00   0.01
  50   1    -0.03  -0.01  -0.02     0.04   0.02   0.03    -0.02  -0.04   0.00
  51   7    -0.11   0.02   0.02     0.18   0.10  -0.13    -0.10  -0.09   0.14
  52   1    -0.05  -0.01  -0.00     0.07  -0.00  -0.02    -0.04  -0.01   0.03
  53   1    -0.03   0.01   0.02     0.04  -0.01  -0.07    -0.02   0.02   0.06
                     16                     17                     18
                        a                      a                      a 
 Frequencies --    98.6819               101.1907               106.9517
 Red. masses --    12.3010                12.1473                12.3376
 Frc consts  --     0.0000                 0.0000                 0.0000
 IR Inten    --     0.6390                14.5303                18.6497
 Raman Activ --     0.0000                 0.0000                 0.0000
 Depolar     --     0.0000                 0.0000                 0.0000
 Atom AN      X      Y      Z        X      Y      Z        X      Y      Z
   1   8    -0.21  -0.22  -0.04     0.10   0.07  -0.05    -0.02  -0.04  -0.06
   2   6    -0.09   0.06  -0.11     0.11   0.06   0.03    -0.03  -0.12   0.02
   3   1     0.04   0.04  -0.04     0.02   0.02   0.02    -0.03  -0.03   0.02
   4   1    -0.07   0.07  -0.05     0.03   0.02   0.01     0.00  -0.05   0.01
   5   6    -0.04  -0.00  -0.09     0.17   0.02   0.04    -0.02  -0.17   0.05
   6   1    -0.04  -0.02  -0.03     0.04  -0.00   0.01     0.02  -0.05  -0.00
   7   1    -0.00   0.02  -0.03     0.05   0.02   0.01    -0.01  -0.07   0.02
   8   7     0.09  -0.11  -0.03     0.25  -0.03   0.02    -0.12  -0.10   0.07
   9   6     0.01  -0.07  -0.03     0.34  -0.06   0.03    -0.04  -0.21   0.11
  10   1     0.00  -0.01  -0.03     0.11  -0.02   0.04    -0.01  -0.08   0.06
  11   1     0.00  -0.02   0.00     0.10  -0.02  -0.00    -0.02  -0.05   0.04
  12   1    -0.02  -0.02   0.00     0.11  -0.02  -0.00     0.01  -0.07   0.01
  13   6     0.27  -0.06  -0.07     0.20   0.01   0.07    -0.26  -0.05   0.19
  14   1     0.11  -0.02  -0.02     0.05   0.01   0.02    -0.09   0.01   0.05
  15   1     0.09  -0.03  -0.00     0.06  -0.00   0.02    -0.09  -0.01   0.06
  16   1     0.08   0.01  -0.06     0.06  -0.00   0.03    -0.07  -0.04   0.08
  17   6     0.07  -0.26   0.10     0.19  -0.08  -0.08    -0.11   0.06  -0.08
  18   1     0.03  -0.10   0.04     0.03  -0.01  -0.03    -0.05   0.04  -0.03
  19   1    -0.01  -0.07   0.05     0.06  -0.03  -0.04     0.01   0.01  -0.05
  20   1     0.05  -0.09   0.02     0.07  -0.03  -0.03    -0.05   0.03  -0.02
  21   1    -0.12  -0.07  -0.01     0.02   0.01  -0.03     0.01  -0.02  -0.03
  22   6     0.02   0.14  -0.01    -0.08  -0.07  -0.05     0.03   0.08   0.01
  23   8    -0.01   0.40  -0.13    -0.06  -0.16  -0.06     0.04   0.22  -0.11
  24   7     0.21  -0.01   0.12    -0.12  -0.02  -0.07     0.17   0.02   0.13
  25   1     0.07   0.05   0.03    -0.04  -0.01  -0.02     0.07   0.03   0.03
  26   1     0.05  -0.02   0.06    -0.04   0.02  -0.02     0.04  -0.01   0.07
  27   7    -0.09   0.03   0.02    -0.08  -0.07  -0.06    -0.08   0.01   0.04
  28   1    -0.01  -0.04   0.03    -0.03  -0.00  -0.02    -0.02  -0.02   0.03
  29   1    -0.04   0.02  -0.01    -0.02  -0.02  -0.01    -0.04   0.02  -0.00
  30   6     0.00   0.07   0.04    -0.02  -0.01   0.01    -0.02   0.04   0.01
  31   8     0.04   0.00   0.04     0.03   0.00   0.05     0.05   0.16   0.10
  32   7    -0.02  -0.01   0.03    -0.09   0.01   0.05    -0.11  -0.05   0.04
  33   1    -0.01  -0.03   0.01    -0.03  -0.01   0.02    -0.03  -0.01   0.03
  34   1    -0.02   0.02   0.01    -0.04  -0.01  -0.00    -0.04  -0.05  -0.02
  35   7    -0.01   0.25   0.05    -0.02  -0.04  -0.06    -0.02  -0.01  -0.10
  36   1    -0.00   0.06   0.01    -0.02  -0.00  -0.02    -0.01  -0.03  -0.03
  37   1     0.00   0.07   0.01    -0.00  -0.01  -0.02     0.00   0.02  -0.02
  38   6    -0.04  -0.08   0.04    -0.14   0.08  -0.02     0.11   0.04  -0.15
  39   8    -0.07  -0.28   0.13    -0.31   0.04  -0.31     0.02   0.09  -0.44
  40   7    -0.15   0.09   0.02    -0.26   0.16   0.26     0.12  -0.03   0.14
  41   1    -0.06   0.00   0.03    -0.13   0.06   0.05    -0.00   0.01   0.02
  42   1    -0.03   0.06  -0.01    -0.04   0.07   0.12     0.04  -0.01   0.08
  43   7     0.08  -0.02  -0.03     0.05   0.08   0.05     0.23   0.04  -0.13
  44   1     0.02   0.03  -0.03     0.05   0.02   0.07     0.08  -0.01   0.01
  45   1     0.03  -0.03  -0.00     0.03   0.00  -0.01     0.07   0.01  -0.05
  46   6    -0.01   0.02  -0.01    -0.07  -0.00   0.03     0.02   0.03   0.03
  47   8    -0.08   0.11  -0.04    -0.09  -0.01   0.02    -0.04   0.18   0.01
  48   7    -0.02  -0.03   0.06    -0.07  -0.01   0.04     0.00  -0.08   0.10
  49   1    -0.01  -0.00   0.02    -0.02   0.00   0.01    -0.00   0.01   0.04
  50   1     0.00  -0.02   0.02    -0.02   0.00   0.01     0.01  -0.03   0.03
  51   7     0.06  -0.01  -0.07    -0.06   0.01   0.03     0.09  -0.05  -0.04
  52   1     0.03  -0.02  -0.01    -0.02   0.00   0.01     0.04  -0.04  -0.00
  53   1     0.02   0.01  -0.03    -0.02   0.00   0.01     0.03   0.01  -0.03
                     19                     20                     21
                        a                      a                      a 
 Frequencies --   110.9582               120.6823               128.5524
 Red. masses --    13.7850                13.8337                12.4223
 Frc consts  --     0.0000                 0.0000                 0.0000
 IR Inten    --    11.9233                 3.6039                 9.1902
 Raman Activ --     0.0000                 0.0000                 0.0000
 Depolar     --     0.0000                 0.0000                 0.0000
 Atom AN      X      Y      Z        X      Y      Z        X      Y      Z
   1   8    -0.05  -0.04  -0.01    -0.04   0.02   0.10    -0.07   0.01   0.11
   2   6    -0.03  -0.02   0.01    -0.01   0.14  -0.00    -0.03   0.16   0.00
   3   1    -0.01  -0.01   0.00     0.03   0.04  -0.01     0.03   0.05  -0.01
   4   1    -0.01  -0.00   0.01    -0.03   0.06  -0.02    -0.03   0.07  -0.01
   5   6     0.01  -0.01   0.00    -0.03   0.12   0.00    -0.03   0.14  -0.00
   6   1     0.00  -0.00   0.00    -0.01   0.03  -0.00    -0.01   0.04  -0.00
   7   1     0.00   0.00   0.00    -0.01   0.03  -0.00    -0.01   0.05  -0.00
   8   7     0.02  -0.02  -0.03    -0.02   0.12   0.03    -0.00   0.13   0.01
   9   6     0.03   0.01  -0.04    -0.03   0.10   0.02    -0.04   0.14  -0.00
  10   1     0.01   0.01  -0.01    -0.01   0.03   0.00    -0.01   0.05  -0.01
  11   1     0.01   0.00  -0.01    -0.01   0.03   0.01    -0.00   0.03   0.00
  12   1     0.00   0.01  -0.01    -0.02   0.03   0.01    -0.03   0.04   0.01
  13   6     0.03  -0.03  -0.05     0.01   0.12   0.02     0.07   0.11  -0.04
  14   1     0.02  -0.01  -0.01     0.01   0.04   0.01     0.04   0.03  -0.01
  15   1     0.01  -0.01  -0.01     0.01   0.03   0.01     0.02   0.03  -0.00
  16   1     0.01  -0.01  -0.02     0.00   0.04   0.00     0.02   0.04  -0.03
  17   6     0.02  -0.03  -0.02    -0.03   0.07   0.04    -0.00   0.06   0.07
  18   1     0.01  -0.01  -0.00    -0.01   0.01   0.02     0.00  -0.00   0.03
  19   1     0.00  -0.01  -0.00    -0.01   0.02   0.02    -0.01   0.03   0.04
  20   1     0.01  -0.01  -0.00    -0.00   0.02   0.00     0.01   0.01   0.01
  21   1    -0.02  -0.01  -0.01    -0.04   0.01   0.04    -0.05   0.00   0.04
  22   6     0.04   0.09   0.11     0.06  -0.13  -0.11    -0.18  -0.02   0.08
  23   8    -0.10   0.26   0.35     0.19  -0.40  -0.20    -0.21   0.01   0.05
  24   7    -0.06  -0.06  -0.09     0.01   0.10  -0.04    -0.16  -0.09   0.10
  25   1    -0.09   0.03  -0.01     0.04  -0.04  -0.02    -0.04  -0.01   0.03
  26   1    -0.00  -0.00  -0.07    -0.00   0.03   0.00    -0.05  -0.00   0.03
  27   7     0.30   0.03   0.05    -0.04  -0.04  -0.08    -0.23  -0.01   0.09
  28   1     0.11  -0.03  -0.02    -0.05   0.05  -0.01    -0.05  -0.02   0.02
  29   1     0.10   0.02   0.04    -0.02  -0.03  -0.04    -0.06  -0.00   0.03
  30   6    -0.07   0.06   0.05    -0.01   0.12   0.12     0.03  -0.07  -0.15
  31   8    -0.22   0.48   0.10    -0.07   0.42   0.19     0.14   0.01  -0.07
  32   7     0.05  -0.10  -0.06     0.04  -0.21   0.02    -0.10   0.10  -0.06
  33   1     0.02   0.06  -0.03     0.01  -0.03  -0.00    -0.02   0.09   0.03
  34   1     0.05  -0.09  -0.03     0.02  -0.09  -0.01    -0.03   0.01  -0.03
  35   7    -0.05  -0.23   0.06    -0.00   0.13   0.13     0.05  -0.37  -0.35
  36   1    -0.00  -0.14   0.02    -0.01   0.00   0.03     0.01  -0.12  -0.10
  37   1    -0.03  -0.04   0.03    -0.00   0.05   0.04     0.01  -0.07  -0.08
  38   6    -0.08  -0.06  -0.05     0.02  -0.14  -0.08     0.10  -0.08  -0.02
  39   8    -0.13  -0.11  -0.13     0.00  -0.27  -0.05     0.08  -0.26  -0.00
  40   7    -0.12  -0.04   0.03    -0.02  -0.10  -0.05     0.02   0.05   0.00
  41   1    -0.05  -0.01   0.01    -0.01  -0.05   0.01    -0.02  -0.00   0.02
  42   1    -0.02   0.00   0.02    -0.00  -0.02  -0.01     0.02   0.04   0.00
  43   7    -0.02  -0.06  -0.05     0.09  -0.09  -0.17     0.25  -0.03  -0.09
  44   1    -0.00  -0.00  -0.02     0.02   0.00  -0.06     0.07   0.03  -0.04
  45   1    -0.01   0.00  -0.03     0.02  -0.02  -0.04     0.08  -0.02  -0.03
  46   6     0.10  -0.02  -0.05    -0.03  -0.03   0.03     0.08  -0.01   0.07
  47   8     0.22  -0.09  -0.00    -0.13  -0.04  -0.02     0.06   0.07   0.07
  48   7     0.09  -0.02  -0.17    -0.04  -0.09   0.13     0.07  -0.05   0.08
  49   1     0.03   0.03  -0.04    -0.02   0.03   0.05     0.03  -0.01   0.02
  50   1     0.02   0.04  -0.05     0.02   0.03   0.05     0.01  -0.03   0.02
  51   7    -0.00   0.03   0.02     0.08   0.05  -0.02     0.10  -0.06   0.04
  52   1    -0.03  -0.01  -0.01     0.03  -0.05   0.00     0.03  -0.03   0.01
  53   1    -0.00  -0.03   0.03     0.01  -0.04  -0.04     0.03  -0.00   0.01
                     22                     23                     24
                        a                      a                      a 
 Frequencies --   145.4770               173.3013               182.0065
 Red. masses --    12.5810                12.7264                12.2087
 Frc consts  --     0.0000                 0.0000                 0.0000
 IR Inten    --    18.0402                 5.5573                27.5249
 Raman Activ --     0.0000                 0.0000                 0.0000
 Depolar     --     0.0000                 0.0000                 0.0000
 Atom AN      X      Y      Z        X      Y      Z        X      Y      Z
   1   8     0.07   0.05  -0.02     0.01  -0.01  -0.02     0.08   0.12   0.06
   2   6     0.03  -0.03  -0.00     0.00  -0.03  -0.00    -0.01  -0.03   0.03
   3   1    -0.00  -0.01   0.00    -0.01  -0.01  -0.00    -0.03  -0.03   0.00
   4   1     0.02  -0.02   0.00     0.01  -0.01   0.00     0.02  -0.04   0.02
   5   6     0.01  -0.02   0.00     0.00  -0.02  -0.01    -0.08   0.04   0.01
   6   1    -0.01  -0.01   0.01    -0.00  -0.00   0.00    -0.05   0.02   0.02
   7   1     0.00   0.00  -0.01     0.00  -0.00  -0.00    -0.02   0.03  -0.02
   8   7     0.04  -0.05   0.01     0.01  -0.02  -0.01    -0.01  -0.02  -0.02
   9   6     0.07  -0.06   0.01     0.01  -0.02  -0.01     0.05  -0.02  -0.02
  10   1     0.02  -0.02   0.01     0.00  -0.01   0.00     0.02  -0.00   0.01
  11   1     0.02  -0.01  -0.00     0.00  -0.00  -0.00     0.01  -0.00  -0.02
  12   1     0.03  -0.02  -0.00     0.01  -0.00  -0.00     0.03  -0.01  -0.01
  13   6     0.03  -0.02   0.03     0.00  -0.02  -0.00     0.03   0.00  -0.02
  14   1    -0.01  -0.01   0.01    -0.01  -0.00  -0.00    -0.02  -0.01  -0.00
  15   1     0.02  -0.01  -0.00     0.00  -0.01  -0.00     0.03  -0.01  -0.02
  16   1     0.01   0.01   0.02     0.00  -0.00   0.01     0.02   0.03   0.01
  17   6     0.02  -0.06  -0.02     0.00  -0.02  -0.02    -0.04  -0.09  -0.04
  18   1     0.00  -0.01  -0.01    -0.00   0.00  -0.01    -0.01   0.02  -0.03
  19   1     0.01  -0.03  -0.02    -0.00  -0.02  -0.01    -0.03  -0.07  -0.04
  20   1     0.01  -0.02  -0.00     0.00  -0.01   0.00     0.01  -0.04   0.03
  21   1     0.03   0.01  -0.01     0.01  -0.00  -0.01     0.06   0.04   0.03
  22   6    -0.13  -0.03   0.03     0.09   0.03  -0.03     0.00   0.04   0.01
  23   8    -0.05  -0.05  -0.19     0.04   0.06   0.11    -0.04   0.09   0.09
  24   7     0.03  -0.03   0.23    -0.01   0.02  -0.16    -0.04  -0.02  -0.06
  25   1     0.06   0.01   0.05    -0.04   0.01  -0.04    -0.04   0.01  -0.01
  26   1    -0.02   0.02   0.11     0.01   0.00  -0.08    -0.00  -0.00  -0.04
  27   7    -0.36  -0.01   0.08     0.24  -0.01  -0.06     0.10  -0.03  -0.00
  28   1    -0.11  -0.01   0.05     0.07   0.00  -0.03     0.02   0.01  -0.01
  29   1    -0.11  -0.01   0.01     0.07   0.01  -0.01     0.01   0.03  -0.00
  30   6    -0.00   0.09  -0.05    -0.08   0.09  -0.21     0.12  -0.09   0.07
  31   8    -0.12   0.23  -0.10    -0.02   0.09  -0.22     0.00  -0.02   0.02
  32   7     0.17   0.06  -0.16    -0.10   0.06  -0.25     0.28   0.05   0.01
  33   1     0.05   0.06  -0.08    -0.03   0.02  -0.06     0.08   0.10  -0.02
  34   1     0.08   0.00  -0.03    -0.03   0.04  -0.06     0.12   0.02   0.04
  35   7     0.02  -0.00   0.03    -0.07   0.18  -0.23     0.13  -0.32   0.13
  36   1     0.02  -0.04   0.01    -0.01   0.02  -0.06     0.04  -0.10   0.04
  37   1    -0.01   0.02   0.02    -0.04   0.05  -0.06     0.01  -0.09   0.05
  38   6    -0.16   0.00   0.00    -0.03   0.01   0.01    -0.03  -0.00   0.00
  39   8    -0.11   0.18   0.05    -0.02   0.05   0.04    -0.01   0.02   0.02
  40   7    -0.06  -0.16  -0.08    -0.01  -0.03  -0.03    -0.01  -0.04  -0.02
  41   1     0.02  -0.03  -0.04     0.01  -0.01  -0.01     0.01  -0.00  -0.01
  42   1    -0.03  -0.08  -0.04    -0.01  -0.02  -0.02    -0.01  -0.01  -0.02
  43   7    -0.35  -0.05   0.06    -0.09  -0.01   0.03    -0.06  -0.02   0.01
  44   1    -0.10  -0.04   0.01    -0.03  -0.01   0.00    -0.02   0.00  -0.01
  45   1    -0.11   0.02   0.00    -0.03   0.01  -0.01    -0.02   0.01  -0.01
  46   6     0.20   0.01   0.04     0.01  -0.10   0.25    -0.16   0.09  -0.05
  47   8     0.22   0.13   0.05    -0.20  -0.14   0.19    -0.39   0.27  -0.17
  48   7     0.19  -0.07   0.02     0.00  -0.11   0.47    -0.16  -0.02   0.24
  49   1     0.05   0.00   0.01    -0.00  -0.02   0.14    -0.07   0.01   0.09
  50   1     0.04  -0.04   0.00     0.03   0.01   0.14     0.00  -0.03   0.09
  51   7     0.23  -0.07  -0.00     0.19  -0.05   0.19     0.17   0.01  -0.30
  52   1     0.07  -0.05   0.00     0.09  -0.03   0.07     0.11  -0.08  -0.04
  53   1     0.06  -0.00  -0.01     0.05  -0.04   0.01     0.04   0.00  -0.17
                     25                     26                     27
                        a                      a                      a 
 Frequencies --   187.8602               211.2919               224.6370
 Red. masses --     9.3100                12.4785                 2.8142
 Frc consts  --     0.0000                 0.0000                 0.0000
 IR Inten    --     4.0710                32.3799                13.4075
 Raman Activ --     0.0000                 0.0000                 0.0000
 Depolar     --     0.0000                 0.0000                 0.0000
 Atom AN      X      Y      Z        X      Y      Z        X      Y      Z
   1   8     0.25   0.37   0.20     0.02   0.03   0.03     0.01   0.00   0.00
   2   6    -0.06  -0.08   0.07    -0.00   0.02   0.01     0.01   0.01  -0.00
   3   1    -0.09  -0.08  -0.00    -0.00   0.00   0.00     0.00   0.01   0.00
   4   1     0.06  -0.11   0.03     0.00   0.00  -0.00    -0.00   0.01  -0.00
   5   6    -0.32   0.13  -0.01    -0.02   0.01   0.01     0.01   0.00   0.00
   6   1    -0.17   0.06   0.07    -0.01   0.00   0.00     0.00  -0.00  -0.00
   7   1    -0.10   0.10  -0.08    -0.01   0.01  -0.00     0.00   0.00   0.00
   8   7    -0.10  -0.06  -0.05    -0.01   0.00   0.00     0.01   0.00  -0.00
   9   6     0.14  -0.07  -0.04     0.01   0.00  -0.00     0.02   0.01  -0.00
  10   1     0.05  -0.03   0.04     0.00  -0.00   0.00     0.00   0.00  -0.00
  11   1     0.03  -0.01  -0.05     0.00   0.00  -0.01     0.00   0.00  -0.00
  12   1     0.09  -0.02  -0.03     0.01   0.00  -0.00     0.01   0.00   0.00
  13   6     0.06   0.04  -0.02     0.00   0.01   0.00     0.00  -0.00  -0.01
  14   1    -0.09  -0.02  -0.00     0.00   0.00   0.00     0.01   0.00  -0.00
  15   1     0.11  -0.05  -0.07    -0.00   0.00   0.00    -0.01   0.00   0.00
  16   1     0.06   0.11   0.05    -0.00  -0.00  -0.00    -0.00  -0.01  -0.00
  17   6    -0.18  -0.29  -0.12    -0.01  -0.02  -0.01     0.00  -0.01  -0.01
  18   1    -0.06   0.05  -0.10    -0.01  -0.00  -0.00    -0.00  -0.01   0.00
  19   1    -0.13  -0.22  -0.12    -0.01  -0.01  -0.00     0.00   0.00   0.00
  20   1     0.02  -0.14   0.10    -0.00  -0.01   0.00    -0.00  -0.00  -0.01
  21   1     0.18   0.14   0.10     0.00   0.01   0.00    -0.01  -0.01  -0.01
  22   6     0.00   0.02  -0.00     0.00  -0.03  -0.02    -0.00  -0.03   0.00
  23   8    -0.00   0.05  -0.02     0.02  -0.04  -0.05    -0.04   0.06   0.02
  24   7     0.03   0.00   0.02     0.01   0.08   0.03    -0.07   0.22   0.01
  25   1     0.01   0.01   0.00     0.06  -0.11   0.00     0.11  -0.35  -0.01
  26   1     0.01  -0.00   0.01     0.05  -0.15   0.01     0.16  -0.54  -0.04
  27   7    -0.02   0.01  -0.00    -0.03  -0.01  -0.00    -0.00   0.01   0.01
  28   1     0.00  -0.01   0.00    -0.03   0.04   0.00    -0.04   0.08  -0.01
  29   1    -0.00  -0.00   0.00    -0.02   0.02  -0.01    -0.02   0.05  -0.00
  30   6    -0.01   0.04  -0.01    -0.24  -0.05  -0.06     0.04   0.02   0.01
  31   8     0.05   0.01   0.02    -0.48  -0.17  -0.23     0.06   0.09   0.05
  32   7    -0.10  -0.02   0.03     0.10   0.08  -0.21     0.01  -0.04   0.02
  33   1    -0.03  -0.02   0.03     0.03   0.01  -0.15     0.00   0.01   0.02
  34   1    -0.05  -0.00  -0.01     0.10   0.02  -0.01     0.00  -0.02  -0.00
  35   7    -0.02   0.13  -0.05    -0.27  -0.07   0.32     0.05  -0.02  -0.05
  36   1    -0.01   0.03  -0.02    -0.02   0.04   0.12     0.01  -0.01  -0.02
  37   1     0.01   0.03  -0.02    -0.10  -0.04   0.09     0.01  -0.00  -0.01
  38   6     0.03  -0.05  -0.01     0.14   0.05   0.02    -0.02  -0.01  -0.01
  39   8     0.03  -0.11   0.01     0.09  -0.09  -0.06    -0.02   0.01   0.00
  40   7     0.01  -0.00  -0.02     0.03   0.21   0.10    -0.01  -0.03  -0.02
  41   1    -0.00  -0.01   0.01    -0.04   0.06   0.03     0.01  -0.01  -0.00
  42   1     0.01   0.00   0.00     0.03   0.10   0.05    -0.01  -0.02  -0.00
  43   7     0.09  -0.02  -0.05     0.30   0.01   0.06    -0.05  -0.01  -0.01
  44   1     0.02   0.01  -0.02     0.08   0.04  -0.00    -0.01  -0.00  -0.00
  45   1     0.03  -0.02  -0.01     0.09   0.02  -0.02    -0.01   0.00  -0.00
  46   6     0.03  -0.02   0.01     0.07  -0.01   0.01    -0.01   0.01  -0.00
  47   8     0.10  -0.08   0.04     0.06   0.01   0.01    -0.05  -0.06  -0.02
  48   7     0.03   0.01  -0.08     0.07   0.01   0.03    -0.00  -0.01   0.01
  49   1     0.02   0.00  -0.03    -0.00  -0.03   0.01    -0.02  -0.06  -0.01
  50   1    -0.00   0.01  -0.03     0.01  -0.03   0.00    -0.03  -0.14  -0.01
  51   7    -0.07   0.00   0.08     0.10  -0.01  -0.01    -0.02  -0.19  -0.00
  52   1    -0.04   0.03   0.01     0.03  -0.03   0.00     0.11   0.49   0.03
  53   1    -0.02   0.00   0.05     0.02  -0.01  -0.01     0.05   0.34   0.02
                     28                     29                     30
                        a                      a                      a 
 Frequencies --   225.6081               269.8358               296.5867
 Red. masses --     2.6424                 7.1079                 6.7482
 Frc consts  --     0.0000                 0.0000                 0.0000
 IR Inten    --   321.4284                32.0963                13.1072
 Raman Activ --     0.0000                 0.0000                 0.0000
 Depolar     --     0.0000                 0.0000                 0.0000
 Atom AN      X      Y      Z        X      Y      Z        X      Y      Z
   1   8     0.01   0.00  -0.00    -0.19  -0.22  -0.24     0.09  -0.16  -0.25
   2   6     0.01  -0.00   0.00    -0.06  -0.31   0.11     0.20  -0.01  -0.05
   3   1     0.00   0.00   0.00    -0.14  -0.16   0.01     0.07   0.03   0.01
   4   1     0.00  -0.00  -0.00     0.04  -0.13   0.18     0.03   0.02  -0.03
   5   6     0.01  -0.01   0.01     0.09   0.08  -0.09     0.05  -0.04   0.06
   6   1     0.00  -0.00   0.00     0.01   0.06   0.03     0.02   0.00   0.03
   7   1     0.00  -0.00   0.00     0.02   0.03  -0.06    -0.01  -0.05  -0.01
   8   7     0.01  -0.01  -0.00     0.07   0.13  -0.03    -0.09   0.07   0.12
   9   6     0.01   0.00  -0.00    -0.17  -0.07   0.06     0.10   0.38  -0.01
  10   1     0.01   0.00  -0.00    -0.09  -0.13   0.03     0.02   0.03   0.06
  11   1     0.00   0.00  -0.00    -0.14   0.05   0.06    -0.04   0.18  -0.14
  12   1     0.00   0.00  -0.00     0.03  -0.02  -0.01     0.17   0.20   0.03
  13   6     0.00  -0.01  -0.01     0.21   0.25   0.05    -0.13   0.07   0.13
  14   1     0.01  -0.00  -0.00    -0.13   0.01   0.02    -0.21  -0.02   0.04
  15   1    -0.00   0.00   0.00     0.20  -0.02  -0.10     0.06  -0.04  -0.08
  16   1    -0.00  -0.01  -0.00     0.13   0.23   0.13     0.02   0.12   0.16
  17   6     0.00  -0.02  -0.00     0.10   0.19   0.07    -0.19  -0.25   0.12
  18   1    -0.00  -0.01   0.00     0.08   0.24  -0.07    -0.08  -0.00   0.00
  19   1     0.00  -0.00   0.00    -0.04  -0.10  -0.09    -0.15  -0.17  -0.01
  20   1     0.00  -0.01  -0.00     0.06   0.03   0.23     0.04  -0.14   0.11
  21   1    -0.02  -0.02  -0.03     0.15   0.06   0.10    -0.18  -0.21  -0.33
  22   6    -0.01  -0.02  -0.00    -0.01  -0.01  -0.00     0.00   0.00  -0.00
  23   8    -0.05   0.08   0.01    -0.01  -0.02  -0.01     0.00   0.00   0.00
  24   7    -0.06   0.19   0.01    -0.02   0.01  -0.01     0.01  -0.00   0.00
  25   1     0.10  -0.31  -0.01     0.00  -0.03  -0.00    -0.00   0.01   0.00
  26   1     0.14  -0.48  -0.04     0.01  -0.03  -0.01    -0.00   0.02   0.00
  27   7     0.01  -0.03   0.00    -0.02  -0.01  -0.00    -0.00   0.01  -0.00
  28   1    -0.05   0.10  -0.01    -0.01   0.01   0.00     0.01  -0.01   0.00
  29   1    -0.02   0.07   0.00    -0.01  -0.00  -0.00     0.00  -0.01  -0.00
  30   6     0.04  -0.01   0.00    -0.00  -0.00   0.00     0.00  -0.01   0.00
  31   8     0.08  -0.02   0.03    -0.01  -0.01  -0.00    -0.00  -0.01  -0.00
  32   7    -0.04  -0.02   0.03     0.01   0.00  -0.00     0.00  -0.00  -0.00
  33   1    -0.01  -0.00   0.03     0.00   0.01  -0.00     0.00   0.01   0.00
  34   1    -0.03   0.01   0.01     0.00   0.01   0.00     0.00   0.00   0.00
  35   7     0.03  -0.01  -0.06    -0.00  -0.01   0.00     0.00  -0.03  -0.00
  36   1     0.00   0.03  -0.02    -0.00  -0.00   0.00     0.00  -0.00  -0.00
  37   1     0.02   0.01  -0.02    -0.00   0.01   0.00     0.00   0.00   0.00
  38   6    -0.03   0.00  -0.00    -0.00  -0.00  -0.01     0.01   0.00  -0.00
  39   8    -0.02   0.03   0.01    -0.01  -0.01  -0.01     0.00   0.00  -0.01
  40   7    -0.00  -0.04  -0.01    -0.01   0.00   0.02     0.00  -0.00   0.01
  41   1     0.01  -0.00  -0.01    -0.01   0.01  -0.00    -0.00   0.01  -0.01
  42   1    -0.01  -0.01  -0.02    -0.00   0.01  -0.00     0.00   0.01  -0.01
  43   7    -0.06   0.00  -0.01     0.01  -0.00  -0.00     0.00   0.00  -0.00
  44   1    -0.01  -0.01   0.00     0.00   0.00   0.00     0.00  -0.01   0.01
  45   1    -0.01  -0.00   0.01     0.00  -0.00  -0.00     0.00  -0.00   0.00
  46   6    -0.00  -0.02   0.00     0.00  -0.00   0.00    -0.00  -0.00  -0.01
  47   8     0.05   0.02   0.03     0.00   0.00   0.00    -0.00  -0.01  -0.01
  48   7    -0.01   0.00  -0.02     0.00   0.00  -0.00    -0.00   0.00  -0.00
  49   1     0.02   0.08   0.00     0.00  -0.00  -0.00    -0.00  -0.00  -0.00
  50   1     0.03   0.18   0.02    -0.00  -0.00  -0.00     0.00  -0.00  -0.00
  51   7    -0.01   0.21   0.02    -0.00  -0.00   0.00    -0.00   0.00  -0.00
  52   1    -0.13  -0.53  -0.03    -0.00  -0.00   0.00     0.00   0.01  -0.00
  53   1    -0.06  -0.39  -0.02     0.00   0.00   0.00    -0.00   0.00  -0.00
                     31                     32                     33
                        a                      a                      a 
 Frequencies --   307.5144               324.2302               331.6276
 Red. masses --     4.1822                 3.0725                 4.1865
 Frc consts  --     0.0000                 0.0000                 0.0000
 IR Inten    --    11.1401               182.8444                84.5680
 Raman Activ --     0.0000                 0.0000                 0.0000
 Depolar     --     0.0000                 0.0000                 0.0000
 Atom AN      X      Y      Z        X      Y      Z        X      Y      Z
   1   8    -0.03   0.10   0.25    -0.03  -0.03  -0.03    -0.13  -0.08  -0.10
   2   6    -0.04   0.22  -0.01     0.01   0.01  -0.03    -0.01   0.13  -0.18
   3   1     0.07   0.12   0.02     0.01   0.00  -0.01     0.07   0.03  -0.08
   4   1    -0.07   0.11  -0.09    -0.00   0.01  -0.01    -0.04   0.07  -0.08
   5   6     0.07  -0.09   0.08    -0.01   0.01  -0.02    -0.05   0.00  -0.10
   6   1     0.07  -0.06  -0.04    -0.02   0.00   0.00    -0.05  -0.03  -0.03
   7   1     0.04  -0.04   0.09    -0.00   0.02  -0.02    -0.01   0.01  -0.04
   8   7     0.05  -0.09  -0.03     0.02  -0.01   0.01     0.02  -0.05   0.06
   9   6    -0.09  -0.07  -0.04     0.04   0.02   0.00     0.18   0.09  -0.00
  10   1    -0.08  -0.18   0.02     0.00  -0.03   0.02     0.01  -0.16   0.12
  11   1    -0.16   0.10  -0.03    -0.02   0.03  -0.02    -0.11   0.17  -0.13
  12   1     0.13   0.03  -0.03     0.06   0.02  -0.00     0.31   0.12  -0.01
  13   6    -0.02  -0.21  -0.14    -0.04  -0.04   0.01    -0.20  -0.19   0.01
  14   1     0.04  -0.07  -0.03    -0.01  -0.01   0.00    -0.12  -0.09   0.01
  15   1    -0.04  -0.04  -0.04    -0.02  -0.00  -0.01    -0.07  -0.03  -0.08
  16   1    -0.02  -0.09  -0.07    -0.02  -0.03   0.01    -0.05  -0.06   0.06
  17   6     0.10   0.13  -0.02     0.03  -0.00   0.04     0.07   0.00   0.21
  18   1     0.11   0.41  -0.17     0.02   0.01   0.01     0.07  -0.03   0.07
  19   1    -0.08  -0.26  -0.25    -0.00  -0.01   0.01     0.02   0.04   0.10
  20   1     0.06   0.01   0.39     0.01  -0.00   0.03    -0.00   0.02   0.05
  21   1    -0.19  -0.09  -0.09     0.04   0.03   0.06     0.29   0.29   0.47
  22   6     0.00   0.00  -0.01    -0.00   0.00   0.00     0.01   0.00   0.00
  23   8     0.01  -0.01  -0.01    -0.00   0.00   0.00     0.00   0.00   0.00
  24   7     0.01  -0.00  -0.00     0.00  -0.00  -0.00     0.01   0.01   0.00
  25   1     0.00  -0.00  -0.00     0.00  -0.00  -0.00     0.01  -0.01   0.00
  26   1    -0.00   0.01   0.00     0.00  -0.01  -0.00     0.01  -0.01   0.00
  27   7    -0.01  -0.00  -0.01     0.00  -0.00   0.00     0.01   0.00  -0.00
  28   1    -0.00  -0.00   0.00    -0.00   0.01   0.00     0.00   0.00   0.00
  29   1    -0.00  -0.01  -0.00    -0.00   0.00  -0.00     0.00  -0.00  -0.00
  30   6     0.00  -0.00  -0.00     0.00  -0.01  -0.00    -0.00  -0.00  -0.00
  31   8     0.00   0.00   0.00     0.00  -0.01  -0.00     0.00   0.00   0.00
  32   7     0.00   0.01   0.01     0.01   0.06   0.03     0.00   0.00  -0.00
  33   1    -0.00  -0.01  -0.01    -0.00  -0.06  -0.03     0.00   0.00  -0.00
  34   1     0.00  -0.01  -0.01     0.01  -0.07  -0.04     0.00   0.00   0.00
  35   7     0.00  -0.00  -0.01     0.00  -0.01  -0.00    -0.00  -0.02  -0.00
  36   1     0.00   0.00  -0.00     0.00   0.00   0.00     0.00   0.01   0.00
  37   1     0.00   0.01   0.00     0.00   0.00   0.00     0.00   0.01   0.00
  38   6    -0.00   0.01  -0.00    -0.02  -0.02   0.04    -0.00   0.01  -0.01
  39   8    -0.00   0.02  -0.01    -0.02  -0.00  -0.00    -0.00   0.01  -0.01
  40   7     0.00  -0.01   0.01     0.02   0.21  -0.30     0.00  -0.04   0.05
  41   1     0.00   0.01  -0.01     0.02  -0.28   0.32    -0.00   0.05  -0.06
  42   1    -0.00   0.01  -0.02     0.03  -0.43   0.64    -0.00   0.07  -0.11
  43   7    -0.01   0.00   0.01    -0.00  -0.02   0.04     0.00   0.00  -0.00
  44   1    -0.00  -0.00   0.01    -0.05   0.12  -0.13     0.01  -0.02   0.02
  45   1    -0.00   0.00   0.00    -0.01   0.03  -0.02     0.00  -0.00   0.00
  46   6     0.00  -0.00   0.00    -0.00   0.00   0.00     0.00  -0.00  -0.00
  47   8     0.00  -0.00   0.00    -0.00   0.01   0.00    -0.00  -0.01  -0.00
  48   7     0.00   0.00  -0.00    -0.01  -0.01   0.00     0.00  -0.00  -0.00
  49   1     0.00  -0.00  -0.00     0.00   0.00   0.00     0.00   0.00   0.00
  50   1    -0.00  -0.00  -0.00     0.00   0.02   0.00     0.00   0.01   0.00
  51   7     0.00   0.00   0.00     0.01  -0.00  -0.01    -0.00   0.00  -0.00
  52   1     0.00   0.00   0.00     0.00  -0.01  -0.00    -0.00  -0.00  -0.00
  53   1     0.00   0.00   0.00     0.00  -0.01  -0.01    -0.00  -0.00   0.00
                     34                     35                     36
                        a                      a                      a 
 Frequencies --   343.0575               378.3343               380.9752
 Red. masses --     3.4641                 3.7053                 4.7996
 Frc consts  --     0.0000                 0.0000                 0.0000
 IR Inten    --    52.3432                 9.0881                24.2258
 Raman Activ --     0.0000                 0.0000                 0.0000
 Depolar     --     0.0000                 0.0000                 0.0000
 Atom AN      X      Y      Z        X      Y      Z        X      Y      Z
   1   8     0.07   0.13   0.17    -0.01  -0.00   0.04     0.01  -0.09  -0.12
   2   6    -0.12  -0.05  -0.01    -0.06   0.01  -0.10    -0.03  -0.20  -0.02
   3   1    -0.07  -0.04  -0.01    -0.02  -0.02  -0.05    -0.09  -0.11  -0.03
   4   1    -0.00  -0.04   0.02    -0.02   0.01  -0.02     0.04  -0.10   0.08
   5   6    -0.14   0.08  -0.07    -0.05   0.04  -0.10    -0.19   0.18  -0.12
   6   1    -0.09   0.03   0.01    -0.05  -0.01  -0.03    -0.17   0.08   0.06
   7   1    -0.03   0.07  -0.06    -0.01   0.05  -0.03    -0.07   0.13  -0.15
   8   7     0.01  -0.03  -0.06     0.05  -0.03  -0.01    -0.02   0.08   0.03
   9   6     0.05  -0.19  -0.00     0.18  -0.01  -0.01     0.29  -0.00   0.07
  10   1    -0.04  -0.30   0.13     0.15   0.31  -0.09     0.12   0.05   0.09
  11   1    -0.18   0.11  -0.05     0.31  -0.22   0.06     0.13  -0.04  -0.01
  12   1     0.29  -0.01  -0.07    -0.27  -0.10   0.03     0.09  -0.03  -0.01
  13   6     0.02  -0.04  -0.08    -0.21  -0.16  -0.03    -0.10  -0.02  -0.04
  14   1    -0.18  -0.10  -0.00    -0.32  -0.15   0.01     0.26   0.05  -0.02
  15   1     0.11  -0.07  -0.17     0.05  -0.09  -0.23    -0.23   0.12   0.17
  16   1     0.07   0.12   0.10     0.02   0.08   0.18    -0.13  -0.23  -0.20
  17   6     0.12   0.17   0.10     0.15   0.14   0.20     0.04   0.13   0.21
  18   1     0.06  -0.17   0.13     0.13   0.12   0.02     0.09   0.13   0.02
  19   1     0.13   0.26   0.18    -0.00  -0.01   0.03    -0.05  -0.04   0.02
  20   1    -0.06   0.12  -0.17     0.02   0.05   0.17     0.01   0.04   0.19
  21   1    -0.24  -0.19  -0.31    -0.07  -0.04  -0.04    -0.06  -0.11  -0.18
  22   6     0.01  -0.01   0.01    -0.01   0.01  -0.00    -0.00   0.00  -0.01
  23   8     0.01  -0.01   0.01    -0.00   0.00  -0.01     0.00  -0.00  -0.01
  24   7    -0.01   0.00  -0.01    -0.00  -0.01   0.00     0.00  -0.00  -0.00
  25   1    -0.01  -0.00  -0.00     0.00  -0.00   0.00     0.00  -0.00  -0.00
  26   1    -0.00   0.00  -0.01    -0.00  -0.00   0.00    -0.00   0.01   0.00
  27   7     0.01   0.01   0.01     0.01  -0.03   0.00    -0.01  -0.01  -0.00
  28   1     0.01  -0.01   0.00    -0.02   0.04   0.00    -0.00   0.00  -0.00
  29   1     0.01  -0.01   0.00    -0.01   0.02  -0.00    -0.00   0.01  -0.00
  30   6    -0.00  -0.01   0.00    -0.00   0.01   0.02     0.01  -0.01  -0.02
  31   8    -0.00  -0.01  -0.00    -0.00  -0.01   0.01    -0.00   0.01  -0.01
  32   7     0.00   0.01   0.01    -0.00  -0.10  -0.06    -0.01   0.10   0.06
  33   1     0.00  -0.00  -0.00     0.00   0.10   0.05    -0.01  -0.11  -0.06
  34   1     0.00  -0.01  -0.00    -0.02   0.21   0.11     0.02  -0.23  -0.12
  35   7    -0.00   0.01  -0.00    -0.01   0.06   0.02     0.01  -0.02   0.00
  36   1    -0.00  -0.01  -0.00    -0.01  -0.11  -0.01     0.01   0.06   0.01
  37   1     0.00   0.01   0.00    -0.01  -0.01  -0.00     0.00  -0.01  -0.00
  38   6    -0.00  -0.00  -0.00     0.01  -0.01  -0.01    -0.00  -0.01   0.02
  39   8    -0.00   0.00  -0.00     0.01  -0.01  -0.01     0.00  -0.01   0.03
  40   7     0.00  -0.01  -0.01    -0.00   0.02   0.00     0.00  -0.03   0.00
  41   1     0.00  -0.00  -0.00    -0.01  -0.00   0.01     0.01   0.01  -0.02
  42   1     0.00  -0.01   0.00     0.00  -0.00   0.03    -0.01   0.03  -0.08
  43   7     0.01  -0.00  -0.00     0.01  -0.01  -0.01     0.01   0.01  -0.01
  44   1     0.00   0.01  -0.01    -0.00   0.00  -0.01     0.01  -0.01   0.02
  45   1     0.01  -0.00  -0.01     0.00  -0.00  -0.00     0.01  -0.01   0.00
  46   6     0.00  -0.00  -0.00     0.00  -0.00  -0.01    -0.00   0.01   0.01
  47   8    -0.00  -0.00  -0.00     0.00   0.00  -0.01    -0.00   0.00   0.01
  48   7     0.00   0.00   0.00     0.01   0.01   0.00    -0.01  -0.02   0.00
  49   1    -0.00  -0.00  -0.00    -0.00  -0.01   0.00     0.00   0.01   0.00
  50   1    -0.00  -0.00  -0.00    -0.01  -0.04  -0.00     0.01   0.04   0.01
  51   7     0.00   0.00   0.00    -0.01   0.01   0.00     0.01  -0.01  -0.00
  52   1    -0.00  -0.00  -0.00    -0.01   0.00  -0.00     0.01   0.01   0.00
  53   1     0.00  -0.00  -0.00    -0.00  -0.00   0.00     0.00   0.00  -0.01
                     37                     38                     39
                        a                      a                      a 
 Frequencies --   391.0547               408.7124               421.1622
 Red. masses --     3.0802                 3.1389                 2.8391
 Frc consts  --     0.0000                 0.0000                 0.0000
 IR Inten    --   100.0784               166.6496               191.8862
 Raman Activ --     0.0000                 0.0000                 0.0000
 Depolar     --     0.0000                 0.0000                 0.0000
 Atom AN      X      Y      Z        X      Y      Z        X      Y      Z
   1   8     0.00  -0.03  -0.06     0.00  -0.00  -0.01    -0.00   0.01   0.02
   2   6     0.01  -0.06   0.04     0.00  -0.00   0.00    -0.03  -0.01  -0.02
   3   1    -0.02  -0.03   0.01     0.00  -0.00   0.00    -0.01  -0.00  -0.01
   4   1     0.02  -0.03   0.03     0.00  -0.00   0.00    -0.01  -0.01  -0.01
   5   6    -0.04   0.05   0.00    -0.00   0.00   0.00    -0.01  -0.02  -0.02
   6   1    -0.04   0.03   0.03    -0.00   0.00   0.00    -0.01  -0.01  -0.01
   7   1    -0.02   0.03  -0.04    -0.00   0.00  -0.00     0.00   0.00   0.00
   8   7    -0.02   0.03   0.01    -0.01   0.01   0.01     0.02  -0.04  -0.01
   9   6     0.05  -0.02   0.03     0.01  -0.01   0.01     0.01   0.02  -0.04
  10   1    -0.01  -0.11   0.06     0.00  -0.01   0.01     0.01   0.05  -0.03
  11   1    -0.06   0.06  -0.03    -0.00  -0.00  -0.00     0.03  -0.01  -0.01
  12   1     0.14   0.02  -0.02     0.01  -0.00   0.00    -0.04   0.01   0.01
  13   6     0.02   0.03  -0.01     0.01  -0.00  -0.02    -0.01  -0.00   0.04
  14   1     0.21   0.07  -0.01     0.02  -0.00  -0.00    -0.03   0.01   0.01
  15   1    -0.12   0.08   0.13    -0.00   0.00  -0.00     0.01  -0.01   0.01
  16   1    -0.06  -0.11  -0.14     0.00  -0.00  -0.02     0.00   0.00   0.04
  17   6    -0.03  -0.00   0.03    -0.01   0.01   0.00     0.04   0.01   0.01
  18   1    -0.01   0.01   0.00    -0.00   0.01  -0.00     0.02   0.01  -0.00
  19   1    -0.02  -0.02  -0.00    -0.00  -0.00  -0.00     0.01  -0.00   0.00
  20   1    -0.00  -0.01   0.02    -0.00   0.00   0.00    -0.00   0.01   0.02
  21   1    -0.00  -0.02  -0.05    -0.00  -0.00  -0.01     0.00   0.01   0.01
  22   6     0.00  -0.01  -0.01     0.02  -0.03  -0.00     0.07  -0.09   0.00
  23   8     0.01  -0.02  -0.01     0.01  -0.02   0.01     0.04  -0.05   0.04
  24   7     0.01   0.01   0.00    -0.01   0.04   0.00    -0.03   0.15  -0.02
  25   1     0.00   0.00  -0.00     0.01  -0.02  -0.00     0.03  -0.11  -0.01
  26   1    -0.00   0.01   0.00     0.01  -0.01  -0.00     0.02  -0.03  -0.03
  27   7    -0.02   0.01  -0.01    -0.06   0.07  -0.01    -0.17   0.22  -0.01
  28   1     0.02  -0.04   0.00     0.10  -0.21  -0.01     0.39  -0.77  -0.03
  29   1    -0.00  -0.01  -0.00     0.01  -0.03   0.01     0.02  -0.01   0.04
  30   6    -0.01   0.02   0.04    -0.01  -0.02  -0.00     0.00   0.01   0.01
  31   8     0.02   0.03   0.04    -0.01  -0.02  -0.00     0.00   0.00   0.01
  32   7     0.01  -0.29  -0.18     0.02  -0.05  -0.05    -0.00   0.00   0.01
  33   1     0.01   0.24   0.15     0.00   0.01   0.02     0.00   0.05  -0.00
  34   1    -0.09   0.64   0.32    -0.02   0.19   0.09     0.02  -0.09  -0.04
  35   7    -0.02  -0.01   0.00    -0.01   0.00   0.02    -0.01  -0.02  -0.02
  36   1    -0.02  -0.05  -0.01    -0.01  -0.03   0.00     0.00   0.11   0.01
  37   1    -0.00  -0.00   0.00    -0.00  -0.03  -0.01     0.02   0.01  -0.01
  38   6     0.01   0.02  -0.02     0.02  -0.02   0.01    -0.02   0.02  -0.01
  39   8     0.01   0.01  -0.02     0.02  -0.02   0.00    -0.01   0.02  -0.00
  40   7     0.02   0.03  -0.00     0.00   0.04  -0.02    -0.00  -0.03   0.01
  41   1    -0.00  -0.01   0.03    -0.01  -0.01   0.02     0.01   0.01  -0.02
  42   1     0.01  -0.04   0.07     0.01   0.00   0.02    -0.00  -0.01  -0.01
  43   7     0.00  -0.01   0.02    -0.03   0.04  -0.04     0.03  -0.02   0.03
  44   1    -0.02   0.03  -0.04     0.05  -0.11   0.13    -0.04   0.09  -0.10
  45   1    -0.01   0.01  -0.01     0.00  -0.02   0.01     0.00   0.01  -0.01
  46   6     0.00  -0.04  -0.02     0.03   0.15   0.02    -0.02  -0.02  -0.01
  47   8     0.00  -0.02  -0.02     0.02   0.07   0.02    -0.01  -0.00  -0.00
  48   7     0.03   0.07   0.00    -0.07  -0.25  -0.04     0.00   0.06   0.03
  49   1    -0.01  -0.03  -0.00     0.03   0.07   0.00    -0.01  -0.01   0.01
  50   1    -0.03  -0.18  -0.02     0.16   0.80   0.10    -0.03  -0.17  -0.01
  51   7    -0.01   0.05   0.01    -0.03  -0.19  -0.04     0.02   0.05  -0.01
  52   1    -0.03  -0.03  -0.01     0.03   0.11   0.00    -0.02  -0.09  -0.01
  53   1    -0.01  -0.01   0.01     0.01   0.09  -0.00     0.00   0.01   0.00
                     40                     41                     42
                        a                      a                      a 
 Frequencies --   431.6702               439.5921               459.2250
 Red. masses --     8.4757                 3.0095                 6.6712
 Frc consts  --     0.0000                 0.0000                 0.0000
 IR Inten    --     0.7028               332.8632                49.6564
 Raman Activ --     0.0000                 0.0000                 0.0000
 Depolar     --     0.0000                 0.0000                 0.0000
 Atom AN      X      Y      Z        X      Y      Z        X      Y      Z
   1   8    -0.00  -0.12  -0.20    -0.00  -0.00   0.00    -0.01  -0.03  -0.03
   2   6     0.16   0.08  -0.01    -0.01  -0.00  -0.01     0.11   0.10   0.10
   3   1     0.07   0.03  -0.00     0.00   0.00  -0.00     0.02   0.02   0.03
   4   1     0.02   0.05  -0.03    -0.00   0.00  -0.01     0.02   0.04   0.06
   5   6    -0.13   0.07   0.10    -0.01  -0.03   0.00     0.20   0.10   0.04
   6   1    -0.14   0.03   0.08     0.00  -0.01  -0.00     0.16   0.04  -0.03
   7   1    -0.06   0.06  -0.08    -0.01  -0.02   0.00     0.05  -0.06   0.08
   8   7    -0.08   0.03   0.31    -0.03  -0.00   0.02    -0.08   0.27  -0.11
   9   6     0.02   0.04   0.33     0.02   0.00   0.02     0.06  -0.27   0.10
  10   1     0.02   0.03   0.10     0.01   0.01   0.01     0.03  -0.11   0.12
  11   1     0.03  -0.01   0.09     0.01  -0.00  -0.00     0.03  -0.09   0.13
  12   1    -0.00  -0.01   0.08     0.01  -0.00   0.00     0.04  -0.19  -0.09
  13   6     0.21  -0.30  -0.20     0.03  -0.01  -0.02    -0.15   0.08  -0.31
  14   1     0.07  -0.26   0.00     0.00  -0.02  -0.00    -0.05  -0.05  -0.06
  15   1     0.13  -0.12  -0.18     0.03  -0.01  -0.02    -0.05   0.04  -0.15
  16   1     0.08   0.04  -0.14     0.01   0.02  -0.01    -0.05   0.02  -0.09
  17   6    -0.19   0.21  -0.22    -0.03   0.03  -0.00    -0.15  -0.14   0.14
  18   1    -0.17   0.09  -0.08    -0.01   0.01  -0.00    -0.03  -0.09   0.06
  19   1     0.08   0.05  -0.14     0.00   0.01  -0.00    -0.16  -0.05   0.09
  20   1    -0.09   0.08  -0.13    -0.02   0.01  -0.00     0.05  -0.10   0.04
  21   1     0.03  -0.00  -0.00     0.01   0.01   0.01     0.01   0.01   0.03
  22   6     0.01  -0.01   0.01     0.01  -0.00   0.00    -0.01  -0.01  -0.01
  23   8     0.01  -0.00   0.00     0.01   0.00   0.00    -0.02  -0.02   0.01
  24   7    -0.01   0.01  -0.00    -0.01   0.02  -0.01     0.01   0.03   0.03
  25   1    -0.00  -0.01  -0.00    -0.00  -0.02  -0.00     0.05  -0.03   0.00
  26   1     0.00  -0.01  -0.01     0.00  -0.01  -0.01    -0.00   0.00   0.03
  27   7    -0.00   0.01   0.00    -0.02   0.02   0.00     0.02   0.03  -0.03
  28   1     0.03  -0.05  -0.00     0.05  -0.09  -0.00     0.06  -0.09  -0.03
  29   1     0.00   0.01   0.01    -0.00   0.01   0.00     0.02   0.04   0.01
  30   6    -0.01  -0.01   0.01     0.01   0.04  -0.01     0.03   0.00  -0.02
  31   8    -0.01  -0.01   0.01    -0.01   0.05  -0.02    -0.04   0.03  -0.05
  32   7     0.01   0.02   0.01     0.01   0.02  -0.00    -0.02   0.08   0.06
  33   1     0.00  -0.00  -0.01    -0.01  -0.12  -0.01    -0.03  -0.31  -0.03
  34   1     0.01  -0.01   0.00    -0.03   0.04   0.00    -0.09   0.10   0.01
  35   7    -0.00   0.03  -0.01     0.01  -0.05   0.02     0.05   0.02   0.02
  36   1    -0.00  -0.09  -0.01     0.01   0.00   0.01     0.03  -0.23  -0.00
  37   1    -0.01   0.02   0.01    -0.01   0.01   0.02    -0.03   0.04   0.05
  38   6     0.00  -0.00  -0.01     0.07  -0.07   0.05     0.02  -0.02  -0.00
  39   8     0.01   0.01   0.01     0.04  -0.09   0.00     0.04   0.01   0.01
  40   7    -0.01  -0.00   0.01     0.01   0.15  -0.11    -0.01  -0.01   0.03
  41   1    -0.01   0.01  -0.01     0.01  -0.11   0.15    -0.08   0.11  -0.12
  42   1     0.00   0.01   0.00     0.01   0.01   0.04     0.02   0.00   0.10
  43   7     0.01  -0.02   0.01    -0.16   0.15  -0.16    -0.03  -0.02  -0.02
  44   1    -0.02   0.04  -0.06     0.23  -0.51   0.64    -0.03   0.02  -0.06
  45   1    -0.00   0.00   0.00    -0.00  -0.02  -0.03    -0.02  -0.00   0.03
  46   6    -0.00  -0.00  -0.00    -0.02  -0.03   0.01    -0.03   0.00   0.02
  47   8    -0.00  -0.00  -0.00    -0.01  -0.01   0.02     0.01  -0.01   0.05
  48   7     0.00   0.01   0.00    -0.00   0.07  -0.01    -0.03   0.02  -0.03
  49   1    -0.00  -0.00   0.00    -0.00   0.01  -0.01     0.00   0.01  -0.01
  50   1    -0.00  -0.02  -0.00    -0.06  -0.22  -0.04    -0.03  -0.04  -0.02
  51   7    -0.00   0.01  -0.00     0.04   0.05  -0.01     0.05   0.01  -0.02
  52   1    -0.00  -0.01  -0.00     0.02  -0.03   0.01     0.05   0.00   0.01
  53   1    -0.00  -0.00  -0.00     0.00  -0.04  -0.03     0.01  -0.03  -0.05
                     43                     44                     45
                        a                      a                      a 
 Frequencies --   460.8797               462.3536               468.5874
 Red. masses --     5.1907                 3.8949                 3.1068
 Frc consts  --     0.0000                 0.0000                 0.0000
 IR Inten    --    19.0033                 8.9702                17.1603
 Raman Activ --     0.0000                 0.0000                 0.0000
 Depolar     --     0.0000                 0.0000                 0.0000
 Atom AN      X      Y      Z        X      Y      Z        X      Y      Z
   1   8     0.01   0.02   0.02    -0.01  -0.01  -0.04     0.00   0.01   0.02
   2   6    -0.06  -0.05  -0.05     0.07   0.06   0.06    -0.03  -0.02  -0.02
   3   1    -0.01  -0.01  -0.01     0.00  -0.00   0.01    -0.00  -0.00  -0.00
   4   1    -0.01  -0.02  -0.02     0.02   0.02   0.05    -0.01  -0.01  -0.01
   5   6    -0.09  -0.05  -0.02     0.06   0.15   0.00    -0.02  -0.05  -0.00
   6   1    -0.07  -0.02   0.01    -0.03   0.05   0.03     0.01  -0.02  -0.01
   7   1    -0.02   0.02  -0.03     0.01   0.07  -0.04    -0.00  -0.02   0.01
   8   7     0.04  -0.12   0.04     0.11   0.07  -0.01    -0.03  -0.02  -0.00
   9   6    -0.04   0.13  -0.05    -0.09  -0.06   0.04     0.02   0.02  -0.02
  10   1    -0.02   0.05  -0.06    -0.05  -0.05  -0.02     0.01   0.02   0.00
  11   1    -0.01   0.04  -0.06    -0.05  -0.00   0.07     0.01   0.00  -0.02
  12   1    -0.03   0.09   0.04    -0.04  -0.04  -0.00     0.01   0.01   0.00
  13   6     0.06  -0.03   0.15    -0.11  -0.05  -0.03     0.03   0.03   0.02
  14   1     0.01   0.03   0.03    -0.06  -0.04  -0.00     0.02   0.02   0.00
  15   1     0.02  -0.01   0.06    -0.06   0.01  -0.06     0.01   0.00   0.02
  16   1     0.02  -0.01   0.05    -0.04  -0.05   0.02     0.01   0.01  -0.00
  17   6     0.08   0.05  -0.07     0.05  -0.11  -0.04    -0.01   0.02   0.01
  18   1     0.01   0.04  -0.03    -0.02  -0.05  -0.01     0.01   0.01   0.00
  19   1     0.07   0.02  -0.04    -0.01  -0.04  -0.01     0.00   0.01   0.00
  20   1    -0.02   0.04  -0.02     0.05  -0.06  -0.03    -0.01   0.01   0.01
  21   1    -0.01  -0.00  -0.01    -0.00  -0.00  -0.01     0.00   0.00   0.00
  22   6     0.06   0.02   0.03    -0.03  -0.01  -0.02     0.06   0.01   0.04
  23   8     0.08   0.02  -0.00    -0.04  -0.02   0.01     0.08   0.02  -0.01
  24   7    -0.03   0.00  -0.08     0.02   0.01   0.05    -0.03  -0.01  -0.07
  25   1    -0.09   0.00  -0.01     0.05   0.00   0.01    -0.11   0.06  -0.00
  26   1     0.02  -0.02  -0.09    -0.01   0.00   0.05     0.04  -0.07  -0.09
  27   7    -0.07  -0.03   0.06     0.04   0.02  -0.04    -0.07  -0.01   0.07
  28   1    -0.03  -0.02   0.06     0.03  -0.01  -0.03    -0.04   0.00   0.06
  29   1    -0.05  -0.01  -0.01     0.03   0.01   0.01    -0.04  -0.04  -0.02
  30   6     0.09   0.07  -0.07     0.01   0.00  -0.02    -0.03  -0.00   0.04
  31   8    -0.04   0.10  -0.14    -0.00   0.00  -0.02    -0.04   0.02   0.05
  32   7    -0.10   0.06   0.06    -0.03   0.00   0.00     0.09   0.09   0.03
  33   1    -0.07  -0.56   0.01    -0.01  -0.05   0.01     0.00  -0.31  -0.12
  34   1    -0.24   0.26   0.02    -0.03   0.04   0.01    -0.00   0.11   0.05
  35   7     0.11  -0.12   0.12     0.01  -0.00   0.03    -0.01  -0.00  -0.08
  36   1     0.08  -0.10   0.06     0.02  -0.05   0.01    -0.02  -0.19  -0.05
  37   1    -0.03   0.00   0.09    -0.02   0.00   0.02    -0.01   0.06   0.01
  38   6    -0.04   0.01   0.02    -0.09   0.11   0.02     0.00  -0.00   0.00
  39   8    -0.05   0.01   0.01    -0.18  -0.01  -0.08    -0.00  -0.00  -0.01
  40   7     0.01  -0.08  -0.01     0.05  -0.03  -0.09    -0.00   0.01   0.00
  41   1     0.03   0.03  -0.07     0.32  -0.40   0.44     0.01  -0.03   0.03
  42   1    -0.01  -0.03  -0.03    -0.10   0.01  -0.46    -0.01   0.02  -0.04
  43   7     0.08   0.02   0.02     0.15   0.04   0.15     0.00  -0.01   0.01
  44   1    -0.01   0.10  -0.08     0.04   0.08   0.02    -0.01   0.00  -0.01
  45   1     0.03  -0.02   0.02     0.06   0.02  -0.03    -0.01   0.00   0.01
  46   6    -0.07   0.01   0.08    -0.00   0.00  -0.00     0.08  -0.06  -0.08
  47   8     0.02  -0.01   0.14     0.00  -0.00  -0.00    -0.06  -0.03  -0.16
  48   7    -0.09   0.02  -0.13    -0.00   0.00   0.00     0.12   0.06   0.13
  49   1     0.02   0.02  -0.06    -0.00  -0.00   0.00    -0.02  -0.06   0.05
  50   1    -0.08  -0.00  -0.06     0.00   0.01   0.00     0.07   0.02   0.05
  51   7     0.13  -0.01  -0.05    -0.00  -0.00  -0.01    -0.09  -0.02   0.03
  52   1     0.17   0.07   0.05    -0.00  -0.01  -0.00    -0.27  -0.38  -0.09
  53   1     0.02  -0.12  -0.16     0.00   0.01  -0.00     0.05   0.56   0.26
                     46                     47                     48
                        a                      a                      a 
 Frequencies --   470.5054               474.4247               476.8418
 Red. masses --     6.8176                 6.1608                 6.5210
 Frc consts  --     0.0000                 0.0000                 0.0000
 IR Inten    --     0.7496                14.4664                47.5080
 Raman Activ --     0.0000                 0.0000                 0.0000
 Depolar     --     0.0000                 0.0000                 0.0000
 Atom AN      X      Y      Z        X      Y      Z        X      Y      Z
   1   8     0.01   0.00   0.03     0.01   0.02   0.04     0.01   0.00   0.02
   2   6    -0.04  -0.04  -0.04    -0.08  -0.06  -0.07    -0.04  -0.03  -0.04
   3   1     0.02   0.02   0.01    -0.00   0.00  -0.01     0.01   0.01   0.00
   4   1    -0.02  -0.01  -0.06    -0.02  -0.02  -0.05    -0.02  -0.01  -0.04
   5   6     0.02  -0.21   0.04    -0.05  -0.17  -0.00    -0.02  -0.13   0.02
   6   1     0.14  -0.06  -0.07     0.05  -0.06  -0.04     0.06  -0.04  -0.03
   7   1     0.01  -0.15   0.11    -0.01  -0.08   0.05    -0.00  -0.08   0.06
   8   7    -0.23   0.02  -0.04    -0.12  -0.06  -0.00    -0.12  -0.02  -0.00
   9   6     0.19  -0.05  -0.02     0.10   0.06  -0.05     0.10   0.00  -0.01
  10   1     0.09   0.03   0.10     0.05   0.05   0.03     0.05   0.03   0.04
  11   1     0.10  -0.05  -0.05     0.05   0.00  -0.07     0.06  -0.02  -0.04
  12   1     0.09  -0.04  -0.05     0.05   0.03  -0.00     0.04  -0.00  -0.01
  13   6     0.12   0.12  -0.12     0.13   0.07   0.03     0.11   0.05  -0.05
  14   1     0.07   0.03  -0.03     0.05   0.04   0.00     0.03   0.01  -0.01
  15   1     0.09  -0.01   0.00     0.08  -0.02   0.05     0.08  -0.02  -0.00
  16   1     0.04   0.11  -0.08     0.04   0.07  -0.02     0.04   0.08  -0.03
  17   6    -0.18   0.11   0.14    -0.06   0.12   0.05    -0.09   0.10   0.06
  18   1     0.01   0.03   0.04     0.02   0.04   0.01     0.01   0.04   0.01
  19   1    -0.06   0.04   0.06     0.01   0.04   0.01    -0.01   0.04   0.02
  20   1    -0.07   0.04   0.07    -0.05   0.06   0.03    -0.05   0.04   0.03
  21   1     0.02   0.02   0.04     0.00   0.01   0.02     0.01   0.01   0.01
  22   6     0.13   0.04   0.09    -0.11  -0.01  -0.07    -0.14  -0.02  -0.09
  23   8     0.18   0.06  -0.03    -0.16  -0.04   0.03    -0.19  -0.04   0.04
  24   7    -0.08  -0.02  -0.18     0.05   0.02   0.14     0.07   0.00   0.16
  25   1    -0.21   0.02  -0.02     0.22  -0.13   0.01     0.23  -0.08   0.01
  26   1     0.04  -0.04  -0.20    -0.06   0.10   0.18    -0.07   0.10   0.21
  27   7    -0.16  -0.07   0.16     0.13   0.02  -0.14     0.16   0.03  -0.16
  28   1    -0.08  -0.01   0.13     0.07  -0.00  -0.11     0.04   0.07  -0.12
  29   1    -0.10  -0.04  -0.03     0.07   0.07   0.02     0.09   0.04   0.02
  30   6     0.01  -0.01  -0.01    -0.05  -0.02   0.08     0.09   0.06  -0.08
  31   8     0.02  -0.02  -0.01    -0.04  -0.01   0.10     0.03   0.07  -0.14
  32   7    -0.04  -0.03  -0.00     0.16   0.09   0.02    -0.16  -0.08  -0.01
  33   1    -0.00   0.14   0.05     0.02  -0.31  -0.17    -0.04   0.04   0.14
  34   1     0.01  -0.06  -0.02     0.04   0.13   0.07    -0.13  -0.00  -0.05
  35   7     0.01   0.03   0.03    -0.04  -0.01  -0.16     0.08  -0.10   0.17
  36   1     0.01   0.02   0.01    -0.07  -0.06  -0.08     0.07   0.25   0.09
[...]
  44   1    -0.05   0.01   0.03    -0.00   0.00   0.00    -0.00   0.00   0.00
  45   1     0.39   0.23   0.14     0.00   0.00   0.00     0.00   0.00   0.00
  46   6    -0.00  -0.00   0.01    -0.00  -0.00   0.01     0.00   0.00  -0.00
  47   8     0.00   0.00  -0.00     0.00  -0.00  -0.01     0.00  -0.00   0.00
  48   7     0.07  -0.03   0.08     0.01  -0.00   0.01     0.00  -0.00  -0.00
  49   1    -0.22   0.11  -0.33    -0.03   0.01  -0.04    -0.00   0.00  -0.00
  50   1    -0.02  -0.00   0.04    -0.00  -0.00   0.01    -0.00  -0.00   0.00
  51   7     0.00   0.00  -0.00     0.00   0.00  -0.00    -0.00   0.00  -0.00
  52   1     0.00  -0.00  -0.00     0.00  -0.00  -0.01    -0.00   0.00   0.01
  53   1    -0.01   0.00   0.00    -0.02   0.00   0.00     0.01  -0.00  -0.00
                    142                    143                    144
                        a                      a                      a 
 Frequencies --  3490.8065              3495.7663              3502.1724
 Red. masses --     1.4630                 1.4560                 1.4500
 Frc consts  --     0.0000                 0.0000                 0.0000
 IR Inten    --    19.1845                12.8489                17.0111
 Raman Activ --     0.0000                 0.0000                 0.0000
 Depolar     --     0.0000                 0.0000                 0.0000
 Atom AN      X      Y      Z        X      Y      Z        X      Y      Z
   1   8    -0.00   0.00  -0.00     0.00  -0.00   0.00     0.00  -0.00   0.00
   2   6    -0.00   0.00   0.00    -0.00  -0.00  -0.00     0.00  -0.00  -0.00
   3   1     0.00   0.00   0.00    -0.00  -0.00   0.00     0.00   0.00  -0.00
   4   1    -0.00  -0.00  -0.00     0.00   0.00  -0.00     0.00   0.00   0.00
   5   6    -0.00   0.00  -0.00    -0.00   0.00   0.00     0.00  -0.00  -0.00
   6   1     0.00  -0.00   0.00    -0.00   0.00  -0.00     0.00  -0.00   0.00
   7   1     0.00  -0.00  -0.00     0.00  -0.00  -0.00    -0.00   0.00   0.00
   8   7     0.00   0.00  -0.00     0.00   0.00   0.00     0.00   0.00   0.00
   9   6    -0.00   0.00  -0.00    -0.00   0.00   0.00     0.00   0.00  -0.00
  10   1     0.00   0.00  -0.00     0.00  -0.00  -0.00    -0.00   0.00  -0.00
  11   1    -0.00   0.00  -0.00     0.00   0.00   0.00    -0.00  -0.00   0.00
  12   1     0.00  -0.00   0.00    -0.00   0.00  -0.00    -0.00   0.00  -0.00
  13   6     0.00   0.00   0.00    -0.00   0.00   0.00     0.00   0.00   0.00
  14   1     0.00  -0.00  -0.00    -0.00   0.00   0.00     0.00   0.00   0.00
  15   1    -0.00  -0.00   0.00    -0.00   0.00   0.00    -0.00  -0.00  -0.00
  16   1     0.00   0.00   0.00     0.00  -0.00  -0.00     0.00   0.00   0.00
  17   6     0.00   0.00  -0.00    -0.00  -0.00   0.00     0.00   0.00   0.00
  18   1     0.00  -0.00   0.00    -0.00  -0.00  -0.00     0.00   0.00  -0.00
  19   1     0.00  -0.00   0.00    -0.00  -0.00  -0.00     0.00   0.00   0.00
  20   1    -0.00  -0.00   0.00     0.00   0.00   0.00    -0.00  -0.00  -0.00
  21   1     0.00  -0.00   0.00    -0.00   0.00  -0.00    -0.00   0.00  -0.00
  22   6     0.00   0.00   0.00     0.00   0.00   0.00    -0.00   0.00   0.00
  23   8    -0.00   0.00  -0.00    -0.00  -0.00  -0.00     0.00   0.00   0.00
  24   7     0.00   0.00  -0.00    -0.00  -0.00  -0.00    -0.14  -0.04   0.11
  25   1     0.00   0.00   0.00     0.00   0.00   0.00    -0.12  -0.02  -0.64
  26   1    -0.00  -0.00  -0.00     0.00   0.00   0.00     0.64   0.18   0.25
  27   7     0.00   0.00  -0.00     0.00   0.00   0.00     0.01   0.01  -0.00
  28   1     0.00   0.00   0.00    -0.00  -0.00  -0.00    -0.04  -0.02  -0.01
  29   1    -0.00  -0.00   0.00     0.00   0.00  -0.00    -0.02  -0.01   0.02
  30   6    -0.00   0.00  -0.00     0.00   0.00   0.00    -0.00  -0.00  -0.00
  31   8    -0.00  -0.00   0.00    -0.00  -0.00   0.00     0.00  -0.00   0.00
  32   7    -0.09   0.09  -0.13    -0.00   0.00  -0.00    -0.00  -0.00   0.00
  33   1     0.70  -0.04  -0.00     0.02  -0.00  -0.00     0.00  -0.00   0.00
  34   1    -0.35  -0.29   0.49    -0.01  -0.01   0.01     0.00   0.00  -0.00
  35   7     0.02   0.00  -0.03     0.00   0.00  -0.00     0.01   0.00  -0.01
  36   1    -0.08  -0.01   0.13    -0.00  -0.00   0.00    -0.02  -0.00   0.03
  37   1     0.00  -0.00  -0.00     0.00  -0.00   0.00     0.00  -0.00   0.00
  38   6     0.00  -0.00  -0.00     0.00  -0.00   0.00    -0.00  -0.00   0.00
  39   8    -0.00  -0.00   0.00    -0.00   0.00   0.00     0.00  -0.00  -0.00
  40   7    -0.00  -0.00  -0.00     0.17   0.06   0.06     0.00  -0.00  -0.00
  41   1    -0.00   0.01   0.01     0.04  -0.49  -0.41     0.00  -0.00  -0.00
  42   1     0.02  -0.01  -0.01    -0.66   0.27   0.20    -0.00   0.00   0.00
  43   7    -0.01  -0.00  -0.00    -0.01  -0.00   0.00    -0.00   0.00   0.00
  44   1     0.01  -0.00  -0.00     0.04  -0.01  -0.02     0.00  -0.00  -0.00
  45   1     0.01   0.01   0.00     0.01   0.01   0.00    -0.00  -0.00  -0.00
  46   6     0.00   0.00  -0.00     0.00   0.00   0.00    -0.00  -0.00  -0.00
  47   8     0.00  -0.00   0.00    -0.00  -0.00  -0.00    -0.00   0.00   0.00
  48   7     0.00  -0.00   0.00    -0.00   0.00  -0.00    -0.00  -0.00   0.00
  49   1    -0.00   0.00  -0.01     0.00  -0.00   0.00    -0.00   0.00  -0.00
  50   1    -0.00  -0.00   0.01     0.00   0.00  -0.00     0.00   0.00  -0.01
  51   7    -0.00   0.00  -0.00     0.00  -0.00   0.00    -0.01   0.00  -0.03
  52   1    -0.00   0.00   0.00     0.00  -0.00  -0.00    -0.05   0.00   0.11
  53   1     0.00  -0.00  -0.00    -0.00   0.00   0.00     0.11  -0.01  -0.01
                    145                    146                    147
                        a                      a                      a 
 Frequencies --  3502.5573              3524.0825              3531.2469
 Red. masses --     1.4503                 1.8982                 1.9607
 Frc consts  --     0.0000                 0.0000                 0.0000
 IR Inten    --    16.1385                12.7663                21.4121
 Raman Activ --     0.0000                 0.0000                 0.0000
 Depolar     --     0.0000                 0.0000                 0.0000
 Atom AN      X      Y      Z        X      Y      Z        X      Y      Z
   1   8     0.00   0.00  -0.00     0.00   0.00  -0.00     0.00  -0.00   0.00
   2   6    -0.00   0.00   0.00    -0.00   0.00  -0.00     0.00   0.00  -0.00
   3   1     0.00  -0.00  -0.00     0.00  -0.00   0.00     0.00   0.00   0.00
   4   1     0.00   0.00  -0.00     0.00   0.00  -0.00    -0.00  -0.00   0.00
   5   6     0.00  -0.00  -0.00     0.00  -0.00   0.00    -0.00   0.00  -0.00
   6   1     0.00   0.00   0.00     0.00   0.00  -0.00     0.00  -0.00   0.00
   7   1    -0.00   0.00   0.00    -0.00   0.00   0.00     0.00  -0.00  -0.00
   8   7    -0.00  -0.00  -0.00     0.00   0.00  -0.00     0.00   0.00   0.00
   9   6    -0.00  -0.00  -0.00     0.00   0.00   0.00    -0.00  -0.00   0.00
  10   1     0.00  -0.00   0.00    -0.00   0.00  -0.00    -0.00  -0.00  -0.00
  11   1     0.00   0.00   0.00    -0.00  -0.00  -0.00     0.00   0.00  -0.00
  12   1    -0.00   0.00   0.00     0.00  -0.00  -0.00    -0.00  -0.00  -0.00
  13   6     0.00   0.00   0.00     0.00   0.00  -0.00    -0.00   0.00  -0.00
  14   1    -0.00   0.00  -0.00     0.00  -0.00   0.00    -0.00  -0.00   0.00
  15   1    -0.00  -0.00  -0.00    -0.00  -0.00  -0.00     0.00   0.00   0.00
  16   1     0.00   0.00   0.00    -0.00   0.00   0.00     0.00  -0.00  -0.00
  17   6     0.00   0.00   0.00     0.00   0.00   0.00     0.00  -0.00   0.00
  18   1     0.00   0.00  -0.00    -0.00  -0.00  -0.00    -0.00  -0.00   0.00
  19   1    -0.00   0.00   0.00     0.00  -0.00   0.00    -0.00   0.00  -0.00
  20   1    -0.00  -0.00  -0.00    -0.00  -0.00  -0.00    -0.00   0.00   0.00
  21   1    -0.00  -0.00   0.00    -0.00  -0.00   0.00    -0.00   0.00  -0.00
  22   6    -0.00  -0.00   0.00     0.00   0.00  -0.00    -0.01  -0.01   0.00
  23   8     0.00   0.00   0.00    -0.00   0.00   0.00     0.00   0.00  -0.00
  24   7    -0.02  -0.01   0.02    -0.00  -0.00   0.00     0.01   0.00   0.02
  25   1    -0.02  -0.00  -0.11    -0.00  -0.00  -0.00    -0.01  -0.00  -0.08
  26   1     0.11   0.03   0.04     0.00   0.00   0.00    -0.01  -0.00  -0.00
  27   7     0.00   0.00  -0.00     0.00   0.00   0.00    -0.24  -0.11  -0.05
  28   1     0.01   0.00   0.00    -0.00  -0.00  -0.00     0.79   0.41   0.32
  29   1    -0.01  -0.00   0.01    -0.00  -0.00   0.00     0.11   0.03  -0.13
  30   6     0.00  -0.00  -0.00     0.00   0.00  -0.00     0.00   0.00  -0.00
  31   8    -0.00   0.00  -0.00    -0.00  -0.00   0.00    -0.00  -0.00   0.00
  32   7    -0.00  -0.00   0.00     0.00   0.00  -0.00    -0.00  -0.00   0.00
  33   1     0.00  -0.00   0.00    -0.00  -0.00  -0.00     0.00  -0.00   0.00
  34   1     0.00   0.00  -0.00    -0.01  -0.01   0.01     0.00   0.00  -0.00
  35   7     0.00   0.00  -0.01    -0.00   0.00  -0.00     0.00  -0.00   0.00
  36   1    -0.01  -0.00   0.01     0.00   0.00  -0.00     0.00  -0.00  -0.00
  37   1     0.01  -0.00   0.01     0.00  -0.00   0.00    -0.00   0.00  -0.01
  38   6     0.00   0.00   0.00     0.01   0.00  -0.00     0.00  -0.00  -0.00
  39   8    -0.00  -0.00  -0.00    -0.00  -0.00   0.00    -0.00   0.00   0.00
  40   7    -0.00  -0.00  -0.00    -0.00   0.02   0.01     0.00   0.00   0.00
  41   1    -0.00   0.00   0.00     0.00  -0.06  -0.05     0.00  -0.00  -0.00
  42   1     0.00  -0.00  -0.00     0.01  -0.00  -0.00    -0.00   0.00   0.00
  43   7     0.00  -0.00  -0.00     0.23  -0.04  -0.12     0.00  -0.00  -0.00
  44   1    -0.00   0.00   0.00    -0.81   0.18   0.47    -0.00   0.00   0.00
  45   1     0.00   0.00   0.00    -0.06  -0.05  -0.04    -0.00  -0.00  -0.00
  46   6     0.00   0.00   0.00     0.00  -0.00   0.00    -0.00  -0.00   0.00
  47   8     0.00  -0.00  -0.00    -0.00   0.00  -0.00     0.00   0.00  -0.00
  48   7     0.00   0.00  -0.01    -0.00   0.00   0.00     0.00  -0.00  -0.00
  49   1     0.01  -0.00   0.01     0.00  -0.00   0.00    -0.00   0.00  -0.00
  50   1    -0.02  -0.00   0.04     0.01   0.00  -0.01    -0.00  -0.00   0.01
  51   7     0.09  -0.02   0.16     0.00  -0.00  -0.00     0.00   0.00  -0.00
  52   1     0.32  -0.03  -0.64    -0.00   0.00   0.00    -0.01   0.00   0.01
  53   1    -0.64   0.08   0.05    -0.00   0.00   0.00     0.00  -0.00  -0.00
                    148                    149                    150
                        a                      a                      a 
 Frequencies --  3536.5619              3554.7258              3557.1060
 Red. masses --     1.8917                 2.1784                 1.8791
 Frc consts  --     0.0000                 0.0000                 0.0000
 IR Inten    --    14.7025                14.3179                20.9915
 Raman Activ --     0.0000                 0.0000                 0.0000
 Depolar     --     0.0000                 0.0000                 0.0000
 Atom AN      X      Y      Z        X      Y      Z        X      Y      Z
   1   8    -0.00   0.00  -0.00     0.00  -0.00   0.00     0.03  -0.21   0.11
   2   6    -0.00   0.00  -0.00    -0.00  -0.00   0.00     0.00  -0.01   0.00
   3   1     0.00  -0.00   0.00     0.00   0.00  -0.00     0.00   0.01  -0.01
   4   1     0.00   0.00   0.00     0.00   0.00  -0.00     0.00   0.00  -0.00
   5   6     0.00  -0.00  -0.00     0.00  -0.00  -0.00    -0.00   0.00   0.00
   6   1     0.00  -0.00   0.00    -0.00  -0.00   0.00    -0.00  -0.00  -0.00
   7   1    -0.00   0.00   0.00    -0.00   0.00  -0.00     0.00   0.00   0.00
   8   7     0.00   0.00   0.00    -0.00   0.00   0.00     0.00  -0.00   0.00
   9   6     0.00  -0.00  -0.00    -0.00   0.00   0.00     0.00   0.00   0.00
  10   1    -0.00   0.00   0.00     0.00  -0.00  -0.00     0.00  -0.00   0.00
  11   1     0.00   0.00  -0.00    -0.00   0.00  -0.00    -0.00  -0.00   0.00
  12   1     0.00  -0.00   0.00    -0.00  -0.00   0.00    -0.00   0.00  -0.00
  13   6     0.00  -0.00  -0.00    -0.00   0.00   0.00     0.00   0.00   0.00
  14   1     0.00   0.00   0.00    -0.00  -0.00   0.00     0.00   0.00  -0.00
  15   1    -0.00   0.00  -0.00    -0.00   0.00   0.00    -0.00  -0.00  -0.00
  16   1    -0.00   0.00   0.00     0.00  -0.00  -0.00    -0.00   0.00   0.00
  17   6    -0.00  -0.00  -0.00     0.00   0.00   0.00     0.00   0.00   0.00
  18   1     0.00   0.00   0.00    -0.00  -0.00   0.00     0.00  -0.00   0.00
  19   1     0.00  -0.00   0.00     0.00  -0.00  -0.00    -0.00   0.00  -0.00
  20   1     0.00   0.00  -0.00    -0.00  -0.00   0.00     0.00   0.00  -0.00
  21   1     0.00  -0.00   0.00    -0.00   0.00  -0.00    -0.15   0.85  -0.44
  22   6    -0.00  -0.00  -0.00     0.00  -0.00   0.00    -0.00  -0.00  -0.00
  23   8     0.00   0.00   0.00    -0.00   0.00  -0.00     0.00   0.00   0.00
  24   7     0.00   0.00   0.00     0.00   0.00   0.00    -0.00  -0.00  -0.00
  25   1    -0.00  -0.00  -0.00    -0.00  -0.00  -0.00     0.00  -0.00   0.00
  26   1    -0.00  -0.00  -0.00    -0.00  -0.00  -0.00     0.00   0.00   0.00
  27   7    -0.00  -0.00  -0.00    -0.00  -0.00  -0.00     0.00   0.00   0.00
  28   1     0.01   0.00   0.00     0.00   0.00   0.00    -0.00  -0.00  -0.00
  29   1     0.00   0.00  -0.00    -0.00  -0.00   0.00     0.00   0.00  -0.00
  30   6    -0.00  -0.00   0.00     0.01   0.00  -0.00    -0.00  -0.00   0.00
  31   8     0.00   0.00  -0.00    -0.00  -0.00   0.00     0.00   0.00   0.00
  32   7     0.00   0.00  -0.00     0.26   0.07  -0.13    -0.00  -0.00   0.00
  33   1    -0.01   0.00  -0.00    -0.66   0.05  -0.02     0.00  -0.00   0.00
  34   1    -0.01  -0.00   0.01    -0.33  -0.31   0.51     0.00   0.00  -0.00
  35   7     0.00   0.00  -0.00     0.00   0.00  -0.01    -0.00   0.00   0.00
  36   1    -0.00  -0.00   0.01    -0.02  -0.00   0.03     0.00  -0.00  -0.00
  37   1    -0.00   0.00  -0.00     0.00  -0.00   0.00    -0.00   0.00  -0.00
  38   6    -0.00   0.00   0.00    -0.00   0.00   0.00     0.00   0.00   0.00
  39   8     0.00  -0.00  -0.00     0.00  -0.00  -0.00    -0.00   0.00   0.00
  40   7     0.00  -0.00  -0.00     0.00  -0.00  -0.00    -0.00   0.00   0.00
  41   1    -0.00   0.00   0.00    -0.00   0.01   0.01     0.00  -0.01  -0.01
  42   1    -0.00   0.00   0.00    -0.00   0.00   0.00     0.01  -0.00  -0.00
  43   7    -0.00   0.00   0.00    -0.00   0.00   0.00    -0.00   0.00   0.00
  44   1     0.01  -0.00  -0.01     0.01  -0.00  -0.01     0.00  -0.00  -0.00
  45   1     0.00   0.00   0.00    -0.01  -0.00  -0.00     0.00   0.00   0.00
  46   6     0.00  -0.00   0.01     0.00   0.00  -0.00    -0.00  -0.00  -0.00
  47   8     0.00   0.00  -0.00    -0.00  -0.00   0.00    -0.00   0.00   0.00
  48   7    -0.10  -0.01   0.24     0.00   0.00  -0.00    -0.00  -0.00   0.00
  49   1    -0.05   0.02  -0.04     0.00  -0.00   0.01    -0.00   0.00  -0.00
  50   1     0.43   0.02  -0.86    -0.01  -0.00   0.01     0.00   0.00  -0.00
  51   7     0.03  -0.00  -0.00    -0.00   0.00   0.00    -0.00   0.00   0.00
  52   1    -0.00   0.00   0.01     0.00  -0.00  -0.00     0.00  -0.00  -0.00
  53   1    -0.09   0.01   0.00     0.00  -0.00  -0.00     0.00  -0.00  -0.00
                    151                    152                    153
                        a                      a                      a 
 Frequencies --  3560.2427              3568.5189              3568.7065
 Red. masses --     2.1714                 2.1814                 2.1827
 Frc consts  --     0.0000                 0.0000                 0.0000
 IR Inten    --     7.6005                13.1999                11.7827
 Raman Activ --     0.0000                 0.0000                 0.0000
 Depolar     --     0.0000                 0.0000                 0.0000
 Atom AN      X      Y      Z        X      Y      Z        X      Y      Z
   1   8    -0.00   0.00  -0.00    -0.00   0.00  -0.00    -0.00   0.00  -0.00
   2   6    -0.00   0.00  -0.00     0.00  -0.00  -0.00    -0.00   0.00   0.00
   3   1    -0.00  -0.00   0.00    -0.00  -0.00  -0.00     0.00  -0.00   0.00
   4   1    -0.00  -0.00   0.00     0.00   0.00   0.00    -0.00  -0.00   0.00
   5   6    -0.00   0.00   0.00    -0.00  -0.00   0.00    -0.00   0.00   0.00
   6   1    -0.00   0.00   0.00     0.00  -0.00   0.00    -0.00  -0.00   0.00
   7   1     0.00  -0.00  -0.00    -0.00   0.00   0.00     0.00  -0.00  -0.00
   8   7     0.00   0.00   0.00     0.00   0.00   0.00     0.00   0.00   0.00
   9   6    -0.00   0.00  -0.00     0.00   0.00  -0.00    -0.00  -0.00   0.00
  10   1     0.00   0.00   0.00    -0.00   0.00   0.00    -0.00  -0.00   0.00
  11   1    -0.00   0.00   0.00    -0.00  -0.00  -0.00     0.00   0.00  -0.00
  12   1    -0.00  -0.00   0.00     0.00  -0.00   0.00    -0.00  -0.00   0.00
  13   6    -0.00   0.00   0.00     0.00   0.00   0.00    -0.00  -0.00  -0.00
  14   1    -0.00  -0.00  -0.00     0.00   0.00  -0.00    -0.00  -0.00   0.00
  15   1    -0.00   0.00   0.00    -0.00  -0.00  -0.00     0.00   0.00   0.00
  16   1     0.00   0.00  -0.00    -0.00   0.00   0.00    -0.00  -0.00  -0.00
  17   6     0.00  -0.00   0.00     0.00   0.00  -0.00    -0.00  -0.00  -0.00
  18   1    -0.00  -0.00  -0.00     0.00   0.00  -0.00    -0.00   0.00   0.00
  19   1    -0.00   0.00   0.00     0.00  -0.00   0.00    -0.00  -0.00   0.00
  20   1     0.00   0.00   0.00    -0.00  -0.00  -0.00     0.00   0.00  -0.00
  21   1     0.00  -0.01   0.01     0.00  -0.00   0.00     0.00  -0.00   0.00
  22   6     0.00   0.00  -0.00     0.00   0.00   0.00    -0.01  -0.00  -0.01
  23   8    -0.00  -0.00  -0.00    -0.00  -0.00  -0.00     0.00   0.00   0.00
  24   7    -0.00  -0.00  -0.00     0.07   0.02   0.09    -0.17  -0.04  -0.22
  25   1     0.00   0.00   0.00    -0.04  -0.01  -0.26     0.09   0.01   0.64
  26   1     0.00   0.00   0.00    -0.22  -0.06  -0.08     0.55   0.15   0.18
  27   7    -0.00  -0.00  -0.00     0.00   0.00   0.00    -0.02  -0.01  -0.00
  28   1     0.00   0.00   0.00    -0.02  -0.01  -0.01     0.05   0.03   0.02
  29   1    -0.00   0.00   0.00     0.00   0.00  -0.00     0.01   0.00  -0.01
  30   6    -0.00   0.00   0.00    -0.00  -0.00   0.00     0.00  -0.00   0.00
  31   8     0.00   0.00  -0.00     0.00   0.00  -0.00    -0.00   0.00  -0.00
  32   7     0.00   0.00  -0.00    -0.00  -0.00   0.00     0.00   0.00  -0.00
  33   1    -0.01   0.00  -0.00     0.00  -0.00   0.00    -0.00   0.00   0.00
  34   1    -0.00  -0.00   0.00     0.00   0.00  -0.00    -0.00  -0.00   0.00
  35   7     0.00  -0.00  -0.00     0.00  -0.00   0.00    -0.00  -0.00   0.00
  36   1    -0.00   0.00   0.00    -0.00   0.00   0.00     0.00   0.00  -0.01
  37   1    -0.00   0.00  -0.00    -0.00   0.00  -0.01    -0.00   0.00  -0.00
  38   6    -0.01   0.01   0.01    -0.00   0.00   0.00     0.00   0.00  -0.00
  39   8     0.00  -0.00  -0.00     0.00  -0.00  -0.00    -0.00   0.00   0.00
  40   7    -0.15   0.20   0.16    -0.00   0.00   0.00     0.00  -0.00  -0.00
  41   1     0.01  -0.55  -0.47     0.00  -0.00  -0.00    -0.00   0.00   0.00
  42   1     0.57  -0.21  -0.15     0.00  -0.00  -0.00    -0.00   0.00   0.00
  43   7    -0.02   0.00   0.01    -0.00  -0.00   0.00    -0.00  -0.00  -0.00
  44   1     0.06  -0.01  -0.04     0.00  -0.00  -0.00    -0.00  -0.00  -0.00
  45   1     0.00   0.00   0.00     0.00   0.00   0.00     0.00   0.00   0.00
  46   6    -0.00   0.00   0.00    -0.01   0.00   0.01    -0.00   0.00   0.00
  47   8     0.00  -0.00  -0.00     0.00  -0.00  -0.00     0.00  -0.00  -0.00
  48   7     0.00  -0.00   0.00    -0.01  -0.00   0.02    -0.00  -0.00   0.01
  49   1    -0.00   0.00  -0.00    -0.00   0.00  -0.00    -0.00   0.00  -0.00
  50   1     0.00   0.00  -0.00     0.03   0.00  -0.06     0.01   0.00  -0.03
  51   7     0.00  -0.00  -0.00    -0.23   0.03   0.15    -0.09   0.01   0.06
  52   1    -0.00   0.00   0.00     0.24  -0.02  -0.54     0.10  -0.01  -0.22
  53   1    -0.00   0.00   0.00     0.65  -0.08  -0.02     0.26  -0.03  -0.01
